Generated with MDTraj, t= 0.0
 53
    1UNL     C1    1   0.348   0.339   0.058
    1UNL     C2    2   0.317   0.195   0.071
    1UNL     C3    3   0.243   0.126  -0.015
    1UNL     C4    4   0.181   0.191  -0.136
    1UNL     N1    5   0.172   0.100  -0.250
    1UNL     C5    6   0.118  -0.033  -0.218
    1UNL     C6    7   0.212  -0.103  -0.120
    1UNL     C7    8   0.213  -0.021   0.011
    1UNL     C8    9   0.079  -0.041   0.086
    1UNL     C9   10   0.081  -0.175   0.158
    1UNL     O1   11   0.115  -0.274   0.098
    1UNL     O2   12   0.040  -0.172   0.288
    1UNL    C10   13   0.046  -0.301   0.340
    1UNL    C11   14  -0.050  -0.021  -0.003
    1UNL    C12   15  -0.116   0.116   0.023
    1UNL    C13   16  -0.168   0.162  -0.114
    1UNL     O3   17  -0.171   0.305  -0.124
    1UNL    C14   18  -0.265   0.363  -0.037
    1UNL     O4   19  -0.090   0.098  -0.216
    1UNL    C15   20  -0.029  -0.023  -0.164
    1UNL     N2   21  -0.107  -0.140  -0.208
    1UNL    C16   22  -0.182  -0.195  -0.104
    1UNL    C17   23  -0.278  -0.296  -0.109
    1UNL    C18   24  -0.342  -0.333   0.007
    1UNL    C19   25  -0.313  -0.270   0.127
    1UNL    C20   26  -0.219  -0.169   0.133
    1UNL    C21   27  -0.152  -0.132   0.018
    1UNL     H1   28   0.412   0.358  -0.029
    1UNL     H2   29   0.400   0.378   0.146
    1UNL     H3   30   0.257   0.398   0.046
    1UNL     H4   31   0.356   0.143   0.157
    1UNL     H5   32   0.238   0.280  -0.165
    1UNL     H6   33   0.080   0.226  -0.113
    1UNL     H7   34   0.264   0.091  -0.295
    1UNL     H8   35   0.113  -0.090  -0.312
    1UNL     H9   36   0.313  -0.111  -0.161
    1UNL    H10   37   0.176  -0.204  -0.099
    1UNL    H11   38   0.294  -0.060   0.075
    1UNL    H12   39   0.074   0.035   0.165
    1UNL    H13   40   0.149  -0.336   0.336
    1UNL    H14   41   0.011  -0.299   0.444
    1UNL    H15   42  -0.018  -0.366   0.280
    1UNL    H16   43  -0.043   0.189   0.061
    1UNL    H17   44  -0.196   0.108   0.097
    1UNL    H18   45  -0.271   0.127  -0.130
    1UNL    H19   46  -0.265   0.471  -0.054
    1UNL    H20   47  -0.364   0.323  -0.057
    1UNL    H21   48  -0.238   0.344   0.067
    1UNL    H22   49  -0.150  -0.124  -0.299
    1UNL    H23   50  -0.300  -0.343  -0.203
    1UNL    H24   51  -0.416  -0.411   0.004
    1UNL    H25   52  -0.364  -0.301   0.217
    1UNL    H26   53  -0.195  -0.121   0.226
   0.00000   0.00000   0.00000   0.00000   0.00000   0.00000   0.00000   0.00000   0.00000
Generated with MDTraj, t= 1.0
 53
    1UNL     C1    1   0.312   0.357   0.070
    1UNL     C2    2   0.311   0.202   0.065
    1UNL     C3    3   0.229   0.131  -0.018
    1UNL     C4    4   0.172   0.193  -0.149
    1UNL     N1    5   0.166   0.101  -0.258
    1UNL     C5    6   0.111  -0.033  -0.225
    1UNL     C6    7   0.205  -0.101  -0.124
    1UNL     C7    8   0.203  -0.013   0.005
    1UNL     C8    9   0.077  -0.046   0.079
    1UNL     C9   10   0.071  -0.179   0.150
    1UNL     O1   11   0.085  -0.282   0.087
    1UNL     O2   12   0.042  -0.168   0.284
    1UNL    C10   13   0.015  -0.292   0.347
    1UNL    C11   14  -0.060  -0.018   0.000
    1UNL    C12   15  -0.119   0.122   0.021
    1UNL    C13   16  -0.156   0.179  -0.112
    1UNL     O3   17  -0.123   0.320  -0.128
    1UNL    C14   18  -0.202   0.383  -0.025
    1UNL     O4   19  -0.102   0.096  -0.216
    1UNL    C15   20  -0.042  -0.023  -0.165
    1UNL     N2   21  -0.106  -0.148  -0.196
    1UNL    C16   22  -0.173  -0.207  -0.094
    1UNL    C17   23  -0.251  -0.319  -0.104
    1UNL    C18   24  -0.309  -0.361   0.012
    1UNL    C19   25  -0.299  -0.292   0.128
    1UNL    C20   26  -0.223  -0.178   0.139
    1UNL    C21   27  -0.155  -0.132   0.025
    1UNL     H1   28   0.381   0.382  -0.008
    1UNL     H2   29   0.339   0.397   0.168
    1UNL     H3   30   0.208   0.388   0.054
    1UNL     H4   31   0.369   0.144   0.136
    1UNL     H5   32   0.227   0.286  -0.170
    1UNL     H6   33   0.073   0.224  -0.131
    1UNL     H7   34   0.257   0.089  -0.299
    1UNL     H8   35   0.086  -0.091  -0.311
    1UNL     H9   36   0.306  -0.122  -0.173
    1UNL    H10   37   0.171  -0.196  -0.099
    1UNL    H11   38   0.290  -0.054   0.058
    1UNL    H12   39   0.077   0.027   0.156
    1UNL    H13   40   0.113  -0.344   0.326
    1UNL    H14   41   0.007  -0.270   0.458
    1UNL    H15   42  -0.057  -0.367   0.301
    1UNL    H16   43  -0.044   0.186   0.060
    1UNL    H17   44  -0.199   0.121   0.096
    1UNL    H18   45  -0.265   0.166  -0.133
    1UNL    H19   46  -0.184   0.492  -0.027
    1UNL    H20   47  -0.306   0.346  -0.022
    1UNL    H21   48  -0.158   0.342   0.068
    1UNL    H22   49  -0.143  -0.154  -0.294
    1UNL    H23   50  -0.261  -0.360  -0.211
    1UNL    H24   51  -0.377  -0.452   0.013
    1UNL    H25   52  -0.346  -0.314   0.223
    1UNL    H26   53  -0.209  -0.130   0.236
   0.00000   0.00000   0.00000   0.00000   0.00000   0.00000   0.00000   0.00000   0.00000
Generated with MDTraj, t= 2.0
 53
    1UNL     C1    1   0.308   0.353   0.079
    1UNL     C2    2   0.271   0.207   0.084
    1UNL     C3    3   0.218   0.135  -0.016
    1UNL     C4    4   0.171   0.197  -0.146
    1UNL     N1    5   0.160   0.105  -0.252
    1UNL     C5    6   0.099  -0.023  -0.219
    1UNL     C6    7   0.188  -0.099  -0.120
    1UNL     C7    8   0.193  -0.016   0.012
    1UNL     C8    9   0.063  -0.047   0.090
    1UNL     C9   10   0.078  -0.182   0.153
    1UNL     O1   11   0.121  -0.280   0.093
    1UNL     O2   12   0.050  -0.178   0.288
    1UNL    C10   13   0.044  -0.305   0.343
    1UNL    C11   14  -0.066  -0.016  -0.003
    1UNL    C12   15  -0.135   0.122   0.012
    1UNL    C13   16  -0.158   0.183  -0.123
    1UNL     O3   17  -0.095   0.313  -0.137
    1UNL    C14   18  -0.155   0.399  -0.043
    1UNL     O4   19  -0.126   0.087  -0.230
    1UNL    C15   20  -0.051  -0.017  -0.169
    1UNL     N2   21  -0.111  -0.142  -0.211
    1UNL    C16   22  -0.171  -0.208  -0.099
    1UNL    C17   23  -0.253  -0.324  -0.098
    1UNL    C18   24  -0.320  -0.363   0.021
    1UNL    C19   25  -0.294  -0.291   0.137
    1UNL    C20   26  -0.212  -0.178   0.134
    1UNL    C21   27  -0.156  -0.135   0.018
    1UNL     H1   28   0.390   0.353   0.012
    1UNL     H2   29   0.348   0.392   0.175
    1UNL     H3   30   0.217   0.410   0.065
    1UNL     H4   31   0.280   0.145   0.173
    1UNL     H5   32   0.239   0.282  -0.164
    1UNL     H6   33   0.082   0.247  -0.124
    1UNL     H7   34   0.245   0.084  -0.299
    1UNL     H8   35   0.080  -0.088  -0.301
    1UNL     H9   36   0.292  -0.114  -0.168
    1UNL    H10   37   0.154  -0.194  -0.107
    1UNL    H11   38   0.276  -0.065   0.067
    1UNL    H12   39   0.049   0.017   0.168
    1UNL    H13   40   0.153  -0.335   0.340
    1UNL    H14   41   0.022  -0.289   0.451
    1UNL    H15   42  -0.005  -0.392   0.288
    1UNL    H16   43  -0.070   0.174   0.075
    1UNL    H17   44  -0.224   0.124   0.078
    1UNL    H18   45  -0.271   0.195  -0.134
    1UNL    H19   46  -0.102   0.494  -0.065
    1UNL    H20   47  -0.265   0.395  -0.042
    1UNL    H21   48  -0.116   0.362   0.058
    1UNL    H22   49  -0.166  -0.124  -0.302
    1UNL    H23   50  -0.278  -0.382  -0.177
    1UNL    H24   51  -0.388  -0.439   0.021
    1UNL    H25   52  -0.344  -0.333   0.223
    1UNL    H26   53  -0.197  -0.135   0.231
   0.00000   0.00000   0.00000   0.00000   0.00000   0.00000   0.00000   0.00000   0.00000
Generated with MDTraj, t= 3.0
 53
    1UNL     C1    1   0.289   0.350   0.092
    1UNL     C2    2   0.293   0.208   0.090
    1UNL     C3    3   0.242   0.135  -0.011
    1UNL     C4    4   0.194   0.209  -0.137
    1UNL     N1    5   0.137   0.116  -0.242
    1UNL     C5    6   0.099  -0.023  -0.214
    1UNL     C6    7   0.201  -0.091  -0.121
    1UNL     C7    8   0.206  -0.009   0.012
    1UNL     C8    9   0.066  -0.037   0.084
    1UNL     C9   10   0.074  -0.175   0.145
    1UNL     O1   11   0.120  -0.269   0.081
    1UNL     O2   12   0.035  -0.174   0.271
    1UNL    C10   13   0.081  -0.297   0.327
    1UNL    C11   14  -0.065  -0.019  -0.003
    1UNL    C12   15  -0.128   0.119   0.023
    1UNL    C13   16  -0.156   0.169  -0.116
    1UNL     O3   17  -0.082   0.295  -0.133
    1UNL    C14   18  -0.151   0.401  -0.066
    1UNL     O4   19  -0.133   0.069  -0.220
    1UNL    C15   20  -0.048  -0.036  -0.162
    1UNL     N2   21  -0.110  -0.163  -0.201
    1UNL    C16   22  -0.182  -0.215  -0.095
    1UNL    C17   23  -0.272  -0.322  -0.096
    1UNL    C18   24  -0.344  -0.351   0.014
    1UNL    C19   25  -0.315  -0.286   0.131
    1UNL    C20   26  -0.227  -0.182   0.134
    1UNL    C21   27  -0.160  -0.138   0.024
    1UNL     H1   28   0.354   0.390   0.020
    1UNL     H2   29   0.336   0.394   0.183
    1UNL     H3   30   0.188   0.388   0.094
    1UNL     H4   31   0.299   0.160   0.187
    1UNL     H5   32   0.270   0.279  -0.178
    1UNL     H6   33   0.115   0.284  -0.108
    1UNL     H7   34   0.163   0.130  -0.335
    1UNL     H8   35   0.105  -0.075  -0.304
    1UNL     H9   36   0.302  -0.082  -0.172
    1UNL    H10   37   0.184  -0.194  -0.103
    1UNL    H11   38   0.283  -0.049   0.081
    1UNL    H12   39   0.052   0.027   0.162
    1UNL    H13   40   0.189  -0.297   0.336
    1UNL    H14   41   0.052  -0.308   0.433
    1UNL    H15   42   0.053  -0.379   0.260
    1UNL    H16   43  -0.071   0.181   0.087
    1UNL    H17   44  -0.218   0.104   0.086
    1UNL    H18   45  -0.266   0.205  -0.119
    1UNL    H19   46  -0.084   0.486  -0.085
    1UNL    H20   47  -0.252   0.417  -0.103
    1UNL    H21   48  -0.155   0.373   0.047
    1UNL    H22   49  -0.155  -0.151  -0.297
    1UNL    H23   50  -0.290  -0.380  -0.190
    1UNL    H24   51  -0.418  -0.437   0.012
    1UNL    H25   52  -0.362  -0.323   0.221
    1UNL    H26   53  -0.200  -0.133   0.227
   0.00000   0.00000   0.00000   0.00000   0.00000   0.00000   0.00000   0.00000   0.00000
Generated with MDTraj, t= 4.0
 53
    1UNL     C1    1   0.309   0.339   0.100
    1UNL     C2    2   0.275   0.197   0.102
    1UNL     C3    3   0.208   0.143  -0.002
    1UNL     C4    4   0.173   0.216  -0.125
    1UNL     N1    5   0.109   0.135  -0.241
    1UNL     C5    6   0.099  -0.010  -0.218
    1UNL     C6    7   0.214  -0.070  -0.142
    1UNL     C7    8   0.207  -0.016  -0.005
    1UNL     C8    9   0.078  -0.054   0.077
    1UNL     C9   10   0.091  -0.180   0.157
    1UNL     O1   11   0.121  -0.281   0.096
    1UNL     O2   12   0.066  -0.182   0.294
    1UNL    C10   13   0.065  -0.319   0.327
    1UNL    C11   14  -0.057  -0.028  -0.006
    1UNL    C12   15  -0.113   0.114   0.016
    1UNL    C13   16  -0.157   0.160  -0.119
    1UNL     O3   17  -0.095   0.292  -0.150
    1UNL    C14   18  -0.157   0.403  -0.080
    1UNL     O4   19  -0.134   0.062  -0.219
    1UNL    C15   20  -0.040  -0.041  -0.161
    1UNL     N2   21  -0.089  -0.177  -0.197
    1UNL    C16   22  -0.177  -0.217  -0.098
    1UNL    C17   23  -0.269  -0.319  -0.096
    1UNL    C18   24  -0.337  -0.335   0.019
    1UNL    C19   25  -0.331  -0.254   0.128
    1UNL    C20   26  -0.238  -0.157   0.132
    1UNL    C21   27  -0.158  -0.140   0.017
    1UNL     H1   28   0.383   0.361   0.028
    1UNL     H2   29   0.355   0.378   0.190
    1UNL     H3   30   0.230   0.408   0.081
    1UNL     H4   31   0.300   0.140   0.191
    1UNL     H5   32   0.257   0.268  -0.173
    1UNL     H6   33   0.104   0.305  -0.118
    1UNL     H7   34   0.010   0.182  -0.245
    1UNL     H8   35   0.115  -0.044  -0.314
    1UNL     H9   36   0.310  -0.033  -0.180
    1UNL    H10   37   0.214  -0.185  -0.145
    1UNL    H11   38   0.295  -0.054   0.054
    1UNL    H12   39   0.075   0.018   0.154
    1UNL    H13   40   0.157  -0.373   0.306
    1UNL    H14   41   0.040  -0.329   0.430
    1UNL    H15   42  -0.030  -0.336   0.279
    1UNL    H16   43  -0.043   0.189   0.053
    1UNL    H17   44  -0.187   0.109   0.094
    1UNL    H18   45  -0.266   0.203  -0.119
    1UNL    H19   46  -0.083   0.482  -0.080
    1UNL    H20   47  -0.237   0.441  -0.141
    1UNL    H21   48  -0.200   0.375   0.025
    1UNL    H22   49  -0.123  -0.183  -0.296
    1UNL    H23   50  -0.275  -0.383  -0.185
    1UNL    H24   51  -0.405  -0.417   0.032
    1UNL    H25   52  -0.385  -0.264   0.222
    1UNL    H26   53  -0.224  -0.092   0.216
   0.00000   0.00000   0.00000   0.00000   0.00000   0.00000   0.00000   0.00000   0.00000
Generated with MDTraj, t= 5.0
 53
    1UNL     C1    1   0.315   0.340   0.120
    1UNL     C2    2   0.312   0.190   0.106
    1UNL     C3    3   0.241   0.133   0.005
    1UNL     C4    4   0.206   0.205  -0.121
    1UNL     N1    5   0.117   0.138  -0.223
    1UNL     C5    6   0.105  -0.013  -0.218
    1UNL     C6    7   0.227  -0.071  -0.138
    1UNL     C7    8   0.213  -0.012   0.007
    1UNL     C8    9   0.073  -0.039   0.079
    1UNL     C9   10   0.082  -0.179   0.138
    1UNL     O1   11   0.105  -0.273   0.064
    1UNL     O2   12   0.043  -0.185   0.266
    1UNL    C10   13   0.068  -0.320   0.301
    1UNL    C11   14  -0.058  -0.019   0.000
    1UNL    C12   15  -0.131   0.119   0.016
    1UNL    C13   16  -0.176   0.158  -0.123
    1UNL     O3   17  -0.141   0.292  -0.177
    1UNL    C14   18  -0.176   0.402  -0.094
    1UNL     O4   19  -0.127   0.048  -0.219
    1UNL    C15   20  -0.035  -0.039  -0.156
    1UNL     N2   21  -0.079  -0.180  -0.185
    1UNL    C16   22  -0.169  -0.210  -0.080
    1UNL    C17   23  -0.260  -0.319  -0.079
    1UNL    C18   24  -0.339  -0.342   0.030
    1UNL    C19   25  -0.329  -0.254   0.138
    1UNL    C20   26  -0.243  -0.145   0.138
    1UNL    C21   27  -0.160  -0.127   0.030
    1UNL     H1   28   0.382   0.388   0.052
    1UNL     H2   29   0.338   0.376   0.218
    1UNL     H3   30   0.224   0.384   0.085
    1UNL     H4   31   0.337   0.136   0.196
    1UNL     H5   32   0.291   0.235  -0.183
    1UNL     H6   33   0.156   0.304  -0.113
    1UNL     H7   34   0.030   0.172  -0.199
    1UNL     H8   35   0.102  -0.047  -0.316
    1UNL     H9   36   0.321  -0.038  -0.178
    1UNL    H10   37   0.226  -0.191  -0.129
    1UNL    H11   38   0.294  -0.053   0.075
    1UNL    H12   39   0.068   0.039   0.154
    1UNL    H13   40   0.162  -0.360   0.258
    1UNL    H14   41   0.073  -0.330   0.411
    1UNL    H15   42  -0.022  -0.372   0.271
    1UNL    H16   43  -0.070   0.193   0.072
    1UNL    H17   44  -0.213   0.101   0.081
    1UNL    H18   45  -0.291   0.143  -0.131
    1UNL    H19   46  -0.178   0.484  -0.162
    1UNL    H20   47  -0.276   0.393  -0.059
    1UNL    H21   48  -0.109   0.428  -0.004
    1UNL    H22   49  -0.097  -0.195  -0.283
    1UNL    H23   50  -0.266  -0.390  -0.152
    1UNL    H24   51  -0.406  -0.424   0.030
    1UNL    H25   52  -0.398  -0.281   0.215
    1UNL    H26   53  -0.249  -0.083   0.227
   0.00000   0.00000   0.00000   0.00000   0.00000   0.00000   0.00000   0.00000   0.00000
Generated with MDTraj, t= 6.0
 53
    1UNL     C1    1   0.350   0.334   0.122
    1UNL     C2    2   0.279   0.200   0.117
    1UNL     C3    3   0.230   0.139   0.009
    1UNL     C4    4   0.226   0.202  -0.127
    1UNL     N1    5   0.127   0.145  -0.213
    1UNL     C5    6   0.110  -0.006  -0.212
    1UNL     C6    7   0.224  -0.063  -0.127
    1UNL     C7    8   0.203  -0.013   0.013
    1UNL     C8    9   0.068  -0.051   0.081
    1UNL     C9   10   0.079  -0.196   0.133
    1UNL     O1   11   0.111  -0.289   0.064
    1UNL     O2   12   0.049  -0.204   0.266
    1UNL    C10   13   0.046  -0.340   0.297
    1UNL    C11   14  -0.058  -0.014  -0.003
    1UNL    C12   15  -0.120   0.130   0.003
    1UNL    C13   16  -0.183   0.158  -0.132
    1UNL     O3   17  -0.163   0.291  -0.185
    1UNL    C14   18  -0.207   0.396  -0.104
    1UNL     O4   19  -0.125   0.059  -0.230
    1UNL    C15   20  -0.035  -0.033  -0.164
    1UNL     N2   21  -0.089  -0.170  -0.190
    1UNL    C16   22  -0.171  -0.211  -0.085
    1UNL    C17   23  -0.247  -0.324  -0.064
    1UNL    C18   24  -0.313  -0.342   0.056
    1UNL    C19   25  -0.307  -0.247   0.153
    1UNL    C20   26  -0.241  -0.127   0.132
    1UNL    C21   27  -0.165  -0.113   0.021
    1UNL     H1   28   0.373   0.371   0.024
    1UNL     H2   29   0.437   0.326   0.182
    1UNL     H3   30   0.282   0.412   0.150
    1UNL     H4   31   0.249   0.147   0.207
    1UNL     H5   32   0.313   0.179  -0.186
    1UNL     H6   33   0.221   0.311  -0.128
    1UNL     H7   34   0.024   0.183  -0.227
    1UNL     H8   35   0.103  -0.041  -0.310
    1UNL     H9   36   0.318  -0.029  -0.170
    1UNL    H10   37   0.224  -0.181  -0.126
    1UNL    H11   38   0.281  -0.061   0.079
    1UNL    H12   39   0.066   0.005   0.179
    1UNL    H13   40   0.151  -0.371   0.328
    1UNL    H14   41  -0.023  -0.350   0.384
    1UNL    H15   42   0.027  -0.414   0.215
    1UNL    H16   43  -0.026   0.187   0.023
    1UNL    H17   44  -0.182   0.146   0.086
    1UNL    H18   45  -0.288   0.117  -0.132
    1UNL    H19   46  -0.235   0.463  -0.180
    1UNL    H20   47  -0.293   0.383  -0.044
    1UNL    H21   48  -0.128   0.446  -0.040
    1UNL    H22   49  -0.130  -0.179  -0.279
    1UNL    H23   50  -0.249  -0.407  -0.142
    1UNL    H24   51  -0.376  -0.434   0.073
    1UNL    H25   52  -0.367  -0.259   0.245
    1UNL    H26   53  -0.242  -0.050   0.205
   0.00000   0.00000   0.00000   0.00000   0.00000   0.00000   0.00000   0.00000   0.00000
Generated with MDTraj, t= 7.0
 53
    1UNL     C1    1   0.314   0.331   0.119
    1UNL     C2    2   0.313   0.188   0.098
    1UNL     C3    3   0.251   0.132  -0.003
    1UNL     C4    4   0.199   0.214  -0.127
    1UNL     N1    5   0.126   0.143  -0.227
    1UNL     C5    6   0.109  -0.011  -0.213
    1UNL     C6    7   0.221  -0.079  -0.130
    1UNL     C7    8   0.215  -0.012   0.009
    1UNL     C8    9   0.078  -0.037   0.080
    1UNL     C9   10   0.073  -0.178   0.137
    1UNL     O1   11   0.113  -0.270   0.072
    1UNL     O2   12   0.020  -0.200   0.262
    1UNL    C10   13   0.025  -0.340   0.281
    1UNL    C11   14  -0.053  -0.011  -0.006
    1UNL    C12   15  -0.108   0.129   0.012
    1UNL    C13   16  -0.169   0.162  -0.125
    1UNL     O3   17  -0.131   0.293  -0.173
    1UNL    C14   18  -0.217   0.386  -0.111
    1UNL     O4   19  -0.132   0.061  -0.221
    1UNL    C15   20  -0.037  -0.030  -0.162
    1UNL     N2   21  -0.080  -0.171  -0.180
    1UNL    C16   22  -0.163  -0.214  -0.071
    1UNL    C17   23  -0.243  -0.324  -0.067
    1UNL    C18   24  -0.317  -0.344   0.049
    1UNL    C19   25  -0.314  -0.257   0.153
    1UNL    C20   26  -0.237  -0.141   0.144
    1UNL    C21   27  -0.160  -0.117   0.029
    1UNL     H1   28   0.363   0.382   0.038
    1UNL     H2   29   0.355   0.350   0.213
    1UNL     H3   30   0.211   0.362   0.115
    1UNL     H4   31   0.313   0.122   0.184
    1UNL     H5   32   0.282   0.268  -0.170
    1UNL     H6   33   0.132   0.287  -0.088
    1UNL     H7   34   0.039   0.182  -0.256
    1UNL     H8   35   0.098  -0.054  -0.309
    1UNL     H9   36   0.321  -0.066  -0.178
    1UNL    H10   37   0.197  -0.188  -0.124
    1UNL    H11   38   0.300  -0.050   0.072
    1UNL    H12   39   0.084   0.025   0.179
    1UNL    H13   40   0.137  -0.358   0.263
    1UNL    H14   41   0.010  -0.361   0.389
    1UNL    H15   42  -0.013  -0.417   0.209
    1UNL    H16   43  -0.024   0.201   0.020
    1UNL    H17   44  -0.174   0.132   0.095
    1UNL    H18   45  -0.279   0.158  -0.115
    1UNL    H19   46  -0.167   0.479  -0.106
    1UNL    H20   47  -0.309   0.402  -0.161
    1UNL    H21   48  -0.242   0.354  -0.007
    1UNL    H22   49  -0.123  -0.179  -0.268
    1UNL    H23   50  -0.243  -0.395  -0.147
    1UNL    H24   51  -0.381  -0.423   0.060
    1UNL    H25   52  -0.362  -0.262   0.247
    1UNL    H26   53  -0.236  -0.067   0.224
   0.00000   0.00000   0.00000   0.00000   0.00000   0.00000   0.00000   0.00000   0.00000
Generated with MDTraj, t= 8.0
 53
    1UNL     C1    1   0.326   0.345   0.103
    1UNL     C2    2   0.286   0.205   0.103
    1UNL     C3    3   0.226   0.142   0.004
    1UNL     C4    4   0.172   0.225  -0.114
    1UNL     N1    5   0.131   0.148  -0.235
    1UNL     C5    6   0.101  -0.003  -0.219
    1UNL     C6    7   0.206  -0.067  -0.137
    1UNL     C7    8   0.208  -0.014   0.004
    1UNL     C8    9   0.081  -0.049   0.084
    1UNL     C9   10   0.098  -0.186   0.141
    1UNL     O1   11   0.148  -0.279   0.082
    1UNL     O2   12   0.035  -0.192   0.257
    1UNL    C10   13   0.016  -0.326   0.294
    1UNL    C11   14  -0.051  -0.024   0.001
    1UNL    C12   15  -0.106   0.118   0.017
    1UNL    C13   16  -0.159   0.159  -0.122
    1UNL     O3   17  -0.101   0.288  -0.163
    1UNL    C14   18  -0.187   0.393  -0.117
    1UNL     O4   19  -0.139   0.054  -0.212
    1UNL    C15   20  -0.043  -0.036  -0.157
    1UNL     N2   21  -0.091  -0.175  -0.188
    1UNL    C16   22  -0.167  -0.220  -0.079
    1UNL    C17   23  -0.259  -0.327  -0.079
    1UNL    C18   24  -0.341  -0.340   0.035
    1UNL    C19   25  -0.322  -0.252   0.144
    1UNL    C20   26  -0.228  -0.155   0.150
    1UNL    C21   27  -0.154  -0.138   0.032
    1UNL     H1   28   0.406   0.364   0.031
    1UNL     H2   29   0.352   0.368   0.202
    1UNL     H3   30   0.238   0.403   0.079
    1UNL     H4   31   0.291   0.145   0.193
    1UNL     H5   32   0.261   0.274  -0.145
    1UNL     H6   33   0.098   0.296  -0.083
    1UNL     H7   34   0.043   0.198  -0.278
    1UNL     H8   35   0.116  -0.036  -0.321
    1UNL     H9   36   0.308  -0.061  -0.191
    1UNL    H10   37   0.179  -0.171  -0.128
    1UNL    H11   38   0.301  -0.055   0.051
    1UNL    H12   39   0.087   0.027   0.176
    1UNL    H13   40   0.114  -0.370   0.288
    1UNL    H14   41  -0.010  -0.331   0.399
    1UNL    H15   42  -0.057  -0.385   0.240
    1UNL    H16   43  -0.041   0.197   0.051
    1UNL    H17   44  -0.195   0.111   0.078
    1UNL    H18   45  -0.260   0.187  -0.106
    1UNL    H19   46  -0.128   0.483  -0.105
    1UNL    H20   47  -0.269   0.411  -0.183
    1UNL    H21   48  -0.226   0.364  -0.017
    1UNL    H22   49  -0.135  -0.171  -0.278
    1UNL    H23   50  -0.276  -0.392  -0.160
    1UNL    H24   51  -0.414  -0.427   0.036
    1UNL    H25   52  -0.397  -0.270   0.222
    1UNL    H26   53  -0.210  -0.096   0.238
   0.00000   0.00000   0.00000   0.00000   0.00000   0.00000   0.00000   0.00000   0.00000
Generated with MDTraj, t= 9.0
 53
    1UNL     C1    1   0.314   0.363   0.078
    1UNL     C2    2   0.298   0.218   0.085
    1UNL     C3    3   0.229   0.144   0.002
    1UNL     C4    4   0.192   0.214  -0.124
    1UNL     N1    5   0.143   0.126  -0.227
    1UNL     C5    6   0.099  -0.015  -0.214
    1UNL     C6    7   0.190  -0.087  -0.118
    1UNL     C7    8   0.200  -0.008   0.014
    1UNL     C8    9   0.067  -0.034   0.093
    1UNL     C9   10   0.091  -0.179   0.141
    1UNL     O1   11   0.145  -0.272   0.078
    1UNL     O2   12   0.036  -0.201   0.266
    1UNL    C10   13   0.069  -0.329   0.315
    1UNL    C11   14  -0.067  -0.022   0.006
    1UNL    C12   15  -0.131   0.118   0.022
    1UNL    C13   16  -0.166   0.168  -0.121
    1UNL     O3   17  -0.103   0.291  -0.167
    1UNL    C14   18  -0.151   0.396  -0.083
    1UNL     O4   19  -0.130   0.066  -0.218
    1UNL    C15   20  -0.043  -0.033  -0.157
    1UNL     N2   21  -0.094  -0.163  -0.191
    1UNL    C16   22  -0.173  -0.218  -0.087
    1UNL    C17   23  -0.263  -0.323  -0.088
    1UNL    C18   24  -0.344  -0.347   0.017
    1UNL    C19   25  -0.337  -0.269   0.136
    1UNL    C20   26  -0.241  -0.171   0.142
    1UNL    C21   27  -0.163  -0.138   0.029
    1UNL     H1   28   0.360   0.400  -0.015
    1UNL     H2   29   0.356   0.401   0.167
    1UNL     H3   30   0.214   0.402   0.083
    1UNL     H4   31   0.318   0.176   0.183
    1UNL     H5   32   0.276   0.265  -0.170
    1UNL     H6   33   0.108   0.274  -0.105
    1UNL     H7   34   0.087   0.179  -0.292
    1UNL     H8   35   0.111  -0.056  -0.314
    1UNL     H9   36   0.299  -0.095  -0.160
    1UNL    H10   37   0.151  -0.182  -0.098
    1UNL    H11   38   0.289  -0.046   0.068
    1UNL    H12   39   0.061   0.031   0.193
    1UNL    H13   40   0.163  -0.333   0.368
    1UNL    H14   41  -0.007  -0.372   0.379
    1UNL    H15   42   0.053  -0.393   0.229
    1UNL    H16   43  -0.064   0.185   0.068
    1UNL    H17   44  -0.221   0.109   0.083
    1UNL    H18   45  -0.271   0.173  -0.130
    1UNL    H19   46  -0.164   0.484  -0.148
    1UNL    H20   47  -0.244   0.367  -0.028
    1UNL    H21   48  -0.068   0.418  -0.016
    1UNL    H22   49  -0.117  -0.170  -0.291
    1UNL    H23   50  -0.274  -0.388  -0.181
    1UNL    H24   51  -0.415  -0.423   0.009
    1UNL    H25   52  -0.407  -0.289   0.214
    1UNL    H26   53  -0.216  -0.106   0.226
   0.00000   0.00000   0.00000   0.00000   0.00000   0.00000   0.00000   0.00000   0.00000
Generated with MDTraj, t= 10.0
 53
    1UNL     C1    1   0.313   0.358   0.090
    1UNL     C2    2   0.278   0.216   0.079
    1UNL     C3    3   0.212   0.147  -0.013
    1UNL     C4    4   0.169   0.215  -0.133
    1UNL     N1    5   0.154   0.124  -0.250
    1UNL     C5    6   0.111  -0.018  -0.225
    1UNL     C6    7   0.199  -0.086  -0.117
    1UNL     C7    8   0.194  -0.003   0.008
    1UNL     C8    9   0.065  -0.045   0.083
    1UNL     C9   10   0.081  -0.186   0.150
    1UNL     O1   11   0.116  -0.283   0.085
    1UNL     O2   12   0.041  -0.192   0.274
    1UNL    C10   13   0.076  -0.308   0.337
    1UNL    C11   14  -0.062  -0.028  -0.009
    1UNL    C12   15  -0.115   0.116   0.017
    1UNL    C13   16  -0.162   0.167  -0.121
    1UNL     O3   17  -0.112   0.294  -0.146
    1UNL    C14   18  -0.144   0.383  -0.037
    1UNL     O4   19  -0.119   0.072  -0.228
    1UNL    C15   20  -0.038  -0.036  -0.166
    1UNL     N2   21  -0.096  -0.169  -0.196
    1UNL    C16   22  -0.179  -0.219  -0.096
    1UNL    C17   23  -0.265  -0.327  -0.094
    1UNL    C18   24  -0.333  -0.346   0.027
    1UNL    C19   25  -0.320  -0.264   0.138
    1UNL    C20   26  -0.235  -0.153   0.130
    1UNL    C21   27  -0.168  -0.130   0.012
    1UNL     H1   28   0.391   0.393   0.023
    1UNL     H2   29   0.332   0.393   0.189
    1UNL     H3   30   0.226   0.417   0.066
    1UNL     H4   31   0.310   0.162   0.167
    1UNL     H5   32   0.248   0.277  -0.167
    1UNL     H6   33   0.080   0.274  -0.121
    1UNL     H7   34   0.076   0.163  -0.296
    1UNL     H8   35   0.118  -0.075  -0.319
    1UNL     H9   36   0.307  -0.118  -0.146
    1UNL    H10   37   0.150  -0.174  -0.084
    1UNL    H11   38   0.275  -0.036   0.074
    1UNL    H12   39   0.043   0.026   0.174
    1UNL    H13   40   0.181  -0.344   0.338
    1UNL    H14   41   0.038  -0.304   0.440
    1UNL    H15   42   0.003  -0.382   0.297
    1UNL    H16   43  -0.040   0.176   0.058
    1UNL    H17   44  -0.192   0.113   0.094
    1UNL    H18   45  -0.264   0.152  -0.136
    1UNL    H19   46  -0.120   0.483  -0.084
    1UNL    H20   47  -0.251   0.373  -0.002
    1UNL    H21   48  -0.068   0.375   0.038
    1UNL    H22   49  -0.104  -0.195  -0.297
    1UNL    H23   50  -0.269  -0.384  -0.178
    1UNL    H24   51  -0.404  -0.430   0.041
    1UNL    H25   52  -0.365  -0.276   0.237
    1UNL    H26   53  -0.215  -0.094   0.217
   0.00000   0.00000   0.00000   0.00000   0.00000   0.00000   0.00000   0.00000   0.00000
Generated with MDTraj, t= 11.0
 53
    1UNL     C1    1   0.292   0.343   0.106
    1UNL     C2    2   0.289   0.195   0.085
    1UNL     C3    3   0.235   0.135  -0.023
    1UNL     C4    4   0.182   0.206  -0.144
    1UNL     N1    5   0.145   0.119  -0.250
    1UNL     C5    6   0.103  -0.018  -0.223
    1UNL     C6    7   0.199  -0.091  -0.131
    1UNL     C7    8   0.207  -0.015  -0.001
    1UNL     C8    9   0.081  -0.040   0.078
    1UNL     C9   10   0.088  -0.172   0.151
    1UNL     O1   11   0.100  -0.277   0.085
    1UNL     O2   12   0.069  -0.166   0.291
    1UNL    C10   13   0.038  -0.298   0.335
    1UNL    C11   14  -0.054  -0.029  -0.003
    1UNL    C12   15  -0.112   0.109   0.025
    1UNL    C13   16  -0.155   0.165  -0.112
    1UNL     O3   17  -0.110   0.303  -0.126
    1UNL    C14   18  -0.192   0.408  -0.075
    1UNL     O4   19  -0.112   0.077  -0.218
    1UNL    C15   20  -0.037  -0.032  -0.168
    1UNL     N2   21  -0.091  -0.164  -0.204
    1UNL    C16   22  -0.175  -0.213  -0.099
    1UNL    C17   23  -0.274  -0.317  -0.104
    1UNL    C18   24  -0.336  -0.353   0.025
    1UNL    C19   25  -0.311  -0.280   0.140
    1UNL    C20   26  -0.221  -0.172   0.139
    1UNL    C21   27  -0.159  -0.141   0.021
    1UNL     H1   28   0.352   0.396   0.034
    1UNL     H2   29   0.323   0.377   0.204
    1UNL     H3   30   0.188   0.374   0.103
    1UNL     H4   31   0.321   0.137   0.170
    1UNL     H5   32   0.256   0.272  -0.178
    1UNL     H6   33   0.098   0.264  -0.106
    1UNL     H7   34   0.065   0.163  -0.301
    1UNL     H8   35   0.105  -0.078  -0.318
    1UNL     H9   36   0.297  -0.112  -0.177
    1UNL    H10   37   0.144  -0.181  -0.102
    1UNL    H11   38   0.289  -0.060   0.056
    1UNL    H12   39   0.071   0.039   0.162
    1UNL    H13   40   0.069  -0.387   0.274
    1UNL    H14   41   0.062  -0.322   0.442
    1UNL    H15   42  -0.074  -0.311   0.335
    1UNL    H16   43  -0.040   0.184   0.053
    1UNL    H17   44  -0.180   0.107   0.109
    1UNL    H18   45  -0.260   0.176  -0.127
    1UNL    H19   46  -0.131   0.503  -0.086
    1UNL    H20   47  -0.289   0.415  -0.135
    1UNL    H21   48  -0.205   0.398   0.030
    1UNL    H22   49  -0.126  -0.149  -0.303
    1UNL    H23   50  -0.288  -0.375  -0.198
    1UNL    H24   51  -0.390  -0.444   0.020
    1UNL    H25   52  -0.367  -0.307   0.229
    1UNL    H26   53  -0.203  -0.128   0.236
   0.00000   0.00000   0.00000   0.00000   0.00000   0.00000   0.00000   0.00000   0.00000
Generated with MDTraj, t= 12.0
 53
    1UNL     C1    1   0.311   0.332   0.094
    1UNL     C2    2   0.293   0.187   0.092
    1UNL     C3    3   0.231   0.121  -0.005
    1UNL     C4    4   0.186   0.206  -0.119
    1UNL     N1    5   0.135   0.128  -0.230
    1UNL     C5    6   0.107  -0.020  -0.223
    1UNL     C6    7   0.209  -0.096  -0.134
    1UNL     C7    8   0.207  -0.026   0.006
    1UNL     C8    9   0.079  -0.055   0.076
    1UNL     C9   10   0.074  -0.185   0.151
    1UNL     O1   11   0.099  -0.287   0.088
    1UNL     O2   12   0.049  -0.172   0.283
    1UNL    C10   13   0.071  -0.295   0.340
    1UNL    C11   14  -0.053  -0.025  -0.006
    1UNL    C12   15  -0.118   0.116   0.025
    1UNL    C13   16  -0.162   0.168  -0.114
    1UNL     O3   17  -0.124   0.313  -0.125
    1UNL    C14   18  -0.217   0.418  -0.125
    1UNL     O4   19  -0.108   0.092  -0.220
    1UNL    C15   20  -0.039  -0.029  -0.167
    1UNL     N2   21  -0.106  -0.154  -0.201
    1UNL    C16   22  -0.179  -0.208  -0.097
    1UNL    C17   23  -0.269  -0.313  -0.095
    1UNL    C18   24  -0.327  -0.355   0.022
    1UNL    C19   25  -0.299  -0.284   0.139
    1UNL    C20   26  -0.213  -0.172   0.135
    1UNL    C21   27  -0.153  -0.132   0.020
    1UNL     H1   28   0.277   0.378   0.005
    1UNL     H2   29   0.415   0.365   0.105
    1UNL     H3   30   0.262   0.363   0.187
    1UNL     H4   31   0.350   0.133   0.167
    1UNL     H5   32   0.274   0.259  -0.140
    1UNL     H6   33   0.116   0.280  -0.080
    1UNL     H7   34   0.049   0.175  -0.266
    1UNL     H8   35   0.118  -0.060  -0.329
    1UNL     H9   36   0.301  -0.097  -0.182
    1UNL    H10   37   0.169  -0.197  -0.113
    1UNL    H11   38   0.293  -0.065   0.059
    1UNL    H12   39   0.065   0.023   0.157
    1UNL    H13   40   0.176  -0.333   0.330
    1UNL    H14   41   0.050  -0.285   0.448
    1UNL    H15   42   0.021  -0.385   0.298
    1UNL    H16   43  -0.054   0.184   0.082
    1UNL    H17   44  -0.208   0.121   0.082
    1UNL    H18   45  -0.270   0.175  -0.121
    1UNL    H19   46  -0.165   0.516  -0.142
    1UNL    H20   47  -0.292   0.397  -0.207
    1UNL    H21   48  -0.255   0.428  -0.029
    1UNL    H22   49  -0.155  -0.153  -0.295
    1UNL    H23   50  -0.289  -0.368  -0.189
    1UNL    H24   51  -0.394  -0.439   0.026
    1UNL    H25   52  -0.346  -0.309   0.235
    1UNL    H26   53  -0.203  -0.105   0.221
   0.00000   0.00000   0.00000   0.00000   0.00000   0.00000   0.00000   0.00000   0.00000
Generated with MDTraj, t= 13.0
 53
    1UNL     C1    1   0.363   0.311   0.100
    1UNL     C2    2   0.305   0.179   0.104
    1UNL     C3    3   0.233   0.136   0.003
    1UNL     C4    4   0.179   0.213  -0.112
    1UNL     N1    5   0.137   0.128  -0.223
    1UNL     C5    6   0.103  -0.013  -0.211
    1UNL     C6    7   0.204  -0.085  -0.129
    1UNL     C7    8   0.199  -0.019   0.012
    1UNL     C8    9   0.070  -0.044   0.089
    1UNL     C9   10   0.079  -0.186   0.146
    1UNL     O1   11   0.123  -0.276   0.075
    1UNL     O2   12   0.060  -0.184   0.284
    1UNL    C10   13   0.089  -0.312   0.327
    1UNL    C11   14  -0.066  -0.016   0.004
    1UNL    C12   15  -0.129   0.126   0.025
    1UNL    C13   16  -0.173   0.163  -0.114
    1UNL     O3   17  -0.132   0.303  -0.140
    1UNL    C14   18  -0.227   0.404  -0.172
    1UNL     O4   19  -0.121   0.078  -0.214
    1UNL    C15   20  -0.038  -0.027  -0.154
    1UNL     N2   21  -0.102  -0.148  -0.194
    1UNL    C16   22  -0.180  -0.204  -0.090
    1UNL    C17   23  -0.260  -0.313  -0.099
    1UNL    C18   24  -0.323  -0.350   0.012
    1UNL    C19   25  -0.318  -0.280   0.136
    1UNL    C20   26  -0.240  -0.165   0.141
    1UNL    C21   27  -0.165  -0.131   0.029
    1UNL     H1   28   0.291   0.389   0.097
    1UNL     H2   29   0.421   0.335   0.009
    1UNL     H3   30   0.441   0.318   0.177
    1UNL     H4   31   0.351   0.106   0.169
    1UNL     H5   32   0.251   0.281  -0.147
    1UNL     H6   33   0.101   0.276  -0.071
    1UNL     H7   34   0.051   0.176  -0.267
    1UNL     H8   35   0.103  -0.060  -0.317
    1UNL     H9   36   0.295  -0.073  -0.170
    1UNL    H10   37   0.171  -0.191  -0.129
    1UNL    H11   38   0.280  -0.068   0.062
    1UNL    H12   39   0.056   0.024   0.174
    1UNL    H13   40   0.185  -0.311   0.376
    1UNL    H14   41   0.023  -0.340   0.408
    1UNL    H15   42   0.103  -0.393   0.257
    1UNL    H16   43  -0.053   0.198   0.061
    1UNL    H17   44  -0.207   0.136   0.094
    1UNL    H18   45  -0.285   0.152  -0.133
    1UNL    H19   46  -0.191   0.508  -0.167
    1UNL    H20   47  -0.266   0.377  -0.272
    1UNL    H21   48  -0.301   0.402  -0.102
    1UNL    H22   49  -0.137  -0.136  -0.294
    1UNL    H23   50  -0.255  -0.368  -0.185
    1UNL    H24   51  -0.386  -0.437   0.017
    1UNL    H25   52  -0.384  -0.300   0.217
    1UNL    H26   53  -0.241  -0.088   0.212
   0.00000   0.00000   0.00000   0.00000   0.00000   0.00000   0.00000   0.00000   0.00000
Generated with MDTraj, t= 14.0
 53
    1UNL     C1    1   0.392   0.327   0.094
    1UNL     C2    2   0.357   0.183   0.074
    1UNL     C3    3   0.250   0.139   0.005
    1UNL     C4    4   0.160   0.229  -0.080
    1UNL     N1    5   0.116   0.165  -0.209
    1UNL     C5    6   0.101   0.016  -0.206
    1UNL     C6    7   0.209  -0.057  -0.125
    1UNL     C7    8   0.215  -0.007   0.019
    1UNL     C8    9   0.082  -0.045   0.091
    1UNL     C9   10   0.077  -0.189   0.144
    1UNL     O1   11   0.102  -0.278   0.067
    1UNL     O2   12   0.046  -0.195   0.280
    1UNL    C10   13   0.061  -0.331   0.311
    1UNL    C11   14  -0.055  -0.023   0.009
    1UNL    C12   15  -0.121   0.113   0.037
    1UNL    C13   16  -0.183   0.161  -0.096
    1UNL     O3   17  -0.138   0.283  -0.126
    1UNL    C14   18  -0.203   0.341  -0.234
    1UNL     O4   19  -0.148   0.070  -0.205
    1UNL    C15   20  -0.045  -0.024  -0.152
    1UNL     N2   21  -0.097  -0.151  -0.194
    1UNL    C16   22  -0.164  -0.208  -0.089
    1UNL    C17   23  -0.258  -0.315  -0.093
    1UNL    C18   24  -0.342  -0.342   0.016
    1UNL    C19   25  -0.327  -0.262   0.131
    1UNL    C20   26  -0.241  -0.158   0.142
    1UNL    C21   27  -0.158  -0.138   0.030
    1UNL     H1   28   0.306   0.392   0.105
    1UNL     H2   29   0.435   0.366  -0.001
    1UNL     H3   30   0.477   0.342   0.162
    1UNL     H4   31   0.443   0.122   0.101
    1UNL     H5   32   0.200   0.326  -0.104
    1UNL     H6   33   0.074   0.254  -0.023
    1UNL     H7   34   0.018   0.195  -0.213
    1UNL     H8   35   0.112  -0.019  -0.316
    1UNL     H9   36   0.299  -0.044  -0.178
    1UNL    H10   37   0.187  -0.164  -0.121
    1UNL    H11   38   0.298  -0.049   0.073
    1UNL    H12   39   0.071   0.020   0.174
    1UNL    H13   40   0.151  -0.368   0.264
    1UNL    H14   41   0.084  -0.349   0.414
    1UNL    H15   42  -0.014  -0.398   0.273
    1UNL    H16   43  -0.056   0.192   0.082
    1UNL    H17   44  -0.188   0.089   0.113
    1UNL    H18   45  -0.298   0.164  -0.093
    1UNL    H19   46  -0.158   0.434  -0.271
    1UNL    H20   47  -0.207   0.262  -0.310
    1UNL    H21   48  -0.296   0.372  -0.201
    1UNL    H22   49  -0.150  -0.119  -0.282
    1UNL    H23   50  -0.247  -0.389  -0.180
    1UNL    H24   51  -0.402  -0.431   0.003
    1UNL    H25   52  -0.401  -0.288   0.208
    1UNL    H26   53  -0.244  -0.091   0.231
   0.00000   0.00000   0.00000   0.00000   0.00000   0.00000   0.00000   0.00000   0.00000
Generated with MDTraj, t= 15.0
 53
    1UNL     C1    1   0.420   0.311   0.089
    1UNL     C2    2   0.356   0.174   0.092
    1UNL     C3    3   0.252   0.145   0.013
    1UNL     C4    4   0.186   0.240  -0.077
    1UNL     N1    5   0.098   0.179  -0.178
    1UNL     C5    6   0.080   0.031  -0.205
    1UNL     C6    7   0.198  -0.044  -0.140
    1UNL     C7    8   0.203  -0.004   0.010
    1UNL     C8    9   0.076  -0.043   0.090
    1UNL     C9   10   0.094  -0.188   0.144
    1UNL     O1   11   0.129  -0.271   0.067
    1UNL     O2   12   0.055  -0.209   0.276
    1UNL    C10   13   0.026  -0.340   0.287
    1UNL    C11   14  -0.060  -0.016   0.013
    1UNL    C12   15  -0.122   0.132   0.036
    1UNL    C13   16  -0.200   0.168  -0.096
    1UNL     O3   17  -0.161   0.290  -0.138
    1UNL    C14   18  -0.172   0.313  -0.276
    1UNL     O4   19  -0.165   0.067  -0.200
    1UNL    C15   20  -0.059  -0.018  -0.150
    1UNL     N2   21  -0.095  -0.155  -0.181
    1UNL    C16   22  -0.165  -0.210  -0.073
    1UNL    C17   23  -0.250  -0.313  -0.088
    1UNL    C18   24  -0.329  -0.350   0.016
    1UNL    C19   25  -0.328  -0.276   0.133
    1UNL    C20   26  -0.232  -0.170   0.151
    1UNL    C21   27  -0.155  -0.129   0.042
    1UNL     H1   28   0.349   0.397   0.095
    1UNL     H2   29   0.460   0.326  -0.012
    1UNL     H3   30   0.511   0.321   0.146
    1UNL     H4   31   0.414   0.090   0.124
    1UNL     H5   32   0.266   0.289  -0.131
    1UNL     H6   33   0.128   0.309  -0.022
    1UNL     H7   34   0.011   0.227  -0.172
    1UNL     H8   35   0.077   0.005  -0.319
    1UNL     H9   36   0.291  -0.026  -0.197
    1UNL    H10   37   0.188  -0.148  -0.150
    1UNL    H11   38   0.277  -0.061   0.064
    1UNL    H12   39   0.065   0.012   0.178
    1UNL    H13   40   0.094  -0.402   0.228
    1UNL    H14   41   0.059  -0.367   0.389
    1UNL    H15   42  -0.080  -0.365   0.274
    1UNL    H16   43  -0.040   0.205   0.045
    1UNL    H17   44  -0.179   0.129   0.125
    1UNL    H18   45  -0.313   0.173  -0.071
    1UNL    H19   46  -0.130   0.412  -0.300
    1UNL    H20   47  -0.117   0.232  -0.327
    1UNL    H21   48  -0.273   0.317  -0.304
    1UNL    H22   49  -0.152  -0.146  -0.270
    1UNL    H23   50  -0.240  -0.377  -0.171
    1UNL    H24   51  -0.393  -0.438   0.008
    1UNL    H25   52  -0.397  -0.298   0.210
    1UNL    H26   53  -0.233  -0.121   0.243
   0.00000   0.00000   0.00000   0.00000   0.00000   0.00000   0.00000   0.00000   0.00000
Generated with MDTraj, t= 16.0
 53
    1UNL     C1    1   0.416   0.287   0.117
    1UNL     C2    2   0.347   0.154   0.113
    1UNL     C3    3   0.251   0.121   0.022
    1UNL     C4    4   0.212   0.223  -0.089
    1UNL     N1    5   0.126   0.165  -0.192
    1UNL     C5    6   0.088   0.020  -0.207
    1UNL     C6    7   0.199  -0.064  -0.140
    1UNL     C7    8   0.202  -0.018   0.006
    1UNL     C8    9   0.069  -0.030   0.084
    1UNL     C9   10   0.069  -0.182   0.125
    1UNL     O1   11   0.139  -0.258   0.065
    1UNL     O2   12   0.005  -0.206   0.242
    1UNL    C10   13   0.052  -0.328   0.288
    1UNL    C11   14  -0.065  -0.002   0.006
    1UNL    C12   15  -0.127   0.137   0.027
    1UNL    C13   16  -0.196   0.160  -0.113
    1UNL     O3   17  -0.177   0.297  -0.138
    1UNL    C14   18  -0.248   0.348  -0.252
    1UNL     O4   19  -0.152   0.074  -0.218
    1UNL    C15   20  -0.048  -0.016  -0.155
    1UNL     N2   21  -0.087  -0.156  -0.180
    1UNL    C16   22  -0.158  -0.203  -0.069
    1UNL    C17   23  -0.221  -0.323  -0.067
    1UNL    C18   24  -0.304  -0.353   0.040
    1UNL    C19   25  -0.302  -0.277   0.152
    1UNL    C20   26  -0.232  -0.157   0.153
    1UNL    C21   27  -0.170  -0.108   0.040
    1UNL     H1   28   0.346   0.374   0.139
    1UNL     H2   29   0.447   0.307   0.015
    1UNL     H3   30   0.512   0.284   0.168
    1UNL     H4   31   0.401   0.072   0.159
    1UNL     H5   32   0.299   0.260  -0.142
    1UNL     H6   33   0.171   0.305  -0.039
    1UNL     H7   34   0.030   0.208  -0.180
    1UNL     H8   35   0.078   0.000  -0.321
    1UNL     H9   36   0.299  -0.045  -0.190
    1UNL    H10   37   0.190  -0.165  -0.158
    1UNL    H11   38   0.278  -0.076   0.060
    1UNL    H12   39   0.073   0.029   0.167
    1UNL    H13   40   0.151  -0.303   0.335
    1UNL    H14   41  -0.012  -0.374   0.369
    1UNL    H15   42   0.055  -0.405   0.207
    1UNL    H16   43  -0.040   0.202   0.031
    1UNL    H17   44  -0.193   0.163   0.108
    1UNL    H18   45  -0.307   0.146  -0.088
    1UNL    H19   46  -0.228   0.455  -0.265
    1UNL    H20   47  -0.212   0.293  -0.340
    1UNL    H21   48  -0.356   0.342  -0.247
    1UNL    H22   49  -0.132  -0.169  -0.271
    1UNL    H23   50  -0.209  -0.388  -0.149
    1UNL    H24   51  -0.363  -0.441   0.042
    1UNL    H25   52  -0.367  -0.301   0.238
    1UNL    H26   53  -0.224  -0.092   0.241
   0.00000   0.00000   0.00000   0.00000   0.00000   0.00000   0.00000   0.00000   0.00000
Generated with MDTraj, t= 17.0
 53
    1UNL     C1    1   0.369   0.305   0.131
    1UNL     C2    2   0.330   0.163   0.114
    1UNL     C3    3   0.256   0.119   0.009
    1UNL     C4    4   0.208   0.217  -0.097
    1UNL     N1    5   0.112   0.175  -0.211
    1UNL     C5    6   0.091   0.025  -0.225
    1UNL     C6    7   0.206  -0.058  -0.157
    1UNL     C7    8   0.207  -0.030  -0.001
    1UNL     C8    9   0.073  -0.047   0.077
    1UNL     C9   10   0.083  -0.185   0.138
    1UNL     O1   11   0.111  -0.285   0.078
    1UNL     O2   12   0.050  -0.196   0.272
    1UNL    C10   13   0.026  -0.331   0.310
    1UNL    C11   14  -0.050  -0.013  -0.003
    1UNL    C12   15  -0.090   0.131   0.026
    1UNL    C13   16  -0.183   0.162  -0.098
    1UNL     O3   17  -0.160   0.297  -0.134
    1UNL    C14   18  -0.253   0.334  -0.223
    1UNL     O4   19  -0.155   0.076  -0.210
    1UNL    C15   20  -0.046  -0.015  -0.165
    1UNL     N2   21  -0.094  -0.150  -0.200
    1UNL    C16   22  -0.163  -0.195  -0.083
    1UNL    C17   23  -0.225  -0.325  -0.071
    1UNL    C18   24  -0.299  -0.352   0.044
    1UNL    C19   25  -0.303  -0.259   0.147
    1UNL    C20   26  -0.231  -0.144   0.145
    1UNL    C21   27  -0.167  -0.111   0.026
    1UNL     H1   28   0.287   0.379   0.102
    1UNL     H2   29   0.448   0.318   0.058
    1UNL     H3   30   0.421   0.316   0.228
    1UNL     H4   31   0.379   0.088   0.173
    1UNL     H5   32   0.298   0.256  -0.144
    1UNL     H6   33   0.167   0.300  -0.052
    1UNL     H7   34   0.015   0.220  -0.203
    1UNL     H8   35   0.083   0.008  -0.339
    1UNL     H9   36   0.302  -0.050  -0.219
    1UNL    H10   37   0.190  -0.158  -0.166
    1UNL    H11   38   0.279  -0.099   0.047
    1UNL    H12   39   0.077   0.018   0.156
    1UNL    H13   40   0.044  -0.330   0.422
    1UNL    H14   41  -0.082  -0.357   0.294
    1UNL    H15   42   0.079  -0.402   0.244
    1UNL    H16   43  -0.008   0.199   0.021
    1UNL    H17   44  -0.155   0.154   0.111
    1UNL    H18   45  -0.290   0.149  -0.065
    1UNL    H19   46  -0.225   0.427  -0.278
    1UNL    H20   47  -0.263   0.252  -0.296
    1UNL    H21   48  -0.351   0.353  -0.178
    1UNL    H22   49  -0.150  -0.137  -0.285
    1UNL    H23   50  -0.221  -0.405  -0.155
    1UNL    H24   51  -0.352  -0.448   0.050
    1UNL    H25   52  -0.368  -0.279   0.226
    1UNL    H26   53  -0.237  -0.076   0.228
   0.00000   0.00000   0.00000   0.00000   0.00000   0.00000   0.00000   0.00000   0.00000
Generated with MDTraj, t= 18.0
 53
    1UNL     C1    1   0.323   0.325   0.136
    1UNL     C2    2   0.312   0.186   0.112
    1UNL     C3    3   0.253   0.137  -0.001
    1UNL     C4    4   0.230   0.219  -0.130
    1UNL     N1    5   0.118   0.164  -0.216
    1UNL     C5    6   0.092   0.014  -0.217
    1UNL     C6    7   0.199  -0.063  -0.155
    1UNL     C7    8   0.213  -0.011  -0.009
    1UNL     C8    9   0.088  -0.038   0.079
    1UNL     C9   10   0.097  -0.185   0.132
    1UNL     O1   11   0.106  -0.286   0.066
    1UNL     O2   12   0.073  -0.190   0.266
    1UNL    C10   13   0.047  -0.320   0.322
    1UNL    C11   14  -0.050  -0.028   0.009
    1UNL    C12   15  -0.108   0.112   0.037
    1UNL    C13   16  -0.187   0.161  -0.088
    1UNL     O3   17  -0.144   0.291  -0.114
    1UNL    C14   18  -0.192   0.333  -0.231
    1UNL     O4   19  -0.153   0.079  -0.200
    1UNL    C15   20  -0.051  -0.017  -0.157
    1UNL     N2   21  -0.106  -0.148  -0.186
    1UNL    C16   22  -0.181  -0.206  -0.080
    1UNL    C17   23  -0.276  -0.307  -0.094
    1UNL    C18   24  -0.339  -0.336   0.021
    1UNL    C19   25  -0.312  -0.272   0.143
    1UNL    C20   26  -0.215  -0.174   0.156
    1UNL    C21   27  -0.150  -0.139   0.037
    1UNL     H1   28   0.227   0.384   0.141
    1UNL     H2   29   0.377   0.363   0.048
    1UNL     H3   30   0.394   0.351   0.217
    1UNL     H4   31   0.353   0.118   0.186
    1UNL     H5   32   0.318   0.218  -0.193
    1UNL     H6   33   0.211   0.318  -0.115
    1UNL     H7   34   0.027   0.209  -0.185
    1UNL     H8   35   0.084  -0.015  -0.327
    1UNL     H9   36   0.294  -0.034  -0.210
    1UNL    H10   37   0.195  -0.164  -0.181
    1UNL    H11   38   0.302  -0.061   0.037
    1UNL    H12   39   0.092   0.028   0.159
    1UNL    H13   40  -0.039  -0.310   0.388
    1UNL    H14   41   0.030  -0.388   0.240
    1UNL    H15   42   0.136  -0.357   0.370
    1UNL    H16   43  -0.035   0.189   0.036
    1UNL    H17   44  -0.168   0.116   0.129
    1UNL    H18   45  -0.296   0.147  -0.077
    1UNL    H19   46  -0.176   0.442  -0.241
    1UNL    H20   47  -0.141   0.281  -0.312
    1UNL    H21   48  -0.301   0.313  -0.245
    1UNL    H22   49  -0.158  -0.146  -0.270
    1UNL    H23   50  -0.288  -0.362  -0.179
    1UNL    H24   51  -0.411  -0.413   0.028
    1UNL    H25   52  -0.364  -0.305   0.236
    1UNL    H26   53  -0.197  -0.124   0.248
   0.00000   0.00000   0.00000   0.00000   0.00000   0.00000   0.00000   0.00000   0.00000
Generated with MDTraj, t= 19.0
 53
    1UNL     C1    1   0.297   0.344   0.107
    1UNL     C2    2   0.261   0.203   0.107
    1UNL     C3    3   0.222   0.133  -0.001
    1UNL     C4    4   0.229   0.190  -0.135
    1UNL     N1    5   0.122   0.153  -0.233
    1UNL     C5    6   0.087   0.004  -0.216
    1UNL     C6    7   0.185  -0.079  -0.138
    1UNL     C7    8   0.197  -0.019   0.007
    1UNL     C8    9   0.073  -0.051   0.097
    1UNL     C9   10   0.102  -0.195   0.139
    1UNL     O1   11   0.167  -0.271   0.070
    1UNL     O2   12   0.056  -0.227   0.261
    1UNL    C10   13   0.124  -0.327   0.326
    1UNL    C11   14  -0.061  -0.026   0.014
    1UNL    C12   15  -0.113   0.118   0.045
    1UNL    C13   16  -0.176   0.179  -0.087
    1UNL     O3   17  -0.116   0.306  -0.111
    1UNL    C14   18  -0.147   0.359  -0.241
    1UNL     O4   19  -0.155   0.088  -0.196
    1UNL    C15   20  -0.057  -0.014  -0.147
    1UNL     N2   21  -0.113  -0.140  -0.191
    1UNL    C16   22  -0.180  -0.205  -0.088
    1UNL    C17   23  -0.277  -0.297  -0.092
    1UNL    C18   24  -0.354  -0.330   0.016
    1UNL    C19   25  -0.327  -0.279   0.140
    1UNL    C20   26  -0.232  -0.182   0.150
    1UNL    C21   27  -0.163  -0.136   0.039
    1UNL     H1   28   0.220   0.416   0.073
    1UNL     H2   29   0.384   0.357   0.038
    1UNL     H3   30   0.340   0.381   0.204
    1UNL     H4   31   0.277   0.143   0.195
    1UNL     H5   32   0.324   0.166  -0.180
    1UNL     H6   33   0.229   0.293  -0.127
    1UNL     H7   34   0.034   0.196  -0.210
    1UNL     H8   35   0.081  -0.035  -0.323
    1UNL     H9   36   0.283  -0.081  -0.191
    1UNL    H10   37   0.163  -0.187  -0.140
    1UNL    H11   38   0.279  -0.073   0.062
    1UNL    H12   39   0.072  -0.004   0.192
    1UNL    H13   40   0.064  -0.350   0.413
    1UNL    H14   41   0.134  -0.406   0.255
    1UNL    H15   42   0.218  -0.295   0.363
    1UNL    H16   43  -0.040   0.191   0.071
    1UNL    H17   44  -0.185   0.112   0.129
    1UNL    H18   45  -0.283   0.175  -0.080
    1UNL    H19   46  -0.089   0.452  -0.251
    1UNL    H20   47  -0.119   0.291  -0.319
    1UNL    H21   48  -0.257   0.384  -0.255
    1UNL    H22   49  -0.168  -0.111  -0.269
    1UNL    H23   50  -0.289  -0.336  -0.195
    1UNL    H24   51  -0.433  -0.406   0.003
    1UNL    H25   52  -0.387  -0.310   0.223
    1UNL    H26   53  -0.203  -0.143   0.250
   0.00000   0.00000   0.00000   0.00000   0.00000   0.00000   0.00000   0.00000   0.00000
Generated with MDTraj, t= 20.0
 53
    1UNL     C1    1   0.251   0.367   0.099
    1UNL     C2    2   0.241   0.214   0.109
    1UNL     C3    3   0.215   0.138  -0.001
    1UNL     C4    4   0.234   0.196  -0.142
    1UNL     N1    5   0.129   0.141  -0.230
    1UNL     C5    6   0.087  -0.004  -0.218
    1UNL     C6    7   0.194  -0.074  -0.137
    1UNL     C7    8   0.201  -0.008   0.006
    1UNL     C8    9   0.077  -0.049   0.086
    1UNL     C9   10   0.104  -0.193   0.130
    1UNL     O1   11   0.147  -0.281   0.057
    1UNL     O2   12   0.070  -0.211   0.260
    1UNL    C10   13   0.092  -0.343   0.309
    1UNL    C11   14  -0.060  -0.025   0.006
    1UNL    C12   15  -0.105   0.112   0.048
    1UNL    C13   16  -0.161   0.170  -0.087
    1UNL     O3   17  -0.085   0.295  -0.102
    1UNL    C14   18  -0.133   0.384  -0.207
    1UNL     O4   19  -0.144   0.081  -0.195
    1UNL    C15   20  -0.056  -0.034  -0.157
    1UNL     N2   21  -0.124  -0.158  -0.196
    1UNL    C16   22  -0.182  -0.212  -0.079
    1UNL    C17   23  -0.279  -0.312  -0.082
    1UNL    C18   24  -0.342  -0.345   0.033
    1UNL    C19   25  -0.323  -0.264   0.145
    1UNL    C20   26  -0.230  -0.157   0.150
    1UNL    C21   27  -0.162  -0.134   0.032
    1UNL     H1   28   0.219   0.396   0.001
    1UNL     H2   29   0.363   0.390   0.099
    1UNL     H3   30   0.198   0.426   0.179
    1UNL     H4   31   0.249   0.169   0.209
    1UNL     H5   32   0.326   0.160  -0.182
    1UNL     H6   33   0.232   0.301  -0.152
    1UNL     H7   34   0.041   0.201  -0.219
    1UNL     H8   35   0.086  -0.037  -0.326
    1UNL     H9   36   0.295  -0.081  -0.178
    1UNL    H10   37   0.162  -0.186  -0.136
    1UNL    H11   38   0.291  -0.045   0.065
    1UNL    H12   39   0.071   0.008   0.180
    1UNL    H13   40   0.064  -0.356   0.414
    1UNL    H14   41   0.035  -0.402   0.238
    1UNL    H15   42   0.196  -0.368   0.302
    1UNL    H16   43  -0.029   0.182   0.084
    1UNL    H17   44  -0.180   0.111   0.127
    1UNL    H18   45  -0.265   0.185  -0.082
    1UNL    H19   46  -0.051   0.451  -0.224
    1UNL    H20   47  -0.162   0.338  -0.298
    1UNL    H21   48  -0.221   0.445  -0.166
    1UNL    H22   49  -0.175  -0.142  -0.279
    1UNL    H23   50  -0.317  -0.365  -0.174
    1UNL    H24   51  -0.420  -0.418   0.024
    1UNL    H25   52  -0.394  -0.282   0.226
    1UNL    H26   53  -0.219  -0.105   0.238
   0.00000   0.00000   0.00000   0.00000   0.00000   0.00000   0.00000   0.00000   0.00000
Generated with MDTraj, t= 21.0
 53
    1UNL     C1    1   0.194   0.365   0.091
    1UNL     C2    2   0.226   0.219   0.096
    1UNL     C3    3   0.228   0.137  -0.010
    1UNL     C4    4   0.232   0.192  -0.147
    1UNL     N1    5   0.140   0.139  -0.245
    1UNL     C5    6   0.099  -0.003  -0.215
    1UNL     C6    7   0.207  -0.082  -0.142
    1UNL     C7    8   0.215  -0.019   0.000
    1UNL     C8    9   0.094  -0.057   0.082
    1UNL     C9   10   0.084  -0.197   0.123
    1UNL     O1   11   0.078  -0.283   0.036
    1UNL     O2   12   0.072  -0.215   0.257
    1UNL    C10   13   0.044  -0.347   0.297
    1UNL    C11   14  -0.041  -0.019   0.016
    1UNL    C12   15  -0.094   0.115   0.058
    1UNL    C13   16  -0.152   0.177  -0.080
    1UNL     O3   17  -0.092   0.306  -0.097
    1UNL    C14   18  -0.140   0.361  -0.216
    1UNL     O4   19  -0.131   0.090  -0.190
    1UNL    C15   20  -0.044  -0.012  -0.142
    1UNL     N2   21  -0.098  -0.146  -0.185
    1UNL    C16   22  -0.174  -0.198  -0.077
    1UNL    C17   23  -0.272  -0.300  -0.076
    1UNL    C18   24  -0.326  -0.342   0.044
    1UNL    C19   25  -0.301  -0.281   0.163
    1UNL    C20   26  -0.213  -0.172   0.162
    1UNL    C21   27  -0.152  -0.127   0.042
    1UNL     H1   28   0.087   0.386   0.086
    1UNL     H2   29   0.235   0.412  -0.004
    1UNL     H3   30   0.236   0.428   0.176
    1UNL     H4   31   0.221   0.168   0.189
    1UNL     H5   32   0.325   0.159  -0.185
    1UNL     H6   33   0.222   0.299  -0.140
    1UNL     H7   34   0.056   0.191  -0.228
    1UNL     H8   35   0.093  -0.049  -0.317
    1UNL     H9   36   0.297  -0.084  -0.200
    1UNL    H10   37   0.179  -0.197  -0.128
    1UNL    H11   38   0.306  -0.056   0.056
    1UNL    H12   39   0.097   0.007   0.178
    1UNL    H13   40   0.051  -0.354   0.409
    1UNL    H14   41  -0.058  -0.361   0.252
    1UNL    H15   42   0.123  -0.415   0.260
    1UNL    H16   43  -0.011   0.181   0.097
    1UNL    H17   44  -0.167   0.125   0.137
    1UNL    H18   45  -0.256   0.193  -0.073
    1UNL    H19   46  -0.092   0.456  -0.216
    1UNL    H20   47  -0.121   0.308  -0.304
    1UNL    H21   48  -0.252   0.376  -0.200
    1UNL    H22   49  -0.140  -0.142  -0.276
    1UNL    H23   50  -0.293  -0.344  -0.165
    1UNL    H24   51  -0.389  -0.431   0.050
    1UNL    H25   52  -0.347  -0.307   0.257
    1UNL    H26   53  -0.190  -0.117   0.257
   0.00000   0.00000   0.00000   0.00000   0.00000   0.00000   0.00000   0.00000   0.00000
Generated with MDTraj, t= 22.0
 53
    1UNL     C1    1   0.232   0.356   0.094
    1UNL     C2    2   0.226   0.210   0.111
    1UNL     C3    3   0.226   0.134   0.002
    1UNL     C4    4   0.246   0.192  -0.133
    1UNL     N1    5   0.139   0.148  -0.226
    1UNL     C5    6   0.091   0.004  -0.219
    1UNL     C6    7   0.184  -0.089  -0.141
    1UNL     C7    8   0.202  -0.021   0.008
    1UNL     C8    9   0.079  -0.058   0.093
    1UNL     C9   10   0.095  -0.205   0.136
    1UNL     O1   11   0.137  -0.280   0.049
    1UNL     O2   12   0.059  -0.251   0.263
    1UNL    C10   13   0.069  -0.388   0.280
    1UNL    C11   14  -0.052  -0.011   0.011
    1UNL    C12   15  -0.111   0.132   0.041
    1UNL    C13   16  -0.158   0.195  -0.096
    1UNL     O3   17  -0.105   0.318  -0.124
    1UNL    C14   18  -0.152   0.367  -0.248
    1UNL     O4   19  -0.138   0.096  -0.199
    1UNL    C15   20  -0.047  -0.009  -0.154
    1UNL     N2   21  -0.116  -0.138  -0.178
    1UNL    C16   22  -0.184  -0.196  -0.072
    1UNL    C17   23  -0.268  -0.308  -0.072
    1UNL    C18   24  -0.324  -0.338   0.051
    1UNL    C19   25  -0.288  -0.269   0.168
    1UNL    C20   26  -0.208  -0.161   0.162
    1UNL    C21   27  -0.155  -0.118   0.047
    1UNL     H1   28   0.179   0.386  -0.001
    1UNL     H2   29   0.335   0.398   0.081
    1UNL     H3   30   0.173   0.420   0.166
    1UNL     H4   31   0.186   0.163   0.201
    1UNL     H5   32   0.337   0.154  -0.168
    1UNL     H6   33   0.242   0.301  -0.137
    1UNL     H7   34   0.054   0.201  -0.196
    1UNL     H8   35   0.070  -0.038  -0.318
    1UNL     H9   36   0.279  -0.108  -0.190
    1UNL    H10   37   0.125  -0.190  -0.132
    1UNL    H11   38   0.296  -0.055   0.060
    1UNL    H12   39   0.077   0.011   0.188
    1UNL    H13   40   0.104  -0.402   0.388
    1UNL    H14   41  -0.035  -0.430   0.262
    1UNL    H15   42   0.155  -0.428   0.221
    1UNL    H16   43  -0.042   0.211   0.083
    1UNL    H17   44  -0.186   0.128   0.119
    1UNL    H18   45  -0.263   0.210  -0.090
    1UNL    H19   46  -0.093   0.452  -0.272
    1UNL    H20   47  -0.151   0.296  -0.326
    1UNL    H21   48  -0.261   0.394  -0.223
    1UNL    H22   49  -0.160  -0.154  -0.268
    1UNL    H23   50  -0.273  -0.379  -0.162
    1UNL    H24   51  -0.380  -0.428   0.066
    1UNL    H25   52  -0.322  -0.302   0.264
    1UNL    H26   53  -0.182  -0.102   0.245
   0.00000   0.00000   0.00000   0.00000   0.00000   0.00000   0.00000   0.00000   0.00000
Generated with MDTraj, t= 23.0
 53
    1UNL     C1    1   0.289   0.357   0.129
    1UNL     C2    2   0.268   0.205   0.117
    1UNL     C3    3   0.229   0.143   0.002
    1UNL     C4    4   0.214   0.223  -0.122
    1UNL     N1    5   0.129   0.142  -0.224
    1UNL     C5    6   0.094  -0.001  -0.216
    1UNL     C6    7   0.204  -0.071  -0.142
    1UNL     C7    8   0.208  -0.008  -0.003
    1UNL     C8    9   0.082  -0.051   0.078
    1UNL     C9   10   0.093  -0.197   0.113
    1UNL     O1   11   0.151  -0.268   0.031
    1UNL     O2   12   0.040  -0.223   0.236
    1UNL    C10   13   0.070  -0.356   0.275
    1UNL    C11   14  -0.057  -0.023   0.013
    1UNL    C12   15  -0.105   0.120   0.039
    1UNL    C13   16  -0.158   0.179  -0.089
    1UNL     O3   17  -0.105   0.302  -0.116
    1UNL    C14   18  -0.154   0.341  -0.240
    1UNL     O4   19  -0.138   0.079  -0.200
    1UNL    C15   20  -0.046  -0.029  -0.149
    1UNL     N2   21  -0.109  -0.163  -0.180
    1UNL    C16   22  -0.189  -0.206  -0.070
    1UNL    C17   23  -0.271  -0.316  -0.062
    1UNL    C18   24  -0.339  -0.342   0.059
    1UNL    C19   25  -0.327  -0.251   0.167
    1UNL    C20   26  -0.235  -0.151   0.164
    1UNL    C21   27  -0.166  -0.131   0.043
    1UNL     H1   28   0.190   0.404   0.093
    1UNL     H2   29   0.363   0.389   0.054
    1UNL     H3   30   0.298   0.397   0.234
    1UNL     H4   31   0.249   0.159   0.211
    1UNL     H5   32   0.304   0.242  -0.170
    1UNL     H6   33   0.167   0.322  -0.103
    1UNL     H7   34   0.038   0.188  -0.241
    1UNL     H8   35   0.092  -0.035  -0.318
    1UNL     H9   36   0.299  -0.053  -0.200
    1UNL    H10   37   0.186  -0.180  -0.123
    1UNL    H11   38   0.290  -0.060   0.055
    1UNL    H12   39   0.081   0.012   0.179
    1UNL    H13   40  -0.007  -0.405   0.340
    1UNL    H14   41   0.086  -0.417   0.185
    1UNL    H15   42   0.158  -0.338   0.336
    1UNL    H16   43  -0.023   0.184   0.075
    1UNL    H17   44  -0.181   0.141   0.117
    1UNL    H18   45  -0.266   0.191  -0.076
    1UNL    H19   46  -0.114   0.435  -0.276
    1UNL    H20   47  -0.147   0.264  -0.314
    1UNL    H21   48  -0.265   0.350  -0.213
    1UNL    H22   49  -0.141  -0.166  -0.281
    1UNL    H23   50  -0.270  -0.389  -0.138
    1UNL    H24   51  -0.405  -0.427   0.070
    1UNL    H25   52  -0.391  -0.265   0.254
    1UNL    H26   53  -0.241  -0.089   0.254
   0.00000   0.00000   0.00000   0.00000   0.00000   0.00000   0.00000   0.00000   0.00000
Generated with MDTraj, t= 24.0
 53
    1UNL     C1    1   0.342   0.341   0.111
    1UNL     C2    2   0.323   0.198   0.081
    1UNL     C3    3   0.235   0.141   0.002
    1UNL     C4    4   0.146   0.224  -0.087
    1UNL     N1    5   0.109   0.167  -0.216
    1UNL     C5    6   0.091   0.020  -0.216
    1UNL     C6    7   0.200  -0.065  -0.142
    1UNL     C7    8   0.221  -0.009   0.008
    1UNL     C8    9   0.092  -0.054   0.088
    1UNL     C9   10   0.099  -0.200   0.138
    1UNL     O1   11   0.139  -0.277   0.054
    1UNL     O2   12   0.060  -0.229   0.270
    1UNL    C10   13   0.034  -0.367   0.281
    1UNL    C11   14  -0.050  -0.018   0.011
    1UNL    C12   15  -0.109   0.120   0.051
    1UNL    C13   16  -0.172   0.165  -0.085
    1UNL     O3   17  -0.131   0.293  -0.133
    1UNL    C14   18  -0.193   0.328  -0.254
    1UNL     O4   19  -0.144   0.069  -0.197
    1UNL    C15   20  -0.037  -0.024  -0.150
    1UNL     N2   21  -0.075  -0.167  -0.180
    1UNL    C16   22  -0.162  -0.207  -0.077
    1UNL    C17   23  -0.265  -0.303  -0.075
    1UNL    C18   24  -0.351  -0.312   0.030
    1UNL    C19   25  -0.328  -0.247   0.146
    1UNL    C20   26  -0.226  -0.147   0.151
    1UNL    C21   27  -0.147  -0.123   0.035
    1UNL     H1   28   0.260   0.373   0.188
    1UNL     H2   29   0.319   0.406   0.026
    1UNL     H3   30   0.434   0.374   0.166
    1UNL     H4   31   0.369   0.131   0.155
    1UNL     H5   32   0.202   0.306  -0.112
    1UNL     H6   33   0.056   0.262  -0.035
    1UNL     H7   34   0.021   0.203  -0.258
    1UNL     H8   35   0.087  -0.006  -0.318
    1UNL     H9   36   0.308  -0.064  -0.185
    1UNL    H10   37   0.158  -0.165  -0.142
    1UNL    H11   38   0.307  -0.064   0.054
    1UNL    H12   39   0.083   0.005   0.188
    1UNL    H13   40  -0.050  -0.406   0.220
    1UNL    H14   41   0.120  -0.420   0.249
    1UNL    H15   42   0.018  -0.373   0.385
    1UNL    H16   43  -0.043   0.190   0.097
    1UNL    H17   44  -0.193   0.112   0.124
    1UNL    H18   45  -0.282   0.173  -0.065
    1UNL    H19   46  -0.135   0.391  -0.322
    1UNL    H20   47  -0.230   0.241  -0.307
    1UNL    H21   48  -0.287   0.383  -0.217
    1UNL    H22   49  -0.105  -0.173  -0.281
    1UNL    H23   50  -0.280  -0.365  -0.161
    1UNL    H24   51  -0.435  -0.376   0.008
    1UNL    H25   52  -0.403  -0.254   0.221
    1UNL    H26   53  -0.200  -0.085   0.235
   0.00000   0.00000   0.00000   0.00000   0.00000   0.00000   0.00000   0.00000   0.00000
Generated with MDTraj, t= 25.0
 53
    1UNL     C1    1   0.420   0.319   0.093
    1UNL     C2    2   0.346   0.190   0.092
    1UNL     C3    3   0.256   0.149   0.006
    1UNL     C4    4   0.212   0.231  -0.109
    1UNL     N1    5   0.104   0.164  -0.184
    1UNL     C5    6   0.092   0.012  -0.202
    1UNL     C6    7   0.203  -0.059  -0.124
    1UNL     C7    8   0.209   0.003   0.018
    1UNL     C8    9   0.077  -0.040   0.085
    1UNL     C9   10   0.086  -0.183   0.131
    1UNL     O1   11   0.143  -0.261   0.059
    1UNL     O2   12   0.029  -0.207   0.254
    1UNL    C10   13   0.058  -0.342   0.298
    1UNL    C11   14  -0.063  -0.013   0.011
    1UNL    C12   15  -0.118   0.122   0.036
    1UNL    C13   16  -0.186   0.159  -0.096
    1UNL     O3   17  -0.180   0.297  -0.115
    1UNL    C14   18  -0.220   0.337  -0.240
    1UNL     O4   19  -0.139   0.073  -0.204
    1UNL    C15   20  -0.048  -0.027  -0.147
    1UNL     N2   21  -0.085  -0.173  -0.178
    1UNL    C16   22  -0.178  -0.215  -0.084
    1UNL    C17   23  -0.273  -0.310  -0.091
    1UNL    C18   24  -0.345  -0.350   0.020
    1UNL    C19   25  -0.327  -0.271   0.135
    1UNL    C20   26  -0.234  -0.169   0.147
    1UNL    C21   27  -0.161  -0.133   0.034
    1UNL     H1   28   0.344   0.399   0.124
    1UNL     H2   29   0.455   0.358  -0.006
    1UNL     H3   30   0.493   0.331   0.177
    1UNL     H4   31   0.359   0.128   0.177
    1UNL     H5   32   0.295   0.242  -0.170
    1UNL     H6   33   0.186   0.332  -0.071
    1UNL     H7   34   0.014   0.211  -0.199
    1UNL     H8   35   0.116   0.003  -0.304
    1UNL     H9   36   0.309  -0.043  -0.176
    1UNL    H10   37   0.179  -0.163  -0.116
    1UNL    H11   38   0.289  -0.055   0.068
    1UNL    H12   39   0.070   0.037   0.167
    1UNL    H13   40   0.046  -0.414   0.217
    1UNL    H14   41   0.157  -0.354   0.334
    1UNL    H15   42  -0.009  -0.360   0.376
    1UNL    H16   43  -0.041   0.194   0.044
    1UNL    H17   44  -0.185   0.132   0.127
    1UNL    H18   45  -0.297   0.140  -0.074
    1UNL    H19   46  -0.221   0.447  -0.247
    1UNL    H20   47  -0.154   0.302  -0.318
    1UNL    H21   48  -0.322   0.291  -0.260
    1UNL    H22   49  -0.118  -0.185  -0.277
    1UNL    H23   50  -0.284  -0.365  -0.190
    1UNL    H24   51  -0.421  -0.428   0.015
    1UNL    H25   52  -0.393  -0.292   0.218
    1UNL    H26   53  -0.222  -0.111   0.235
   0.00000   0.00000   0.00000   0.00000   0.00000   0.00000   0.00000   0.00000   0.00000
Generated with MDTraj, t= 26.0
 53
    1UNL     C1    1   0.429   0.277   0.105
    1UNL     C2    2   0.346   0.152   0.095
    1UNL     C3    3   0.253   0.123   0.005
    1UNL     C4    4   0.210   0.222  -0.101
    1UNL     N1    5   0.108   0.167  -0.196
    1UNL     C5    6   0.081   0.026  -0.215
    1UNL     C6    7   0.177  -0.068  -0.145
    1UNL     C7    8   0.199  -0.014   0.002
    1UNL     C8    9   0.075  -0.038   0.087
    1UNL     C9   10   0.094  -0.174   0.150
    1UNL     O1   11   0.155  -0.261   0.091
    1UNL     O2   12   0.025  -0.193   0.272
    1UNL    C10   13   0.048  -0.322   0.322
    1UNL    C11   14  -0.063  -0.008   0.004
    1UNL    C12   15  -0.121   0.121   0.044
    1UNL    C13   16  -0.198   0.173  -0.086
    1UNL     O3   17  -0.192   0.311  -0.119
    1UNL    C14   18  -0.232   0.329  -0.252
    1UNL     O4   19  -0.160   0.094  -0.196
    1UNL    C15   20  -0.058  -0.002  -0.155
    1UNL     N2   21  -0.097  -0.133  -0.200
    1UNL    C16   22  -0.164  -0.205  -0.092
    1UNL    C17   23  -0.229  -0.325  -0.104
    1UNL    C18   24  -0.300  -0.364   0.014
    1UNL    C19   25  -0.300  -0.286   0.136
    1UNL    C20   26  -0.234  -0.168   0.136
    1UNL    C21   27  -0.159  -0.131   0.027
    1UNL     H1   28   0.357   0.358   0.083
    1UNL     H2   29   0.515   0.283   0.030
    1UNL     H3   30   0.453   0.295   0.214
    1UNL     H4   31   0.368   0.080   0.175
    1UNL     H5   32   0.295   0.249  -0.155
    1UNL     H6   33   0.175   0.315  -0.056
    1UNL     H7   34   0.018   0.214  -0.199
    1UNL     H8   35   0.075   0.002  -0.316
    1UNL     H9   36   0.276  -0.082  -0.209
    1UNL    H10   37   0.130  -0.163  -0.134
    1UNL    H11   38   0.280  -0.076   0.046
    1UNL    H12   39   0.077   0.042   0.160
    1UNL    H13   40  -0.008  -0.399   0.262
    1UNL    H14   41   0.153  -0.352   0.333
    1UNL    H15   42   0.009  -0.314   0.422
    1UNL    H16   43  -0.053   0.200   0.065
    1UNL    H17   44  -0.186   0.097   0.132
    1UNL    H18   45  -0.311   0.155  -0.064
    1UNL    H19   46  -0.215   0.432  -0.285
    1UNL    H20   47  -0.165   0.275  -0.317
    1UNL    H21   48  -0.335   0.293  -0.273
    1UNL    H22   49  -0.137  -0.130  -0.296
    1UNL    H23   50  -0.227  -0.389  -0.183
    1UNL    H24   51  -0.346  -0.460   0.020
    1UNL    H25   52  -0.349  -0.324   0.224
    1UNL    H26   53  -0.236  -0.103   0.226
   0.00000   0.00000   0.00000   0.00000   0.00000   0.00000   0.00000   0.00000   0.00000
Generated with MDTraj, t= 27.0
 53
    1UNL     C1    1   0.400   0.274   0.127
    1UNL     C2    2   0.361   0.135   0.085
    1UNL     C3    3   0.269   0.110  -0.006
    1UNL     C4    4   0.195   0.217  -0.069
    1UNL     N1    5   0.104   0.184  -0.181
    1UNL     C5    6   0.080   0.047  -0.224
    1UNL     C6    7   0.183  -0.056  -0.175
    1UNL     C7    8   0.213  -0.034  -0.026
    1UNL     C8    9   0.080  -0.040   0.067
    1UNL     C9   10   0.082  -0.168   0.145
    1UNL     O1   11   0.111  -0.276   0.100
    1UNL     O2   12   0.036  -0.146   0.270
    1UNL    C10   13   0.016  -0.264   0.343
    1UNL    C11   14  -0.060  -0.019  -0.003
    1UNL    C12   15  -0.145   0.105   0.036
    1UNL    C13   16  -0.198   0.166  -0.098
    1UNL     O3   17  -0.147   0.301  -0.117
    1UNL    C14   18  -0.233   0.359  -0.212
    1UNL     O4   19  -0.167   0.077  -0.202
    1UNL    C15   20  -0.059  -0.009  -0.163
    1UNL     N2   21  -0.100  -0.146  -0.207
    1UNL    C16   22  -0.159  -0.216  -0.105
    1UNL    C17   23  -0.241  -0.337  -0.100
    1UNL    C18   24  -0.289  -0.370   0.029
    1UNL    C19   25  -0.270  -0.295   0.140
    1UNL    C20   26  -0.201  -0.177   0.137
    1UNL    C21   27  -0.140  -0.143   0.016
    1UNL     H1   28   0.308   0.329   0.145
    1UNL     H2   29   0.463   0.331   0.048
    1UNL     H3   30   0.445   0.276   0.231
    1UNL     H4   31   0.391   0.051   0.142
    1UNL     H5   32   0.265   0.287  -0.109
    1UNL     H6   33   0.136   0.266   0.009
    1UNL     H7   34   0.009   0.223  -0.155
    1UNL     H8   35   0.065   0.032  -0.327
    1UNL     H9   36   0.280  -0.043  -0.231
    1UNL    H10   37   0.148  -0.158  -0.196
    1UNL    H11   38   0.268  -0.112   0.025
    1UNL    H12   39   0.082   0.040   0.135
    1UNL    H13   40  -0.046  -0.338   0.282
    1UNL    H14   41   0.103  -0.320   0.387
    1UNL    H15   42  -0.038  -0.231   0.433
    1UNL    H16   43  -0.084   0.178   0.090
    1UNL    H17   44  -0.239   0.084   0.089
    1UNL    H18   45  -0.314   0.163  -0.097
    1UNL    H19   46  -0.184   0.451  -0.243
    1UNL    H20   47  -0.228   0.302  -0.304
    1UNL    H21   48  -0.336   0.375  -0.180
    1UNL    H22   49  -0.154  -0.139  -0.292
    1UNL    H23   50  -0.256  -0.391  -0.197
    1UNL    H24   51  -0.343  -0.463   0.037
    1UNL    H25   52  -0.312  -0.323   0.235
    1UNL    H26   53  -0.184  -0.110   0.216
   0.00000   0.00000   0.00000   0.00000   0.00000   0.00000   0.00000   0.00000   0.00000
Generated with MDTraj, t= 28.0
 53
    1UNL     C1    1   0.411   0.270   0.105
    1UNL     C2    2   0.357   0.141   0.073
    1UNL     C3    3   0.255   0.118  -0.009
    1UNL     C4    4   0.179   0.228  -0.088
    1UNL     N1    5   0.108   0.171  -0.205
    1UNL     C5    6   0.078   0.026  -0.222
    1UNL     C6    7   0.187  -0.062  -0.161
    1UNL     C7    8   0.208  -0.021  -0.019
    1UNL     C8    9   0.074  -0.038   0.072
    1UNL     C9   10   0.077  -0.158   0.161
    1UNL     O1   11   0.097  -0.272   0.120
    1UNL     O2   12   0.053  -0.133   0.295
    1UNL    C10   13   0.078  -0.249   0.376
    1UNL    C11   14  -0.075  -0.026   0.005
    1UNL    C12   15  -0.145   0.106   0.051
    1UNL    C13   16  -0.190   0.175  -0.083
    1UNL     O3   17  -0.146   0.315  -0.099
    1UNL    C14   18  -0.206   0.368  -0.217
    1UNL     O4   19  -0.147   0.098  -0.195
    1UNL    C15   20  -0.060  -0.010  -0.159
    1UNL     N2   21  -0.105  -0.145  -0.209
    1UNL    C16   22  -0.169  -0.217  -0.106
    1UNL    C17   23  -0.237  -0.340  -0.121
    1UNL    C18   24  -0.294  -0.398  -0.013
    1UNL    C19   25  -0.301  -0.331   0.111
    1UNL    C20   26  -0.237  -0.206   0.120
    1UNL    C21   27  -0.166  -0.147   0.018
    1UNL     H1   28   0.355   0.305   0.192
    1UNL     H2   29   0.403   0.345   0.020
    1UNL     H3   30   0.517   0.274   0.147
    1UNL     H4   31   0.404   0.063   0.134
    1UNL     H5   32   0.250   0.299  -0.127
    1UNL     H6   33   0.116   0.287  -0.023
    1UNL     H7   34   0.054   0.246  -0.255
    1UNL     H8   35   0.072   0.006  -0.326
    1UNL     H9   36   0.275  -0.045  -0.218
    1UNL    H10   37   0.169  -0.172  -0.169
    1UNL    H11   38   0.280  -0.077   0.040
    1UNL    H12   39   0.070   0.047   0.131
    1UNL    H13   40   0.032  -0.337   0.321
    1UNL    H14   41   0.182  -0.279   0.401
    1UNL    H15   42   0.031  -0.237   0.475
    1UNL    H16   43  -0.074   0.177   0.104
    1UNL    H17   44  -0.228   0.090   0.118
    1UNL    H18   45  -0.304   0.159  -0.088
    1UNL    H19   46  -0.149   0.456  -0.242
    1UNL    H20   47  -0.182   0.302  -0.301
    1UNL    H21   48  -0.311   0.390  -0.211
    1UNL    H22   49  -0.135  -0.146  -0.303
    1UNL    H23   50  -0.242  -0.385  -0.218
    1UNL    H24   51  -0.350  -0.489  -0.024
    1UNL    H25   52  -0.353  -0.370   0.198
    1UNL    H26   53  -0.240  -0.159   0.218
   0.00000   0.00000   0.00000   0.00000   0.00000   0.00000   0.00000   0.00000   0.00000
Generated with MDTraj, t= 29.0
 53
    1UNL     C1    1   0.430   0.292   0.063
    1UNL     C2    2   0.346   0.165   0.078
    1UNL     C3    3   0.240   0.127   0.008
    1UNL     C4    4   0.178   0.221  -0.087
    1UNL     N1    5   0.121   0.153  -0.208
    1UNL     C5    6   0.083   0.014  -0.213
    1UNL     C6    7   0.177  -0.073  -0.132
    1UNL     C7    8   0.187  -0.020   0.012
    1UNL     C8    9   0.050  -0.026   0.094
    1UNL     C9   10   0.076  -0.146   0.184
    1UNL     O1   11   0.095  -0.252   0.123
    1UNL     O2   12   0.071  -0.138   0.323
    1UNL    C10   13   0.124  -0.252   0.372
    1UNL    C11   14  -0.081  -0.026  -0.005
    1UNL    C12   15  -0.176   0.084   0.037
    1UNL    C13   16  -0.202   0.172  -0.089
    1UNL     O3   17  -0.145   0.304  -0.079
    1UNL    C14   18  -0.152   0.367  -0.203
    1UNL     O4   19  -0.162   0.094  -0.204
    1UNL    C15   20  -0.066  -0.010  -0.168
    1UNL     N2   21  -0.116  -0.137  -0.222
    1UNL    C16   22  -0.177  -0.214  -0.126
    1UNL    C17   23  -0.263  -0.322  -0.141
    1UNL    C18   24  -0.319  -0.386  -0.032
    1UNL    C19   25  -0.293  -0.332   0.097
    1UNL    C20   26  -0.211  -0.221   0.112
    1UNL    C21   27  -0.156  -0.167   0.005
    1UNL     H1   28   0.371   0.377   0.103
    1UNL     H2   29   0.462   0.310  -0.042
    1UNL     H3   30   0.521   0.290   0.131
    1UNL     H4   31   0.382   0.090   0.144
    1UNL     H5   32   0.258   0.292  -0.111
    1UNL     H6   33   0.101   0.279  -0.043
    1UNL     H7   34   0.092   0.220  -0.278
    1UNL     H8   35   0.097  -0.006  -0.318
    1UNL     H9   36   0.266  -0.086  -0.181
    1UNL    H10   37   0.136  -0.179  -0.132
    1UNL    H11   38   0.256  -0.088   0.062
    1UNL    H12   39   0.030   0.058   0.147
    1UNL    H13   40   0.050  -0.333   0.372
    1UNL    H14   41   0.215  -0.285   0.324
    1UNL    H15   42   0.154  -0.229   0.473
    1UNL    H16   43  -0.137   0.155   0.118
    1UNL    H17   44  -0.258   0.030   0.081
    1UNL    H18   45  -0.313   0.181  -0.098
    1UNL    H19   46  -0.088   0.455  -0.200
    1UNL    H20   47  -0.103   0.300  -0.277
    1UNL    H21   48  -0.250   0.393  -0.229
    1UNL    H22   49  -0.167  -0.125  -0.305
    1UNL    H23   50  -0.284  -0.352  -0.240
    1UNL    H24   51  -0.381  -0.475  -0.037
    1UNL    H25   52  -0.345  -0.375   0.182
    1UNL    H26   53  -0.186  -0.196   0.213
   0.00000   0.00000   0.00000   0.00000   0.00000   0.00000   0.00000   0.00000   0.00000
Generated with MDTraj, t= 30.0
 53
    1UNL     C1    1   0.397   0.325   0.046
    1UNL     C2    2   0.354   0.180   0.063
    1UNL     C3    3   0.253   0.124  -0.001
    1UNL     C4    4   0.153   0.203  -0.078
    1UNL     N1    5   0.112   0.141  -0.207
    1UNL     C5    6   0.085  -0.005  -0.214
    1UNL     C6    7   0.182  -0.084  -0.125
    1UNL     C7    8   0.199  -0.014   0.011
    1UNL     C8    9   0.059  -0.029   0.086
    1UNL     C9   10   0.071  -0.154   0.173
    1UNL     O1   11   0.071  -0.268   0.126
    1UNL     O2   12   0.088  -0.119   0.302
    1UNL    C10   13   0.092  -0.233   0.385
    1UNL    C11   14  -0.077  -0.035  -0.006
    1UNL    C12   15  -0.171   0.079   0.035
    1UNL    C13   16  -0.186   0.170  -0.088
    1UNL     O3   17  -0.122   0.295  -0.062
    1UNL    C14   18  -0.134   0.392  -0.163
    1UNL     O4   19  -0.142   0.098  -0.205
    1UNL    C15   20  -0.065  -0.017  -0.164
    1UNL     N2   21  -0.121  -0.138  -0.226
    1UNL    C16   22  -0.182  -0.217  -0.129
    1UNL    C17   23  -0.273  -0.327  -0.145
    1UNL    C18   24  -0.321  -0.381  -0.031
    1UNL    C19   25  -0.287  -0.337   0.094
    1UNL    C20   26  -0.204  -0.225   0.114
    1UNL    C21   27  -0.155  -0.167   0.000
    1UNL     H1   28   0.330   0.369  -0.037
    1UNL     H2   29   0.503   0.334   0.021
    1UNL     H3   30   0.370   0.392   0.134
    1UNL     H4   31   0.411   0.113   0.129
    1UNL     H5   32   0.184   0.304  -0.110
    1UNL     H6   33   0.069   0.218  -0.018
    1UNL     H7   34   0.042   0.193  -0.258
    1UNL     H8   35   0.090  -0.034  -0.320
    1UNL     H9   36   0.275  -0.093  -0.168
    1UNL    H10   37   0.150  -0.192  -0.118
    1UNL    H11   38   0.279  -0.068   0.063
    1UNL    H12   39   0.034   0.052   0.143
    1UNL    H13   40   0.006  -0.297   0.368
    1UNL    H14   41   0.181  -0.286   0.366
    1UNL    H15   42   0.096  -0.201   0.486
    1UNL    H16   43  -0.140   0.144   0.125
    1UNL    H17   44  -0.265   0.037   0.062
    1UNL    H18   45  -0.291   0.194  -0.108
    1UNL    H19   46  -0.048   0.460  -0.156
    1UNL    H20   47  -0.128   0.343  -0.264
    1UNL    H21   48  -0.222   0.447  -0.145
    1UNL    H22   49  -0.158  -0.122  -0.317
    1UNL    H23   50  -0.293  -0.356  -0.251
    1UNL    H24   51  -0.387  -0.466  -0.044
    1UNL    H25   52  -0.316  -0.391   0.182
    1UNL    H26   53  -0.168  -0.180   0.207
   0.00000   0.00000   0.00000   0.00000   0.00000   0.00000   0.00000   0.00000   0.00000
Generated with MDTraj, t= 31.0
 53
    1UNL     C1    1   0.384   0.302   0.062
    1UNL     C2    2   0.324   0.169   0.060
    1UNL     C3    3   0.235   0.118  -0.023
    1UNL     C4    4   0.161   0.205  -0.128
    1UNL     N1    5   0.120   0.133  -0.250
    1UNL     C5    6   0.085  -0.005  -0.228
    1UNL     C6    7   0.182  -0.092  -0.148
    1UNL     C7    8   0.198  -0.029  -0.008
    1UNL     C8    9   0.069  -0.042   0.082
    1UNL     C9   10   0.071  -0.158   0.174
    1UNL     O1   11   0.106  -0.268   0.137
    1UNL     O2   12   0.051  -0.121   0.305
    1UNL    C10   13   0.064  -0.230   0.400
    1UNL    C11   14  -0.072  -0.029   0.007
    1UNL    C12   15  -0.159   0.091   0.054
    1UNL    C13   16  -0.184   0.180  -0.067
    1UNL     O3   17  -0.127   0.308  -0.044
    1UNL    C14   18  -0.155   0.388  -0.158
    1UNL     O4   19  -0.134   0.119  -0.188
    1UNL    C15   20  -0.052  -0.003  -0.155
    1UNL     N2   21  -0.116  -0.123  -0.213
    1UNL    C16   22  -0.165  -0.214  -0.120
    1UNL    C17   23  -0.239  -0.331  -0.145
    1UNL    C18   24  -0.304  -0.386  -0.040
    1UNL    C19   25  -0.297  -0.339   0.093
    1UNL    C20   26  -0.215  -0.226   0.118
    1UNL    C21   27  -0.151  -0.162   0.008
    1UNL     H1   28   0.492   0.291   0.022
    1UNL     H2   29   0.380   0.349   0.159
    1UNL     H3   30   0.341   0.376  -0.014
    1UNL     H4   31   0.367   0.094   0.121
    1UNL     H5   32   0.217   0.294  -0.159
    1UNL     H6   33   0.065   0.240  -0.089
    1UNL     H7   34   0.046   0.178  -0.302
    1UNL     H8   35   0.068  -0.050  -0.330
    1UNL     H9   36   0.273  -0.104  -0.201
    1UNL    H10   37   0.147  -0.198  -0.139
    1UNL    H11   38   0.281  -0.074   0.050
    1UNL    H12   39   0.069   0.038   0.150
    1UNL    H13   40  -0.020  -0.301   0.397
    1UNL    H14   41   0.161  -0.273   0.384
    1UNL    H15   42   0.064  -0.188   0.499
    1UNL    H16   43  -0.109   0.148   0.138
    1UNL    H17   44  -0.259   0.073   0.091
    1UNL    H18   45  -0.286   0.201  -0.092
    1UNL    H19   46  -0.105   0.486  -0.146
    1UNL    H20   47  -0.112   0.339  -0.253
    1UNL    H21   48  -0.258   0.408  -0.153
    1UNL    H22   49  -0.170  -0.109  -0.299
    1UNL    H23   50  -0.250  -0.370  -0.241
    1UNL    H24   51  -0.360  -0.474  -0.059
    1UNL    H25   52  -0.343  -0.389   0.177
    1UNL    H26   53  -0.213  -0.188   0.217
   0.00000   0.00000   0.00000   0.00000   0.00000   0.00000   0.00000   0.00000   0.00000
Generated with MDTraj, t= 32.0
 53
    1UNL     C1    1   0.380   0.292   0.091
    1UNL     C2    2   0.344   0.152   0.067
    1UNL     C3    3   0.266   0.104  -0.030
    1UNL     C4    4   0.204   0.203  -0.126
    1UNL     N1    5   0.136   0.136  -0.241
    1UNL     C5    6   0.081  -0.004  -0.228
    1UNL     C6    7   0.184  -0.091  -0.156
    1UNL     C7    8   0.199  -0.033  -0.014
    1UNL     C8    9   0.068  -0.022   0.075
    1UNL     C9   10   0.078  -0.139   0.176
    1UNL     O1   11   0.142  -0.235   0.140
    1UNL     O2   12   0.013  -0.131   0.296
    1UNL    C10   13   0.039  -0.248   0.372
    1UNL    C11   14  -0.073  -0.026  -0.009
    1UNL    C12   15  -0.174   0.079   0.038
    1UNL    C13   16  -0.196   0.169  -0.084
    1UNL     O3   17  -0.172   0.301  -0.048
    1UNL    C14   18  -0.159   0.382  -0.163
    1UNL     O4   19  -0.112   0.126  -0.194
    1UNL    C15   20  -0.060  -0.003  -0.165
    1UNL     N2   21  -0.156  -0.112  -0.216
    1UNL    C16   22  -0.204  -0.195  -0.111
    1UNL    C17   23  -0.276  -0.307  -0.126
    1UNL    C18   24  -0.302  -0.386  -0.010
    1UNL    C19   25  -0.247  -0.351   0.115
    1UNL    C20   26  -0.174  -0.239   0.124
    1UNL    C21   27  -0.143  -0.163   0.014
    1UNL     H1   28   0.439   0.292   0.189
    1UNL     H2   29   0.292   0.359   0.088
    1UNL     H3   30   0.456   0.336   0.017
    1UNL     H4   31   0.389   0.070   0.124
    1UNL     H5   32   0.287   0.252  -0.177
    1UNL     H6   33   0.138   0.276  -0.078
    1UNL     H7   34   0.063   0.198  -0.279
    1UNL     H8   35   0.067  -0.050  -0.333
    1UNL     H9   36   0.280  -0.098  -0.209
    1UNL    H10   37   0.148  -0.191  -0.145
    1UNL    H11   38   0.270  -0.087   0.055
    1UNL    H12   39   0.080   0.070   0.129
    1UNL    H13   40   0.015  -0.340   0.314
    1UNL    H14   41   0.147  -0.231   0.393
    1UNL    H15   42  -0.021  -0.247   0.465
    1UNL    H16   43  -0.147   0.138   0.128
    1UNL    H17   44  -0.266   0.027   0.074
    1UNL    H18   45  -0.294   0.160  -0.122
    1UNL    H19   46  -0.147   0.488  -0.132
    1UNL    H20   47  -0.071   0.349  -0.227
    1UNL    H21   48  -0.254   0.374  -0.208
    1UNL    H22   49  -0.213  -0.089  -0.301
    1UNL    H23   50  -0.315  -0.334  -0.225
    1UNL    H24   51  -0.362  -0.478  -0.020
    1UNL    H25   52  -0.276  -0.418   0.193
    1UNL    H26   53  -0.151  -0.207   0.224
   0.00000   0.00000   0.00000   0.00000   0.00000   0.00000   0.00000   0.00000   0.00000
Generated with MDTraj, t= 33.0
 53
    1UNL     C1    1   0.400   0.289   0.062
    1UNL     C2    2   0.341   0.150   0.068
    1UNL     C3    3   0.250   0.104  -0.021
    1UNL     C4    4   0.176   0.187  -0.119
    1UNL     N1    5   0.147   0.117  -0.243
    1UNL     C5    6   0.080  -0.017  -0.235
    1UNL     C6    7   0.180  -0.106  -0.150
    1UNL     C7    8   0.204  -0.038  -0.012
    1UNL     C8    9   0.081  -0.037   0.080
    1UNL     C9   10   0.098  -0.146   0.189
    1UNL     O1   11   0.160  -0.247   0.170
    1UNL     O2   12   0.026  -0.124   0.306
    1UNL    C10   13   0.050  -0.219   0.404
    1UNL    C11   14  -0.057  -0.033   0.000
    1UNL    C12   15  -0.133   0.090   0.056
    1UNL    C13   16  -0.191   0.166  -0.067
    1UNL     O3   17  -0.209   0.300  -0.051
    1UNL    C14   18  -0.205   0.377  -0.167
    1UNL     O4   19  -0.106   0.135  -0.181
    1UNL    C15   20  -0.057   0.004  -0.161
    1UNL     N2   21  -0.155  -0.090  -0.220
    1UNL    C16   22  -0.201  -0.187  -0.127
    1UNL    C17   23  -0.275  -0.299  -0.150
    1UNL    C18   24  -0.311  -0.382  -0.047
    1UNL    C19   25  -0.270  -0.346   0.078
    1UNL    C20   26  -0.187  -0.238   0.109
    1UNL    C21   27  -0.145  -0.159   0.000
    1UNL     H1   28   0.335   0.349   0.132
    1UNL     H2   29   0.408   0.322  -0.048
    1UNL     H3   30   0.503   0.302   0.106
    1UNL     H4   31   0.388   0.078   0.130
    1UNL     H5   32   0.223   0.278  -0.150
    1UNL     H6   33   0.076   0.207  -0.078
    1UNL     H7   34   0.090   0.178  -0.306
    1UNL     H8   35   0.067  -0.059  -0.343
    1UNL     H9   36   0.283  -0.124  -0.194
    1UNL    H10   37   0.129  -0.195  -0.132
    1UNL    H11   38   0.286  -0.091   0.044
    1UNL    H12   39   0.095   0.052   0.146
    1UNL    H13   40   0.078  -0.314   0.351
    1UNL    H14   41   0.130  -0.168   0.464
    1UNL    H15   42  -0.048  -0.233   0.458
    1UNL    H16   43  -0.060   0.156   0.101
    1UNL    H17   44  -0.199   0.075   0.148
    1UNL    H18   45  -0.285   0.123  -0.083
    1UNL    H19   46  -0.229   0.482  -0.143
    1UNL    H20   47  -0.106   0.367  -0.221
    1UNL    H21   48  -0.285   0.340  -0.222
    1UNL    H22   49  -0.233  -0.043  -0.273
    1UNL    H23   50  -0.305  -0.327  -0.251
    1UNL    H24   51  -0.380  -0.460  -0.063
    1UNL    H25   52  -0.304  -0.403   0.166
    1UNL    H26   53  -0.151  -0.211   0.208
   0.00000   0.00000   0.00000   0.00000   0.00000   0.00000   0.00000   0.00000   0.00000
Generated with MDTraj, t= 34.0
 53
    1UNL     C1    1   0.441   0.290   0.033
    1UNL     C2    2   0.374   0.156   0.047
    1UNL     C3    3   0.266   0.112  -0.024
    1UNL     C4    4   0.181   0.191  -0.120
    1UNL     N1    5   0.157   0.117  -0.244
    1UNL     C5    6   0.098  -0.013  -0.218
    1UNL     C6    7   0.188  -0.108  -0.126
    1UNL     C7    8   0.213  -0.031   0.004
    1UNL     C8    9   0.078  -0.033   0.084
    1UNL     C9   10   0.076  -0.148   0.187
    1UNL     O1   11   0.130  -0.250   0.155
    1UNL     O2   12   0.012  -0.116   0.304
    1UNL    C10   13   0.062  -0.192   0.412
    1UNL    C11   14  -0.054  -0.042   0.001
    1UNL    C12   15  -0.143   0.078   0.056
    1UNL    C13   16  -0.195   0.162  -0.065
    1UNL     O3   17  -0.219   0.291  -0.030
    1UNL    C14   18  -0.266   0.365  -0.143
    1UNL     O4   19  -0.108   0.137  -0.180
    1UNL    C15   20  -0.045   0.005  -0.152
    1UNL     N2   21  -0.136  -0.095  -0.216
    1UNL    C16   22  -0.178  -0.203  -0.132
    1UNL    C17   23  -0.279  -0.292  -0.164
    1UNL    C18   24  -0.333  -0.359  -0.058
    1UNL    C19   25  -0.293  -0.338   0.069
    1UNL    C20   26  -0.188  -0.251   0.103
    1UNL    C21   27  -0.128  -0.180  -0.007
    1UNL     H1   28   0.357   0.363   0.017
    1UNL     H2   29   0.524   0.289  -0.050
    1UNL     H3   30   0.487   0.329   0.126
    1UNL     H4   31   0.423   0.080   0.109
    1UNL     H5   32   0.232   0.278  -0.153
    1UNL     H6   33   0.083   0.212  -0.078
    1UNL     H7   34   0.093   0.162  -0.315
    1UNL     H8   35   0.080  -0.061  -0.324
    1UNL     H9   36   0.285  -0.135  -0.181
    1UNL    H10   37   0.138  -0.192  -0.095
    1UNL    H11   38   0.290  -0.092   0.058
    1UNL    H12   39   0.089   0.060   0.148
    1UNL    H13   40   0.021  -0.292   0.391
    1UNL    H14   41   0.170  -0.183   0.402
    1UNL    H15   42   0.020  -0.151   0.508
    1UNL    H16   43  -0.090   0.149   0.116
    1UNL    H17   44  -0.230   0.047   0.123
    1UNL    H18   45  -0.292   0.121  -0.084
    1UNL    H19   46  -0.285   0.472  -0.128
    1UNL    H20   47  -0.198   0.349  -0.231
    1UNL    H21   48  -0.359   0.322  -0.167
    1UNL    H22   49  -0.184  -0.065  -0.305
    1UNL    H23   50  -0.320  -0.310  -0.260
    1UNL    H24   51  -0.420  -0.427  -0.084
    1UNL    H25   52  -0.348  -0.382   0.146
    1UNL    H26   53  -0.153  -0.229   0.202
   0.00000   0.00000   0.00000   0.00000   0.00000   0.00000   0.00000   0.00000   0.00000
Generated with MDTraj, t= 35.0
 53
    1UNL     C1    1   0.459   0.259   0.031
    1UNL     C2    2   0.391   0.132   0.045
    1UNL     C3    3   0.273   0.105  -0.013
    1UNL     C4    4   0.204   0.210  -0.103
    1UNL     N1    5   0.158   0.140  -0.233
    1UNL     C5    6   0.095   0.003  -0.223
    1UNL     C6    7   0.184  -0.095  -0.143
    1UNL     C7    8   0.205  -0.030   0.002
    1UNL     C8    9   0.070  -0.023   0.086
    1UNL     C9   10   0.082  -0.136   0.195
    1UNL     O1   11   0.113  -0.245   0.157
    1UNL     O2   12   0.044  -0.102   0.322
    1UNL    C10   13   0.037  -0.211   0.410
    1UNL    C11   14  -0.058  -0.030  -0.008
    1UNL    C12   15  -0.168   0.071   0.043
    1UNL    C13   16  -0.205   0.156  -0.083
    1UNL     O3   17  -0.227   0.287  -0.040
    1UNL    C14   18  -0.288   0.365  -0.144
    1UNL     O4   19  -0.106   0.135  -0.189
    1UNL    C15   20  -0.044   0.002  -0.167
    1UNL     N2   21  -0.132  -0.108  -0.226
    1UNL    C16   22  -0.179  -0.199  -0.134
    1UNL    C17   23  -0.276  -0.292  -0.150
    1UNL    C18   24  -0.329  -0.365  -0.041
    1UNL    C19   25  -0.272  -0.349   0.084
    1UNL    C20   26  -0.182  -0.250   0.101
    1UNL    C21   27  -0.130  -0.172  -0.002
    1UNL     H1   28   0.403   0.338   0.089
    1UNL     H2   29   0.486   0.290  -0.078
    1UNL     H3   30   0.558   0.265   0.080
    1UNL     H4   31   0.433   0.059   0.110
    1UNL     H5   32   0.266   0.290  -0.128
    1UNL     H6   33   0.117   0.241  -0.045
    1UNL     H7   34   0.077   0.188  -0.275
    1UNL     H8   35   0.069  -0.032  -0.331
    1UNL     H9   36   0.286  -0.105  -0.193
    1UNL    H10   37   0.130  -0.182  -0.142
    1UNL    H11   38   0.281  -0.103   0.042
    1UNL    H12   39   0.074   0.076   0.147
    1UNL    H13   40  -0.053  -0.263   0.385
    1UNL    H14   41   0.127  -0.266   0.392
    1UNL    H15   42   0.022  -0.177   0.513
    1UNL    H16   43  -0.144   0.137   0.125
    1UNL    H17   44  -0.265   0.014   0.061
    1UNL    H18   45  -0.303   0.124  -0.124
    1UNL    H19   46  -0.288   0.472  -0.122
    1UNL    H20   47  -0.239   0.351  -0.243
    1UNL    H21   48  -0.389   0.339  -0.157
    1UNL    H22   49  -0.196  -0.073  -0.303
    1UNL    H23   50  -0.314  -0.309  -0.252
    1UNL    H24   51  -0.398  -0.438  -0.065
    1UNL    H25   52  -0.309  -0.427   0.154
    1UNL    H26   53  -0.151  -0.231   0.203
   0.00000   0.00000   0.00000   0.00000   0.00000   0.00000   0.00000   0.00000   0.00000
Generated with MDTraj, t= 36.0
 53
    1UNL     C1    1   0.453   0.241   0.028
    1UNL     C2    2   0.388   0.106   0.041
    1UNL     C3    3   0.265   0.081  -0.008
    1UNL     C4    4   0.196   0.196  -0.072
    1UNL     N1    5   0.146   0.165  -0.208
    1UNL     C5    6   0.084   0.024  -0.218
    1UNL     C6    7   0.173  -0.094  -0.170
    1UNL     C7    8   0.193  -0.054  -0.017
    1UNL     C8    9   0.066  -0.046   0.075
    1UNL     C9   10   0.074  -0.148   0.184
    1UNL     O1   11   0.122  -0.255   0.158
    1UNL     O2   12   0.030  -0.097   0.302
    1UNL    C10   13   0.061  -0.182   0.413
    1UNL    C11   14  -0.072  -0.028   0.005
    1UNL    C12   15  -0.147   0.100   0.061
    1UNL    C13   16  -0.213   0.157  -0.068
    1UNL     O3   17  -0.234   0.293  -0.053
    1UNL    C14   18  -0.256   0.343  -0.178
    1UNL     O4   19  -0.119   0.139  -0.171
    1UNL    C15   20  -0.056   0.016  -0.154
    1UNL     N2   21  -0.130  -0.099  -0.228
    1UNL    C16   22  -0.191  -0.186  -0.130
    1UNL    C17   23  -0.244  -0.310  -0.153
    1UNL    C18   24  -0.270  -0.392  -0.050
    1UNL    C19   25  -0.254  -0.349   0.080
    1UNL    C20   26  -0.204  -0.224   0.108
    1UNL    C21   27  -0.168  -0.144   0.003
    1UNL     H1   28   0.388   0.317   0.082
    1UNL     H2   29   0.485   0.267  -0.078
    1UNL     H3   30   0.549   0.244   0.087
    1UNL     H4   31   0.434   0.027   0.100
    1UNL     H5   32   0.262   0.275  -0.083
    1UNL     H6   33   0.115   0.221  -0.004
    1UNL     H7   34   0.070   0.224  -0.232
    1UNL     H8   35   0.077   0.013  -0.330
    1UNL     H9   36   0.267  -0.084  -0.233
    1UNL    H10   37   0.126  -0.189  -0.179
    1UNL    H11   38   0.253  -0.141   0.019
    1UNL    H12   39   0.093   0.049   0.141
    1UNL    H13   40   0.004  -0.270   0.397
    1UNL    H14   41   0.165  -0.203   0.410
    1UNL    H15   42   0.028  -0.142   0.510
    1UNL    H16   43  -0.077   0.180   0.081
    1UNL    H17   44  -0.221   0.080   0.145
    1UNL    H18   45  -0.309   0.107  -0.103
    1UNL    H19   46  -0.295   0.445  -0.170
    1UNL    H20   47  -0.161   0.349  -0.233
    1UNL    H21   48  -0.325   0.286  -0.238
    1UNL    H22   49  -0.193  -0.077  -0.309
    1UNL    H23   50  -0.253  -0.340  -0.252
    1UNL    H24   51  -0.300  -0.499  -0.065
    1UNL    H25   52  -0.269  -0.411   0.164
    1UNL    H26   53  -0.192  -0.197   0.210
   0.00000   0.00000   0.00000   0.00000   0.00000   0.00000   0.00000   0.00000   0.00000
Generated with MDTraj, t= 37.0
 53
    1UNL     C1    1   0.481   0.208   0.059
    1UNL     C2    2   0.402   0.081   0.041
    1UNL     C3    3   0.276   0.090  -0.014
    1UNL     C4    4   0.211   0.209  -0.089
    1UNL     N1    5   0.130   0.164  -0.202
    1UNL     C5    6   0.073   0.025  -0.216
    1UNL     C6    7   0.162  -0.090  -0.159
    1UNL     C7    8   0.193  -0.033  -0.013
    1UNL     C8    9   0.065  -0.013   0.076
    1UNL     C9   10   0.076  -0.122   0.184
    1UNL     O1   11   0.115  -0.230   0.141
    1UNL     O2   12   0.022  -0.100   0.310
    1UNL    C10   13   0.044  -0.204   0.395
    1UNL    C11   14  -0.068  -0.022  -0.005
    1UNL    C12   15  -0.169   0.087   0.047
    1UNL    C13   16  -0.222   0.158  -0.081
    1UNL     O3   17  -0.241   0.299  -0.055
    1UNL    C14   18  -0.253   0.382  -0.163
    1UNL     O4   19  -0.150   0.123  -0.194
    1UNL    C15   20  -0.069   0.009  -0.165
    1UNL     N2   21  -0.129  -0.112  -0.226
    1UNL    C16   22  -0.169  -0.201  -0.126
    1UNL    C17   23  -0.237  -0.328  -0.146
    1UNL    C18   24  -0.279  -0.390  -0.032
    1UNL    C19   25  -0.242  -0.349   0.092
    1UNL    C20   26  -0.169  -0.230   0.115
    1UNL    C21   27  -0.137  -0.156   0.001
    1UNL     H1   28   0.427   0.263   0.142
    1UNL     H2   29   0.493   0.265  -0.035
    1UNL     H3   30   0.588   0.191   0.096
    1UNL     H4   31   0.436  -0.006   0.096
    1UNL     H5   32   0.284   0.275  -0.124
    1UNL     H6   33   0.143   0.262  -0.026
    1UNL     H7   34   0.043   0.221  -0.212
    1UNL     H8   35   0.078   0.010  -0.325
    1UNL     H9   36   0.256  -0.114  -0.211
    1UNL    H10   37   0.098  -0.180  -0.163
    1UNL    H11   38   0.258  -0.109   0.037
    1UNL    H12   39   0.082   0.090   0.132
    1UNL    H13   40   0.028  -0.297   0.342
    1UNL    H14   41   0.146  -0.202   0.432
    1UNL    H15   42  -0.032  -0.210   0.478
    1UNL    H16   43  -0.112   0.167   0.099
    1UNL    H17   44  -0.247   0.046   0.114
    1UNL    H18   45  -0.323   0.108  -0.106
    1UNL    H19   46  -0.269   0.485  -0.129
    1UNL    H20   47  -0.157   0.377  -0.214
    1UNL    H21   48  -0.329   0.355  -0.237
    1UNL    H22   49  -0.200  -0.099  -0.300
    1UNL    H23   50  -0.260  -0.361  -0.248
    1UNL    H24   51  -0.345  -0.474  -0.041
    1UNL    H25   52  -0.281  -0.405   0.179
    1UNL    H26   53  -0.140  -0.197   0.215
   0.00000   0.00000   0.00000   0.00000   0.00000   0.00000   0.00000   0.00000   0.00000
Generated with MDTraj, t= 38.0
 53
    1UNL     C1    1   0.484   0.220   0.050
    1UNL     C2    2   0.387   0.104   0.059
    1UNL     C3    3   0.283   0.093  -0.023
    1UNL     C4    4   0.242   0.205  -0.120
    1UNL     N1    5   0.109   0.171  -0.190
    1UNL     C5    6   0.073   0.026  -0.219
    1UNL     C6    7   0.178  -0.082  -0.162
    1UNL     C7    8   0.203  -0.036  -0.015
    1UNL     C8    9   0.075  -0.029   0.071
    1UNL     C9   10   0.084  -0.133   0.182
    1UNL     O1   11   0.137  -0.241   0.163
    1UNL     O2   12   0.012  -0.096   0.293
    1UNL    C10   13   0.017  -0.175   0.401
    1UNL    C11   14  -0.060  -0.028  -0.004
    1UNL    C12   15  -0.148   0.087   0.054
    1UNL    C13   16  -0.219   0.159  -0.066
    1UNL     O3   17  -0.241   0.305  -0.041
    1UNL    C14   18  -0.258   0.373  -0.163
    1UNL     O4   19  -0.151   0.131  -0.187
    1UNL    C15   20  -0.070   0.006  -0.159
    1UNL     N2   21  -0.138  -0.106  -0.224
    1UNL    C16   22  -0.171  -0.207  -0.131
    1UNL    C17   23  -0.250  -0.324  -0.150
    1UNL    C18   24  -0.290  -0.399  -0.042
    1UNL    C19   25  -0.266  -0.354   0.088
    1UNL    C20   26  -0.177  -0.249   0.101
    1UNL    C21   27  -0.128  -0.172   0.001
    1UNL     H1   28   0.434   0.319   0.070
    1UNL     H2   29   0.548   0.229  -0.038
    1UNL     H3   30   0.566   0.218   0.132
    1UNL     H4   31   0.395   0.029   0.135
    1UNL     H5   32   0.306   0.209  -0.203
    1UNL     H6   33   0.245   0.301  -0.073
    1UNL     H7   34   0.024   0.196  -0.132
    1UNL     H8   35   0.067   0.007  -0.326
    1UNL     H9   36   0.264  -0.087  -0.226
    1UNL    H10   37   0.133  -0.189  -0.158
    1UNL    H11   38   0.260  -0.116   0.038
    1UNL    H12   39   0.097   0.068   0.135
    1UNL    H13   40  -0.052  -0.261   0.395
    1UNL    H14   41   0.118  -0.218   0.417
    1UNL    H15   42  -0.021  -0.123   0.495
    1UNL    H16   43  -0.089   0.164   0.110
    1UNL    H17   44  -0.223   0.046   0.122
    1UNL    H18   45  -0.319   0.102  -0.086
    1UNL    H19   46  -0.232   0.478  -0.150
    1UNL    H20   47  -0.190   0.324  -0.231
    1UNL    H21   48  -0.358   0.363  -0.211
    1UNL    H22   49  -0.190  -0.063  -0.301
    1UNL    H23   50  -0.274  -0.350  -0.252
    1UNL    H24   51  -0.356  -0.481  -0.067
    1UNL    H25   52  -0.319  -0.400   0.168
    1UNL    H26   53  -0.152  -0.227   0.203
   0.00000   0.00000   0.00000   0.00000   0.00000   0.00000   0.00000   0.00000   0.00000
Generated with MDTraj, t= 39.0
 53
    1UNL     C1    1   0.456   0.223   0.078
    1UNL     C2    2   0.379   0.099   0.073
    1UNL     C3    3   0.289   0.079  -0.024
    1UNL     C4    4   0.265   0.179  -0.140
    1UNL     N1    5   0.128   0.169  -0.194
    1UNL     C5    6   0.075   0.029  -0.221
    1UNL     C6    7   0.168  -0.089  -0.179
    1UNL     C7    8   0.204  -0.044  -0.027
    1UNL     C8    9   0.079  -0.025   0.060
    1UNL     C9   10   0.086  -0.116   0.184
    1UNL     O1   11   0.161  -0.213   0.180
    1UNL     O2   12   0.010  -0.083   0.293
    1UNL    C10   13   0.033  -0.162   0.405
    1UNL    C11   14  -0.065  -0.035  -0.007
    1UNL    C12   15  -0.154   0.074   0.058
    1UNL    C13   16  -0.223   0.153  -0.054
    1UNL     O3   17  -0.221   0.291  -0.033
    1UNL    C14   18  -0.279   0.354  -0.145
    1UNL     O4   19  -0.145   0.132  -0.172
    1UNL    C15   20  -0.071   0.000  -0.165
    1UNL     N2   21  -0.138  -0.111  -0.229
    1UNL    C16   22  -0.181  -0.206  -0.137
    1UNL    C17   23  -0.258  -0.316  -0.161
    1UNL    C18   24  -0.297  -0.389  -0.056
    1UNL    C19   25  -0.266  -0.350   0.076
    1UNL    C20   26  -0.191  -0.233   0.099
    1UNL    C21   27  -0.143  -0.165  -0.006
    1UNL     H1   28   0.384   0.310   0.088
    1UNL     H2   29   0.521   0.243  -0.008
    1UNL     H3   30   0.526   0.225   0.168
    1UNL     H4   31   0.379   0.026   0.154
    1UNL     H5   32   0.329   0.158  -0.222
    1UNL     H6   33   0.278   0.282  -0.121
    1UNL     H7   34   0.056   0.217  -0.138
    1UNL     H8   35   0.067   0.023  -0.328
    1UNL     H9   36   0.257  -0.083  -0.237
    1UNL    H10   37   0.121  -0.195  -0.206
    1UNL    H11   38   0.262  -0.126   0.019
    1UNL    H12   39   0.099   0.083   0.101
    1UNL    H13   40   0.006  -0.267   0.388
    1UNL    H14   41   0.142  -0.170   0.426
    1UNL    H15   42  -0.019  -0.139   0.504
    1UNL    H16   43  -0.096   0.148   0.120
    1UNL    H17   44  -0.222   0.027   0.126
    1UNL    H18   45  -0.332   0.120  -0.074
    1UNL    H19   46  -0.280   0.459  -0.114
    1UNL    H20   47  -0.212   0.342  -0.229
    1UNL    H21   48  -0.380   0.314  -0.179
    1UNL    H22   49  -0.172  -0.104  -0.324
    1UNL    H23   50  -0.277  -0.347  -0.260
    1UNL    H24   51  -0.354  -0.484  -0.059
    1UNL    H25   52  -0.299  -0.410   0.162
    1UNL    H26   53  -0.167  -0.213   0.202
   0.00000   0.00000   0.00000   0.00000   0.00000   0.00000   0.00000   0.00000   0.00000
Generated with MDTraj, t= 40.0
 53
    1UNL     C1    1   0.441   0.213   0.112
    1UNL     C2    2   0.371   0.081   0.074
    1UNL     C3    3   0.288   0.062  -0.032
    1UNL     C4    4   0.262   0.168  -0.135
    1UNL     N1    5   0.141   0.162  -0.222
    1UNL     C5    6   0.079   0.021  -0.235
    1UNL     C6    7   0.163  -0.095  -0.194
    1UNL     C7    8   0.188  -0.057  -0.037
    1UNL     C8    9   0.070  -0.025   0.061
    1UNL     C9   10   0.085  -0.107   0.186
    1UNL     O1   11   0.163  -0.204   0.186
    1UNL     O2   12   0.006  -0.072   0.296
    1UNL    C10   13   0.033  -0.146   0.403
    1UNL    C11   14  -0.064  -0.032  -0.013
    1UNL    C12   15  -0.164   0.068   0.054
    1UNL    C13   16  -0.226   0.145  -0.063
    1UNL     O3   17  -0.256   0.275  -0.018
    1UNL    C14   18  -0.267   0.364  -0.131
    1UNL     O4   19  -0.130   0.135  -0.179
    1UNL    C15   20  -0.063   0.011  -0.169
    1UNL     N2   21  -0.136  -0.100  -0.238
    1UNL    C16   22  -0.184  -0.190  -0.141
    1UNL    C17   23  -0.276  -0.302  -0.147
    1UNL    C18   24  -0.293  -0.382  -0.034
    1UNL    C19   25  -0.230  -0.354   0.082
    1UNL    C20   26  -0.158  -0.241   0.096
    1UNL    C21   27  -0.135  -0.160  -0.013
    1UNL     H1   28   0.416   0.240   0.217
    1UNL     H2   29   0.414   0.302   0.048
    1UNL     H3   30   0.549   0.193   0.097
    1UNL     H4   31   0.363   0.004   0.149
    1UNL     H5   32   0.341   0.175  -0.206
    1UNL     H6   33   0.261   0.262  -0.086
    1UNL     H7   34   0.069   0.225  -0.192
    1UNL     H8   35   0.081   0.017  -0.342
    1UNL     H9   36   0.253  -0.096  -0.251
    1UNL    H10   37   0.114  -0.197  -0.228
    1UNL    H11   38   0.241  -0.142   0.007
    1UNL    H12   39   0.088   0.082   0.099
    1UNL    H13   40   0.067  -0.242   0.375
    1UNL    H14   41   0.112  -0.102   0.463
    1UNL    H15   42  -0.055  -0.161   0.468
    1UNL    H16   43  -0.124   0.137   0.131
    1UNL    H17   44  -0.238   0.011   0.110
    1UNL    H18   45  -0.329   0.103  -0.090
    1UNL    H19   46  -0.251   0.465  -0.093
    1UNL    H20   47  -0.192   0.336  -0.201
    1UNL    H21   48  -0.365   0.350  -0.187
    1UNL    H22   49  -0.192  -0.062  -0.311
    1UNL    H23   50  -0.323  -0.318  -0.248
    1UNL    H24   51  -0.347  -0.469  -0.047
    1UNL    H25   52  -0.241  -0.418   0.169
    1UNL    H26   53  -0.115  -0.209   0.188
   0.00000   0.00000   0.00000   0.00000   0.00000   0.00000   0.00000   0.00000   0.00000
Generated with MDTraj, t= 41.0
 53
    1UNL     C1    1   0.465   0.207   0.085
    1UNL     C2    2   0.384   0.078   0.068
    1UNL     C3    3   0.287   0.067  -0.025
    1UNL     C4    4   0.266   0.168  -0.142
    1UNL     N1    5   0.126   0.154  -0.200
    1UNL     C5    6   0.067   0.010  -0.226
    1UNL     C6    7   0.163  -0.102  -0.179
    1UNL     C7    8   0.198  -0.058  -0.032
    1UNL     C8    9   0.070  -0.033   0.058
    1UNL     C9   10   0.083  -0.109   0.191
    1UNL     O1   11   0.168  -0.198   0.198
    1UNL     O2   12   0.001  -0.054   0.283
    1UNL    C10   13   0.013  -0.116   0.401
    1UNL    C11   14  -0.078  -0.038   0.001
    1UNL    C12   15  -0.166   0.074   0.062
    1UNL    C13   16  -0.219   0.165  -0.052
    1UNL     O3   17  -0.249   0.304  -0.022
    1UNL    C14   18  -0.269   0.372  -0.148
    1UNL     O4   19  -0.130   0.151  -0.159
    1UNL    C15   20  -0.076   0.013  -0.154
    1UNL     N2   21  -0.147  -0.090  -0.224
    1UNL    C16   22  -0.189  -0.194  -0.133
    1UNL    C17   23  -0.264  -0.307  -0.165
    1UNL    C18   24  -0.278  -0.407  -0.067
    1UNL    C19   25  -0.218  -0.390   0.056
    1UNL    C20   26  -0.155  -0.274   0.085
    1UNL    C21   27  -0.144  -0.171  -0.006
    1UNL     H1   28   0.570   0.189   0.112
    1UNL     H2   29   0.430   0.279   0.168
    1UNL     H3   30   0.467   0.258  -0.012
    1UNL     H4   31   0.387  -0.001   0.143
    1UNL     H5   32   0.333   0.139  -0.221
    1UNL     H6   33   0.292   0.267  -0.119
    1UNL     H7   34   0.051   0.212  -0.156
    1UNL     H8   35   0.043   0.006  -0.328
    1UNL     H9   36   0.242  -0.123  -0.252
    1UNL    H10   37   0.100  -0.197  -0.178
    1UNL    H11   38   0.262  -0.128   0.023
    1UNL    H12   39   0.082   0.076   0.085
    1UNL    H13   40  -0.020  -0.213   0.385
    1UNL    H14   41   0.117  -0.130   0.424
    1UNL    H15   42  -0.036  -0.071   0.487
    1UNL    H16   43  -0.111   0.132   0.133
    1UNL    H17   44  -0.250   0.032   0.120
    1UNL    H18   45  -0.318   0.124  -0.088
    1UNL    H19   46  -0.357   0.436  -0.138
    1UNL    H20   47  -0.183   0.425  -0.173
    1UNL    H21   48  -0.280   0.294  -0.231
    1UNL    H22   49  -0.208  -0.051  -0.290
    1UNL    H23   50  -0.312  -0.316  -0.255
    1UNL    H24   51  -0.341  -0.498  -0.090
    1UNL    H25   52  -0.223  -0.466   0.130
    1UNL    H26   53  -0.120  -0.263   0.186
   0.00000   0.00000   0.00000   0.00000   0.00000   0.00000   0.00000   0.00000   0.00000
Generated with MDTraj, t= 42.0
 53
    1UNL     C1    1   0.501   0.164   0.041
    1UNL     C2    2   0.385   0.069   0.050
    1UNL     C3    3   0.282   0.065  -0.032
    1UNL     C4    4   0.255   0.159  -0.151
    1UNL     N1    5   0.125   0.155  -0.206
    1UNL     C5    6   0.073   0.014  -0.222
    1UNL     C6    7   0.147  -0.103  -0.154
    1UNL     C7    8   0.178  -0.050  -0.014
    1UNL     C8    9   0.057  -0.009   0.074
    1UNL     C9   10   0.066  -0.086   0.203
    1UNL     O1   11   0.133  -0.187   0.213
    1UNL     O2   12  -0.015  -0.032   0.306
    1UNL    C10   13   0.000  -0.107   0.419
    1UNL    C11   14  -0.075  -0.029  -0.012
    1UNL    C12   15  -0.186   0.057   0.054
    1UNL    C13   16  -0.231   0.159  -0.053
    1UNL     O3   17  -0.248   0.299   0.000
    1UNL    C14   18  -0.256   0.393  -0.099
    1UNL     O4   19  -0.144   0.144  -0.164
    1UNL    C15   20  -0.074   0.012  -0.171
    1UNL     N2   21  -0.149  -0.096  -0.239
    1UNL    C16   22  -0.160  -0.212  -0.156
    1UNL    C17   23  -0.230  -0.324  -0.181
    1UNL    C18   24  -0.257  -0.411  -0.074
    1UNL    C19   25  -0.202  -0.383   0.053
    1UNL    C20   26  -0.135  -0.265   0.077
    1UNL    C21   27  -0.115  -0.173  -0.025
    1UNL     H1   28   0.524   0.187  -0.065
    1UNL     H2   29   0.602   0.131   0.084
    1UNL     H3   30   0.470   0.263   0.079
    1UNL     H4   31   0.379   0.002   0.132
    1UNL     H5   32   0.323   0.135  -0.232
    1UNL     H6   33   0.273   0.261  -0.126
    1UNL     H7   34   0.052   0.210  -0.153
    1UNL     H8   35   0.071   0.007  -0.326
    1UNL     H9   36   0.243  -0.109  -0.215
    1UNL    H10   37   0.098  -0.199  -0.168
    1UNL    H11   38   0.226  -0.128   0.044
    1UNL    H12   39   0.058   0.093   0.113
    1UNL    H13   40  -0.056  -0.196   0.405
    1UNL    H14   41   0.105  -0.135   0.427
    1UNL    H15   42  -0.033  -0.056   0.510
    1UNL    H16   43  -0.151   0.102   0.142
    1UNL    H17   44  -0.273  -0.007   0.082
    1UNL    H18   45  -0.325   0.125  -0.098
    1UNL    H19   46  -0.325   0.468  -0.061
    1UNL    H20   47  -0.163   0.434  -0.119
    1UNL    H21   48  -0.297   0.347  -0.195
    1UNL    H22   49  -0.219  -0.058  -0.296
    1UNL    H23   50  -0.277  -0.345  -0.279
    1UNL    H24   51  -0.317  -0.495  -0.080
    1UNL    H25   52  -0.221  -0.458   0.133
    1UNL    H26   53  -0.097  -0.244   0.177
   0.00000   0.00000   0.00000   0.00000   0.00000   0.00000   0.00000   0.00000   0.00000
Generated with MDTraj, t= 43.0
 53
    1UNL     C1    1   0.520   0.139   0.025
    1UNL     C2    2   0.409   0.045   0.027
    1UNL     C3    3   0.293   0.060  -0.032
    1UNL     C4    4   0.254   0.184  -0.114
    1UNL     N1    5   0.117   0.163  -0.184
    1UNL     C5    6   0.060   0.020  -0.214
    1UNL     C6    7   0.153  -0.093  -0.166
    1UNL     C7    8   0.190  -0.052  -0.022
    1UNL     C8    9   0.062  -0.005   0.066
    1UNL     C9   10   0.052  -0.067   0.202
    1UNL     O1   11   0.098  -0.175   0.223
    1UNL     O2   12  -0.019   0.004   0.285
    1UNL    C10   13  -0.026  -0.056   0.411
    1UNL    C11   14  -0.076  -0.036  -0.009
    1UNL    C12   15  -0.182   0.049   0.063
    1UNL    C13   16  -0.237   0.147  -0.046
    1UNL     O3   17  -0.238   0.280   0.006
    1UNL    C14   18  -0.225   0.377  -0.089
    1UNL     O4   19  -0.155   0.138  -0.158
    1UNL    C15   20  -0.084   0.012  -0.158
    1UNL     N2   21  -0.161  -0.094  -0.239
    1UNL    C16   22  -0.186  -0.203  -0.155
    1UNL    C17   23  -0.242  -0.329  -0.182
    1UNL    C18   24  -0.222  -0.432  -0.087
    1UNL    C19   25  -0.176  -0.405   0.040
    1UNL    C20   26  -0.134  -0.279   0.070
    1UNL    C21   27  -0.125  -0.180  -0.027
    1UNL     H1   28   0.476   0.244   0.026
    1UNL     H2   29   0.579   0.117  -0.067
    1UNL     H3   30   0.574   0.127   0.121
    1UNL     H4   31   0.436  -0.050   0.075
    1UNL     H5   32   0.321   0.202  -0.198
    1UNL     H6   33   0.254   0.271  -0.055
    1UNL     H7   34   0.044   0.226  -0.155
    1UNL     H8   35   0.057   0.015  -0.318
    1UNL     H9   36   0.246  -0.102  -0.236
    1UNL    H10   37   0.112  -0.187  -0.170
    1UNL    H11   38   0.242  -0.131   0.031
    1UNL    H12   39   0.069   0.100   0.076
    1UNL    H13   40  -0.043  -0.161   0.391
    1UNL    H14   41   0.077  -0.045   0.455
    1UNL    H15   42  -0.106  -0.012   0.477
    1UNL    H16   43  -0.138   0.109   0.139
    1UNL    H17   44  -0.249  -0.024   0.114
    1UNL    H18   45  -0.328   0.111  -0.088
    1UNL    H19   46  -0.175   0.459  -0.041
    1UNL    H20   47  -0.171   0.347  -0.174
    1UNL    H21   48  -0.327   0.414  -0.120
    1UNL    H22   49  -0.228  -0.039  -0.287
    1UNL    H23   50  -0.288  -0.355  -0.276
    1UNL    H24   51  -0.251  -0.533  -0.127
    1UNL    H25   52  -0.170  -0.478   0.114
    1UNL    H26   53  -0.078  -0.249   0.156
   0.00000   0.00000   0.00000   0.00000   0.00000   0.00000   0.00000   0.00000   0.00000
Generated with MDTraj, t= 44.0
 53
    1UNL     C1    1   0.506   0.124   0.022
    1UNL     C2    2   0.405   0.019   0.017
    1UNL     C3    3   0.282   0.042  -0.016
    1UNL     C4    4   0.240   0.173  -0.079
    1UNL     N1    5   0.112   0.173  -0.160
    1UNL     C5    6   0.056   0.037  -0.215
    1UNL     C6    7   0.141  -0.085  -0.176
    1UNL     C7    8   0.172  -0.069  -0.024
    1UNL     C8    9   0.044  -0.014   0.056
    1UNL     C9   10   0.056  -0.053   0.199
    1UNL     O1   11   0.106  -0.153   0.244
    1UNL     O2   12  -0.010   0.037   0.289
    1UNL    C10   13  -0.006  -0.017   0.421
    1UNL    C11   14  -0.088  -0.044  -0.016
    1UNL    C12   15  -0.202   0.031   0.046
    1UNL    C13   16  -0.226   0.157  -0.047
    1UNL     O3   17  -0.197   0.285   0.011
    1UNL    C14   18  -0.233   0.387  -0.084
    1UNL     O4   19  -0.163   0.136  -0.171
    1UNL    C15   20  -0.089   0.012  -0.165
    1UNL     N2   21  -0.159  -0.095  -0.235
    1UNL    C16   22  -0.184  -0.207  -0.152
    1UNL    C17   23  -0.232  -0.332  -0.195
    1UNL    C18   24  -0.211  -0.440  -0.105
    1UNL    C19   25  -0.154  -0.424   0.022
    1UNL    C20   26  -0.116  -0.296   0.068
    1UNL    C21   27  -0.130  -0.191  -0.029
    1UNL     H1   28   0.526   0.157   0.129
    1UNL     H2   29   0.482   0.210  -0.040
    1UNL     H3   30   0.604   0.087  -0.011
    1UNL     H4   31   0.434  -0.082   0.032
    1UNL     H5   32   0.318   0.202  -0.152
    1UNL     H6   33   0.233   0.254  -0.010
    1UNL     H7   34   0.031   0.205  -0.106
    1UNL     H8   35   0.058   0.042  -0.319
    1UNL     H9   36   0.233  -0.098  -0.246
    1UNL    H10   37   0.083  -0.170  -0.190
    1UNL    H11   38   0.205  -0.166   0.011
    1UNL    H12   39   0.043   0.090   0.062
    1UNL    H13   40  -0.067  -0.108   0.408
    1UNL    H14   41   0.104  -0.044   0.433
    1UNL    H15   42  -0.043   0.055   0.499
    1UNL    H16   43  -0.184   0.068   0.147
    1UNL    H17   44  -0.286  -0.038   0.043
    1UNL    H18   45  -0.328   0.164  -0.073
    1UNL    H19   46  -0.235   0.485  -0.038
    1UNL    H20   47  -0.163   0.397  -0.164
    1UNL    H21   48  -0.337   0.373  -0.129
    1UNL    H22   49  -0.242  -0.056  -0.272
    1UNL    H23   50  -0.278  -0.359  -0.285
    1UNL    H24   51  -0.245  -0.540  -0.123
    1UNL    H25   52  -0.127  -0.512   0.086
    1UNL    H26   53  -0.065  -0.282   0.163
   0.00000   0.00000   0.00000   0.00000   0.00000   0.00000   0.00000   0.00000   0.00000
Generated with MDTraj, t= 45.0
 53
    1UNL     C1    1   0.495   0.111   0.029
    1UNL     C2    2   0.372   0.031   0.049
    1UNL     C3    3   0.264   0.042  -0.020
    1UNL     C4    4   0.241   0.161  -0.113
    1UNL     N1    5   0.117   0.166  -0.184
    1UNL     C5    6   0.051   0.041  -0.227
    1UNL     C6    7   0.133  -0.084  -0.180
    1UNL     C7    8   0.150  -0.056  -0.025
    1UNL     C8    9   0.031  -0.003   0.060
    1UNL     C9   10   0.038  -0.056   0.207
    1UNL     O1   11   0.076  -0.164   0.241
    1UNL     O2   12   0.003   0.039   0.290
    1UNL    C10   13   0.032   0.002   0.421
    1UNL    C11   14  -0.100  -0.040  -0.014
    1UNL    C12   15  -0.220   0.032   0.039
    1UNL    C13   16  -0.237   0.163  -0.047
    1UNL     O3   17  -0.185   0.272   0.028
    1UNL    C14   18  -0.201   0.389  -0.053
    1UNL     O4   19  -0.175   0.144  -0.175
    1UNL    C15   20  -0.090   0.027  -0.168
    1UNL     N2   21  -0.149  -0.103  -0.236
    1UNL    C16   22  -0.156  -0.217  -0.157
    1UNL    C17   23  -0.188  -0.346  -0.197
    1UNL    C18   24  -0.199  -0.452  -0.108
    1UNL    C19   25  -0.160  -0.422   0.024
    1UNL    C20   26  -0.115  -0.296   0.065
    1UNL    C21   27  -0.116  -0.192  -0.022
    1UNL     H1   28   0.571   0.112   0.111
    1UNL     H2   29   0.468   0.214   0.006
    1UNL     H3   30   0.551   0.075  -0.061
    1UNL     H4   31   0.387  -0.060   0.109
    1UNL     H5   32   0.320   0.172  -0.192
    1UNL     H6   33   0.248   0.251  -0.054
    1UNL     H7   34   0.047   0.240  -0.173
    1UNL     H8   35   0.046   0.041  -0.330
    1UNL     H9   36   0.235  -0.073  -0.225
    1UNL    H10   37   0.087  -0.179  -0.208
    1UNL    H11   38   0.186  -0.147   0.020
    1UNL    H12   39   0.031   0.099   0.058
    1UNL    H13   40  -0.028  -0.089   0.427
    1UNL    H14   41   0.141  -0.024   0.418
    1UNL    H15   42   0.006   0.087   0.487
    1UNL    H16   43  -0.203   0.064   0.144
    1UNL    H17   44  -0.309  -0.023   0.029
    1UNL    H18   45  -0.336   0.191  -0.067
    1UNL    H19   46  -0.124   0.462  -0.030
    1UNL    H20   47  -0.188   0.373  -0.159
    1UNL    H21   48  -0.300   0.443  -0.035
    1UNL    H22   49  -0.220  -0.080  -0.303
    1UNL    H23   50  -0.234  -0.360  -0.298
    1UNL    H24   51  -0.238  -0.553  -0.126
    1UNL    H25   52  -0.164  -0.494   0.099
    1UNL    H26   53  -0.087  -0.275   0.166
   0.00000   0.00000   0.00000   0.00000   0.00000   0.00000   0.00000   0.00000   0.00000
Generated with MDTraj, t= 46.0
 53
    1UNL     C1    1   0.486   0.169   0.074
    1UNL     C2    2   0.374   0.057   0.057
    1UNL     C3    3   0.271   0.062  -0.025
    1UNL     C4    4   0.234   0.170  -0.122
    1UNL     N1    5   0.092   0.156  -0.179
    1UNL     C5    6   0.036   0.021  -0.219
    1UNL     C6    7   0.126  -0.095  -0.160
    1UNL     C7    8   0.171  -0.055  -0.026
    1UNL     C8    9   0.041  -0.011   0.053
    1UNL     C9   10   0.040  -0.054   0.196
    1UNL     O1   11   0.045  -0.172   0.229
    1UNL     O2   12   0.040   0.055   0.289
    1UNL    C10   13   0.032  -0.000   0.414
    1UNL    C11   14  -0.105  -0.042  -0.013
    1UNL    C12   15  -0.219   0.038   0.061
    1UNL    C13   16  -0.223   0.164  -0.039
    1UNL     O3   17  -0.137   0.261   0.011
    1UNL    C14   18  -0.144   0.379  -0.062
    1UNL     O4   19  -0.184   0.128  -0.173
    1UNL    C15   20  -0.107   0.008  -0.160
    1UNL     N2   21  -0.180  -0.104  -0.236
    1UNL    C16   22  -0.176  -0.217  -0.164
    1UNL    C17   23  -0.194  -0.351  -0.210
    1UNL    C18   24  -0.197  -0.455  -0.119
    1UNL    C19   25  -0.157  -0.429   0.014
    1UNL    C20   26  -0.128  -0.300   0.056
    1UNL    C21   27  -0.138  -0.194  -0.028
    1UNL     H1   28   0.587   0.127   0.069
    1UNL     H2   29   0.465   0.223   0.168
    1UNL     H3   30   0.472   0.242  -0.009
    1UNL     H4   31   0.396  -0.030   0.111
    1UNL     H5   32   0.306   0.158  -0.207
    1UNL     H6   33   0.261   0.271  -0.088
    1UNL     H7   34   0.019   0.214  -0.132
    1UNL     H8   35   0.032   0.023  -0.323
    1UNL     H9   36   0.209  -0.112  -0.228
    1UNL    H10   37   0.066  -0.195  -0.150
    1UNL    H11   38   0.217  -0.139   0.025
    1UNL    H12   39   0.044   0.092   0.062
    1UNL    H13   40  -0.039  -0.077   0.394
    1UNL    H14   41   0.133  -0.042   0.427
    1UNL    H15   42   0.003   0.081   0.478
    1UNL    H16   43  -0.180   0.069   0.161
    1UNL    H17   44  -0.315  -0.003   0.077
    1UNL    H18   45  -0.321   0.206  -0.044
    1UNL    H19   46  -0.081   0.454  -0.013
    1UNL    H20   47  -0.100   0.366  -0.160
    1UNL    H21   48  -0.249   0.418  -0.068
    1UNL    H22   49  -0.245  -0.076  -0.307
    1UNL    H23   50  -0.230  -0.365  -0.305
    1UNL    H24   51  -0.232  -0.555  -0.144
    1UNL    H25   52  -0.144  -0.507   0.092
    1UNL    H26   53  -0.097  -0.280   0.157
   0.00000   0.00000   0.00000   0.00000   0.00000   0.00000   0.00000   0.00000   0.00000
Generated with MDTraj, t= 47.0
 53
    1UNL     C1    1   0.441   0.210   0.088
    1UNL     C2    2   0.350   0.088   0.069
    1UNL     C3    3   0.259   0.077  -0.023
    1UNL     C4    4   0.214   0.188  -0.113
    1UNL     N1    5   0.090   0.150  -0.191
    1UNL     C5    6   0.047   0.017  -0.230
    1UNL     C6    7   0.142  -0.096  -0.169
    1UNL     C7    8   0.171  -0.057  -0.022
    1UNL     C8    9   0.042  -0.030   0.061
    1UNL     C9   10   0.046  -0.066   0.211
    1UNL     O1   11   0.059  -0.183   0.240
    1UNL     O2   12   0.039   0.038   0.290
    1UNL    C10   13   0.052  -0.006   0.424
    1UNL    C11   14  -0.094  -0.051  -0.015
    1UNL    C12   15  -0.200   0.036   0.052
    1UNL    C13   16  -0.203   0.162  -0.046
    1UNL     O3   17  -0.117   0.259   0.004
    1UNL    C14   18  -0.110   0.378  -0.070
    1UNL     O4   19  -0.181   0.119  -0.179
    1UNL    C15   20  -0.098  -0.001  -0.172
    1UNL     N2   21  -0.181  -0.111  -0.250
    1UNL    C16   22  -0.197  -0.216  -0.160
    1UNL    C17   23  -0.239  -0.343  -0.197
    1UNL    C18   24  -0.233  -0.443  -0.106
    1UNL    C19   25  -0.170  -0.431   0.018
    1UNL    C20   26  -0.111  -0.300   0.045
    1UNL    C21   27  -0.138  -0.195  -0.041
    1UNL     H1   28   0.494   0.239  -0.002
    1UNL     H2   29   0.511   0.200   0.175
    1UNL     H3   30   0.381   0.298   0.123
    1UNL     H4   31   0.368   0.003   0.137
    1UNL     H5   32   0.293   0.242  -0.173
    1UNL     H6   33   0.185   0.267  -0.041
    1UNL     H7   34   0.007   0.191  -0.148
    1UNL     H8   35   0.032   0.017  -0.333
    1UNL     H9   36   0.228  -0.117  -0.230
    1UNL    H10   37   0.071  -0.190  -0.173
    1UNL    H11   38   0.228  -0.129   0.035
    1UNL    H12   39   0.034   0.073   0.066
    1UNL    H13   40  -0.048  -0.011   0.458
    1UNL    H14   41   0.092  -0.107   0.417
    1UNL    H15   42   0.120   0.063   0.470
    1UNL    H16   43  -0.166   0.070   0.152
    1UNL    H17   44  -0.292  -0.013   0.075
    1UNL    H18   45  -0.305   0.200  -0.042
    1UNL    H19   46  -0.007   0.413  -0.082
    1UNL    H20   47  -0.147   0.352  -0.169
    1UNL    H21   48  -0.177   0.447  -0.017
    1UNL    H22   49  -0.145  -0.117  -0.345
    1UNL    H23   50  -0.267  -0.369  -0.303
    1UNL    H24   51  -0.266  -0.541  -0.131
    1UNL    H25   52  -0.145  -0.518   0.074
    1UNL    H26   53  -0.036  -0.289   0.124
   0.00000   0.00000   0.00000   0.00000   0.00000   0.00000   0.00000   0.00000   0.00000
Generated with MDTraj, t= 48.0
 53
    1UNL     C1    1   0.420   0.219   0.096
    1UNL     C2    2   0.322   0.113   0.082
    1UNL     C3    3   0.269   0.075  -0.029
    1UNL     C4    4   0.244   0.166  -0.144
    1UNL     N1    5   0.104   0.155  -0.197
    1UNL     C5    6   0.059   0.021  -0.234
    1UNL     C6    7   0.143  -0.091  -0.175
    1UNL     C7    8   0.175  -0.050  -0.027
    1UNL     C8    9   0.050  -0.020   0.057
    1UNL     C9   10   0.056  -0.063   0.197
    1UNL     O1   11   0.076  -0.183   0.214
    1UNL     O2   12   0.035   0.029   0.303
    1UNL    C10   13   0.063  -0.050   0.421
    1UNL    C11   14  -0.083  -0.051  -0.023
    1UNL    C12   15  -0.199   0.032   0.040
    1UNL    C13   16  -0.211   0.157  -0.050
    1UNL     O3   17  -0.146   0.263   0.012
    1UNL    C14   18  -0.137   0.390  -0.058
    1UNL     O4   19  -0.169   0.120  -0.184
    1UNL    C15   20  -0.084   0.005  -0.173
    1UNL     N2   21  -0.156  -0.115  -0.237
    1UNL    C16   22  -0.173  -0.225  -0.162
    1UNL    C17   23  -0.223  -0.352  -0.196
    1UNL    C18   24  -0.252  -0.443  -0.095
    1UNL    C19   25  -0.219  -0.407   0.037
    1UNL    C20   26  -0.149  -0.291   0.075
    1UNL    C21   27  -0.125  -0.198  -0.027
    1UNL     H1   28   0.397   0.307   0.034
    1UNL     H2   29   0.523   0.183   0.070
    1UNL     H3   30   0.437   0.246   0.201
    1UNL     H4   31   0.311   0.053   0.169
    1UNL     H5   32   0.311   0.125  -0.225
    1UNL     H6   33   0.282   0.271  -0.142
    1UNL     H7   34   0.046   0.182  -0.115
    1UNL     H8   35   0.048   0.023  -0.338
    1UNL     H9   36   0.234  -0.085  -0.233
    1UNL    H10   37   0.089  -0.193  -0.190
    1UNL    H11   38   0.233  -0.124   0.026
    1UNL    H12   39   0.037   0.083   0.071
    1UNL    H13   40  -0.024  -0.113   0.437
    1UNL    H14   41   0.150  -0.116   0.391
    1UNL    H15   42   0.091   0.021   0.499
    1UNL    H16   43  -0.180   0.059   0.142
    1UNL    H17   44  -0.290  -0.026   0.053
    1UNL    H18   45  -0.321   0.180  -0.054
    1UNL    H19   46  -0.038   0.435  -0.051
    1UNL    H20   47  -0.151   0.361  -0.162
    1UNL    H21   48  -0.219   0.450  -0.021
    1UNL    H22   49  -0.220  -0.096  -0.314
    1UNL    H23   50  -0.238  -0.374  -0.300
    1UNL    H24   51  -0.286  -0.546  -0.121
    1UNL    H25   52  -0.231  -0.482   0.115
    1UNL    H26   53  -0.090  -0.286   0.162
   0.00000   0.00000   0.00000   0.00000   0.00000   0.00000   0.00000   0.00000   0.00000
Generated with MDTraj, t= 49.0
 53
    1UNL     C1    1   0.407   0.250   0.086
    1UNL     C2    2   0.353   0.109   0.074
    1UNL     C3    3   0.276   0.081  -0.027
    1UNL     C4    4   0.239   0.180  -0.135
    1UNL     N1    5   0.097   0.161  -0.192
    1UNL     C5    6   0.063   0.022  -0.226
    1UNL     C6    7   0.158  -0.087  -0.174
    1UNL     C7    8   0.192  -0.049  -0.024
    1UNL     C8    9   0.061  -0.021   0.057
    1UNL     C9   10   0.058  -0.089   0.192
    1UNL     O1   11   0.075  -0.209   0.195
    1UNL     O2   12   0.039  -0.009   0.297
    1UNL    C10   13   0.049  -0.084   0.420
    1UNL    C11   14  -0.090  -0.050  -0.012
    1UNL    C12   15  -0.192   0.053   0.046
    1UNL    C13   16  -0.209   0.163  -0.064
    1UNL     O3   17  -0.140   0.275  -0.013
    1UNL    C14   18  -0.154   0.395  -0.088
    1UNL     O4   19  -0.157   0.115  -0.191
    1UNL    C15   20  -0.077  -0.001  -0.166
    1UNL     N2   21  -0.150  -0.115  -0.237
    1UNL    C16   22  -0.181  -0.219  -0.144
    1UNL    C17   23  -0.230  -0.342  -0.177
    1UNL    C18   24  -0.242  -0.443  -0.085
    1UNL    C19   25  -0.225  -0.410   0.052
    1UNL    C20   26  -0.179  -0.285   0.084
    1UNL    C21   27  -0.144  -0.194  -0.013
    1UNL     H1   28   0.327   0.312   0.134
    1UNL     H2   29   0.424   0.293  -0.016
    1UNL     H3   30   0.505   0.250   0.131
    1UNL     H4   31   0.364   0.041   0.159
    1UNL     H5   32   0.315   0.195  -0.218
    1UNL     H6   33   0.246   0.280  -0.085
    1UNL     H7   34   0.031   0.214  -0.137
    1UNL     H8   35   0.057   0.022  -0.330
    1UNL     H9   36   0.248  -0.098  -0.240
    1UNL    H10   37   0.099  -0.178  -0.172
    1UNL    H11   38   0.253  -0.121   0.028
    1UNL    H12   39   0.054   0.083   0.067
    1UNL    H13   40   0.094  -0.183   0.396
    1UNL    H14   41   0.124  -0.027   0.486
    1UNL    H15   42  -0.053  -0.090   0.461
    1UNL    H16   43  -0.156   0.091   0.137
    1UNL    H17   44  -0.289   0.013   0.078
    1UNL    H18   45  -0.319   0.191  -0.081
    1UNL    H19   46  -0.131   0.485  -0.029
    1UNL    H20   47  -0.081   0.390  -0.170
    1UNL    H21   48  -0.254   0.400  -0.124
    1UNL    H22   49  -0.235  -0.068  -0.274
    1UNL    H23   50  -0.277  -0.356  -0.270
    1UNL    H24   51  -0.283  -0.536  -0.108
    1UNL    H25   52  -0.246  -0.479   0.133
    1UNL    H26   53  -0.165  -0.256   0.189
   0.00000   0.00000   0.00000   0.00000   0.00000   0.00000   0.00000   0.00000   0.00000
Generated with MDTraj, t= 50.0
 53
    1UNL     C1    1   0.444   0.223   0.082
    1UNL     C2    2   0.337   0.110   0.076
    1UNL     C3    3   0.249   0.099  -0.017
    1UNL     C4    4   0.223   0.210  -0.113
    1UNL     N1    5   0.105   0.176  -0.200
    1UNL     C5    6   0.058   0.036  -0.224
    1UNL     C6    7   0.153  -0.068  -0.166
    1UNL     C7    8   0.174  -0.030  -0.022
    1UNL     C8    9   0.052  -0.012   0.070
    1UNL     C9   10   0.064  -0.108   0.191
    1UNL     O1   11   0.117  -0.217   0.184
    1UNL     O2   12   0.023  -0.050   0.311
    1UNL    C10   13   0.041  -0.127   0.421
    1UNL    C11   14  -0.084  -0.036  -0.010
    1UNL    C12   15  -0.197   0.050   0.044
    1UNL    C13   16  -0.214   0.158  -0.066
    1UNL     O3   17  -0.133   0.271  -0.040
    1UNL    C14   18  -0.145   0.364  -0.143
    1UNL     O4   19  -0.183   0.107  -0.192
    1UNL    C15   20  -0.081   0.005  -0.170
    1UNL     N2   21  -0.141  -0.118  -0.232
    1UNL    C16   22  -0.171  -0.216  -0.138
    1UNL    C17   23  -0.244  -0.331  -0.169
    1UNL    C18   24  -0.265  -0.421  -0.064
    1UNL    C19   25  -0.207  -0.394   0.059
    1UNL    C20   26  -0.158  -0.268   0.094
    1UNL    C21   27  -0.125  -0.183  -0.015
    1UNL     H1   28   0.396   0.319   0.114
    1UNL     H2   29   0.488   0.247  -0.017
    1UNL     H3   30   0.532   0.196   0.138
    1UNL     H4   31   0.335   0.028   0.146
    1UNL     H5   32   0.322   0.225  -0.166
    1UNL     H6   33   0.212   0.309  -0.059
    1UNL     H7   34   0.019   0.210  -0.151
    1UNL     H8   35   0.058   0.015  -0.327
    1UNL     H9   36   0.254  -0.064  -0.222
    1UNL    H10   37   0.110  -0.162  -0.171
    1UNL    H11   38   0.236  -0.105   0.025
    1UNL    H12   39   0.043   0.088   0.106
    1UNL    H13   40   0.120  -0.075   0.480
    1UNL    H14   41  -0.054  -0.116   0.482
    1UNL    H15   42   0.066  -0.230   0.392
    1UNL    H16   43  -0.176   0.088   0.139
    1UNL    H17   44  -0.295   0.002   0.048
    1UNL    H18   45  -0.321   0.204  -0.078
    1UNL    H19   46  -0.051   0.417  -0.168
    1UNL    H20   47  -0.173   0.310  -0.237
    1UNL    H21   48  -0.219   0.435  -0.118
    1UNL    H22   49  -0.219  -0.089  -0.297
    1UNL    H23   50  -0.302  -0.345  -0.267
    1UNL    H24   51  -0.335  -0.508  -0.072
    1UNL    H25   52  -0.207  -0.474   0.130
    1UNL    H26   53  -0.150  -0.232   0.195
   0.00000   0.00000   0.00000   0.00000   0.00000   0.00000   0.00000   0.00000   0.00000
Generated with MDTraj, t= 51.0
 53
    1UNL     C1    1   0.458   0.234   0.077
    1UNL     C2    2   0.383   0.105   0.053
    1UNL     C3    3   0.275   0.090  -0.021
    1UNL     C4    4   0.222   0.198  -0.110
    1UNL     N1    5   0.091   0.168  -0.157
    1UNL     C5    6   0.052   0.042  -0.216
    1UNL     C6    7   0.148  -0.078  -0.163
    1UNL     C7    8   0.193  -0.035  -0.022
    1UNL     C8    9   0.058  -0.017   0.060
    1UNL     C9   10   0.074  -0.104   0.181
    1UNL     O1   11   0.162  -0.186   0.188
    1UNL     O2   12  -0.016  -0.083   0.280
    1UNL    C10   13   0.014  -0.156   0.397
    1UNL    C11   14  -0.084  -0.040  -0.015
    1UNL    C12   15  -0.188   0.062   0.045
    1UNL    C13   16  -0.212   0.169  -0.069
    1UNL     O3   17  -0.152   0.298  -0.042
    1UNL    C14   18  -0.176   0.388  -0.143
    1UNL     O4   19  -0.180   0.114  -0.193
    1UNL    C15   20  -0.089   0.001  -0.164
    1UNL     N2   21  -0.125  -0.128  -0.234
    1UNL    C16   22  -0.162  -0.225  -0.139
    1UNL    C17   23  -0.219  -0.349  -0.157
    1UNL    C18   24  -0.259  -0.427  -0.046
    1UNL    C19   25  -0.249  -0.377   0.080
    1UNL    C20   26  -0.191  -0.255   0.097
    1UNL    C21   27  -0.131  -0.183  -0.006
    1UNL     H1   28   0.399   0.318   0.035
    1UNL     H2   29   0.555   0.233   0.028
    1UNL     H3   30   0.485   0.248   0.183
    1UNL     H4   31   0.410   0.020   0.116
    1UNL     H5   32   0.283   0.204  -0.205
    1UNL     H6   33   0.236   0.297  -0.059
    1UNL     H7   34   0.011   0.212  -0.113
    1UNL     H8   35   0.054   0.040  -0.321
    1UNL     H9   36   0.242  -0.067  -0.228
    1UNL    H10   37   0.108  -0.173  -0.160
    1UNL    H11   38   0.255  -0.110   0.025
    1UNL    H12   39   0.042   0.087   0.092
    1UNL    H13   40  -0.063  -0.142   0.474
    1UNL    H14   41   0.018  -0.264   0.379
    1UNL    H15   42   0.107  -0.126   0.438
    1UNL    H16   43  -0.158   0.116   0.132
    1UNL    H17   44  -0.282   0.011   0.064
    1UNL    H18   45  -0.323   0.204  -0.080
    1UNL    H19   46  -0.155   0.495  -0.125
    1UNL    H20   47  -0.109   0.357  -0.229
    1UNL    H21   48  -0.276   0.382  -0.171
    1UNL    H22   49  -0.190  -0.110  -0.314
    1UNL    H23   50  -0.237  -0.388  -0.250
    1UNL    H24   51  -0.296  -0.523  -0.068
    1UNL    H25   52  -0.272  -0.433   0.171
    1UNL    H26   53  -0.175  -0.205   0.192
   0.00000   0.00000   0.00000   0.00000   0.00000   0.00000   0.00000   0.00000   0.00000
Generated with MDTraj, t= 52.0
 53
    1UNL     C1    1   0.476   0.208   0.060
    1UNL     C2    2   0.384   0.097   0.037
    1UNL     C3    3   0.269   0.101  -0.027
    1UNL     C4    4   0.201   0.214  -0.101
    1UNL     N1    5   0.090   0.181  -0.200
    1UNL     C5    6   0.059   0.041  -0.232
    1UNL     C6    7   0.155  -0.065  -0.175
    1UNL     C7    8   0.191  -0.035  -0.028
    1UNL     C8    9   0.062  -0.024   0.066
    1UNL     C9   10   0.073  -0.108   0.188
    1UNL     O1   11   0.165  -0.184   0.213
    1UNL     O2   12  -0.035  -0.093   0.275
    1UNL    C10   13  -0.033  -0.180   0.390
    1UNL    C11   14  -0.075  -0.033  -0.005
    1UNL    C12   15  -0.170   0.069   0.061
    1UNL    C13   16  -0.203   0.171  -0.058
    1UNL     O3   17  -0.144   0.304  -0.043
    1UNL    C14   18  -0.211   0.387  -0.138
    1UNL     O4   19  -0.170   0.104  -0.182
    1UNL    C15   20  -0.072  -0.005  -0.168
    1UNL     N2   21  -0.114  -0.133  -0.229
    1UNL    C16   22  -0.162  -0.227  -0.134
    1UNL    C17   23  -0.217  -0.352  -0.153
    1UNL    C18   24  -0.256  -0.423  -0.042
    1UNL    C19   25  -0.244  -0.364   0.084
    1UNL    C20   26  -0.179  -0.242   0.102
    1UNL    C21   27  -0.134  -0.175  -0.007
    1UNL     H1   28   0.440   0.304   0.022
    1UNL     H2   29   0.574   0.190   0.017
    1UNL     H3   30   0.502   0.216   0.169
    1UNL     H4   31   0.414   0.005   0.085
    1UNL     H5   32   0.284   0.277  -0.147
    1UNL     H6   33   0.154   0.289  -0.032
    1UNL     H7   34   0.006   0.219  -0.148
    1UNL     H8   35   0.058   0.033  -0.338
    1UNL     H9   36   0.248  -0.078  -0.238
    1UNL    H10   37   0.098  -0.153  -0.166
    1UNL    H11   38   0.257  -0.112   0.009
    1UNL    H12   39   0.053   0.086   0.093
    1UNL    H13   40  -0.066  -0.283   0.379
    1UNL    H14   41   0.068  -0.195   0.425
    1UNL    H15   42  -0.084  -0.139   0.471
    1UNL    H16   43  -0.120   0.122   0.142
    1UNL    H17   44  -0.254   0.015   0.100
    1UNL    H18   45  -0.315   0.192  -0.060
    1UNL    H19   46  -0.283   0.461  -0.100
    1UNL    H20   47  -0.132   0.445  -0.195
    1UNL    H21   48  -0.264   0.327  -0.204
    1UNL    H22   49  -0.127  -0.147  -0.333
    1UNL    H23   50  -0.230  -0.396  -0.257
    1UNL    H24   51  -0.305  -0.521  -0.042
    1UNL    H25   52  -0.271  -0.418   0.171
    1UNL    H26   53  -0.168  -0.200   0.200
   0.00000   0.00000   0.00000   0.00000   0.00000   0.00000   0.00000   0.00000   0.00000
Generated with MDTraj, t= 53.0
 53
    1UNL     C1    1   0.486   0.206   0.034
    1UNL     C2    2   0.383   0.099   0.047
    1UNL     C3    3   0.269   0.092  -0.017
    1UNL     C4    4   0.225   0.210  -0.091
    1UNL     N1    5   0.094   0.175  -0.160
    1UNL     C5    6   0.061   0.041  -0.215
    1UNL     C6    7   0.157  -0.061  -0.163
    1UNL     C7    8   0.184  -0.034  -0.018
    1UNL     C8    9   0.051  -0.018   0.070
    1UNL     C9   10   0.068  -0.103   0.193
    1UNL     O1   11   0.157  -0.186   0.191
    1UNL     O2   12  -0.021  -0.079   0.297
    1UNL    C10   13   0.016  -0.153   0.408
    1UNL    C11   14  -0.090  -0.034  -0.013
    1UNL    C12   15  -0.200   0.059   0.044
    1UNL    C13   16  -0.219   0.164  -0.067
    1UNL     O3   17  -0.163   0.291  -0.034
    1UNL    C14   18  -0.174   0.372  -0.154
    1UNL     O4   19  -0.180   0.111  -0.191
    1UNL    C15   20  -0.081   0.006  -0.167
    1UNL     N2   21  -0.121  -0.124  -0.234
    1UNL    C16   22  -0.172  -0.219  -0.144
    1UNL    C17   23  -0.230  -0.352  -0.167
    1UNL    C18   24  -0.263  -0.422  -0.051
    1UNL    C19   25  -0.232  -0.378   0.078
    1UNL    C20   26  -0.176  -0.253   0.094
    1UNL    C21   27  -0.144  -0.176  -0.013
    1UNL     H1   28   0.449   0.306   0.052
    1UNL     H2   29   0.530   0.210  -0.065
    1UNL     H3   30   0.576   0.186   0.101
    1UNL     H4   31   0.416   0.018   0.109
    1UNL     H5   32   0.295   0.251  -0.170
    1UNL     H6   33   0.223   0.299  -0.025
    1UNL     H7   34   0.013   0.215  -0.114
    1UNL     H8   35   0.065   0.053  -0.322
    1UNL     H9   36   0.251  -0.049  -0.220
    1UNL    H10   37   0.109  -0.158  -0.168
    1UNL    H11   38   0.239  -0.118   0.023
    1UNL    H12   39   0.036   0.090   0.109
    1UNL    H13   40   0.111  -0.208   0.399
    1UNL    H14   41   0.028  -0.098   0.501
    1UNL    H15   42  -0.060  -0.224   0.430
    1UNL    H16   43  -0.164   0.105   0.137
    1UNL    H17   44  -0.287   0.000   0.058
    1UNL    H18   45  -0.329   0.181  -0.077
    1UNL    H19   46  -0.260   0.361  -0.222
    1UNL    H20   47  -0.179   0.478  -0.113
    1UNL    H21   48  -0.085   0.364  -0.209
    1UNL    H22   49  -0.098  -0.132  -0.335
    1UNL    H23   50  -0.248  -0.381  -0.268
    1UNL    H24   51  -0.322  -0.510  -0.063
    1UNL    H25   52  -0.254  -0.448   0.161
    1UNL    H26   53  -0.142  -0.224   0.191
   0.00000   0.00000   0.00000   0.00000   0.00000   0.00000   0.00000   0.00000   0.00000
Generated with MDTraj, t= 54.0
 53
    1UNL     C1    1   0.478   0.204   0.054
    1UNL     C2    2   0.384   0.089   0.054
    1UNL     C3    3   0.273   0.081  -0.020
    1UNL     C4    4   0.230   0.191  -0.107
    1UNL     N1    5   0.105   0.175  -0.173
    1UNL     C5    6   0.053   0.041  -0.217
    1UNL     C6    7   0.147  -0.072  -0.170
    1UNL     C7    8   0.186  -0.042  -0.022
    1UNL     C8    9   0.050  -0.014   0.061
    1UNL     C9   10   0.055  -0.090   0.189
    1UNL     O1   11   0.106  -0.199   0.184
    1UNL     O2   12   0.008  -0.029   0.301
    1UNL    C10   13   0.023  -0.111   0.412
    1UNL    C11   14  -0.093  -0.038  -0.004
    1UNL    C12   15  -0.206   0.058   0.047
    1UNL    C13   16  -0.222   0.174  -0.057
    1UNL     O3   17  -0.141   0.290  -0.028
    1UNL    C14   18  -0.176   0.380  -0.129
    1UNL     O4   19  -0.186   0.116  -0.184
    1UNL    C15   20  -0.091   0.008  -0.161
    1UNL     N2   21  -0.130  -0.121  -0.238
    1UNL    C16   22  -0.161  -0.223  -0.148
    1UNL    C17   23  -0.217  -0.352  -0.170
    1UNL    C18   24  -0.245  -0.436  -0.067
    1UNL    C19   25  -0.221  -0.404   0.066
    1UNL    C20   26  -0.166  -0.278   0.089
    1UNL    C21   27  -0.143  -0.184  -0.011
    1UNL     H1   28   0.515   0.225   0.153
    1UNL     H2   29   0.431   0.300   0.023
    1UNL     H3   30   0.563   0.186  -0.014
    1UNL     H4   31   0.424   0.001   0.102
    1UNL     H5   32   0.314   0.219  -0.177
    1UNL     H6   33   0.228   0.290  -0.056
    1UNL     H7   34   0.023   0.219  -0.120
    1UNL     H8   35   0.050   0.047  -0.325
    1UNL     H9   36   0.236  -0.064  -0.230
    1UNL    H10   37   0.087  -0.165  -0.178
    1UNL    H11   38   0.235  -0.123   0.031
    1UNL    H12   39   0.037   0.099   0.095
    1UNL    H13   40   0.090  -0.075   0.497
    1UNL    H14   41  -0.074  -0.131   0.462
    1UNL    H15   42   0.057  -0.210   0.379
    1UNL    H16   43  -0.179   0.100   0.146
    1UNL    H17   44  -0.294   0.000   0.055
    1UNL    H18   45  -0.326   0.203  -0.067
    1UNL    H19   46  -0.236   0.342  -0.213
    1UNL    H20   47  -0.240   0.461  -0.080
    1UNL    H21   48  -0.084   0.417  -0.166
    1UNL    H22   49  -0.212  -0.091  -0.296
    1UNL    H23   50  -0.242  -0.371  -0.272
    1UNL    H24   51  -0.288  -0.533  -0.095
    1UNL    H25   52  -0.241  -0.465   0.149
    1UNL    H26   53  -0.144  -0.260   0.194
   0.00000   0.00000   0.00000   0.00000   0.00000   0.00000   0.00000   0.00000   0.00000
Generated with MDTraj, t= 55.0
 53
    1UNL     C1    1   0.445   0.191   0.080
    1UNL     C2    2   0.352   0.077   0.065
    1UNL     C3    3   0.260   0.066  -0.033
    1UNL     C4    4   0.223   0.176  -0.126
    1UNL     N1    5   0.102   0.168  -0.207
    1UNL     C5    6   0.052   0.031  -0.243
    1UNL     C6    7   0.137  -0.084  -0.186
    1UNL     C7    8   0.168  -0.059  -0.036
    1UNL     C8    9   0.044  -0.026   0.052
    1UNL     C9   10   0.056  -0.090   0.194
    1UNL     O1   11   0.075  -0.207   0.219
    1UNL     O2   12   0.034   0.001   0.295
    1UNL    C10   13   0.021  -0.053   0.420
    1UNL    C11   14  -0.096  -0.040  -0.015
    1UNL    C12   15  -0.200   0.054   0.047
    1UNL    C13   16  -0.210   0.173  -0.049
    1UNL     O3   17  -0.139   0.288  -0.004
    1UNL    C14   18  -0.164   0.407  -0.077
    1UNL     O4   19  -0.163   0.127  -0.175
    1UNL    C15   20  -0.089   0.001  -0.175
    1UNL     N2   21  -0.151  -0.118  -0.237
    1UNL    C16   22  -0.161  -0.229  -0.152
    1UNL    C17   23  -0.208  -0.356  -0.182
    1UNL    C18   24  -0.217  -0.442  -0.076
    1UNL    C19   25  -0.181  -0.403   0.054
    1UNL    C20   26  -0.150  -0.267   0.088
    1UNL    C21   27  -0.141  -0.184  -0.017
    1UNL     H1   28   0.540   0.176   0.030
    1UNL     H2   29   0.472   0.203   0.188
    1UNL     H3   30   0.404   0.285   0.044
    1UNL     H4   31   0.372  -0.011   0.121
    1UNL     H5   32   0.306   0.200  -0.197
    1UNL     H6   33   0.229   0.269  -0.071
    1UNL     H7   34   0.029   0.206  -0.143
    1UNL     H8   35   0.043   0.024  -0.351
    1UNL     H9   36   0.219  -0.094  -0.248
    1UNL    H10   37   0.069  -0.176  -0.190
    1UNL    H11   38   0.224  -0.138   0.015
    1UNL    H12   39   0.046   0.091   0.072
    1UNL    H13   40  -0.081  -0.022   0.461
    1UNL    H14   41   0.024  -0.163   0.415
    1UNL    H15   42   0.109  -0.020   0.479
    1UNL    H16   43  -0.170   0.095   0.145
    1UNL    H17   44  -0.284  -0.011   0.062
    1UNL    H18   45  -0.310   0.204  -0.066
    1UNL    H19   46  -0.090   0.425  -0.154
    1UNL    H20   47  -0.267   0.400  -0.126
    1UNL    H21   48  -0.154   0.483  -0.003
    1UNL    H22   49  -0.187  -0.116  -0.338
    1UNL    H23   50  -0.241  -0.381  -0.286
    1UNL    H24   51  -0.249  -0.544  -0.087
    1UNL    H25   52  -0.176  -0.483   0.133
    1UNL    H26   53  -0.141  -0.238   0.191
   0.00000   0.00000   0.00000   0.00000   0.00000   0.00000   0.00000   0.00000   0.00000
Generated with MDTraj, t= 56.0
 53
    1UNL     C1    1   0.447   0.198   0.097
    1UNL     C2    2   0.358   0.078   0.074
    1UNL     C3    3   0.267   0.058  -0.025
    1UNL     C4    4   0.239   0.156  -0.138
    1UNL     N1    5   0.093   0.144  -0.179
    1UNL     C5    6   0.041   0.015  -0.225
    1UNL     C6    7   0.131  -0.097  -0.165
    1UNL     C7    8   0.163  -0.057  -0.021
    1UNL     C8    9   0.038  -0.008   0.050
    1UNL     C9   10   0.052  -0.046   0.195
    1UNL     O1   11   0.095  -0.157   0.220
    1UNL     O2   12   0.010   0.038   0.292
    1UNL    C10   13   0.053  -0.016   0.411
    1UNL    C11   14  -0.097  -0.048  -0.019
    1UNL    C12   15  -0.210   0.038   0.041
    1UNL    C13   16  -0.215   0.163  -0.040
    1UNL     O3   17  -0.118   0.258   0.012
    1UNL    C14   18  -0.124   0.373  -0.073
    1UNL     O4   19  -0.184   0.128  -0.174
    1UNL    C15   20  -0.104   0.004  -0.163
    1UNL     N2   21  -0.168  -0.101  -0.240
    1UNL    C16   22  -0.185  -0.217  -0.163
    1UNL    C17   23  -0.241  -0.345  -0.198
    1UNL    C18   24  -0.218  -0.447  -0.100
    1UNL    C19   25  -0.172  -0.426   0.028
    1UNL    C20   26  -0.135  -0.297   0.059
    1UNL    C21   27  -0.129  -0.196  -0.033
    1UNL     H1   28   0.405   0.291   0.056
    1UNL     H2   29   0.546   0.181   0.051
    1UNL     H3   30   0.457   0.215   0.202
    1UNL     H4   31   0.369  -0.011   0.136
    1UNL     H5   32   0.314   0.142  -0.218
    1UNL     H6   33   0.264   0.258  -0.111
    1UNL     H7   34   0.034   0.195  -0.112
    1UNL     H8   35   0.038   0.005  -0.334
    1UNL     H9   36   0.214  -0.101  -0.225
    1UNL    H10   37   0.080  -0.199  -0.174
    1UNL    H11   38   0.214  -0.137   0.034
    1UNL    H12   39   0.033   0.110   0.043
    1UNL    H13   40   0.062  -0.127   0.399
    1UNL    H14   41   0.147   0.032   0.433
    1UNL    H15   42  -0.022   0.022   0.484
    1UNL    H16   43  -0.189   0.059   0.145
    1UNL    H17   44  -0.301  -0.020   0.040
    1UNL    H18   45  -0.307   0.212  -0.040
    1UNL    H19   46  -0.036   0.378  -0.136
    1UNL    H20   47  -0.211   0.360  -0.144
    1UNL    H21   48  -0.125   0.461  -0.012
    1UNL    H22   49  -0.223  -0.070  -0.326
    1UNL    H23   50  -0.270  -0.361  -0.294
    1UNL    H24   51  -0.232  -0.547  -0.139
    1UNL    H25   52  -0.181  -0.500   0.101
    1UNL    H26   53  -0.105  -0.272   0.158
   0.00000   0.00000   0.00000   0.00000   0.00000   0.00000   0.00000   0.00000   0.00000
Generated with MDTraj, t= 57.0
 53
    1UNL     C1    1   0.448   0.191   0.070
    1UNL     C2    2   0.350   0.079   0.066
    1UNL     C3    3   0.259   0.061  -0.029
    1UNL     C4    4   0.221   0.166  -0.135
    1UNL     N1    5   0.091   0.144  -0.193
    1UNL     C5    6   0.045   0.012  -0.227
    1UNL     C6    7   0.136  -0.101  -0.167
    1UNL     C7    8   0.175  -0.062  -0.020
    1UNL     C8    9   0.048  -0.023   0.053
    1UNL     C9   10   0.043  -0.062   0.202
    1UNL     O1   11   0.085  -0.164   0.251
    1UNL     O2   12  -0.006   0.043   0.279
    1UNL    C10   13   0.031   0.017   0.417
    1UNL    C11   14  -0.089  -0.055  -0.016
    1UNL    C12   15  -0.199   0.032   0.042
    1UNL    C13   16  -0.197   0.167  -0.034
    1UNL     O3   17  -0.110   0.270   0.020
    1UNL    C14   18  -0.120   0.388  -0.055
    1UNL     O4   19  -0.172   0.129  -0.169
    1UNL    C15   20  -0.098  -0.002  -0.167
    1UNL     N2   21  -0.178  -0.103  -0.235
    1UNL    C16   22  -0.194  -0.218  -0.153
    1UNL    C17   23  -0.248  -0.338  -0.195
    1UNL    C18   24  -0.226  -0.444  -0.112
    1UNL    C19   25  -0.158  -0.435   0.010
    1UNL    C20   26  -0.118  -0.311   0.050
    1UNL    C21   27  -0.133  -0.197  -0.029
    1UNL     H1   28   0.461   0.228   0.174
    1UNL     H2   29   0.412   0.274   0.007
    1UNL     H3   30   0.543   0.158   0.035
    1UNL     H4   31   0.349  -0.008   0.129
    1UNL     H5   32   0.293   0.169  -0.217
    1UNL     H6   33   0.234   0.264  -0.093
    1UNL     H7   34   0.025   0.201  -0.132
    1UNL     H8   35   0.048  -0.001  -0.337
    1UNL     H9   36   0.224  -0.105  -0.228
    1UNL    H10   37   0.091  -0.201  -0.194
    1UNL    H11   38   0.228  -0.145   0.028
    1UNL    H12   39   0.041   0.095   0.051
    1UNL    H13   40   0.124  -0.038   0.407
    1UNL    H14   41   0.041   0.110   0.465
    1UNL    H15   42  -0.052  -0.035   0.465
    1UNL    H16   43  -0.184   0.031   0.146
    1UNL    H17   44  -0.300  -0.011   0.025
    1UNL    H18   45  -0.287   0.219  -0.035
    1UNL    H19   46  -0.018   0.425  -0.062
    1UNL    H20   47  -0.155   0.369  -0.160
    1UNL    H21   48  -0.178   0.464  -0.005
    1UNL    H22   49  -0.182  -0.103  -0.342
    1UNL    H23   50  -0.271  -0.352  -0.305
    1UNL    H24   51  -0.257  -0.542  -0.145
    1UNL    H25   52  -0.153  -0.519   0.082
    1UNL    H26   53  -0.073  -0.300   0.147
   0.00000   0.00000   0.00000   0.00000   0.00000   0.00000   0.00000   0.00000   0.00000
Generated with MDTraj, t= 58.0
 53
    1UNL     C1    1   0.462   0.174   0.050
    1UNL     C2    2   0.355   0.067   0.050
    1UNL     C3    3   0.263   0.052  -0.046
    1UNL     C4    4   0.238   0.153  -0.150
    1UNL     N1    5   0.098   0.156  -0.191
    1UNL     C5    6   0.050   0.023  -0.233
    1UNL     C6    7   0.131  -0.097  -0.178
    1UNL     C7    8   0.166  -0.055  -0.031
    1UNL     C8    9   0.042  -0.012   0.055
    1UNL     C9   10   0.041  -0.054   0.201
    1UNL     O1   11   0.062  -0.169   0.231
    1UNL     O2   12   0.022   0.040   0.296
    1UNL    C10   13  -0.015  -0.024   0.418
    1UNL    C11   14  -0.099  -0.039  -0.014
    1UNL    C12   15  -0.216   0.037   0.047
    1UNL    C13   16  -0.219   0.166  -0.043
    1UNL     O3   17  -0.136   0.265   0.017
    1UNL    C14   18  -0.122   0.395  -0.034
    1UNL     O4   19  -0.164   0.130  -0.172
    1UNL    C15   20  -0.094   0.001  -0.168
    1UNL     N2   21  -0.168  -0.106  -0.236
    1UNL    C16   22  -0.166  -0.221  -0.151
    1UNL    C17   23  -0.214  -0.346  -0.187
    1UNL    C18   24  -0.204  -0.450  -0.096
    1UNL    C19   25  -0.163  -0.415   0.034
    1UNL    C20   26  -0.124  -0.290   0.072
    1UNL    C21   27  -0.126  -0.184  -0.019
    1UNL     H1   28   0.560   0.129   0.029
    1UNL     H2   29   0.468   0.219   0.147
    1UNL     H3   30   0.450   0.256  -0.021
    1UNL     H4   31   0.345  -0.015   0.123
    1UNL     H5   32   0.310   0.137  -0.231
    1UNL     H6   33   0.271   0.249  -0.117
    1UNL     H7   34   0.035   0.187  -0.120
    1UNL     H8   35   0.049   0.017  -0.344
    1UNL     H9   36   0.213  -0.118  -0.252
    1UNL    H10   37   0.072  -0.188  -0.188
    1UNL    H11   38   0.217  -0.136   0.024
    1UNL    H12   39   0.051   0.102   0.066
    1UNL    H13   40   0.042   0.031   0.492
    1UNL    H14   41  -0.120  -0.007   0.421
    1UNL    H15   42  -0.000  -0.132   0.416
    1UNL    H16   43  -0.195   0.060   0.148
    1UNL    H17   44  -0.307  -0.027   0.038
    1UNL    H18   45  -0.312   0.214  -0.046
    1UNL    H19   46  -0.085   0.458   0.046
    1UNL    H20   47  -0.053   0.400  -0.118
    1UNL    H21   48  -0.216   0.438  -0.070
    1UNL    H22   49  -0.181  -0.107  -0.341
    1UNL    H23   50  -0.237  -0.364  -0.288
    1UNL    H24   51  -0.229  -0.553  -0.118
    1UNL    H25   52  -0.190  -0.489   0.105
    1UNL    H26   53  -0.110  -0.268   0.178
   0.00000   0.00000   0.00000   0.00000   0.00000   0.00000   0.00000   0.00000   0.00000
Generated with MDTraj, t= 59.0
 53
    1UNL     C1    1   0.494   0.164   0.033
    1UNL     C2    2   0.387   0.056   0.046
    1UNL     C3    3   0.272   0.061  -0.027
    1UNL     C4    4   0.236   0.173  -0.117
    1UNL     N1    5   0.099   0.156  -0.179
    1UNL     C5    6   0.046   0.025  -0.213
    1UNL     C6    7   0.139  -0.086  -0.164
    1UNL     C7    8   0.176  -0.053  -0.018
    1UNL     C8    9   0.040  -0.012   0.054
    1UNL     C9   10   0.038  -0.059   0.196
    1UNL     O1   11   0.095  -0.168   0.212
    1UNL     O2   12  -0.035   0.014   0.291
    1UNL    C10   13   0.013  -0.043   0.415
    1UNL    C11   14  -0.104  -0.036  -0.003
    1UNL    C12   15  -0.208   0.055   0.053
    1UNL    C13   16  -0.211   0.169  -0.048
    1UNL     O3   17  -0.128   0.271  -0.007
    1UNL    C14   18  -0.150   0.385  -0.086
    1UNL     O4   19  -0.177   0.123  -0.176
    1UNL    C15   20  -0.103   0.006  -0.156
    1UNL     N2   21  -0.162  -0.102  -0.228
    1UNL    C16   22  -0.171  -0.217  -0.150
    1UNL    C17   23  -0.206  -0.347  -0.188
    1UNL    C18   24  -0.206  -0.449  -0.093
    1UNL    C19   25  -0.176  -0.417   0.037
    1UNL    C20   26  -0.152  -0.288   0.076
    1UNL    C21   27  -0.153  -0.181  -0.016
    1UNL     H1   28   0.492   0.215  -0.063
    1UNL     H2   29   0.589   0.119   0.047
    1UNL     H3   30   0.484   0.241   0.114
    1UNL     H4   31   0.400  -0.023   0.117
    1UNL     H5   32   0.304   0.187  -0.200
    1UNL     H6   33   0.255   0.267  -0.068
    1UNL     H7   34   0.020   0.212  -0.131
    1UNL     H8   35   0.041   0.024  -0.325
    1UNL     H9   36   0.226  -0.097  -0.240
    1UNL    H10   37   0.084  -0.174  -0.171
    1UNL    H11   38   0.230  -0.128   0.045
    1UNL    H12   39   0.049   0.100   0.060
    1UNL    H13   40  -0.066  -0.034   0.491
    1UNL    H14   41   0.022  -0.147   0.390
    1UNL    H15   42   0.114  -0.003   0.444
    1UNL    H16   43  -0.165   0.095   0.142
    1UNL    H17   44  -0.305   0.003   0.065
    1UNL    H18   45  -0.312   0.204  -0.047
    1UNL    H19   46  -0.065   0.452  -0.095
    1UNL    H20   47  -0.187   0.359  -0.184
    1UNL    H21   48  -0.238   0.436  -0.043
    1UNL    H22   49  -0.178  -0.087  -0.329
    1UNL    H23   50  -0.216  -0.367  -0.292
    1UNL    H24   51  -0.207  -0.547  -0.138
    1UNL    H25   52  -0.190  -0.498   0.109
    1UNL    H26   53  -0.135  -0.262   0.179
   0.00000   0.00000   0.00000   0.00000   0.00000   0.00000   0.00000   0.00000   0.00000
Generated with MDTraj, t= 60.0
 53
    1UNL     C1    1   0.493   0.151   0.032
    1UNL     C2    2   0.384   0.050   0.037
    1UNL     C3    3   0.262   0.065  -0.020
    1UNL     C4    4   0.208   0.187  -0.077
    1UNL     N1    5   0.096   0.166  -0.172
    1UNL     C5    6   0.057   0.037  -0.234
    1UNL     C6    7   0.142  -0.072  -0.181
    1UNL     C7    8   0.170  -0.053  -0.023
    1UNL     C8    9   0.048  -0.024   0.066
    1UNL     C9   10   0.059  -0.079   0.208
    1UNL     O1   11   0.143  -0.161   0.238
    1UNL     O2   12  -0.032  -0.031   0.296
    1UNL    C10   13  -0.004  -0.077   0.422
    1UNL    C11   14  -0.090  -0.034  -0.015
    1UNL    C12   15  -0.193   0.057   0.039
    1UNL    C13   16  -0.219   0.171  -0.062
    1UNL     O3   17  -0.152   0.290  -0.018
    1UNL    C14   18  -0.157   0.377  -0.125
    1UNL     O4   19  -0.178   0.123  -0.193
    1UNL    C15   20  -0.089   0.009  -0.171
    1UNL     N2   21  -0.151  -0.105  -0.235
    1UNL    C16   22  -0.167  -0.217  -0.146
    1UNL    C17   23  -0.228  -0.338  -0.173
    1UNL    C18   24  -0.241  -0.426  -0.068
    1UNL    C19   25  -0.192  -0.400   0.055
    1UNL    C20   26  -0.131  -0.275   0.078
    1UNL    C21   27  -0.138  -0.175  -0.018
    1UNL     H1   28   0.459   0.253   0.051
    1UNL     H2   29   0.543   0.150  -0.062
    1UNL     H3   30   0.571   0.132   0.109
    1UNL     H4   31   0.407  -0.042   0.094
    1UNL     H5   32   0.285   0.251  -0.117
    1UNL     H6   33   0.173   0.259  -0.006
    1UNL     H7   34   0.014   0.197  -0.123
    1UNL     H8   35   0.049   0.056  -0.346
    1UNL     H9   36   0.246  -0.049  -0.230
    1UNL    H10   37   0.108  -0.164  -0.219
    1UNL    H11   38   0.219  -0.142   0.024
    1UNL    H12   39   0.048   0.082   0.090
    1UNL    H13   40  -0.105  -0.106   0.461
    1UNL    H14   41   0.054  -0.170   0.417
    1UNL    H15   42   0.051   0.005   0.480
    1UNL    H16   43  -0.155   0.092   0.135
    1UNL    H17   44  -0.283  -0.002   0.047
    1UNL    H18   45  -0.327   0.177  -0.070
    1UNL    H19   46  -0.091   0.466  -0.115
    1UNL    H20   47  -0.131   0.325  -0.217
    1UNL    H21   48  -0.264   0.394  -0.149
    1UNL    H22   49  -0.231  -0.087  -0.294
    1UNL    H23   50  -0.244  -0.374  -0.280
    1UNL    H24   51  -0.269  -0.529  -0.094
    1UNL    H25   52  -0.198  -0.472   0.132
    1UNL    H26   53  -0.099  -0.251   0.178
   0.00000   0.00000   0.00000   0.00000   0.00000   0.00000   0.00000   0.00000   0.00000
Generated with MDTraj, t= 61.0
 53
    1UNL     C1    1   0.506   0.177   0.057
    1UNL     C2    2   0.409   0.067   0.031
    1UNL     C3    3   0.286   0.079  -0.028
    1UNL     C4    4   0.243   0.185  -0.119
    1UNL     N1    5   0.097   0.179  -0.164
    1UNL     C5    6   0.054   0.046  -0.223
    1UNL     C6    7   0.147  -0.065  -0.180
    1UNL     C7    8   0.193  -0.046  -0.031
    1UNL     C8    9   0.063  -0.015   0.056
    1UNL     C9   10   0.061  -0.088   0.192
    1UNL     O1   11   0.154  -0.154   0.235
    1UNL     O2   12  -0.046  -0.063   0.278
    1UNL    C10   13  -0.039  -0.135   0.396
    1UNL    C11   14  -0.087  -0.033  -0.011
    1UNL    C12   15  -0.188   0.061   0.048
    1UNL    C13   16  -0.218   0.169  -0.061
    1UNL     O3   17  -0.160   0.290  -0.036
    1UNL    C14   18  -0.189   0.392  -0.127
    1UNL     O4   19  -0.181   0.114  -0.187
    1UNL    C15   20  -0.087   0.008  -0.168
    1UNL     N2   21  -0.139  -0.119  -0.228
    1UNL    C16   22  -0.163  -0.226  -0.137
    1UNL    C17   23  -0.228  -0.345  -0.161
    1UNL    C18   24  -0.260  -0.423  -0.052
    1UNL    C19   25  -0.232  -0.380   0.075
    1UNL    C20   26  -0.157  -0.268   0.100
    1UNL    C21   27  -0.131  -0.183  -0.004
    1UNL     H1   28   0.510   0.209   0.159
    1UNL     H2   29   0.496   0.268  -0.004
    1UNL     H3   30   0.608   0.147   0.036
    1UNL     H4   31   0.432  -0.024   0.082
    1UNL     H5   32   0.298   0.197  -0.213
    1UNL     H6   33   0.274   0.279  -0.079
    1UNL     H7   34   0.015   0.222  -0.105
    1UNL     H8   35   0.061   0.060  -0.336
    1UNL     H9   36   0.242  -0.061  -0.242
    1UNL    H10   37   0.100  -0.160  -0.199
    1UNL    H11   38   0.237  -0.138   0.014
    1UNL    H12   39   0.069   0.087   0.071
    1UNL    H13   40  -0.121  -0.108   0.465
    1UNL    H14   41  -0.059  -0.241   0.381
    1UNL    H15   42   0.067  -0.122   0.434
    1UNL    H16   43  -0.142   0.105   0.138
    1UNL    H17   44  -0.280   0.014   0.071
    1UNL    H18   45  -0.327   0.184  -0.075
    1UNL    H19   46  -0.119   0.474  -0.097
    1UNL    H20   47  -0.167   0.357  -0.226
    1UNL    H21   48  -0.298   0.408  -0.127
    1UNL    H22   49  -0.160  -0.120  -0.324
    1UNL    H23   50  -0.240  -0.371  -0.259
    1UNL    H24   51  -0.302  -0.520  -0.069
    1UNL    H25   52  -0.291  -0.430   0.153
    1UNL    H26   53  -0.144  -0.240   0.202
   0.00000   0.00000   0.00000   0.00000   0.00000   0.00000   0.00000   0.00000   0.00000
Generated with MDTraj, t= 62.0
 53
    1UNL     C1    1   0.471   0.208   0.050
    1UNL     C2    2   0.375   0.095   0.059
    1UNL     C3    3   0.270   0.080  -0.025
    1UNL     C4    4   0.228   0.188  -0.111
    1UNL     N1    5   0.106   0.162  -0.196
    1UNL     C5    6   0.060   0.024  -0.217
    1UNL     C6    7   0.157  -0.079  -0.169
    1UNL     C7    8   0.189  -0.042  -0.025
    1UNL     C8    9   0.058  -0.012   0.063
    1UNL     C9   10   0.067  -0.090   0.188
    1UNL     O1   11   0.164  -0.155   0.218
    1UNL     O2   12  -0.035  -0.087   0.280
    1UNL    C10   13  -0.001  -0.151   0.398
    1UNL    C11   14  -0.086  -0.035  -0.005
    1UNL    C12   15  -0.184   0.061   0.050
    1UNL    C13   16  -0.203   0.174  -0.058
    1UNL     O3   17  -0.126   0.288  -0.041
    1UNL    C14   18  -0.172   0.392  -0.128
    1UNL     O4   19  -0.171   0.113  -0.184
    1UNL    C15   20  -0.084  -0.001  -0.160
    1UNL     N2   21  -0.142  -0.116  -0.233
    1UNL    C16   22  -0.165  -0.217  -0.139
    1UNL    C17   23  -0.219  -0.347  -0.163
    1UNL    C18   24  -0.266  -0.421  -0.058
    1UNL    C19   25  -0.262  -0.372   0.072
    1UNL    C20   26  -0.197  -0.255   0.098
    1UNL    C21   27  -0.148  -0.176  -0.004
    1UNL     H1   28   0.544   0.209   0.128
    1UNL     H2   29   0.421   0.309   0.047
    1UNL     H3   30   0.527   0.198  -0.041
    1UNL     H4   31   0.400   0.021   0.136
    1UNL     H5   32   0.313   0.212  -0.175
    1UNL     H6   33   0.216   0.287  -0.071
    1UNL     H7   34   0.025   0.215  -0.172
    1UNL     H8   35   0.062   0.008  -0.332
    1UNL     H9   36   0.252  -0.085  -0.224
    1UNL    H10   37   0.106  -0.181  -0.166
    1UNL    H11   38   0.250  -0.122   0.025
    1UNL    H12   39   0.064   0.088   0.081
    1UNL    H13   40  -0.081  -0.142   0.469
    1UNL    H14   41   0.020  -0.256   0.393
    1UNL    H15   42   0.091  -0.100   0.433
    1UNL    H16   43  -0.155   0.103   0.148
    1UNL    H17   44  -0.273   0.009   0.067
    1UNL    H18   45  -0.310   0.216  -0.064
    1UNL    H19   46  -0.095   0.473  -0.126
    1UNL    H20   47  -0.182   0.349  -0.224
    1UNL    H21   48  -0.277   0.417  -0.101
    1UNL    H22   49  -0.128  -0.138  -0.328
    1UNL    H23   50  -0.200  -0.393  -0.262
    1UNL    H24   51  -0.307  -0.519  -0.078
    1UNL    H25   52  -0.320  -0.418   0.149
    1UNL    H26   53  -0.198  -0.219   0.199
   0.00000   0.00000   0.00000   0.00000   0.00000   0.00000   0.00000   0.00000   0.00000
Generated with MDTraj, t= 63.0
 53
    1UNL     C1    1   0.436   0.231   0.074
    1UNL     C2    2   0.350   0.112   0.071
    1UNL     C3    3   0.263   0.090  -0.026
    1UNL     C4    4   0.228   0.192  -0.123
    1UNL     N1    5   0.105   0.160  -0.193
    1UNL     C5    6   0.058   0.027  -0.229
    1UNL     C6    7   0.159  -0.080  -0.173
    1UNL     C7    8   0.184  -0.038  -0.024
    1UNL     C8    9   0.050  -0.017   0.067
    1UNL     C9   10   0.067  -0.103   0.193
    1UNL     O1   11   0.155  -0.187   0.198
    1UNL     O2   12  -0.024  -0.079   0.293
    1UNL    C10   13   0.010  -0.151   0.408
    1UNL    C11   14  -0.086  -0.032  -0.014
    1UNL    C12   15  -0.196   0.059   0.033
    1UNL    C13   16  -0.206   0.171  -0.071
    1UNL     O3   17  -0.118   0.278  -0.031
    1UNL    C14   18  -0.112   0.378  -0.135
    1UNL     O4   19  -0.172   0.107  -0.192
    1UNL    C15   20  -0.083  -0.005  -0.167
    1UNL     N2   21  -0.147  -0.118  -0.232
    1UNL    C16   22  -0.178  -0.215  -0.136
    1UNL    C17   23  -0.260  -0.332  -0.155
    1UNL    C18   24  -0.275  -0.408  -0.048
    1UNL    C19   25  -0.225  -0.377   0.078
    1UNL    C20   26  -0.162  -0.254   0.096
    1UNL    C21   27  -0.135  -0.175  -0.013
    1UNL     H1   28   0.536   0.212   0.037
    1UNL     H2   29   0.437   0.281   0.172
    1UNL     H3   30   0.395   0.302   0.005
    1UNL     H4   31   0.348   0.043   0.152
    1UNL     H5   32   0.304   0.234  -0.191
    1UNL     H6   33   0.216   0.281  -0.062
    1UNL     H7   34   0.033   0.188  -0.118
    1UNL     H8   35   0.053   0.016  -0.343
    1UNL     H9   36   0.252  -0.069  -0.226
    1UNL    H10   37   0.126  -0.193  -0.173
    1UNL    H11   38   0.244  -0.121   0.023
    1UNL    H12   39   0.046   0.079   0.100
    1UNL    H13   40  -0.070  -0.186   0.469
    1UNL    H14   41   0.072  -0.237   0.397
    1UNL    H15   42   0.073  -0.081   0.465
    1UNL    H16   43  -0.163   0.099   0.130
    1UNL    H17   44  -0.290   0.017   0.047
    1UNL    H18   45  -0.308   0.223  -0.085
    1UNL    H19   46  -0.045   0.461  -0.105
    1UNL    H20   47  -0.065   0.329  -0.214
    1UNL    H21   48  -0.214   0.402  -0.173
    1UNL    H22   49  -0.214  -0.095  -0.299
    1UNL    H23   50  -0.278  -0.360  -0.259
    1UNL    H24   51  -0.331  -0.500  -0.052
    1UNL    H25   52  -0.259  -0.431   0.166
    1UNL    H26   53  -0.152  -0.208   0.193
   0.00000   0.00000   0.00000   0.00000   0.00000   0.00000   0.00000   0.00000   0.00000
Generated with MDTraj, t= 64.0
 53
    1UNL     C1    1   0.414   0.254   0.106
    1UNL     C2    2   0.349   0.124   0.073
    1UNL     C3    3   0.286   0.081  -0.034
    1UNL     C4    4   0.246   0.174  -0.156
    1UNL     N1    5   0.108   0.156  -0.202
    1UNL     C5    6   0.061   0.021  -0.236
    1UNL     C6    7   0.156  -0.085  -0.176
    1UNL     C7    8   0.198  -0.048  -0.033
    1UNL     C8    9   0.061  -0.029   0.058
    1UNL     C9   10   0.066  -0.098   0.190
    1UNL     O1   11   0.127  -0.202   0.192
    1UNL     O2   12  -0.007  -0.041   0.293
    1UNL    C10   13  -0.009  -0.128   0.406
    1UNL    C11   14  -0.081  -0.041  -0.008
    1UNL    C12   15  -0.177   0.062   0.048
    1UNL    C13   16  -0.200   0.179  -0.060
    1UNL     O3   17  -0.116   0.289  -0.033
    1UNL    C14   18  -0.142   0.399  -0.115
    1UNL     O4   19  -0.163   0.120  -0.180
    1UNL    C15   20  -0.080  -0.003  -0.167
    1UNL     N2   21  -0.140  -0.121  -0.228
    1UNL    C16   22  -0.183  -0.220  -0.135
    1UNL    C17   23  -0.262  -0.336  -0.155
    1UNL    C18   24  -0.281  -0.426  -0.055
    1UNL    C19   25  -0.225  -0.400   0.069
    1UNL    C20   26  -0.165  -0.276   0.094
    1UNL    C21   27  -0.143  -0.186  -0.002
    1UNL     H1   28   0.446   0.308   0.014
    1UNL     H2   29   0.496   0.249   0.174
    1UNL     H3   30   0.340   0.319   0.151
    1UNL     H4   31   0.341   0.047   0.153
    1UNL     H5   32   0.315   0.130  -0.231
    1UNL     H6   33   0.281   0.277  -0.162
    1UNL     H7   34   0.039   0.200  -0.145
    1UNL     H8   35   0.047  -0.005  -0.348
    1UNL     H9   36   0.247  -0.080  -0.231
    1UNL    H10   37   0.106  -0.192  -0.177
    1UNL    H11   38   0.257  -0.136   0.003
    1UNL    H12   39   0.061   0.073   0.076
    1UNL    H13   40  -0.051  -0.087   0.496
    1UNL    H14   41  -0.057  -0.223   0.394
    1UNL    H15   42   0.098  -0.151   0.431
    1UNL    H16   43  -0.142   0.096   0.144
    1UNL    H17   44  -0.272   0.016   0.065
    1UNL    H18   45  -0.309   0.222  -0.065
    1UNL    H19   46  -0.043   0.437  -0.149
    1UNL    H20   47  -0.196   0.366  -0.197
    1UNL    H21   48  -0.210   0.471  -0.061
    1UNL    H22   49  -0.196  -0.099  -0.305
    1UNL    H23   50  -0.290  -0.351  -0.256
    1UNL    H24   51  -0.327  -0.521  -0.079
    1UNL    H25   52  -0.254  -0.469   0.146
    1UNL    H26   53  -0.145  -0.248   0.195
   0.00000   0.00000   0.00000   0.00000   0.00000   0.00000   0.00000   0.00000   0.00000
Generated with MDTraj, t= 65.0
 53
    1UNL     C1    1   0.430   0.239   0.094
    1UNL     C2    2   0.345   0.115   0.074
    1UNL     C3    3   0.255   0.088  -0.022
    1UNL     C4    4   0.232   0.180  -0.142
    1UNL     N1    5   0.106   0.140  -0.221
    1UNL     C5    6   0.055   0.006  -0.239
    1UNL     C6    7   0.146  -0.097  -0.174
    1UNL     C7    8   0.181  -0.051  -0.028
    1UNL     C8    9   0.049  -0.023   0.063
    1UNL     C9   10   0.055  -0.096   0.195
    1UNL     O1   11   0.106  -0.205   0.200
    1UNL     O2   12   0.005  -0.025   0.303
    1UNL    C10   13   0.029  -0.083   0.424
    1UNL    C11   14  -0.085  -0.041  -0.024
    1UNL    C12   15  -0.184   0.052   0.041
    1UNL    C13   16  -0.187   0.173  -0.057
    1UNL     O3   17  -0.105   0.280  -0.010
    1UNL    C14   18  -0.139   0.398  -0.082
    1UNL     O4   19  -0.163   0.120  -0.184
    1UNL    C15   20  -0.088  -0.006  -0.178
    1UNL     N2   21  -0.154  -0.120  -0.244
    1UNL    C16   22  -0.170  -0.226  -0.149
    1UNL    C17   23  -0.235  -0.342  -0.174
    1UNL    C18   24  -0.261  -0.425  -0.068
    1UNL    C19   25  -0.233  -0.385   0.062
    1UNL    C20   26  -0.163  -0.265   0.089
    1UNL    C21   27  -0.135  -0.184  -0.017
    1UNL     H1   28   0.507   0.242   0.013
    1UNL     H2   29   0.469   0.245   0.191
    1UNL     H3   30   0.361   0.323   0.081
    1UNL     H4   31   0.360   0.034   0.140
    1UNL     H5   32   0.320   0.204  -0.208
    1UNL     H6   33   0.214   0.269  -0.076
    1UNL     H7   34   0.031   0.194  -0.177
    1UNL     H8   35   0.049  -0.016  -0.354
    1UNL     H9   36   0.235  -0.099  -0.234
    1UNL    H10   37   0.090  -0.197  -0.162
    1UNL    H11   38   0.252  -0.130   0.009
    1UNL    H12   39   0.056   0.079   0.088
    1UNL    H13   40   0.059  -0.003   0.493
    1UNL    H14   41  -0.064  -0.127   0.460
    1UNL    H15   42   0.111  -0.162   0.422
    1UNL    H16   43  -0.159   0.078   0.141
    1UNL    H17   44  -0.278  -0.003   0.040
    1UNL    H18   45  -0.296   0.215  -0.056
    1UNL    H19   46  -0.085   0.487  -0.039
    1UNL    H20   47  -0.109   0.392  -0.181
    1UNL    H21   48  -0.250   0.407  -0.076
    1UNL    H22   49  -0.238  -0.104  -0.295
    1UNL    H23   50  -0.259  -0.369  -0.278
    1UNL    H24   51  -0.300  -0.524  -0.090
    1UNL    H25   52  -0.251  -0.451   0.145
    1UNL    H26   53  -0.146  -0.245   0.194
   0.00000   0.00000   0.00000   0.00000   0.00000   0.00000   0.00000   0.00000   0.00000
Generated with MDTraj, t= 66.0
 53
    1UNL     C1    1   0.463   0.210   0.076
    1UNL     C2    2   0.361   0.101   0.079
    1UNL     C3    3   0.265   0.073  -0.010
    1UNL     C4    4   0.232   0.175  -0.119
    1UNL     N1    5   0.102   0.158  -0.177
    1UNL     C5    6   0.048   0.025  -0.228
    1UNL     C6    7   0.136  -0.084  -0.165
    1UNL     C7    8   0.170  -0.044  -0.019
    1UNL     C8    9   0.035  -0.002   0.059
    1UNL     C9   10   0.050  -0.074   0.191
    1UNL     O1   11   0.080  -0.191   0.198
    1UNL     O2   12   0.035   0.010   0.299
    1UNL    C10   13   0.047  -0.065   0.420
    1UNL    C11   14  -0.096  -0.041  -0.017
    1UNL    C12   15  -0.210   0.040   0.039
    1UNL    C13   16  -0.213   0.161  -0.060
    1UNL     O3   17  -0.125   0.258  -0.005
    1UNL    C14   18  -0.110   0.365  -0.099
    1UNL     O4   19  -0.179   0.115  -0.189
    1UNL    C15   20  -0.094   0.005  -0.175
    1UNL     N2   21  -0.156  -0.114  -0.245
    1UNL    C16   22  -0.176  -0.223  -0.158
    1UNL    C17   23  -0.238  -0.344  -0.177
    1UNL    C18   24  -0.253  -0.432  -0.071
    1UNL    C19   25  -0.209  -0.402   0.052
    1UNL    C20   26  -0.154  -0.277   0.075
    1UNL    C21   27  -0.137  -0.186  -0.031
    1UNL     H1   28   0.551   0.181   0.134
    1UNL     H2   29   0.423   0.304   0.109
    1UNL     H3   30   0.495   0.225  -0.029
    1UNL     H4   31   0.378   0.026   0.157
    1UNL     H5   32   0.317   0.147  -0.188
    1UNL     H6   33   0.252   0.279  -0.085
    1UNL     H7   34   0.031   0.206  -0.118
    1UNL     H8   35   0.059   0.017  -0.344
    1UNL     H9   36   0.231  -0.089  -0.221
    1UNL    H10   37   0.078  -0.177  -0.167
    1UNL    H11   38   0.220  -0.128   0.036
    1UNL    H12   39   0.034   0.106   0.082
    1UNL    H13   40   0.011  -0.001   0.502
    1UNL    H14   41  -0.016  -0.154   0.406
    1UNL    H15   42   0.155  -0.098   0.436
    1UNL    H16   43  -0.189   0.064   0.139
    1UNL    H17   44  -0.304  -0.014   0.025
    1UNL    H18   45  -0.320   0.203  -0.077
    1UNL    H19   46  -0.011   0.415  -0.096
    1UNL    H20   47  -0.119   0.337  -0.199
    1UNL    H21   48  -0.193   0.437  -0.077
    1UNL    H22   49  -0.142  -0.125  -0.346
    1UNL    H23   50  -0.279  -0.358  -0.274
    1UNL    H24   51  -0.297  -0.525  -0.099
    1UNL    H25   52  -0.215  -0.478   0.130
    1UNL    H26   53  -0.112  -0.251   0.169
   0.00000   0.00000   0.00000   0.00000   0.00000   0.00000   0.00000   0.00000   0.00000
Generated with MDTraj, t= 67.0
 53
    1UNL     C1    1   0.465   0.169   0.063
    1UNL     C2    2   0.379   0.054   0.043
    1UNL     C3    3   0.267   0.065  -0.026
    1UNL     C4    4   0.220   0.185  -0.106
    1UNL     N1    5   0.101   0.171  -0.186
    1UNL     C5    6   0.057   0.027  -0.213
    1UNL     C6    7   0.145  -0.091  -0.165
    1UNL     C7    8   0.181  -0.058  -0.025
    1UNL     C8    9   0.045  -0.023   0.057
    1UNL     C9   10   0.049  -0.076   0.201
    1UNL     O1   11   0.060  -0.192   0.232
    1UNL     O2   12   0.022   0.020   0.295
    1UNL    C10   13   0.047  -0.019   0.436
    1UNL    C11   14  -0.099  -0.044  -0.011
    1UNL    C12   15  -0.193   0.058   0.054
    1UNL    C13   16  -0.209   0.176  -0.055
    1UNL     O3   17  -0.131   0.287  -0.022
    1UNL    C14   18  -0.166   0.398  -0.103
    1UNL     O4   19  -0.172   0.125  -0.183
    1UNL    C15   20  -0.091   0.007  -0.159
    1UNL     N2   21  -0.154  -0.107  -0.229
    1UNL    C16   22  -0.176  -0.221  -0.152
    1UNL    C17   23  -0.218  -0.347  -0.194
    1UNL    C18   24  -0.228  -0.453  -0.104
    1UNL    C19   25  -0.199  -0.424   0.029
    1UNL    C20   26  -0.161  -0.302   0.075
    1UNL    C21   27  -0.146  -0.195  -0.018
    1UNL     H1   28   0.446   0.223   0.153
    1UNL     H2   29   0.462   0.243  -0.023
    1UNL     H3   30   0.569   0.141   0.062
    1UNL     H4   31   0.403  -0.036   0.093
    1UNL     H5   32   0.299   0.221  -0.180
    1UNL     H6   33   0.212   0.259  -0.021
    1UNL     H7   34   0.027   0.215  -0.131
    1UNL     H8   35   0.041   0.027  -0.328
    1UNL     H9   36   0.236  -0.092  -0.231
    1UNL    H10   37   0.091  -0.179  -0.171
    1UNL    H11   38   0.226  -0.149   0.024
    1UNL    H12   39   0.052   0.089   0.075
    1UNL    H13   40  -0.005   0.050   0.499
    1UNL    H14   41   0.011  -0.121   0.443
    1UNL    H15   42   0.155  -0.016   0.464
    1UNL    H16   43  -0.150   0.095   0.142
    1UNL    H17   44  -0.285   0.003   0.075
    1UNL    H18   45  -0.317   0.200  -0.078
    1UNL    H19   46  -0.102   0.489  -0.088
    1UNL    H20   47  -0.146   0.383  -0.204
    1UNL    H21   48  -0.275   0.418  -0.085
    1UNL    H22   49  -0.208  -0.098  -0.317
    1UNL    H23   50  -0.260  -0.357  -0.295
    1UNL    H24   51  -0.270  -0.547  -0.144
    1UNL    H25   52  -0.213  -0.505   0.096
    1UNL    H26   53  -0.126  -0.285   0.176
   0.00000   0.00000   0.00000   0.00000   0.00000   0.00000   0.00000   0.00000   0.00000
Generated with MDTraj, t= 68.0
 53
    1UNL     C1    1   0.486   0.120   0.052
    1UNL     C2    2   0.375   0.021   0.050
    1UNL     C3    3   0.268   0.042  -0.028
    1UNL     C4    4   0.240   0.173  -0.102
    1UNL     N1    5   0.105   0.167  -0.158
    1UNL     C5    6   0.057   0.038  -0.224
    1UNL     C6    7   0.137  -0.081  -0.177
    1UNL     C7    8   0.161  -0.059  -0.028
    1UNL     C8    9   0.038  -0.001   0.055
    1UNL     C9   10   0.052  -0.055   0.197
    1UNL     O1   11   0.082  -0.169   0.224
    1UNL     O2   12   0.015   0.035   0.287
    1UNL    C10   13   0.023  -0.016   0.418
    1UNL    C11   14  -0.094  -0.033  -0.018
    1UNL    C12   15  -0.217   0.038   0.035
    1UNL    C13   16  -0.226   0.163  -0.056
    1UNL     O3   17  -0.171   0.276   0.010
    1UNL    C14   18  -0.180   0.387  -0.073
    1UNL     O4   19  -0.172   0.126  -0.186
    1UNL    C15   20  -0.090   0.013  -0.174
    1UNL     N2   21  -0.151  -0.107  -0.242
    1UNL    C16   22  -0.176  -0.221  -0.153
    1UNL    C17   23  -0.208  -0.348  -0.186
    1UNL    C18   24  -0.211  -0.442  -0.089
    1UNL    C19   25  -0.181  -0.403   0.046
    1UNL    C20   26  -0.137  -0.277   0.075
    1UNL    C21   27  -0.127  -0.185  -0.026
    1UNL     H1   28   0.464   0.200  -0.015
    1UNL     H2   29   0.582   0.068   0.021
    1UNL     H3   30   0.501   0.158   0.150
    1UNL     H4   31   0.398  -0.071   0.107
    1UNL     H5   32   0.321   0.192  -0.179
    1UNL     H6   33   0.245   0.268  -0.040
    1UNL     H7   34   0.026   0.205  -0.097
    1UNL     H8   35   0.058   0.041  -0.339
    1UNL     H9   36   0.233  -0.095  -0.234
    1UNL    H10   37   0.082  -0.166  -0.192
    1UNL    H11   38   0.198  -0.156   0.012
    1UNL    H12   39   0.053   0.114   0.070
    1UNL    H13   40   0.035   0.078   0.464
    1UNL    H14   41  -0.071  -0.065   0.433
    1UNL    H15   42   0.110  -0.081   0.436
    1UNL    H16   43  -0.192   0.065   0.135
    1UNL    H17   44  -0.304  -0.026   0.033
    1UNL    H18   45  -0.327   0.188  -0.094
    1UNL    H19   46  -0.099   0.462  -0.055
    1UNL    H20   47  -0.162   0.367  -0.174
    1UNL    H21   48  -0.283   0.432  -0.059
    1UNL    H22   49  -0.146  -0.120  -0.346
    1UNL    H23   50  -0.235  -0.373  -0.285
    1UNL    H24   51  -0.252  -0.537  -0.107
    1UNL    H25   52  -0.178  -0.484   0.121
    1UNL    H26   53  -0.099  -0.247   0.173
   0.00000   0.00000   0.00000   0.00000   0.00000   0.00000   0.00000   0.00000   0.00000
Generated with MDTraj, t= 69.0
 53
    1UNL     C1    1   0.508   0.115   0.046
    1UNL     C2    2   0.385   0.024   0.047
    1UNL     C3    3   0.269   0.044  -0.018
    1UNL     C4    4   0.245   0.163  -0.108
    1UNL     N1    5   0.117   0.161  -0.185
    1UNL     C5    6   0.047   0.031  -0.228
    1UNL     C6    7   0.127  -0.091  -0.167
    1UNL     C7    8   0.165  -0.064  -0.021
    1UNL     C8    9   0.040  -0.006   0.051
    1UNL     C9   10   0.039  -0.044   0.197
    1UNL     O1   11   0.093  -0.152   0.221
    1UNL     O2   12  -0.017   0.047   0.283
    1UNL    C10   13  -0.006  -0.018   0.416
    1UNL    C11   14  -0.091  -0.041  -0.017
    1UNL    C12   15  -0.203   0.037   0.060
    1UNL    C13   16  -0.232   0.158  -0.042
    1UNL     O3   17  -0.177   0.273   0.014
    1UNL    C14   18  -0.165   0.379  -0.076
    1UNL     O4   19  -0.184   0.129  -0.172
    1UNL    C15   20  -0.097   0.012  -0.165
    1UNL     N2   21  -0.161  -0.095  -0.239
    1UNL    C16   22  -0.184  -0.206  -0.159
    1UNL    C17   23  -0.207  -0.339  -0.196
    1UNL    C18   24  -0.199  -0.435  -0.092
    1UNL    C19   25  -0.163  -0.414   0.038
    1UNL    C20   26  -0.129  -0.285   0.074
    1UNL    C21   27  -0.124  -0.186  -0.031
    1UNL     H1   28   0.584   0.077  -0.024
    1UNL     H2   29   0.554   0.125   0.145
    1UNL     H3   30   0.493   0.217   0.016
    1UNL     H4   31   0.410  -0.071   0.089
    1UNL     H5   32   0.323   0.173  -0.188
    1UNL     H6   33   0.266   0.257  -0.051
    1UNL     H7   34   0.050   0.214  -0.123
    1UNL     H8   35   0.048   0.017  -0.341
    1UNL     H9   36   0.222  -0.098  -0.224
    1UNL    H10   37   0.089  -0.190  -0.179
    1UNL    H11   38   0.196  -0.161   0.026
    1UNL    H12   39   0.049   0.113   0.053
    1UNL    H13   40  -0.032   0.056   0.488
    1UNL    H14   41  -0.067  -0.106   0.409
    1UNL    H15   42   0.100  -0.045   0.433
    1UNL    H16   43  -0.164   0.073   0.156
    1UNL    H17   44  -0.286  -0.024   0.086
    1UNL    H18   45  -0.336   0.176  -0.051
    1UNL    H19   46  -0.094   0.457  -0.040
    1UNL    H20   47  -0.120   0.353  -0.167
    1UNL    H21   48  -0.264   0.430  -0.096
    1UNL    H22   49  -0.244  -0.062  -0.298
    1UNL    H23   50  -0.237  -0.360  -0.299
    1UNL    H24   51  -0.221  -0.540  -0.123
    1UNL    H25   52  -0.150  -0.500   0.098
    1UNL    H26   53  -0.088  -0.263   0.169
   0.00000   0.00000   0.00000   0.00000   0.00000   0.00000   0.00000   0.00000   0.00000
Generated with MDTraj, t= 70.0
 53
    1UNL     C1    1   0.483   0.150   0.029
    1UNL     C2    2   0.391   0.040   0.030
    1UNL     C3    3   0.271   0.053  -0.028
    1UNL     C4    4   0.223   0.168  -0.120
    1UNL     N1    5   0.099   0.150  -0.184
    1UNL     C5    6   0.048   0.020  -0.222
    1UNL     C6    7   0.138  -0.091  -0.165
    1UNL     C7    8   0.176  -0.061  -0.014
    1UNL     C8    9   0.045  -0.016   0.071
    1UNL     C9   10   0.036  -0.064   0.217
    1UNL     O1   11   0.093  -0.167   0.250
    1UNL     O2   12  -0.038   0.021   0.292
    1UNL    C10   13  -0.027  -0.016   0.430
    1UNL    C11   14  -0.092  -0.037  -0.008
    1UNL    C12   15  -0.191   0.065   0.060
    1UNL    C13   16  -0.211   0.183  -0.048
    1UNL     O3   17  -0.129   0.285  -0.002
    1UNL    C14   18  -0.147   0.405  -0.076
    1UNL     O4   19  -0.173   0.133  -0.176
    1UNL    C15   20  -0.099   0.006  -0.168
    1UNL     N2   21  -0.173  -0.109  -0.233
    1UNL    C16   22  -0.190  -0.219  -0.146
    1UNL    C17   23  -0.232  -0.346  -0.193
    1UNL    C18   24  -0.215  -0.450  -0.107
    1UNL    C19   25  -0.149  -0.426   0.012
    1UNL    C20   26  -0.107  -0.300   0.054
    1UNL    C21   27  -0.126  -0.192  -0.024
    1UNL     H1   28   0.566   0.137   0.098
    1UNL     H2   29   0.438   0.243   0.050
    1UNL     H3   30   0.537   0.168  -0.068
    1UNL     H4   31   0.423  -0.058   0.065
    1UNL     H5   32   0.305   0.184  -0.194
    1UNL     H6   33   0.216   0.265  -0.068
    1UNL     H7   34   0.026   0.201  -0.139
    1UNL     H8   35   0.037   0.004  -0.333
    1UNL     H9   36   0.221  -0.116  -0.230
    1UNL    H10   37   0.080  -0.185  -0.170
    1UNL    H11   38   0.219  -0.152   0.033
    1UNL    H12   39   0.059   0.101   0.080
    1UNL    H13   40  -0.118   0.028   0.471
    1UNL    H14   41  -0.017  -0.126   0.440
    1UNL    H15   42   0.058   0.045   0.471
    1UNL    H16   43  -0.155   0.104   0.157
    1UNL    H17   44  -0.283   0.018   0.081
    1UNL    H18   45  -0.307   0.224  -0.046
    1UNL    H19   46  -0.079   0.488  -0.049
    1UNL    H20   47  -0.131   0.382  -0.177
    1UNL    H21   48  -0.251   0.442  -0.065
    1UNL    H22   49  -0.228  -0.093  -0.323
    1UNL    H23   50  -0.284  -0.358  -0.286
    1UNL    H24   51  -0.261  -0.538  -0.138
    1UNL    H25   52  -0.110  -0.510   0.072
    1UNL    H26   53  -0.050  -0.294   0.147
   0.00000   0.00000   0.00000   0.00000   0.00000   0.00000   0.00000   0.00000   0.00000
Generated with MDTraj, t= 71.0
 53
    1UNL     C1    1   0.480   0.173   0.036
    1UNL     C2    2   0.372   0.072   0.047
    1UNL     C3    3   0.258   0.073  -0.026
    1UNL     C4    4   0.222   0.179  -0.123
    1UNL     N1    5   0.093   0.155  -0.190
    1UNL     C5    6   0.046   0.014  -0.225
    1UNL     C6    7   0.145  -0.084  -0.162
    1UNL     C7    8   0.169  -0.040  -0.021
    1UNL     C8    9   0.034  -0.007   0.060
    1UNL     C9   10   0.047  -0.067   0.201
    1UNL     O1   11   0.113  -0.170   0.218
    1UNL     O2   12  -0.032   0.005   0.291
    1UNL    C10   13  -0.028  -0.070   0.411
    1UNL    C11   14  -0.100  -0.033  -0.020
    1UNL    C12   15  -0.216   0.054   0.042
    1UNL    C13   16  -0.212   0.177  -0.056
    1UNL     O3   17  -0.116   0.263   0.008
    1UNL    C14   18  -0.079   0.379  -0.067
    1UNL     O4   19  -0.173   0.134  -0.185
    1UNL    C15   20  -0.104   0.004  -0.176
    1UNL     N2   21  -0.173  -0.108  -0.236
    1UNL    C16   22  -0.184  -0.220  -0.149
    1UNL    C17   23  -0.220  -0.352  -0.177
    1UNL    C18   24  -0.219  -0.447  -0.077
    1UNL    C19   25  -0.174  -0.410   0.047
    1UNL    C20   26  -0.130  -0.280   0.077
    1UNL    C21   27  -0.131  -0.187  -0.020
    1UNL     H1   28   0.491   0.211   0.137
    1UNL     H2   29   0.460   0.245  -0.038
    1UNL     H3   30   0.578   0.120   0.015
    1UNL     H4   31   0.385  -0.009   0.117
    1UNL     H5   32   0.302   0.188  -0.198
    1UNL     H6   33   0.233   0.270  -0.062
    1UNL     H7   34   0.020   0.188  -0.119
    1UNL     H8   35   0.042   0.003  -0.336
    1UNL     H9   36   0.236  -0.086  -0.217
    1UNL    H10   37   0.106  -0.191  -0.162
    1UNL    H11   38   0.221  -0.121   0.035
    1UNL    H12   39   0.035   0.106   0.076
    1UNL    H13   40  -0.067   0.001   0.486
    1UNL    H14   41  -0.088  -0.164   0.400
    1UNL    H15   42   0.082  -0.086   0.434
    1UNL    H16   43  -0.185   0.081   0.144
    1UNL    H17   44  -0.314   0.014   0.051
    1UNL    H18   45  -0.302   0.228  -0.067
    1UNL    H19   46   0.022   0.418  -0.052
    1UNL    H20   47  -0.100   0.356  -0.167
    1UNL    H21   48  -0.147   0.462  -0.038
    1UNL    H22   49  -0.247  -0.087  -0.309
    1UNL    H23   50  -0.273  -0.363  -0.268
    1UNL    H24   51  -0.269  -0.548  -0.080
    1UNL    H25   52  -0.167  -0.488   0.120
    1UNL    H26   53  -0.091  -0.266   0.175
   0.00000   0.00000   0.00000   0.00000   0.00000   0.00000   0.00000   0.00000   0.00000
Generated with MDTraj, t= 72.0
 53
    1UNL     C1    1   0.451   0.213   0.062
    1UNL     C2    2   0.367   0.088   0.057
    1UNL     C3    3   0.266   0.068  -0.030
    1UNL     C4    4   0.240   0.167  -0.150
    1UNL     N1    5   0.109   0.159  -0.204
    1UNL     C5    6   0.053   0.020  -0.229
    1UNL     C6    7   0.141  -0.092  -0.180
    1UNL     C7    8   0.180  -0.056  -0.032
    1UNL     C8    9   0.052  -0.017   0.057
    1UNL     C9   10   0.053  -0.084   0.187
    1UNL     O1   11   0.126  -0.177   0.204
    1UNL     O2   12  -0.036  -0.036   0.278
    1UNL    C10   13  -0.024  -0.100   0.404
    1UNL    C11   14  -0.088  -0.044  -0.008
    1UNL    C12   15  -0.197   0.045   0.062
    1UNL    C13   16  -0.195   0.171  -0.038
    1UNL     O3   17  -0.104   0.275  -0.013
    1UNL    C14   18  -0.137   0.383  -0.092
    1UNL     O4   19  -0.174   0.127  -0.171
    1UNL    C15   20  -0.091   0.012  -0.159
    1UNL     N2   21  -0.158  -0.098  -0.228
    1UNL    C16   22  -0.172  -0.209  -0.146
    1UNL    C17   23  -0.205  -0.348  -0.170
    1UNL    C18   24  -0.237  -0.421  -0.063
    1UNL    C19   25  -0.220  -0.386   0.067
    1UNL    C20   26  -0.166  -0.262   0.091
    1UNL    C21   27  -0.139  -0.180  -0.013
    1UNL     H1   28   0.388   0.292   0.099
    1UNL     H2   29   0.492   0.236  -0.035
    1UNL     H3   30   0.531   0.203   0.138
    1UNL     H4   31   0.367   0.018   0.138
    1UNL     H5   32   0.316   0.136  -0.221
    1UNL     H6   33   0.267   0.268  -0.124
    1UNL     H7   34   0.045   0.211  -0.150
    1UNL     H8   35   0.041   0.022  -0.338
    1UNL     H9   36   0.226  -0.100  -0.239
    1UNL    H10   37   0.096  -0.199  -0.182
    1UNL    H11   38   0.224  -0.142   0.021
    1UNL    H12   39   0.055   0.091   0.070
    1UNL    H13   40   0.024  -0.026   0.468
    1UNL    H14   41  -0.121  -0.133   0.448
    1UNL    H15   42   0.049  -0.183   0.405
    1UNL    H16   43  -0.173   0.072   0.164
    1UNL    H17   44  -0.295  -0.000   0.059
    1UNL    H18   45  -0.292   0.206  -0.050
    1UNL    H19   46  -0.083   0.477  -0.070
    1UNL    H20   47  -0.130   0.343  -0.190
    1UNL    H21   48  -0.243   0.409  -0.070
    1UNL    H22   49  -0.134  -0.114  -0.329
    1UNL    H23   50  -0.235  -0.369  -0.272
    1UNL    H24   51  -0.285  -0.512  -0.081
    1UNL    H25   52  -0.234  -0.460   0.145
    1UNL    H26   53  -0.127  -0.234   0.188
   0.00000   0.00000   0.00000   0.00000   0.00000   0.00000   0.00000   0.00000   0.00000
Generated with MDTraj, t= 73.0
 53
    1UNL     C1    1   0.432   0.226   0.092
    1UNL     C2    2   0.360   0.098   0.074
    1UNL     C3    3   0.270   0.075  -0.024
    1UNL     C4    4   0.243   0.177  -0.141
    1UNL     N1    5   0.105   0.162  -0.194
    1UNL     C5    6   0.060   0.022  -0.230
    1UNL     C6    7   0.156  -0.080  -0.186
    1UNL     C7    8   0.182  -0.052  -0.032
    1UNL     C8    9   0.055  -0.028   0.060
    1UNL     C9   10   0.072  -0.106   0.186
    1UNL     O1   11   0.159  -0.185   0.214
    1UNL     O2   12  -0.018  -0.077   0.286
    1UNL    C10   13   0.004  -0.148   0.405
    1UNL    C11   14  -0.085  -0.035  -0.012
    1UNL    C12   15  -0.183   0.069   0.052
    1UNL    C13   16  -0.190   0.182  -0.063
    1UNL     O3   17  -0.129   0.302  -0.038
    1UNL    C14   18  -0.163   0.411  -0.133
    1UNL     O4   19  -0.157   0.119  -0.191
    1UNL    C15   20  -0.078  -0.003  -0.172
    1UNL     N2   21  -0.147  -0.120  -0.229
    1UNL    C16   22  -0.196  -0.210  -0.130
    1UNL    C17   23  -0.261  -0.334  -0.159
    1UNL    C18   24  -0.268  -0.416  -0.056
    1UNL    C19   25  -0.230  -0.383   0.075
    1UNL    C20   26  -0.159  -0.268   0.101
    1UNL    C21   27  -0.147  -0.179  -0.006
    1UNL     H1   28   0.404   0.308   0.025
    1UNL     H2   29   0.541   0.222   0.085
    1UNL     H3   30   0.404   0.271   0.185
    1UNL     H4   31   0.356   0.026   0.155
    1UNL     H5   32   0.312   0.171  -0.222
    1UNL     H6   33   0.254   0.276  -0.098
    1UNL     H7   34   0.035   0.204  -0.133
    1UNL     H8   35   0.050   0.028  -0.338
    1UNL     H9   36   0.250  -0.070  -0.229
    1UNL    H10   37   0.126  -0.190  -0.212
    1UNL    H11   38   0.238  -0.134   0.017
    1UNL    H12   39   0.065   0.075   0.086
    1UNL    H13   40   0.108  -0.158   0.418
    1UNL    H14   41  -0.036  -0.097   0.492
    1UNL    H15   42  -0.032  -0.251   0.406
    1UNL    H16   43  -0.151   0.113   0.144
    1UNL    H17   44  -0.280   0.019   0.064
    1UNL    H18   45  -0.289   0.207  -0.088
    1UNL    H19   46  -0.087   0.490  -0.126
    1UNL    H20   47  -0.175   0.362  -0.228
    1UNL    H21   48  -0.257   0.463  -0.103
    1UNL    H22   49  -0.218  -0.075  -0.287
    1UNL    H23   50  -0.299  -0.351  -0.258
    1UNL    H24   51  -0.321  -0.511  -0.077
    1UNL    H25   52  -0.226  -0.461   0.150
    1UNL    H26   53  -0.110  -0.266   0.196
   0.00000   0.00000   0.00000   0.00000   0.00000   0.00000   0.00000   0.00000   0.00000
Generated with MDTraj, t= 74.0
 53
    1UNL     C1    1   0.436   0.226   0.102
    1UNL     C2    2   0.350   0.106   0.080
    1UNL     C3    3   0.267   0.090  -0.026
    1UNL     C4    4   0.229   0.196  -0.123
    1UNL     N1    5   0.090   0.175  -0.184
    1UNL     C5    6   0.062   0.033  -0.225
    1UNL     C6    7   0.172  -0.064  -0.182
    1UNL     C7    8   0.191  -0.037  -0.027
    1UNL     C8    9   0.060  -0.022   0.062
    1UNL     C9   10   0.078  -0.110   0.185
    1UNL     O1   11   0.163  -0.194   0.186
    1UNL     O2   12   0.004  -0.085   0.296
    1UNL    C10   13   0.025  -0.175   0.399
    1UNL    C11   14  -0.080  -0.032  -0.017
    1UNL    C12   15  -0.189   0.062   0.048
    1UNL    C13   16  -0.210   0.173  -0.067
    1UNL     O3   17  -0.137   0.291  -0.041
    1UNL    C14   18  -0.124   0.369  -0.165
    1UNL     O4   19  -0.177   0.116  -0.193
    1UNL    C15   20  -0.084  -0.002  -0.167
    1UNL     N2   21  -0.134  -0.123  -0.229
    1UNL    C16   22  -0.178  -0.222  -0.136
    1UNL    C17   23  -0.264  -0.331  -0.150
    1UNL    C18   24  -0.307  -0.403  -0.041
    1UNL    C19   25  -0.255  -0.366   0.079
    1UNL    C20   26  -0.176  -0.252   0.101
    1UNL    C21   27  -0.133  -0.177  -0.006
    1UNL     H1   28   0.524   0.234   0.033
    1UNL     H2   29   0.476   0.219   0.204
    1UNL     H3   30   0.377   0.311   0.085
    1UNL     H4   31   0.366   0.027   0.153
    1UNL     H5   32   0.291   0.181  -0.208
    1UNL     H6   33   0.245   0.300  -0.098
    1UNL     H7   34   0.012   0.202  -0.122
    1UNL     H8   35   0.046   0.021  -0.331
    1UNL     H9   36   0.267  -0.051  -0.226
    1UNL    H10   37   0.146  -0.175  -0.196
    1UNL    H11   38   0.248  -0.120   0.019
    1UNL    H12   39   0.066   0.072   0.104
    1UNL    H13   40   0.111  -0.231   0.376
    1UNL    H14   41   0.045  -0.120   0.489
    1UNL    H15   42  -0.052  -0.250   0.416
    1UNL    H16   43  -0.156   0.105   0.137
    1UNL    H17   44  -0.284   0.008   0.063
    1UNL    H18   45  -0.314   0.200  -0.078
    1UNL    H19   46  -0.047   0.445  -0.147
    1UNL    H20   47  -0.103   0.298  -0.245
    1UNL    H21   48  -0.217   0.423  -0.188
    1UNL    H22   49  -0.184  -0.106  -0.314
    1UNL    H23   50  -0.306  -0.345  -0.248
    1UNL    H24   51  -0.373  -0.485  -0.048
    1UNL    H25   52  -0.283  -0.435   0.156
    1UNL    H26   53  -0.143  -0.232   0.200
   0.00000   0.00000   0.00000   0.00000   0.00000   0.00000   0.00000   0.00000   0.00000
Generated with MDTraj, t= 75.0
 53
    1UNL     C1    1   0.448   0.243   0.087
    1UNL     C2    2   0.375   0.118   0.065
    1UNL     C3    3   0.270   0.102  -0.020
    1UNL     C4    4   0.220   0.199  -0.115
    1UNL     N1    5   0.105   0.162  -0.199
    1UNL     C5    6   0.063   0.025  -0.217
    1UNL     C6    7   0.173  -0.075  -0.177
    1UNL     C7    8   0.194  -0.030  -0.022
    1UNL     C8    9   0.063  -0.031   0.063
    1UNL     C9   10   0.069  -0.129   0.180
    1UNL     O1   11   0.117  -0.240   0.162
    1UNL     O2   12   0.008  -0.072   0.290
    1UNL    C10   13   0.029  -0.158   0.396
    1UNL    C11   14  -0.077  -0.038  -0.004
    1UNL    C12   15  -0.173   0.066   0.061
    1UNL    C13   16  -0.198   0.171  -0.060
    1UNL     O3   17  -0.118   0.291  -0.047
    1UNL    C14   18  -0.171   0.378  -0.142
    1UNL     O4   19  -0.182   0.097  -0.177
    1UNL    C15   20  -0.082  -0.003  -0.162
    1UNL     N2   21  -0.121  -0.125  -0.232
    1UNL    C16   22  -0.158  -0.223  -0.135
    1UNL    C17   23  -0.228  -0.339  -0.152
    1UNL    C18   24  -0.288  -0.400  -0.046
    1UNL    C19   25  -0.282  -0.348   0.077
    1UNL    C20   26  -0.215  -0.230   0.096
    1UNL    C21   27  -0.144  -0.170  -0.006
    1UNL     H1   28   0.555   0.241   0.117
    1UNL     H2   29   0.397   0.301   0.164
    1UNL     H3   30   0.450   0.298  -0.004
    1UNL     H4   31   0.411   0.034   0.123
    1UNL     H5   32   0.291   0.239  -0.182
    1UNL     H6   33   0.181   0.282  -0.058
    1UNL     H7   34   0.016   0.213  -0.167
    1UNL     H8   35   0.056   0.009  -0.322
    1UNL     H9   36   0.268  -0.068  -0.233
    1UNL    H10   37   0.139  -0.179  -0.178
    1UNL    H11   38   0.250  -0.107   0.033
    1UNL    H12   39   0.067   0.059   0.111
    1UNL    H13   40   0.133  -0.182   0.382
    1UNL    H14   41   0.017  -0.110   0.495
    1UNL    H15   42  -0.020  -0.256   0.384
    1UNL    H16   43  -0.116   0.112   0.137
    1UNL    H17   44  -0.267   0.032   0.105
    1UNL    H18   45  -0.305   0.201  -0.052
    1UNL    H19   46  -0.118   0.473  -0.141
    1UNL    H20   47  -0.170   0.324  -0.239
    1UNL    H21   48  -0.276   0.403  -0.120
    1UNL    H22   49  -0.171  -0.118  -0.317
    1UNL    H23   50  -0.251  -0.380  -0.249
    1UNL    H24   51  -0.349  -0.487  -0.072
    1UNL    H25   52  -0.337  -0.397   0.158
    1UNL    H26   53  -0.218  -0.171   0.186
   0.00000   0.00000   0.00000   0.00000   0.00000   0.00000   0.00000   0.00000   0.00000
Generated with MDTraj, t= 76.0
 53
    1UNL     C1    1   0.465   0.231   0.065
    1UNL     C2    2   0.382   0.111   0.073
    1UNL     C3    3   0.271   0.089  -0.002
    1UNL     C4    4   0.225   0.195  -0.102
    1UNL     N1    5   0.103   0.164  -0.185
    1UNL     C5    6   0.072   0.019  -0.224
    1UNL     C6    7   0.167  -0.082  -0.161
    1UNL     C7    8   0.184  -0.039  -0.008
    1UNL     C8    9   0.055  -0.032   0.071
    1UNL     C9   10   0.062  -0.130   0.187
    1UNL     O1   11   0.094  -0.244   0.158
    1UNL     O2   12   0.046  -0.077   0.315
    1UNL    C10   13   0.035  -0.183   0.401
    1UNL    C11   14  -0.082  -0.029  -0.014
    1UNL    C12   15  -0.189   0.075   0.037
    1UNL    C13   16  -0.212   0.179  -0.085
    1UNL     O3   17  -0.155   0.307  -0.058
    1UNL    C14   18  -0.198   0.413  -0.142
    1UNL     O4   19  -0.164   0.109  -0.196
    1UNL    C15   20  -0.074  -0.009  -0.172
    1UNL     N2   21  -0.125  -0.131  -0.238
    1UNL    C16   22  -0.184  -0.208  -0.135
    1UNL    C17   23  -0.247  -0.330  -0.158
    1UNL    C18   24  -0.271  -0.404  -0.038
    1UNL    C19   25  -0.238  -0.354   0.083
    1UNL    C20   26  -0.185  -0.235   0.105
    1UNL    C21   27  -0.154  -0.161  -0.011
    1UNL     H1   28   0.508   0.275   0.155
    1UNL     H2   29   0.408   0.316   0.028
    1UNL     H3   30   0.551   0.216  -0.002
    1UNL     H4   31   0.419   0.029   0.130
    1UNL     H5   32   0.303   0.198  -0.174
    1UNL     H6   33   0.222   0.292  -0.059
    1UNL     H7   34   0.017   0.199  -0.134
    1UNL     H8   35   0.076   0.011  -0.328
    1UNL     H9   36   0.268  -0.088  -0.214
    1UNL    H10   37   0.130  -0.180  -0.163
    1UNL    H11   38   0.244  -0.120   0.035
    1UNL    H12   39   0.058   0.063   0.112
    1UNL    H13   40   0.110  -0.170   0.481
    1UNL    H14   41  -0.063  -0.174   0.456
    1UNL    H15   42   0.056  -0.280   0.349
    1UNL    H16   43  -0.156   0.123   0.129
    1UNL    H17   44  -0.280   0.029   0.068
    1UNL    H18   45  -0.322   0.202  -0.102
    1UNL    H19   46  -0.148   0.505  -0.117
    1UNL    H20   47  -0.184   0.384  -0.249
    1UNL    H21   48  -0.305   0.438  -0.130
    1UNL    H22   49  -0.075  -0.179  -0.308
    1UNL    H23   50  -0.267  -0.370  -0.258
    1UNL    H24   51  -0.325  -0.497  -0.048
    1UNL    H25   52  -0.259  -0.406   0.173
    1UNL    H26   53  -0.175  -0.197   0.205
   0.00000   0.00000   0.00000   0.00000   0.00000   0.00000   0.00000   0.00000   0.00000
Generated with MDTraj, t= 77.0
 53
    1UNL     C1    1   0.473   0.197   0.082
    1UNL     C2    2   0.367   0.092   0.074
    1UNL     C3    3   0.266   0.089  -0.015
    1UNL     C4    4   0.226   0.207  -0.116
    1UNL     N1    5   0.097   0.176  -0.191
    1UNL     C5    6   0.063   0.034  -0.221
    1UNL     C6    7   0.165  -0.068  -0.171
    1UNL     C7    8   0.181  -0.042  -0.013
    1UNL     C8    9   0.050  -0.015   0.072
    1UNL     C9   10   0.050  -0.117   0.185
    1UNL     O1   11   0.096  -0.228   0.156
    1UNL     O2   12   0.016  -0.079   0.312
    1UNL    C10   13   0.062  -0.178   0.396
    1UNL    C11   14  -0.086  -0.027  -0.007
    1UNL    C12   15  -0.190   0.086   0.049
    1UNL    C13   16  -0.215   0.188  -0.068
    1UNL     O3   17  -0.155   0.315  -0.057
    1UNL    C14   18  -0.156   0.387  -0.182
    1UNL     O4   19  -0.179   0.116  -0.181
    1UNL    C15   20  -0.081   0.006  -0.161
    1UNL     N2   21  -0.135  -0.114  -0.225
    1UNL    C16   22  -0.162  -0.223  -0.133
    1UNL    C17   23  -0.226  -0.343  -0.156
    1UNL    C18   24  -0.262  -0.420  -0.043
    1UNL    C19   25  -0.241  -0.378   0.085
    1UNL    C20   26  -0.188  -0.255   0.105
    1UNL    C21   27  -0.144  -0.170   0.000
    1UNL     H1   28   0.496   0.222   0.181
    1UNL     H2   29   0.426   0.282   0.032
    1UNL     H3   30   0.561   0.159   0.025
    1UNL     H4   31   0.373   0.003   0.137
    1UNL     H5   32   0.306   0.230  -0.180
    1UNL     H6   33   0.206   0.294  -0.058
    1UNL     H7   34   0.017   0.229  -0.161
    1UNL     H8   35   0.047   0.028  -0.324
    1UNL     H9   36   0.270  -0.046  -0.216
    1UNL    H10   37   0.133  -0.162  -0.200
    1UNL    H11   38   0.234  -0.130   0.023
    1UNL    H12   39   0.059   0.084   0.109
    1UNL    H13   40   0.065  -0.141   0.500
    1UNL    H14   41  -0.021  -0.255   0.404
    1UNL    H15   42   0.161  -0.216   0.361
    1UNL    H16   43  -0.165   0.131   0.147
    1UNL    H17   44  -0.283   0.041   0.065
    1UNL    H18   45  -0.328   0.210  -0.093
    1UNL    H19   46  -0.078   0.461  -0.187
    1UNL    H20   47  -0.148   0.314  -0.269
    1UNL    H21   48  -0.247   0.444  -0.199
    1UNL    H22   49  -0.182  -0.098  -0.311
    1UNL    H23   50  -0.230  -0.383  -0.254
    1UNL    H24   51  -0.296  -0.520  -0.058
    1UNL    H25   52  -0.279  -0.446   0.163
    1UNL    H26   53  -0.165  -0.220   0.206
   0.00000   0.00000   0.00000   0.00000   0.00000   0.00000   0.00000   0.00000   0.00000
Generated with MDTraj, t= 78.0
 53
    1UNL     C1    1   0.449   0.208   0.085
    1UNL     C2    2   0.372   0.087   0.066
    1UNL     C3    3   0.272   0.077  -0.022
    1UNL     C4    4   0.233   0.195  -0.108
    1UNL     N1    5   0.096   0.171  -0.165
    1UNL     C5    6   0.046   0.036  -0.220
    1UNL     C6    7   0.156  -0.066  -0.192
    1UNL     C7    8   0.183  -0.045  -0.038
    1UNL     C8    9   0.054  -0.024   0.054
    1UNL     C9   10   0.068  -0.112   0.180
    1UNL     O1   11   0.117  -0.222   0.175
    1UNL     O2   12   0.016  -0.058   0.291
    1UNL    C10   13   0.032  -0.144   0.404
    1UNL    C11   14  -0.088  -0.033  -0.008
    1UNL    C12   15  -0.186   0.078   0.050
    1UNL    C13   16  -0.209   0.187  -0.061
    1UNL     O3   17  -0.127   0.299  -0.040
    1UNL    C14   18  -0.134   0.384  -0.149
    1UNL     O4   19  -0.186   0.119  -0.184
    1UNL    C15   20  -0.096   0.002  -0.165
    1UNL     N2   21  -0.145  -0.120  -0.227
    1UNL    C16   22  -0.171  -0.226  -0.139
    1UNL    C17   23  -0.220  -0.354  -0.155
    1UNL    C18   24  -0.245  -0.428  -0.046
    1UNL    C19   25  -0.244  -0.372   0.083
    1UNL    C20   26  -0.204  -0.241   0.099
    1UNL    C21   27  -0.163  -0.167  -0.011
    1UNL     H1   28   0.521   0.201   0.161
    1UNL     H2   29   0.380   0.287   0.113
    1UNL     H3   30   0.495   0.231  -0.014
    1UNL     H4   31   0.389  -0.003   0.120
    1UNL     H5   32   0.298   0.198  -0.191
    1UNL     H6   33   0.242   0.284  -0.051
    1UNL     H7   34   0.028   0.209  -0.102
    1UNL     H8   35   0.041   0.046  -0.324
    1UNL     H9   36   0.249  -0.022  -0.246
    1UNL    H10   37   0.135  -0.163  -0.226
    1UNL    H11   38   0.232  -0.130   0.007
    1UNL    H12   39   0.063   0.073   0.099
    1UNL    H13   40  -0.064  -0.189   0.427
    1UNL    H14   41   0.092  -0.235   0.383
    1UNL    H15   42   0.075  -0.091   0.487
    1UNL    H16   43  -0.142   0.125   0.141
    1UNL    H17   44  -0.276   0.039   0.083
    1UNL    H18   45  -0.320   0.221  -0.081
    1UNL    H19   46  -0.075   0.473  -0.142
    1UNL    H20   47  -0.106   0.321  -0.240
    1UNL    H21   48  -0.234   0.421  -0.163
    1UNL    H22   49  -0.167  -0.124  -0.322
    1UNL    H23   50  -0.219  -0.409  -0.250
    1UNL    H24   51  -0.256  -0.535  -0.058
    1UNL    H25   52  -0.265  -0.437   0.166
    1UNL    H26   53  -0.190  -0.199   0.195
   0.00000   0.00000   0.00000   0.00000   0.00000   0.00000   0.00000   0.00000   0.00000
Generated with MDTraj, t= 79.0
 53
    1UNL     C1    1   0.460   0.202   0.088
    1UNL     C2    2   0.368   0.090   0.062
    1UNL     C3    3   0.270   0.065  -0.026
    1UNL     C4    4   0.235   0.165  -0.133
    1UNL     N1    5   0.104   0.163  -0.204
    1UNL     C5    6   0.061   0.022  -0.234
    1UNL     C6    7   0.152  -0.092  -0.181
    1UNL     C7    8   0.178  -0.052  -0.029
    1UNL     C8    9   0.052  -0.016   0.056
    1UNL     C9   10   0.068  -0.092   0.195
    1UNL     O1   11   0.121  -0.200   0.201
    1UNL     O2   12  -0.005  -0.042   0.294
    1UNL    C10   13   0.000  -0.118   0.414
    1UNL    C11   14  -0.082  -0.037  -0.023
    1UNL    C12   15  -0.188   0.049   0.045
    1UNL    C13   16  -0.202   0.168  -0.056
    1UNL     O3   17  -0.130   0.282  -0.022
    1UNL    C14   18  -0.170   0.390  -0.098
    1UNL     O4   19  -0.172   0.119  -0.183
    1UNL    C15   20  -0.083   0.003  -0.175
    1UNL     N2   21  -0.147  -0.110  -0.240
    1UNL    C16   22  -0.178  -0.206  -0.143
    1UNL    C17   23  -0.252  -0.324  -0.161
    1UNL    C18   24  -0.264  -0.406  -0.053
    1UNL    C19   25  -0.211  -0.372   0.069
    1UNL    C20   26  -0.143  -0.256   0.091
    1UNL    C21   27  -0.140  -0.172  -0.016
    1UNL     H1   28   0.559   0.196   0.047
    1UNL     H2   29   0.474   0.222   0.192
    1UNL     H3   30   0.417   0.295   0.051
    1UNL     H4   31   0.388   0.004   0.127
    1UNL     H5   32   0.309   0.156  -0.209
    1UNL     H6   33   0.243   0.262  -0.091
    1UNL     H7   34   0.026   0.207  -0.150
    1UNL     H8   35   0.060   0.015  -0.338
    1UNL     H9   36   0.242  -0.100  -0.247
    1UNL    H10   37   0.097  -0.186  -0.180
    1UNL    H11   38   0.233  -0.129   0.022
    1UNL    H12   39   0.057   0.087   0.088
    1UNL    H13   40   0.056  -0.208   0.396
    1UNL    H14   41   0.051  -0.061   0.491
    1UNL    H15   42  -0.097  -0.136   0.452
    1UNL    H16   43  -0.152   0.098   0.137
    1UNL    H17   44  -0.267  -0.018   0.072
    1UNL    H18   45  -0.315   0.193  -0.065
    1UNL    H19   46  -0.115   0.479  -0.082
    1UNL    H20   47  -0.166   0.355  -0.208
    1UNL    H21   48  -0.271   0.416  -0.074
    1UNL    H22   49  -0.208  -0.078  -0.310
    1UNL    H23   50  -0.297  -0.331  -0.254
    1UNL    H24   51  -0.320  -0.496  -0.069
    1UNL    H25   52  -0.234  -0.433   0.156
    1UNL    H26   53  -0.106  -0.231   0.189
   0.00000   0.00000   0.00000   0.00000   0.00000   0.00000   0.00000   0.00000   0.00000
Generated with MDTraj, t= 80.0
 53
    1UNL     C1    1   0.466   0.208   0.059
    1UNL     C2    2   0.372   0.088   0.059
    1UNL     C3    3   0.269   0.077  -0.024
    1UNL     C4    4   0.238   0.167  -0.140
    1UNL     N1    5   0.102   0.148  -0.202
    1UNL     C5    6   0.055   0.005  -0.223
    1UNL     C6    7   0.151  -0.100  -0.169
    1UNL     C7    8   0.180  -0.052  -0.025
    1UNL     C8    9   0.053  -0.018   0.053
    1UNL     C9   10   0.061  -0.072   0.191
    1UNL     O1   11   0.151  -0.147   0.221
    1UNL     O2   12  -0.037  -0.028   0.276
    1UNL    C10   13  -0.009  -0.070   0.407
    1UNL    C11   14  -0.087  -0.048  -0.009
    1UNL    C12   15  -0.187   0.049   0.055
    1UNL    C13   16  -0.193   0.170  -0.045
    1UNL     O3   17  -0.116   0.280   0.001
    1UNL    C14   18  -0.143   0.400  -0.071
    1UNL     O4   19  -0.160   0.122  -0.175
    1UNL    C15   20  -0.086  -0.002  -0.165
    1UNL     N2   21  -0.152  -0.108  -0.235
    1UNL    C16   22  -0.185  -0.211  -0.146
    1UNL    C17   23  -0.263  -0.325  -0.178
    1UNL    C18   24  -0.278  -0.424  -0.086
    1UNL    C19   25  -0.220  -0.417   0.038
    1UNL    C20   26  -0.147  -0.299   0.078
    1UNL    C21   27  -0.140  -0.192  -0.009
    1UNL     H1   28   0.444   0.280  -0.021
    1UNL     H2   29   0.570   0.184   0.049
    1UNL     H3   30   0.452   0.257   0.152
    1UNL     H4   31   0.393   0.009   0.127
    1UNL     H5   32   0.306   0.150  -0.220
    1UNL     H6   33   0.249   0.270  -0.118
    1UNL     H7   34   0.025   0.206  -0.154
    1UNL     H8   35   0.046  -0.016  -0.325
    1UNL     H9   36   0.236  -0.121  -0.233
    1UNL    H10   37   0.085  -0.195  -0.161
    1UNL    H11   38   0.241  -0.133   0.011
    1UNL    H12   39   0.059   0.090   0.064
    1UNL    H13   40   0.039   0.011   0.460
    1UNL    H14   41  -0.105  -0.096   0.452
    1UNL    H15   42   0.054  -0.155   0.406
    1UNL    H16   43  -0.155   0.071   0.155
    1UNL    H17   44  -0.285   0.003   0.066
    1UNL    H18   45  -0.304   0.194  -0.062
    1UNL    H19   46  -0.075   0.476  -0.042
    1UNL    H20   47  -0.139   0.379  -0.184
    1UNL    H21   48  -0.236   0.443  -0.040
    1UNL    H22   49  -0.220  -0.068  -0.291
    1UNL    H23   50  -0.323  -0.317  -0.274
    1UNL    H24   51  -0.341  -0.509  -0.108
    1UNL    H25   52  -0.250  -0.490   0.112
    1UNL    H26   53  -0.114  -0.302   0.180
   0.00000   0.00000   0.00000   0.00000   0.00000   0.00000   0.00000   0.00000   0.00000
Generated with MDTraj, t= 81.0
 53
    1UNL     C1    1   0.456   0.184   0.037
    1UNL     C2    2   0.364   0.067   0.046
    1UNL     C3    3   0.264   0.059  -0.037
    1UNL     C4    4   0.241   0.165  -0.145
    1UNL     N1    5   0.099   0.163  -0.176
    1UNL     C5    6   0.043   0.028  -0.231
    1UNL     C6    7   0.134  -0.088  -0.182
    1UNL     C7    8   0.169  -0.056  -0.027
    1UNL     C8    9   0.047  -0.010   0.059
    1UNL     C9   10   0.051  -0.068   0.200
    1UNL     O1   11   0.158  -0.105   0.242
    1UNL     O2   12  -0.059  -0.041   0.273
    1UNL    C10   13  -0.027  -0.057   0.410
    1UNL    C11   14  -0.091  -0.041  -0.011
    1UNL    C12   15  -0.202   0.047   0.053
    1UNL    C13   16  -0.198   0.172  -0.044
    1UNL     O3   17  -0.104   0.255   0.019
    1UNL    C14   18  -0.079   0.373  -0.058
    1UNL     O4   19  -0.173   0.129  -0.179
    1UNL    C15   20  -0.101   0.008  -0.163
    1UNL     N2   21  -0.163  -0.108  -0.234
    1UNL    C16   22  -0.173  -0.221  -0.154
    1UNL    C17   23  -0.236  -0.344  -0.182
    1UNL    C18   24  -0.250  -0.434  -0.083
    1UNL    C19   25  -0.205  -0.407   0.045
    1UNL    C20   26  -0.149  -0.280   0.071
    1UNL    C21   27  -0.130  -0.190  -0.023
    1UNL     H1   28   0.415   0.263   0.102
    1UNL     H2   29   0.458   0.231  -0.060
    1UNL     H3   30   0.552   0.158   0.066
    1UNL     H4   31   0.369   0.004   0.135
    1UNL     H5   32   0.292   0.154  -0.240
    1UNL     H6   33   0.261   0.266  -0.115
    1UNL     H7   34   0.038   0.194  -0.100
    1UNL     H8   35   0.035   0.026  -0.336
    1UNL     H9   36   0.224  -0.075  -0.238
    1UNL    H10   37   0.092  -0.195  -0.210
    1UNL    H11   38   0.212  -0.147   0.012
    1UNL    H12   39   0.055   0.096   0.084
    1UNL    H13   40  -0.090   0.012   0.471
    1UNL    H14   41  -0.036  -0.164   0.440
    1UNL    H15   42   0.074  -0.019   0.419
    1UNL    H16   43  -0.183   0.062   0.155
    1UNL    H17   44  -0.304   0.003   0.048
    1UNL    H18   45  -0.296   0.223  -0.045
    1UNL    H19   46   0.020   0.403  -0.034
    1UNL    H20   47  -0.085   0.344  -0.170
    1UNL    H21   48  -0.137   0.459  -0.027
    1UNL    H22   49  -0.242  -0.087  -0.291
    1UNL    H23   50  -0.257  -0.374  -0.279
    1UNL    H24   51  -0.294  -0.531  -0.098
    1UNL    H25   52  -0.205  -0.480   0.124
    1UNL    H26   53  -0.125  -0.256   0.175
   0.00000   0.00000   0.00000   0.00000   0.00000   0.00000   0.00000   0.00000   0.00000
Generated with MDTraj, t= 82.0
 53
    1UNL     C1    1   0.477   0.143   0.057
    1UNL     C2    2   0.370   0.042   0.042
    1UNL     C3    3   0.269   0.050  -0.042
    1UNL     C4    4   0.230   0.170  -0.141
    1UNL     N1    5   0.108   0.155  -0.215
    1UNL     C5    6   0.049   0.017  -0.234
    1UNL     C6    7   0.132  -0.094  -0.171
    1UNL     C7    8   0.166  -0.055  -0.028
    1UNL     C8    9   0.042  -0.006   0.056
    1UNL     C9   10   0.053  -0.053   0.207
    1UNL     O1   11   0.162  -0.090   0.243
    1UNL     O2   12  -0.062  -0.054   0.278
    1UNL    C10   13  -0.042  -0.109   0.401
    1UNL    C11   14  -0.094  -0.026  -0.016
    1UNL    C12   15  -0.200   0.056   0.053
    1UNL    C13   16  -0.200   0.181  -0.046
    1UNL     O3   17  -0.103   0.274  -0.001
    1UNL    C14   18  -0.124   0.400  -0.065
    1UNL     O4   19  -0.164   0.138  -0.181
    1UNL    C15   20  -0.097   0.011  -0.172
    1UNL     N2   21  -0.189  -0.099  -0.227
    1UNL    C16   22  -0.202  -0.206  -0.142
    1UNL    C17   23  -0.229  -0.343  -0.170
    1UNL    C18   24  -0.209  -0.442  -0.073
    1UNL    C19   25  -0.171  -0.404   0.053
    1UNL    C20   26  -0.141  -0.273   0.082
    1UNL    C21   27  -0.139  -0.179  -0.021
    1UNL     H1   28   0.447   0.219   0.129
    1UNL     H2   29   0.481   0.209  -0.030
    1UNL     H3   30   0.573   0.105   0.075
    1UNL     H4   31   0.357  -0.020   0.128
    1UNL     H5   32   0.308   0.195  -0.215
    1UNL     H6   33   0.216   0.260  -0.082
    1UNL     H7   34   0.038   0.202  -0.153
    1UNL     H8   35   0.038   0.001  -0.338
    1UNL     H9   36   0.221  -0.102  -0.227
    1UNL    H10   37   0.078  -0.197  -0.184
    1UNL    H11   38   0.211  -0.135   0.030
    1UNL    H12   39   0.060   0.103   0.077
    1UNL    H13   40  -0.108  -0.201   0.417
    1UNL    H14   41   0.065  -0.141   0.410
    1UNL    H15   42  -0.077  -0.032   0.471
    1UNL    H16   43  -0.175   0.092   0.148
    1UNL    H17   44  -0.294  -0.002   0.064
    1UNL    H18   45  -0.293   0.237  -0.045
    1UNL    H19   46  -0.034   0.459  -0.061
    1UNL    H20   47  -0.143   0.365  -0.173
    1UNL    H21   48  -0.202   0.458  -0.018
    1UNL    H22   49  -0.271  -0.050  -0.264
    1UNL    H23   50  -0.240  -0.369  -0.277
    1UNL    H24   51  -0.210  -0.547  -0.101
    1UNL    H25   52  -0.156  -0.478   0.128
    1UNL    H26   53  -0.102  -0.242   0.175
   0.00000   0.00000   0.00000   0.00000   0.00000   0.00000   0.00000   0.00000   0.00000
Generated with MDTraj, t= 83.0
 53
    1UNL     C1    1   0.487   0.146   0.035
    1UNL     C2    2   0.387   0.037   0.044
    1UNL     C3    3   0.278   0.050  -0.026
    1UNL     C4    4   0.256   0.155  -0.130
    1UNL     N1    5   0.113   0.160  -0.171
    1UNL     C5    6   0.045   0.028  -0.226
    1UNL     C6    7   0.123  -0.095  -0.172
    1UNL     C7    8   0.168  -0.065  -0.029
    1UNL     C8    9   0.044  -0.015   0.054
    1UNL     C9   10   0.054  -0.065   0.198
    1UNL     O1   11   0.162  -0.099   0.249
    1UNL     O2   12  -0.069  -0.077   0.268
    1UNL    C10   13  -0.044  -0.124   0.396
    1UNL    C11   14  -0.096  -0.035  -0.010
    1UNL    C12   15  -0.192   0.066   0.055
    1UNL    C13   16  -0.200   0.186  -0.047
    1UNL     O3   17  -0.140   0.315  -0.012
    1UNL    C14   18  -0.148   0.414  -0.113
    1UNL     O4   19  -0.177   0.139  -0.176
    1UNL    C15   20  -0.101   0.014  -0.167
    1UNL     N2   21  -0.181  -0.097  -0.226
    1UNL    C16   22  -0.204  -0.202  -0.133
    1UNL    C17   23  -0.234  -0.333  -0.162
    1UNL    C18   24  -0.218  -0.436  -0.074
    1UNL    C19   25  -0.161  -0.405   0.050
    1UNL    C20   26  -0.121  -0.276   0.084
    1UNL    C21   27  -0.138  -0.176  -0.014
    1UNL     H1   28   0.435   0.237   0.045
    1UNL     H2   29   0.536   0.152  -0.060
    1UNL     H3   30   0.562   0.131   0.114
    1UNL     H4   31   0.393  -0.053   0.107
    1UNL     H5   32   0.313   0.115  -0.216
    1UNL     H6   33   0.301   0.250  -0.104
    1UNL     H7   34   0.047   0.220  -0.118
    1UNL     H8   35   0.041   0.036  -0.332
    1UNL     H9   36   0.193  -0.139  -0.244
    1UNL    H10   37   0.053  -0.180  -0.157
    1UNL    H11   38   0.214  -0.150   0.017
    1UNL    H12   39   0.058   0.099   0.063
    1UNL    H13   40   0.042  -0.198   0.398
    1UNL    H14   41  -0.002  -0.039   0.451
    1UNL    H15   42  -0.133  -0.173   0.435
    1UNL    H16   43  -0.147   0.114   0.140
    1UNL    H17   44  -0.288   0.025   0.090
    1UNL    H18   45  -0.301   0.218  -0.054
    1UNL    H19   46  -0.106   0.509  -0.080
    1UNL    H20   47  -0.092   0.363  -0.198
    1UNL    H21   48  -0.253   0.431  -0.134
    1UNL    H22   49  -0.174  -0.103  -0.329
    1UNL    H23   50  -0.278  -0.361  -0.255
    1UNL    H24   51  -0.257  -0.534  -0.094
    1UNL    H25   52  -0.148  -0.486   0.121
    1UNL    H26   53  -0.081  -0.250   0.178
   0.00000   0.00000   0.00000   0.00000   0.00000   0.00000   0.00000   0.00000   0.00000
Generated with MDTraj, t= 84.0
 53
    1UNL     C1    1   0.499   0.142   0.030
    1UNL     C2    2   0.386   0.048   0.036
    1UNL     C3    3   0.269   0.053  -0.026
    1UNL     C4    4   0.237   0.166  -0.121
    1UNL     N1    5   0.116   0.161  -0.198
    1UNL     C5    6   0.054   0.028  -0.218
    1UNL     C6    7   0.129  -0.091  -0.168
    1UNL     C7    8   0.165  -0.054  -0.023
    1UNL     C8    9   0.046  -0.004   0.065
    1UNL     C9   10   0.059  -0.065   0.206
    1UNL     O1   11   0.162  -0.120   0.241
    1UNL     O2   12  -0.050  -0.054   0.282
    1UNL    C10   13  -0.023  -0.110   0.408
    1UNL    C11   14  -0.090  -0.035  -0.013
    1UNL    C12   15  -0.196   0.060   0.051
    1UNL    C13   16  -0.214   0.178  -0.048
    1UNL     O3   17  -0.144   0.296  -0.005
    1UNL    C14   18  -0.149   0.399  -0.099
    1UNL     O4   19  -0.176   0.138  -0.183
    1UNL    C15   20  -0.092   0.018  -0.164
    1UNL     N2   21  -0.157  -0.104  -0.229
    1UNL    C16   22  -0.171  -0.218  -0.149
    1UNL    C17   23  -0.224  -0.340  -0.182
    1UNL    C18   24  -0.250  -0.429  -0.074
    1UNL    C19   25  -0.209  -0.398   0.056
    1UNL    C20   26  -0.150  -0.276   0.081
    1UNL    C21   27  -0.127  -0.180  -0.020
    1UNL     H1   28   0.455   0.237   0.022
    1UNL     H2   29   0.555   0.125  -0.058
    1UNL     H3   30   0.560   0.120   0.120
    1UNL     H4   31   0.399  -0.033   0.104
    1UNL     H5   32   0.321   0.179  -0.195
    1UNL     H6   33   0.238   0.258  -0.061
    1UNL     H7   34   0.040   0.225  -0.164
    1UNL     H8   35   0.046   0.027  -0.325
    1UNL     H9   36   0.221  -0.117  -0.225
    1UNL    H10   37   0.073  -0.180  -0.177
    1UNL    H11   38   0.217  -0.137   0.021
    1UNL    H12   39   0.037   0.113   0.069
    1UNL    H13   40   0.060  -0.057   0.459
    1UNL    H14   41  -0.100  -0.088   0.478
    1UNL    H15   42   0.001  -0.214   0.394
    1UNL    H16   43  -0.168   0.094   0.152
    1UNL    H17   44  -0.285   0.002   0.069
    1UNL    H18   45  -0.317   0.193  -0.054
    1UNL    H19   46  -0.077   0.480  -0.082
    1UNL    H20   47  -0.136   0.350  -0.198
    1UNL    H21   48  -0.249   0.440  -0.091
    1UNL    H22   49  -0.224  -0.080  -0.302
    1UNL    H23   50  -0.280  -0.356  -0.270
    1UNL    H24   51  -0.317  -0.512  -0.088
    1UNL    H25   52  -0.220  -0.474   0.131
    1UNL    H26   53  -0.127  -0.247   0.186
   0.00000   0.00000   0.00000   0.00000   0.00000   0.00000   0.00000   0.00000   0.00000
Generated with MDTraj, t= 85.0
 53
    1UNL     C1    1   0.498   0.167   0.033
    1UNL     C2    2   0.400   0.058   0.037
    1UNL     C3    3   0.286   0.067  -0.028
    1UNL     C4    4   0.227   0.191  -0.099
    1UNL     N1    5   0.103   0.171  -0.192
    1UNL     C5    6   0.053   0.027  -0.225
    1UNL     C6    7   0.149  -0.079  -0.173
    1UNL     C7    8   0.185  -0.051  -0.026
    1UNL     C8    9   0.058  -0.014   0.060
    1UNL     C9   10   0.062  -0.089   0.190
    1UNL     O1   11   0.151  -0.164   0.230
    1UNL     O2   12  -0.038  -0.037   0.269
    1UNL    C10   13  -0.020  -0.065   0.408
    1UNL    C11   14  -0.090  -0.038  -0.010
    1UNL    C12   15  -0.201   0.060   0.048
    1UNL    C13   16  -0.209   0.170  -0.057
    1UNL     O3   17  -0.118   0.264  -0.013
    1UNL    C14   18  -0.145   0.393  -0.058
    1UNL     O4   19  -0.176   0.122  -0.190
    1UNL    C15   20  -0.088   0.006  -0.173
    1UNL     N2   21  -0.146  -0.119  -0.240
    1UNL    C16   22  -0.175  -0.224  -0.152
    1UNL    C17   23  -0.244  -0.346  -0.178
    1UNL    C18   24  -0.270  -0.429  -0.063
    1UNL    C19   25  -0.234  -0.385   0.064
    1UNL    C20   26  -0.177  -0.266   0.086
    1UNL    C21   27  -0.143  -0.183  -0.021
    1UNL     H1   28   0.462   0.254   0.080
    1UNL     H2   29   0.515   0.201  -0.065
    1UNL     H3   30   0.596   0.135   0.072
    1UNL     H4   31   0.416  -0.028   0.104
    1UNL     H5   32   0.306   0.234  -0.165
    1UNL     H6   33   0.205   0.272  -0.026
    1UNL     H7   34   0.029   0.211  -0.135
    1UNL     H8   35   0.039   0.018  -0.332
    1UNL     H9   36   0.239  -0.092  -0.238
    1UNL    H10   37   0.111  -0.174  -0.178
    1UNL    H11   38   0.233  -0.133   0.024
    1UNL    H12   39   0.045   0.098   0.094
    1UNL    H13   40  -0.067   0.010   0.473
    1UNL    H14   41  -0.079  -0.148   0.437
    1UNL    H15   42   0.082  -0.085   0.431
    1UNL    H16   43  -0.167   0.088   0.151
    1UNL    H17   44  -0.293   0.010   0.058
    1UNL    H18   45  -0.306   0.206  -0.065
    1UNL    H19   46  -0.073   0.466  -0.017
    1UNL    H20   47  -0.146   0.400  -0.166
    1UNL    H21   48  -0.240   0.426  -0.019
    1UNL    H22   49  -0.218  -0.081  -0.307
    1UNL    H23   50  -0.305  -0.357  -0.274
    1UNL    H24   51  -0.314  -0.527  -0.076
    1UNL    H25   52  -0.237  -0.451   0.151
    1UNL    H26   53  -0.139  -0.236   0.180
   0.00000   0.00000   0.00000   0.00000   0.00000   0.00000   0.00000   0.00000   0.00000
Generated with MDTraj, t= 86.0
 53
    1UNL     C1    1   0.467   0.201   0.046
    1UNL     C2    2   0.390   0.072   0.024
    1UNL     C3    3   0.270   0.068  -0.030
    1UNL     C4    4   0.224   0.190  -0.107
    1UNL     N1    5   0.108   0.161  -0.191
    1UNL     C5    6   0.060   0.017  -0.229
    1UNL     C6    7   0.149  -0.098  -0.176
    1UNL     C7    8   0.183  -0.064  -0.030
    1UNL     C8    9   0.058  -0.025   0.060
    1UNL     C9   10   0.057  -0.082   0.202
    1UNL     O1   11   0.112  -0.189   0.211
    1UNL     O2   12  -0.011  -0.013   0.297
    1UNL    C10   13  -0.020  -0.086   0.414
    1UNL    C11   14  -0.081  -0.045  -0.015
    1UNL    C12   15  -0.193   0.044   0.047
    1UNL    C13   16  -0.196   0.168  -0.046
    1UNL     O3   17  -0.117   0.278  -0.007
    1UNL    C14   18  -0.133   0.388  -0.093
    1UNL     O4   19  -0.165   0.120  -0.179
    1UNL    C15   20  -0.085   0.003  -0.172
    1UNL     N2   21  -0.153  -0.107  -0.239
    1UNL    C16   22  -0.176  -0.210  -0.148
    1UNL    C17   23  -0.250  -0.325  -0.175
    1UNL    C18   24  -0.277  -0.413  -0.069
    1UNL    C19   25  -0.230  -0.388   0.063
    1UNL    C20   26  -0.161  -0.269   0.091
    1UNL    C21   27  -0.134  -0.186  -0.017
    1UNL     H1   28   0.423   0.264   0.118
    1UNL     H2   29   0.464   0.266  -0.038
    1UNL     H3   30   0.573   0.191   0.065
    1UNL     H4   31   0.428  -0.018   0.067
    1UNL     H5   32   0.302   0.235  -0.176
    1UNL     H6   33   0.204   0.278  -0.041
    1UNL     H7   34   0.026   0.196  -0.135
    1UNL     H8   35   0.045   0.011  -0.338
    1UNL     H9   36   0.234  -0.106  -0.247
    1UNL    H10   37   0.107  -0.193  -0.170
    1UNL    H11   38   0.234  -0.140   0.027
    1UNL    H12   39   0.057   0.089   0.089
    1UNL    H13   40  -0.128  -0.099   0.439
    1UNL    H14   41   0.013  -0.188   0.407
    1UNL    H15   42   0.035  -0.045   0.499
    1UNL    H16   43  -0.165   0.072   0.151
    1UNL    H17   44  -0.284  -0.011   0.050
    1UNL    H18   45  -0.292   0.209  -0.049
    1UNL    H19   46  -0.056   0.468  -0.082
    1UNL    H20   47  -0.139   0.359  -0.196
    1UNL    H21   48  -0.222   0.443  -0.066
    1UNL    H22   49  -0.225  -0.080  -0.315
    1UNL    H23   50  -0.294  -0.350  -0.263
    1UNL    H24   51  -0.332  -0.505  -0.075
    1UNL    H25   52  -0.218  -0.461   0.139
    1UNL    H26   53  -0.102  -0.253   0.181
   0.00000   0.00000   0.00000   0.00000   0.00000   0.00000   0.00000   0.00000   0.00000
Generated with MDTraj, t= 87.0
 53
    1UNL     C1    1   0.477   0.191   0.063
    1UNL     C2    2   0.355   0.094   0.076
    1UNL     C3    3   0.264   0.071  -0.022
    1UNL     C4    4   0.240   0.165  -0.139
    1UNL     N1    5   0.109   0.163  -0.196
    1UNL     C5    6   0.055   0.029  -0.231
    1UNL     C6    7   0.142  -0.083  -0.174
    1UNL     C7    8   0.168  -0.046  -0.025
    1UNL     C8    9   0.047  -0.012   0.064
    1UNL     C9   10   0.057  -0.085   0.195
    1UNL     O1   11   0.079  -0.205   0.185
    1UNL     O2   12   0.008  -0.022   0.308
    1UNL    C10   13   0.027  -0.110   0.412
    1UNL    C11   14  -0.089  -0.039  -0.008
    1UNL    C12   15  -0.196   0.059   0.056
    1UNL    C13   16  -0.200   0.180  -0.045
    1UNL     O3   17  -0.120   0.303  -0.021
    1UNL    C14   18  -0.121   0.379  -0.136
    1UNL     O4   19  -0.165   0.123  -0.173
    1UNL    C15   20  -0.085   0.007  -0.163
    1UNL     N2   21  -0.152  -0.111  -0.229
    1UNL    C16   22  -0.196  -0.202  -0.140
    1UNL    C17   23  -0.256  -0.324  -0.160
    1UNL    C18   24  -0.258  -0.431  -0.071
    1UNL    C19   25  -0.216  -0.407   0.059
    1UNL    C20   26  -0.154  -0.280   0.084
    1UNL    C21   27  -0.137  -0.186  -0.013
    1UNL     H1   28   0.439   0.287   0.032
    1UNL     H2   29   0.532   0.157  -0.022
    1UNL     H3   30   0.541   0.188   0.147
    1UNL     H4   31   0.356   0.035   0.168
    1UNL     H5   32   0.310   0.147  -0.226
    1UNL     H6   33   0.262   0.274  -0.118
    1UNL     H7   34   0.043   0.210  -0.134
    1UNL     H8   35   0.041   0.029  -0.340
    1UNL     H9   36   0.239  -0.094  -0.223
    1UNL    H10   37   0.086  -0.173  -0.186
    1UNL    H11   38   0.224  -0.129   0.015
    1UNL    H12   39   0.037   0.103   0.089
    1UNL    H13   40  -0.039  -0.201   0.397
    1UNL    H14   41   0.129  -0.147   0.419
    1UNL    H15   42   0.002  -0.068   0.512
    1UNL    H16   43  -0.160   0.096   0.153
    1UNL    H17   44  -0.295   0.015   0.063
    1UNL    H18   45  -0.296   0.225  -0.054
    1UNL    H19   46  -0.065   0.477  -0.128
    1UNL    H20   47  -0.092   0.325  -0.221
    1UNL    H21   48  -0.221   0.419  -0.149
    1UNL    H22   49  -0.210  -0.069  -0.311
    1UNL    H23   50  -0.284  -0.348  -0.267
    1UNL    H24   51  -0.305  -0.526  -0.097
    1UNL    H25   52  -0.231  -0.487   0.134
    1UNL    H26   53  -0.097  -0.265   0.175
   0.00000   0.00000   0.00000   0.00000   0.00000   0.00000   0.00000   0.00000   0.00000
Generated with MDTraj, t= 88.0
 53
    1UNL     C1    1   0.431   0.200   0.083
    1UNL     C2    2   0.364   0.073   0.064
    1UNL     C3    3   0.273   0.059  -0.031
    1UNL     C4    4   0.232   0.166  -0.125
    1UNL     N1    5   0.097   0.159  -0.188
    1UNL     C5    6   0.044   0.018  -0.227
    1UNL     C6    7   0.137  -0.097  -0.175
    1UNL     C7    8   0.174  -0.060  -0.028
    1UNL     C8    9   0.046  -0.028   0.057
    1UNL     C9   10   0.060  -0.103   0.192
    1UNL     O1   11   0.118  -0.209   0.198
    1UNL     O2   12   0.020  -0.037   0.307
    1UNL    C10   13   0.063  -0.099   0.425
    1UNL    C11   14  -0.105  -0.031  -0.017
    1UNL    C12   15  -0.198   0.079   0.038
    1UNL    C13   16  -0.196   0.191  -0.069
    1UNL     O3   17  -0.107   0.298  -0.022
    1UNL    C14   18  -0.126   0.413  -0.102
    1UNL     O4   19  -0.165   0.137  -0.193
    1UNL    C15   20  -0.095   0.005  -0.169
    1UNL     N2   21  -0.164  -0.118  -0.235
    1UNL    C16   22  -0.192  -0.217  -0.148
    1UNL    C17   23  -0.224  -0.351  -0.175
    1UNL    C18   24  -0.236  -0.431  -0.067
    1UNL    C19   25  -0.219  -0.384   0.066
    1UNL    C20   26  -0.198  -0.246   0.096
    1UNL    C21   27  -0.170  -0.173  -0.018
    1UNL     H1   28   0.441   0.257  -0.010
    1UNL     H2   29   0.530   0.175   0.113
    1UNL     H3   30   0.390   0.254   0.161
    1UNL     H4   31   0.370  -0.008   0.134
    1UNL     H5   32   0.305   0.164  -0.210
    1UNL     H6   33   0.248   0.265  -0.075
    1UNL     H7   34   0.028   0.200  -0.125
    1UNL     H8   35   0.036   0.017  -0.339
    1UNL     H9   36   0.220  -0.107  -0.241
    1UNL    H10   37   0.084  -0.198  -0.172
    1UNL    H11   38   0.225  -0.148   0.010
    1UNL    H12   39   0.049   0.085   0.088
    1UNL    H13   40   0.076  -0.211   0.407
    1UNL    H14   41   0.157  -0.057   0.462
    1UNL    H15   42  -0.015  -0.090   0.505
    1UNL    H16   43  -0.167   0.118   0.132
    1UNL    H17   44  -0.301   0.037   0.045
    1UNL    H18   45  -0.293   0.240  -0.076
    1UNL    H19   46  -0.033   0.479  -0.105
    1UNL    H20   47  -0.151   0.391  -0.201
    1UNL    H21   48  -0.198   0.483  -0.055
    1UNL    H22   49  -0.118  -0.132  -0.330
    1UNL    H23   50  -0.238  -0.389  -0.275
    1UNL    H24   51  -0.272  -0.533  -0.080
    1UNL    H25   52  -0.233  -0.445   0.151
    1UNL    H26   53  -0.189  -0.204   0.194
   0.00000   0.00000   0.00000   0.00000   0.00000   0.00000   0.00000   0.00000   0.00000
Generated with MDTraj, t= 89.0
 53
    1UNL     C1    1   0.448   0.175   0.112
    1UNL     C2    2   0.351   0.082   0.064
    1UNL     C3    3   0.269   0.069  -0.042
    1UNL     C4    4   0.245   0.183  -0.146
    1UNL     N1    5   0.108   0.159  -0.197
    1UNL     C5    6   0.053   0.028  -0.233
    1UNL     C6    7   0.143  -0.087  -0.190
    1UNL     C7    8   0.172  -0.048  -0.041
    1UNL     C8    9   0.054  -0.013   0.049
    1UNL     C9   10   0.051  -0.098   0.177
    1UNL     O1   11   0.105  -0.205   0.185
    1UNL     O2   12   0.003  -0.029   0.284
    1UNL    C10   13   0.027  -0.090   0.407
    1UNL    C11   14  -0.087  -0.032  -0.013
    1UNL    C12   15  -0.185   0.062   0.057
    1UNL    C13   16  -0.205   0.175  -0.046
    1UNL     O3   17  -0.106   0.272  -0.018
    1UNL    C14   18  -0.127   0.385  -0.099
    1UNL     O4   19  -0.190   0.123  -0.178
    1UNL    C15   20  -0.090   0.016  -0.170
    1UNL     N2   21  -0.152  -0.113  -0.238
    1UNL    C16   22  -0.163  -0.219  -0.149
    1UNL    C17   23  -0.233  -0.342  -0.163
    1UNL    C18   24  -0.270  -0.414  -0.049
    1UNL    C19   25  -0.226  -0.382   0.082
    1UNL    C20   26  -0.165  -0.255   0.098
    1UNL    C21   27  -0.131  -0.182  -0.017
    1UNL     H1   28   0.547   0.132   0.115
    1UNL     H2   29   0.426   0.198   0.214
    1UNL     H3   30   0.449   0.271   0.069
    1UNL     H4   31   0.336   0.001   0.134
    1UNL     H5   32   0.323   0.185  -0.226
    1UNL     H6   33   0.253   0.281  -0.091
    1UNL     H7   34   0.040   0.207  -0.132
    1UNL     H8   35   0.051   0.017  -0.346
    1UNL     H9   36   0.224  -0.101  -0.255
    1UNL    H10   37   0.075  -0.182  -0.192
    1UNL    H11   38   0.224  -0.134   0.001
    1UNL    H12   39   0.067   0.099   0.085
    1UNL    H13   40  -0.043  -0.175   0.423
    1UNL    H14   41   0.130  -0.118   0.408
    1UNL    H15   42   0.003  -0.017   0.485
    1UNL    H16   43  -0.157   0.092   0.154
    1UNL    H17   44  -0.281   0.003   0.062
    1UNL    H18   45  -0.307   0.221  -0.036
    1UNL    H19   46  -0.058   0.466  -0.058
    1UNL    H20   47  -0.098   0.366  -0.199
    1UNL    H21   48  -0.229   0.426  -0.090
    1UNL    H22   49  -0.244  -0.072  -0.263
    1UNL    H23   50  -0.273  -0.371  -0.256
    1UNL    H24   51  -0.328  -0.504  -0.049
    1UNL    H25   52  -0.244  -0.440   0.175
    1UNL    H26   53  -0.167  -0.207   0.196
   0.00000   0.00000   0.00000   0.00000   0.00000   0.00000   0.00000   0.00000   0.00000
Generated with MDTraj, t= 90.0
 53
    1UNL     C1    1   0.460   0.202   0.052
    1UNL     C2    2   0.380   0.079   0.060
    1UNL     C3    3   0.277   0.062  -0.025
    1UNL     C4    4   0.239   0.174  -0.118
    1UNL     N1    5   0.102   0.163  -0.173
    1UNL     C5    6   0.050   0.026  -0.217
    1UNL     C6    7   0.144  -0.096  -0.171
    1UNL     C7    8   0.190  -0.061  -0.029
    1UNL     C8    9   0.066  -0.023   0.052
    1UNL     C9   10   0.081  -0.082   0.192
    1UNL     O1   11   0.136  -0.189   0.203
    1UNL     O2   12   0.008  -0.011   0.287
    1UNL    C10   13  -0.021  -0.091   0.402
    1UNL    C11   14  -0.081  -0.046  -0.004
    1UNL    C12   15  -0.188   0.056   0.055
    1UNL    C13   16  -0.201   0.169  -0.051
    1UNL     O3   17  -0.131   0.287  -0.015
    1UNL    C14   18  -0.138   0.388  -0.114
    1UNL     O4   19  -0.171   0.111  -0.177
    1UNL    C15   20  -0.092   0.001  -0.159
    1UNL     N2   21  -0.155  -0.111  -0.232
    1UNL    C16   22  -0.194  -0.203  -0.144
    1UNL    C17   23  -0.276  -0.309  -0.170
    1UNL    C18   24  -0.294  -0.410  -0.070
    1UNL    C19   25  -0.221  -0.398   0.049
    1UNL    C20   26  -0.140  -0.290   0.076
    1UNL    C21   27  -0.132  -0.188  -0.014
    1UNL     H1   28   0.507   0.217   0.145
    1UNL     H2   29   0.396   0.285   0.038
    1UNL     H3   30   0.529   0.201  -0.033
    1UNL     H4   31   0.408   0.002   0.131
    1UNL     H5   32   0.310   0.180  -0.203
    1UNL     H6   33   0.248   0.270  -0.059
    1UNL     H7   34   0.028   0.215  -0.126
    1UNL     H8   35   0.036   0.015  -0.329
    1UNL     H9   36   0.225  -0.096  -0.238
    1UNL    H10   37   0.082  -0.193  -0.176
    1UNL    H11   38   0.240  -0.148   0.017
    1UNL    H12   39   0.069   0.093   0.072
    1UNL    H13   40  -0.123  -0.130   0.402
    1UNL    H14   41   0.055  -0.165   0.404
    1UNL    H15   42  -0.018  -0.028   0.488
    1UNL    H16   43  -0.153   0.099   0.146
    1UNL    H17   44  -0.282   0.006   0.090
    1UNL    H18   45  -0.312   0.193  -0.066
    1UNL    H19   46  -0.052   0.460  -0.092
    1UNL    H20   47  -0.122   0.343  -0.208
    1UNL    H21   48  -0.234   0.442  -0.101
    1UNL    H22   49  -0.223  -0.077  -0.302
    1UNL    H23   50  -0.332  -0.325  -0.264
    1UNL    H24   51  -0.352  -0.500  -0.092
    1UNL    H25   52  -0.224  -0.480   0.114
    1UNL    H26   53  -0.097  -0.268   0.171
   0.00000   0.00000   0.00000   0.00000   0.00000   0.00000   0.00000   0.00000   0.00000
Generated with MDTraj, t= 91.0
 53
    1UNL     C1    1   0.491   0.182   0.017
    1UNL     C2    2   0.392   0.069   0.037
    1UNL     C3    3   0.271   0.068  -0.028
    1UNL     C4    4   0.234   0.178  -0.128
    1UNL     N1    5   0.113   0.164  -0.208
    1UNL     C5    6   0.060   0.025  -0.236
    1UNL     C6    7   0.151  -0.080  -0.169
    1UNL     C7    8   0.173  -0.048  -0.018
    1UNL     C8    9   0.044  -0.015   0.068
    1UNL     C9   10   0.050  -0.086   0.207
    1UNL     O1   11   0.114  -0.188   0.217
    1UNL     O2   12  -0.039  -0.039   0.297
    1UNL    C10   13  -0.005  -0.082   0.422
    1UNL    C11   14  -0.083  -0.041  -0.013
    1UNL    C12   15  -0.196   0.047   0.047
    1UNL    C13   16  -0.201   0.173  -0.047
    1UNL     O3   17  -0.124   0.283   0.000
    1UNL    C14   18  -0.141   0.397  -0.082
    1UNL     O4   19  -0.160   0.130  -0.181
    1UNL    C15   20  -0.083   0.005  -0.172
    1UNL     N2   21  -0.156  -0.107  -0.232
    1UNL    C16   22  -0.191  -0.205  -0.137
    1UNL    C17   23  -0.249  -0.327  -0.167
    1UNL    C18   24  -0.265  -0.431  -0.074
    1UNL    C19   25  -0.224  -0.398   0.053
    1UNL    C20   26  -0.152  -0.280   0.082
    1UNL    C21   27  -0.136  -0.178  -0.017
    1UNL     H1   28   0.566   0.183   0.088
    1UNL     H2   29   0.439   0.276   0.025
    1UNL     H3   30   0.537   0.178  -0.083
    1UNL     H4   31   0.414  -0.011   0.106
    1UNL     H5   32   0.320   0.182  -0.196
    1UNL     H6   33   0.231   0.275  -0.073
    1UNL     H7   34   0.041   0.205  -0.141
    1UNL     H8   35   0.055   0.012  -0.350
    1UNL     H9   36   0.244  -0.078  -0.226
    1UNL    H10   37   0.096  -0.178  -0.174
    1UNL    H11   38   0.224  -0.136   0.026
    1UNL    H12   39   0.049   0.100   0.093
    1UNL    H13   40  -0.021  -0.190   0.431
    1UNL    H14   41   0.095  -0.048   0.437
    1UNL    H15   42  -0.082  -0.041   0.488
    1UNL    H16   43  -0.168   0.076   0.150
    1UNL    H17   44  -0.287  -0.011   0.062
    1UNL    H18   45  -0.314   0.198  -0.059
    1UNL    H19   46  -0.061   0.473  -0.059
    1UNL    H20   47  -0.132   0.362  -0.181
    1UNL    H21   48  -0.239   0.441  -0.053
    1UNL    H22   49  -0.179  -0.093  -0.333
    1UNL    H23   50  -0.279  -0.354  -0.263
    1UNL    H24   51  -0.299  -0.529  -0.101
    1UNL    H25   52  -0.236  -0.466   0.139
    1UNL    H26   53  -0.097  -0.265   0.174
   0.00000   0.00000   0.00000   0.00000   0.00000   0.00000   0.00000   0.00000   0.00000
Generated with MDTraj, t= 92.0
 53
    1UNL     C1    1   0.500   0.145   0.023
    1UNL     C2    2   0.390   0.046   0.029
    1UNL     C3    3   0.269   0.065  -0.030
    1UNL     C4    4   0.244   0.183  -0.132
    1UNL     N1    5   0.107   0.171  -0.186
    1UNL     C5    6   0.044   0.036  -0.229
    1UNL     C6    7   0.138  -0.076  -0.180
    1UNL     C7    8   0.172  -0.048  -0.030
    1UNL     C8    9   0.040  -0.014   0.055
    1UNL     C9   10   0.039  -0.074   0.197
    1UNL     O1   11   0.116  -0.167   0.210
    1UNL     O2   12  -0.033  -0.012   0.304
    1UNL    C10   13  -0.027  -0.104   0.420
    1UNL    C11   14  -0.098  -0.034  -0.018
    1UNL    C12   15  -0.203   0.059   0.047
    1UNL    C13   16  -0.204   0.178  -0.044
    1UNL     O3   17  -0.114   0.272   0.003
    1UNL    C14   18  -0.115   0.390  -0.075
    1UNL     O4   19  -0.184   0.135  -0.181
    1UNL    C15   20  -0.100   0.013  -0.175
    1UNL     N2   21  -0.172  -0.104  -0.232
    1UNL    C16   22  -0.173  -0.221  -0.148
    1UNL    C17   23  -0.200  -0.356  -0.173
    1UNL    C18   24  -0.207  -0.443  -0.063
    1UNL    C19   25  -0.207  -0.396   0.068
    1UNL    C20   26  -0.178  -0.264   0.089
    1UNL    C21   27  -0.155  -0.170  -0.017
    1UNL     H1   28   0.592   0.117   0.064
    1UNL     H2   29   0.474   0.234   0.076
    1UNL     H3   30   0.524   0.179  -0.078
    1UNL     H4   31   0.405  -0.047   0.083
    1UNL     H5   32   0.315   0.181  -0.213
    1UNL     H6   33   0.262   0.276  -0.077
    1UNL     H7   34   0.039   0.216  -0.128
    1UNL     H8   35   0.043   0.052  -0.343
    1UNL     H9   36   0.231  -0.073  -0.246
    1UNL    H10   37   0.086  -0.170  -0.189
    1UNL    H11   38   0.222  -0.139   0.010
    1UNL    H12   39   0.045   0.099   0.076
    1UNL    H13   40   0.060  -0.172   0.409
    1UNL    H14   41  -0.014  -0.044   0.510
    1UNL    H15   42  -0.113  -0.174   0.417
    1UNL    H16   43  -0.171   0.093   0.150
    1UNL    H17   44  -0.299   0.014   0.054
    1UNL    H18   45  -0.311   0.226  -0.043
    1UNL    H19   46  -0.037   0.458  -0.034
    1UNL    H20   47  -0.094   0.364  -0.175
    1UNL    H21   48  -0.212   0.441  -0.059
    1UNL    H22   49  -0.235  -0.070  -0.305
    1UNL    H23   50  -0.210  -0.398  -0.276
    1UNL    H24   51  -0.234  -0.550  -0.077
    1UNL    H25   52  -0.233  -0.459   0.150
    1UNL    H26   53  -0.147  -0.226   0.187
   0.00000   0.00000   0.00000   0.00000   0.00000   0.00000   0.00000   0.00000   0.00000
Generated with MDTraj, t= 93.0
 53
    1UNL     C1    1   0.480   0.145   0.042
    1UNL     C2    2   0.386   0.030   0.039
    1UNL     C3    3   0.277   0.039  -0.039
    1UNL     C4    4   0.239   0.166  -0.105
    1UNL     N1    5   0.100   0.159  -0.155
    1UNL     C5    6   0.038   0.032  -0.219
    1UNL     C6    7   0.126  -0.082  -0.187
    1UNL     C7    8   0.170  -0.063  -0.036
    1UNL     C8    9   0.050  -0.019   0.059
    1UNL     C9   10   0.046  -0.082   0.193
    1UNL     O1   11   0.122  -0.173   0.215
    1UNL     O2   12  -0.038  -0.022   0.276
    1UNL    C10   13  -0.031  -0.078   0.409
    1UNL    C11   14  -0.091  -0.033  -0.005
    1UNL    C12   15  -0.182   0.075   0.063
    1UNL    C13   16  -0.203   0.187  -0.041
    1UNL     O3   17  -0.130   0.306  -0.012
    1UNL    C14   18  -0.134   0.398  -0.119
    1UNL     O4   19  -0.179   0.135  -0.175
    1UNL    C15   20  -0.104   0.013  -0.160
    1UNL     N2   21  -0.178  -0.094  -0.229
    1UNL    C16   22  -0.182  -0.209  -0.151
    1UNL    C17   23  -0.227  -0.341  -0.177
    1UNL    C18   24  -0.219  -0.436  -0.068
    1UNL    C19   25  -0.162  -0.401   0.056
    1UNL    C20   26  -0.126  -0.277   0.074
    1UNL    C21   27  -0.142  -0.176  -0.015
    1UNL     H1   28   0.574   0.111   0.082
    1UNL     H2   29   0.442   0.221   0.105
    1UNL     H3   30   0.496   0.185  -0.054
    1UNL     H4   31   0.403  -0.058   0.097
    1UNL     H5   32   0.304   0.175  -0.189
    1UNL     H6   33   0.249   0.252  -0.040
    1UNL     H7   34   0.026   0.204  -0.095
    1UNL     H8   35   0.034   0.050  -0.334
    1UNL     H9   36   0.220  -0.084  -0.258
    1UNL    H10   37   0.081  -0.174  -0.205
    1UNL    H11   38   0.211  -0.160  -0.001
    1UNL    H12   39   0.070   0.091   0.078
    1UNL    H13   40   0.031  -0.012   0.475
    1UNL    H14   41  -0.133  -0.062   0.448
    1UNL    H15   42   0.009  -0.184   0.414
    1UNL    H16   43  -0.136   0.127   0.152
    1UNL    H17   44  -0.276   0.033   0.092
    1UNL    H18   45  -0.313   0.226  -0.035
    1UNL    H19   46  -0.038   0.444  -0.140
    1UNL    H20   47  -0.168   0.346  -0.206
    1UNL    H21   48  -0.201   0.483  -0.091
    1UNL    H22   49  -0.266  -0.054  -0.260
    1UNL    H23   50  -0.265  -0.372  -0.269
    1UNL    H24   51  -0.257  -0.533  -0.075
    1UNL    H25   52  -0.157  -0.475   0.138
    1UNL    H26   53  -0.084  -0.254   0.168
   0.00000   0.00000   0.00000   0.00000   0.00000   0.00000   0.00000   0.00000   0.00000
Generated with MDTraj, t= 94.0
 53
    1UNL     C1    1   0.490   0.125   0.062
    1UNL     C2    2   0.372   0.042   0.049
    1UNL     C3    3   0.263   0.056  -0.029
    1UNL     C4    4   0.236   0.168  -0.123
    1UNL     N1    5   0.108   0.159  -0.200
    1UNL     C5    6   0.057   0.025  -0.225
    1UNL     C6    7   0.133  -0.096  -0.170
    1UNL     C7    8   0.164  -0.055  -0.021
    1UNL     C8    9   0.043  -0.000   0.058
    1UNL     C9   10   0.065  -0.063   0.200
    1UNL     O1   11   0.153  -0.149   0.220
    1UNL     O2   12  -0.028  -0.025   0.296
    1UNL    C10   13  -0.001  -0.081   0.422
    1UNL    C11   14  -0.093  -0.029  -0.008
    1UNL    C12   15  -0.200   0.062   0.051
    1UNL    C13   16  -0.214   0.176  -0.049
    1UNL     O3   17  -0.134   0.290  -0.016
    1UNL    C14   18  -0.161   0.397  -0.096
    1UNL     O4   19  -0.171   0.126  -0.177
    1UNL    C15   20  -0.089   0.008  -0.168
    1UNL     N2   21  -0.148  -0.105  -0.231
    1UNL    C16   22  -0.195  -0.200  -0.137
    1UNL    C17   23  -0.261  -0.320  -0.176
    1UNL    C18   24  -0.258  -0.421  -0.084
    1UNL    C19   25  -0.184  -0.408   0.032
    1UNL    C20   26  -0.123  -0.287   0.069
    1UNL    C21   27  -0.137  -0.177  -0.013
    1UNL     H1   28   0.560   0.068   0.125
    1UNL     H2   29   0.465   0.217   0.107
    1UNL     H3   30   0.536   0.144  -0.029
    1UNL     H4   31   0.372  -0.049   0.111
    1UNL     H5   32   0.307   0.186  -0.199
    1UNL     H6   33   0.220   0.251  -0.057
    1UNL     H7   34   0.035   0.208  -0.150
    1UNL     H8   35   0.053   0.008  -0.338
    1UNL     H9   36   0.228  -0.128  -0.229
    1UNL    H10   37   0.081  -0.188  -0.177
    1UNL    H11   38   0.205  -0.142   0.035
    1UNL    H12   39   0.053   0.110   0.061
    1UNL    H13   40  -0.038  -0.007   0.495
    1UNL    H14   41  -0.061  -0.172   0.435
    1UNL    H15   42   0.107  -0.102   0.437
    1UNL    H16   43  -0.163   0.102   0.148
    1UNL    H17   44  -0.296   0.013   0.068
    1UNL    H18   45  -0.322   0.215  -0.056
    1UNL    H19   46  -0.088   0.474  -0.082
    1UNL    H20   47  -0.161   0.367  -0.200
    1UNL    H21   48  -0.257   0.442  -0.066
    1UNL    H22   49  -0.204  -0.070  -0.306
    1UNL    H23   50  -0.298  -0.338  -0.278
    1UNL    H24   51  -0.291  -0.526  -0.102
    1UNL    H25   52  -0.172  -0.487   0.101
    1UNL    H26   53  -0.080  -0.281   0.169
   0.00000   0.00000   0.00000   0.00000   0.00000   0.00000   0.00000   0.00000   0.00000
Generated with MDTraj, t= 95.0
 53
    1UNL     C1    1   0.474   0.182   0.044
    1UNL     C2    2   0.391   0.061   0.040
    1UNL     C3    3   0.280   0.055  -0.035
    1UNL     C4    4   0.243   0.172  -0.128
    1UNL     N1    5   0.102   0.155  -0.177
    1UNL     C5    6   0.056   0.024  -0.224
    1UNL     C6    7   0.139  -0.090  -0.170
    1UNL     C7    8   0.183  -0.059  -0.030
    1UNL     C8    9   0.055  -0.024   0.048
    1UNL     C9   10   0.066  -0.076   0.190
    1UNL     O1   11   0.154  -0.158   0.214
    1UNL     O2   12  -0.036  -0.035   0.271
    1UNL    C10   13  -0.019  -0.055   0.406
    1UNL    C11   14  -0.094  -0.044  -0.012
    1UNL    C12   15  -0.203   0.045   0.043
    1UNL    C13   16  -0.214   0.167  -0.049
    1UNL     O3   17  -0.130   0.270   0.014
    1UNL    C14   18  -0.116   0.385  -0.060
    1UNL     O4   19  -0.175   0.131  -0.176
    1UNL    C15   20  -0.093   0.001  -0.166
    1UNL     N2   21  -0.142  -0.109  -0.243
    1UNL    C16   22  -0.177  -0.207  -0.148
    1UNL    C17   23  -0.240  -0.329  -0.175
    1UNL    C18   24  -0.263  -0.415  -0.075
    1UNL    C19   25  -0.234  -0.389   0.053
    1UNL    C20   26  -0.175  -0.268   0.090
    1UNL    C21   27  -0.145  -0.183  -0.010
    1UNL     H1   28   0.554   0.182   0.120
    1UNL     H2   29   0.421   0.272   0.059
    1UNL     H3   30   0.528   0.199  -0.044
    1UNL     H4   31   0.416  -0.028   0.092
    1UNL     H5   32   0.304   0.152  -0.212
    1UNL     H6   33   0.249   0.273  -0.093
    1UNL     H7   34   0.033   0.194  -0.112
    1UNL     H8   35   0.054   0.024  -0.339
    1UNL     H9   36   0.230  -0.119  -0.232
    1UNL    H10   37   0.091  -0.187  -0.172
    1UNL    H11   38   0.219  -0.149   0.025
    1UNL    H12   39   0.058   0.084   0.058
    1UNL    H13   40  -0.114  -0.083   0.449
    1UNL    H14   41   0.054  -0.133   0.420
    1UNL    H15   42   0.019   0.035   0.454
    1UNL    H16   43  -0.174   0.077   0.143
    1UNL    H17   44  -0.300  -0.011   0.051
    1UNL    H18   45  -0.319   0.207  -0.047
    1UNL    H19   46  -0.057   0.458  -0.011
    1UNL    H20   47  -0.069   0.360  -0.156
    1UNL    H21   48  -0.212   0.436  -0.083
    1UNL    H22   49  -0.178  -0.093  -0.335
    1UNL    H23   50  -0.255  -0.353  -0.279
    1UNL    H24   51  -0.300  -0.508  -0.101
    1UNL    H25   52  -0.257  -0.457   0.136
    1UNL    H26   53  -0.176  -0.228   0.190
   0.00000   0.00000   0.00000   0.00000   0.00000   0.00000   0.00000   0.00000   0.00000
Generated with MDTraj, t= 96.0
 53
    1UNL     C1    1   0.478   0.197   0.047
    1UNL     C2    2   0.371   0.089   0.052
    1UNL     C3    3   0.262   0.079  -0.030
    1UNL     C4    4   0.229   0.179  -0.136
    1UNL     N1    5   0.099   0.161  -0.197
    1UNL     C5    6   0.047   0.027  -0.234
    1UNL     C6    7   0.143  -0.078  -0.182
    1UNL     C7    8   0.178  -0.049  -0.028
    1UNL     C8    9   0.056  -0.019   0.062
    1UNL     C9   10   0.057  -0.085   0.198
    1UNL     O1   11   0.143  -0.166   0.225
    1UNL     O2   12  -0.040  -0.042   0.289
    1UNL    C10   13  -0.040  -0.100   0.412
    1UNL    C11   14  -0.080  -0.039  -0.014
    1UNL    C12   15  -0.186   0.055   0.050
    1UNL    C13   16  -0.179   0.176  -0.041
    1UNL     O3   17  -0.076   0.271  -0.011
    1UNL    C14   18  -0.107   0.390  -0.083
    1UNL     O4   19  -0.171   0.118  -0.171
    1UNL    C15   20  -0.093   0.001  -0.166
    1UNL     N2   21  -0.161  -0.111  -0.232
    1UNL    C16   22  -0.177  -0.228  -0.156
    1UNL    C17   23  -0.255  -0.345  -0.174
    1UNL    C18   24  -0.281  -0.420  -0.064
    1UNL    C19   25  -0.235  -0.387   0.065
    1UNL    C20   26  -0.165  -0.268   0.079
    1UNL    C21   27  -0.126  -0.193  -0.025
    1UNL     H1   28   0.573   0.157   0.078
    1UNL     H2   29   0.451   0.281   0.106
    1UNL     H3   30   0.489   0.233  -0.052
    1UNL     H4   31   0.383   0.007   0.124
    1UNL     H5   32   0.296   0.179  -0.218
    1UNL     H6   33   0.225   0.270  -0.080
    1UNL     H7   34   0.020   0.193  -0.134
    1UNL     H8   35   0.036   0.036  -0.349
    1UNL     H9   36   0.240  -0.073  -0.230
    1UNL    H10   37   0.116  -0.183  -0.207
    1UNL    H11   38   0.241  -0.127   0.022
    1UNL    H12   39   0.060   0.086   0.084
    1UNL    H13   40  -0.126  -0.161   0.422
    1UNL    H14   41   0.052  -0.154   0.419
    1UNL    H15   42  -0.038  -0.026   0.489
    1UNL    H16   43  -0.166   0.076   0.153
    1UNL    H17   44  -0.290   0.009   0.039
    1UNL    H18   45  -0.273   0.234  -0.032
    1UNL    H19   46  -0.016   0.434  -0.109
    1UNL    H20   47  -0.157   0.364  -0.180
    1UNL    H21   48  -0.165   0.467  -0.026
    1UNL    H22   49  -0.222  -0.084  -0.303
    1UNL    H23   50  -0.292  -0.367  -0.273
    1UNL    H24   51  -0.341  -0.514  -0.079
    1UNL    H25   52  -0.282  -0.445   0.143
    1UNL    H26   53  -0.157  -0.238   0.183
   0.00000   0.00000   0.00000   0.00000   0.00000   0.00000   0.00000   0.00000   0.00000
Generated with MDTraj, t= 97.0
 53
    1UNL     C1    1   0.460   0.218   0.065
    1UNL     C2    2   0.372   0.094   0.059
    1UNL     C3    3   0.281   0.066  -0.037
    1UNL     C4    4   0.255   0.155  -0.153
    1UNL     N1    5   0.114   0.143  -0.206
    1UNL     C5    6   0.059   0.006  -0.231
    1UNL     C6    7   0.146  -0.090  -0.160
    1UNL     C7    8   0.181  -0.046  -0.014
    1UNL     C8    9   0.046  -0.017   0.065
    1UNL     C9   10   0.046  -0.097   0.193
    1UNL     O1   11   0.132  -0.182   0.206
    1UNL     O2   12  -0.034  -0.069   0.299
    1UNL    C10   13  -0.012  -0.152   0.410
    1UNL    C11   14  -0.094  -0.032  -0.014
    1UNL    C12   15  -0.200   0.064   0.037
    1UNL    C13   16  -0.194   0.192  -0.058
    1UNL     O3   17  -0.117   0.302  -0.013
    1UNL    C14   18  -0.124   0.399  -0.118
    1UNL     O4   19  -0.134   0.145  -0.183
    1UNL    C15   20  -0.092   0.008  -0.171
    1UNL     N2   21  -0.181  -0.094  -0.230
    1UNL    C16   22  -0.199  -0.208  -0.137
    1UNL    C17   23  -0.280  -0.322  -0.149
    1UNL    C18   24  -0.265  -0.416  -0.054
    1UNL    C19   25  -0.196  -0.395   0.065
    1UNL    C20   26  -0.141  -0.271   0.087
    1UNL    C21   27  -0.144  -0.174  -0.016
    1UNL     H1   28   0.554   0.187   0.100
    1UNL     H2   29   0.416   0.291   0.127
    1UNL     H3   30   0.468   0.263  -0.034
    1UNL     H4   31   0.377   0.026   0.141
    1UNL     H5   32   0.318   0.114  -0.228
    1UNL     H6   33   0.269   0.261  -0.135
    1UNL     H7   34   0.054   0.194  -0.143
    1UNL     H8   35   0.045  -0.003  -0.343
    1UNL     H9   36   0.237  -0.109  -0.206
    1UNL    H10   37   0.098  -0.193  -0.153
    1UNL    H11   38   0.231  -0.126   0.045
    1UNL    H12   39   0.050   0.082   0.104
    1UNL    H13   40  -0.050  -0.249   0.385
    1UNL    H14   41   0.096  -0.150   0.425
    1UNL    H15   42  -0.058  -0.117   0.501
    1UNL    H16   43  -0.185   0.088   0.142
    1UNL    H17   44  -0.296   0.006   0.028
    1UNL    H18   45  -0.295   0.228  -0.079
    1UNL    H19   46  -0.080   0.485  -0.079
    1UNL    H20   47  -0.059   0.359  -0.200
    1UNL    H21   48  -0.226   0.421  -0.160
    1UNL    H22   49  -0.260  -0.062  -0.277
    1UNL    H23   50  -0.330  -0.340  -0.245
    1UNL    H24   51  -0.318  -0.506  -0.060
    1UNL    H25   52  -0.196  -0.474   0.139
    1UNL    H26   53  -0.078  -0.266   0.174
   0.00000   0.00000   0.00000   0.00000   0.00000   0.00000   0.00000   0.00000   0.00000
Generated with MDTraj, t= 98.0
 53
    1UNL     C1    1   0.428   0.213   0.072
    1UNL     C2    2   0.349   0.093   0.061
    1UNL     C3    3   0.266   0.062  -0.039
    1UNL     C4    4   0.263   0.150  -0.160
    1UNL     N1    5   0.122   0.148  -0.210
    1UNL     C5    6   0.063   0.016  -0.228
    1UNL     C6    7   0.145  -0.103  -0.181
    1UNL     C7    8   0.186  -0.065  -0.035
    1UNL     C8    9   0.059  -0.036   0.057
    1UNL     C9   10   0.072  -0.102   0.194
    1UNL     O1   11   0.141  -0.201   0.206
    1UNL     O2   12  -0.009  -0.047   0.290
    1UNL    C10   13  -0.016  -0.122   0.410
    1UNL    C11   14  -0.088  -0.032  -0.000
    1UNL    C12   15  -0.182   0.074   0.059
    1UNL    C13   16  -0.188   0.187  -0.042
    1UNL     O3   17  -0.122   0.309  -0.014
    1UNL    C14   18  -0.147   0.395  -0.126
    1UNL     O4   19  -0.156   0.132  -0.169
    1UNL    C15   20  -0.078   0.012  -0.156
    1UNL     N2   21  -0.146  -0.095  -0.219
    1UNL    C16   22  -0.193  -0.198  -0.136
    1UNL    C17   23  -0.258  -0.320  -0.164
    1UNL    C18   24  -0.266  -0.420  -0.069
    1UNL    C19   25  -0.227  -0.388   0.056
    1UNL    C20   26  -0.179  -0.268   0.094
    1UNL    C21   27  -0.161  -0.165  -0.002
    1UNL     H1   28   0.455   0.234   0.170
    1UNL     H2   29   0.389   0.306   0.036
    1UNL     H3   30   0.525   0.203   0.021
    1UNL     H4   31   0.362   0.015   0.137
    1UNL     H5   32   0.327   0.109  -0.236
    1UNL     H6   33   0.286   0.249  -0.123
    1UNL     H7   34   0.057   0.206  -0.151
    1UNL     H8   35   0.050   0.015  -0.339
    1UNL     H9   36   0.225  -0.130  -0.239
    1UNL    H10   37   0.080  -0.197  -0.167
    1UNL    H11   38   0.249  -0.143   0.017
    1UNL    H12   39   0.074   0.064   0.082
    1UNL    H13   40   0.039  -0.215   0.385
    1UNL    H14   41   0.045  -0.064   0.483
    1UNL    H15   42  -0.113  -0.147   0.457
    1UNL    H16   43  -0.140   0.103   0.157
    1UNL    H17   44  -0.282   0.030   0.080
    1UNL    H18   45  -0.290   0.210  -0.060
    1UNL    H19   46  -0.094   0.481  -0.104
    1UNL    H20   47  -0.104   0.339  -0.214
    1UNL    H21   48  -0.256   0.415  -0.140
    1UNL    H22   49  -0.204  -0.066  -0.293
    1UNL    H23   50  -0.280  -0.329  -0.267
    1UNL    H24   51  -0.313  -0.512  -0.105
    1UNL    H25   52  -0.234  -0.464   0.135
    1UNL    H26   53  -0.129  -0.255   0.186
   0.00000   0.00000   0.00000   0.00000   0.00000   0.00000   0.00000   0.00000   0.00000
Generated with MDTraj, t= 99.0
 53
    1UNL     C1    1   0.430   0.201   0.090
    1UNL     C2    2   0.352   0.081   0.070
    1UNL     C3    3   0.273   0.058  -0.036
    1UNL     C4    4   0.238   0.174  -0.127
    1UNL     N1    5   0.106   0.155  -0.195
    1UNL     C5    6   0.052   0.026  -0.229
    1UNL     C6    7   0.141  -0.086  -0.184
    1UNL     C7    8   0.175  -0.057  -0.035
    1UNL     C8    9   0.053  -0.022   0.052
    1UNL     C9   10   0.072  -0.093   0.179
    1UNL     O1   11   0.132  -0.196   0.196
    1UNL     O2   12  -0.005  -0.037   0.274
    1UNL    C10   13   0.015  -0.093   0.397
    1UNL    C11   14  -0.087  -0.042  -0.012
    1UNL    C12   15  -0.195   0.052   0.050
    1UNL    C13   16  -0.194   0.168  -0.055
    1UNL     O3   17  -0.095   0.273  -0.022
    1UNL    C14   18  -0.118   0.401  -0.078
    1UNL     O4   19  -0.172   0.111  -0.183
    1UNL    C15   20  -0.087   0.001  -0.166
    1UNL     N2   21  -0.135  -0.118  -0.240
    1UNL    C16   22  -0.170  -0.220  -0.144
    1UNL    C17   23  -0.247  -0.328  -0.165
    1UNL    C18   24  -0.297  -0.393  -0.051
    1UNL    C19   25  -0.251  -0.361   0.076
    1UNL    C20   26  -0.167  -0.255   0.092
    1UNL    C21   27  -0.133  -0.181  -0.015
    1UNL     H1   28   0.492   0.192   0.174
    1UNL     H2   29   0.376   0.294   0.092
    1UNL     H3   30   0.499   0.211   0.006
    1UNL     H4   31   0.353   0.012   0.151
    1UNL     H5   32   0.317   0.179  -0.200
    1UNL     H6   33   0.224   0.263  -0.068
    1UNL     H7   34   0.029   0.188  -0.136
    1UNL     H8   35   0.048   0.019  -0.340
    1UNL     H9   36   0.233  -0.080  -0.234
    1UNL    H10   37   0.096  -0.188  -0.196
    1UNL    H11   38   0.229  -0.149  -0.001
    1UNL    H12   39   0.063   0.078   0.079
    1UNL    H13   40   0.106  -0.158   0.393
    1UNL    H14   41   0.022  -0.009   0.474
    1UNL    H15   42  -0.071  -0.155   0.430
    1UNL    H16   43  -0.173   0.087   0.156
    1UNL    H17   44  -0.289  -0.004   0.057
    1UNL    H18   45  -0.290   0.207  -0.068
    1UNL    H19   46  -0.033   0.461  -0.069
    1UNL    H20   47  -0.147   0.379  -0.185
    1UNL    H21   48  -0.203   0.444  -0.025
    1UNL    H22   49  -0.173  -0.120  -0.333
    1UNL    H23   50  -0.288  -0.360  -0.264
    1UNL    H24   51  -0.364  -0.478  -0.062
    1UNL    H25   52  -0.297  -0.414   0.155
    1UNL    H26   53  -0.148  -0.215   0.194
   0.00000   0.00000   0.00000   0.00000   0.00000   0.00000   0.00000   0.00000   0.00000
