[ moleculetype ]
; name        nrexcl
res           1

[ atoms ]
;    nr  type  resnr resid  atom  cgnr     charge       mass
      1 C1        1 res   C1        1      0.000     72.000
      2 SN1       1 res   C2        2      0.000     54.000
      3 SP1       1 res   C3        3      0.000     54.000
      4 C1        1 res   C4        4      0.000     72.000

[ constraints ]
;  ai    aj   funct      b0(nm)

[ bonds ]
;  ai    aj   funct      b0(nm)          k(kJ/mol/nm^2)
    1     2     1      0.38449           1405.4
    2     3     1      0.28961          10572.2
    2     4     1      0.37614           8253.2

[ angles ]
;  ai    aj    ak  funct     th0(deg)        k(kJ/mol/rad^2)
    1     2     3     1    106.26079            31.75
    1     2     4     1    140.79766            24.24
    3     2     4     1    101.35322            19.74

[ dihedrals ]
;  ai    aj    ak    al  funct   phi0(deg)        k(kJ/mol)   mult
