[ moleculetype ]
; name        nrexcl
res           1

[ atoms ]
;    nr  type  resnr resid  atom  cgnr     charge       mass
      1 SN1       1 res   C1        1      0.000     54.000
      2 TC5       1 res   C2        2      0.000     36.000
      3 TC5       1 res   C3        3      0.000     36.000
      4 TC5       1 res   C4        4      0.000     36.000

[ constraints ]
;  ai    aj   funct      b0(nm)
    1     2     1      0.27995
    3     4     1      0.28847
    2     3     1      0.25551
    2     4     1      0.29943

[ bonds ]
;  ai    aj   funct      b0(nm)          k(kJ/mol/nm^2)

[ angles ]
;  ai    aj    ak  funct     th0(deg)        k(kJ/mol/rad^2)
    1     2     3     1    148.77479           608.76
    1     2     4     1     88.03412          1153.19
    2     3     4     1     66.47625          6319.62
    2     4     3     1     51.47671         10518.00
    3     2     4     1     62.04705          7540.62

[ dihedrals ]
;  ai    aj    ak    al  funct   phi0(deg)        k(kJ/mol)   mult
    1     2     3     4     1   -178.97581       24.081      1
    1     2     4     3     1     -0.42413       18.280      1
