[ moleculetype ]
; name        nrexcl
res           1

[ atoms ]
;    nr  type resnr resid  atom  cgnr     charge       mass
      1 SN4a      1 res   C1        1      0.000     54.000
      2 TC3       1 res   C2        2      0.000     36.000
      3 SC3       1 res   C3        3      0.000     54.000
      4 TN6d      1 res   C4        4      0.000     36.000
      5 TC5       1 res   C5        5      0.000     36.000
      6 TC5       1 res   C6        6      0.000     36.000
      7 TC5       1 res   C7        7      0.000     36.000
      8 SC3       1 res   C8        8      0.000     54.000
      9 TN6       1 res   C9        9      0.000     36.000
     10 SC4       1 res   C10      10      0.000     54.000
     11 SP2       1 res   C11      11      0.000     54.000

[ bonds ]
;  ai    aj   funct      b0(nm)        k
    1     2     1      0.33028    20000
    2     3     1      0.25361    20000
    2     8     1      0.24281    20000
    3     4     1      0.31161    20000
    3     8     1      0.33598    20000
    3     9     1      0.27684    20000
    3    10     1      0.34110    20000
    4     5     1      0.18012    20000
    5     6     1      0.25013    20000
    5     7     1      0.25042    20000
    5     8     1      0.32721    20000
    6     7     1      0.29317    20000
    8     9     1      0.23666    20000
    9    10     1      0.24305    20000
   10    11     1      0.30798    20000
