[ moleculetype ]
; name        nrexcl
res           1

[ atoms ]
;    nr  type resnr resid  atom  cgnr     charge       mass
      1 SC4       1 res   C1        1      0.000     54.000
      2 TC3       1 res   C2        2      0.000     36.000
      3 SC5       1 res   C3        3      0.000     54.000
      4 SN4a      1 res   C4        4      0.000     54.000
      5 SN4a      1 res   C5        5      0.000     54.000
      6 TP1       1 res   C6        6      0.000     36.000
      7 TN6       1 res   C7        7      0.000     36.000
      8 TN6       1 res   C8        8      0.000     36.000
      9 TN6       1 res   C9        9      0.000     36.000
     10 TC3       1 res   C10      10      0.000     36.000
     11 SC4       1 res   C11      11      0.000     54.000
     12 TC3       1 res   C12      12      0.000     36.000
     13 SC4       1 res   C13      13      0.000     54.000
     14 SC4       1 res   C14      14      0.000     54.000
     15 TC3       1 res   C15      15      0.000     36.000
     16 TN6       1 res   C16      16      0.000     36.000
     17 SN4a      1 res   C17      17      0.000     54.000
     18 TP1       1 res   C18      18      0.000     36.000
     19 TN6       1 res   C19      19      0.000     36.000
     20 TN6       1 res   C20      20      0.000     36.000
     21 SN4a      1 res   C21      21      0.000     54.000
     22 TP1       1 res   C22      22      0.000     36.000
     23 TN6       1 res   C23      23      0.000     36.000
     24 TN6       1 res   C24      24      0.000     36.000
     25 SN4a      1 res   C25      25      0.000     54.000
     26 TP1       1 res   C26      26      0.000     36.000
     27 TN6       1 res   C27      27      0.000     36.000
     28 TN6       1 res   C28      28      0.000     36.000
     29 TN6       1 res   C29      29      0.000     36.000
     30 TN6       1 res   C30      30      0.000     36.000
     31 TN6       1 res   C31      31      0.000     36.000
     32 SC4       1 res   C32      32      0.000     54.000
     33 TC3       1 res   C33      33      0.000     36.000

[ bonds ]
;  ai    aj   funct      b0(nm)        k
    1     2     1      0.29233    20000
    1     3     1      0.30220    20000
    2     3     1      0.29884    20000
    3     4     1      0.28221    20000
    3    10     1      0.36447    20000
    3    11     1      0.40140    20000
    4     5     1      0.31606    20000
    5     6     1      0.30852    20000
    5     7     1      0.27604    20000
    5     9     1      0.31044    20000
    7     8     1      0.23535    20000
    8     9     1      0.21929    20000
   10    11     1      0.26767    20000
   11    12     1      0.30511    20000
   11    13     1      0.34261    20000
   12    13     1      0.31997    20000
   13    14     1      0.36220    20000
   13    33     1      0.27213    20000
   14    15     1      0.31838    20000
   14    32     1      0.33143    20000
   14    33     1      0.37741    20000
   15    16     1      0.26238    20000
   16    17     1      0.29198    20000
   16    32     1      0.24432    20000
   17    18     1      0.28485    20000
   17    19     1      0.29159    20000
   17    31     1      0.28581    20000
   19    20     1      0.23820    20000
   20    21     1      0.26405    20000
   20    31     1      0.23724    20000
   21    22     1      0.29889    20000
   21    23     1      0.29874    20000
   21    30     1      0.28652    20000
   23    24     1      0.21572    20000
   24    25     1      0.26819    20000
   24    30     1      0.24361    20000
   25    26     1      0.31162    20000
   25    27     1      0.29434    20000
   25    29     1      0.28756    20000
   27    28     1      0.26183    20000
   28    29     1      0.25105    20000
