1TPCN00375
11
    1res  C1    1    0.236  -0.138  -0.181
    1res  C2    2    0.143   0.064   0.069
    1res  C3    3    0.405   0.079   0.036
    1res  C4    4    0.246   0.279  -0.015
    1res  C5    5   -0.032   0.333  -0.023
    1res  C6    6   -0.085   0.100   0.031
    1res  C7    7   -0.248   0.090   0.006
    1res  C8    8   -0.269  -0.068   0.060
    1res  C9    9   -0.326  -0.306   0.126
    1res  C10   10   -0.521  -0.100   0.065
    1res  C11   11    0.085  -0.207   0.090
  10.00000  10.00000  10.00000
