1TPCN04894
28
    1res  C1    1   -1.022  -0.243   0.273
    1res  C2    2   -1.137  -0.003   0.147
    1res  C3    3   -0.880  -0.073   0.100
    1res  C4    4   -1.063   0.055  -0.195
    1res  C5    5   -0.830   0.241   0.072
    1res  C6    6   -0.705   0.135  -0.144
    1res  C7    7   -0.568  -0.180  -0.055
    1res  C8    8   -0.492   0.057   0.074
    1res  C9    9   -0.245   0.003  -0.198
    1res  C10   10   -0.128  -0.157   0.020
    1res  C11   11    0.044  -0.008  -0.088
    1res  C12   12    0.237  -0.031  -0.261
    1res  C13   13    0.376   0.175  -0.409
    1res  C14   14    0.443  -0.171  -0.382
    1res  C15   15    0.505  -0.137  -0.175
    1res  C16   16    0.794  -0.066  -0.232
    1res  C17   17    1.053   0.119  -0.256
    1res  C18   18    1.014  -0.182  -0.156
    1res  C19   19    0.890  -0.127   0.049
    1res  C20   20    0.923  -0.038   0.357
    1res  C21   21    1.139  -0.008   0.508
    1res  C22   22    1.158   0.168   0.364
    1res  C23   23    1.135   0.081   0.136
    1res  C24   24    0.706  -0.221  -0.028
    1res  C25   25    0.330  -0.162  -0.008
    1res  C26   26    0.007   0.239  -0.119
    1res  C27   27    0.003   0.191   0.165
    1res  C28   28   -0.373   0.272   0.006
  10.00000  10.00000  10.00000
