1TPCN05710
39
    1res  C1    1    0.531  -0.502  -0.282
    1res  C2    2    0.575  -0.436  -0.012
    1res  C3    3    0.372  -0.256   0.066
    1res  C4    4    0.310  -0.557   0.055
    1res  C5    5    0.188  -0.531   0.282
    1res  C6    6    0.184  -0.224   0.188
    1res  C7    7   -0.001  -0.152   0.059
    1res  C8    8   -0.217  -0.291  -0.162
    1res  C9    9    0.048  -0.276  -0.241
    1res  C10   10   -0.110  -0.536  -0.235
    1res  C11   11   -0.371  -0.088  -0.272
    1res  C12   12   -0.495  -0.177   0.099
    1res  C13   13   -0.598  -0.051  -0.124
    1res  C14   14   -0.677   0.168   0.119
    1res  C15   15   -0.917  -0.016   0.123
    1res  C16   16   -0.990   0.238   0.135
    1res  C17   17   -1.243   0.221   0.191
    1res  C18   18   -1.418  -0.013   0.133
    1res  C19   19   -1.511   0.258   0.251
    1res  C20   20   -1.382   0.444   0.334
    1res  C21   21   -1.249   0.474   0.132
    1res  C22   22   -0.943   0.312  -0.123
    1res  C23   23   -0.827   0.481   0.078
    1res  C24   24   -0.582   0.229  -0.182
    1res  C25   25   -0.157   0.068  -0.160
    1res  C26   26    0.374   0.031   0.016
    1res  C27   27    0.544   0.079   0.254
    1res  C28   28    0.683   0.186   0.064
    1res  C29   29    0.889   0.077   0.251
    1res  C30   30    1.137   0.014   0.186
    1res  C31   31    1.096   0.166   0.049
    1res  C32   32    1.218   0.276  -0.106
    1res  C33   33    1.348   0.508   0.050
    1res  C34   34    1.532   0.333   0.066
    1res  C35   35    1.544   0.135  -0.062
    1res  C36   36    1.343   0.111  -0.158
    1res  C37   37    0.973   0.315   0.156
    1res  C38   38    0.635   0.135  -0.161
    1res  C39   39    0.530  -0.082  -0.130
  10.00000  10.00000  10.00000
