1TPCN05390
28
    1res  C1    1   -0.156   0.383  -0.166
    1res  C2    2   -0.298   0.237   0.100
    1res  C3    3   -0.256  -0.025   0.087
    1res  C4    4   -0.039  -0.023   0.262
    1res  C5    5    0.170  -0.179   0.284
    1res  C6    6    0.266  -0.340   0.036
    1res  C7    7    0.423  -0.218   0.235
    1res  C8    8    0.329   0.059  -0.007
    1res  C9    9    0.600  -0.212  -0.023
    1res  C10   10    0.681   0.076  -0.138
    1res  C11   11    0.774   0.270  -0.313
    1res  C12   12    0.927   0.198  -0.069
    1res  C13   13    0.926  -0.130  -0.087
    1res  C14   14    0.716  -0.042   0.205
    1res  C15   15   -0.083  -0.350   0.171
    1res  C16   16   -0.322  -0.023  -0.114
    1res  C17   17   -0.508  -0.210  -0.261
    1res  C18   18   -0.549  -0.395  -0.032
    1res  C19   19   -0.472  -0.492  -0.356
    1res  C20   20   -0.249  -0.414  -0.288
    1res  C21   21   -0.226  -0.204  -0.370
    1res  C22   22   -0.528   0.043  -0.067
    1res  C23   23   -0.513   0.210   0.060
    1res  C24   24   -0.718   0.326   0.103
    1res  C25   25   -1.005   0.191   0.120
    1res  C26   26   -0.957   0.515   0.074
    1res  C27   27   -0.795   0.589   0.232
    1res  C28   28   -0.620   0.560   0.036
  10.00000  10.00000  10.00000
