[ moleculetype ]
; name        nrexcl
res           1

[ atoms ]
;    nr  type resnr resid  atom  cgnr     charge       mass
      1 N4a       1 res   C1        1      0.000     72.000
      2 TC5       1 res   C2        2      0.000     36.000
      3 SC3       1 res   C3        3      0.000     54.000
      4 SN4a      1 res   C4        4      0.000     54.000
      5 TC5       1 res   C5        5      0.000     36.000
      6 TC5       1 res   C6        6      0.000     36.000
      7 TN2a      1 res   C7        7      0.000     36.000
      8 SN6       1 res   C8        8      0.000     54.000
      9 N3r       1 res   C9        9      0.000     72.000
     10 TC3       1 res   C10      10      0.000     36.000
     11 TC3       1 res   C11      11      0.000     36.000
     12 SN4a      1 res   C12      12      0.000     54.000
     13 SN4a      1 res   C13      13      0.000     54.000
     14 TC5       1 res   C14      14      0.000     36.000
     15 TC5       1 res   C15      15      0.000     36.000
     16 TN2a      1 res   C16      16      0.000     36.000
     17 SN4a      1 res   C17      17      0.000     54.000

[ bonds ]
;  ai    aj   funct      b0(nm)        k
    1     2     1      0.39028    20000
    2     3     1      0.25607    20000
    2     8     1      0.29250    20000
    2     9     1      0.35717    20000
    2    10     1      0.25886    20000
    2    11     1      0.24059    20000
    3     4     1      0.30402    20000
    3     8     1      0.32204    20000
    4     5     1      0.25783    20000
    5     6     1      0.26212    20000
    5     7     1      0.16726    20000
    6     7     1      0.20236    20000
    9    10     1      0.25904    20000
   10    11     1      0.29163    20000
   10    17     1      0.34216    20000
   11    12     1      0.34514    20000
   11    13     1      0.26376    20000
   13    14     1      0.26068    20000
   14    15     1      0.26220    20000
   14    16     1      0.16738    20000
   15    16     1      0.20231    20000
