[ moleculetype ]
; name        nrexcl
res           1

[ atoms ]
;    nr  type resnr resid  atom  cgnr     charge       mass
      1 TC3       1 res   C1        1      0.000     36.000
      2 TN6d      1 res   C2        2      0.000     36.000
      3 SC4       1 res   C3        3      0.000     54.000
      4 TC3       1 res   C4        4      0.000     36.000
      5 TN6       1 res   C5        5      0.000     36.000
      6 TC5       1 res   C6        6      0.000     36.000
      7 TC5       1 res   C7        7      0.000     36.000
      8 TC3       1 res   C8        8      0.000     36.000
      9 SN6       1 res   C9        9      0.000     54.000
     10 SN6       1 res   C10      10      0.000     54.000
     11 TN6       1 res   C11      11      0.000     36.000

[ bonds ]
;  ai    aj   funct      b0(nm)        k
    1     2     1      0.26784    20000
    2     3     1      0.27165    20000
    2     6     1      0.28815    20000
    3     4     1      0.29986    20000
    3     6     1      0.38436    20000
    3    10     1      0.38077    20000
    4     5     1      0.24577    20000
    5     6     1      0.28022    20000
    6     7     1      0.27528    20000
    6    10     1      0.27722    20000
    7     8     1      0.25949    20000
    7    10     1      0.27770    20000
    7    11     1      0.25483    20000
    8     9     1      0.29502    20000
    8    11     1      0.29923    20000
    9    10     1      0.40933    20000
