1TPCN03479
9
    1res  C1    1    0.510   0.077  -0.133
    1res  C2    2    0.318  -0.122  -0.061
    1res  C3    3    0.029   0.046  -0.038
    1res  C4    4   -0.115  -0.029  -0.234
    1res  C5    5   -0.121  -0.149   0.086
    1res  C6    6   -0.457  -0.099  -0.066
    1res  C7    7   -0.462   0.123   0.099
    1res  C8    8   -0.216   0.137   0.166
    1res  C9    9    0.235   0.091   0.126
  10.00000  10.00000  10.00000
