1TPCN00336
13
    1res  C1    1   -0.315  -0.282  -0.070
    1res  C2    2   -0.310   0.034   0.008
    1res  C3    3   -0.126   0.160   0.150
    1res  C4    4   -0.053   0.179  -0.130
    1res  C5    5   -0.281   0.382  -0.128
    1res  C6    6    0.056   0.088   0.035
    1res  C7    7    0.151   0.182   0.151
    1res  C8    8    0.233   0.123   0.002
    1res  C9    9    0.462   0.219   0.033
    1res  C10   10    0.369   0.069  -0.201
    1res  C11   11   -0.092  -0.090   0.154
    1res  C12   12    0.045  -0.235  -0.154
    1res  C13   13    0.207  -0.252   0.219
  10.00000  10.00000  10.00000
