[ moleculetype ]
; name        nrexcl
res           1

[ atoms ]
;    nr  type resnr resid  atom  cgnr     charge       mass
      1 TC3       1 res   C1        1      0.000     36.000
      2 TC3       1 res   C2        2      0.000     36.000
      3 TN6d      1 res   C3        3      0.000     36.000
      4 TC3       1 res   C4        4      0.000     36.000
      5 TN3r      1 res   C5        5      0.000     36.000
      6 TC5       1 res   C6        6      0.000     36.000
      7 TN6d      1 res   C7        7      0.000     36.000
      8 TC5       1 res   C8        8      0.000     36.000
      9 TC5       1 res   C9        9      0.000     36.000
     10 TC5       1 res   C10      10      0.000     36.000
     11 SC3       1 res   C11      11      0.000     54.000
     12 TP1       1 res   C12      12      0.000     36.000
     13 N4a       1 res   C13      13      0.000     72.000

[ bonds ]
;  ai    aj   funct      b0(nm)        k
    1     2     1      0.32505    20000
    2     3     1      0.26438    20000
    2    11     1      0.29054    20000
    3     4     1      0.29009    20000
    3     6     1      0.22704    20000
    3    11     1      0.25231    20000
    4     5     1      0.30584    20000
    4     6     1      0.21812    20000
    6     7     1      0.17699    20000
    6     8     1      0.18263    20000
    6    11     1      0.25992    20000
    7     8     1      0.17915    20000
    8     9     1      0.25045    20000
    8    10     1      0.25054    20000
    9    10     1      0.29285    20000
   11    12     1      0.36646    20000
   11    13     1      0.34602    20000
