[ moleculetype ]
; name        nrexcl
res           1

[ atoms ]
;    nr  type  resnr resid  atom  cgnr     charge       mass
      1 SX4e      1 res   C1        1      0.000     54.000
      2 TC5       1 res   C2        2      0.000     36.000
      3 SN6d      1 res   C3        3      0.000     54.000
      4 SX3       1 res   C4        4      0.000     54.000

[ bonds ]
;  ai    aj   funct      b0(nm)          k(kJ/mol/nm^2)
    1     2     1      0.23903          42812.4
    2     3     1      0.36362          98277.0
    2     4     1      0.27255          92833.5
    3     4     1      0.31284         140179.6

[ angles ]
;  ai    aj    ak  funct     th0(deg)        k(kJ/mol/rad^2)
    1     2     3     1     90.23693          1496.89
    1     2     4     1    146.78273          1405.10
    2     3     4     1     46.77404          6318.37
    2     4     3     1     76.46404          3628.89
    3     2     4     1     56.76192          5624.00

[ dihedrals ]
;  ai    aj    ak    al  funct   phi0(deg)        k(kJ/mol)   mult
    1     2     3     4     1     -0.00649        7.830      1
    1     2     3     4     1    179.98667        7.715      2
    1     2     3     4     1     -0.02089        7.526      3
    1     2     4     3     1   -179.08898       14.321      1
    1     2     4     3     1   -178.18337       13.562      2
    1     2     4     3     1   -177.28984       12.353      3
