1TPCN00372
13
    1res  C1    1    0.271  -0.232   0.076
    1res  C2    2   -0.025  -0.331   0.255
    1res  C3    3   -0.095  -0.114   0.101
    1res  C4    4    0.081  -0.099  -0.042
    1res  C5    5    0.160   0.099  -0.025
    1res  C6    6    0.367   0.187   0.187
    1res  C7    7    0.379   0.208  -0.198
    1res  C8    8    0.103   0.201  -0.239
    1res  C9    9   -0.251  -0.114  -0.145
    1res  C10   10   -0.531   0.073   0.001
    1res  C11   11   -0.607   0.307   0.080
    1res  C12   12   -0.332   0.300  -0.015
    1res  C13   13   -0.001  -0.376  -0.088
  10.00000  10.00000  10.00000
