1TPCN03552
36
    1res  C1    1    1.462   0.159   0.013
    1res  C2    2    1.155   0.154  -0.079
    1res  C3    3    0.955   0.067  -0.076
    1res  C4    4    1.089  -0.257   0.110
    1res  C5    5    0.701   0.112  -0.014
    1res  C6    6    0.800  -0.149  -0.268
    1res  C7    7    0.660  -0.163   0.116
    1res  C8    8    0.730  -0.493  -0.014
    1res  C9    9    0.464  -0.173  -0.084
    1res  C10   10    0.363   0.089  -0.198
    1res  C11   11    0.344   0.070   0.125
    1res  C12   12    0.082  -0.110  -0.029
    1res  C13   13   -0.072   0.076  -0.128
    1res  C14   14   -0.207   0.107   0.082
    1res  C15   15   -0.417  -0.059  -0.060
    1res  C16   16   -0.392  -0.351  -0.222
    1res  C17   17   -0.628  -0.147  -0.221
    1res  C18   18   -0.656   0.067  -0.118
    1res  C19   19   -0.940   0.145  -0.106
    1res  C20   20   -1.120   0.212   0.070
    1res  C21   21   -0.978   0.092   0.184
    1res  C22   22   -0.924  -0.082   0.051
    1res  C23   23   -1.063  -0.242   0.104
    1res  C24   24   -1.363  -0.252  -0.009
    1res  C25   25   -1.269  -0.499  -0.078
    1res  C26   26   -1.090  -0.548   0.070
    1res  C27   27   -0.925  -0.391  -0.001
    1res  C28   28   -0.474   0.166  -0.088
    1res  C29   29   -0.430   0.450   0.031
    1res  C30   30   -0.711   0.489   0.074
    1res  C31   31   -0.550   0.688  -0.096
    1res  C32   32   -0.337   0.570  -0.179
    1res  C33   33   -0.479   0.367  -0.248
    1res  C34   34   -0.149  -0.090   0.224
    1res  C35   35    0.215  -0.170   0.210
    1res  C36   36    0.884   0.235   0.173
  10.00000  10.00000  10.00000
