1TPCN04634
15
    1res  C1    1   -0.706  -0.149   0.116
    1res  C2    2   -0.647   0.098   0.241
    1res  C3    3   -0.381   0.100   0.199
    1res  C4    4   -0.405   0.250  -0.035
    1res  C5    5   -0.347  -0.058  -0.148
    1res  C6    6   -0.158  -0.184  -0.001
    1res  C7    7   -0.080   0.085  -0.234
    1res  C8    8    0.060   0.244  -0.034
    1res  C9    9    0.138  -0.003   0.018
    1res  C10   10    0.417   0.147  -0.087
    1res  C11   11    0.290  -0.152  -0.192
    1res  C12   12    0.691  -0.229  -0.182
    1res  C13   13    0.654  -0.187   0.101
    1res  C14   14    0.633   0.044   0.302
    1res  C15   15    0.818   0.066   0.081
  10.00000  10.00000  10.00000
