[ moleculetype ]
; name        nrexcl
res           1

[ atoms ]
;    nr  type  resnr resid  atom  cgnr     charge       mass
      1 TC3       1 res   C1        1      0.000     36.000
      2 SC5       1 res   C2        2      0.000     54.000
      3 TN4a      1 res   C3        3      0.000     36.000
      4 TN6       1 res   C4        4      0.000     36.000
      5 TN6a      1 res   C5        5      0.000     36.000
      6 SN6d      1 res   C6        6      0.000     54.000
      7 TC3       1 res   C7        7      0.000     36.000
      8 TC5       1 res   C8        8      0.000     36.000
      9 TN6d      1 res   C9        9      0.000     36.000
     10 TC5       1 res   C10      10      0.000     36.000
     11 TC5       1 res   C11      11      0.000     36.000
     12 TC5       1 res   C12      12      0.000     36.000

[ bonds ]
;  ai    aj   funct      b0(nm)          k(kJ/mol/nm^2)
    1     2     1      0.35019          68411.8
    2     3     1      0.26131          85170.0
    2     4     1      0.31270          60099.1
    2     5     1      0.30499          80538.0
    2     6     1      0.24177          81395.4
    3     4     1      0.33311          61451.3
    5     6     1      0.32001          75599.3
    6     7     1      0.36821          47750.8
    6     8     1      0.26076          31252.2
    7     8     1      0.24690          87454.9
    8     9     1      0.21823         144819.0
    8    10     1      0.18359         419957.2
    9    10     1      0.21804         198982.9
   10    11     1      0.24971         229979.1
   10    12     1      0.25017         332486.8
   11    12     1      0.29117         150162.1

[ angles ]
;  ai    aj    ak  funct     th0(deg)        k(kJ/mol/rad^2)
    1     2     3     1     61.48181          1339.96
    1     2     4     1    127.46287           630.33
    1     2     5     1    167.70183           509.00
    1     2     6     1    114.65385           223.09
    2     3     4     1     62.11217          2688.74
    2     4     3     1     47.59596          7246.08
    2     5     6     1     45.42106          5645.09
    2     6     5     1     63.99110          2934.46
    2     6     7     1    104.22210           362.27
    2     6     8     1    113.55034            25.15
    3     2     4     1     70.29181          3345.04
    3     2     5     1    110.06714           912.73
    3     2     6     1    124.50599           118.29
    4     2     5     1     43.74761          4268.49
    4     2     6     1    106.17768           535.18
    5     2     6     1     70.58795          2013.29
    5     6     7     1     54.17332          1153.24
    5     6     8     1     90.47223           135.68
    6     7     8     1     44.99742          1964.31
    6     8     7     1     92.99842          1193.31
    6     8     9     1     73.47277          1045.21
    6     8    10     1    137.44724          1015.23
    7     6     8     1     42.00413          6285.65
    7     8     9     1    163.26720           743.67
    7     8    10     1    128.72623          1319.25
    8     9    10     1     49.76828          6556.86
    8    10     9     1     65.17414          2912.04
    8    10    11     1    160.79404          1295.69
    8    10    12     1    126.86093          1369.30
    9     8    10     1     65.05764          3897.26
    9    10    11     1     96.26383          1288.81
    9    10    12     1    166.18256           715.04
   10    11    12     1     54.44556         10456.41
   10    12    11     1     54.29810          9023.25
   11    10    12     1     71.25635          5072.80
