1TPCN05023
25
    1res  C1    1   -0.623  -0.445  -0.287
    1res  C2    2   -0.631  -0.162  -0.074
    1res  C3    3   -0.549   0.127  -0.115
    1res  C4    4   -0.829   0.043   0.249
    1res  C5    5   -1.124  -0.137   0.215
    1res  C6    6   -0.441  -0.081   0.204
    1res  C7    7   -0.305   0.214   0.117
    1res  C8    8   -0.161   0.118  -0.180
    1res  C9    9   -0.114  -0.028   0.056
    1res  C10   10    0.149   0.032   0.026
    1res  C11   11    0.253   0.251  -0.086
    1res  C12   12    0.437   0.141   0.067
    1res  C13   13    0.722   0.193   0.153
    1res  C14   14    0.648   0.473   0.212
    1res  C15   15    0.866   0.351  -0.040
    1res  C16   16    0.724   0.234  -0.184
    1res  C17   17    0.694   0.054  -0.056
    1res  C18   18    0.790  -0.210  -0.148
    1res  C19   19    0.840  -0.508  -0.079
    1res  C20   20    1.007  -0.373  -0.260
    1res  C21   21    1.098  -0.154  -0.231
    1res  C22   22    0.917  -0.051  -0.278
    1res  C23   23    0.340   0.188   0.287
    1res  C24   24    0.000   0.024   0.291
    1res  C25   25   -0.573  -0.028  -0.378
  10.00000  10.00000  10.00000
