[ moleculetype ]
; name        nrexcl
res           1

[ atoms ]
;    nr  type  resnr resid  atom  cgnr     charge       mass
      1 TN1       1 res   C1        1      0.000     36.000
      2 TN6a      1 res   C2        2      0.000     36.000
      3 TC5       1 res   C3        3      0.000     36.000
      4 SN3a      1 res   C4        4      0.000     54.000
      5 SN3a      1 res   C5        5      0.000     54.000

[ bonds ]
;  ai    aj   funct      b0(nm)          k(kJ/mol/nm^2)
    1     2     1      0.28601          79838.3
    1     3     1      0.29661         107589.0
    2     3     1      0.22033         328917.2
    3     4     1      0.23497         151938.2
    3     5     1      0.23546         123939.4

[ angles ]
;  ai    aj    ak  funct     th0(deg)        k(kJ/mol/rad^2)
    1     2     3     1     70.36518          2664.76
    1     3     2     1     65.25170          2796.47
    1     3     4     1    173.27464           355.69
    1     3     5     1     74.09198          1263.99
    2     1     3     1     44.38305         10851.23
    2     3     4     1    115.83823          1030.83
    2     3     5     1    138.85169          1462.89
    4     3     5     1    104.40586           847.00

[ dihedrals ]
;  ai    aj    ak    al  funct   phi0(deg)        k(kJ/mol)   mult
    1     2     3     4     1     -0.58753       15.508      1
    1     2     3     4     1    178.66983       14.066      2
    1     2     3     4     1     -2.43113       11.883      3
    1     2     3     5     1    178.92866       15.757      1
    1     2     3     5     1    177.89029       14.654      2
    1     2     3     5     1    176.92403       12.930      3
    2     1     3     4     1    -28.14226       11.370      1
    2     1     3     4     1     27.20045       12.990      2
    2     1     3     4     1   -171.96969        6.026      3
    2     1     3     5     1     -0.01377       12.168      1
    2     1     3     5     1    179.97198       11.671      2
    2     1     3     5     1     -0.04328       10.874      3
