Generated with MDTraj, t= 0.0
 67
    1UNL     C1    1  -0.253  -0.263  -0.094
    1UNL     C2    2  -0.133  -0.209  -0.092
    1UNL     C3    3  -0.105  -0.063  -0.069
    1UNL     C4    4  -0.213   0.028  -0.134
    1UNL     O1    5  -0.340  -0.003  -0.078
    1UNL     C5    6  -0.446   0.061  -0.145
    1UNL     O2    7  -0.467   0.198  -0.105
    1UNL     C6    8  -0.477   0.212   0.038
    1UNL     C7    9  -0.340   0.236   0.102
    1UNL     O3   10  -0.341   0.227   0.242
    1UNL     C8   11  -0.550   0.090   0.102
    1UNL     O4   12  -0.610   0.124   0.226
    1UNL     C9   13  -0.654   0.036   0.000
    1UNL     O5   14  -0.741   0.139  -0.041
    1UNL    C10   15  -0.579  -0.021  -0.123
    1UNL     O6   16  -0.551  -0.159  -0.109
    1UNL     O7   17  -0.185   0.169  -0.131
    1UNL    C11   18  -0.053   0.204  -0.137
    1UNL    C12   19   0.054   0.123  -0.131
    1UNL    C13   20   0.188   0.180  -0.133
    1UNL     O8   21   0.203   0.301  -0.148
    1UNL     N1   22   0.299   0.097  -0.117
    1UNL    C14   23   0.431   0.159  -0.114
    1UNL    C15   24   0.494   0.139   0.023
    1UNL    C16   25   0.494  -0.006   0.062
    1UNL    C17   26   0.593  -0.054   0.148
    1UNL    C18   27   0.601  -0.187   0.184
    1UNL     O9   28   0.697  -0.240   0.270
    1UNL    C19   29   0.799  -0.151   0.309
    1UNL    C20   30   0.505  -0.277   0.131
    1UNL    O10   31   0.512  -0.411   0.164
    1UNL    C21   32   0.407  -0.228   0.045
    1UNL    C22   33   0.399  -0.094   0.011
    1UNL    C23   34   0.288  -0.048  -0.082
    1UNL    C24   35   0.149  -0.080  -0.025
    1UNL    C25   36   0.038  -0.025  -0.117
    1UNL     H1   37  -0.267  -0.368  -0.109
    1UNL     H2   38  -0.342  -0.204  -0.083
    1UNL     H3   39  -0.048  -0.273  -0.105
    1UNL     H4   40  -0.111  -0.044   0.039
    1UNL     H5   41  -0.219   0.001  -0.241
    1UNL     H6   42  -0.421   0.063  -0.252
    1UNL     H7   43  -0.540   0.300   0.056
    1UNL     H8   44  -0.303   0.336   0.075
    1UNL     H9   45  -0.267   0.166   0.062
    1UNL    H10   46  -0.338   0.133   0.271
    1UNL    H11   47  -0.475   0.011   0.121
    1UNL    H12   48  -0.551   0.185   0.276
    1UNL    H13   49  -0.716  -0.040   0.048
    1UNL    H14   50  -0.688   0.208  -0.086
    1UNL    H15   51  -0.643  -0.009  -0.212
    1UNL    H16   52  -0.635  -0.209  -0.094
    1UNL    H17   53  -0.037   0.310  -0.144
    1UNL    H18   54   0.420   0.265  -0.140
    1UNL    H19   55   0.493   0.113  -0.192
    1UNL    H20   56   0.596   0.179   0.026
    1UNL    H21   57   0.436   0.196   0.098
    1UNL    H22   58   0.664   0.016   0.187
    1UNL    H23   59   0.871  -0.206   0.369
    1UNL    H24   60   0.756  -0.071   0.369
    1UNL    H25   61   0.849  -0.111   0.221
    1UNL    H26   62   0.440  -0.461   0.120
    1UNL    H27   63   0.336  -0.297   0.004
    1UNL    H28   64   0.300  -0.102  -0.177
    1UNL    H29   65   0.137  -0.187  -0.008
    1UNL    H30   66   0.140  -0.033   0.074
    1UNL    H31   67   0.051  -0.069  -0.217
   0.00000   0.00000   0.00000   0.00000   0.00000   0.00000   0.00000   0.00000   0.00000
Generated with MDTraj, t= 1.0
 67
    1UNL     C1    1  -0.236  -0.293  -0.114
    1UNL     C2    2  -0.145  -0.207  -0.171
    1UNL     C3    3  -0.107  -0.073  -0.111
    1UNL     C4    4  -0.218   0.030  -0.151
    1UNL     O1    5  -0.345  -0.031  -0.117
    1UNL     C5    6  -0.447   0.061  -0.146
    1UNL     O2    7  -0.438   0.186  -0.078
    1UNL     C6    8  -0.450   0.185   0.067
    1UNL     C7    9  -0.316   0.159   0.134
    1UNL     O3   10  -0.306   0.192   0.269
    1UNL     C8   11  -0.564   0.089   0.113
    1UNL     O4   12  -0.623   0.147   0.227
    1UNL     C9   13  -0.667   0.069  -0.003
    1UNL     O5   14  -0.725   0.194  -0.053
    1UNL    C10   15  -0.587  -0.003  -0.116
    1UNL     O6   16  -0.589  -0.144  -0.086
    1UNL     O7   17  -0.194   0.161  -0.102
    1UNL    C11   18  -0.060   0.190  -0.110
    1UNL    C12   19   0.052   0.115  -0.134
    1UNL    C13   20   0.181   0.174  -0.137
    1UNL     O8   21   0.198   0.295  -0.149
    1UNL     N1   22   0.301   0.096  -0.124
    1UNL    C14   23   0.431   0.161  -0.136
    1UNL    C15   24   0.509   0.147   0.010
    1UNL    C16   25   0.502  -0.002   0.048
    1UNL    C17   26   0.596  -0.042   0.139
    1UNL    C18   27   0.598  -0.166   0.194
    1UNL     O9   28   0.699  -0.222   0.277
    1UNL    C19   29   0.780  -0.127   0.350
    1UNL    C20   30   0.496  -0.266   0.149
    1UNL    O10   31   0.498  -0.394   0.204
    1UNL    C21   32   0.405  -0.226   0.052
    1UNL    C22   33   0.403  -0.091   0.004
    1UNL    C23   34   0.296  -0.049  -0.097
    1UNL    C24   35   0.145  -0.097  -0.057
    1UNL    C25   36   0.039  -0.032  -0.141
    1UNL     H1   37  -0.234  -0.400  -0.141
    1UNL     H2   38  -0.273  -0.269  -0.015
    1UNL     H3   39  -0.103  -0.232  -0.271
    1UNL     H4   40  -0.122  -0.086  -0.003
    1UNL     H5   41  -0.211   0.046  -0.257
    1UNL     H6   42  -0.429   0.081  -0.256
    1UNL     H7   43  -0.492   0.287   0.087
    1UNL     H8   44  -0.238   0.213   0.078
    1UNL     H9   45  -0.297   0.052   0.118
    1UNL    H10   46  -0.288   0.285   0.270
    1UNL    H11   47  -0.517  -0.003   0.149
    1UNL    H12   48  -0.546   0.193   0.268
    1UNL    H13   49  -0.743   0.004   0.037
    1UNL    H14   50  -0.666   0.270  -0.035
    1UNL    H15   51  -0.640  -0.007  -0.211
    1UNL    H16   52  -0.684  -0.169  -0.108
    1UNL    H17   53  -0.031   0.300  -0.094
    1UNL    H18   54   0.410   0.267  -0.153
    1UNL    H19   55   0.480   0.108  -0.216
    1UNL    H20   56   0.605   0.201   0.005
    1UNL    H21   57   0.448   0.196   0.087
    1UNL    H22   58   0.663   0.035   0.173
    1UNL    H23   59   0.835  -0.167   0.433
    1UNL    H24   60   0.720  -0.041   0.377
    1UNL    H25   61   0.851  -0.122   0.266
    1UNL    H26   62   0.473  -0.458   0.138
    1UNL    H27   63   0.322  -0.303   0.023
    1UNL    H28   64   0.326  -0.092  -0.193
    1UNL    H29   65   0.131  -0.205  -0.068
    1UNL    H30   66   0.133  -0.075   0.049
    1UNL    H31   67   0.047  -0.059  -0.246
   0.00000   0.00000   0.00000   0.00000   0.00000   0.00000   0.00000   0.00000   0.00000
Generated with MDTraj, t= 2.0
 67
    1UNL     C1    1  -0.216  -0.316  -0.164
    1UNL     C2    2  -0.113  -0.230  -0.182
    1UNL     C3    3  -0.099  -0.089  -0.125
    1UNL     C4    4  -0.216   0.006  -0.155
    1UNL     O1    5  -0.338  -0.028  -0.088
    1UNL     C5    6  -0.440   0.067  -0.124
    1UNL     O2    7  -0.420   0.190  -0.053
    1UNL     C6    8  -0.435   0.180   0.087
    1UNL     C7    9  -0.310   0.126   0.155
    1UNL     O3   10  -0.328   0.135   0.294
    1UNL     C8   11  -0.568   0.107   0.122
    1UNL     O4   12  -0.627   0.154   0.242
    1UNL     C9   13  -0.658   0.095   0.001
    1UNL     O5   14  -0.691   0.226  -0.045
    1UNL    C10   15  -0.583   0.015  -0.112
    1UNL     O6   16  -0.580  -0.125  -0.083
    1UNL     O7   17  -0.184   0.145  -0.129
    1UNL    C11   18  -0.055   0.192  -0.128
    1UNL    C12   19   0.055   0.115  -0.144
    1UNL    C13   20   0.189   0.166  -0.140
    1UNL     O8   21   0.202   0.286  -0.125
    1UNL     N1   22   0.304   0.084  -0.149
    1UNL    C14   23   0.425   0.145  -0.162
    1UNL    C15   24   0.498   0.149  -0.021
    1UNL    C16   25   0.496   0.005   0.038
    1UNL    C17   26   0.587  -0.029   0.139
    1UNL    C18   27   0.582  -0.154   0.196
    1UNL     O9   28   0.681  -0.203   0.287
    1UNL    C19   29   0.740  -0.100   0.368
    1UNL    C20   30   0.482  -0.247   0.162
    1UNL    O10   31   0.483  -0.379   0.212
    1UNL    C21   32   0.382  -0.211   0.065
    1UNL    C22   33   0.392  -0.085  -0.000
    1UNL    C23   34   0.301  -0.061  -0.117
    1UNL    C24   35   0.148  -0.103  -0.078
    1UNL    C25   36   0.038  -0.037  -0.162
    1UNL     H1   37  -0.225  -0.408  -0.219
    1UNL     H2   38  -0.287  -0.278  -0.095
    1UNL     H3   39  -0.033  -0.257  -0.241
    1UNL     H4   40  -0.100  -0.092  -0.017
    1UNL     H5   41  -0.229   0.007  -0.260
    1UNL     H6   42  -0.406   0.104  -0.227
    1UNL     H7   43  -0.451   0.284   0.131
    1UNL     H8   44  -0.216   0.173   0.117
    1UNL     H9   45  -0.296   0.018   0.134
    1UNL    H10   46  -0.424   0.115   0.324
    1UNL    H11   47  -0.539   0.006   0.152
    1UNL    H12   48  -0.708   0.212   0.221
    1UNL    H13   49  -0.753   0.051   0.027
    1UNL    H14   50  -0.610   0.287  -0.034
    1UNL    H15   51  -0.637   0.031  -0.207
    1UNL    H16   52  -0.668  -0.161  -0.112
    1UNL    H17   53  -0.037   0.295  -0.110
    1UNL    H18   54   0.409   0.244  -0.205
    1UNL    H19   55   0.479   0.073  -0.222
    1UNL    H20   56   0.605   0.162  -0.047
    1UNL    H21   57   0.469   0.237   0.039
    1UNL    H22   58   0.664   0.048   0.159
    1UNL    H23   59   0.815  -0.144   0.433
    1UNL    H24   60   0.658  -0.056   0.424
    1UNL    H25   61   0.793  -0.038   0.293
    1UNL    H26   62   0.410  -0.433   0.183
    1UNL    H27   63   0.315  -0.278   0.029
    1UNL    H28   64   0.341  -0.109  -0.205
    1UNL    H29   65   0.152  -0.212  -0.093
    1UNL    H30   66   0.141  -0.088   0.029
    1UNL    H31   67   0.061  -0.057  -0.265
   0.00000   0.00000   0.00000   0.00000   0.00000   0.00000   0.00000   0.00000   0.00000
Generated with MDTraj, t= 3.0
 67
    1UNL     C1    1  -0.270  -0.265  -0.179
    1UNL     C2    2  -0.140  -0.221  -0.179
    1UNL     C3    3  -0.096  -0.090  -0.116
    1UNL     C4    4  -0.205   0.016  -0.157
    1UNL     O1    5  -0.326  -0.016  -0.096
    1UNL     C5    6  -0.430   0.079  -0.114
    1UNL     O2    7  -0.412   0.195  -0.033
    1UNL     C6    8  -0.429   0.170   0.110
    1UNL     C7    9  -0.304   0.094   0.164
    1UNL     O3   10  -0.331   0.060   0.297
    1UNL     C8   11  -0.568   0.103   0.136
    1UNL     O4   12  -0.640   0.154   0.243
    1UNL     C9   13  -0.657   0.101   0.007
    1UNL     O5   14  -0.680   0.236  -0.045
    1UNL    C10   15  -0.571   0.021  -0.104
    1UNL     O6   16  -0.563  -0.121  -0.082
    1UNL     O7   17  -0.175   0.156  -0.156
    1UNL    C11   18  -0.047   0.182  -0.141
    1UNL    C12   19   0.058   0.101  -0.145
    1UNL    C13   20   0.187   0.161  -0.148
    1UNL     O8   21   0.218   0.279  -0.133
    1UNL     N1   22   0.301   0.074  -0.165
    1UNL    C14   23   0.435   0.137  -0.170
    1UNL    C15   24   0.503   0.137  -0.039
    1UNL    C16   25   0.497  -0.002   0.025
    1UNL    C17   26   0.573  -0.019   0.137
    1UNL    C18   27   0.578  -0.143   0.201
    1UNL     O9   28   0.656  -0.179   0.313
    1UNL    C19   29   0.697  -0.058   0.378
    1UNL    C20   30   0.486  -0.244   0.159
    1UNL    O10   31   0.466  -0.358   0.230
    1UNL    C21   32   0.400  -0.222   0.049
    1UNL    C22   33   0.403  -0.103  -0.020
    1UNL    C23   34   0.300  -0.069  -0.122
    1UNL    C24   35   0.159  -0.110  -0.084
    1UNL    C25   36   0.044  -0.048  -0.163
    1UNL     H1   37  -0.298  -0.356  -0.232
    1UNL     H2   38  -0.350  -0.194  -0.152
    1UNL     H3   39  -0.063  -0.303  -0.200
    1UNL     H4   40  -0.101  -0.093  -0.009
    1UNL     H5   41  -0.227   0.002  -0.259
    1UNL     H6   42  -0.414   0.116  -0.222
    1UNL     H7   43  -0.417   0.278   0.149
    1UNL     H8   44  -0.218   0.166   0.172
    1UNL     H9   45  -0.259   0.014   0.100
    1UNL    H10   46  -0.374  -0.031   0.306
    1UNL    H11   47  -0.544  -0.003   0.153
    1UNL    H12   48  -0.587   0.200   0.313
    1UNL    H13   49  -0.751   0.056   0.024
    1UNL    H14   50  -0.600   0.283  -0.024
    1UNL    H15   51  -0.630   0.026  -0.197
    1UNL    H16   52  -0.622  -0.170  -0.021
    1UNL    H17   53  -0.029   0.283  -0.130
    1UNL    H18   54   0.422   0.243  -0.198
    1UNL    H19   55   0.503   0.094  -0.239
    1UNL    H20   56   0.601   0.189  -0.034
    1UNL    H21   57   0.439   0.198   0.031
    1UNL    H22   58   0.636   0.057   0.168
    1UNL    H23   59   0.679  -0.091   0.481
    1UNL    H24   60   0.623   0.018   0.353
    1UNL    H25   61   0.805  -0.026   0.370
    1UNL    H26   62   0.372  -0.385   0.232
    1UNL    H27   63   0.346  -0.307   0.013
    1UNL    H28   64   0.328  -0.112  -0.217
    1UNL    H29   65   0.157  -0.220  -0.093
    1UNL    H30   66   0.147  -0.084   0.020
    1UNL    H31   67   0.062  -0.058  -0.269
   0.00000   0.00000   0.00000   0.00000   0.00000   0.00000   0.00000   0.00000   0.00000
Generated with MDTraj, t= 4.0
 67
    1UNL     C1    1  -0.260  -0.256  -0.158
    1UNL     C2    2  -0.134  -0.204  -0.172
    1UNL     C3    3  -0.100  -0.069  -0.127
    1UNL     C4    4  -0.209   0.036  -0.171
    1UNL     O1    5  -0.326  -0.003  -0.107
    1UNL     C5    6  -0.429   0.097  -0.109
    1UNL     O2    7  -0.412   0.197  -0.010
    1UNL     C6    8  -0.432   0.145   0.123
    1UNL     C7    9  -0.320   0.048   0.155
    1UNL     O3   10  -0.299   0.015   0.291
    1UNL     C8   11  -0.578   0.085   0.144
    1UNL     O4   12  -0.641   0.147   0.257
    1UNL     C9   13  -0.654   0.099   0.010
    1UNL     O5   14  -0.697   0.231  -0.015
    1UNL    C10   15  -0.569   0.036  -0.107
    1UNL     O6   16  -0.558  -0.107  -0.089
    1UNL     O7   17  -0.163   0.172  -0.135
    1UNL    C11   18  -0.029   0.196  -0.151
    1UNL    C12   19   0.074   0.112  -0.169
    1UNL    C13   20   0.207   0.159  -0.177
    1UNL     O8   21   0.235   0.278  -0.172
    1UNL     N1   22   0.311   0.059  -0.183
    1UNL    C14   23   0.446   0.115  -0.196
    1UNL    C15   24   0.519   0.118  -0.068
    1UNL    C16   25   0.490  -0.005   0.019
    1UNL    C17   26   0.565  -0.020   0.135
    1UNL    C18   27   0.562  -0.134   0.217
    1UNL     O9   28   0.631  -0.160   0.335
    1UNL    C19   29   0.652  -0.038   0.413
    1UNL    C20   30   0.470  -0.239   0.173
    1UNL    O10   31   0.488  -0.361   0.233
    1UNL    C21   32   0.381  -0.213   0.067
    1UNL    C22   33   0.399  -0.103  -0.015
    1UNL    C23   34   0.298  -0.083  -0.123
    1UNL    C24   35   0.155  -0.116  -0.096
    1UNL    C25   36   0.048  -0.037  -0.174
    1UNL     H1   37  -0.279  -0.356  -0.190
    1UNL     H2   38  -0.347  -0.210  -0.114
    1UNL     H3   39  -0.066  -0.268  -0.217
    1UNL     H4   40  -0.111  -0.078  -0.021
    1UNL     H5   41  -0.231   0.028  -0.274
    1UNL     H6   42  -0.400   0.154  -0.204
    1UNL     H7   43  -0.421   0.246   0.180
    1UNL     H8   44  -0.220   0.073   0.110
    1UNL     H9   45  -0.346  -0.041   0.093
    1UNL    H10   46  -0.381   0.011   0.338
    1UNL    H11   47  -0.577  -0.020   0.180
    1UNL    H12   48  -0.580   0.210   0.299
    1UNL    H13   49  -0.749   0.056   0.027
    1UNL    H14   50  -0.609   0.283  -0.013
    1UNL    H15   51  -0.633   0.059  -0.196
    1UNL    H16   52  -0.646  -0.151  -0.073
    1UNL    H17   53  -0.009   0.307  -0.157
    1UNL    H18   54   0.443   0.214  -0.247
    1UNL    H19   55   0.503   0.046  -0.251
    1UNL    H20   56   0.629   0.123  -0.085
    1UNL    H21   57   0.499   0.216  -0.016
    1UNL    H22   58   0.636   0.059   0.168
    1UNL    H23   59   0.746  -0.064   0.466
    1UNL    H24   60   0.559  -0.034   0.475
    1UNL    H25   61   0.665   0.065   0.370
    1UNL    H26   62   0.404  -0.417   0.224
    1UNL    H27   63   0.305  -0.299   0.042
    1UNL    H28   64   0.320  -0.144  -0.208
    1UNL    H29   65   0.132  -0.224  -0.108
    1UNL    H30   66   0.141  -0.090   0.009
    1UNL    H31   67   0.056  -0.063  -0.279
   0.00000   0.00000   0.00000   0.00000   0.00000   0.00000   0.00000   0.00000   0.00000
Generated with MDTraj, t= 5.0
 67
    1UNL     C1    1  -0.242  -0.262  -0.137
    1UNL     C2    2  -0.141  -0.188  -0.188
    1UNL     C3    3  -0.099  -0.070  -0.126
    1UNL     C4    4  -0.196   0.050  -0.153
    1UNL     O1    5  -0.322   0.005  -0.119
    1UNL     C5    6  -0.423   0.108  -0.113
    1UNL     O2    7  -0.407   0.196   0.002
    1UNL     C6    8  -0.423   0.131   0.129
    1UNL     C7    9  -0.312   0.035   0.159
    1UNL     O3   10  -0.294  -0.026   0.288
    1UNL     C8   11  -0.568   0.068   0.150
    1UNL     O4   12  -0.623   0.142   0.258
    1UNL     C9   13  -0.648   0.094   0.022
    1UNL     O5   14  -0.683   0.233   0.010
    1UNL    C10   15  -0.566   0.048  -0.109
    1UNL     O6   16  -0.562  -0.094  -0.115
    1UNL     O7   17  -0.150   0.176  -0.096
    1UNL    C11   18  -0.020   0.204  -0.140
    1UNL    C12   19   0.075   0.114  -0.173
    1UNL    C13   20   0.215   0.145  -0.208
    1UNL     O8   21   0.241   0.262  -0.229
    1UNL     N1   22   0.316   0.044  -0.201
    1UNL    C14   23   0.452   0.100  -0.216
    1UNL    C15   24   0.497   0.129  -0.071
    1UNL    C16   25   0.491   0.002   0.015
    1UNL    C17   26   0.575  -0.021   0.125
    1UNL    C18   27   0.550  -0.125   0.211
    1UNL     O9   28   0.632  -0.138   0.323
    1UNL    C19   29   0.589  -0.062   0.439
    1UNL    C20   30   0.456  -0.223   0.178
    1UNL    O10   31   0.446  -0.333   0.262
    1UNL    C21   32   0.382  -0.213   0.064
    1UNL    C22   33   0.394  -0.097  -0.016
    1UNL    C23   34   0.301  -0.085  -0.127
    1UNL    C24   35   0.154  -0.103  -0.082
    1UNL    C25   36   0.044  -0.036  -0.171
    1UNL     H1   37  -0.258  -0.367  -0.166
    1UNL     H2   38  -0.292  -0.239  -0.045
    1UNL     H3   39  -0.103  -0.233  -0.284
    1UNL     H4   40  -0.095  -0.084  -0.019
    1UNL     H5   41  -0.197   0.071  -0.259
    1UNL     H6   42  -0.396   0.172  -0.202
    1UNL     H7   43  -0.414   0.218   0.209
    1UNL     H8   44  -0.222   0.095   0.137
    1UNL     H9   45  -0.303  -0.046   0.084
    1UNL    H10   46  -0.370  -0.016   0.343
    1UNL    H11   47  -0.569  -0.041   0.171
    1UNL    H12   48  -0.701   0.095   0.291
    1UNL    H13   49  -0.736   0.037   0.010
    1UNL    H14   50  -0.602   0.282   0.018
    1UNL    H15   51  -0.625   0.064  -0.205
    1UNL    H16   52  -0.651  -0.138  -0.129
    1UNL    H17   53   0.002   0.313  -0.153
    1UNL    H18   54   0.465   0.189  -0.285
    1UNL    H19   55   0.507   0.021  -0.258
    1UNL    H20   56   0.604   0.162  -0.077
    1UNL    H21   57   0.440   0.215  -0.025
    1UNL    H22   58   0.633   0.061   0.158
    1UNL    H23   59   0.650  -0.107   0.519
    1UNL    H24   60   0.479  -0.070   0.442
    1UNL    H25   61   0.611   0.046   0.439
    1UNL    H26   62   0.419  -0.416   0.208
    1UNL    H27   63   0.315  -0.286   0.037
    1UNL    H28   64   0.323  -0.169  -0.190
    1UNL    H29   65   0.136  -0.210  -0.067
    1UNL    H30   66   0.149  -0.053   0.016
    1UNL    H31   67   0.064  -0.075  -0.270
   0.00000   0.00000   0.00000   0.00000   0.00000   0.00000   0.00000   0.00000   0.00000
Generated with MDTraj, t= 6.0
 67
    1UNL     C1    1  -0.251  -0.274  -0.136
    1UNL     C2    2  -0.155  -0.208  -0.200
    1UNL     C3    3  -0.095  -0.083  -0.132
    1UNL     C4    4  -0.191   0.039  -0.147
    1UNL     O1    5  -0.322   0.007  -0.101
    1UNL     C5    6  -0.415   0.116  -0.107
    1UNL     O2    7  -0.396   0.201   0.000
    1UNL     C6    8  -0.410   0.139   0.126
    1UNL     C7    9  -0.292   0.049   0.174
    1UNL     O3   10  -0.319  -0.028   0.289
    1UNL     C8   11  -0.542   0.061   0.136
    1UNL     O4   12  -0.597   0.072   0.271
    1UNL     C9   13  -0.638   0.106   0.017
    1UNL     O5   14  -0.655   0.249   0.031
    1UNL    C10   15  -0.566   0.067  -0.114
    1UNL     O6   16  -0.557  -0.073  -0.133
    1UNL     O7   17  -0.145   0.159  -0.085
    1UNL    C11   18  -0.020   0.191  -0.134
    1UNL    C12   19   0.070   0.098  -0.175
    1UNL    C13   20   0.201   0.143  -0.217
    1UNL     O8   21   0.225   0.256  -0.252
    1UNL     N1   22   0.306   0.053  -0.197
    1UNL    C14   23   0.448   0.098  -0.220
    1UNL    C15   24   0.529   0.128  -0.088
    1UNL    C16   25   0.494   0.009   0.005
    1UNL    C17   26   0.578  -0.013   0.112
    1UNL    C18   27   0.552  -0.106   0.210
    1UNL     O9   28   0.622  -0.099   0.330
    1UNL    C19   29   0.540  -0.130   0.447
    1UNL    C20   30   0.448  -0.198   0.192
    1UNL    O10   31   0.422  -0.296   0.286
    1UNL    C21   32   0.383  -0.197   0.070
    1UNL    C22   33   0.394  -0.086  -0.015
    1UNL    C23   34   0.299  -0.081  -0.133
    1UNL    C24   35   0.152  -0.119  -0.095
    1UNL    C25   36   0.041  -0.049  -0.183
    1UNL     H1   37  -0.317  -0.357  -0.163
    1UNL     H2   38  -0.281  -0.234  -0.041
    1UNL     H3   39  -0.129  -0.246  -0.297
    1UNL     H4   40  -0.091  -0.093  -0.025
    1UNL     H5   41  -0.196   0.077  -0.251
    1UNL     H6   42  -0.398   0.168  -0.201
    1UNL     H7   43  -0.408   0.223   0.210
    1UNL     H8   44  -0.200   0.101   0.199
    1UNL     H9   45  -0.274  -0.021   0.092
    1UNL    H10   46  -0.416  -0.009   0.318
    1UNL    H11   47  -0.518  -0.046   0.123
    1UNL    H12   48  -0.672   0.137   0.268
    1UNL    H13   49  -0.736   0.072   0.031
    1UNL    H14   50  -0.568   0.301   0.031
    1UNL    H15   51  -0.627   0.116  -0.194
    1UNL    H16   52  -0.632  -0.100  -0.191
    1UNL    H17   53   0.002   0.291  -0.141
    1UNL    H18   54   0.434   0.193  -0.282
    1UNL    H19   55   0.496   0.033  -0.287
    1UNL    H20   56   0.640   0.148  -0.098
    1UNL    H21   57   0.483   0.222  -0.045
    1UNL    H22   58   0.648   0.061   0.145
    1UNL    H23   59   0.591  -0.198   0.514
    1UNL    H24   60   0.437  -0.157   0.428
    1UNL    H25   61   0.543  -0.027   0.484
    1UNL    H26   62   0.410  -0.382   0.235
    1UNL    H27   63   0.308  -0.266   0.045
    1UNL    H28   64   0.332  -0.155  -0.202
    1UNL    H29   65   0.135  -0.227  -0.090
    1UNL    H30   66   0.138  -0.070   0.003
    1UNL    H31   67   0.047  -0.077  -0.287
   0.00000   0.00000   0.00000   0.00000   0.00000   0.00000   0.00000   0.00000   0.00000
Generated with MDTraj, t= 7.0
 67
    1UNL     C1    1  -0.260  -0.265  -0.161
    1UNL     C2    2  -0.133  -0.219  -0.178
    1UNL     C3    3  -0.089  -0.082  -0.130
    1UNL     C4    4  -0.198   0.024  -0.157
    1UNL     O1    5  -0.328  -0.006  -0.096
    1UNL     C5    6  -0.410   0.112  -0.103
    1UNL     O2    7  -0.380   0.194   0.009
    1UNL     C6    8  -0.402   0.132   0.134
    1UNL     C7    9  -0.280   0.051   0.194
    1UNL     O3   10  -0.300   0.018   0.328
    1UNL     C8   11  -0.531   0.046   0.129
    1UNL     O4   12  -0.587   0.009   0.260
    1UNL     C9   13  -0.634   0.117   0.032
    1UNL     O5   14  -0.652   0.251   0.056
    1UNL    C10   15  -0.575   0.097  -0.112
    1UNL     O6   16  -0.604  -0.029  -0.176
    1UNL     O7   17  -0.144   0.149  -0.110
    1UNL    C11   18  -0.016   0.182  -0.141
    1UNL    C12   19   0.079   0.089  -0.176
    1UNL    C13   20   0.216   0.145  -0.212
    1UNL     O8   21   0.238   0.265  -0.235
    1UNL     N1   22   0.319   0.051  -0.200
    1UNL    C14   23   0.452   0.087  -0.232
    1UNL    C15   24   0.529   0.096  -0.109
    1UNL    C16   25   0.479   0.008   0.001
    1UNL    C17   26   0.544   0.019   0.122
    1UNL    C18   27   0.525  -0.073   0.226
    1UNL     O9   28   0.581  -0.052   0.349
    1UNL    C19   29   0.572  -0.168   0.433
    1UNL    C20   30   0.437  -0.185   0.195
    1UNL    O10   31   0.414  -0.281   0.290
    1UNL    C21   32   0.372  -0.195   0.075
    1UNL    C22   33   0.382  -0.088  -0.009
    1UNL    C23   34   0.310  -0.086  -0.143
    1UNL    C24   35   0.158  -0.137  -0.119
    1UNL    C25   36   0.046  -0.054  -0.192
    1UNL     H1   37  -0.290  -0.361  -0.196
    1UNL     H2   38  -0.349  -0.206  -0.144
    1UNL     H3   39  -0.060  -0.295  -0.184
    1UNL     H4   40  -0.077  -0.092  -0.025
    1UNL     H5   41  -0.201   0.039  -0.270
    1UNL     H6   42  -0.369   0.167  -0.185
    1UNL     H7   43  -0.421   0.223   0.208
    1UNL     H8   44  -0.194   0.116   0.184
    1UNL     H9   45  -0.266  -0.048   0.146
    1UNL    H10   46  -0.395   0.004   0.329
    1UNL    H11   47  -0.517  -0.048   0.073
    1UNL    H12   48  -0.682   0.040   0.267
    1UNL    H13   49  -0.725   0.067   0.031
    1UNL    H14   50  -0.576   0.300   0.021
    1UNL    H15   51  -0.602   0.172  -0.186
    1UNL    H16   52  -0.681  -0.071  -0.134
    1UNL    H17   53   0.011   0.286  -0.150
    1UNL    H18   54   0.445   0.183  -0.295
    1UNL    H19   55   0.483   0.016  -0.305
    1UNL    H20   56   0.632   0.056  -0.132
    1UNL    H21   57   0.546   0.204  -0.081
    1UNL    H22   58   0.612   0.102   0.144
    1UNL    H23   59   0.579  -0.262   0.380
    1UNL    H24   60   0.473  -0.172   0.480
    1UNL    H25   61   0.655  -0.148   0.500
    1UNL    H26   62   0.377  -0.363   0.254
    1UNL    H27   63   0.329  -0.301   0.048
    1UNL    H28   64   0.358  -0.155  -0.208
    1UNL    H29   65   0.150  -0.240  -0.154
    1UNL    H30   66   0.131  -0.130  -0.012
    1UNL    H31   67   0.044  -0.075  -0.297
   0.00000   0.00000   0.00000   0.00000   0.00000   0.00000   0.00000   0.00000   0.00000
Generated with MDTraj, t= 8.0
 67
    1UNL     C1    1  -0.284  -0.238  -0.189
    1UNL     C2    2  -0.159  -0.222  -0.156
    1UNL     C3    3  -0.100  -0.087  -0.133
    1UNL     C4    4  -0.200   0.030  -0.166
    1UNL     O1    5  -0.324   0.014  -0.101
    1UNL     C5    6  -0.392   0.131  -0.096
    1UNL     O2    7  -0.362   0.210   0.021
    1UNL     C6    8  -0.387   0.135   0.144
    1UNL     C7    9  -0.258   0.074   0.197
    1UNL     O3   10  -0.279   0.018   0.330
    1UNL     C8   11  -0.503   0.029   0.131
    1UNL     O4   12  -0.569   0.010   0.254
    1UNL     C9   13  -0.615   0.079   0.029
    1UNL     O5   14  -0.680   0.197   0.075
    1UNL    C10   15  -0.548   0.099  -0.112
    1UNL     O6   16  -0.568  -0.001  -0.213
    1UNL     O7   17  -0.143   0.161  -0.146
    1UNL    C11   18  -0.012   0.169  -0.160
    1UNL    C12   19   0.081   0.078  -0.190
    1UNL    C13   20   0.215   0.132  -0.201
    1UNL     O8   21   0.247   0.248  -0.187
    1UNL     N1   22   0.304   0.030  -0.214
    1UNL    C14   23   0.442   0.075  -0.232
    1UNL    C15   24   0.485   0.126  -0.100
    1UNL    C16   25   0.469   0.016   0.000
    1UNL    C17   26   0.537   0.018   0.122
    1UNL    C18   27   0.513  -0.075   0.223
    1UNL     O9   28   0.563  -0.046   0.353
    1UNL    C19   29   0.624  -0.161   0.408
    1UNL    C20   30   0.423  -0.178   0.204
    1UNL    O10   31   0.379  -0.255   0.308
    1UNL    C21   32   0.363  -0.195   0.078
    1UNL    C22   33   0.380  -0.097  -0.018
    1UNL    C23   34   0.292  -0.103  -0.142
    1UNL    C24   35   0.143  -0.150  -0.106
    1UNL    C25   36   0.046  -0.067  -0.185
    1UNL     H1   37  -0.322  -0.339  -0.200
    1UNL     H2   38  -0.356  -0.158  -0.185
    1UNL     H3   39  -0.084  -0.307  -0.158
    1UNL     H4   40  -0.093  -0.095  -0.026
    1UNL     H5   41  -0.212   0.025  -0.281
    1UNL     H6   42  -0.360   0.186  -0.181
    1UNL     H7   43  -0.420   0.212   0.227
    1UNL     H8   44  -0.187   0.151   0.223
    1UNL     H9   45  -0.222   0.003   0.122
    1UNL    H10   46  -0.380  -0.000   0.341
    1UNL    H11   47  -0.453  -0.062   0.097
    1UNL    H12   48  -0.649  -0.045   0.255
    1UNL    H13   49  -0.700   0.019   0.031
    1UNL    H14   50  -0.617   0.257   0.119
    1UNL    H15   51  -0.596   0.189  -0.146
    1UNL    H16   52  -0.665  -0.015  -0.208
    1UNL    H17   53   0.023   0.278  -0.157
    1UNL    H18   54   0.436   0.142  -0.326
    1UNL    H19   55   0.500  -0.006  -0.270
    1UNL    H20   56   0.588   0.169  -0.113
    1UNL    H21   57   0.427   0.214  -0.057
    1UNL    H22   58   0.594   0.103   0.143
    1UNL    H23   59   0.708  -0.189   0.345
    1UNL    H24   60   0.553  -0.243   0.394
    1UNL    H25   61   0.661  -0.134   0.509
    1UNL    H26   62   0.318  -0.320   0.276
    1UNL    H27   63   0.313  -0.280   0.051
    1UNL    H28   64   0.332  -0.182  -0.203
    1UNL    H29   65   0.118  -0.257  -0.119
    1UNL    H30   66   0.125  -0.118  -0.001
    1UNL    H31   67   0.052  -0.101  -0.287
   0.00000   0.00000   0.00000   0.00000   0.00000   0.00000   0.00000   0.00000   0.00000
Generated with MDTraj, t= 9.0
 67
    1UNL     C1    1  -0.292  -0.232  -0.202
    1UNL     C2    2  -0.165  -0.213  -0.184
    1UNL     C3    3  -0.105  -0.083  -0.139
    1UNL     C4    4  -0.203   0.041  -0.169
    1UNL     O1    5  -0.321   0.039  -0.084
    1UNL     C5    6  -0.396   0.156  -0.088
    1UNL     O2    7  -0.397   0.236   0.033
    1UNL     C6    8  -0.400   0.151   0.150
    1UNL     C7    9  -0.258   0.113   0.192
    1UNL     O3   10  -0.251   0.012   0.299
    1UNL     C8   11  -0.490   0.021   0.128
    1UNL     O4   12  -0.549  -0.015   0.248
    1UNL     C9   13  -0.603   0.051   0.032
    1UNL     O5   14  -0.710   0.112   0.099
    1UNL    C10   15  -0.548   0.110  -0.104
    1UNL     O6   16  -0.562   0.028  -0.219
    1UNL     O7   17  -0.139   0.174  -0.160
    1UNL    C11   18  -0.010   0.184  -0.179
    1UNL    C12   19   0.079   0.086  -0.198
    1UNL    C13   20   0.219   0.119  -0.220
    1UNL     O8   21   0.251   0.234  -0.236
    1UNL     N1   22   0.304   0.015  -0.204
    1UNL    C14   23   0.444   0.048  -0.235
    1UNL    C15   24   0.514   0.092  -0.102
    1UNL    C16   25   0.455   0.014   0.019
    1UNL    C17   26   0.529   0.026   0.138
    1UNL    C18   27   0.505  -0.066   0.236
    1UNL     O9   28   0.580  -0.056   0.359
    1UNL    C19   29   0.653  -0.166   0.400
    1UNL    C20   30   0.407  -0.171   0.224
    1UNL    O10   31   0.400  -0.268   0.326
    1UNL    C21   32   0.334  -0.177   0.107
    1UNL    C22   33   0.357  -0.084   0.009
    1UNL    C23   34   0.284  -0.109  -0.124
    1UNL    C24   35   0.136  -0.144  -0.111
    1UNL    C25   36   0.042  -0.060  -0.194
    1UNL     H1   37  -0.327  -0.331  -0.229
    1UNL     H2   38  -0.356  -0.160  -0.160
    1UNL     H3   39  -0.099  -0.278  -0.223
    1UNL     H4   40  -0.109  -0.090  -0.034
    1UNL     H5   41  -0.255   0.042  -0.272
    1UNL     H6   42  -0.371   0.217  -0.171
    1UNL     H7   43  -0.449   0.221   0.233
    1UNL     H8   44  -0.197   0.198   0.220
    1UNL     H9   45  -0.213   0.059   0.109
    1UNL    H10   46  -0.340  -0.019   0.319
    1UNL    H11   47  -0.427  -0.054   0.080
    1UNL    H12   48  -0.604   0.054   0.289
    1UNL    H13   49  -0.643  -0.041   0.008
    1UNL    H14   50  -0.700   0.211   0.089
    1UNL    H15   51  -0.599   0.198  -0.139
    1UNL    H16   52  -0.654  -0.005  -0.241
    1UNL    H17   53   0.032   0.282  -0.179
    1UNL    H18   54   0.442   0.126  -0.318
    1UNL    H19   55   0.482  -0.038  -0.290
    1UNL    H20   56   0.626   0.081  -0.101
    1UNL    H21   57   0.503   0.205  -0.099
    1UNL    H22   58   0.597   0.113   0.159
    1UNL    H23   59   0.753  -0.150   0.358
    1UNL    H24   60   0.609  -0.250   0.344
    1UNL    H25   61   0.664  -0.168   0.511
    1UNL    H26   62   0.336  -0.333   0.301
    1UNL    H27   63   0.270  -0.262   0.092
    1UNL    H28   64   0.336  -0.188  -0.176
    1UNL    H29   65   0.115  -0.248  -0.142
    1UNL    H30   66   0.099  -0.133  -0.007
    1UNL    H31   67   0.046  -0.089  -0.298
   0.00000   0.00000   0.00000   0.00000   0.00000   0.00000   0.00000   0.00000   0.00000
Generated with MDTraj, t= 10.0
 67
    1UNL     C1    1  -0.314  -0.199  -0.197
    1UNL     C2    2  -0.191  -0.170  -0.224
    1UNL     C3    3  -0.116  -0.061  -0.145
    1UNL     C4    4  -0.198   0.071  -0.162
    1UNL     O1    5  -0.315   0.050  -0.090
    1UNL     C5    6  -0.411   0.155  -0.096
    1UNL     O2    7  -0.412   0.232   0.033
    1UNL     C6    8  -0.409   0.152   0.152
    1UNL     C7    9  -0.263   0.126   0.191
    1UNL     O3   10  -0.238   0.037   0.298
    1UNL     C8   11  -0.478   0.018   0.123
    1UNL     O4   12  -0.497  -0.047   0.246
    1UNL     C9   13  -0.601   0.027   0.022
    1UNL     O5   14  -0.718   0.069   0.097
    1UNL    C10   15  -0.565   0.107  -0.109
    1UNL     O6   16  -0.580   0.012  -0.214
    1UNL     O7   17  -0.137   0.197  -0.153
    1UNL    C11   18  -0.011   0.201  -0.195
    1UNL    C12   19   0.074   0.095  -0.209
    1UNL    C13   20   0.217   0.107  -0.249
    1UNL     O8   21   0.254   0.209  -0.299
    1UNL     N1   22   0.306   0.009  -0.210
    1UNL    C14   23   0.446   0.036  -0.224
    1UNL    C15   24   0.502   0.086  -0.091
    1UNL    C16   25   0.465  -0.001   0.022
    1UNL    C17   26   0.552   0.004   0.135
    1UNL    C18   27   0.527  -0.081   0.246
    1UNL     O9   28   0.597  -0.065   0.369
    1UNL    C19   29   0.661  -0.176   0.422
    1UNL    C20   30   0.420  -0.183   0.232
    1UNL    O10   31   0.381  -0.250   0.352
    1UNL    C21   32   0.346  -0.191   0.115
    1UNL    C22   33   0.361  -0.096   0.009
    1UNL    C23   34   0.274  -0.099  -0.110
    1UNL    C24   35   0.129  -0.097  -0.065
    1UNL    C25   36   0.033  -0.049  -0.182
    1UNL     H1   37  -0.369  -0.267  -0.257
    1UNL     H2   38  -0.382  -0.128  -0.149
    1UNL     H3   39  -0.132  -0.230  -0.302
    1UNL     H4   40  -0.115  -0.084  -0.043
    1UNL     H5   41  -0.226   0.078  -0.272
    1UNL     H6   42  -0.383   0.232  -0.166
    1UNL     H7   43  -0.482   0.205   0.228
    1UNL     H8   44  -0.215   0.219   0.225
    1UNL     H9   45  -0.206   0.084   0.106
    1UNL    H10   46  -0.316  -0.026   0.306
    1UNL    H11   47  -0.406  -0.038   0.064
    1UNL    H12   48  -0.547  -0.133   0.236
    1UNL    H13   49  -0.629  -0.070   0.001
    1UNL    H14   50  -0.707   0.164   0.132
    1UNL    H15   51  -0.639   0.188  -0.110
    1UNL    H16   52  -0.675  -0.015  -0.222
    1UNL    H17   53   0.020   0.294  -0.226
    1UNL    H18   54   0.452   0.108  -0.310
    1UNL    H19   55   0.505  -0.055  -0.252
    1UNL    H20   56   0.613   0.079  -0.107
    1UNL    H21   57   0.482   0.194  -0.063
    1UNL    H22   58   0.606   0.093   0.147
    1UNL    H23   59   0.729  -0.206   0.340
    1UNL    H24   60   0.578  -0.248   0.432
    1UNL    H25   61   0.721  -0.156   0.513
    1UNL    H26   62   0.307  -0.311   0.333
    1UNL    H27   63   0.274  -0.281   0.106
    1UNL    H28   64   0.294  -0.196  -0.156
    1UNL    H29   65   0.101  -0.197  -0.024
    1UNL    H30   66   0.121  -0.029   0.023
    1UNL    H31   67   0.052  -0.107  -0.271
   0.00000   0.00000   0.00000   0.00000   0.00000   0.00000   0.00000   0.00000   0.00000
Generated with MDTraj, t= 11.0
 67
    1UNL     C1    1  -0.304  -0.190  -0.246
    1UNL     C2    2  -0.177  -0.178  -0.220
    1UNL     C3    3  -0.122  -0.051  -0.142
    1UNL     C4    4  -0.206   0.076  -0.175
    1UNL     O1    5  -0.330   0.048  -0.103
    1UNL     C5    6  -0.428   0.151  -0.095
    1UNL     O2    7  -0.420   0.226   0.030
    1UNL     C6    8  -0.407   0.144   0.144
    1UNL     C7    9  -0.261   0.151   0.199
    1UNL     O3   10  -0.230   0.082   0.316
    1UNL     C8   11  -0.455   0.003   0.114
    1UNL     O4   12  -0.471  -0.063   0.236
    1UNL     C9   13  -0.589   0.001   0.021
    1UNL     O5   14  -0.682   0.063   0.109
    1UNL    C10   15  -0.566   0.084  -0.102
    1UNL     O6   16  -0.572   0.011  -0.228
    1UNL     O7   17  -0.137   0.193  -0.137
    1UNL    C11   18  -0.013   0.209  -0.184
    1UNL    C12   19   0.068   0.103  -0.203
    1UNL    C13   20   0.207   0.104  -0.256
    1UNL     O8   21   0.243   0.197  -0.324
    1UNL     N1   22   0.293   0.004  -0.212
    1UNL    C14   23   0.440   0.030  -0.222
    1UNL    C15   24   0.508   0.084  -0.101
    1UNL    C16   25   0.466   0.004   0.026
    1UNL    C17   26   0.561  -0.007   0.128
    1UNL    C18   27   0.537  -0.095   0.238
    1UNL     O9   28   0.635  -0.100   0.346
    1UNL    C19   29   0.618  -0.197   0.449
    1UNL    C20   30   0.414  -0.164   0.244
    1UNL    O10   31   0.393  -0.257   0.350
    1UNL    C21   32   0.324  -0.160   0.135
    1UNL    C22   33   0.346  -0.072   0.030
    1UNL    C23   34   0.258  -0.084  -0.094
    1UNL    C24   35   0.114  -0.070  -0.051
    1UNL    C25   36   0.026  -0.033  -0.171
    1UNL     H1   37  -0.345  -0.265  -0.312
    1UNL     H2   38  -0.377  -0.109  -0.242
    1UNL     H3   39  -0.101  -0.248  -0.235
    1UNL     H4   40  -0.125  -0.059  -0.036
    1UNL     H5   41  -0.222   0.087  -0.284
    1UNL     H6   42  -0.419   0.219  -0.181
    1UNL     H7   43  -0.478   0.187   0.227
    1UNL     H8   44  -0.226   0.255   0.218
    1UNL     H9   45  -0.191   0.108   0.124
    1UNL    H10   46  -0.301   0.014   0.331
    1UNL    H11   47  -0.379  -0.046   0.052
    1UNL    H12   48  -0.566  -0.074   0.255
    1UNL    H13   49  -0.606  -0.097  -0.008
    1UNL    H14   50  -0.655   0.160   0.115
    1UNL    H15   51  -0.649   0.156  -0.115
    1UNL    H16   52  -0.658  -0.036  -0.233
    1UNL    H17   53   0.018   0.314  -0.207
    1UNL    H18   54   0.456   0.107  -0.301
    1UNL    H19   55   0.487  -0.070  -0.250
    1UNL    H20   56   0.620   0.084  -0.108
    1UNL    H21   57   0.471   0.189  -0.094
    1UNL    H22   58   0.651   0.053   0.134
    1UNL    H23   59   0.580  -0.283   0.392
    1UNL    H24   60   0.544  -0.144   0.511
    1UNL    H25   61   0.708  -0.236   0.499
    1UNL    H26   62   0.312  -0.314   0.333
    1UNL    H27   63   0.247  -0.224   0.120
    1UNL    H28   64   0.256  -0.182  -0.147
    1UNL    H29   65   0.075  -0.167  -0.007
    1UNL    H30   66   0.101  -0.001   0.034
    1UNL    H31   67   0.044  -0.093  -0.260
   0.00000   0.00000   0.00000   0.00000   0.00000   0.00000   0.00000   0.00000   0.00000
Generated with MDTraj, t= 12.0
 67
    1UNL     C1    1  -0.294  -0.186  -0.287
    1UNL     C2    2  -0.177  -0.183  -0.223
    1UNL     C3    3  -0.123  -0.064  -0.155
    1UNL     C4    4  -0.213   0.059  -0.181
    1UNL     O1    5  -0.343   0.036  -0.113
    1UNL     C5    6  -0.433   0.148  -0.113
    1UNL     O2    7  -0.408   0.236  -0.000
    1UNL     C6    8  -0.393   0.163   0.122
    1UNL     C7    9  -0.250   0.155   0.183
    1UNL     O3   10  -0.240   0.088   0.308
    1UNL     C8   11  -0.453   0.019   0.124
    1UNL     O4   12  -0.471  -0.041   0.250
    1UNL     C9   13  -0.592   0.007   0.042
    1UNL     O5   14  -0.698   0.052   0.129
    1UNL    C10   15  -0.576   0.082  -0.095
    1UNL     O6   16  -0.591  -0.008  -0.213
    1UNL     O7   17  -0.154   0.184  -0.138
    1UNL    C11   18  -0.025   0.190  -0.182
    1UNL    C12   19   0.067   0.093  -0.199
    1UNL    C13   20   0.206   0.124  -0.234
    1UNL     O8   21   0.234   0.229  -0.289
    1UNL     N1   22   0.303   0.032  -0.193
    1UNL    C14   23   0.441   0.076  -0.219
    1UNL    C15   24   0.531   0.080  -0.094
    1UNL    C16   25   0.485  -0.015   0.021
    1UNL    C17   26   0.577  -0.041   0.116
    1UNL    C18   27   0.545  -0.119   0.228
    1UNL     O9   28   0.647  -0.139   0.326
    1UNL    C19   29   0.609  -0.168   0.463
    1UNL    C20   30   0.411  -0.173   0.244
    1UNL    O10   31   0.387  -0.245   0.355
    1UNL    C21   32   0.319  -0.145   0.145
    1UNL    C22   33   0.355  -0.074   0.027
    1UNL    C23   34   0.268  -0.081  -0.096
    1UNL    C24   35   0.117  -0.090  -0.058
    1UNL    C25   36   0.029  -0.048  -0.174
    1UNL     H1   37  -0.344  -0.283  -0.292
    1UNL     H2   38  -0.374  -0.117  -0.263
    1UNL     H3   39  -0.113  -0.275  -0.222
    1UNL     H4   40  -0.130  -0.076  -0.050
    1UNL     H5   41  -0.240   0.070  -0.284
    1UNL     H6   42  -0.408   0.204  -0.207
    1UNL     H7   43  -0.452   0.225   0.202
    1UNL     H8   44  -0.209   0.259   0.183
    1UNL     H9   45  -0.181   0.101   0.117
    1UNL    H10   46  -0.311   0.022   0.306
    1UNL    H11   47  -0.376  -0.041   0.075
    1UNL    H12   48  -0.557  -0.032   0.293
    1UNL    H13   49  -0.602  -0.096   0.038
    1UNL    H14   50  -0.698   0.146   0.154
    1UNL    H15   51  -0.657   0.160  -0.103
    1UNL    H16   52  -0.675  -0.056  -0.203
    1UNL    H17   53   0.007   0.297  -0.197
    1UNL    H18   54   0.441   0.179  -0.259
    1UNL    H19   55   0.488  -0.004  -0.290
    1UNL    H20   56   0.630   0.041  -0.130
    1UNL    H21   57   0.542   0.179  -0.044
    1UNL    H22   58   0.676   0.005   0.122
    1UNL    H23   59   0.599  -0.276   0.469
    1UNL    H24   60   0.520  -0.107   0.469
    1UNL    H25   61   0.676  -0.140   0.543
    1UNL    H26   62   0.307  -0.307   0.339
    1UNL    H27   63   0.230  -0.209   0.147
    1UNL    H28   64   0.295  -0.180  -0.142
    1UNL    H29   65   0.086  -0.195  -0.030
    1UNL    H30   66   0.083  -0.036   0.033
    1UNL    H31   67   0.055  -0.108  -0.260
   0.00000   0.00000   0.00000   0.00000   0.00000   0.00000   0.00000   0.00000   0.00000
Generated with MDTraj, t= 13.0
 67
    1UNL     C1    1  -0.275  -0.234  -0.248
    1UNL     C2    2  -0.156  -0.184  -0.260
    1UNL     C3    3  -0.119  -0.074  -0.171
    1UNL     C4    4  -0.217   0.045  -0.179
    1UNL     O1    5  -0.342   0.007  -0.114
    1UNL     C5    6  -0.437   0.108  -0.117
    1UNL     O2    7  -0.398   0.212  -0.027
    1UNL     C6    8  -0.382   0.167   0.111
    1UNL     C7    9  -0.231   0.162   0.147
    1UNL     O3   10  -0.220   0.110   0.279
    1UNL     C8   11  -0.460   0.031   0.139
    1UNL     O4   12  -0.488  -0.002   0.270
    1UNL     C9   13  -0.601   0.026   0.053
    1UNL     O5   14  -0.715   0.074   0.118
    1UNL    C10   15  -0.580   0.070  -0.093
    1UNL     O6   16  -0.641  -0.014  -0.200
    1UNL     O7   17  -0.168   0.174  -0.136
    1UNL    C11   18  -0.035   0.204  -0.150
    1UNL    C12   19   0.065   0.114  -0.171
    1UNL    C13   20   0.206   0.155  -0.186
    1UNL     O8   21   0.241   0.266  -0.224
    1UNL     N1   22   0.301   0.056  -0.161
    1UNL    C14   23   0.432   0.084  -0.214
    1UNL    C15   24   0.539   0.068  -0.099
    1UNL    C16   25   0.499  -0.035   0.008
    1UNL    C17   26   0.587  -0.061   0.109
    1UNL    C18   27   0.550  -0.131   0.219
    1UNL     O9   28   0.643  -0.131   0.327
    1UNL    C19   29   0.590  -0.152   0.456
    1UNL    C20   30   0.418  -0.182   0.227
    1UNL    O10   31   0.371  -0.232   0.348
    1UNL    C21   32   0.335  -0.185   0.117
    1UNL    C22   33   0.373  -0.098   0.008
    1UNL    C23   34   0.277  -0.075  -0.106
    1UNL    C24   35   0.130  -0.103  -0.073
    1UNL    C25   36   0.035  -0.034  -0.174
    1UNL     H1   37  -0.305  -0.311  -0.316
    1UNL     H2   38  -0.354  -0.180  -0.201
    1UNL     H3   39  -0.081  -0.237  -0.308
    1UNL     H4   40  -0.128  -0.123  -0.078
    1UNL     H5   41  -0.238   0.052  -0.282
    1UNL     H6   42  -0.429   0.137  -0.227
    1UNL     H7   43  -0.436   0.248   0.175
    1UNL     H8   44  -0.175   0.258   0.141
    1UNL     H9   45  -0.185   0.103   0.066
    1UNL    H10   46  -0.308   0.056   0.287
    1UNL    H11   47  -0.406  -0.053   0.093
    1UNL    H12   48  -0.572   0.040   0.308
    1UNL    H13   49  -0.621  -0.075   0.044
    1UNL    H14   50  -0.704   0.162   0.153
    1UNL    H15   51  -0.644   0.160  -0.120
    1UNL    H16   52  -0.731  -0.040  -0.172
    1UNL    H17   53  -0.016   0.307  -0.148
    1UNL    H18   54   0.428   0.189  -0.252
    1UNL    H19   55   0.451  -0.001  -0.292
    1UNL    H20   56   0.635   0.024  -0.134
    1UNL    H21   57   0.552   0.162  -0.041
    1UNL    H22   58   0.679  -0.009   0.108
    1UNL    H23   59   0.537  -0.248   0.458
    1UNL    H24   60   0.543  -0.055   0.479
    1UNL    H25   61   0.668  -0.165   0.529
    1UNL    H26   62   0.290  -0.293   0.343
    1UNL    H27   63   0.244  -0.251   0.109
    1UNL    H28   64   0.316  -0.153  -0.180
    1UNL    H29   65   0.095  -0.206  -0.042
    1UNL    H30   66   0.117  -0.045   0.020
    1UNL    H31   67   0.080  -0.069  -0.267
   0.00000   0.00000   0.00000   0.00000   0.00000   0.00000   0.00000   0.00000   0.00000
Generated with MDTraj, t= 14.0
 67
    1UNL     C1    1  -0.237  -0.287  -0.210
    1UNL     C2    2  -0.150  -0.199  -0.244
    1UNL     C3    3  -0.119  -0.075  -0.160
    1UNL     C4    4  -0.216   0.042  -0.184
    1UNL     O1    5  -0.345   0.005  -0.135
    1UNL     C5    6  -0.441   0.109  -0.130
    1UNL     O2    7  -0.411   0.219  -0.038
    1UNL     C6    8  -0.390   0.177   0.101
    1UNL     C7    9  -0.238   0.175   0.132
    1UNL     O3   10  -0.203   0.125   0.263
    1UNL     C8   11  -0.455   0.041   0.136
    1UNL     O4   12  -0.488   0.028   0.269
    1UNL     C9   13  -0.599   0.024   0.060
    1UNL     O5   14  -0.689   0.119   0.110
    1UNL    C10   15  -0.586   0.055  -0.098
    1UNL     O6   16  -0.614  -0.056  -0.183
    1UNL     O7   17  -0.174   0.170  -0.131
    1UNL    C11   18  -0.039   0.204  -0.128
    1UNL    C12   19   0.059   0.111  -0.150
    1UNL    C13   20   0.197   0.160  -0.146
    1UNL     O8   21   0.232   0.276  -0.131
    1UNL     N1   22   0.291   0.061  -0.166
    1UNL    C14   23   0.427   0.105  -0.218
    1UNL    C15   24   0.545   0.037  -0.136
    1UNL    C16   25   0.489  -0.022  -0.000
    1UNL    C17   26   0.579  -0.040   0.107
    1UNL    C18   27   0.545  -0.115   0.217
    1UNL     O9   28   0.628  -0.132   0.333
    1UNL    C19   29   0.564  -0.161   0.452
    1UNL    C20   30   0.420  -0.185   0.220
    1UNL    O10   31   0.381  -0.277   0.318
    1UNL    C21   32   0.336  -0.174   0.110
    1UNL    C22   33   0.369  -0.086   0.006
    1UNL    C23   34   0.278  -0.083  -0.113
    1UNL    C24   35   0.128  -0.118  -0.101
    1UNL    C25   36   0.034  -0.028  -0.189
    1UNL     H1   37  -0.253  -0.366  -0.283
    1UNL     H2   38  -0.308  -0.272  -0.128
    1UNL     H3   39  -0.088  -0.220  -0.334
    1UNL     H4   40  -0.140  -0.104  -0.060
    1UNL     H5   41  -0.230   0.048  -0.288
    1UNL     H6   42  -0.430   0.155  -0.234
    1UNL     H7   43  -0.435   0.256   0.172
    1UNL     H8   44  -0.198   0.278   0.122
    1UNL     H9   45  -0.170   0.121   0.063
    1UNL    H10   46  -0.282   0.081   0.289
    1UNL    H11   47  -0.395  -0.046   0.106
    1UNL    H12   48  -0.571   0.075   0.286
    1UNL    H13   49  -0.641  -0.063   0.095
    1UNL    H14   50  -0.655   0.211   0.103
    1UNL    H15   51  -0.660   0.134  -0.124
    1UNL    H16   52  -0.697  -0.100  -0.152
    1UNL    H17   53  -0.012   0.304  -0.103
    1UNL    H18   54   0.430   0.215  -0.200
    1UNL    H19   55   0.421   0.073  -0.332
    1UNL    H20   56   0.589  -0.054  -0.179
    1UNL    H21   57   0.620   0.112  -0.106
    1UNL    H22   58   0.668   0.024   0.114
    1UNL    H23   59   0.591  -0.265   0.479
    1UNL    H24   60   0.459  -0.125   0.452
    1UNL    H25   61   0.613  -0.091   0.520
    1UNL    H26   62   0.327  -0.346   0.276
    1UNL    H27   63   0.250  -0.223   0.090
    1UNL    H28   64   0.326  -0.140  -0.199
    1UNL    H29   65   0.108  -0.226  -0.119
    1UNL    H30   66   0.085  -0.094  -0.001
    1UNL    H31   67   0.052  -0.040  -0.295
   0.00000   0.00000   0.00000   0.00000   0.00000   0.00000   0.00000   0.00000   0.00000
Generated with MDTraj, t= 15.0
 67
    1UNL     C1    1  -0.242  -0.287  -0.156
    1UNL     C2    2  -0.156  -0.201  -0.203
    1UNL     C3    3  -0.113  -0.067  -0.143
    1UNL     C4    4  -0.214   0.046  -0.182
    1UNL     O1    5  -0.330   0.018  -0.112
    1UNL     C5    6  -0.438   0.108  -0.131
    1UNL     O2    7  -0.423   0.224  -0.048
    1UNL     C6    8  -0.404   0.184   0.087
    1UNL     C7    9  -0.253   0.182   0.129
    1UNL     O3   10  -0.232   0.149   0.264
    1UNL     C8   11  -0.464   0.046   0.121
    1UNL     O4   12  -0.470   0.015   0.258
    1UNL     C9   13  -0.602   0.043   0.052
    1UNL     O5   14  -0.670   0.155   0.096
    1UNL    C10   15  -0.577   0.037  -0.103
    1UNL     O6   16  -0.570  -0.101  -0.138
    1UNL     O7   17  -0.176   0.184  -0.163
    1UNL    C11   18  -0.039   0.208  -0.148
    1UNL    C12   19   0.058   0.111  -0.158
    1UNL    C13   20   0.194   0.165  -0.128
    1UNL     O8   21   0.221   0.277  -0.090
    1UNL     N1   22   0.291   0.075  -0.150
    1UNL    C14   23   0.425   0.129  -0.190
    1UNL    C15   24   0.539   0.063  -0.121
    1UNL    C16   25   0.494  -0.035  -0.012
    1UNL    C17   26   0.566  -0.049   0.107
    1UNL    C18   27   0.532  -0.129   0.215
    1UNL     O9   28   0.603  -0.095   0.331
    1UNL    C19   29   0.567  -0.157   0.452
    1UNL    C20   30   0.418  -0.217   0.200
    1UNL    O10   31   0.370  -0.303   0.292
    1UNL    C21   32   0.351  -0.210   0.077
    1UNL    C22   33   0.383  -0.121  -0.024
    1UNL    C23   34   0.285  -0.080  -0.140
    1UNL    C24   35   0.139  -0.133  -0.120
    1UNL    C25   36   0.034  -0.034  -0.193
    1UNL     H1   37  -0.245  -0.386  -0.196
    1UNL     H2   38  -0.271  -0.267  -0.056
    1UNL     H3   39  -0.123  -0.210  -0.306
    1UNL     H4   40  -0.116  -0.075  -0.038
    1UNL     H5   41  -0.236   0.033  -0.285
    1UNL     H6   42  -0.438   0.136  -0.242
    1UNL     H7   43  -0.447   0.266   0.156
    1UNL     H8   44  -0.183   0.262   0.101
    1UNL     H9   45  -0.208   0.095   0.079
    1UNL    H10   46  -0.309   0.088   0.291
    1UNL    H11   47  -0.411  -0.038   0.075
    1UNL    H12   48  -0.557   0.033   0.297
    1UNL    H13   49  -0.649  -0.040   0.086
    1UNL    H14   50  -0.649   0.230   0.031
    1UNL    H15   51  -0.659   0.077  -0.164
    1UNL    H16   52  -0.645  -0.159  -0.106
    1UNL    H17   53  -0.006   0.316  -0.134
    1UNL    H18   54   0.410   0.235  -0.160
    1UNL    H19   55   0.440   0.123  -0.307
    1UNL    H20   56   0.586  -0.003  -0.196
    1UNL    H21   57   0.613   0.133  -0.078
    1UNL    H22   58   0.645   0.019   0.127
    1UNL    H23   59   0.517  -0.252   0.428
    1UNL    H24   60   0.517  -0.083   0.521
    1UNL    H25   61   0.662  -0.173   0.504
    1UNL    H26   62   0.336  -0.382   0.252
    1UNL    H27   63   0.264  -0.282   0.083
    1UNL    H28   64   0.329  -0.125  -0.234
    1UNL    H29   65   0.127  -0.235  -0.161
    1UNL    H30   66   0.119  -0.135  -0.010
    1UNL    H31   67   0.045  -0.054  -0.300
   0.00000   0.00000   0.00000   0.00000   0.00000   0.00000   0.00000   0.00000   0.00000
Generated with MDTraj, t= 16.0
 67
    1UNL     C1    1  -0.255  -0.267  -0.116
    1UNL     C2    2  -0.139  -0.214  -0.155
    1UNL     C3    3  -0.098  -0.069  -0.129
    1UNL     C4    4  -0.207   0.024  -0.175
    1UNL     O1    5  -0.315   0.003  -0.095
    1UNL     C5    6  -0.427   0.084  -0.124
    1UNL     O2    7  -0.433   0.212  -0.047
    1UNL     C6    8  -0.414   0.188   0.095
    1UNL     C7    9  -0.259   0.189   0.127
    1UNL     O3   10  -0.221   0.169   0.259
    1UNL     C8   11  -0.475   0.058   0.140
    1UNL     O4   12  -0.501   0.058   0.280
    1UNL     C9   13  -0.604   0.030   0.048
    1UNL     O5   14  -0.696   0.146   0.064
    1UNL    C10   15  -0.565   0.013  -0.101
    1UNL     O6   16  -0.576  -0.120  -0.134
    1UNL     O7   17  -0.166   0.167  -0.177
    1UNL    C11   18  -0.040   0.208  -0.149
    1UNL    C12   19   0.057   0.117  -0.159
    1UNL    C13   20   0.197   0.174  -0.147
    1UNL     O8   21   0.226   0.289  -0.115
    1UNL     N1   22   0.302   0.090  -0.172
    1UNL    C14   23   0.440   0.148  -0.193
    1UNL    C15   24   0.542   0.074  -0.114
    1UNL    C16   25   0.505  -0.018  -0.002
    1UNL    C17   26   0.574  -0.046   0.114
    1UNL    C18   27   0.531  -0.140   0.210
    1UNL     O9   28   0.605  -0.152   0.330
    1UNL    C19   29   0.515  -0.199   0.436
    1UNL    C20   30   0.419  -0.216   0.187
    1UNL    O10   31   0.368  -0.313   0.265
    1UNL    C21   32   0.348  -0.197   0.065
    1UNL    C22   33   0.390  -0.097  -0.018
    1UNL    C23   34   0.302  -0.059  -0.141
    1UNL    C24   35   0.153  -0.108  -0.120
    1UNL    C25   36   0.039  -0.022  -0.191
    1UNL     H1   37  -0.299  -0.366  -0.129
    1UNL     H2   38  -0.311  -0.194  -0.058
    1UNL     H3   39  -0.065  -0.261  -0.214
    1UNL     H4   40  -0.091  -0.058  -0.024
    1UNL     H5   41  -0.233  -0.005  -0.275
    1UNL     H6   42  -0.413   0.116  -0.233
    1UNL     H7   43  -0.459   0.280   0.144
    1UNL     H8   44  -0.217   0.289   0.107
    1UNL     H9   45  -0.204   0.123   0.060
    1UNL    H10   46  -0.293   0.125   0.302
    1UNL    H11   47  -0.399  -0.021   0.123
    1UNL    H12   48  -0.598   0.061   0.303
    1UNL    H13   49  -0.653  -0.052   0.080
    1UNL    H14   50  -0.652   0.222   0.023
    1UNL    H15   51  -0.643   0.070  -0.150
    1UNL    H16   52  -0.669  -0.147  -0.118
    1UNL    H17   53  -0.011   0.312  -0.139
    1UNL    H18   54   0.432   0.255  -0.162
    1UNL    H19   55   0.458   0.147  -0.309
    1UNL    H20   56   0.597   0.020  -0.191
    1UNL    H21   57   0.610   0.151  -0.075
    1UNL    H22   58   0.666   0.014   0.126
    1UNL    H23   59   0.539  -0.306   0.455
    1UNL    H24   60   0.405  -0.193   0.412
    1UNL    H25   61   0.520  -0.135   0.524
    1UNL    H26   62   0.316  -0.377   0.215
    1UNL    H27   63   0.271  -0.271   0.045
    1UNL    H28   64   0.342  -0.112  -0.230
    1UNL    H29   65   0.137  -0.216  -0.136
    1UNL    H30   66   0.130  -0.090  -0.011
    1UNL    H31   67   0.055  -0.041  -0.298
   0.00000   0.00000   0.00000   0.00000   0.00000   0.00000   0.00000   0.00000   0.00000
Generated with MDTraj, t= 17.0
 67
    1UNL     C1    1  -0.240  -0.266  -0.117
    1UNL     C2    2  -0.120  -0.213  -0.127
    1UNL     C3    3  -0.086  -0.070  -0.118
    1UNL     C4    4  -0.200   0.023  -0.163
    1UNL     O1    5  -0.319  -0.003  -0.100
    1UNL     C5    6  -0.429   0.085  -0.123
    1UNL     O2    7  -0.432   0.212  -0.059
    1UNL     C6    8  -0.414   0.200   0.080
    1UNL     C7    9  -0.268   0.205   0.122
    1UNL     O3   10  -0.249   0.171   0.258
    1UNL     C8   11  -0.490   0.084   0.147
    1UNL     O4   12  -0.533   0.129   0.273
    1UNL     C9   13  -0.604   0.028   0.063
    1UNL     O5   14  -0.728   0.101   0.074
    1UNL    C10   15  -0.560   0.006  -0.084
    1UNL     O6   16  -0.553  -0.131  -0.116
    1UNL     O7   17  -0.169   0.174  -0.146
    1UNL    C11   18  -0.039   0.214  -0.153
    1UNL    C12   19   0.063   0.126  -0.176
    1UNL    C13   20   0.197   0.186  -0.184
    1UNL     O8   21   0.221   0.305  -0.203
    1UNL     N1   22   0.304   0.099  -0.161
    1UNL    C14   23   0.441   0.150  -0.169
    1UNL    C15   24   0.531   0.116  -0.053
    1UNL    C16   25   0.494  -0.015   0.014
    1UNL    C17   26   0.566  -0.054   0.131
    1UNL    C18   27   0.535  -0.160   0.207
    1UNL     O9   28   0.613  -0.187   0.327
    1UNL    C19   29   0.527  -0.208   0.441
    1UNL    C20   30   0.429  -0.247   0.166
    1UNL    O10   31   0.381  -0.346   0.250
    1UNL    C21   32   0.368  -0.215   0.043
    1UNL    C22   33   0.390  -0.098  -0.026
    1UNL    C23   34   0.303  -0.055  -0.147
    1UNL    C24   35   0.161  -0.113  -0.132
    1UNL    C25   36   0.051  -0.027  -0.193
    1UNL     H1   37  -0.253  -0.368  -0.140
    1UNL     H2   38  -0.332  -0.209  -0.125
    1UNL     H3   39  -0.033  -0.284  -0.112
    1UNL     H4   40  -0.088  -0.045  -0.014
    1UNL     H5   41  -0.218   0.005  -0.270
    1UNL     H6   42  -0.429   0.117  -0.230
    1UNL     H7   43  -0.466   0.295   0.104
    1UNL     H8   44  -0.231   0.304   0.093
    1UNL     H9   45  -0.212   0.131   0.065
    1UNL    H10   46  -0.336   0.169   0.308
    1UNL    H11   47  -0.420   0.000   0.163
    1UNL    H12   48  -0.630   0.126   0.289
    1UNL    H13   49  -0.621  -0.067   0.095
    1UNL    H14   50  -0.711   0.193   0.058
    1UNL    H15   51  -0.639   0.047  -0.145
    1UNL    H16   52  -0.633  -0.183  -0.094
    1UNL    H17   53  -0.022   0.315  -0.142
    1UNL    H18   54   0.432   0.261  -0.183
    1UNL    H19   55   0.490   0.107  -0.263
    1UNL    H20   56   0.634   0.115  -0.087
    1UNL    H21   57   0.523   0.204   0.011
    1UNL    H22   58   0.639   0.012   0.170
    1UNL    H23   59   0.464  -0.296   0.424
    1UNL    H24   60   0.463  -0.121   0.468
    1UNL    H25   61   0.598  -0.202   0.524
    1UNL    H26   62   0.342  -0.413   0.187
    1UNL    H27   63   0.295  -0.284   0.005
    1UNL    H28   64   0.338  -0.088  -0.246
    1UNL    H29   65   0.153  -0.219  -0.163
    1UNL    H30   66   0.129  -0.122  -0.024
    1UNL    H31   67   0.042  -0.053  -0.300
   0.00000   0.00000   0.00000   0.00000   0.00000   0.00000   0.00000   0.00000   0.00000
Generated with MDTraj, t= 18.0
 67
    1UNL     C1    1  -0.260  -0.243  -0.134
    1UNL     C2    2  -0.137  -0.204  -0.147
    1UNL     C3    3  -0.092  -0.066  -0.109
    1UNL     C4    4  -0.202   0.032  -0.136
    1UNL     O1    5  -0.320   0.014  -0.054
    1UNL     C5    6  -0.433   0.076  -0.119
    1UNL     O2    7  -0.452   0.207  -0.069
    1UNL     C6    8  -0.433   0.209   0.076
    1UNL     C7    9  -0.285   0.223   0.108
    1UNL     O3   10  -0.276   0.238   0.249
    1UNL     C8   11  -0.500   0.083   0.149
    1UNL     O4   12  -0.548   0.128   0.273
    1UNL     C9   13  -0.613   0.022   0.064
    1UNL     O5   14  -0.725   0.105   0.067
    1UNL    C10   15  -0.562  -0.006  -0.085
    1UNL     O6   16  -0.543  -0.145  -0.105
    1UNL     O7   17  -0.153   0.170  -0.136
    1UNL    C11   18  -0.028   0.202  -0.179
    1UNL    C12   19   0.077   0.116  -0.193
    1UNL    C13   20   0.207   0.168  -0.216
    1UNL     O8   21   0.231   0.284  -0.250
    1UNL     N1   22   0.315   0.088  -0.182
    1UNL    C14   23   0.447   0.153  -0.165
    1UNL    C15   24   0.484   0.141  -0.009
    1UNL    C16   25   0.478   0.001   0.043
    1UNL    C17   26   0.556  -0.035   0.158
    1UNL    C18   27   0.548  -0.161   0.217
    1UNL     O9   28   0.621  -0.206   0.327
    1UNL    C19   29   0.539  -0.243   0.435
    1UNL    C20   30   0.458  -0.253   0.147
    1UNL    O10   31   0.444  -0.384   0.197
    1UNL    C21   32   0.380  -0.220   0.037
    1UNL    C22   33   0.384  -0.084  -0.012
    1UNL    C23   34   0.306  -0.057  -0.132
    1UNL    C24   35   0.165  -0.105  -0.095
    1UNL    C25   36   0.055  -0.034  -0.164
    1UNL     H1   37  -0.285  -0.344  -0.168
    1UNL     H2   38  -0.343  -0.188  -0.094
    1UNL     H3   39  -0.068  -0.274  -0.175
    1UNL     H4   40  -0.089  -0.060  -0.002
    1UNL     H5   41  -0.227   0.017  -0.246
    1UNL     H6   42  -0.422   0.083  -0.227
    1UNL     H7   43  -0.483   0.298   0.113
    1UNL     H8   44  -0.241   0.314   0.067
    1UNL     H9   45  -0.233   0.137   0.064
    1UNL    H10   46  -0.362   0.231   0.299
    1UNL    H11   47  -0.427   0.006   0.174
    1UNL    H12   48  -0.644   0.124   0.279
    1UNL    H13   49  -0.645  -0.067   0.102
    1UNL    H14   50  -0.703   0.198   0.059
    1UNL    H15   51  -0.643   0.028  -0.149
    1UNL    H16   52  -0.626  -0.191  -0.083
    1UNL    H17   53  -0.024   0.312  -0.193
    1UNL    H18   54   0.459   0.262  -0.201
    1UNL    H19   55   0.517   0.097  -0.232
    1UNL    H20   56   0.579   0.188   0.016
    1UNL    H21   57   0.413   0.197   0.051
    1UNL    H22   58   0.608   0.049   0.206
    1UNL    H23   59   0.434  -0.238   0.407
    1UNL    H24   60   0.558  -0.184   0.526
    1UNL    H25   61   0.584  -0.338   0.458
    1UNL    H26   62   0.411  -0.450   0.126
    1UNL    H27   63   0.315  -0.296   0.000
    1UNL    H28   64   0.357  -0.115  -0.212
    1UNL    H29   65   0.156  -0.215  -0.094
    1UNL    H30   66   0.155  -0.094   0.017
    1UNL    H31   67   0.072  -0.074  -0.268
   0.00000   0.00000   0.00000   0.00000   0.00000   0.00000   0.00000   0.00000   0.00000
Generated with MDTraj, t= 19.0
 67
    1UNL     C1    1  -0.258  -0.258  -0.157
    1UNL     C2    2  -0.137  -0.208  -0.167
    1UNL     C3    3  -0.102  -0.069  -0.117
    1UNL     C4    4  -0.206   0.034  -0.160
    1UNL     O1    5  -0.335   0.005  -0.085
    1UNL     C5    6  -0.443   0.078  -0.125
    1UNL     O2    7  -0.452   0.209  -0.076
    1UNL     C6    8  -0.449   0.231   0.070
    1UNL     C7    9  -0.316   0.291   0.121
    1UNL     O3   10  -0.322   0.308   0.264
    1UNL     C8   11  -0.489   0.093   0.141
    1UNL     O4   12  -0.524   0.110   0.275
    1UNL     C9   13  -0.613   0.030   0.066
    1UNL     O5   14  -0.721   0.117   0.049
    1UNL    C10   15  -0.564  -0.008  -0.081
    1UNL     O6   16  -0.531  -0.144  -0.083
    1UNL     O7   17  -0.165   0.166  -0.153
    1UNL    C11   18  -0.033   0.201  -0.174
    1UNL    C12   19   0.070   0.113  -0.170
    1UNL    C13   20   0.202   0.154  -0.204
    1UNL     O8   21   0.229   0.267  -0.245
    1UNL     N1   22   0.312   0.066  -0.182
    1UNL    C14   23   0.441   0.130  -0.154
    1UNL    C15   24   0.448   0.143   0.002
    1UNL    C16   25   0.463  -0.001   0.056
    1UNL    C17   26   0.535  -0.025   0.171
    1UNL    C18   27   0.549  -0.156   0.226
    1UNL     O9   28   0.606  -0.175   0.354
    1UNL    C19   29   0.594  -0.304   0.409
    1UNL    C20   30   0.502  -0.263   0.141
    1UNL    O10   31   0.538  -0.401   0.169
    1UNL    C21   32   0.422  -0.234   0.029
    1UNL    C22   33   0.389  -0.102  -0.012
    1UNL    C23   34   0.288  -0.070  -0.119
    1UNL    C24   35   0.148  -0.084  -0.055
    1UNL    C25   36   0.042  -0.039  -0.152
    1UNL     H1   37  -0.288  -0.358  -0.182
    1UNL     H2   38  -0.326  -0.203  -0.098
    1UNL     H3   39  -0.070  -0.265  -0.240
    1UNL     H4   40  -0.113  -0.084  -0.011
    1UNL     H5   41  -0.217   0.019  -0.274
    1UNL     H6   42  -0.442   0.086  -0.231
    1UNL     H7   43  -0.520   0.309   0.089
    1UNL     H8   44  -0.303   0.388   0.074
    1UNL     H9   45  -0.223   0.236   0.102
    1UNL    H10   46  -0.403   0.269   0.303
    1UNL    H11   47  -0.405   0.023   0.137
    1UNL    H12   48  -0.621   0.128   0.275
    1UNL    H13   49  -0.646  -0.054   0.112
    1UNL    H14   50  -0.693   0.206   0.012
    1UNL    H15   51  -0.647   0.009  -0.151
    1UNL    H16   52  -0.611  -0.194  -0.053
    1UNL    H17   53  -0.017   0.312  -0.191
    1UNL    H18   54   0.446   0.229  -0.215
    1UNL    H19   55   0.527   0.076  -0.195
    1UNL    H20   56   0.523   0.207   0.050
    1UNL    H21   57   0.355   0.185   0.040
    1UNL    H22   58   0.584   0.053   0.223
    1UNL    H23   59   0.488  -0.319   0.430
    1UNL    H24   60   0.656  -0.317   0.499
    1UNL    H25   61   0.641  -0.375   0.344
    1UNL    H26   62   0.515  -0.462   0.091
    1UNL    H27   63   0.381  -0.310  -0.039
    1UNL    H28   64   0.294  -0.141  -0.202
    1UNL    H29   65   0.134  -0.186  -0.014
    1UNL    H30   66   0.138  -0.034   0.046
    1UNL    H31   67   0.070  -0.081  -0.252
   0.00000   0.00000   0.00000   0.00000   0.00000   0.00000   0.00000   0.00000   0.00000
Generated with MDTraj, t= 20.0
 67
    1UNL     C1    1  -0.273  -0.267  -0.168
    1UNL     C2    2  -0.149  -0.223  -0.155
    1UNL     C3    3  -0.101  -0.082  -0.108
    1UNL     C4    4  -0.206   0.022  -0.153
    1UNL     O1    5  -0.332   0.003  -0.074
    1UNL     C5    6  -0.444   0.073  -0.131
    1UNL     O2    7  -0.455   0.213  -0.090
    1UNL     C6    8  -0.461   0.241   0.049
    1UNL     C7    9  -0.332   0.309   0.097
    1UNL     O3   10  -0.339   0.353   0.230
    1UNL     C8   11  -0.495   0.114   0.131
    1UNL     O4   12  -0.516   0.130   0.273
    1UNL     C9   13  -0.610   0.041   0.069
    1UNL     O5   14  -0.724   0.117   0.071
    1UNL    C10   15  -0.575  -0.005  -0.081
    1UNL     O6   16  -0.569  -0.145  -0.102
    1UNL     O7   17  -0.176   0.158  -0.159
    1UNL    C11   18  -0.046   0.185  -0.180
    1UNL    C12   19   0.057   0.098  -0.183
    1UNL    C13   20   0.195   0.154  -0.184
    1UNL     O8   21   0.218   0.275  -0.204
    1UNL     N1   22   0.311   0.071  -0.151
    1UNL    C14   23   0.434   0.140  -0.120
    1UNL    C15   24   0.467   0.139   0.024
    1UNL    C16   25   0.450  -0.000   0.087
    1UNL    C17   26   0.517  -0.026   0.201
    1UNL    C18   27   0.550  -0.163   0.221
    1UNL     O9   28   0.624  -0.186   0.340
    1UNL    C19   29   0.683  -0.317   0.369
    1UNL    C20   30   0.512  -0.272   0.131
    1UNL    O10   31   0.571  -0.395   0.152
    1UNL    C21   32   0.424  -0.236   0.033
    1UNL    C22   33   0.396  -0.101   0.005
    1UNL    C23   34   0.298  -0.069  -0.109
    1UNL    C24   35   0.153  -0.103  -0.069
    1UNL    C25   36   0.043  -0.054  -0.164
    1UNL     H1   37  -0.298  -0.362  -0.214
    1UNL     H2   38  -0.354  -0.195  -0.155
    1UNL     H3   39  -0.077  -0.287  -0.193
    1UNL     H4   40  -0.100  -0.085  -0.001
    1UNL     H5   41  -0.230  -0.004  -0.263
    1UNL     H6   42  -0.442   0.080  -0.237
    1UNL     H7   43  -0.539   0.311   0.059
    1UNL     H8   44  -0.302   0.402   0.046
    1UNL     H9   45  -0.249   0.240   0.081
    1UNL    H10   46  -0.385   0.282   0.287
    1UNL    H11   47  -0.408   0.047   0.124
    1UNL    H12   48  -0.614   0.141   0.291
    1UNL    H13   49  -0.623  -0.044   0.125
    1UNL    H14   50  -0.731   0.183  -0.006
    1UNL    H15   51  -0.657   0.029  -0.147
    1UNL    H16   52  -0.653  -0.190  -0.075
    1UNL    H17   53  -0.016   0.287  -0.188
    1UNL    H18   54   0.436   0.247  -0.168
    1UNL    H19   55   0.519   0.092  -0.171
    1UNL    H20   56   0.570   0.173   0.036
    1UNL    H21   57   0.409   0.209   0.083
    1UNL    H22   58   0.582   0.042   0.264
    1UNL    H23   59   0.596  -0.382   0.369
    1UNL    H24   60   0.721  -0.330   0.472
    1UNL    H25   61   0.751  -0.354   0.296
    1UNL    H26   62   0.530  -0.457   0.088
    1UNL    H27   63   0.405  -0.302  -0.049
    1UNL    H28   64   0.321  -0.132  -0.193
    1UNL    H29   65   0.142  -0.211  -0.046
    1UNL    H30   66   0.138  -0.072   0.038
    1UNL    H31   67   0.063  -0.099  -0.266
   0.00000   0.00000   0.00000   0.00000   0.00000   0.00000   0.00000   0.00000   0.00000
Generated with MDTraj, t= 21.0
 67
    1UNL     C1    1  -0.256  -0.278  -0.127
    1UNL     C2    2  -0.138  -0.221  -0.142
    1UNL     C3    3  -0.111  -0.080  -0.101
    1UNL     C4    4  -0.217   0.017  -0.159
    1UNL     O1    5  -0.334  -0.005  -0.080
    1UNL     C5    6  -0.442   0.059  -0.144
    1UNL     O2    7  -0.447   0.205  -0.118
    1UNL     C6    8  -0.451   0.252   0.013
    1UNL     C7    9  -0.314   0.293   0.063
    1UNL     O3   10  -0.325   0.358   0.187
    1UNL     C8   11  -0.482   0.134   0.112
    1UNL     O4   12  -0.531   0.184   0.243
    1UNL     C9   13  -0.589   0.032   0.062
    1UNL     O5   14  -0.721   0.077   0.111
    1UNL    C10   15  -0.579   0.004  -0.094
    1UNL     O6   16  -0.593  -0.129  -0.124
    1UNL     O7   17  -0.183   0.158  -0.158
    1UNL    C11   18  -0.054   0.188  -0.156
    1UNL    C12   19   0.051   0.106  -0.159
    1UNL    C13   20   0.185   0.157  -0.150
    1UNL     O8   21   0.197   0.278  -0.162
    1UNL     N1   22   0.300   0.083  -0.129
    1UNL    C14   23   0.416   0.160  -0.080
    1UNL    C15   24   0.426   0.143   0.069
    1UNL    C16   25   0.450  -0.004   0.095
    1UNL    C17   26   0.554  -0.040   0.180
    1UNL    C18   27   0.585  -0.174   0.201
    1UNL     O9   28   0.672  -0.198   0.309
    1UNL    C19   29   0.732  -0.326   0.310
    1UNL    C20   30   0.513  -0.274   0.127
    1UNL    O10   31   0.534  -0.406   0.176
    1UNL    C21   32   0.419  -0.239   0.030
    1UNL    C22   33   0.392  -0.100   0.010
    1UNL    C23   34   0.286  -0.061  -0.096
    1UNL    C24   35   0.143  -0.108  -0.065
    1UNL    C25   36   0.034  -0.046  -0.146
    1UNL     H1   37  -0.266  -0.379  -0.154
    1UNL     H2   38  -0.344  -0.221  -0.105
    1UNL     H3   39  -0.047  -0.279  -0.172
    1UNL     H4   40  -0.117  -0.063   0.005
    1UNL     H5   41  -0.246  -0.014  -0.267
    1UNL     H6   42  -0.440   0.046  -0.249
    1UNL     H7   43  -0.522   0.329   0.011
    1UNL     H8   44  -0.266   0.364  -0.007
    1UNL     H9   45  -0.246   0.208   0.066
    1UNL    H10   46  -0.401   0.314   0.223
    1UNL    H11   47  -0.389   0.079   0.128
    1UNL    H12   48  -0.630   0.179   0.244
    1UNL    H13   49  -0.575  -0.060   0.105
    1UNL    H14   50  -0.801   0.072   0.052
    1UNL    H15   51  -0.665   0.060  -0.136
    1UNL    H16   52  -0.676  -0.162  -0.084
    1UNL    H17   53  -0.038   0.291  -0.157
    1UNL    H18   54   0.411   0.274  -0.113
    1UNL    H19   55   0.506   0.124  -0.128
    1UNL    H20   56   0.501   0.205   0.119
    1UNL    H21   57   0.327   0.172   0.102
    1UNL    H22   58   0.609   0.033   0.232
    1UNL    H23   59   0.657  -0.392   0.358
    1UNL    H24   60   0.822  -0.341   0.376
    1UNL    H25   61   0.736  -0.367   0.209
    1UNL    H26   62   0.465  -0.469   0.157
    1UNL    H27   63   0.366  -0.313  -0.030
    1UNL    H28   64   0.308  -0.115  -0.188
    1UNL    H29   65   0.146  -0.219  -0.055
    1UNL    H30   66   0.129  -0.085   0.043
    1UNL    H31   67   0.046  -0.083  -0.253
   0.00000   0.00000   0.00000   0.00000   0.00000   0.00000   0.00000   0.00000   0.00000
Generated with MDTraj, t= 22.0
 67
    1UNL     C1    1  -0.239  -0.287  -0.076
    1UNL     C2    2  -0.130  -0.221  -0.113
    1UNL     C3    3  -0.113  -0.079  -0.096
    1UNL     C4    4  -0.226   0.011  -0.154
    1UNL     O1    5  -0.347  -0.026  -0.100
    1UNL     C5    6  -0.454   0.042  -0.165
    1UNL     O2    7  -0.441   0.186  -0.150
    1UNL     C6    8  -0.461   0.247  -0.021
    1UNL     C7    9  -0.330   0.328   0.012
    1UNL     O3   10  -0.289   0.352   0.146
    1UNL     C8   11  -0.479   0.137   0.097
    1UNL     O4   12  -0.527   0.198   0.221
    1UNL     C9   13  -0.580   0.023   0.062
    1UNL     O5   14  -0.705   0.060   0.113
    1UNL    C10   15  -0.586   0.002  -0.093
    1UNL     O6   16  -0.627  -0.128  -0.131
    1UNL     O7   17  -0.192   0.150  -0.169
    1UNL    C11   18  -0.063   0.187  -0.156
    1UNL    C12   19   0.049   0.117  -0.132
    1UNL    C13   20   0.178   0.177  -0.115
    1UNL     O8   21   0.182   0.299  -0.127
    1UNL     N1   22   0.292   0.099  -0.094
    1UNL    C14   23   0.420   0.174  -0.072
    1UNL    C15   24   0.463   0.150   0.081
    1UNL    C16   25   0.463   0.002   0.107
    1UNL    C17   26   0.579  -0.050   0.177
    1UNL    C18   27   0.597  -0.188   0.194
    1UNL     O9   28   0.711  -0.234   0.265
    1UNL    C19   29   0.758  -0.356   0.234
    1UNL    C20   30   0.496  -0.274   0.139
    1UNL    O10   31   0.511  -0.413   0.158
    1UNL    C21   32   0.389  -0.224   0.060
    1UNL    C22   33   0.372  -0.090   0.045
    1UNL    C23   34   0.276  -0.050  -0.054
    1UNL    C24   35   0.131  -0.076  -0.016
    1UNL    C25   36   0.038  -0.034  -0.125
    1UNL     H1   37  -0.241  -0.395  -0.092
    1UNL     H2   38  -0.314  -0.242  -0.013
    1UNL     H3   39  -0.049  -0.268  -0.162
    1UNL     H4   40  -0.119  -0.056   0.010
    1UNL     H5   41  -0.238  -0.025  -0.262
    1UNL     H6   42  -0.466   0.020  -0.270
    1UNL     H7   43  -0.547   0.305  -0.033
    1UNL     H8   44  -0.315   0.415  -0.055
    1UNL     H9   45  -0.251   0.258  -0.018
    1UNL    H10   46  -0.352   0.302   0.210
    1UNL    H11   47  -0.381   0.094   0.119
    1UNL    H12   48  -0.623   0.199   0.229
    1UNL    H13   49  -0.554  -0.072   0.093
    1UNL    H14   50  -0.743  -0.021   0.145
    1UNL    H15   51  -0.666   0.073  -0.122
    1UNL    H16   52  -0.716  -0.153  -0.099
    1UNL    H17   53  -0.059   0.299  -0.152
    1UNL    H18   54   0.410   0.288  -0.093
    1UNL    H19   55   0.496   0.142  -0.144
    1UNL    H20   56   0.559   0.201   0.092
    1UNL    H21   57   0.391   0.198   0.147
    1UNL    H22   58   0.641   0.020   0.228
    1UNL    H23   59   0.698  -0.440   0.275
    1UNL    H24   60   0.853  -0.366   0.294
    1UNL    H25   61   0.753  -0.369   0.126
    1UNL    H26   62   0.424  -0.452   0.149
    1UNL    H27   63   0.311  -0.288   0.026
    1UNL    H28   64   0.298  -0.103  -0.146
    1UNL    H29   65   0.119  -0.184   0.008
    1UNL    H30   66   0.112  -0.026   0.080
    1UNL    H31   67   0.051  -0.077  -0.229
   0.00000   0.00000   0.00000   0.00000   0.00000   0.00000   0.00000   0.00000   0.00000
Generated with MDTraj, t= 23.0
 67
    1UNL     C1    1  -0.245  -0.273  -0.028
    1UNL     C2    2  -0.136  -0.212  -0.075
    1UNL     C3    3  -0.123  -0.062  -0.060
    1UNL     C4    4  -0.225   0.001  -0.166
    1UNL     O1    5  -0.357  -0.020  -0.104
    1UNL     C5    6  -0.462   0.041  -0.176
    1UNL     O2    7  -0.456   0.184  -0.162
    1UNL     C6    8  -0.457   0.238  -0.027
    1UNL     C7    9  -0.329   0.323  -0.013
    1UNL     O3   10  -0.334   0.410   0.098
    1UNL     C8   11  -0.472   0.127   0.085
    1UNL     O4   12  -0.486   0.176   0.214
    1UNL     C9   13  -0.585   0.018   0.046
    1UNL     O5   14  -0.705   0.045   0.106
    1UNL    C10   15  -0.595  -0.007  -0.110
    1UNL     O6   16  -0.624  -0.148  -0.132
    1UNL     O7   17  -0.190   0.133  -0.212
    1UNL    C11   18  -0.069   0.187  -0.172
    1UNL    C12   19   0.036   0.124  -0.116
    1UNL    C13   20   0.161   0.197  -0.087
    1UNL     O8   21   0.167   0.317  -0.122
    1UNL     N1   22   0.275   0.124  -0.033
    1UNL    C14   23   0.403   0.192  -0.032
    1UNL    C15   24   0.508   0.138   0.073
    1UNL    C16   25   0.491  -0.006   0.106
    1UNL    C17   26   0.600  -0.073   0.164
    1UNL    C18   27   0.609  -0.208   0.180
    1UNL     O9   28   0.729  -0.261   0.237
    1UNL    C19   29   0.775  -0.382   0.182
    1UNL    C20   30   0.498  -0.283   0.133
    1UNL    O10   31   0.496  -0.421   0.155
    1UNL    C21   32   0.390  -0.219   0.074
    1UNL    C22   33   0.388  -0.084   0.059
    1UNL    C23   34   0.272  -0.025  -0.028
    1UNL    C24   35   0.130  -0.064   0.019
    1UNL    C25   36   0.031  -0.018  -0.084
    1UNL     H1   37  -0.257  -0.378  -0.018
    1UNL     H2   38  -0.315  -0.213   0.023
    1UNL     H3   39  -0.046  -0.265  -0.100
    1UNL     H4   40  -0.146  -0.028   0.041
    1UNL     H5   41  -0.216  -0.069  -0.253
    1UNL     H6   42  -0.459   0.014  -0.281
    1UNL     H7   43  -0.539   0.303  -0.027
    1UNL     H8   44  -0.334   0.398  -0.094
    1UNL     H9   45  -0.236   0.266  -0.030
    1UNL    H10   46  -0.375   0.382   0.178
    1UNL    H11   47  -0.375   0.077   0.090
    1UNL    H12   48  -0.575   0.151   0.254
    1UNL    H13   49  -0.562  -0.067   0.097
    1UNL    H14   50  -0.721   0.142   0.103
    1UNL    H15   51  -0.673   0.064  -0.140
    1UNL    H16   52  -0.701  -0.185  -0.085
    1UNL    H17   53  -0.043   0.296  -0.191
    1UNL    H18   54   0.377   0.302  -0.023
    1UNL    H19   55   0.452   0.187  -0.132
    1UNL    H20   56   0.607   0.144   0.025
    1UNL    H21   57   0.501   0.211   0.155
    1UNL    H22   58   0.681  -0.006   0.207
    1UNL    H23   59   0.721  -0.474   0.212
    1UNL    H24   60   0.875  -0.398   0.228
    1UNL    H25   61   0.767  -0.380   0.075
    1UNL    H26   62   0.401  -0.453   0.156
    1UNL    H27   63   0.318  -0.293   0.041
    1UNL    H28   64   0.295  -0.060  -0.128
    1UNL    H29   65   0.129  -0.177   0.028
    1UNL    H30   66   0.111  -0.018   0.117
    1UNL    H31   67   0.056  -0.067  -0.183
   0.00000   0.00000   0.00000   0.00000   0.00000   0.00000   0.00000   0.00000   0.00000
Generated with MDTraj, t= 24.0
 67
    1UNL     C1    1  -0.257  -0.261   0.014
    1UNL     C2    2  -0.137  -0.207  -0.003
    1UNL     C3    3  -0.119  -0.058  -0.034
    1UNL     C4    4  -0.205  -0.000  -0.148
    1UNL     O1    5  -0.341  -0.031  -0.104
    1UNL     C5    6  -0.445   0.028  -0.175
    1UNL     O2    7  -0.442   0.166  -0.181
    1UNL     C6    8  -0.453   0.235  -0.055
    1UNL     C7    9  -0.353   0.348  -0.021
    1UNL     O3   10  -0.384   0.412   0.102
    1UNL     C8   11  -0.460   0.129   0.063
    1UNL     O4   12  -0.477   0.193   0.184
    1UNL     C9   13  -0.581   0.030   0.036
    1UNL     O5   14  -0.704   0.074   0.076
    1UNL    C10   15  -0.577  -0.018  -0.114
    1UNL     O6   16  -0.590  -0.163  -0.121
    1UNL     O7   17  -0.191   0.130  -0.182
    1UNL    C11   18  -0.066   0.182  -0.162
    1UNL    C12   19   0.040   0.115  -0.108
    1UNL    C13   20   0.158   0.193  -0.073
    1UNL     O8   21   0.157   0.315  -0.091
    1UNL     N1   22   0.273   0.127  -0.028
    1UNL    C14   23   0.401   0.196  -0.009
    1UNL    C15   24   0.482   0.146   0.102
    1UNL    C16   25   0.501  -0.003   0.086
    1UNL    C17   26   0.612  -0.075   0.136
    1UNL    C18   27   0.614  -0.212   0.144
    1UNL     O9   28   0.728  -0.268   0.206
    1UNL    C19   29   0.757  -0.396   0.151
    1UNL    C20   30   0.500  -0.285   0.120
    1UNL    O10   31   0.482  -0.415   0.149
    1UNL    C21   32   0.389  -0.214   0.069
    1UNL    C22   33   0.388  -0.078   0.054
    1UNL    C23   34   0.271  -0.017  -0.019
    1UNL    C24   35   0.131  -0.077   0.024
    1UNL    C25   36   0.026  -0.034  -0.080
    1UNL     H1   37  -0.275  -0.368   0.011
    1UNL     H2   38  -0.341  -0.190   0.014
    1UNL     H3   39  -0.044  -0.264   0.009
    1UNL     H4   40  -0.140   0.009   0.050
    1UNL     H5   41  -0.192  -0.064  -0.235
    1UNL     H6   42  -0.435  -0.009  -0.279
    1UNL     H7   43  -0.543   0.283  -0.079
    1UNL     H8   44  -0.364   0.423  -0.101
    1UNL     H9   45  -0.247   0.322  -0.022
    1UNL    H10   46  -0.439   0.355   0.167
    1UNL    H11   47  -0.369   0.071   0.057
    1UNL    H12   48  -0.542   0.140   0.232
    1UNL    H13   49  -0.572  -0.059   0.085
    1UNL    H14   50  -0.716   0.169   0.042
    1UNL    H15   51  -0.654   0.029  -0.175
    1UNL    H16   52  -0.669  -0.201  -0.075
    1UNL    H17   53  -0.051   0.284  -0.180
    1UNL    H18   54   0.382   0.305   0.007
    1UNL    H19   55   0.450   0.204  -0.112
    1UNL    H20   56   0.582   0.192   0.105
    1UNL    H21   57   0.437   0.159   0.200
    1UNL    H22   58   0.693  -0.018   0.162
    1UNL    H23   59   0.686  -0.474   0.182
    1UNL    H24   60   0.851  -0.442   0.184
    1UNL    H25   61   0.749  -0.395   0.045
    1UNL    H26   62   0.381  -0.429   0.149
    1UNL    H27   63   0.307  -0.273   0.028
    1UNL    H28   64   0.303  -0.048  -0.120
    1UNL    H29   65   0.129  -0.190   0.031
    1UNL    H30   66   0.104  -0.030   0.119
    1UNL    H31   67   0.042  -0.091  -0.176
   0.00000   0.00000   0.00000   0.00000   0.00000   0.00000   0.00000   0.00000   0.00000
Generated with MDTraj, t= 25.0
 67
    1UNL     C1    1  -0.240  -0.255   0.047
    1UNL     C2    2  -0.126  -0.200   0.007
    1UNL     C3    3  -0.110  -0.051  -0.027
    1UNL     C4    4  -0.202   0.001  -0.130
    1UNL     O1    5  -0.338  -0.027  -0.086
    1UNL     C5    6  -0.451   0.014  -0.172
    1UNL     O2    7  -0.460   0.162  -0.189
    1UNL     C6    8  -0.476   0.233  -0.065
    1UNL     C7    9  -0.369   0.341  -0.046
    1UNL     O3   10  -0.388   0.431   0.060
    1UNL     C8   11  -0.493   0.137   0.066
    1UNL     O4   12  -0.531   0.218   0.177
    1UNL     C9   13  -0.608   0.030   0.041
    1UNL     O5   14  -0.735   0.086   0.046
    1UNL    C10   15  -0.586  -0.029  -0.107
    1UNL     O6   16  -0.594  -0.170  -0.125
    1UNL     O7   17  -0.185   0.138  -0.163
    1UNL    C11   18  -0.063   0.191  -0.131
    1UNL    C12   19   0.049   0.127  -0.089
    1UNL    C13   20   0.170   0.195  -0.062
    1UNL     O8   21   0.176   0.317  -0.062
    1UNL     N1   22   0.286   0.121  -0.039
    1UNL    C14   23   0.415   0.183  -0.022
    1UNL    C15   24   0.484   0.139   0.100
    1UNL    C16   25   0.488  -0.015   0.110
    1UNL    C17   26   0.600  -0.080   0.154
    1UNL    C18   27   0.618  -0.214   0.152
    1UNL     O9   28   0.741  -0.263   0.191
    1UNL    C19   29   0.772  -0.394   0.149
    1UNL    C20   30   0.515  -0.295   0.102
    1UNL    O10   31   0.511  -0.433   0.104
    1UNL    C21   32   0.408  -0.229   0.048
    1UNL    C22   33   0.396  -0.095   0.050
    1UNL    C23   34   0.281  -0.027  -0.027
    1UNL    C24   35   0.146  -0.071   0.032
    1UNL    C25   36   0.035  -0.023  -0.066
    1UNL     H1   37  -0.240  -0.351   0.091
    1UNL     H2   38  -0.328  -0.196   0.043
    1UNL     H3   39  -0.042  -0.261   0.006
    1UNL     H4   40  -0.125   0.016   0.059
    1UNL     H5   41  -0.188  -0.067  -0.211
    1UNL     H6   42  -0.441  -0.041  -0.269
    1UNL     H7   43  -0.562   0.288  -0.077
    1UNL     H8   44  -0.347   0.410  -0.127
    1UNL     H9   45  -0.277   0.287  -0.028
    1UNL    H10   46  -0.439   0.378   0.123
    1UNL    H11   47  -0.401   0.088   0.098
    1UNL    H12   48  -0.561   0.161   0.251
    1UNL    H13   49  -0.610  -0.047   0.108
    1UNL    H14   50  -0.738   0.174  -0.005
    1UNL    H15   51  -0.666   0.024  -0.160
    1UNL    H16   52  -0.686  -0.194  -0.098
    1UNL    H17   53  -0.063   0.296  -0.143
    1UNL    H18   54   0.396   0.292  -0.025
    1UNL    H19   55   0.477   0.167  -0.119
    1UNL    H20   56   0.591   0.170   0.109
    1UNL    H21   57   0.432   0.171   0.191
    1UNL    H22   58   0.681  -0.026   0.211
    1UNL    H23   59   0.720  -0.466   0.213
    1UNL    H24   60   0.878  -0.418   0.158
    1UNL    H25   61   0.742  -0.415   0.050
    1UNL    H26   62   0.425  -0.476   0.074
    1UNL    H27   63   0.334  -0.286  -0.003
    1UNL    H28   64   0.285  -0.071  -0.126
    1UNL    H29   65   0.139  -0.183   0.041
    1UNL    H30   66   0.118  -0.017   0.124
    1UNL    H31   67   0.049  -0.079  -0.162
   0.00000   0.00000   0.00000   0.00000   0.00000   0.00000   0.00000   0.00000   0.00000
Generated with MDTraj, t= 26.0
 67
    1UNL     C1    1  -0.231  -0.254   0.071
    1UNL     C2    2  -0.149  -0.197  -0.018
    1UNL     C3    3  -0.115  -0.053  -0.021
    1UNL     C4    4  -0.216   0.020  -0.107
    1UNL     O1    5  -0.348  -0.010  -0.056
    1UNL     C5    6  -0.450   0.016  -0.151
    1UNL     O2    7  -0.456   0.154  -0.184
    1UNL     C6    8  -0.493   0.237  -0.084
    1UNL     C7    9  -0.389   0.340  -0.057
    1UNL     O3   10  -0.408   0.431   0.045
    1UNL     C8   11  -0.535   0.169   0.052
    1UNL     O4   12  -0.596   0.272   0.141
    1UNL     C9   13  -0.630   0.041   0.024
    1UNL     O5   14  -0.771   0.068   0.018
    1UNL    C10   15  -0.587  -0.037  -0.103
    1UNL     O6   16  -0.595  -0.180  -0.093
    1UNL     O7   17  -0.183   0.169  -0.121
    1UNL    C11   18  -0.055   0.204  -0.102
    1UNL    C12   19   0.048   0.123  -0.075
    1UNL    C13   20   0.178   0.187  -0.066
    1UNL     O8   21   0.188   0.312  -0.080
    1UNL     N1   22   0.293   0.108  -0.042
    1UNL    C14   23   0.418   0.188  -0.020
    1UNL    C15   24   0.493   0.123   0.103
    1UNL    C16   25   0.496  -0.030   0.106
    1UNL    C17   26   0.611  -0.091   0.164
    1UNL    C18   27   0.638  -0.230   0.160
    1UNL     O9   28   0.746  -0.286   0.224
    1UNL    C19   29   0.813  -0.382   0.161
    1UNL    C20   30   0.547  -0.308   0.084
    1UNL    O10   31   0.573  -0.440   0.062
    1UNL    C21   32   0.440  -0.243   0.018
    1UNL    C22   33   0.408  -0.105   0.032
    1UNL    C23   34   0.282  -0.037  -0.030
    1UNL    C24   35   0.151  -0.074   0.034
    1UNL    C25   36   0.035  -0.020  -0.058
    1UNL     H1   37  -0.266  -0.358   0.062
    1UNL     H2   38  -0.263  -0.198   0.158
    1UNL     H3   39  -0.138  -0.241  -0.121
    1UNL     H4   40  -0.128  -0.006   0.077
    1UNL     H5   41  -0.217  -0.020  -0.204
    1UNL     H6   42  -0.437  -0.040  -0.250
    1UNL     H7   43  -0.578   0.280  -0.125
    1UNL     H8   44  -0.366   0.396  -0.147
    1UNL     H9   45  -0.294   0.296  -0.026
    1UNL    H10   46  -0.494   0.398   0.086
    1UNL    H11   47  -0.451   0.139   0.115
    1UNL    H12   48  -0.651   0.231   0.216
    1UNL    H13   49  -0.611  -0.026   0.098
    1UNL    H14   50  -0.809   0.109   0.097
    1UNL    H15   51  -0.649  -0.013  -0.190
    1UNL    H16   52  -0.689  -0.207  -0.086
    1UNL    H17   53  -0.027   0.313  -0.115
    1UNL    H18   54   0.400   0.295  -0.011
    1UNL    H19   55   0.475   0.166  -0.118
    1UNL    H20   56   0.600   0.155   0.098
    1UNL    H21   57   0.452   0.147   0.203
    1UNL    H22   58   0.676  -0.034   0.225
    1UNL    H23   59   0.753  -0.463   0.119
    1UNL    H24   60   0.878  -0.434   0.235
    1UNL    H25   61   0.891  -0.346   0.096
    1UNL    H26   62   0.507  -0.478   0.002
    1UNL    H27   63   0.363  -0.298  -0.031
    1UNL    H28   64   0.275  -0.080  -0.130
    1UNL    H29   65   0.143  -0.185   0.040
    1UNL    H30   66   0.154  -0.020   0.132
    1UNL    H31   67   0.055  -0.065  -0.159
   0.00000   0.00000   0.00000   0.00000   0.00000   0.00000   0.00000   0.00000   0.00000
Generated with MDTraj, t= 27.0
 67
    1UNL     C1    1  -0.224  -0.265   0.078
    1UNL     C2    2  -0.121  -0.209   0.010
    1UNL     C3    3  -0.098  -0.064  -0.004
    1UNL     C4    4  -0.203   0.020  -0.071
    1UNL     O1    5  -0.336  -0.008  -0.034
    1UNL     C5    6  -0.436   0.021  -0.140
    1UNL     O2    7  -0.446   0.161  -0.182
    1UNL     C6    8  -0.514   0.248  -0.088
    1UNL     C7    9  -0.423   0.364  -0.051
    1UNL     O3   10  -0.484   0.467   0.022
    1UNL     C8   11  -0.572   0.190   0.045
    1UNL     O4   12  -0.652   0.282   0.116
    1UNL     C9   13  -0.645   0.056   0.014
    1UNL     O5   14  -0.787   0.068  -0.001
    1UNL    C10   15  -0.573  -0.033  -0.096
    1UNL     O6   16  -0.563  -0.169  -0.056
    1UNL     O7   17  -0.174   0.168  -0.059
    1UNL    C11   18  -0.042   0.203  -0.074
    1UNL    C12   19   0.060   0.114  -0.081
    1UNL    C13   20   0.195   0.175  -0.082
    1UNL     O8   21   0.208   0.299  -0.089
    1UNL     N1   22   0.308   0.099  -0.057
    1UNL    C14   23   0.429   0.171  -0.015
    1UNL    C15   24   0.471   0.110   0.125
    1UNL    C16   25   0.498  -0.035   0.108
    1UNL    C17   26   0.597  -0.097   0.177
    1UNL    C18   27   0.626  -0.230   0.157
    1UNL     O9   28   0.734  -0.290   0.233
    1UNL    C19   29   0.814  -0.366   0.155
    1UNL    C20   30   0.554  -0.305   0.062
    1UNL    O10   31   0.602  -0.436   0.034
    1UNL    C21   32   0.444  -0.248   0.011
    1UNL    C22   33   0.416  -0.111   0.024
    1UNL    C23   34   0.299  -0.051  -0.050
    1UNL    C24   35   0.160  -0.108  -0.014
    1UNL    C25   36   0.039  -0.032  -0.076
    1UNL     H1   37  -0.236  -0.370   0.086
    1UNL     H2   38  -0.309  -0.211   0.111
    1UNL     H3   39  -0.053  -0.266  -0.043
    1UNL     H4   40  -0.089  -0.023   0.097
    1UNL     H5   41  -0.199  -0.003  -0.173
    1UNL     H6   42  -0.409  -0.043  -0.232
    1UNL     H7   43  -0.594   0.276  -0.147
    1UNL     H8   44  -0.403   0.421  -0.142
    1UNL     H9   45  -0.324   0.340  -0.012
    1UNL    H10   46  -0.522   0.432   0.107
    1UNL    H11   47  -0.491   0.163   0.114
    1UNL    H12   48  -0.720   0.308   0.050
    1UNL    H13   49  -0.636   0.004   0.101
    1UNL    H14   50  -0.821   0.089  -0.090
    1UNL    H15   51  -0.636  -0.020  -0.187
    1UNL    H16   52  -0.655  -0.195  -0.039
    1UNL    H17   53  -0.020   0.310  -0.069
    1UNL    H18   54   0.397   0.274  -0.005
    1UNL    H19   55   0.517   0.156  -0.086
    1UNL    H20   56   0.565   0.157   0.164
    1UNL    H21   57   0.385   0.130   0.191
    1UNL    H22   58   0.656  -0.045   0.252
    1UNL    H23   59   0.783  -0.472   0.154
    1UNL    H24   60   0.920  -0.369   0.192
    1UNL    H25   61   0.840  -0.326   0.057
    1UNL    H26   62   0.569  -0.474  -0.047
    1UNL    H27   63   0.385  -0.296  -0.066
    1UNL    H28   64   0.312  -0.081  -0.153
    1UNL    H29   65   0.166  -0.214  -0.044
    1UNL    H30   66   0.163  -0.091   0.098
    1UNL    H31   67   0.026  -0.071  -0.180
   0.00000   0.00000   0.00000   0.00000   0.00000   0.00000   0.00000   0.00000   0.00000
Generated with MDTraj, t= 28.0
 67
    1UNL     C1    1  -0.247  -0.254   0.060
    1UNL     C2    2  -0.145  -0.195  -0.003
    1UNL     C3    3  -0.092  -0.051   0.010
    1UNL     C4    4  -0.195   0.043  -0.043
    1UNL     O1    5  -0.326   0.006   0.005
    1UNL     C5    6  -0.415   0.011  -0.105
    1UNL     O2    7  -0.422   0.141  -0.159
    1UNL     C6    8  -0.505   0.237  -0.090
    1UNL     C7    9  -0.433   0.371  -0.067
    1UNL     O3   10  -0.532   0.472  -0.032
    1UNL     C8   11  -0.571   0.183   0.053
    1UNL     O4   12  -0.678   0.257   0.096
    1UNL     C9   13  -0.643   0.048   0.013
    1UNL     O5   14  -0.765   0.082  -0.050
    1UNL    C10   15  -0.557  -0.040  -0.081
    1UNL     O6   16  -0.553  -0.171  -0.032
    1UNL     O7   17  -0.167   0.184  -0.022
    1UNL    C11   18  -0.037   0.216  -0.059
    1UNL    C12   19   0.066   0.124  -0.076
    1UNL    C13   20   0.203   0.180  -0.085
    1UNL     O8   21   0.221   0.303  -0.081
    1UNL     N1   22   0.314   0.096  -0.075
    1UNL    C14   23   0.433   0.152  -0.010
    1UNL    C15   24   0.446   0.093   0.131
    1UNL    C16   25   0.473  -0.051   0.113
    1UNL    C17   26   0.576  -0.103   0.180
    1UNL    C18   27   0.630  -0.229   0.140
    1UNL     O9   28   0.739  -0.271   0.216
    1UNL    C19   29   0.812  -0.380   0.164
    1UNL    C20   30   0.560  -0.308   0.045
    1UNL    O10   31   0.594  -0.443   0.030
    1UNL    C21   32   0.460  -0.245  -0.031
    1UNL    C22   33   0.415  -0.117   0.007
    1UNL    C23   34   0.298  -0.055  -0.066
    1UNL    C24   35   0.165  -0.097   0.005
    1UNL    C25   36   0.044  -0.027  -0.060
    1UNL     H1   37  -0.268  -0.357   0.037
    1UNL     H2   38  -0.323  -0.196   0.115
    1UNL     H3   39  -0.086  -0.270  -0.063
    1UNL     H4   40  -0.083  -0.030   0.117
    1UNL     H5   41  -0.189   0.028  -0.149
    1UNL     H6   42  -0.377  -0.062  -0.183
    1UNL     H7   43  -0.575   0.256  -0.163
    1UNL     H8   44  -0.380   0.407  -0.156
    1UNL     H9   45  -0.355   0.360   0.009
    1UNL    H10   46  -0.599   0.442   0.030
    1UNL    H11   47  -0.495   0.179   0.132
    1UNL    H12   48  -0.703   0.247   0.188
    1UNL    H13   49  -0.665  -0.007   0.096
    1UNL    H14   50  -0.771   0.182  -0.070
    1UNL    H15   51  -0.602  -0.038  -0.184
    1UNL    H16   52  -0.645  -0.202  -0.025
    1UNL    H17   53  -0.026   0.317  -0.074
    1UNL    H18   54   0.429   0.257   0.015
    1UNL    H19   55   0.524   0.123  -0.068
    1UNL    H20   56   0.527   0.152   0.181
    1UNL    H21   57   0.348   0.103   0.183
    1UNL    H22   58   0.641  -0.044   0.246
    1UNL    H23   59   0.746  -0.468   0.163
    1UNL    H24   60   0.909  -0.417   0.206
    1UNL    H25   61   0.846  -0.361   0.062
    1UNL    H26   62   0.554  -0.473  -0.052
    1UNL    H27   63   0.427  -0.290  -0.124
    1UNL    H28   64   0.306  -0.081  -0.168
    1UNL    H29   65   0.162  -0.207  -0.002
    1UNL    H30   66   0.172  -0.055   0.112
    1UNL    H31   67   0.026  -0.070  -0.161
   0.00000   0.00000   0.00000   0.00000   0.00000   0.00000   0.00000   0.00000   0.00000
Generated with MDTraj, t= 29.0
 67
    1UNL     C1    1  -0.250  -0.245   0.041
    1UNL     C2    2  -0.145  -0.184  -0.013
    1UNL     C3    3  -0.101  -0.038   0.012
    1UNL     C4    4  -0.204   0.063  -0.033
    1UNL     O1    5  -0.341   0.020  -0.006
    1UNL     C5    6  -0.423   0.007  -0.123
    1UNL     O2    7  -0.440   0.137  -0.185
    1UNL     C6    8  -0.527   0.231  -0.121
    1UNL     C7    9  -0.450   0.366  -0.122
    1UNL     O3   10  -0.519   0.467  -0.061
    1UNL     C8   11  -0.566   0.176   0.028
    1UNL     O4   12  -0.634   0.258   0.110
    1UNL     C9   13  -0.642   0.035   0.010
    1UNL     O5   14  -0.765   0.050  -0.055
    1UNL    C10   15  -0.557  -0.067  -0.077
    1UNL     O6   16  -0.537  -0.177   0.008
    1UNL     O7   17  -0.170   0.193   0.028
    1UNL    C11   18  -0.041   0.230  -0.000
    1UNL    C12   19   0.059   0.144  -0.033
    1UNL    C13   20   0.191   0.191  -0.062
    1UNL     O8   21   0.214   0.310  -0.086
    1UNL     N1   22   0.306   0.106  -0.053
    1UNL    C14   23   0.443   0.156  -0.033
    1UNL    C15   24   0.494   0.108   0.105
    1UNL    C16   25   0.496  -0.045   0.112
    1UNL    C17   26   0.608  -0.108   0.167
    1UNL    C18   27   0.637  -0.242   0.144
    1UNL     O9   28   0.746  -0.304   0.210
    1UNL    C19   29   0.790  -0.428   0.167
    1UNL    C20   30   0.560  -0.308   0.042
    1UNL    O10   31   0.600  -0.435  -0.006
    1UNL    C21   32   0.447  -0.245  -0.010
    1UNL    C22   33   0.402  -0.116   0.026
    1UNL    C23   34   0.286  -0.045  -0.052
    1UNL    C24   35   0.149  -0.075   0.021
    1UNL    C25   36   0.032  -0.003  -0.048
    1UNL     H1   37  -0.266  -0.350   0.033
    1UNL     H2   38  -0.295  -0.184   0.116
    1UNL     H3   39  -0.094  -0.249  -0.080
    1UNL     H4   40  -0.087  -0.028   0.121
    1UNL     H5   41  -0.183   0.076  -0.140
    1UNL     H6   42  -0.371  -0.061  -0.192
    1UNL     H7   43  -0.607   0.240  -0.184
    1UNL     H8   44  -0.419   0.396  -0.225
    1UNL     H9   45  -0.358   0.345  -0.065
    1UNL    H10   46  -0.564   0.429   0.022
    1UNL    H11   47  -0.471   0.152   0.078
    1UNL    H12   48  -0.627   0.232   0.204
    1UNL    H13   49  -0.663  -0.012   0.098
    1UNL    H14   50  -0.793   0.146  -0.059
    1UNL    H15   51  -0.617  -0.103  -0.165
    1UNL    H16   52  -0.621  -0.220   0.035
    1UNL    H17   53  -0.024   0.338   0.004
    1UNL    H18   54   0.449   0.264  -0.032
    1UNL    H19   55   0.508   0.110  -0.108
    1UNL    H20   56   0.597   0.139   0.132
    1UNL    H21   57   0.424   0.154   0.179
    1UNL    H22   58   0.664  -0.059   0.240
    1UNL    H23   59   0.709  -0.500   0.179
    1UNL    H24   60   0.881  -0.469   0.212
    1UNL    H25   61   0.809  -0.432   0.060
    1UNL    H26   62   0.558  -0.454  -0.094
    1UNL    H27   63   0.394  -0.297  -0.087
    1UNL    H28   64   0.280  -0.077  -0.150
    1UNL    H29   65   0.124  -0.182   0.021
    1UNL    H30   66   0.154  -0.034   0.128
    1UNL    H31   67   0.029  -0.025  -0.156
   0.00000   0.00000   0.00000   0.00000   0.00000   0.00000   0.00000   0.00000   0.00000
Generated with MDTraj, t= 30.0
 67
    1UNL     C1    1  -0.247  -0.244   0.013
    1UNL     C2    2  -0.140  -0.176  -0.029
    1UNL     C3    3  -0.099  -0.035   0.013
    1UNL     C4    4  -0.202   0.066  -0.035
    1UNL     O1    5  -0.333   0.026   0.009
    1UNL     C5    6  -0.414  -0.010  -0.103
    1UNL     O2    7  -0.440   0.099  -0.193
    1UNL     C6    8  -0.510   0.204  -0.129
    1UNL     C7    9  -0.425   0.332  -0.126
    1UNL     O3   10  -0.493   0.450  -0.106
    1UNL     C8   11  -0.568   0.177   0.015
    1UNL     O4   12  -0.644   0.277   0.074
    1UNL     C9   13  -0.628   0.028   0.025
    1UNL     O5   14  -0.764   0.041  -0.013
    1UNL    C10   15  -0.548  -0.073  -0.058
    1UNL     O6   16  -0.548  -0.198   0.003
    1UNL     O7   17  -0.174   0.206   0.001
    1UNL    C11   18  -0.043   0.233  -0.003
    1UNL    C12   19   0.061   0.151  -0.016
    1UNL    C13   20   0.192   0.208  -0.022
    1UNL     O8   21   0.209   0.331  -0.009
    1UNL     N1   22   0.307   0.120  -0.024
    1UNL    C14   23   0.442   0.183  -0.023
    1UNL    C15   24   0.525   0.120   0.095
    1UNL    C16   25   0.523  -0.035   0.076
    1UNL    C17   26   0.638  -0.104   0.122
    1UNL    C18   27   0.636  -0.240   0.103
    1UNL     O9   28   0.743  -0.312   0.177
    1UNL    C19   29   0.740  -0.443   0.171
    1UNL    C20   30   0.530  -0.308   0.039
    1UNL    O10   31   0.538  -0.445   0.010
    1UNL    C21   32   0.418  -0.236  -0.004
    1UNL    C22   33   0.408  -0.099   0.025
    1UNL    C23   34   0.287  -0.027  -0.032
    1UNL    C24   35   0.158  -0.075   0.036
    1UNL    C25   36   0.040   0.004  -0.031
    1UNL     H1   37  -0.284  -0.339  -0.026
    1UNL     H2   38  -0.293  -0.202   0.099
    1UNL     H3   39  -0.073  -0.221  -0.104
    1UNL     H4   40  -0.104  -0.027   0.123
    1UNL     H5   41  -0.196   0.075  -0.147
    1UNL     H6   42  -0.352  -0.080  -0.159
    1UNL     H7   43  -0.590   0.228  -0.190
    1UNL     H8   44  -0.395   0.346  -0.233
    1UNL     H9   45  -0.338   0.320  -0.059
    1UNL    H10   46  -0.557   0.421  -0.042
    1UNL    H11   47  -0.486   0.167   0.087
    1UNL    H12   48  -0.644   0.273   0.175
    1UNL    H13   49  -0.629  -0.002   0.124
    1UNL    H14   50  -0.778   0.128  -0.052
    1UNL    H15   51  -0.611  -0.083  -0.150
    1UNL    H16   52  -0.640  -0.226   0.028
    1UNL    H17   53  -0.012   0.342   0.010
    1UNL    H18   54   0.426   0.290  -0.011
    1UNL    H19   55   0.490   0.164  -0.118
    1UNL    H20   56   0.628   0.159   0.107
    1UNL    H21   57   0.482   0.130   0.199
    1UNL    H22   58   0.710  -0.050   0.187
    1UNL    H23   59   0.645  -0.487   0.201
    1UNL    H24   60   0.826  -0.480   0.228
    1UNL    H25   61   0.748  -0.483   0.072
    1UNL    H26   62   0.477  -0.470  -0.067
    1UNL    H27   63   0.331  -0.288  -0.043
    1UNL    H28   64   0.278  -0.053  -0.130
    1UNL    H29   65   0.142  -0.184   0.031
    1UNL    H30   66   0.166  -0.046   0.145
    1UNL    H31   67   0.054  -0.011  -0.139
   0.00000   0.00000   0.00000   0.00000   0.00000   0.00000   0.00000   0.00000   0.00000
Generated with MDTraj, t= 31.0
 67
    1UNL     C1    1  -0.196  -0.256   0.006
    1UNL     C2    2  -0.095  -0.174  -0.028
    1UNL     C3    3  -0.087  -0.036   0.012
    1UNL     C4    4  -0.197   0.048  -0.039
    1UNL     O1    5  -0.319  -0.009   0.008
    1UNL     C5    6  -0.414  -0.031  -0.103
    1UNL     O2    7  -0.440   0.074  -0.192
    1UNL     C6    8  -0.500   0.193  -0.137
    1UNL     C7    9  -0.401   0.315  -0.138
    1UNL     O3   10  -0.467   0.439  -0.143
    1UNL     C8   11  -0.558   0.185   0.012
    1UNL     O4   12  -0.661   0.280   0.024
    1UNL     C9   13  -0.614   0.041   0.042
    1UNL     O5   14  -0.756   0.053   0.036
    1UNL    C10   15  -0.552  -0.068  -0.044
    1UNL     O6   16  -0.550  -0.201   0.007
    1UNL     O7   17  -0.183   0.192  -0.003
    1UNL    C11   18  -0.055   0.236   0.015
    1UNL    C12   19   0.059   0.171  -0.010
    1UNL    C13   20   0.191   0.226   0.016
    1UNL     O8   21   0.197   0.339   0.069
    1UNL     N1   22   0.309   0.143  -0.006
    1UNL    C14   23   0.439   0.206   0.002
    1UNL    C15   24   0.535   0.120   0.085
    1UNL    C16   25   0.525  -0.029   0.060
    1UNL    C17   26   0.632  -0.114   0.095
    1UNL    C18   27   0.622  -0.249   0.085
    1UNL     O9   28   0.736  -0.329   0.106
    1UNL    C19   29   0.719  -0.448   0.172
    1UNL    C20   30   0.489  -0.307   0.045
    1UNL    O10   31   0.472  -0.446   0.063
    1UNL    C21   32   0.391  -0.218  -0.006
    1UNL    C22   33   0.416  -0.083   0.002
    1UNL    C23   34   0.298   0.001  -0.041
    1UNL    C24   35   0.168  -0.060   0.015
    1UNL    C25   36   0.046   0.020  -0.037
    1UNL     H1   37  -0.206  -0.354  -0.037
    1UNL     H2   38  -0.288  -0.234   0.061
    1UNL     H3   39  -0.012  -0.221  -0.081
    1UNL     H4   40  -0.098  -0.033   0.122
    1UNL     H5   41  -0.192   0.040  -0.154
    1UNL     H6   42  -0.376  -0.114  -0.160
    1UNL     H7   43  -0.577   0.211  -0.204
    1UNL     H8   44  -0.336   0.314  -0.227
    1UNL     H9   45  -0.338   0.331  -0.049
    1UNL    H10   46  -0.553   0.441  -0.093
    1UNL    H11   47  -0.483   0.211   0.088
    1UNL    H12   48  -0.751   0.250  -0.001
    1UNL    H13   49  -0.586   0.023   0.140
    1UNL    H14   50  -0.786   0.045  -0.059
    1UNL    H15   51  -0.622  -0.085  -0.128
    1UNL    H16   52  -0.628  -0.226   0.062
    1UNL    H17   53  -0.043   0.338   0.037
    1UNL    H18   54   0.422   0.308   0.039
    1UNL    H19   55   0.471   0.213  -0.098
    1UNL    H20   56   0.643   0.138   0.067
    1UNL    H21   57   0.525   0.136   0.196
    1UNL    H22   58   0.725  -0.072   0.121
    1UNL    H23   59   0.640  -0.441   0.247
    1UNL    H24   60   0.813  -0.496   0.203
    1UNL    H25   61   0.662  -0.520   0.115
    1UNL    H26   62   0.387  -0.477   0.019
    1UNL    H27   63   0.318  -0.258  -0.072
    1UNL    H28   64   0.291  -0.003  -0.142
    1UNL    H29   65   0.164  -0.172   0.003
    1UNL    H30   66   0.181  -0.047   0.125
    1UNL    H31   67   0.050   0.009  -0.146
   0.00000   0.00000   0.00000   0.00000   0.00000   0.00000   0.00000   0.00000   0.00000
Generated with MDTraj, t= 32.0
 67
    1UNL     C1    1  -0.182  -0.265   0.009
    1UNL     C2    2  -0.124  -0.162  -0.052
    1UNL     C3    3  -0.093  -0.032   0.013
    1UNL     C4    4  -0.208   0.063  -0.025
    1UNL     O1    5  -0.337   0.003   0.015
    1UNL     C5    6  -0.418  -0.042  -0.101
    1UNL     O2    7  -0.418   0.061  -0.201
    1UNL     C6    8  -0.501   0.181  -0.171
    1UNL     C7    9  -0.409   0.301  -0.205
    1UNL     O3   10  -0.461   0.424  -0.145
    1UNL     C8   11  -0.534   0.188  -0.012
    1UNL     O4   12  -0.634   0.286   0.004
    1UNL     C9   13  -0.598   0.049   0.038
    1UNL     O5   14  -0.744   0.052   0.046
    1UNL    C10   15  -0.555  -0.080  -0.038
    1UNL     O6   16  -0.544  -0.198   0.044
    1UNL     O7   17  -0.192   0.205   0.019
    1UNL    C11   18  -0.059   0.237   0.042
    1UNL    C12   19   0.052   0.162   0.025
    1UNL    C13   20   0.181   0.216   0.050
    1UNL     O8   21   0.186   0.333   0.086
    1UNL     N1   22   0.298   0.141   0.037
    1UNL    C14   23   0.428   0.212   0.018
    1UNL    C15   24   0.553   0.129   0.050
    1UNL    C16   25   0.533  -0.021   0.043
    1UNL    C17   26   0.642  -0.109   0.069
    1UNL    C18   27   0.627  -0.250   0.070
    1UNL     O9   28   0.733  -0.331   0.119
    1UNL    C19   29   0.696  -0.461   0.174
    1UNL    C20   30   0.503  -0.305   0.037
    1UNL    O10   31   0.478  -0.440   0.039
    1UNL    C21   32   0.399  -0.219   0.001
    1UNL    C22   33   0.410  -0.086   0.003
    1UNL    C23   34   0.292   0.004  -0.028
    1UNL    C24   35   0.154  -0.062  -0.000
    1UNL    C25   36   0.036   0.024  -0.041
    1UNL     H1   37  -0.223  -0.349  -0.043
    1UNL     H2   38  -0.210  -0.269   0.112
    1UNL     H3   39  -0.136  -0.164  -0.158
    1UNL     H4   40  -0.099  -0.036   0.124
    1UNL     H5   41  -0.204   0.056  -0.141
    1UNL     H6   42  -0.364  -0.124  -0.140
    1UNL     H7   43  -0.588   0.166  -0.227
    1UNL     H8   44  -0.391   0.333  -0.309
    1UNL     H9   45  -0.312   0.282  -0.160
    1UNL    H10   46  -0.518   0.406  -0.065
    1UNL    H11   47  -0.437   0.208   0.037
    1UNL    H12   48  -0.665   0.298   0.095
    1UNL    H13   49  -0.566   0.039   0.135
    1UNL    H14   50  -0.786   0.139   0.021
    1UNL    H15   51  -0.634  -0.096  -0.110
    1UNL    H16   52  -0.624  -0.202   0.100
    1UNL    H17   53  -0.050   0.337   0.071
    1UNL    H18   54   0.424   0.297   0.088
    1UNL    H19   55   0.424   0.247  -0.080
    1UNL    H20   56   0.647   0.171   0.007
    1UNL    H21   57   0.568   0.151   0.161
    1UNL    H22   58   0.743  -0.071   0.089
    1UNL    H23   59   0.611  -0.456   0.242
    1UNL    H24   60   0.774  -0.515   0.230
    1UNL    H25   61   0.658  -0.530   0.101
    1UNL    H26   62   0.395  -0.466  -0.007
    1UNL    H27   63   0.315  -0.261  -0.054
    1UNL    H28   64   0.301   0.018  -0.128
    1UNL    H29   65   0.163  -0.166  -0.047
    1UNL    H30   66   0.153  -0.082   0.109
    1UNL    H31   67   0.024   0.045  -0.147
   0.00000   0.00000   0.00000   0.00000   0.00000   0.00000   0.00000   0.00000   0.00000
Generated with MDTraj, t= 33.0
 67
    1UNL     C1    1  -0.172  -0.260  -0.002
    1UNL     C2    2  -0.131  -0.153  -0.066
    1UNL     C3    3  -0.099  -0.026   0.006
    1UNL     C4    4  -0.211   0.074  -0.018
    1UNL     O1    5  -0.339   0.014   0.024
    1UNL     C5    6  -0.417  -0.043  -0.085
    1UNL     O2    7  -0.431   0.048  -0.192
    1UNL     C6    8  -0.490   0.176  -0.156
    1UNL     C7    9  -0.407   0.295  -0.197
    1UNL     O3   10  -0.487   0.414  -0.237
    1UNL     C8   11  -0.533   0.182  -0.004
    1UNL     O4   12  -0.601   0.299   0.030
    1UNL     C9   13  -0.617   0.058   0.033
    1UNL     O5   14  -0.759   0.067   0.027
    1UNL    C10   15  -0.564  -0.073  -0.029
    1UNL     O6   16  -0.568  -0.183   0.059
    1UNL     O7   17  -0.185   0.203   0.041
    1UNL    C11   18  -0.056   0.224   0.074
    1UNL    C12   19   0.052   0.156   0.037
    1UNL    C13   20   0.184   0.212   0.055
    1UNL     O8   21   0.212   0.317   0.115
    1UNL     N1   22   0.298   0.135   0.016
    1UNL    C14   23   0.427   0.204   0.002
    1UNL    C15   24   0.539   0.122   0.060
    1UNL    C16   25   0.517  -0.028   0.064
    1UNL    C17   26   0.623  -0.109   0.100
    1UNL    C18   27   0.622  -0.248   0.082
    1UNL     O9   28   0.735  -0.307   0.136
    1UNL    C19   29   0.726  -0.442   0.167
    1UNL    C20   30   0.512  -0.310   0.022
    1UNL    O10   31   0.510  -0.446  -0.008
    1UNL    C21   32   0.402  -0.232  -0.012
    1UNL    C22   33   0.406  -0.093   0.006
    1UNL    C23   34   0.284  -0.002  -0.046
    1UNL    C24   35   0.154  -0.066  -0.001
    1UNL    C25   36   0.038   0.025  -0.036
    1UNL     H1   37  -0.171  -0.363  -0.040
    1UNL     H2   38  -0.199  -0.248   0.101
    1UNL     H3   39  -0.127  -0.161  -0.176
    1UNL     H4   40  -0.101  -0.039   0.117
    1UNL     H5   41  -0.198   0.086  -0.132
    1UNL     H6   42  -0.370  -0.127  -0.130
    1UNL     H7   43  -0.576   0.187  -0.216
    1UNL     H8   44  -0.346   0.267  -0.282
    1UNL     H9   45  -0.336   0.326  -0.122
    1UNL    H10   46  -0.549   0.438  -0.168
    1UNL    H11   47  -0.436   0.181   0.049
    1UNL    H12   48  -0.697   0.293   0.001
    1UNL    H13   49  -0.601   0.045   0.135
    1UNL    H14   50  -0.803   0.068  -0.057
    1UNL    H15   51  -0.617  -0.095  -0.119
    1UNL    H16   52  -0.651  -0.179   0.110
    1UNL    H17   53  -0.035   0.320   0.130
    1UNL    H18   54   0.410   0.301   0.052
    1UNL    H19   55   0.439   0.228  -0.098
    1UNL    H20   56   0.629   0.151   0.001
    1UNL    H21   57   0.566   0.164   0.161
    1UNL    H22   58   0.707  -0.076   0.158
    1UNL    H23   59   0.633  -0.482   0.211
    1UNL    H24   60   0.795  -0.465   0.252
    1UNL    H25   61   0.750  -0.501   0.079
    1UNL    H26   62   0.444  -0.459  -0.076
    1UNL    H27   63   0.322  -0.282  -0.064
    1UNL    H28   64   0.290   0.008  -0.147
    1UNL    H29   65   0.135  -0.172  -0.043
    1UNL    H30   66   0.165  -0.082   0.108
    1UNL    H31   67   0.038   0.057  -0.139
   0.00000   0.00000   0.00000   0.00000   0.00000   0.00000   0.00000   0.00000   0.00000
Generated with MDTraj, t= 34.0
 67
    1UNL     C1    1  -0.191  -0.283  -0.028
    1UNL     C2    2  -0.112  -0.185  -0.063
    1UNL     C3    3  -0.091  -0.055   0.012
    1UNL     C4    4  -0.207   0.046   0.005
    1UNL     O1    5  -0.336  -0.001   0.058
    1UNL     C5    6  -0.415  -0.031  -0.056
    1UNL     O2    7  -0.408   0.055  -0.162
    1UNL     C6    8  -0.484   0.179  -0.148
    1UNL     C7    9  -0.430   0.305  -0.221
    1UNL     O3   10  -0.521   0.407  -0.245
    1UNL     C8   11  -0.546   0.203  -0.004
    1UNL     O4   12  -0.632   0.316  -0.007
    1UNL     C9   13  -0.632   0.080   0.036
    1UNL     O5   14  -0.763   0.100  -0.012
    1UNL    C10   15  -0.568  -0.050  -0.017
    1UNL     O6   16  -0.572  -0.153   0.081
    1UNL     O7   17  -0.176   0.175   0.067
    1UNL    C11   18  -0.049   0.208   0.072
    1UNL    C12   19   0.057   0.144   0.018
    1UNL    C13   20   0.191   0.197   0.028
    1UNL     O8   21   0.210   0.287   0.111
    1UNL     N1   22   0.308   0.138  -0.027
    1UNL    C14   23   0.429   0.207   0.008
    1UNL    C15   24   0.491   0.122   0.119
    1UNL    C16   25   0.516  -0.021   0.076
    1UNL    C17   26   0.624  -0.100   0.116
    1UNL    C18   27   0.630  -0.239   0.092
    1UNL     O9   28   0.738  -0.307   0.150
    1UNL    C19   29   0.731  -0.441   0.136
    1UNL    C20   30   0.524  -0.297   0.013
    1UNL    O10   31   0.525  -0.433  -0.014
    1UNL    C21   32   0.432  -0.215  -0.042
    1UNL    C22   33   0.420  -0.082  -0.002
    1UNL    C23   34   0.297  -0.009  -0.054
    1UNL    C24   35   0.167  -0.078  -0.001
    1UNL    C25   36   0.041   0.005  -0.036
    1UNL     H1   37  -0.229  -0.352  -0.099
    1UNL     H2   38  -0.232  -0.275   0.070
    1UNL     H3   39  -0.070  -0.194  -0.160
    1UNL     H4   40  -0.095  -0.076   0.121
    1UNL     H5   41  -0.203   0.075  -0.105
    1UNL     H6   42  -0.392  -0.130  -0.088
    1UNL     H7   43  -0.573   0.164  -0.205
    1UNL     H8   44  -0.394   0.270  -0.318
    1UNL     H9   45  -0.342   0.344  -0.171
    1UNL    H10   46  -0.577   0.403  -0.163
    1UNL    H11   47  -0.469   0.215   0.073
    1UNL    H12   48  -0.687   0.318   0.075
    1UNL    H13   49  -0.634   0.068   0.140
    1UNL    H14   50  -0.757   0.164  -0.087
    1UNL    H15   51  -0.626  -0.079  -0.102
    1UNL    H16   52  -0.661  -0.146   0.120
    1UNL    H17   53  -0.017   0.309   0.106
    1UNL    H18   54   0.405   0.313   0.019
    1UNL    H19   55   0.488   0.205  -0.076
    1UNL    H20   56   0.590   0.169   0.138
    1UNL    H21   57   0.439   0.138   0.218
    1UNL    H22   58   0.688  -0.056   0.191
    1UNL    H23   59   0.644  -0.496   0.179
    1UNL    H24   60   0.801  -0.483   0.214
    1UNL    H25   61   0.751  -0.468   0.033
    1UNL    H26   62   0.451  -0.445  -0.073
    1UNL    H27   63   0.360  -0.258  -0.107
    1UNL    H28   64   0.299  -0.013  -0.156
    1UNL    H29   65   0.146  -0.186  -0.034
    1UNL    H30   66   0.169  -0.084   0.111
    1UNL    H31   67   0.031   0.019  -0.143
   0.00000   0.00000   0.00000   0.00000   0.00000   0.00000   0.00000   0.00000   0.00000
Generated with MDTraj, t= 35.0
 67
    1UNL     C1    1  -0.218  -0.267  -0.008
    1UNL     C2    2  -0.129  -0.183  -0.057
    1UNL     C3    3  -0.099  -0.057   0.014
    1UNL     C4    4  -0.216   0.041   0.014
    1UNL     O1    5  -0.344  -0.017   0.046
    1UNL     C5    6  -0.428  -0.030  -0.071
    1UNL     O2    7  -0.412   0.067  -0.177
    1UNL     C6    8  -0.499   0.184  -0.166
    1UNL     C7    9  -0.436   0.302  -0.246
    1UNL     O3   10  -0.511   0.411  -0.258
    1UNL     C8   11  -0.545   0.211  -0.011
    1UNL     O4   12  -0.631   0.328  -0.014
    1UNL     C9   13  -0.627   0.087   0.048
    1UNL     O5   14  -0.767   0.102   0.012
    1UNL    C10   15  -0.577  -0.049  -0.015
    1UNL     O6   16  -0.574  -0.148   0.091
    1UNL     O7   17  -0.180   0.153   0.107
    1UNL    C11   18  -0.051   0.194   0.100
    1UNL    C12   19   0.057   0.142   0.033
    1UNL    C13   20   0.185   0.209   0.017
    1UNL     O8   21   0.198   0.326   0.057
    1UNL     N1   22   0.297   0.131  -0.015
    1UNL    C14   23   0.426   0.188   0.015
    1UNL    C15   24   0.505   0.114   0.131
    1UNL    C16   25   0.503  -0.034   0.100
    1UNL    C17   26   0.605  -0.114   0.146
    1UNL    C18   27   0.634  -0.244   0.102
    1UNL     O9   28   0.733  -0.319   0.176
    1UNL    C19   29   0.775  -0.438   0.113
    1UNL    C20   30   0.552  -0.296   0.004
    1UNL    O10   31   0.578  -0.426  -0.046
    1UNL    C21   32   0.449  -0.220  -0.043
    1UNL    C22   33   0.422  -0.088   0.002
    1UNL    C23   34   0.306  -0.016  -0.054
    1UNL    C24   35   0.164  -0.074  -0.028
    1UNL    C25   36   0.032   0.009  -0.040
    1UNL     H1   37  -0.235  -0.364  -0.054
    1UNL     H2   38  -0.270  -0.249   0.088
    1UNL     H3   39  -0.054  -0.207  -0.136
    1UNL     H4   40  -0.082  -0.084   0.121
    1UNL     H5   41  -0.206   0.083  -0.089
    1UNL     H6   42  -0.395  -0.124  -0.115
    1UNL     H7   43  -0.594   0.162  -0.211
    1UNL     H8   44  -0.409   0.269  -0.348
    1UNL     H9   45  -0.343   0.325  -0.195
    1UNL    H10   46  -0.585   0.408  -0.189
    1UNL    H11   47  -0.461   0.230   0.055
    1UNL    H12   48  -0.690   0.334   0.062
    1UNL    H13   49  -0.619   0.086   0.153
    1UNL    H14   50  -0.774   0.184  -0.045
    1UNL    H15   51  -0.639  -0.077  -0.099
    1UNL    H16   52  -0.659  -0.142   0.141
    1UNL    H17   53  -0.031   0.282   0.149
    1UNL    H18   54   0.405   0.292   0.043
    1UNL    H19   55   0.477   0.207  -0.074
    1UNL    H20   56   0.599   0.158   0.170
    1UNL    H21   57   0.445   0.122   0.225
    1UNL    H22   58   0.658  -0.071   0.229
    1UNL    H23   59   0.713  -0.524   0.144
    1UNL    H24   60   0.871  -0.469   0.155
    1UNL    H25   61   0.777  -0.427   0.005
    1UNL    H26   62   0.517  -0.445  -0.118
    1UNL    H27   63   0.388  -0.258  -0.127
    1UNL    H28   64   0.325  -0.011  -0.155
    1UNL    H29   65   0.155  -0.163  -0.097
    1UNL    H30   66   0.161  -0.117   0.075
    1UNL    H31   67   0.020   0.036  -0.144
   0.00000   0.00000   0.00000   0.00000   0.00000   0.00000   0.00000   0.00000   0.00000
Generated with MDTraj, t= 36.0
 67
    1UNL     C1    1  -0.229  -0.277   0.009
    1UNL     C2    2  -0.161  -0.176  -0.051
    1UNL     C3    3  -0.108  -0.052   0.021
    1UNL     C4    4  -0.213   0.056   0.006
    1UNL     O1    5  -0.342   0.000   0.042
    1UNL     C5    6  -0.427  -0.030  -0.069
    1UNL     O2    7  -0.397   0.066  -0.169
    1UNL     C6    8  -0.483   0.176  -0.168
    1UNL     C7    9  -0.426   0.297  -0.243
    1UNL     O3   10  -0.518   0.400  -0.261
    1UNL     C8   11  -0.525   0.205  -0.019
    1UNL     O4   12  -0.597   0.327  -0.010
    1UNL     C9   13  -0.601   0.088   0.047
    1UNL     O5   14  -0.741   0.098   0.057
    1UNL    C10   15  -0.575  -0.046  -0.026
    1UNL     O6   16  -0.607  -0.158   0.057
    1UNL     O7   17  -0.183   0.175   0.088
    1UNL    C11   18  -0.055   0.211   0.061
    1UNL    C12   19   0.053   0.141   0.011
    1UNL    C13   20   0.187   0.202   0.012
    1UNL     O8   21   0.200   0.321   0.038
    1UNL     N1   22   0.296   0.126  -0.001
    1UNL    C14   23   0.426   0.183   0.034
    1UNL    C15   24   0.481   0.103   0.150
    1UNL    C16   25   0.486  -0.044   0.113
    1UNL    C17   26   0.592  -0.121   0.154
    1UNL    C18   27   0.631  -0.243   0.101
    1UNL     O9   28   0.735  -0.303   0.160
    1UNL    C19   29   0.796  -0.414   0.099
    1UNL    C20   30   0.553  -0.292  -0.006
    1UNL    O10   31   0.584  -0.411  -0.070
    1UNL    C21   32   0.439  -0.221  -0.043
    1UNL    C22   33   0.405  -0.099   0.016
    1UNL    C23   34   0.287  -0.023  -0.031
    1UNL    C24   35   0.154  -0.086   0.016
    1UNL    C25   36   0.032  -0.007  -0.029
    1UNL     H1   37  -0.254  -0.364  -0.045
    1UNL     H2   38  -0.238  -0.301   0.111
    1UNL     H3   39  -0.145  -0.172  -0.155
    1UNL     H4   40  -0.107  -0.068   0.132
    1UNL     H5   41  -0.213   0.091  -0.097
    1UNL     H6   42  -0.379  -0.121  -0.103
    1UNL     H7   43  -0.566   0.138  -0.228
    1UNL     H8   44  -0.382   0.264  -0.339
    1UNL     H9   45  -0.344   0.340  -0.183
    1UNL    H10   46  -0.539   0.444  -0.179
    1UNL    H11   47  -0.426   0.215   0.030
    1UNL    H12   48  -0.695   0.313   0.010
    1UNL    H13   49  -0.570   0.078   0.148
    1UNL    H14   50  -0.778   0.116  -0.028
    1UNL    H15   51  -0.630  -0.053  -0.122
    1UNL    H16   52  -0.694  -0.152   0.104
    1UNL    H17   53  -0.043   0.316   0.083
    1UNL    H18   54   0.426   0.292   0.045
    1UNL    H19   55   0.495   0.175  -0.046
    1UNL    H20   56   0.587   0.126   0.171
    1UNL    H21   57   0.436   0.131   0.247
    1UNL    H22   58   0.660  -0.088   0.230
    1UNL    H23   59   0.716  -0.471   0.049
    1UNL    H24   60   0.854  -0.469   0.172
    1UNL    H25   61   0.862  -0.385   0.021
    1UNL    H26   62   0.515  -0.419  -0.141
    1UNL    H27   63   0.393  -0.251  -0.133
    1UNL    H28   64   0.282  -0.020  -0.134
    1UNL    H29   65   0.150  -0.195  -0.012
    1UNL    H30   66   0.159  -0.079   0.129
    1UNL    H31   67   0.032  -0.005  -0.137
   0.00000   0.00000   0.00000   0.00000   0.00000   0.00000   0.00000   0.00000   0.00000
Generated with MDTraj, t= 37.0
 67
    1UNL     C1    1  -0.199  -0.283   0.029
    1UNL     C2    2  -0.105  -0.201  -0.007
    1UNL     C3    3  -0.102  -0.053   0.037
    1UNL     C4    4  -0.210   0.042  -0.017
    1UNL     O1    5  -0.338  -0.004   0.020
    1UNL     C5    6  -0.427  -0.046  -0.087
    1UNL     O2    7  -0.415   0.053  -0.189
    1UNL     C6    8  -0.488   0.174  -0.166
    1UNL     C7    9  -0.419   0.291  -0.228
    1UNL     O3   10  -0.497   0.415  -0.242
    1UNL     C8   11  -0.518   0.203  -0.021
    1UNL     O4   12  -0.594   0.327  -0.012
    1UNL     C9   13  -0.596   0.088   0.046
    1UNL     O5   14  -0.734   0.119   0.075
    1UNL    C10   15  -0.577  -0.049  -0.034
    1UNL     O6   16  -0.610  -0.161   0.046
    1UNL     O7   17  -0.189   0.181   0.026
    1UNL    C11   18  -0.064   0.221   0.034
    1UNL    C12   19   0.043   0.148   0.018
    1UNL    C13   20   0.174   0.209   0.016
    1UNL     O8   21   0.188   0.330   0.044
    1UNL     N1   22   0.291   0.129  -0.004
    1UNL    C14   23   0.423   0.176   0.054
    1UNL    C15   24   0.450   0.086   0.169
    1UNL    C16   25   0.488  -0.047   0.110
    1UNL    C17   26   0.598  -0.118   0.152
    1UNL    C18   27   0.625  -0.241   0.091
    1UNL     O9   28   0.746  -0.298   0.131
    1UNL    C19   29   0.797  -0.407   0.062
    1UNL    C20   30   0.541  -0.300   0.002
    1UNL    O10   31   0.580  -0.417  -0.049
    1UNL    C21   32   0.433  -0.228  -0.035
    1UNL    C22   33   0.398  -0.104   0.016
    1UNL    C23   34   0.279  -0.016  -0.024
    1UNL    C24   35   0.150  -0.067   0.043
    1UNL    C25   36   0.030   0.007  -0.010
    1UNL     H1   37  -0.209  -0.390   0.008
    1UNL     H2   38  -0.283  -0.240   0.084
    1UNL     H3   39  -0.017  -0.244  -0.060
    1UNL     H4   40  -0.111  -0.053   0.149
    1UNL     H5   41  -0.202   0.040  -0.123
    1UNL     H6   42  -0.395  -0.149  -0.113
    1UNL     H7   43  -0.583   0.161  -0.220
    1UNL     H8   44  -0.406   0.270  -0.336
    1UNL     H9   45  -0.319   0.311  -0.185
    1UNL    H10   46  -0.523   0.450  -0.151
    1UNL    H11   47  -0.417   0.211   0.023
    1UNL    H12   48  -0.612   0.350   0.081
    1UNL    H13   49  -0.556   0.071   0.142
    1UNL    H14   50  -0.757   0.200   0.023
    1UNL    H15   51  -0.647  -0.041  -0.120
    1UNL    H16   52  -0.700  -0.152   0.084
    1UNL    H17   53  -0.046   0.332   0.054
    1UNL    H18   54   0.412   0.285   0.079
    1UNL    H19   55   0.504   0.178  -0.015
    1UNL    H20   56   0.526   0.140   0.228
    1UNL    H21   57   0.362   0.077   0.231
    1UNL    H22   58   0.661  -0.083   0.234
    1UNL    H23   59   0.733  -0.493   0.094
    1UNL    H24   60   0.907  -0.399   0.063
    1UNL    H25   61   0.776  -0.408  -0.045
    1UNL    H26   62   0.509  -0.452  -0.112
    1UNL    H27   63   0.370  -0.278  -0.108
    1UNL    H28   64   0.256  -0.030  -0.126
    1UNL    H29   65   0.141  -0.177   0.019
    1UNL    H30   66   0.160  -0.048   0.154
    1UNL    H31   67   0.030  -0.003  -0.118
   0.00000   0.00000   0.00000   0.00000   0.00000   0.00000   0.00000   0.00000   0.00000
Generated with MDTraj, t= 38.0
 67
    1UNL     C1    1  -0.234  -0.263   0.090
    1UNL     C2    2  -0.138  -0.211   0.019
    1UNL     C3    3  -0.105  -0.064   0.008
    1UNL     C4    4  -0.222   0.020  -0.049
    1UNL     O1    5  -0.342  -0.034   0.002
    1UNL     C5    6  -0.438  -0.048  -0.095
    1UNL     O2    7  -0.439   0.057  -0.197
    1UNL     C6    8  -0.489   0.185  -0.162
    1UNL     C7    9  -0.400   0.291  -0.225
    1UNL     O3   10  -0.452   0.427  -0.221
    1UNL     C8   11  -0.508   0.204  -0.005
    1UNL     O4   12  -0.579   0.332   0.012
    1UNL     C9   13  -0.601   0.092   0.050
    1UNL     O5   14  -0.735   0.133   0.063
    1UNL    C10   15  -0.576  -0.046  -0.026
    1UNL     O6   16  -0.587  -0.163   0.052
    1UNL     O7   17  -0.203   0.168  -0.042
    1UNL    C11   18  -0.069   0.205  -0.023
    1UNL    C12   19   0.043   0.131  -0.014
    1UNL    C13   20   0.158   0.204   0.034
    1UNL     O8   21   0.144   0.327   0.053
    1UNL     N1   22   0.278   0.130   0.059
    1UNL    C14   23   0.398   0.199   0.085
    1UNL    C15   24   0.506   0.106   0.168
    1UNL    C16   25   0.512  -0.030   0.116
    1UNL    C17   26   0.626  -0.110   0.142
    1UNL    C18   27   0.643  -0.239   0.095
    1UNL     O9   28   0.752  -0.326   0.121
    1UNL    C19   29   0.796  -0.412   0.020
    1UNL    C20   30   0.540  -0.286   0.016
    1UNL    O10   31   0.554  -0.412  -0.037
    1UNL    C21   32   0.428  -0.210  -0.012
    1UNL    C22   33   0.416  -0.081   0.033
    1UNL    C23   34   0.291  -0.003  -0.002
    1UNL    C24   35   0.162  -0.084   0.029
    1UNL    C25   36   0.039  -0.017  -0.041
    1UNL     H1   37  -0.273  -0.360   0.095
    1UNL     H2   38  -0.299  -0.190   0.132
    1UNL     H3   39  -0.081  -0.277  -0.038
    1UNL     H4   40  -0.102  -0.033   0.116
    1UNL     H5   41  -0.219   0.005  -0.153
    1UNL     H6   42  -0.429  -0.147  -0.146
    1UNL     H7   43  -0.591   0.195  -0.206
    1UNL     H8   44  -0.384   0.268  -0.331
    1UNL     H9   45  -0.304   0.301  -0.170
    1UNL    H10   46  -0.507   0.417  -0.144
    1UNL    H11   47  -0.417   0.202   0.057
    1UNL    H12   48  -0.671   0.319   0.037
    1UNL    H13   49  -0.572   0.068   0.149
    1UNL    H14   50  -0.772   0.131  -0.033
    1UNL    H15   51  -0.645  -0.048  -0.114
    1UNL    H16   52  -0.669  -0.162   0.104
    1UNL    H17   53  -0.053   0.308  -0.001
    1UNL    H18   54   0.364   0.301   0.123
    1UNL    H19   55   0.440   0.220  -0.011
    1UNL    H20   56   0.607   0.152   0.161
    1UNL    H21   57   0.468   0.111   0.268
    1UNL    H22   58   0.697  -0.078   0.214
    1UNL    H23   59   0.711  -0.477  -0.014
    1UNL    H24   60   0.895  -0.455   0.041
    1UNL    H25   61   0.816  -0.353  -0.068
    1UNL    H26   62   0.472  -0.433  -0.092
    1UNL    H27   63   0.347  -0.253  -0.069
    1UNL    H28   64   0.292   0.006  -0.107
    1UNL    H29   65   0.171  -0.188  -0.015
    1UNL    H30   66   0.146  -0.080   0.142
    1UNL    H31   67   0.058  -0.032  -0.147
   0.00000   0.00000   0.00000   0.00000   0.00000   0.00000   0.00000   0.00000   0.00000
Generated with MDTraj, t= 39.0
 67
    1UNL     C1    1  -0.222  -0.272   0.108
    1UNL     C2    2  -0.123  -0.215   0.043
    1UNL     C3    3  -0.107  -0.063   0.025
    1UNL     C4    4  -0.208  -0.007  -0.074
    1UNL     O1    5  -0.341  -0.012  -0.016
    1UNL     C5    6  -0.448  -0.039  -0.099
    1UNL     O2    7  -0.456   0.062  -0.206
    1UNL     C6    8  -0.491   0.196  -0.162
    1UNL     C7    9  -0.395   0.299  -0.223
    1UNL     O3   10  -0.426   0.428  -0.184
    1UNL     C8   11  -0.509   0.201  -0.003
    1UNL     O4   12  -0.556   0.327   0.045
    1UNL     C9   13  -0.614   0.096   0.055
    1UNL     O5   14  -0.746   0.142   0.028
    1UNL    C10   15  -0.587  -0.044  -0.023
    1UNL     O6   16  -0.594  -0.154   0.066
    1UNL     O7   17  -0.172   0.125  -0.124
    1UNL    C11   18  -0.057   0.198  -0.075
    1UNL    C12   19   0.046   0.136  -0.008
    1UNL    C13   20   0.159   0.198   0.057
    1UNL     O8   21   0.149   0.314   0.092
    1UNL     N1   22   0.275   0.126   0.064
    1UNL    C14   23   0.390   0.199   0.095
    1UNL    C15   24   0.495   0.104   0.166
    1UNL    C16   25   0.496  -0.035   0.102
    1UNL    C17   26   0.612  -0.107   0.126
    1UNL    C18   27   0.640  -0.232   0.079
    1UNL     O9   28   0.777  -0.271   0.103
    1UNL    C19   29   0.816  -0.385   0.040
    1UNL    C20   30   0.528  -0.297   0.008
    1UNL    O10   31   0.540  -0.433  -0.025
    1UNL    C21   32   0.413  -0.220  -0.015
    1UNL    C22   33   0.401  -0.088   0.018
    1UNL    C23   34   0.280  -0.006  -0.005
    1UNL    C24   35   0.152  -0.083   0.040
    1UNL    C25   36   0.031  -0.016  -0.019
    1UNL     H1   37  -0.219  -0.380   0.123
    1UNL     H2   38  -0.311  -0.223   0.150
    1UNL     H3   39  -0.064  -0.278  -0.027
    1UNL     H4   40  -0.151  -0.016   0.118
    1UNL     H5   41  -0.213  -0.069  -0.159
    1UNL     H6   42  -0.432  -0.142  -0.143
    1UNL     H7   43  -0.592   0.215  -0.206
    1UNL     H8   44  -0.403   0.303  -0.332
    1UNL     H9   45  -0.293   0.279  -0.187
    1UNL    H10   46  -0.446   0.433  -0.085
    1UNL    H11   47  -0.411   0.177   0.043
    1UNL    H12   48  -0.644   0.320   0.093
    1UNL    H13   49  -0.611   0.086   0.160
    1UNL    H14   50  -0.763   0.152  -0.070
    1UNL    H15   51  -0.666  -0.049  -0.103
    1UNL    H16   52  -0.678  -0.147   0.115
    1UNL    H17   53  -0.055   0.301  -0.088
    1UNL    H18   54   0.372   0.291   0.157
    1UNL    H19   55   0.428   0.238   0.001
    1UNL    H20   56   0.593   0.148   0.142
    1UNL    H21   57   0.487   0.083   0.273
    1UNL    H22   58   0.690  -0.055   0.183
    1UNL    H23   59   0.767  -0.476   0.084
    1UNL    H24   60   0.925  -0.389   0.027
    1UNL    H25   61   0.776  -0.372  -0.061
    1UNL    H26   62   0.457  -0.469  -0.065
    1UNL    H27   63   0.332  -0.264  -0.065
    1UNL    H28   64   0.290   0.022  -0.107
    1UNL    H29   65   0.163  -0.191   0.011
    1UNL    H30   66   0.145  -0.073   0.153
    1UNL    H31   67   0.042  -0.041  -0.124
   0.00000   0.00000   0.00000   0.00000   0.00000   0.00000   0.00000   0.00000   0.00000
Generated with MDTraj, t= 40.0
 67
    1UNL     C1    1  -0.250  -0.281   0.102
    1UNL     C2    2  -0.146  -0.232   0.039
    1UNL     C3    3  -0.115  -0.078   0.019
    1UNL     C4    4  -0.215  -0.008  -0.076
    1UNL     O1    5  -0.350  -0.019  -0.023
    1UNL     C5    6  -0.457  -0.029  -0.109
    1UNL     O2    7  -0.454   0.078  -0.202
    1UNL     C6    8  -0.482   0.210  -0.152
    1UNL     C7    9  -0.379   0.320  -0.198
    1UNL     O3   10  -0.414   0.448  -0.164
    1UNL     C8   11  -0.513   0.208   0.000
    1UNL     O4   12  -0.556   0.333   0.050
    1UNL     C9   13  -0.615   0.100   0.042
    1UNL     O5   14  -0.747   0.141   0.022
    1UNL    C10   15  -0.587  -0.042  -0.024
    1UNL     O6   16  -0.567  -0.140   0.083
    1UNL     O7   17  -0.192   0.124  -0.118
    1UNL    C11   18  -0.074   0.177  -0.079
    1UNL    C12   19   0.034   0.107  -0.032
    1UNL    C13   20   0.146   0.180   0.027
    1UNL     O8   21   0.142   0.299   0.062
    1UNL     N1   22   0.270   0.114   0.031
    1UNL    C14   23   0.397   0.183   0.069
    1UNL    C15   24   0.474   0.114   0.176
    1UNL    C16   25   0.513  -0.023   0.117
    1UNL    C17   26   0.636  -0.081   0.137
    1UNL    C18   27   0.658  -0.209   0.085
    1UNL     O9   28   0.786  -0.269   0.095
    1UNL    C19   29   0.802  -0.399   0.041
    1UNL    C20   30   0.554  -0.282   0.020
    1UNL    O10   31   0.566  -0.401  -0.048
    1UNL    C21   32   0.428  -0.222   0.011
    1UNL    C22   33   0.407  -0.092   0.057
    1UNL    C23   34   0.275  -0.030   0.013
    1UNL    C24   35   0.143  -0.098   0.057
    1UNL    C25   36   0.029  -0.039  -0.025
    1UNL     H1   37  -0.261  -0.386   0.107
    1UNL     H2   38  -0.337  -0.228   0.128
    1UNL     H3   39  -0.088  -0.305  -0.012
    1UNL     H4   40  -0.133  -0.040   0.124
    1UNL     H5   41  -0.206  -0.069  -0.163
    1UNL     H6   42  -0.445  -0.126  -0.167
    1UNL     H7   43  -0.574   0.230  -0.213
    1UNL     H8   44  -0.361   0.319  -0.305
    1UNL     H9   45  -0.285   0.299  -0.144
    1UNL    H10   46  -0.476   0.448  -0.091
    1UNL    H11   47  -0.412   0.182   0.036
    1UNL    H12   48  -0.651   0.344   0.051
    1UNL    H13   49  -0.602   0.079   0.144
    1UNL    H14   50  -0.764   0.144  -0.072
    1UNL    H15   51  -0.665  -0.079  -0.095
    1UNL    H16   52  -0.641  -0.140   0.148
    1UNL    H17   53  -0.062   0.289  -0.074
    1UNL    H18   54   0.358   0.279   0.113
    1UNL    H19   55   0.463   0.218  -0.013
    1UNL    H20   56   0.566   0.159   0.218
    1UNL    H21   57   0.403   0.092   0.253
    1UNL    H22   58   0.715  -0.026   0.182
    1UNL    H23   59   0.728  -0.475   0.080
    1UNL    H24   60   0.890  -0.452   0.081
    1UNL    H25   61   0.806  -0.387  -0.066
    1UNL    H26   62   0.484  -0.427  -0.091
    1UNL    H27   63   0.343  -0.277  -0.032
    1UNL    H28   64   0.269  -0.041  -0.093
    1UNL    H29   65   0.157  -0.209   0.040
    1UNL    H30   66   0.114  -0.076   0.165
    1UNL    H31   67   0.046  -0.079  -0.125
   0.00000   0.00000   0.00000   0.00000   0.00000   0.00000   0.00000   0.00000   0.00000
Generated with MDTraj, t= 41.0
 67
    1UNL     C1    1  -0.253  -0.292   0.044
    1UNL     C2    2  -0.144  -0.224   0.025
    1UNL     C3    3  -0.123  -0.078   0.021
    1UNL     C4    4  -0.224  -0.007  -0.070
    1UNL     O1    5  -0.349  -0.009   0.002
    1UNL     C5    6  -0.458  -0.029  -0.087
    1UNL     O2    7  -0.462   0.077  -0.185
    1UNL     C6    8  -0.490   0.216  -0.142
    1UNL     C7    9  -0.382   0.320  -0.180
    1UNL     O3   10  -0.415   0.452  -0.153
    1UNL     C8   11  -0.522   0.216   0.007
    1UNL     O4   12  -0.572   0.337   0.058
    1UNL     C9   13  -0.623   0.107   0.048
    1UNL     O5   14  -0.757   0.155   0.030
    1UNL    C10   15  -0.596  -0.030  -0.023
    1UNL     O6   16  -0.604  -0.143   0.062
    1UNL     O7   17  -0.199   0.131  -0.110
    1UNL    C11   18  -0.081   0.175  -0.063
    1UNL    C12   19   0.029   0.104  -0.027
    1UNL    C13   20   0.152   0.176  -0.003
    1UNL     O8   21   0.168   0.296  -0.033
    1UNL     N1   22   0.264   0.100   0.040
    1UNL    C14   23   0.387   0.181   0.079
    1UNL    C15   24   0.475   0.108   0.170
    1UNL    C16   25   0.505  -0.036   0.124
    1UNL    C17   26   0.624  -0.098   0.159
    1UNL    C18   27   0.664  -0.218   0.102
    1UNL     O9   28   0.801  -0.252   0.118
    1UNL    C19   29   0.838  -0.385   0.077
    1UNL    C20   30   0.577  -0.286   0.010
    1UNL    O10   31   0.609  -0.407  -0.048
    1UNL    C21   32   0.452  -0.223  -0.014
    1UNL    C22   33   0.409  -0.097   0.042
    1UNL    C23   34   0.271  -0.040   0.001
    1UNL    C24   35   0.145  -0.113   0.049
    1UNL    C25   36   0.023  -0.043  -0.024
    1UNL     H1   37  -0.270  -0.398   0.063
    1UNL     H2   38  -0.345  -0.234   0.036
    1UNL     H3   39  -0.052  -0.280   0.047
    1UNL     H4   40  -0.136  -0.044   0.129
    1UNL     H5   41  -0.240  -0.062  -0.161
    1UNL     H6   42  -0.441  -0.128  -0.138
    1UNL     H7   43  -0.586   0.245  -0.194
    1UNL     H8   44  -0.364   0.312  -0.286
    1UNL     H9   45  -0.287   0.298  -0.133
    1UNL    H10   46  -0.452   0.458  -0.063
    1UNL    H11   47  -0.428   0.204   0.064
    1UNL    H12   48  -0.671   0.351   0.040
    1UNL    H13   49  -0.613   0.093   0.151
    1UNL    H14   50  -0.779   0.157  -0.062
    1UNL    H15   51  -0.668  -0.027  -0.108
    1UNL    H16   52  -0.685  -0.127   0.117
    1UNL    H17   53  -0.075   0.287  -0.058
    1UNL    H18   54   0.367   0.284   0.121
    1UNL    H19   55   0.443   0.203  -0.015
    1UNL    H20   56   0.572   0.157   0.174
    1UNL    H21   57   0.431   0.093   0.265
    1UNL    H22   58   0.700  -0.051   0.219
    1UNL    H23   59   0.809  -0.455   0.157
    1UNL    H24   60   0.944  -0.411   0.093
    1UNL    H25   61   0.806  -0.410  -0.023
    1UNL    H26   62   0.535  -0.442  -0.097
    1UNL    H27   63   0.391  -0.275  -0.083
    1UNL    H28   64   0.257  -0.038  -0.104
    1UNL    H29   65   0.138  -0.224   0.028
    1UNL    H30   66   0.142  -0.097   0.160
    1UNL    H31   67   0.024  -0.072  -0.131
   0.00000   0.00000   0.00000   0.00000   0.00000   0.00000   0.00000   0.00000   0.00000
Generated with MDTraj, t= 42.0
 67
    1UNL     C1    1  -0.248  -0.274   0.029
    1UNL     C2    2  -0.129  -0.226   0.004
    1UNL     C3    3  -0.106  -0.083   0.001
    1UNL     C4    4  -0.221  -0.003  -0.069
    1UNL     O1    5  -0.349  -0.024  -0.003
    1UNL     C5    6  -0.462  -0.023  -0.094
    1UNL     O2    7  -0.452   0.084  -0.183
    1UNL     C6    8  -0.507   0.211  -0.133
    1UNL     C7    9  -0.403   0.315  -0.175
    1UNL     O3   10  -0.445   0.451  -0.143
    1UNL     C8   11  -0.529   0.217   0.022
    1UNL     O4   12  -0.579   0.342   0.070
    1UNL     C9   13  -0.632   0.108   0.070
    1UNL     O5   14  -0.768   0.165   0.050
    1UNL    C10   15  -0.599  -0.022  -0.015
    1UNL     O6   16  -0.641  -0.144   0.050
    1UNL     O7   17  -0.193   0.144  -0.075
    1UNL    C11   18  -0.062   0.179  -0.078
    1UNL    C12   19   0.047   0.103  -0.061
    1UNL    C13   20   0.169   0.164  -0.030
    1UNL     O8   21   0.171   0.285  -0.035
    1UNL     N1   22   0.287   0.100   0.000
    1UNL    C14   23   0.391   0.180   0.057
    1UNL    C15   24   0.453   0.097   0.174
    1UNL    C16   25   0.494  -0.042   0.127
    1UNL    C17   26   0.610  -0.102   0.172
    1UNL    C18   27   0.659  -0.217   0.112
    1UNL     O9   28   0.789  -0.250   0.155
    1UNL    C19   29   0.846  -0.373   0.105
    1UNL    C20   30   0.579  -0.288   0.016
    1UNL    O10   31   0.622  -0.409  -0.042
    1UNL    C21   32   0.458  -0.231  -0.017
    1UNL    C22   33   0.414  -0.110   0.033
    1UNL    C23   34   0.290  -0.052  -0.025
    1UNL    C24   35   0.162  -0.093   0.045
    1UNL    C25   36   0.040  -0.047  -0.048
    1UNL     H1   37  -0.272  -0.377   0.029
    1UNL     H2   38  -0.314  -0.217   0.091
    1UNL     H3   39  -0.049  -0.293  -0.016
    1UNL     H4   40  -0.108  -0.038   0.106
    1UNL     H5   41  -0.243  -0.031  -0.173
    1UNL     H6   42  -0.460  -0.121  -0.145
    1UNL     H7   43  -0.605   0.230  -0.184
    1UNL     H8   44  -0.371   0.303  -0.279
    1UNL     H9   45  -0.311   0.292  -0.123
    1UNL    H10   46  -0.481   0.450  -0.050
    1UNL    H11   47  -0.438   0.197   0.079
    1UNL    H12   48  -0.654   0.324   0.127
    1UNL    H13   49  -0.617   0.076   0.169
    1UNL    H14   50  -0.778   0.191  -0.043
    1UNL    H15   51  -0.668  -0.016  -0.099
    1UNL    H16   52  -0.722  -0.125   0.103
    1UNL    H17   53  -0.053   0.282  -0.089
    1UNL    H18   54   0.342   0.273   0.096
    1UNL    H19   55   0.470   0.211  -0.018
    1UNL    H20   56   0.539   0.149   0.212
    1UNL    H21   57   0.376   0.079   0.246
    1UNL    H22   58   0.675  -0.041   0.234
    1UNL    H23   59   0.768  -0.449   0.099
    1UNL    H24   60   0.914  -0.410   0.180
    1UNL    H25   61   0.899  -0.371   0.012
    1UNL    H26   62   0.556  -0.447  -0.102
    1UNL    H27   63   0.392  -0.274  -0.092
    1UNL    H28   64   0.285  -0.071  -0.129
    1UNL    H29   65   0.170  -0.205   0.065
    1UNL    H30   66   0.156  -0.042   0.144
    1UNL    H31   67   0.055  -0.085  -0.151
   0.00000   0.00000   0.00000   0.00000   0.00000   0.00000   0.00000   0.00000   0.00000
Generated with MDTraj, t= 43.0
 67
    1UNL     C1    1  -0.213  -0.283   0.057
    1UNL     C2    2  -0.139  -0.216  -0.028
    1UNL     C3    3  -0.111  -0.072  -0.003
    1UNL     C4    4  -0.223   0.012  -0.065
    1UNL     O1    5  -0.346  -0.029  -0.004
    1UNL     C5    6  -0.448  -0.014  -0.106
    1UNL     O2    7  -0.442   0.106  -0.184
    1UNL     C6    8  -0.505   0.223  -0.128
    1UNL     C7    9  -0.408   0.334  -0.174
    1UNL     O3   10  -0.465   0.465  -0.150
    1UNL     C8   11  -0.518   0.212   0.023
    1UNL     O4   12  -0.566   0.331   0.074
    1UNL     C9   13  -0.600   0.090   0.072
    1UNL     O5   14  -0.733   0.127   0.108
    1UNL    C10   15  -0.582  -0.032  -0.028
    1UNL     O6   16  -0.586  -0.156   0.041
    1UNL     O7   17  -0.203   0.156  -0.069
    1UNL    C11   18  -0.073   0.196  -0.056
    1UNL    C12   19   0.034   0.117  -0.040
    1UNL    C13   20   0.164   0.173  -0.036
    1UNL     O8   21   0.178   0.295  -0.037
    1UNL     N1   22   0.279   0.093  -0.033
    1UNL    C14   23   0.399   0.156   0.006
    1UNL    C15   24   0.432   0.099   0.153
    1UNL    C16   25   0.473  -0.037   0.122
    1UNL    C17   26   0.586  -0.093   0.181
    1UNL    C18   27   0.639  -0.219   0.139
    1UNL     O9   28   0.754  -0.275   0.199
    1UNL    C19   29   0.822  -0.370   0.124
    1UNL    C20   30   0.571  -0.287   0.035
    1UNL    O10   31   0.629  -0.402  -0.027
    1UNL    C21   32   0.451  -0.234  -0.014
    1UNL    C22   33   0.409  -0.105   0.020
    1UNL    C23   34   0.284  -0.054  -0.048
    1UNL    C24   35   0.152  -0.124  -0.004
    1UNL    C25   36   0.033  -0.033  -0.055
    1UNL     H1   37  -0.233  -0.384   0.022
    1UNL     H2   38  -0.242  -0.257   0.158
    1UNL     H3   39  -0.090  -0.271  -0.110
    1UNL     H4   40  -0.108  -0.054   0.110
    1UNL     H5   41  -0.232  -0.028  -0.172
    1UNL     H6   42  -0.436  -0.094  -0.178
    1UNL     H7   43  -0.603   0.244  -0.181
    1UNL     H8   44  -0.375   0.320  -0.278
    1UNL     H9   45  -0.311   0.325  -0.123
    1UNL    H10   46  -0.512   0.458  -0.068
    1UNL    H11   47  -0.415   0.212   0.061
    1UNL    H12   48  -0.650   0.316   0.128
    1UNL    H13   49  -0.562   0.059   0.166
    1UNL    H14   50  -0.792   0.163   0.034
    1UNL    H15   51  -0.654  -0.028  -0.108
    1UNL    H16   52  -0.650  -0.155   0.114
    1UNL    H17   53  -0.056   0.301  -0.053
    1UNL    H18   54   0.383   0.265   0.020
    1UNL    H19   55   0.473   0.127  -0.077
    1UNL    H20   56   0.511   0.158   0.198
    1UNL    H21   57   0.338   0.095   0.201
    1UNL    H22   58   0.637  -0.034   0.252
    1UNL    H23   59   0.774  -0.469   0.132
    1UNL    H24   60   0.929  -0.354   0.142
    1UNL    H25   61   0.818  -0.358   0.015
    1UNL    H26   62   0.563  -0.443  -0.089
    1UNL    H27   63   0.389  -0.291  -0.082
    1UNL    H28   64   0.303  -0.062  -0.152
    1UNL    H29   65   0.148  -0.232  -0.042
    1UNL    H30   66   0.149  -0.142   0.107
    1UNL    H31   67   0.038  -0.050  -0.165
   0.00000   0.00000   0.00000   0.00000   0.00000   0.00000   0.00000   0.00000   0.00000
Generated with MDTraj, t= 44.0
 67
    1UNL     C1    1  -0.191  -0.271   0.049
    1UNL     C2    2  -0.131  -0.200  -0.044
    1UNL     C3    3  -0.094  -0.067  -0.013
    1UNL     C4    4  -0.211   0.020  -0.063
    1UNL     O1    5  -0.342  -0.045  -0.024
    1UNL     C5    6  -0.455  -0.034  -0.116
    1UNL     O2    7  -0.453   0.083  -0.196
    1UNL     C6    8  -0.509   0.207  -0.127
    1UNL     C7    9  -0.428   0.337  -0.173
    1UNL     O3   10  -0.477   0.463  -0.131
    1UNL     C8   11  -0.503   0.201   0.025
    1UNL     O4   12  -0.555   0.311   0.089
    1UNL     C9   13  -0.574   0.072   0.079
    1UNL     O5   14  -0.690   0.107   0.144
    1UNL    C10   15  -0.586  -0.040  -0.032
    1UNL     O6   16  -0.605  -0.160   0.029
    1UNL     O7   17  -0.194   0.155  -0.025
    1UNL    C11   18  -0.067   0.206  -0.058
    1UNL    C12   19   0.048   0.131  -0.070
    1UNL    C13   20   0.175   0.195  -0.054
    1UNL     O8   21   0.182   0.314  -0.027
    1UNL     N1   22   0.293   0.124  -0.062
    1UNL    C14   23   0.417   0.181  -0.008
    1UNL    C15   24   0.449   0.102   0.120
    1UNL    C16   25   0.478  -0.037   0.100
    1UNL    C17   26   0.569  -0.105   0.180
    1UNL    C18   27   0.607  -0.236   0.155
    1UNL     O9   28   0.719  -0.288   0.229
    1UNL    C19   29   0.805  -0.369   0.164
    1UNL    C20   30   0.541  -0.299   0.044
    1UNL    O10   31   0.577  -0.431   0.009
    1UNL    C21   32   0.443  -0.231  -0.026
    1UNL    C22   33   0.410  -0.099  -0.002
    1UNL    C23   34   0.293  -0.025  -0.070
    1UNL    C24   35   0.154  -0.089  -0.010
    1UNL    C25   36   0.041  -0.019  -0.081
    1UNL     H1   37  -0.225  -0.373   0.044
    1UNL     H2   38  -0.206  -0.223   0.143
    1UNL     H3   39  -0.094  -0.245  -0.135
    1UNL     H4   40  -0.091  -0.052   0.101
    1UNL     H5   41  -0.211   0.015  -0.177
    1UNL     H6   42  -0.453  -0.122  -0.176
    1UNL     H7   43  -0.618   0.208  -0.158
    1UNL     H8   44  -0.429   0.347  -0.283
    1UNL     H9   45  -0.321   0.323  -0.151
    1UNL    H10   46  -0.489   0.455  -0.030
    1UNL    H11   47  -0.397   0.193   0.052
    1UNL    H12   48  -0.574   0.291   0.181
    1UNL    H13   49  -0.512   0.029   0.152
    1UNL    H14   50  -0.739   0.176   0.089
    1UNL    H15   51  -0.670  -0.019  -0.095
    1UNL    H16   52  -0.657  -0.140   0.110
    1UNL    H17   53  -0.057   0.320  -0.062
    1UNL    H18   54   0.401   0.286   0.025
    1UNL    H19   55   0.506   0.165  -0.080
    1UNL    H20   56   0.535   0.149   0.164
    1UNL    H21   57   0.358   0.106   0.176
    1UNL    H22   58   0.617  -0.056   0.266
    1UNL    H23   59   0.755  -0.439   0.093
    1UNL    H24   60   0.885  -0.397   0.238
    1UNL    H25   61   0.869  -0.305   0.099
    1UNL    H26   62   0.502  -0.465  -0.051
    1UNL    H27   63   0.389  -0.288  -0.096
    1UNL    H28   64   0.300  -0.051  -0.172
    1UNL    H29   65   0.138  -0.203  -0.020
    1UNL    H30   66   0.148  -0.084   0.102
    1UNL    H31   67   0.026  -0.042  -0.190
   0.00000   0.00000   0.00000   0.00000   0.00000   0.00000   0.00000   0.00000   0.00000
Generated with MDTraj, t= 45.0
 67
    1UNL     C1    1  -0.200  -0.288   0.005
    1UNL     C2    2  -0.104  -0.217  -0.054
    1UNL     C3    3  -0.084  -0.073  -0.024
    1UNL     C4    4  -0.203   0.012  -0.076
    1UNL     O1    5  -0.323  -0.035  -0.016
    1UNL     C5    6  -0.442  -0.033  -0.101
    1UNL     O2    7  -0.445   0.085  -0.180
    1UNL     C6    8  -0.495   0.205  -0.114
    1UNL     C7    9  -0.418   0.335  -0.165
    1UNL     O3   10  -0.484   0.449  -0.134
    1UNL     C8   11  -0.484   0.193   0.042
    1UNL     O4   12  -0.538   0.303   0.114
    1UNL     C9   13  -0.554   0.052   0.097
    1UNL     O5   14  -0.676   0.082   0.157
    1UNL    C10   15  -0.574  -0.045  -0.021
    1UNL     O6   16  -0.603  -0.173   0.019
    1UNL     O7   17  -0.186   0.152  -0.068
    1UNL    C11   18  -0.063   0.204  -0.060
    1UNL    C12   19   0.052   0.133  -0.062
    1UNL    C13   20   0.175   0.210  -0.050
    1UNL     O8   21   0.175   0.334  -0.042
    1UNL     N1   22   0.290   0.136  -0.049
    1UNL    C14   23   0.422   0.200  -0.021
    1UNL    C15   24   0.491   0.132   0.098
    1UNL    C16   25   0.483  -0.020   0.085
    1UNL    C17   26   0.569  -0.090   0.167
    1UNL    C18   27   0.583  -0.228   0.155
    1UNL     O9   28   0.672  -0.293   0.240
    1UNL    C19   29   0.753  -0.391   0.181
    1UNL    C20   30   0.509  -0.299   0.064
    1UNL    O10   31   0.511  -0.432   0.036
    1UNL    C21   32   0.426  -0.224  -0.014
    1UNL    C22   33   0.408  -0.088  -0.007
    1UNL    C23   34   0.294  -0.009  -0.082
    1UNL    C24   35   0.168  -0.085  -0.030
    1UNL    C25   36   0.046  -0.015  -0.088
    1UNL     H1   37  -0.222  -0.390  -0.013
    1UNL     H2   38  -0.257  -0.232   0.078
    1UNL     H3   39  -0.042  -0.260  -0.132
    1UNL     H4   40  -0.070  -0.053   0.088
    1UNL     H5   41  -0.211  -0.011  -0.188
    1UNL     H6   42  -0.435  -0.115  -0.168
    1UNL     H7   43  -0.607   0.221  -0.132
    1UNL     H8   44  -0.389   0.328  -0.272
    1UNL     H9   45  -0.321   0.350  -0.112
    1UNL    H10   46  -0.532   0.441  -0.049
    1UNL    H11   47  -0.377   0.199   0.069
    1UNL    H12   48  -0.582   0.278   0.201
    1UNL    H13   49  -0.492   0.005   0.166
    1UNL    H14   50  -0.728   0.127   0.090
    1UNL    H15   51  -0.658  -0.013  -0.081
    1UNL    H16   52  -0.663  -0.165   0.097
    1UNL    H17   53  -0.053   0.312  -0.055
    1UNL    H18   54   0.407   0.303   0.011
    1UNL    H19   55   0.490   0.194  -0.114
    1UNL    H20   56   0.594   0.158   0.112
    1UNL    H21   57   0.436   0.154   0.188
    1UNL    H22   58   0.629  -0.033   0.231
    1UNL    H23   59   0.689  -0.478   0.155
    1UNL    H24   60   0.846  -0.410   0.240
    1UNL    H25   61   0.783  -0.354   0.082
    1UNL    H26   62   0.429  -0.460  -0.015
    1UNL    H27   63   0.363  -0.276  -0.089
    1UNL    H28   64   0.303  -0.020  -0.187
    1UNL    H29   65   0.177  -0.195  -0.063
    1UNL    H30   66   0.164  -0.102   0.082
    1UNL    H31   67   0.046  -0.027  -0.199
   0.00000   0.00000   0.00000   0.00000   0.00000   0.00000   0.00000   0.00000   0.00000
Generated with MDTraj, t= 46.0
 67
    1UNL     C1    1  -0.201  -0.298  -0.036
    1UNL     C2    2  -0.094  -0.231  -0.086
    1UNL     C3    3  -0.084  -0.079  -0.058
    1UNL     C4    4  -0.208   0.006  -0.099
    1UNL     O1    5  -0.315  -0.042  -0.035
    1UNL     C5    6  -0.438  -0.029  -0.109
    1UNL     O2    7  -0.464   0.099  -0.183
    1UNL     C6    8  -0.496   0.213  -0.101
    1UNL     C7    9  -0.418   0.337  -0.154
    1UNL     O3   10  -0.476   0.446  -0.091
    1UNL     C8   11  -0.483   0.192   0.049
    1UNL     O4   12  -0.540   0.294   0.122
    1UNL     C9   13  -0.551   0.054   0.103
    1UNL     O5   14  -0.680   0.093   0.143
    1UNL    C10   15  -0.553  -0.060  -0.004
    1UNL     O6   16  -0.551  -0.187   0.052
    1UNL     O7   17  -0.194   0.148  -0.077
    1UNL    C11   18  -0.074   0.201  -0.062
    1UNL    C12   19   0.044   0.139  -0.078
    1UNL    C13   20   0.169   0.211  -0.051
    1UNL     O8   21   0.163   0.333  -0.030
    1UNL     N1   22   0.287   0.142  -0.049
    1UNL    C14   23   0.412   0.210  -0.036
    1UNL    C15   24   0.497   0.142   0.076
    1UNL    C16   25   0.510  -0.009   0.067
    1UNL    C17   26   0.602  -0.088   0.146
    1UNL    C18   27   0.596  -0.225   0.153
    1UNL     O9   28   0.669  -0.295   0.247
    1UNL    C19   29   0.688  -0.435   0.224
    1UNL    C20   30   0.506  -0.287   0.069
    1UNL    O10   31   0.487  -0.423   0.084
    1UNL    C21   32   0.422  -0.212  -0.009
    1UNL    C22   33   0.416  -0.076  -0.003
    1UNL    C23   34   0.298  -0.007  -0.076
    1UNL    C24   35   0.174  -0.072  -0.039
    1UNL    C25   36   0.048  -0.009  -0.108
    1UNL     H1   37  -0.191  -0.404  -0.052
    1UNL     H2   38  -0.294  -0.251  -0.003
    1UNL     H3   39  -0.012  -0.271  -0.148
    1UNL     H4   40  -0.089  -0.063   0.055
    1UNL     H5   41  -0.226  -0.011  -0.211
    1UNL     H6   42  -0.435  -0.108  -0.180
    1UNL     H7   43  -0.609   0.233  -0.116
    1UNL     H8   44  -0.425   0.339  -0.265
    1UNL     H9   45  -0.314   0.321  -0.123
    1UNL    H10   46  -0.489   0.429   0.006
    1UNL    H11   47  -0.375   0.186   0.072
    1UNL    H12   48  -0.550   0.266   0.218
    1UNL    H13   49  -0.508   0.019   0.190
    1UNL    H14   50  -0.717   0.165   0.094
    1UNL    H15   51  -0.651  -0.060  -0.053
    1UNL    H16   52  -0.604  -0.197   0.135
    1UNL    H17   53  -0.075   0.299  -0.030
    1UNL    H18   54   0.382   0.312  -0.025
    1UNL    H19   55   0.460   0.201  -0.139
    1UNL    H20   56   0.598   0.175   0.080
    1UNL    H21   57   0.468   0.152   0.178
    1UNL    H22   58   0.683  -0.042   0.202
    1UNL    H23   59   0.592  -0.478   0.254
    1UNL    H24   60   0.766  -0.491   0.278
    1UNL    H25   61   0.690  -0.449   0.116
    1UNL    H26   62   0.400  -0.444   0.048
    1UNL    H27   63   0.364  -0.262  -0.080
    1UNL    H28   64   0.320  -0.016  -0.179
    1UNL    H29   65   0.180  -0.185  -0.039
    1UNL    H30   66   0.158  -0.051   0.072
    1UNL    H31   67   0.055  -0.025  -0.219
   0.00000   0.00000   0.00000   0.00000   0.00000   0.00000   0.00000   0.00000   0.00000
Generated with MDTraj, t= 47.0
 67
    1UNL     C1    1  -0.183  -0.308  -0.091
    1UNL     C2    2  -0.106  -0.208  -0.142
    1UNL     C3    3  -0.094  -0.072  -0.088
    1UNL     C4    4  -0.221   0.022  -0.110
    1UNL     O1    5  -0.324  -0.015  -0.025
    1UNL     C5    6  -0.441  -0.028  -0.096
    1UNL     O2    7  -0.486   0.082  -0.177
    1UNL     C6    8  -0.511   0.201  -0.093
    1UNL     C7    9  -0.427   0.326  -0.145
    1UNL     O3   10  -0.449   0.449  -0.067
    1UNL     C8   11  -0.489   0.179   0.057
    1UNL     O4   12  -0.511   0.279   0.152
    1UNL     C9   13  -0.565   0.053   0.105
    1UNL     O5   14  -0.695   0.083   0.152
    1UNL    C10   15  -0.557  -0.058  -0.000
    1UNL     O6   16  -0.551  -0.188   0.052
    1UNL     O7   17  -0.195   0.170  -0.099
    1UNL    C11   18  -0.068   0.217  -0.071
    1UNL    C12   19   0.049   0.149  -0.088
    1UNL    C13   20   0.182   0.206  -0.049
    1UNL     O8   21   0.187   0.328  -0.017
    1UNL     N1   22   0.295   0.127  -0.049
    1UNL    C14   23   0.423   0.206  -0.042
    1UNL    C15   24   0.512   0.139   0.062
    1UNL    C16   25   0.496  -0.014   0.069
    1UNL    C17   26   0.592  -0.086   0.144
    1UNL    C18   27   0.601  -0.225   0.147
    1UNL     O9   28   0.704  -0.296   0.214
    1UNL    C19   29   0.661  -0.380   0.309
    1UNL    C20   30   0.503  -0.296   0.079
    1UNL    O10   31   0.510  -0.438   0.099
    1UNL    C21   32   0.415  -0.225   0.005
    1UNL    C22   33   0.404  -0.091  -0.002
    1UNL    C23   34   0.296  -0.023  -0.079
    1UNL    C24   35   0.161  -0.077  -0.053
    1UNL    C25   36   0.045   0.002  -0.121
    1UNL     H1   37  -0.204  -0.386  -0.162
    1UNL     H2   38  -0.254  -0.283  -0.016
    1UNL     H3   39  -0.066  -0.216  -0.241
    1UNL     H4   40  -0.101  -0.085   0.026
    1UNL     H5   41  -0.254   0.010  -0.217
    1UNL     H6   42  -0.424  -0.117  -0.154
    1UNL     H7   43  -0.622   0.227  -0.115
    1UNL     H8   44  -0.454   0.342  -0.250
    1UNL     H9   45  -0.321   0.297  -0.142
    1UNL    H10   46  -0.471   0.413   0.025
    1UNL    H11   47  -0.380   0.160   0.061
    1UNL    H12   48  -0.606   0.296   0.163
    1UNL    H13   49  -0.518   0.018   0.192
    1UNL    H14   50  -0.757   0.114   0.079
    1UNL    H15   51  -0.648  -0.052  -0.063
    1UNL    H16   52  -0.600  -0.198   0.137
    1UNL    H17   53  -0.072   0.322  -0.036
    1UNL    H18   54   0.393   0.304  -0.018
    1UNL    H19   55   0.461   0.209  -0.149
    1UNL    H20   56   0.616   0.164   0.048
    1UNL    H21   57   0.494   0.184   0.158
    1UNL    H22   58   0.661  -0.029   0.203
    1UNL    H23   59   0.578  -0.331   0.357
    1UNL    H24   60   0.729  -0.390   0.393
    1UNL    H25   61   0.632  -0.473   0.263
    1UNL    H26   62   0.431  -0.471   0.058
    1UNL    H27   63   0.341  -0.287  -0.046
    1UNL    H28   64   0.324  -0.041  -0.179
    1UNL    H29   65   0.146  -0.187  -0.074
    1UNL    H30   66   0.150  -0.074   0.061
    1UNL    H31   67   0.046  -0.016  -0.232
   0.00000   0.00000   0.00000   0.00000   0.00000   0.00000   0.00000   0.00000   0.00000
Generated with MDTraj, t= 48.0
 67
    1UNL     C1    1  -0.218  -0.292  -0.156
    1UNL     C2    2  -0.136  -0.189  -0.188
    1UNL     C3    3  -0.098  -0.072  -0.110
    1UNL     C4    4  -0.213   0.030  -0.119
    1UNL     O1    5  -0.324  -0.019  -0.033
    1UNL     C5    6  -0.444  -0.024  -0.100
    1UNL     O2    7  -0.474   0.103  -0.169
    1UNL     C6    8  -0.512   0.210  -0.073
    1UNL     C7    9  -0.423   0.332  -0.111
    1UNL     O3   10  -0.484   0.454  -0.062
    1UNL     C8   11  -0.488   0.178   0.075
    1UNL     O4   12  -0.528   0.281   0.165
    1UNL     C9   13  -0.570   0.048   0.114
    1UNL     O5   14  -0.702   0.072   0.155
    1UNL    C10   15  -0.563  -0.060   0.001
    1UNL     O6   16  -0.540  -0.187   0.057
    1UNL     O7   17  -0.189   0.170  -0.111
    1UNL    C11   18  -0.059   0.210  -0.077
    1UNL    C12   19   0.051   0.133  -0.086
    1UNL    C13   20   0.185   0.193  -0.048
    1UNL     O8   21   0.213   0.313  -0.016
    1UNL     N1   22   0.297   0.110  -0.065
    1UNL    C14   23   0.429   0.185  -0.057
    1UNL    C15   24   0.510   0.131   0.058
    1UNL    C16   25   0.510  -0.019   0.063
    1UNL    C17   26   0.608  -0.083   0.134
    1UNL    C18   27   0.610  -0.226   0.152
    1UNL     O9   28   0.704  -0.264   0.244
    1UNL    C19   29   0.650  -0.338   0.345
    1UNL    C20   30   0.513  -0.299   0.092
    1UNL    O10   31   0.526  -0.442   0.097
    1UNL    C21   32   0.414  -0.236   0.018
    1UNL    C22   33   0.407  -0.097   0.010
    1UNL    C23   34   0.298  -0.036  -0.081
    1UNL    C24   35   0.154  -0.090  -0.063
    1UNL    C25   36   0.041  -0.007  -0.131
    1UNL     H1   37  -0.228  -0.380  -0.218
    1UNL     H2   38  -0.280  -0.283  -0.065
    1UNL     H3   39  -0.088  -0.180  -0.289
    1UNL     H4   40  -0.100  -0.108  -0.002
    1UNL     H5   41  -0.244   0.025  -0.225
    1UNL     H6   42  -0.430  -0.101  -0.177
    1UNL     H7   43  -0.624   0.238  -0.090
    1UNL     H8   44  -0.417   0.341  -0.220
    1UNL     H9   45  -0.320   0.337  -0.071
    1UNL    H10   46  -0.487   0.444   0.033
    1UNL    H11   47  -0.380   0.168   0.092
    1UNL    H12   48  -0.527   0.244   0.259
    1UNL    H13   49  -0.515   0.009   0.193
    1UNL    H14   50  -0.731   0.157   0.105
    1UNL    H15   51  -0.661  -0.050  -0.053
    1UNL    H16   52  -0.593  -0.194   0.139
    1UNL    H17   53  -0.052   0.319  -0.046
    1UNL    H18   54   0.400   0.284  -0.038
    1UNL    H19   55   0.484   0.176  -0.155
    1UNL    H20   56   0.604   0.182   0.058
    1UNL    H21   57   0.456   0.172   0.142
    1UNL    H22   58   0.677  -0.016   0.181
    1UNL    H23   59   0.625  -0.269   0.426
    1UNL    H24   60   0.723  -0.402   0.394
    1UNL    H25   61   0.566  -0.393   0.306
    1UNL    H26   62   0.453  -0.473   0.043
    1UNL    H27   63   0.331  -0.298  -0.011
    1UNL    H28   64   0.330  -0.065  -0.177
    1UNL    H29   65   0.150  -0.201  -0.077
    1UNL    H30   66   0.130  -0.084   0.049
    1UNL    H31   67   0.064  -0.013  -0.241
   0.00000   0.00000   0.00000   0.00000   0.00000   0.00000   0.00000   0.00000   0.00000
Generated with MDTraj, t= 49.0
 67
    1UNL     C1    1  -0.227  -0.255  -0.215
    1UNL     C2    2  -0.106  -0.204  -0.196
    1UNL     C3    3  -0.087  -0.088  -0.090
    1UNL     C4    4  -0.203   0.015  -0.117
    1UNL     O1    5  -0.323  -0.033  -0.043
    1UNL     C5    6  -0.442  -0.003  -0.101
    1UNL     O2    7  -0.465   0.128  -0.153
    1UNL     C6    8  -0.527   0.224  -0.060
    1UNL     C7    9  -0.467   0.353  -0.109
    1UNL     O3   10  -0.504   0.464  -0.029
    1UNL     C8   11  -0.493   0.190   0.082
    1UNL     O4   12  -0.553   0.285   0.171
    1UNL     C9   13  -0.551   0.048   0.114
    1UNL     O5   14  -0.683   0.065   0.152
    1UNL    C10   15  -0.556  -0.051  -0.005
    1UNL     O6   16  -0.528  -0.183   0.039
    1UNL     O7   17  -0.185   0.154  -0.085
    1UNL    C11   18  -0.054   0.198  -0.065
    1UNL    C12   19   0.056   0.117  -0.077
    1UNL    C13   20   0.191   0.176  -0.071
    1UNL     O8   21   0.214   0.295  -0.042
    1UNL     N1   22   0.308   0.104  -0.108
    1UNL    C14   23   0.435   0.173  -0.091
    1UNL    C15   24   0.488   0.134   0.045
    1UNL    C16   25   0.495  -0.014   0.064
    1UNL    C17   26   0.592  -0.070   0.152
    1UNL    C18   27   0.598  -0.208   0.178
    1UNL     O9   28   0.700  -0.250   0.262
    1UNL    C19   29   0.661  -0.350   0.358
    1UNL    C20   30   0.513  -0.293   0.102
    1UNL    O10   31   0.505  -0.433   0.121
    1UNL    C21   32   0.426  -0.236   0.016
    1UNL    C22   33   0.413  -0.103  -0.010
    1UNL    C23   34   0.305  -0.046  -0.099
    1UNL    C24   35   0.163  -0.104  -0.061
    1UNL    C25   36   0.047  -0.022  -0.120
    1UNL     H1   37  -0.236  -0.333  -0.286
    1UNL     H2   38  -0.304  -0.235  -0.144
    1UNL     H3   39  -0.030  -0.245  -0.255
    1UNL     H4   40  -0.101  -0.111   0.021
    1UNL     H5   41  -0.220   0.012  -0.223
    1UNL     H6   42  -0.444  -0.073  -0.187
    1UNL     H7   43  -0.641   0.199  -0.069
    1UNL     H8   44  -0.482   0.389  -0.210
    1UNL     H9   45  -0.360   0.349  -0.089
    1UNL    H10   46  -0.534   0.425   0.059
    1UNL    H11   47  -0.384   0.193   0.097
    1UNL    H12   48  -0.520   0.263   0.263
    1UNL    H13   49  -0.496  -0.008   0.183
    1UNL    H14   50  -0.694   0.145   0.204
    1UNL    H15   51  -0.658  -0.049  -0.050
    1UNL    H16   52  -0.571  -0.201   0.125
    1UNL    H17   53  -0.048   0.301  -0.037
    1UNL    H18   54   0.414   0.274  -0.114
    1UNL    H19   55   0.507   0.129  -0.163
    1UNL    H20   56   0.587   0.175   0.059
    1UNL    H21   57   0.427   0.176   0.126
    1UNL    H22   58   0.674  -0.015   0.202
    1UNL    H23   59   0.586  -0.309   0.427
    1UNL    H24   60   0.747  -0.376   0.424
    1UNL    H25   61   0.621  -0.433   0.301
    1UNL    H26   62   0.447  -0.464   0.047
    1UNL    H27   63   0.367  -0.308  -0.037
    1UNL    H28   64   0.321  -0.065  -0.201
    1UNL    H29   65   0.151  -0.215  -0.075
    1UNL    H30   66   0.156  -0.101   0.052
    1UNL    H31   67   0.061  -0.033  -0.231
   0.00000   0.00000   0.00000   0.00000   0.00000   0.00000   0.00000   0.00000   0.00000
Generated with MDTraj, t= 50.0
 67
    1UNL     C1    1  -0.216  -0.274  -0.184
    1UNL     C2    2  -0.124  -0.185  -0.216
    1UNL     C3    3  -0.088  -0.074  -0.123
    1UNL     C4    4  -0.206   0.026  -0.112
    1UNL     O1    5  -0.321  -0.036  -0.046
    1UNL     C5    6  -0.440  -0.002  -0.112
    1UNL     O2    7  -0.456   0.130  -0.160
    1UNL     C6    8  -0.503   0.219  -0.051
    1UNL     C7    9  -0.460   0.357  -0.068
    1UNL     O3   10  -0.547   0.460  -0.015
    1UNL     C8   11  -0.475   0.175   0.091
    1UNL     O4   12  -0.530   0.274   0.188
    1UNL     C9   13  -0.540   0.035   0.115
    1UNL     O5   14  -0.666   0.065   0.168
    1UNL    C10   15  -0.562  -0.036  -0.016
    1UNL     O6   16  -0.579  -0.173   0.000
    1UNL     O7   17  -0.173   0.149  -0.048
    1UNL    C11   18  -0.045   0.187  -0.063
    1UNL    C12   19   0.063   0.116  -0.108
    1UNL    C13   20   0.189   0.177  -0.101
    1UNL     O8   21   0.202   0.297  -0.069
    1UNL     N1   22   0.303   0.099  -0.132
    1UNL    C14   23   0.433   0.163  -0.116
    1UNL    C15   24   0.506   0.130   0.021
    1UNL    C16   25   0.495  -0.015   0.068
    1UNL    C17   26   0.583  -0.061   0.170
    1UNL    C18   27   0.594  -0.197   0.203
    1UNL     O9   28   0.678  -0.239   0.307
    1UNL    C19   29   0.675  -0.384   0.342
    1UNL    C20   30   0.508  -0.280   0.126
    1UNL    O10   31   0.514  -0.417   0.143
    1UNL    C21   32   0.418  -0.232   0.031
    1UNL    C22   33   0.411  -0.099  -0.002
    1UNL    C23   34   0.307  -0.053  -0.105
    1UNL    C24   35   0.162  -0.101  -0.072
    1UNL    C25   36   0.053  -0.021  -0.149
    1UNL     H1   37  -0.229  -0.357  -0.254
    1UNL     H2   38  -0.270  -0.276  -0.090
    1UNL     H3   39  -0.072  -0.204  -0.313
    1UNL     H4   40  -0.084  -0.118  -0.018
    1UNL     H5   41  -0.235   0.044  -0.213
    1UNL     H6   42  -0.447  -0.071  -0.200
    1UNL     H7   43  -0.620   0.221  -0.061
    1UNL     H8   44  -0.457   0.380  -0.175
    1UNL     H9   45  -0.361   0.380  -0.026
    1UNL    H10   46  -0.561   0.442   0.080
    1UNL    H11   47  -0.369   0.190   0.107
    1UNL    H12   48  -0.524   0.243   0.279
    1UNL    H13   49  -0.491  -0.023   0.184
    1UNL    H14   50  -0.702   0.151   0.133
    1UNL    H15   51  -0.659   0.004  -0.056
    1UNL    H16   52  -0.639  -0.199   0.072
    1UNL    H17   53  -0.036   0.284  -0.026
    1UNL    H18   54   0.421   0.267  -0.125
    1UNL    H19   55   0.486   0.136  -0.209
    1UNL    H20   56   0.608   0.163   0.026
    1UNL    H21   57   0.467   0.186   0.108
    1UNL    H22   58   0.655   0.009   0.199
    1UNL    H23   59   0.573  -0.427   0.339
    1UNL    H24   60   0.717  -0.395   0.444
    1UNL    H25   61   0.735  -0.428   0.262
    1UNL    H26   62   0.463  -0.462   0.068
    1UNL    H27   63   0.352  -0.303  -0.021
    1UNL    H28   64   0.335  -0.094  -0.197
    1UNL    H29   65   0.169  -0.210  -0.103
    1UNL    H30   66   0.137  -0.112   0.037
    1UNL    H31   67   0.079  -0.041  -0.257
   0.00000   0.00000   0.00000   0.00000   0.00000   0.00000   0.00000   0.00000   0.00000
Generated with MDTraj, t= 51.0
 67
    1UNL     C1    1  -0.169  -0.304  -0.155
    1UNL     C2    2  -0.127  -0.185  -0.201
    1UNL     C3    3  -0.094  -0.076  -0.112
    1UNL     C4    4  -0.201   0.033  -0.095
    1UNL     O1    5  -0.317  -0.037  -0.048
    1UNL     C5    6  -0.431   0.008  -0.121
    1UNL     O2    7  -0.449   0.145  -0.162
    1UNL     C6    8  -0.502   0.232  -0.053
    1UNL     C7    9  -0.451   0.379  -0.067
    1UNL     O3   10  -0.522   0.463   0.022
    1UNL     C8   11  -0.465   0.169   0.085
    1UNL     O4   12  -0.494   0.263   0.191
    1UNL     C9   13  -0.536   0.026   0.101
    1UNL     O5   14  -0.653   0.018   0.176
    1UNL    C10   15  -0.559  -0.028  -0.036
    1UNL     O6   16  -0.593  -0.163  -0.038
    1UNL     O7   17  -0.162   0.145  -0.014
    1UNL    C11   18  -0.035   0.187  -0.040
    1UNL    C12   19   0.062   0.119  -0.110
    1UNL    C13   20   0.189   0.176  -0.123
    1UNL     O8   21   0.200   0.300  -0.119
    1UNL     N1   22   0.303   0.094  -0.131
    1UNL    C14   23   0.431   0.159  -0.113
    1UNL    C15   24   0.492   0.132   0.023
    1UNL    C16   25   0.479  -0.013   0.062
    1UNL    C17   26   0.561  -0.059   0.163
    1UNL    C18   27   0.566  -0.188   0.207
    1UNL     O9   28   0.656  -0.223   0.316
    1UNL    C19   29   0.689  -0.360   0.320
    1UNL    C20   30   0.485  -0.278   0.134
    1UNL    O10   31   0.488  -0.416   0.169
    1UNL    C21   32   0.400  -0.236   0.027
    1UNL    C22   33   0.398  -0.101  -0.010
    1UNL    C23   34   0.294  -0.053  -0.118
    1UNL    C24   35   0.160  -0.114  -0.090
    1UNL    C25   36   0.046  -0.025  -0.142
    1UNL     H1   37  -0.204  -0.386  -0.211
    1UNL     H2   38  -0.193  -0.310  -0.052
    1UNL     H3   39  -0.092  -0.172  -0.298
    1UNL     H4   40  -0.097  -0.122  -0.007
    1UNL     H5   41  -0.226   0.073  -0.189
    1UNL     H6   42  -0.424  -0.047  -0.220
    1UNL     H7   43  -0.618   0.239  -0.072
    1UNL     H8   44  -0.461   0.412  -0.172
    1UNL     H9   45  -0.343   0.377  -0.043
    1UNL    H10   46  -0.521   0.412   0.105
    1UNL    H11   47  -0.360   0.139   0.084
    1UNL    H12   48  -0.465   0.221   0.274
    1UNL    H13   49  -0.476  -0.047   0.142
    1UNL    H14   50  -0.716   0.091   0.141
    1UNL    H15   51  -0.650   0.022  -0.073
    1UNL    H16   52  -0.647  -0.189   0.039
    1UNL    H17   53  -0.022   0.289   0.006
    1UNL    H18   54   0.418   0.263  -0.121
    1UNL    H19   55   0.498   0.132  -0.195
    1UNL    H20   56   0.595   0.159   0.038
    1UNL    H21   57   0.447   0.195   0.102
    1UNL    H22   58   0.624   0.018   0.212
    1UNL    H23   59   0.604  -0.418   0.361
    1UNL    H24   60   0.777  -0.349   0.387
    1UNL    H25   61   0.714  -0.382   0.216
    1UNL    H26   62   0.430  -0.466   0.104
    1UNL    H27   63   0.335  -0.306  -0.017
    1UNL    H28   64   0.334  -0.096  -0.204
    1UNL    H29   65   0.150  -0.219  -0.132
    1UNL    H30   66   0.166  -0.135   0.020
    1UNL    H31   67   0.055  -0.033  -0.254
   0.00000   0.00000   0.00000   0.00000   0.00000   0.00000   0.00000   0.00000   0.00000
Generated with MDTraj, t= 52.0
 67
    1UNL     C1    1  -0.152  -0.328  -0.118
    1UNL     C2    2  -0.132  -0.212  -0.176
    1UNL     C3    3  -0.094  -0.085  -0.098
    1UNL     C4    4  -0.206   0.024  -0.118
    1UNL     O1    5  -0.328  -0.044  -0.083
    1UNL     C5    6  -0.440   0.016  -0.137
    1UNL     O2    7  -0.431   0.157  -0.160
    1UNL     C6    8  -0.481   0.236  -0.045
    1UNL     C7    9  -0.402   0.374  -0.041
    1UNL     O3   10  -0.459   0.456   0.053
    1UNL     C8   11  -0.461   0.164   0.095
    1UNL     O4   12  -0.501   0.253   0.206
    1UNL     C9   13  -0.539   0.020   0.099
    1UNL     O5   14  -0.660   0.014   0.169
    1UNL    C10   15  -0.562  -0.033  -0.047
    1UNL     O6   16  -0.572  -0.172  -0.053
    1UNL     O7   17  -0.176   0.141  -0.039
    1UNL    C11   18  -0.048   0.183  -0.059
    1UNL    C12   19   0.055   0.115  -0.103
    1UNL    C13   20   0.190   0.171  -0.114
    1UNL     O8   21   0.214   0.294  -0.111
    1UNL     N1   22   0.307   0.089  -0.132
    1UNL    C14   23   0.431   0.158  -0.120
    1UNL    C15   24   0.484   0.139   0.017
    1UNL    C16   25   0.481   0.000   0.055
    1UNL    C17   26   0.561  -0.041   0.160
    1UNL    C18   27   0.550  -0.174   0.200
    1UNL     O9   28   0.640  -0.210   0.306
    1UNL    C19   29   0.685  -0.347   0.296
    1UNL    C20   30   0.458  -0.272   0.131
    1UNL    O10   31   0.443  -0.398   0.180
    1UNL    C21   32   0.391  -0.223   0.025
    1UNL    C22   33   0.394  -0.093  -0.005
    1UNL    C23   34   0.295  -0.055  -0.115
    1UNL    C24   35   0.155  -0.103  -0.077
    1UNL    C25   36   0.045  -0.026  -0.141
    1UNL     H1   37  -0.191  -0.413  -0.174
    1UNL     H2   38  -0.135  -0.343  -0.011
    1UNL     H3   39  -0.167  -0.196  -0.281
    1UNL     H4   40  -0.105  -0.106   0.013
    1UNL     H5   41  -0.203   0.060  -0.217
    1UNL     H6   42  -0.449  -0.019  -0.245
    1UNL     H7   43  -0.591   0.270  -0.067
    1UNL     H8   44  -0.404   0.427  -0.138
    1UNL     H9   45  -0.298   0.346  -0.017
    1UNL    H10   46  -0.497   0.408   0.133
    1UNL    H11   47  -0.352   0.148   0.103
    1UNL    H12   48  -0.527   0.202   0.289
    1UNL    H13   49  -0.477  -0.043   0.149
    1UNL    H14   50  -0.711   0.088   0.130
    1UNL    H15   51  -0.660   0.008  -0.077
    1UNL    H16   52  -0.617  -0.206   0.028
    1UNL    H17   53  -0.025   0.288  -0.027
    1UNL    H18   54   0.433   0.261  -0.146
    1UNL    H19   55   0.506   0.105  -0.178
    1UNL    H20   56   0.585   0.173   0.024
    1UNL    H21   57   0.428   0.192   0.096
    1UNL    H22   58   0.617   0.025   0.221
    1UNL    H23   59   0.597  -0.411   0.314
    1UNL    H24   60   0.759  -0.341   0.377
    1UNL    H25   61   0.726  -0.360   0.197
    1UNL    H26   62   0.378  -0.445   0.124
    1UNL    H27   63   0.322  -0.291  -0.028
    1UNL    H28   64   0.325  -0.100  -0.204
    1UNL    H29   65   0.151  -0.217  -0.088
    1UNL    H30   66   0.136  -0.090   0.032
    1UNL    H31   67   0.049  -0.027  -0.253
   0.00000   0.00000   0.00000   0.00000   0.00000   0.00000   0.00000   0.00000   0.00000
Generated with MDTraj, t= 53.0
 67
    1UNL     C1    1  -0.137  -0.334  -0.081
    1UNL     C2    2  -0.122  -0.231  -0.161
    1UNL     C3    3  -0.100  -0.086  -0.109
    1UNL     C4    4  -0.218   0.010  -0.141
    1UNL     O1    5  -0.334  -0.038  -0.073
    1UNL     C5    6  -0.450   0.016  -0.135
    1UNL     O2    7  -0.448   0.154  -0.147
    1UNL     C6    8  -0.462   0.229  -0.022
    1UNL     C7    9  -0.363   0.342  -0.022
    1UNL     O3   10  -0.389   0.432   0.076
    1UNL     C8   11  -0.466   0.149   0.110
    1UNL     O4   12  -0.503   0.230   0.220
    1UNL     C9   13  -0.558   0.022   0.096
    1UNL     O5   14  -0.681   0.038   0.161
    1UNL    C10   15  -0.579  -0.023  -0.056
    1UNL     O6   16  -0.610  -0.157  -0.084
    1UNL     O7   17  -0.196   0.151  -0.116
    1UNL    C11   18  -0.063   0.188  -0.101
    1UNL    C12   19   0.052   0.124  -0.120
    1UNL    C13   20   0.185   0.180  -0.099
    1UNL     O8   21   0.202   0.300  -0.073
    1UNL     N1   22   0.299   0.102  -0.113
    1UNL    C14   23   0.429   0.165  -0.126
    1UNL    C15   24   0.516   0.141   0.000
    1UNL    C16   25   0.486   0.000   0.047
    1UNL    C17   26   0.568  -0.044   0.153
    1UNL    C18   27   0.561  -0.177   0.200
    1UNL     O9   28   0.639  -0.204   0.313
    1UNL    C19   29   0.689  -0.346   0.313
    1UNL    C20   30   0.467  -0.264   0.147
    1UNL    O10   31   0.461  -0.396   0.195
    1UNL    C21   32   0.378  -0.222   0.044
    1UNL    C22   33   0.388  -0.091  -0.002
    1UNL    C23   34   0.296  -0.043  -0.123
    1UNL    C24   35   0.157  -0.102  -0.111
    1UNL    C25   36   0.039  -0.023  -0.162
    1UNL     H1   37  -0.146  -0.430  -0.125
    1UNL     H2   38  -0.151  -0.324   0.023
    1UNL     H3   39  -0.127  -0.243  -0.265
    1UNL     H4   40  -0.089  -0.084   0.004
    1UNL     H5   41  -0.214   0.011  -0.249
    1UNL     H6   42  -0.456  -0.008  -0.245
    1UNL     H7   43  -0.569   0.278  -0.033
    1UNL     H8   44  -0.373   0.389  -0.123
    1UNL     H9   45  -0.260   0.303  -0.013
    1UNL    H10   46  -0.409   0.399   0.164
    1UNL    H11   47  -0.362   0.117   0.131
    1UNL    H12   48  -0.522   0.180   0.300
    1UNL    H13   49  -0.515  -0.055   0.147
    1UNL    H14   50  -0.708   0.128   0.166
    1UNL    H15   51  -0.666   0.032  -0.094
    1UNL    H16   52  -0.678  -0.194  -0.022
    1UNL    H17   53  -0.058   0.285  -0.065
    1UNL    H18   54   0.412   0.268  -0.131
    1UNL    H19   55   0.496   0.134  -0.205
    1UNL    H20   56   0.622   0.152  -0.011
    1UNL    H21   57   0.474   0.209   0.076
    1UNL    H22   58   0.641   0.026   0.194
    1UNL    H23   59   0.606  -0.399   0.358
    1UNL    H24   60   0.782  -0.342   0.369
    1UNL    H25   61   0.693  -0.374   0.210
    1UNL    H26   62   0.403  -0.455   0.148
    1UNL    H27   63   0.305  -0.285   0.001
    1UNL    H28   64   0.330  -0.067  -0.218
    1UNL    H29   65   0.155  -0.200  -0.171
    1UNL    H30   66   0.152  -0.138  -0.006
    1UNL    H31   67   0.037  -0.037  -0.273
   0.00000   0.00000   0.00000   0.00000   0.00000   0.00000   0.00000   0.00000   0.00000
Generated with MDTraj, t= 54.0
 67
    1UNL     C1    1  -0.141  -0.322  -0.042
    1UNL     C2    2  -0.128  -0.231  -0.138
    1UNL     C3    3  -0.108  -0.080  -0.114
    1UNL     C4    4  -0.220   0.013  -0.157
    1UNL     O1    5  -0.346  -0.025  -0.091
    1UNL     C5    6  -0.464   0.029  -0.148
    1UNL     O2    7  -0.464   0.169  -0.145
    1UNL     C6    8  -0.465   0.232  -0.009
    1UNL     C7    9  -0.360   0.329  -0.003
    1UNL     O3   10  -0.348   0.394   0.120
    1UNL     C8   11  -0.465   0.129   0.107
    1UNL     O4   12  -0.482   0.187   0.234
    1UNL     C9   13  -0.574   0.026   0.078
    1UNL     O5   14  -0.700   0.064   0.127
    1UNL    C10   15  -0.591  -0.018  -0.067
    1UNL     O6   16  -0.618  -0.149  -0.073
    1UNL     O7   17  -0.194   0.148  -0.153
    1UNL    C11   18  -0.064   0.190  -0.137
    1UNL    C12   19   0.052   0.124  -0.144
    1UNL    C13   20   0.181   0.181  -0.111
    1UNL     O8   21   0.185   0.299  -0.072
    1UNL     N1   22   0.295   0.102  -0.123
    1UNL    C14   23   0.425   0.171  -0.130
    1UNL    C15   24   0.505   0.147   0.005
    1UNL    C16   25   0.502  -0.002   0.044
    1UNL    C17   26   0.580  -0.045   0.151
    1UNL    C18   27   0.574  -0.173   0.199
    1UNL     O9   28   0.669  -0.210   0.298
    1UNL    C19   29   0.671  -0.352   0.349
    1UNL    C20   30   0.477  -0.264   0.142
    1UNL    O10   31   0.470  -0.384   0.212
    1UNL    C21   32   0.400  -0.221   0.035
    1UNL    C22   33   0.402  -0.089  -0.012
    1UNL    C23   34   0.294  -0.044  -0.111
    1UNL    C24   35   0.148  -0.099  -0.084
    1UNL    C25   36   0.034  -0.025  -0.161
    1UNL     H1   37  -0.149  -0.430  -0.059
    1UNL     H2   38  -0.155  -0.292   0.061
    1UNL     H3   39  -0.112  -0.249  -0.245
    1UNL     H4   40  -0.122  -0.067  -0.003
    1UNL     H5   41  -0.246  -0.010  -0.261
    1UNL     H6   42  -0.477  -0.003  -0.253
    1UNL     H7   43  -0.570   0.287  -0.009
    1UNL     H8   44  -0.366   0.412  -0.078
    1UNL     H9   45  -0.265   0.275  -0.022
    1UNL    H10   46  -0.370   0.326   0.192
    1UNL    H11   47  -0.366   0.080   0.113
    1UNL    H12   48  -0.508   0.117   0.294
    1UNL    H13   49  -0.556  -0.065   0.121
    1UNL    H14   50  -0.692   0.157   0.171
    1UNL    H15   51  -0.680   0.031  -0.109
    1UNL    H16   52  -0.702  -0.170  -0.023
    1UNL    H17   53  -0.062   0.292  -0.109
    1UNL    H18   54   0.437   0.277  -0.136
    1UNL    H19   55   0.479   0.136  -0.218
    1UNL    H20   56   0.607   0.177  -0.010
    1UNL    H21   57   0.460   0.199   0.093
    1UNL    H22   58   0.655   0.021   0.191
    1UNL    H23   59   0.564  -0.366   0.359
    1UNL    H24   60   0.719  -0.343   0.446
    1UNL    H25   61   0.719  -0.414   0.275
    1UNL    H26   62   0.405  -0.437   0.166
    1UNL    H27   63   0.350  -0.300  -0.020
    1UNL    H28   64   0.327  -0.086  -0.199
    1UNL    H29   65   0.155  -0.208  -0.119
    1UNL    H30   66   0.121  -0.103   0.024
    1UNL    H31   67   0.041  -0.049  -0.269
   0.00000   0.00000   0.00000   0.00000   0.00000   0.00000   0.00000   0.00000   0.00000
Generated with MDTraj, t= 55.0
 67
    1UNL     C1    1  -0.170  -0.315  -0.016
    1UNL     C2    2  -0.139  -0.232  -0.112
    1UNL     C3    3  -0.116  -0.084  -0.085
    1UNL     C4    4  -0.220   0.011  -0.160
    1UNL     O1    5  -0.341  -0.004  -0.089
    1UNL     C5    6  -0.450   0.056  -0.158
    1UNL     O2    7  -0.447   0.195  -0.137
    1UNL     C6    8  -0.452   0.229   0.004
    1UNL     C7    9  -0.332   0.320   0.029
    1UNL     O3   10  -0.343   0.388   0.152
    1UNL     C8   11  -0.451   0.101   0.109
    1UNL     O4   12  -0.474   0.142   0.241
    1UNL     C9   13  -0.569   0.011   0.066
    1UNL     O5   14  -0.698   0.078   0.088
    1UNL    C10   15  -0.572  -0.012  -0.089
    1UNL     O6   16  -0.575  -0.147  -0.096
    1UNL     O7   17  -0.194   0.153  -0.173
    1UNL    C11   18  -0.065   0.189  -0.152
    1UNL    C12   19   0.046   0.113  -0.137
    1UNL    C13   20   0.174   0.181  -0.134
    1UNL     O8   21   0.180   0.305  -0.148
    1UNL     N1   22   0.289   0.104  -0.122
    1UNL    C14   23   0.414   0.160  -0.128
    1UNL    C15   24   0.482   0.146   0.009
    1UNL    C16   25   0.471  -0.002   0.055
    1UNL    C17   26   0.570  -0.047   0.142
    1UNL    C18   27   0.577  -0.177   0.188
    1UNL     O9   28   0.688  -0.216   0.274
    1UNL    C19   29   0.658  -0.309   0.374
    1UNL    C20   30   0.477  -0.267   0.139
    1UNL    O10   31   0.491  -0.401   0.176
    1UNL    C21   32   0.379  -0.224   0.050
    1UNL    C22   33   0.377  -0.090   0.003
    1UNL    C23   34   0.272  -0.042  -0.091
    1UNL    C24   35   0.134  -0.081  -0.038
    1UNL    C25   36   0.028  -0.033  -0.130
    1UNL     H1   37  -0.165  -0.420  -0.033
    1UNL     H2   38  -0.176  -0.283   0.085
    1UNL     H3   39  -0.124  -0.267  -0.214
    1UNL     H4   40  -0.132  -0.065   0.024
    1UNL     H5   41  -0.236  -0.041  -0.258
    1UNL     H6   42  -0.445   0.037  -0.264
    1UNL     H7   43  -0.548   0.297   0.016
    1UNL     H8   44  -0.317   0.400  -0.046
    1UNL     H9   45  -0.233   0.269   0.035
    1UNL    H10   46  -0.389   0.321   0.207
    1UNL    H11   47  -0.348   0.060   0.111
    1UNL    H12   48  -0.492   0.061   0.296
    1UNL    H13   49  -0.565  -0.077   0.117
    1UNL    H14   50  -0.689   0.116   0.177
    1UNL    H15   51  -0.669   0.029  -0.119
    1UNL    H16   52  -0.656  -0.177  -0.051
    1UNL    H17   53  -0.053   0.302  -0.152
    1UNL    H18   54   0.404   0.263  -0.163
    1UNL    H19   55   0.480   0.114  -0.202
    1UNL    H20   56   0.588   0.162   0.010
    1UNL    H21   57   0.425   0.210   0.079
    1UNL    H22   58   0.642   0.023   0.177
    1UNL    H23   59   0.580  -0.251   0.427
    1UNL    H24   60   0.757  -0.309   0.426
    1UNL    H25   61   0.621  -0.397   0.321
    1UNL    H26   62   0.439  -0.453   0.111
    1UNL    H27   63   0.305  -0.296   0.016
    1UNL    H28   64   0.285  -0.095  -0.180
    1UNL    H29   65   0.123  -0.193  -0.022
    1UNL    H30   66   0.126  -0.028   0.060
    1UNL    H31   67   0.057  -0.069  -0.231
   0.00000   0.00000   0.00000   0.00000   0.00000   0.00000   0.00000   0.00000   0.00000
Generated with MDTraj, t= 56.0
 67
    1UNL     C1    1  -0.205  -0.273   0.012
    1UNL     C2    2  -0.142  -0.210  -0.081
    1UNL     C3    3  -0.116  -0.063  -0.090
    1UNL     C4    4  -0.221   0.022  -0.170
    1UNL     O1    5  -0.346  -0.018  -0.115
    1UNL     C5    6  -0.459   0.060  -0.156
    1UNL     O2    7  -0.455   0.192  -0.119
    1UNL     C6    8  -0.452   0.218   0.020
    1UNL     C7    9  -0.326   0.307   0.049
    1UNL     O3   10  -0.331   0.340   0.186
    1UNL     C8   11  -0.477   0.091   0.116
    1UNL     O4   12  -0.501   0.133   0.244
    1UNL     C9   13  -0.592   0.013   0.060
    1UNL     O5   14  -0.713   0.080   0.092
    1UNL    C10   15  -0.592   0.001  -0.096
    1UNL     O6   16  -0.621  -0.136  -0.120
    1UNL     O7   17  -0.186   0.163  -0.172
    1UNL    C11   18  -0.056   0.190  -0.189
    1UNL    C12   19   0.053   0.112  -0.168
    1UNL    C13   20   0.184   0.171  -0.176
    1UNL     O8   21   0.201   0.286  -0.223
    1UNL     N1   22   0.299   0.096  -0.125
    1UNL    C14   23   0.428   0.155  -0.110
    1UNL    C15   24   0.474   0.144   0.033
    1UNL    C16   25   0.486  -0.004   0.065
    1UNL    C17   26   0.595  -0.046   0.137
    1UNL    C18   27   0.598  -0.179   0.184
    1UNL     O9   28   0.692  -0.215   0.283
    1UNL    C19   29   0.649  -0.303   0.389
    1UNL    C20   30   0.501  -0.265   0.137
    1UNL    O10   31   0.517  -0.402   0.161
    1UNL    C21   32   0.398  -0.225   0.051
    1UNL    C22   33   0.392  -0.091   0.017
    1UNL    C23   34   0.283  -0.046  -0.072
    1UNL    C24   35   0.138  -0.061  -0.022
    1UNL    C25   36   0.033  -0.024  -0.127
    1UNL     H1   37  -0.220  -0.379   0.006
    1UNL     H2   38  -0.229  -0.220   0.103
    1UNL     H3   39  -0.111  -0.269  -0.163
    1UNL     H4   40  -0.127  -0.027   0.016
    1UNL     H5   41  -0.220  -0.022  -0.275
    1UNL     H6   42  -0.459   0.058  -0.262
    1UNL     H7   43  -0.554   0.276   0.031
    1UNL     H8   44  -0.328   0.400  -0.010
    1UNL     H9   45  -0.233   0.255   0.020
    1UNL    H10   46  -0.379   0.266   0.228
    1UNL    H11   47  -0.390   0.023   0.126
    1UNL    H12   48  -0.516   0.052   0.304
    1UNL    H13   49  -0.586  -0.084   0.090
    1UNL    H14   50  -0.708   0.103   0.188
    1UNL    H15   51  -0.680   0.052  -0.137
    1UNL    H16   52  -0.703  -0.168  -0.076
    1UNL    H17   53  -0.040   0.292  -0.223
    1UNL    H18   54   0.423   0.262  -0.138
    1UNL    H19   55   0.498   0.110  -0.181
    1UNL    H20   56   0.566   0.199   0.044
    1UNL    H21   57   0.394   0.169   0.106
    1UNL    H22   58   0.656   0.040   0.170
    1UNL    H23   59   0.542  -0.278   0.397
    1UNL    H24   60   0.718  -0.277   0.474
    1UNL    H25   61   0.659  -0.399   0.338
    1UNL    H26   62   0.476  -0.461   0.090
    1UNL    H27   63   0.311  -0.283   0.032
    1UNL    H28   64   0.291  -0.086  -0.167
    1UNL    H29   65   0.123  -0.168   0.007
    1UNL    H30   66   0.123   0.009   0.064
    1UNL    H31   67   0.060  -0.082  -0.218
   0.00000   0.00000   0.00000   0.00000   0.00000   0.00000   0.00000   0.00000   0.00000
Generated with MDTraj, t= 57.0
 67
    1UNL     C1    1  -0.246  -0.235   0.034
    1UNL     C2    2  -0.141  -0.201  -0.036
    1UNL     C3    3  -0.107  -0.056  -0.054
    1UNL     C4    4  -0.216   0.019  -0.137
    1UNL     O1    5  -0.349  -0.006  -0.093
    1UNL     C5    6  -0.456   0.068  -0.157
    1UNL     O2    7  -0.458   0.205  -0.115
    1UNL     C6    8  -0.447   0.218   0.026
    1UNL     C7    9  -0.309   0.280   0.065
    1UNL     O3   10  -0.302   0.296   0.203
    1UNL     C8   11  -0.495   0.094   0.119
    1UNL     O4   12  -0.515   0.126   0.251
    1UNL     C9   13  -0.608   0.014   0.045
    1UNL     O5   14  -0.739   0.057   0.096
    1UNL    C10   15  -0.593   0.017  -0.111
    1UNL     O6   16  -0.623  -0.101  -0.184
    1UNL     O7   17  -0.189   0.157  -0.167
    1UNL    C11   18  -0.057   0.179  -0.206
    1UNL    C12   19   0.052   0.104  -0.178
    1UNL    C13   20   0.186   0.153  -0.196
    1UNL     O8   21   0.199   0.259  -0.258
    1UNL     N1   22   0.295   0.094  -0.130
    1UNL    C14   23   0.424   0.158  -0.119
    1UNL    C15   24   0.483   0.154   0.024
    1UNL    C16   25   0.493   0.008   0.070
    1UNL    C17   26   0.576  -0.034   0.173
    1UNL    C18   27   0.585  -0.164   0.209
    1UNL     O9   28   0.686  -0.197   0.296
    1UNL    C19   29   0.673  -0.326   0.364
    1UNL    C20   30   0.506  -0.261   0.136
    1UNL    O10   31   0.518  -0.392   0.168
    1UNL    C21   32   0.426  -0.214   0.036
    1UNL    C22   33   0.405  -0.083   0.001
    1UNL    C23   34   0.291  -0.045  -0.089
    1UNL    C24   35   0.149  -0.082  -0.036
    1UNL    C25   36   0.030  -0.038  -0.128
    1UNL     H1   37  -0.292  -0.330   0.048
    1UNL     H2   38  -0.302  -0.154   0.073
    1UNL     H3   39  -0.063  -0.275  -0.070
    1UNL     H4   40  -0.105  -0.001   0.043
    1UNL     H5   41  -0.226  -0.036  -0.238
    1UNL     H6   42  -0.439   0.055  -0.260
    1UNL     H7   43  -0.527   0.297   0.053
    1UNL     H8   44  -0.308   0.380   0.020
    1UNL     H9   45  -0.227   0.226   0.015
    1UNL    H10   46  -0.374   0.244   0.251
    1UNL    H11   47  -0.405   0.033   0.130
    1UNL    H12   48  -0.536   0.050   0.310
    1UNL    H13   49  -0.598  -0.084   0.069
    1UNL    H14   50  -0.726   0.101   0.184
    1UNL    H15   51  -0.670   0.090  -0.141
    1UNL    H16   52  -0.714  -0.132  -0.167
    1UNL    H17   53  -0.048   0.272  -0.248
    1UNL    H18   54   0.414   0.260  -0.166
    1UNL    H19   55   0.493   0.100  -0.181
    1UNL    H20   56   0.590   0.172   0.018
    1UNL    H21   57   0.418   0.221   0.085
    1UNL    H22   58   0.640   0.029   0.229
    1UNL    H23   59   0.567  -0.331   0.393
    1UNL    H24   60   0.754  -0.332   0.440
    1UNL    H25   61   0.689  -0.387   0.276
    1UNL    H26   62   0.478  -0.441   0.089
    1UNL    H27   63   0.377  -0.297  -0.019
    1UNL    H28   64   0.306  -0.096  -0.177
    1UNL    H29   65   0.151  -0.191  -0.028
    1UNL    H30   66   0.134  -0.035   0.066
    1UNL    H31   67   0.018  -0.107  -0.213
   0.00000   0.00000   0.00000   0.00000   0.00000   0.00000   0.00000   0.00000   0.00000
Generated with MDTraj, t= 58.0
 67
    1UNL     C1    1  -0.263  -0.224   0.045
    1UNL     C2    2  -0.144  -0.186  -0.001
    1UNL     C3    3  -0.112  -0.041  -0.046
    1UNL     C4    4  -0.216   0.014  -0.143
    1UNL     O1    5  -0.346  -0.011  -0.099
    1UNL     C5    6  -0.438   0.079  -0.155
    1UNL     O2    7  -0.408   0.209  -0.105
    1UNL     C6    8  -0.422   0.223   0.039
    1UNL     C7    9  -0.294   0.263   0.113
    1UNL     O3   10  -0.297   0.264   0.255
    1UNL     C8   11  -0.491   0.101   0.115
    1UNL     O4   12  -0.539   0.146   0.236
    1UNL     C9   13  -0.600   0.013   0.030
    1UNL     O5   14  -0.733   0.049   0.072
    1UNL    C10   15  -0.578   0.023  -0.124
    1UNL     O6   16  -0.586  -0.096  -0.201
    1UNL     O7   17  -0.191   0.144  -0.182
    1UNL    C11   18  -0.056   0.168  -0.199
    1UNL    C12   19   0.047   0.093  -0.174
    1UNL    C13   20   0.178   0.146  -0.191
    1UNL     O8   21   0.193   0.264  -0.229
    1UNL     N1   22   0.286   0.074  -0.149
    1UNL    C14   23   0.417   0.145  -0.142
    1UNL    C15   24   0.459   0.149   0.005
    1UNL    C16   25   0.463   0.003   0.056
    1UNL    C17   26   0.550  -0.029   0.154
    1UNL    C18   27   0.577  -0.155   0.197
    1UNL     O9   28   0.663  -0.167   0.308
    1UNL    C19   29   0.713  -0.303   0.327
    1UNL    C20   30   0.505  -0.256   0.143
    1UNL    O10   31   0.513  -0.389   0.173
    1UNL    C21   32   0.408  -0.228   0.048
    1UNL    C22   33   0.390  -0.096  -0.001
    1UNL    C23   34   0.282  -0.061  -0.097
    1UNL    C24   35   0.149  -0.077  -0.023
    1UNL    C25   36   0.031  -0.040  -0.118
    1UNL     H1   37  -0.288  -0.327   0.069
    1UNL     H2   38  -0.355  -0.171   0.039
    1UNL     H3   39  -0.064  -0.250  -0.013
    1UNL     H4   40  -0.101   0.034   0.037
    1UNL     H5   41  -0.205  -0.045  -0.242
    1UNL     H6   42  -0.420   0.078  -0.260
    1UNL     H7   43  -0.486   0.317   0.049
    1UNL     H8   44  -0.259   0.357   0.068
    1UNL     H9   45  -0.216   0.192   0.085
    1UNL    H10   46  -0.383   0.244   0.292
    1UNL    H11   47  -0.411   0.034   0.143
    1UNL    H12   48  -0.624   0.103   0.248
    1UNL    H13   49  -0.591  -0.085   0.054
    1UNL    H14   50  -0.757   0.132   0.031
    1UNL    H15   51  -0.655   0.090  -0.164
    1UNL    H16   52  -0.678  -0.123  -0.224
    1UNL    H17   53  -0.030   0.270  -0.237
    1UNL    H18   54   0.413   0.249  -0.191
    1UNL    H19   55   0.488   0.087  -0.203
    1UNL    H20   56   0.552   0.205   0.007
    1UNL    H21   57   0.377   0.199   0.060
    1UNL    H22   58   0.614   0.048   0.200
    1UNL    H23   59   0.623  -0.365   0.343
    1UNL    H24   60   0.797  -0.298   0.396
    1UNL    H25   61   0.753  -0.312   0.229
    1UNL    H26   62   0.474  -0.444   0.101
    1UNL    H27   63   0.361  -0.309   0.001
    1UNL    H28   64   0.291  -0.128  -0.174
    1UNL    H29   65   0.143  -0.180   0.011
    1UNL    H30   66   0.155  -0.009   0.067
    1UNL    H31   67   0.037  -0.114  -0.199
   0.00000   0.00000   0.00000   0.00000   0.00000   0.00000   0.00000   0.00000   0.00000
Generated with MDTraj, t= 59.0
 67
    1UNL     C1    1  -0.228  -0.229   0.056
    1UNL     C2    2  -0.131  -0.196  -0.024
    1UNL     C3    3  -0.105  -0.057  -0.066
    1UNL     C4    4  -0.219   0.002  -0.148
    1UNL     O1    5  -0.345   0.004  -0.077
    1UNL     C5    6  -0.443   0.090  -0.140
    1UNL     O2    7  -0.436   0.220  -0.083
    1UNL     C6    8  -0.454   0.230   0.062
    1UNL     C7    9  -0.311   0.253   0.120
    1UNL     O3   10  -0.300   0.249   0.259
    1UNL     C8   11  -0.515   0.100   0.111
    1UNL     O4   12  -0.557   0.112   0.243
    1UNL     C9   13  -0.637   0.036   0.019
    1UNL     O5   14  -0.764   0.093   0.048
    1UNL    C10   15  -0.593   0.042  -0.131
    1UNL     O6   16  -0.619  -0.076  -0.203
    1UNL     O7   17  -0.182   0.127  -0.215
    1UNL    C11   18  -0.048   0.169  -0.199
    1UNL    C12   19   0.059   0.090  -0.176
    1UNL    C13   20   0.197   0.139  -0.189
    1UNL     O8   21   0.212   0.261  -0.206
    1UNL     N1   22   0.308   0.062  -0.163
    1UNL    C14   23   0.433   0.128  -0.155
    1UNL    C15   24   0.461   0.147  -0.008
    1UNL    C16   25   0.481   0.005   0.045
    1UNL    C17   26   0.569  -0.022   0.152
    1UNL    C18   27   0.580  -0.147   0.211
    1UNL     O9   28   0.673  -0.170   0.307
    1UNL    C19   29   0.742  -0.291   0.297
    1UNL    C20   30   0.504  -0.254   0.159
    1UNL    O10   31   0.524  -0.380   0.200
    1UNL    C21   32   0.414  -0.224   0.061
    1UNL    C22   33   0.394  -0.099   0.009
    1UNL    C23   34   0.289  -0.070  -0.092
    1UNL    C24   35   0.146  -0.079  -0.026
    1UNL    C25   36   0.039  -0.049  -0.129
    1UNL     H1   37  -0.231  -0.331   0.090
    1UNL     H2   38  -0.311  -0.166   0.085
    1UNL     H3   39  -0.072  -0.270  -0.087
    1UNL     H4   40  -0.111   0.002   0.031
    1UNL     H5   41  -0.240  -0.066  -0.237
    1UNL     H6   42  -0.421   0.101  -0.244
    1UNL     H7   43  -0.529   0.312   0.075
    1UNL     H8   44  -0.256   0.341   0.087
    1UNL     H9   45  -0.254   0.167   0.078
    1UNL    H10   46  -0.390   0.216   0.293
    1UNL    H11   47  -0.434   0.030   0.122
    1UNL    H12   48  -0.652   0.078   0.253
    1UNL    H13   49  -0.643  -0.059   0.055
    1UNL    H14   50  -0.830   0.065  -0.021
    1UNL    H15   51  -0.653   0.119  -0.182
    1UNL    H16   52  -0.711  -0.110  -0.188
    1UNL    H17   53  -0.021   0.276  -0.227
    1UNL    H18   54   0.426   0.226  -0.215
    1UNL    H19   55   0.514   0.065  -0.196
    1UNL    H20   56   0.550   0.208   0.010
    1UNL    H21   57   0.373   0.193   0.038
    1UNL    H22   58   0.620   0.060   0.195
    1UNL    H23   59   0.672  -0.362   0.344
    1UNL    H24   60   0.840  -0.263   0.339
    1UNL    H25   61   0.757  -0.299   0.191
    1UNL    H26   62   0.470  -0.447   0.159
    1UNL    H27   63   0.351  -0.293   0.002
    1UNL    H28   64   0.291  -0.142  -0.164
    1UNL    H29   65   0.124  -0.175   0.022
    1UNL    H30   66   0.134  -0.006   0.057
    1UNL    H31   67   0.050  -0.116  -0.215
   0.00000   0.00000   0.00000   0.00000   0.00000   0.00000   0.00000   0.00000   0.00000
Generated with MDTraj, t= 60.0
 67
    1UNL     C1    1  -0.194  -0.245   0.063
    1UNL     C2    2  -0.165  -0.202  -0.054
    1UNL     C3    3  -0.121  -0.065  -0.083
    1UNL     C4    4  -0.227   0.012  -0.162
    1UNL     O1    5  -0.348   0.010  -0.093
    1UNL     C5    6  -0.442   0.095  -0.150
    1UNL     O2    7  -0.434   0.225  -0.084
    1UNL     C6    8  -0.454   0.219   0.064
    1UNL     C7    9  -0.321   0.246   0.149
    1UNL     O3   10  -0.343   0.244   0.290
    1UNL     C8   11  -0.517   0.087   0.107
    1UNL     O4   12  -0.573   0.099   0.234
    1UNL     C9   13  -0.636   0.053   0.012
    1UNL     O5   14  -0.745   0.138   0.042
    1UNL    C10   15  -0.585   0.042  -0.138
    1UNL     O6   16  -0.616  -0.084  -0.203
    1UNL     O7   17  -0.188   0.149  -0.198
    1UNL    C11   18  -0.058   0.174  -0.189
    1UNL    C12   19   0.046   0.081  -0.182
    1UNL    C13   20   0.181   0.134  -0.195
    1UNL     O8   21   0.198   0.251  -0.233
    1UNL     N1   22   0.290   0.071  -0.138
    1UNL    C14   23   0.420   0.136  -0.150
    1UNL    C15   24   0.505   0.131  -0.019
    1UNL    C16   25   0.489   0.004   0.052
    1UNL    C17   26   0.589  -0.024   0.147
    1UNL    C18   27   0.604  -0.147   0.206
    1UNL     O9   28   0.716  -0.163   0.288
    1UNL    C19   29   0.769  -0.294   0.300
    1UNL    C20   30   0.507  -0.253   0.175
    1UNL    O10   31   0.524  -0.375   0.238
    1UNL    C21   32   0.410  -0.219   0.080
    1UNL    C22   33   0.399  -0.093   0.021
    1UNL    C23   34   0.288  -0.068  -0.083
    1UNL    C24   35   0.141  -0.111  -0.052
    1UNL    C25   36   0.026  -0.059  -0.145
    1UNL     H1   37  -0.260  -0.327   0.078
    1UNL     H2   38  -0.188  -0.170   0.141
    1UNL     H3   39  -0.197  -0.258  -0.135
    1UNL     H4   40  -0.123  -0.017   0.020
    1UNL     H5   41  -0.242  -0.043  -0.258
    1UNL     H6   42  -0.417   0.117  -0.254
    1UNL     H7   43  -0.527   0.298   0.088
    1UNL     H8   44  -0.277   0.344   0.124
    1UNL     H9   45  -0.235   0.177   0.142
    1UNL    H10   46  -0.414   0.180   0.301
    1UNL    H11   47  -0.445   0.010   0.101
    1UNL    H12   48  -0.654   0.048   0.244
    1UNL    H13   49  -0.675  -0.040   0.037
    1UNL    H14   50  -0.781   0.181  -0.043
    1UNL    H15   51  -0.647   0.108  -0.198
    1UNL    H16   52  -0.661  -0.139  -0.136
    1UNL    H17   53  -0.027   0.271  -0.214
    1UNL    H18   54   0.407   0.246  -0.182
    1UNL    H19   55   0.471   0.093  -0.239
    1UNL    H20   56   0.612   0.150  -0.042
    1UNL    H21   57   0.484   0.211   0.054
    1UNL    H22   58   0.653   0.049   0.198
    1UNL    H23   59   0.678  -0.351   0.321
    1UNL    H24   60   0.834  -0.283   0.388
    1UNL    H25   61   0.828  -0.310   0.210
    1UNL    H26   62   0.458  -0.441   0.220
    1UNL    H27   63   0.338  -0.295   0.063
    1UNL    H28   64   0.317  -0.129  -0.161
    1UNL    H29   65   0.124  -0.220  -0.042
    1UNL    H30   66   0.113  -0.069   0.044
    1UNL    H31   67   0.026  -0.112  -0.241
   0.00000   0.00000   0.00000   0.00000   0.00000   0.00000   0.00000   0.00000   0.00000
Generated with MDTraj, t= 61.0
 67
    1UNL     C1    1  -0.167  -0.288   0.061
    1UNL     C2    2  -0.144  -0.210  -0.042
    1UNL     C3    3  -0.114  -0.059  -0.055
    1UNL     C4    4  -0.218   0.010  -0.142
    1UNL     O1    5  -0.352  -0.006  -0.103
    1UNL     C5    6  -0.436   0.098  -0.152
    1UNL     O2    7  -0.425   0.220  -0.078
    1UNL     C6    8  -0.446   0.202   0.068
    1UNL     C7    9  -0.318   0.220   0.153
    1UNL     O3   10  -0.350   0.254   0.292
    1UNL     C8   11  -0.532   0.081   0.097
    1UNL     O4   12  -0.585   0.077   0.226
    1UNL     C9   13  -0.649   0.060  -0.005
    1UNL     O5   14  -0.729   0.170   0.019
    1UNL    C10   15  -0.582   0.045  -0.150
    1UNL     O6   16  -0.587  -0.095  -0.188
    1UNL     O7   17  -0.186   0.153  -0.172
    1UNL    C11   18  -0.058   0.183  -0.193
    1UNL    C12   19   0.050   0.099  -0.163
    1UNL    C13   20   0.185   0.141  -0.202
    1UNL     O8   21   0.198   0.256  -0.247
    1UNL     N1   22   0.289   0.065  -0.157
    1UNL    C14   23   0.422   0.117  -0.171
    1UNL    C15   24   0.490   0.137  -0.035
    1UNL    C16   25   0.488   0.011   0.047
    1UNL    C17   26   0.599  -0.028   0.116
    1UNL    C18   27   0.608  -0.152   0.179
    1UNL     O9   28   0.716  -0.173   0.273
    1UNL    C19   29   0.741  -0.314   0.300
    1UNL    C20   30   0.501  -0.243   0.175
    1UNL    O10   31   0.491  -0.359   0.249
    1UNL    C21   32   0.391  -0.213   0.089
    1UNL    C22   33   0.388  -0.087   0.024
    1UNL    C23   34   0.273  -0.064  -0.081
    1UNL    C24   35   0.146  -0.057  -0.003
    1UNL    C25   36   0.034  -0.042  -0.109
    1UNL     H1   37  -0.185  -0.394   0.046
    1UNL     H2   38  -0.203  -0.250   0.156
    1UNL     H3   39  -0.141  -0.263  -0.141
    1UNL     H4   40  -0.123  -0.023   0.052
    1UNL     H5   41  -0.207  -0.047  -0.235
    1UNL     H6   42  -0.410   0.131  -0.255
    1UNL     H7   43  -0.508   0.287   0.098
    1UNL     H8   44  -0.256   0.303   0.119
    1UNL     H9   45  -0.257   0.128   0.151
    1UNL    H10   46  -0.443   0.218   0.302
    1UNL    H11   47  -0.468  -0.003   0.079
    1UNL    H12   48  -0.627  -0.008   0.241
    1UNL    H13   49  -0.710  -0.020   0.018
    1UNL    H14   50  -0.774   0.171   0.108
    1UNL    H15   51  -0.639   0.099  -0.226
    1UNL    H16   52  -0.523  -0.105  -0.260
    1UNL    H17   53  -0.042   0.276  -0.240
    1UNL    H18   54   0.405   0.217  -0.225
    1UNL    H19   55   0.476   0.060  -0.248
    1UNL    H20   56   0.595   0.176  -0.044
    1UNL    H21   57   0.432   0.218   0.013
    1UNL    H22   58   0.680   0.041   0.121
    1UNL    H23   59   0.716  -0.305   0.407
    1UNL    H24   60   0.848  -0.331   0.279
    1UNL    H25   61   0.673  -0.375   0.239
    1UNL    H26   62   0.397  -0.389   0.243
    1UNL    H27   63   0.311  -0.284   0.071
    1UNL    H28   64   0.274  -0.146  -0.142
    1UNL    H29   65   0.139  -0.150   0.057
    1UNL    H30   66   0.149   0.027   0.061
    1UNL    H31   67   0.051  -0.113  -0.190
   0.00000   0.00000   0.00000   0.00000   0.00000   0.00000   0.00000   0.00000   0.00000
Generated with MDTraj, t= 62.0
 67
    1UNL     C1    1  -0.149  -0.271   0.074
    1UNL     C2    2  -0.135  -0.201  -0.037
    1UNL     C3    3  -0.105  -0.050  -0.049
    1UNL     C4    4  -0.210   0.022  -0.127
    1UNL     O1    5  -0.350  -0.014  -0.102
    1UNL     C5    6  -0.443   0.082  -0.147
    1UNL     O2    7  -0.435   0.206  -0.076
    1UNL     C6    8  -0.463   0.207   0.070
    1UNL     C7    9  -0.328   0.216   0.147
    1UNL     O3   10  -0.337   0.208   0.289
    1UNL     C8   11  -0.546   0.079   0.100
    1UNL     O4   12  -0.587   0.077   0.232
    1UNL     C9   13  -0.667   0.056  -0.010
    1UNL     O5   14  -0.742   0.176  -0.011
    1UNL    C10   15  -0.587   0.030  -0.140
    1UNL     O6   16  -0.601  -0.104  -0.188
    1UNL     O7   17  -0.178   0.167  -0.145
    1UNL    C11   18  -0.048   0.201  -0.177
    1UNL    C12   19   0.057   0.118  -0.164
    1UNL    C13   20   0.193   0.149  -0.203
    1UNL     O8   21   0.212   0.255  -0.262
    1UNL     N1   22   0.298   0.074  -0.159
    1UNL    C14   23   0.442   0.113  -0.193
    1UNL    C15   24   0.513   0.120  -0.058
    1UNL    C16   25   0.504   0.002   0.031
    1UNL    C17   26   0.613  -0.043   0.104
    1UNL    C18   27   0.605  -0.158   0.183
    1UNL     O9   28   0.718  -0.182   0.268
    1UNL    C19   29   0.737  -0.327   0.296
    1UNL    C20   30   0.485  -0.238   0.181
    1UNL    O10   31   0.473  -0.351   0.256
    1UNL    C21   32   0.380  -0.191   0.107
    1UNL    C22   33   0.384  -0.073   0.033
    1UNL    C23   34   0.272  -0.054  -0.070
    1UNL    C24   35   0.132  -0.051  -0.003
    1UNL    C25   36   0.031  -0.024  -0.115
    1UNL     H1   37  -0.175  -0.375   0.077
    1UNL     H2   38  -0.132  -0.229   0.170
    1UNL     H3   39  -0.164  -0.246  -0.128
    1UNL     H4   40  -0.110   0.007   0.049
    1UNL     H5   41  -0.194  -0.010  -0.227
    1UNL     H6   42  -0.425   0.108  -0.256
    1UNL     H7   43  -0.520   0.295   0.094
    1UNL     H8   44  -0.271   0.306   0.117
    1UNL     H9   45  -0.273   0.127   0.111
    1UNL    H10   46  -0.414   0.150   0.305
    1UNL    H11   47  -0.484  -0.008   0.084
    1UNL    H12   48  -0.677   0.115   0.243
    1UNL    H13   49  -0.726  -0.025   0.018
    1UNL    H14   50  -0.814   0.174   0.050
    1UNL    H15   51  -0.649   0.083  -0.215
    1UNL    H16   52  -0.516  -0.138  -0.226
    1UNL    H17   53  -0.037   0.302  -0.230
    1UNL    H18   54   0.451   0.204  -0.259
    1UNL    H19   55   0.483   0.028  -0.248
    1UNL    H20   56   0.621   0.129  -0.090
    1UNL    H21   57   0.486   0.210  -0.002
    1UNL    H22   58   0.704   0.009   0.088
    1UNL    H23   59   0.635  -0.354   0.329
    1UNL    H24   60   0.802  -0.327   0.384
    1UNL    H25   61   0.767  -0.379   0.204
    1UNL    H26   62   0.374  -0.369   0.268
    1UNL    H27   63   0.311  -0.268   0.075
    1UNL    H28   64   0.284  -0.126  -0.142
    1UNL    H29   65   0.114  -0.149   0.047
    1UNL    H30   66   0.130   0.028   0.067
    1UNL    H31   67   0.041  -0.095  -0.197
   0.00000   0.00000   0.00000   0.00000   0.00000   0.00000   0.00000   0.00000   0.00000
Generated with MDTraj, t= 63.0
 67
    1UNL     C1    1  -0.145  -0.245   0.088
    1UNL     C2    2  -0.173  -0.176  -0.022
    1UNL     C3    3  -0.119  -0.042  -0.057
    1UNL     C4    4  -0.214   0.043  -0.143
    1UNL     O1    5  -0.343   0.028  -0.084
    1UNL     C5    6  -0.444   0.104  -0.150
    1UNL     O2    7  -0.466   0.225  -0.078
    1UNL     C6    8  -0.480   0.217   0.065
    1UNL     C7    9  -0.340   0.200   0.126
    1UNL     O3   10  -0.333   0.157   0.257
    1UNL     C8   11  -0.553   0.091   0.107
    1UNL     O4   12  -0.600   0.105   0.238
    1UNL     C9   13  -0.663   0.042  -0.003
    1UNL     O5   14  -0.766   0.139  -0.019
    1UNL    C10   15  -0.576   0.022  -0.141
    1UNL     O6   16  -0.554  -0.117  -0.182
    1UNL     O7   17  -0.181   0.187  -0.145
    1UNL    C11   18  -0.043   0.204  -0.162
    1UNL    C12   19   0.051   0.112  -0.158
    1UNL    C13   20   0.185   0.156  -0.189
    1UNL     O8   21   0.210   0.264  -0.249
    1UNL     N1   22   0.292   0.084  -0.131
    1UNL    C14   23   0.428   0.120  -0.182
    1UNL    C15   24   0.543   0.091  -0.085
    1UNL    C16   25   0.515  -0.016   0.016
    1UNL    C17   26   0.621  -0.045   0.106
    1UNL    C18   27   0.613  -0.161   0.184
    1UNL     O9   28   0.720  -0.182   0.267
    1UNL    C19   29   0.730  -0.319   0.296
    1UNL    C20   30   0.493  -0.239   0.187
    1UNL    O10   31   0.485  -0.330   0.290
    1UNL    C21   32   0.392  -0.214   0.092
    1UNL    C22   33   0.399  -0.095   0.013
    1UNL    C23   34   0.279  -0.063  -0.087
    1UNL    C24   35   0.139  -0.099  -0.031
    1UNL    C25   36   0.027  -0.034  -0.113
    1UNL     H1   37  -0.176  -0.345   0.110
    1UNL     H2   38  -0.072  -0.212   0.161
    1UNL     H3   39  -0.228  -0.224  -0.104
    1UNL     H4   40  -0.117   0.025   0.036
    1UNL     H5   41  -0.202   0.010  -0.242
    1UNL     H6   42  -0.397   0.148  -0.246
    1UNL     H7   43  -0.526   0.304   0.105
    1UNL     H8   44  -0.276   0.286   0.106
    1UNL     H9   45  -0.296   0.113   0.073
    1UNL    H10   46  -0.420   0.142   0.304
    1UNL    H11   47  -0.482   0.008   0.100
    1UNL    H12   48  -0.667   0.180   0.240
    1UNL    H13   49  -0.703  -0.051   0.026
    1UNL    H14   50  -0.834   0.132   0.050
    1UNL    H15   51  -0.645   0.061  -0.216
    1UNL    H16   52  -0.461  -0.134  -0.204
    1UNL    H17   53  -0.012   0.308  -0.184
    1UNL    H18   54   0.418   0.230  -0.195
    1UNL    H19   55   0.442   0.073  -0.279
    1UNL    H20   56   0.642   0.065  -0.137
    1UNL    H21   57   0.549   0.188  -0.030
    1UNL    H22   58   0.715   0.011   0.115
    1UNL    H23   59   0.671  -0.341   0.386
    1UNL    H24   60   0.837  -0.318   0.321
    1UNL    H25   61   0.691  -0.370   0.207
    1UNL    H26   62   0.388  -0.357   0.303
    1UNL    H27   63   0.317  -0.289   0.084
    1UNL    H28   64   0.287  -0.101  -0.182
    1UNL    H29   65   0.125  -0.208  -0.029
    1UNL    H30   66   0.130  -0.064   0.069
    1UNL    H31   67   0.022  -0.089  -0.207
   0.00000   0.00000   0.00000   0.00000   0.00000   0.00000   0.00000   0.00000   0.00000
Generated with MDTraj, t= 64.0
 67
    1UNL     C1    1  -0.133  -0.236   0.100
    1UNL     C2    2  -0.145  -0.182  -0.019
    1UNL     C3    3  -0.106  -0.041  -0.049
    1UNL     C4    4  -0.207   0.038  -0.126
    1UNL     O1    5  -0.341   0.021  -0.078
    1UNL     C5    6  -0.439   0.099  -0.144
    1UNL     O2    7  -0.462   0.220  -0.082
    1UNL     C6    8  -0.494   0.217   0.064
    1UNL     C7    9  -0.353   0.240   0.137
    1UNL     O3   10  -0.331   0.165   0.251
    1UNL     C8   11  -0.560   0.084   0.106
    1UNL     O4   12  -0.638   0.097   0.227
    1UNL     C9   13  -0.653   0.035  -0.012
    1UNL     O5   14  -0.767   0.115  -0.014
    1UNL    C10   15  -0.573   0.023  -0.143
    1UNL     O6   16  -0.550  -0.114  -0.180
    1UNL     O7   17  -0.172   0.179  -0.140
    1UNL    C11   18  -0.039   0.211  -0.150
    1UNL    C12   19   0.061   0.121  -0.151
    1UNL    C13   20   0.198   0.159  -0.172
    1UNL     O8   21   0.228   0.282  -0.183
    1UNL     N1   22   0.300   0.056  -0.174
    1UNL    C14   23   0.438   0.088  -0.226
    1UNL    C15   24   0.524   0.095  -0.098
    1UNL    C16   25   0.517  -0.021  -0.002
    1UNL    C17   26   0.624  -0.063   0.072
    1UNL    C18   27   0.611  -0.161   0.171
    1UNL     O9   28   0.718  -0.184   0.265
    1UNL    C19   29   0.712  -0.316   0.324
    1UNL    C20   30   0.486  -0.231   0.182
    1UNL    O10   31   0.461  -0.337   0.274
    1UNL    C21   32   0.380  -0.191   0.099
    1UNL    C22   33   0.394  -0.088   0.006
    1UNL    C23   34   0.283  -0.068  -0.090
    1UNL    C24   35   0.141  -0.075  -0.022
    1UNL    C25   36   0.033  -0.027  -0.119
    1UNL     H1   37  -0.167  -0.336   0.119
    1UNL     H2   38  -0.078  -0.184   0.177
    1UNL     H3   39  -0.167  -0.250  -0.102
    1UNL     H4   40  -0.097   0.015   0.050
    1UNL     H5   41  -0.197  -0.005  -0.223
    1UNL     H6   42  -0.405   0.113  -0.251
    1UNL     H7   43  -0.561   0.298   0.076
    1UNL     H8   44  -0.330   0.343   0.166
    1UNL     H9   45  -0.272   0.215   0.064
    1UNL    H10   46  -0.383   0.199   0.331
    1UNL    H11   47  -0.484   0.002   0.117
    1UNL    H12   48  -0.686   0.184   0.235
    1UNL    H13   49  -0.687  -0.062   0.017
    1UNL    H14   50  -0.825   0.095   0.067
    1UNL    H15   51  -0.642   0.062  -0.220
    1UNL    H16   52  -0.487  -0.112  -0.254
    1UNL    H17   53  -0.009   0.308  -0.162
    1UNL    H18   54   0.435   0.183  -0.281
    1UNL    H19   55   0.461   0.009  -0.295
    1UNL    H20   56   0.632   0.124  -0.125
    1UNL    H21   57   0.490   0.179  -0.035
    1UNL    H22   58   0.701   0.008   0.067
    1UNL    H23   59   0.625  -0.336   0.388
    1UNL    H24   60   0.804  -0.308   0.383
    1UNL    H25   61   0.712  -0.376   0.234
    1UNL    H26   62   0.368  -0.369   0.269
    1UNL    H27   63   0.284  -0.244   0.096
    1UNL    H28   64   0.279  -0.151  -0.150
    1UNL    H29   65   0.115  -0.171   0.019
    1UNL    H30   66   0.148  -0.012   0.065
    1UNL    H31   67   0.040  -0.079  -0.214
   0.00000   0.00000   0.00000   0.00000   0.00000   0.00000   0.00000   0.00000   0.00000
Generated with MDTraj, t= 65.0
 67
    1UNL     C1    1  -0.147  -0.246   0.094
    1UNL     C2    2  -0.156  -0.159  -0.008
    1UNL     C3    3  -0.101  -0.019  -0.025
    1UNL     C4    4  -0.201   0.059  -0.106
    1UNL     O1    5  -0.341   0.022  -0.076
    1UNL     C5    6  -0.433   0.098  -0.147
    1UNL     O2    7  -0.447   0.223  -0.085
    1UNL     C6    8  -0.469   0.203   0.055
    1UNL     C7    9  -0.339   0.224   0.134
    1UNL     O3   10  -0.369   0.232   0.275
    1UNL     C8   11  -0.548   0.071   0.089
    1UNL     O4   12  -0.616   0.079   0.214
    1UNL     C9   13  -0.650   0.024  -0.018
    1UNL     O5   14  -0.768   0.099  -0.018
    1UNL    C10   15  -0.576   0.019  -0.156
    1UNL     O6   16  -0.553  -0.116  -0.185
    1UNL     O7   17  -0.172   0.197  -0.121
    1UNL    C11   18  -0.039   0.219  -0.138
    1UNL    C12   19   0.066   0.128  -0.135
    1UNL    C13   20   0.202   0.161  -0.160
    1UNL     O8   21   0.230   0.276  -0.194
    1UNL     N1   22   0.296   0.057  -0.164
    1UNL    C14   23   0.423   0.085  -0.219
    1UNL    C15   24   0.523   0.091  -0.103
    1UNL    C16   25   0.501  -0.027  -0.004
    1UNL    C17   26   0.607  -0.059   0.081
    1UNL    C18   27   0.605  -0.166   0.168
    1UNL     O9   28   0.722  -0.179   0.242
    1UNL    C19   29   0.717  -0.274   0.355
    1UNL    C20   30   0.482  -0.243   0.173
    1UNL    O10   31   0.460  -0.349   0.263
    1UNL    C21   32   0.388  -0.218   0.072
    1UNL    C22   33   0.393  -0.112  -0.019
    1UNL    C23   34   0.276  -0.078  -0.105
    1UNL    C24   35   0.148  -0.082  -0.023
    1UNL    C25   36   0.027  -0.022  -0.101
    1UNL     H1   37  -0.183  -0.347   0.089
    1UNL     H2   38  -0.071  -0.231   0.167
    1UNL     H3   39  -0.204  -0.195  -0.095
    1UNL     H4   40  -0.100   0.033   0.076
    1UNL     H5   41  -0.200   0.011  -0.205
    1UNL     H6   42  -0.386   0.119  -0.246
    1UNL     H7   43  -0.529   0.285   0.078
    1UNL     H8   44  -0.295   0.320   0.108
    1UNL     H9   45  -0.253   0.157   0.119
    1UNL    H10   46  -0.435   0.166   0.295
    1UNL    H11   47  -0.473  -0.012   0.096
    1UNL    H12   48  -0.698   0.130   0.210
    1UNL    H13   49  -0.679  -0.077   0.007
    1UNL    H14   50  -0.835   0.080   0.058
    1UNL    H15   51  -0.644   0.058  -0.234
    1UNL    H16   52  -0.495  -0.148  -0.112
    1UNL    H17   53  -0.006   0.322  -0.163
    1UNL    H18   54   0.416   0.181  -0.268
    1UNL    H19   55   0.440   0.009  -0.294
    1UNL    H20   56   0.631   0.072  -0.136
    1UNL    H21   57   0.521   0.193  -0.056
    1UNL    H22   58   0.698   0.001   0.097
    1UNL    H23   59   0.655  -0.243   0.439
    1UNL    H24   60   0.823  -0.280   0.383
    1UNL    H25   61   0.685  -0.362   0.301
    1UNL    H26   62   0.379  -0.395   0.241
    1UNL    H27   63   0.309  -0.286   0.068
    1UNL    H28   64   0.265  -0.150  -0.176
    1UNL    H29   65   0.129  -0.176   0.023
    1UNL    H30   66   0.172  -0.022   0.065
    1UNL    H31   67   0.016  -0.070  -0.197
   0.00000   0.00000   0.00000   0.00000   0.00000   0.00000   0.00000   0.00000   0.00000
Generated with MDTraj, t= 66.0
 67
    1UNL     C1    1  -0.125  -0.249   0.095
    1UNL     C2    2  -0.159  -0.180  -0.014
    1UNL     C3    3  -0.110  -0.036  -0.038
    1UNL     C4    4  -0.209   0.058  -0.107
    1UNL     O1    5  -0.346   0.023  -0.076
    1UNL     C5    6  -0.438   0.102  -0.143
    1UNL     O2    7  -0.472   0.230  -0.080
    1UNL     C6    8  -0.482   0.210   0.061
    1UNL     C7    9  -0.362   0.256   0.138
    1UNL     O3   10  -0.393   0.286   0.274
    1UNL     C8   11  -0.539   0.064   0.090
    1UNL     O4   12  -0.595   0.069   0.218
    1UNL     C9   13  -0.646   0.024  -0.021
    1UNL     O5   14  -0.757   0.111  -0.037
    1UNL    C10   15  -0.571   0.018  -0.155
    1UNL     O6   16  -0.546  -0.109  -0.204
    1UNL     O7   17  -0.174   0.193  -0.080
    1UNL    C11   18  -0.043   0.203  -0.104
    1UNL    C12   19   0.049   0.110  -0.133
    1UNL    C13   20   0.180   0.147  -0.172
    1UNL     O8   21   0.206   0.256  -0.224
    1UNL     N1   22   0.288   0.059  -0.157
    1UNL    C14   23   0.422   0.095  -0.211
    1UNL    C15   24   0.530   0.090  -0.101
    1UNL    C16   25   0.522  -0.030  -0.010
    1UNL    C17   26   0.628  -0.059   0.079
    1UNL    C18   27   0.622  -0.170   0.165
    1UNL     O9   28   0.721  -0.188   0.254
    1UNL    C19   29   0.682  -0.261   0.377
    1UNL    C20   30   0.509  -0.249   0.157
    1UNL    O10   31   0.498  -0.363   0.230
    1UNL    C21   32   0.403  -0.213   0.075
    1UNL    C22   33   0.406  -0.105  -0.007
    1UNL    C23   34   0.284  -0.076  -0.094
    1UNL    C24   35   0.144  -0.093  -0.027
    1UNL    C25   36   0.022  -0.034  -0.100
    1UNL     H1   37  -0.148  -0.353   0.111
    1UNL     H2   38  -0.051  -0.206   0.161
    1UNL     H3   39  -0.217  -0.233  -0.095
    1UNL     H4   40  -0.103   0.003   0.068
    1UNL     H5   41  -0.210   0.028  -0.216
    1UNL     H6   42  -0.395   0.130  -0.238
    1UNL     H7   43  -0.553   0.278   0.092
    1UNL     H8   44  -0.310   0.343   0.098
    1UNL     H9   45  -0.281   0.180   0.135
    1UNL    H10   46  -0.466   0.218   0.295
    1UNL    H11   47  -0.460  -0.017   0.093
    1UNL    H12   48  -0.680   0.117   0.214
    1UNL    H13   49  -0.681  -0.075   0.000
    1UNL    H14   50  -0.776   0.162   0.047
    1UNL    H15   51  -0.636   0.074  -0.228
    1UNL    H16   52  -0.513  -0.103  -0.298
    1UNL    H17   53   0.002   0.308  -0.095
    1UNL    H18   54   0.414   0.195  -0.249
    1UNL    H19   55   0.457   0.033  -0.292
    1UNL    H20   56   0.631   0.106  -0.152
    1UNL    H21   57   0.522   0.175  -0.030
    1UNL    H22   58   0.712   0.004   0.094
    1UNL    H23   59   0.574  -0.246   0.393
    1UNL    H24   60   0.741  -0.217   0.459
    1UNL    H25   61   0.712  -0.362   0.351
    1UNL    H26   62   0.434  -0.425   0.196
    1UNL    H27   63   0.319  -0.281   0.056
    1UNL    H28   64   0.284  -0.138  -0.175
    1UNL    H29   65   0.131  -0.197  -0.022
    1UNL    H30   66   0.153  -0.063   0.078
    1UNL    H31   67   0.019  -0.085  -0.196
   0.00000   0.00000   0.00000   0.00000   0.00000   0.00000   0.00000   0.00000   0.00000
Generated with MDTraj, t= 67.0
 67
    1UNL     C1    1  -0.127  -0.282   0.074
    1UNL     C2    2  -0.147  -0.194  -0.023
    1UNL     C3    3  -0.101  -0.048  -0.023
    1UNL     C4    4  -0.204   0.037  -0.097
    1UNL     O1    5  -0.343   0.008  -0.069
    1UNL     C5    6  -0.428   0.089  -0.142
    1UNL     O2    7  -0.443   0.225  -0.093
    1UNL     C6    8  -0.497   0.229   0.046
    1UNL     C7    9  -0.399   0.294   0.143
    1UNL     O3   10  -0.409   0.270   0.281
    1UNL     C8   11  -0.542   0.087   0.097
    1UNL     O4   12  -0.617   0.107   0.222
    1UNL     C9   13  -0.640   0.032  -0.015
    1UNL     O5   14  -0.763   0.109  -0.019
    1UNL    C10   15  -0.570   0.025  -0.159
    1UNL     O6   16  -0.568  -0.110  -0.207
    1UNL     O7   17  -0.169   0.178  -0.086
    1UNL    C11   18  -0.039   0.199  -0.126
    1UNL    C12   19   0.057   0.110  -0.139
    1UNL    C13   20   0.197   0.144  -0.177
    1UNL     O8   21   0.218   0.258  -0.218
    1UNL     N1   22   0.298   0.048  -0.173
    1UNL    C14   23   0.433   0.104  -0.197
    1UNL    C15   24   0.516   0.107  -0.075
    1UNL    C16   25   0.514  -0.023  -0.008
    1UNL    C17   26   0.609  -0.052   0.088
    1UNL    C18   27   0.616  -0.168   0.163
    1UNL     O9   28   0.721  -0.188   0.250
    1UNL    C19   29   0.687  -0.238   0.379
    1UNL    C20   30   0.512  -0.263   0.145
    1UNL    O10   31   0.508  -0.384   0.214
    1UNL    C21   32   0.414  -0.228   0.059
    1UNL    C22   33   0.405  -0.113  -0.019
    1UNL    C23   34   0.281  -0.075  -0.096
    1UNL    C24   35   0.152  -0.071  -0.007
    1UNL    C25   36   0.033  -0.030  -0.089
    1UNL     H1   37  -0.158  -0.384   0.067
    1UNL     H2   38  -0.074  -0.246   0.161
    1UNL     H3   39  -0.190  -0.237  -0.106
    1UNL     H4   40  -0.094  -0.009   0.083
    1UNL     H5   41  -0.200   0.013  -0.210
    1UNL     H6   42  -0.395   0.087  -0.243
    1UNL     H7   43  -0.579   0.292   0.045
    1UNL     H8   44  -0.390   0.401   0.130
    1UNL     H9   45  -0.300   0.255   0.112
    1UNL    H10   46  -0.489   0.214   0.296
    1UNL    H11   47  -0.457   0.016   0.117
    1UNL    H12   48  -0.674   0.028   0.234
    1UNL    H13   49  -0.670  -0.067   0.012
    1UNL    H14   50  -0.773   0.163   0.061
    1UNL    H15   51  -0.638   0.080  -0.226
    1UNL    H16   52  -0.651  -0.159  -0.188
    1UNL    H17   53  -0.014   0.302  -0.128
    1UNL    H18   54   0.432   0.196  -0.253
    1UNL    H19   55   0.486   0.030  -0.256
    1UNL    H20   56   0.625   0.129  -0.100
    1UNL    H21   57   0.484   0.197  -0.017
    1UNL    H22   58   0.680   0.027   0.108
    1UNL    H23   59   0.587  -0.192   0.389
    1UNL    H24   60   0.751  -0.177   0.445
    1UNL    H25   61   0.713  -0.346   0.378
    1UNL    H26   62   0.463  -0.452   0.161
    1UNL    H27   63   0.337  -0.301   0.041
    1UNL    H28   64   0.262  -0.142  -0.170
    1UNL    H29   65   0.140  -0.165   0.037
    1UNL    H30   66   0.173   0.001   0.072
    1UNL    H31   67   0.040  -0.091  -0.179
   0.00000   0.00000   0.00000   0.00000   0.00000   0.00000   0.00000   0.00000   0.00000
Generated with MDTraj, t= 68.0
 67
    1UNL     C1    1  -0.127  -0.294   0.063
    1UNL     C2    2  -0.155  -0.202  -0.030
    1UNL     C3    3  -0.108  -0.058  -0.032
    1UNL     C4    4  -0.212   0.036  -0.099
    1UNL     O1    5  -0.348   0.014  -0.064
    1UNL     C5    6  -0.437   0.094  -0.139
    1UNL     O2    7  -0.440   0.228  -0.095
    1UNL     C6    8  -0.486   0.225   0.042
    1UNL     C7    9  -0.372   0.241   0.146
    1UNL     O3   10  -0.402   0.315   0.262
    1UNL     C8   11  -0.561   0.103   0.100
    1UNL     O4   12  -0.632   0.139   0.223
    1UNL     C9   13  -0.650   0.035  -0.005
    1UNL     O5   14  -0.784   0.077  -0.001
    1UNL    C10   15  -0.582   0.030  -0.151
    1UNL     O6   16  -0.555  -0.105  -0.196
    1UNL     O7   17  -0.175   0.177  -0.112
    1UNL    C11   18  -0.039   0.196  -0.137
    1UNL    C12   19   0.062   0.105  -0.138
    1UNL    C13   20   0.199   0.150  -0.163
    1UNL     O8   21   0.226   0.262  -0.207
    1UNL     N1   22   0.301   0.055  -0.164
    1UNL    C14   23   0.431   0.103  -0.194
    1UNL    C15   24   0.510   0.113  -0.058
    1UNL    C16   25   0.500  -0.013   0.016
    1UNL    C17   26   0.605  -0.044   0.101
    1UNL    C18   27   0.615  -0.163   0.170
    1UNL     O9   28   0.732  -0.191   0.253
    1UNL    C19   29   0.699  -0.250   0.376
    1UNL    C20   30   0.513  -0.258   0.148
    1UNL    O10   31   0.535  -0.387   0.194
    1UNL    C21   32   0.410  -0.227   0.056
    1UNL    C22   33   0.401  -0.100  -0.009
    1UNL    C23   34   0.291  -0.076  -0.099
    1UNL    C24   35   0.159  -0.099  -0.034
    1UNL    C25   36   0.031  -0.040  -0.103
    1UNL     H1   37  -0.142  -0.401   0.056
    1UNL     H2   38  -0.080  -0.266   0.156
    1UNL     H3   39  -0.220  -0.240  -0.115
    1UNL     H4   40  -0.096  -0.027   0.076
    1UNL     H5   41  -0.213   0.016  -0.212
    1UNL     H6   42  -0.393   0.120  -0.233
    1UNL     H7   43  -0.548   0.307   0.048
    1UNL     H8   44  -0.298   0.292   0.087
    1UNL     H9   45  -0.329   0.143   0.171
    1UNL    H10   46  -0.485   0.284   0.306
    1UNL    H11   47  -0.482   0.032   0.130
    1UNL    H12   48  -0.727   0.109   0.214
    1UNL    H13   49  -0.654  -0.068   0.022
    1UNL    H14   50  -0.787   0.172  -0.037
    1UNL    H15   51  -0.643   0.087  -0.221
    1UNL    H16   52  -0.606  -0.174  -0.149
    1UNL    H17   53  -0.019   0.296  -0.156
    1UNL    H18   54   0.419   0.197  -0.244
    1UNL    H19   55   0.484   0.040  -0.267
    1UNL    H20   56   0.611   0.154  -0.083
    1UNL    H21   57   0.463   0.194   0.004
    1UNL    H22   58   0.678   0.032   0.122
    1UNL    H23   59   0.603  -0.198   0.391
    1UNL    H24   60   0.776  -0.217   0.448
    1UNL    H25   61   0.696  -0.358   0.355
    1UNL    H26   62   0.479  -0.445   0.132
    1UNL    H27   63   0.339  -0.308   0.050
    1UNL    H28   64   0.297  -0.145  -0.174
    1UNL    H29   65   0.150  -0.204  -0.015
    1UNL    H30   66   0.168  -0.048   0.060
    1UNL    H31   67   0.019  -0.090  -0.199
   0.00000   0.00000   0.00000   0.00000   0.00000   0.00000   0.00000   0.00000   0.00000
Generated with MDTraj, t= 69.0
 67
    1UNL     C1    1  -0.117  -0.280   0.065
    1UNL     C2    2  -0.149  -0.204  -0.043
    1UNL     C3    3  -0.108  -0.060  -0.052
    1UNL     C4    4  -0.211   0.029  -0.127
    1UNL     O1    5  -0.339  -0.009  -0.082
    1UNL     C5    6  -0.441   0.075  -0.134
    1UNL     O2    7  -0.443   0.216  -0.104
    1UNL     C6    8  -0.493   0.241   0.036
    1UNL     C7    9  -0.375   0.300   0.117
    1UNL     O3   10  -0.378   0.277   0.256
    1UNL     C8   11  -0.553   0.112   0.106
    1UNL     O4   12  -0.630   0.153   0.221
    1UNL     C9   13  -0.647   0.036   0.010
    1UNL     O5   14  -0.768   0.107  -0.001
    1UNL    C10   15  -0.583   0.008  -0.126
    1UNL     O6   16  -0.576  -0.125  -0.180
    1UNL     O7   17  -0.177   0.166  -0.095
    1UNL    C11   18  -0.050   0.199  -0.132
    1UNL    C12   19   0.054   0.107  -0.151
    1UNL    C13   20   0.192   0.154  -0.163
    1UNL     O8   21   0.213   0.272  -0.189
    1UNL     N1   22   0.299   0.059  -0.161
    1UNL    C14   23   0.434   0.114  -0.174
    1UNL    C15   24   0.500   0.126  -0.037
    1UNL    C16   25   0.506  -0.011   0.021
    1UNL    C17   26   0.608  -0.042   0.107
    1UNL    C18   27   0.619  -0.164   0.168
    1UNL     O9   28   0.726  -0.184   0.259
    1UNL    C19   29   0.709  -0.279   0.366
    1UNL    C20   30   0.526  -0.264   0.141
    1UNL    O10   31   0.538  -0.386   0.206
    1UNL    C21   32   0.418  -0.230   0.058
    1UNL    C22   33   0.403  -0.108  -0.004
    1UNL    C23   34   0.287  -0.079  -0.095
    1UNL    C24   35   0.143  -0.102  -0.046
    1UNL    C25   36   0.026  -0.035  -0.124
    1UNL     H1   37  -0.160  -0.379   0.077
    1UNL     H2   38  -0.081  -0.243   0.160
    1UNL     H3   39  -0.227  -0.239  -0.101
    1UNL     H4   40  -0.098  -0.026   0.056
    1UNL     H5   41  -0.198   0.036  -0.237
    1UNL     H6   42  -0.428   0.073  -0.243
    1UNL     H7   43  -0.569   0.312   0.026
    1UNL     H8   44  -0.369   0.405   0.097
    1UNL     H9   45  -0.288   0.253   0.068
    1UNL    H10   46  -0.465   0.261   0.297
    1UNL    H11   47  -0.468   0.053   0.139
    1UNL    H12   48  -0.722   0.176   0.198
    1UNL    H13   49  -0.665  -0.062   0.049
    1UNL    H14   50  -0.848   0.061   0.045
    1UNL    H15   51  -0.658   0.051  -0.193
    1UNL    H16   52  -0.528  -0.128  -0.266
    1UNL    H17   53  -0.022   0.310  -0.131
    1UNL    H18   54   0.429   0.208  -0.230
    1UNL    H19   55   0.486   0.050  -0.249
    1UNL    H20   56   0.603   0.168  -0.042
    1UNL    H21   57   0.449   0.207   0.025
    1UNL    H22   58   0.671   0.042   0.126
    1UNL    H23   59   0.604  -0.301   0.348
    1UNL    H24   60   0.738  -0.235   0.464
    1UNL    H25   61   0.770  -0.362   0.332
    1UNL    H26   62   0.480  -0.453   0.157
    1UNL    H27   63   0.329  -0.293   0.060
    1UNL    H28   64   0.287  -0.142  -0.176
    1UNL    H29   65   0.120  -0.208  -0.063
    1UNL    H30   66   0.135  -0.079   0.057
    1UNL    H31   67   0.012  -0.088  -0.218
   0.00000   0.00000   0.00000   0.00000   0.00000   0.00000   0.00000   0.00000   0.00000
Generated with MDTraj, t= 70.0
 67
    1UNL     C1    1  -0.132  -0.293   0.057
    1UNL     C2    2  -0.150  -0.206  -0.047
    1UNL     C3    3  -0.109  -0.060  -0.035
    1UNL     C4    4  -0.212   0.030  -0.118
    1UNL     O1    5  -0.340  -0.006  -0.070
    1UNL     C5    6  -0.445   0.064  -0.140
    1UNL     O2    7  -0.462   0.204  -0.114
    1UNL     C6    8  -0.473   0.239   0.027
    1UNL     C7    9  -0.336   0.283   0.073
    1UNL     O3   10  -0.339   0.282   0.216
    1UNL     C8   11  -0.536   0.113   0.103
    1UNL     O4   12  -0.593   0.144   0.234
    1UNL     C9   13  -0.645   0.035   0.014
    1UNL     O5   14  -0.768   0.107   0.003
    1UNL    C10   15  -0.588  -0.004  -0.131
    1UNL     O6   16  -0.583  -0.141  -0.163
    1UNL     O7   17  -0.181   0.170  -0.112
    1UNL    C11   18  -0.052   0.191  -0.138
    1UNL    C12   19   0.057   0.106  -0.130
    1UNL    C13   20   0.189   0.163  -0.147
    1UNL     O8   21   0.209   0.279  -0.179
    1UNL     N1   22   0.295   0.073  -0.154
    1UNL    C14   23   0.426   0.128  -0.170
    1UNL    C15   24   0.501   0.133  -0.041
    1UNL    C16   25   0.498   0.001   0.035
    1UNL    C17   26   0.595  -0.031   0.130
    1UNL    C18   27   0.597  -0.162   0.179
    1UNL     O9   28   0.709  -0.186   0.258
    1UNL    C19   29   0.716  -0.302   0.338
    1UNL    C20   30   0.505  -0.260   0.137
    1UNL    O10   31   0.502  -0.380   0.194
    1UNL    C21   32   0.420  -0.230   0.034
    1UNL    C22   33   0.408  -0.099  -0.009
    1UNL    C23   34   0.281  -0.063  -0.093
    1UNL    C24   35   0.150  -0.082  -0.011
    1UNL    C25   36   0.031  -0.036  -0.096
    1UNL     H1   37  -0.160  -0.396   0.050
    1UNL     H2   38  -0.126  -0.259   0.159
    1UNL     H3   39  -0.206  -0.241  -0.138
    1UNL     H4   40  -0.117  -0.036   0.076
    1UNL     H5   41  -0.193   0.014  -0.223
    1UNL     H6   42  -0.412   0.075  -0.246
    1UNL     H7   43  -0.542   0.318   0.033
    1UNL     H8   44  -0.312   0.379   0.029
    1UNL     H9   45  -0.255   0.215   0.043
    1UNL    H10   46  -0.413   0.230   0.249
    1UNL    H11   47  -0.451   0.053   0.130
    1UNL    H12   48  -0.687   0.174   0.222
    1UNL    H13   49  -0.661  -0.057   0.070
    1UNL    H14   50  -0.788   0.149  -0.083
    1UNL    H15   51  -0.648   0.040  -0.210
    1UNL    H16   52  -0.586  -0.199  -0.082
    1UNL    H17   53  -0.027   0.299  -0.138
    1UNL    H18   54   0.415   0.224  -0.222
    1UNL    H19   55   0.486   0.065  -0.242
    1UNL    H20   56   0.604   0.165  -0.065
    1UNL    H21   57   0.470   0.215   0.032
    1UNL    H22   58   0.691   0.021   0.143
    1UNL    H23   59   0.632  -0.281   0.405
    1UNL    H24   60   0.821  -0.313   0.370
    1UNL    H25   61   0.681  -0.377   0.268
    1UNL    H26   62   0.430  -0.441   0.159
    1UNL    H27   63   0.363  -0.313   0.002
    1UNL    H28   64   0.282  -0.126  -0.174
    1UNL    H29   65   0.142  -0.186   0.019
    1UNL    H30   66   0.156  -0.019   0.072
    1UNL    H31   67   0.039  -0.091  -0.190
   0.00000   0.00000   0.00000   0.00000   0.00000   0.00000   0.00000   0.00000   0.00000
Generated with MDTraj, t= 71.0
 67
    1UNL     C1    1  -0.135  -0.261   0.063
    1UNL     C2    2  -0.136  -0.200  -0.055
    1UNL     C3    3  -0.109  -0.050  -0.054
    1UNL     C4    4  -0.214   0.028  -0.142
    1UNL     O1    5  -0.339  -0.012  -0.093
    1UNL     C5    6  -0.450   0.051  -0.152
    1UNL     O2    7  -0.443   0.188  -0.120
    1UNL     C6    8  -0.452   0.207   0.029
    1UNL     C7    9  -0.317   0.248   0.087
    1UNL     O3   10  -0.331   0.331   0.201
    1UNL     C8   11  -0.522   0.088   0.108
    1UNL     O4   12  -0.575   0.130   0.234
    1UNL     C9   13  -0.637   0.032   0.021
    1UNL     O5   14  -0.736   0.131   0.009
    1UNL    C10   15  -0.588  -0.019  -0.120
    1UNL     O6   16  -0.573  -0.155  -0.113
    1UNL     O7   17  -0.189   0.167  -0.147
    1UNL    C11   18  -0.061   0.201  -0.155
    1UNL    C12   19   0.044   0.121  -0.146
    1UNL    C13   20   0.178   0.177  -0.145
    1UNL     O8   21   0.192   0.293  -0.183
    1UNL     N1   22   0.284   0.088  -0.129
    1UNL    C14   23   0.418   0.144  -0.158
    1UNL    C15   24   0.502   0.137  -0.030
    1UNL    C16   25   0.495  -0.000   0.034
    1UNL    C17   26   0.605  -0.049   0.111
    1UNL    C18   27   0.603  -0.169   0.181
    1UNL     O9   28   0.697  -0.200   0.283
    1UNL    C19   29   0.720  -0.333   0.319
    1UNL    C20   30   0.498  -0.260   0.145
    1UNL    O10   31   0.496  -0.389   0.182
    1UNL    C21   32   0.386  -0.215   0.074
    1UNL    C22   33   0.391  -0.089   0.014
    1UNL    C23   34   0.275  -0.050  -0.082
    1UNL    C24   35   0.135  -0.076  -0.018
    1UNL    C25   36   0.027  -0.024  -0.112
    1UNL     H1   37  -0.170  -0.363   0.069
    1UNL     H2   38  -0.120  -0.193   0.147
    1UNL     H3   39  -0.179  -0.248  -0.138
    1UNL     H4   40  -0.130  -0.010   0.050
    1UNL     H5   41  -0.200   0.003  -0.244
    1UNL     H6   42  -0.432   0.047  -0.264
    1UNL     H7   43  -0.520   0.288   0.036
    1UNL     H8   44  -0.251   0.302   0.021
    1UNL     H9   45  -0.259   0.158   0.116
    1UNL    H10   46  -0.405   0.288   0.254
    1UNL    H11   47  -0.445   0.015   0.130
    1UNL    H12   48  -0.669   0.151   0.216
    1UNL    H13   49  -0.675  -0.060   0.066
    1UNL    H14   50  -0.776   0.133  -0.076
    1UNL    H15   51  -0.669   0.005  -0.190
    1UNL    H16   52  -0.661  -0.199  -0.131
    1UNL    H17   53  -0.055   0.303  -0.160
    1UNL    H18   54   0.409   0.250  -0.193
    1UNL    H19   55   0.471   0.086  -0.239
    1UNL    H20   56   0.608   0.164  -0.040
    1UNL    H21   57   0.461   0.218   0.040
    1UNL    H22   58   0.695   0.006   0.122
    1UNL    H23   59   0.627  -0.366   0.365
    1UNL    H24   60   0.813  -0.329   0.379
    1UNL    H25   61   0.737  -0.379   0.222
    1UNL    H26   62   0.421  -0.436   0.143
    1UNL    H27   63   0.293  -0.269   0.054
    1UNL    H28   64   0.294  -0.106  -0.167
    1UNL    H29   65   0.124  -0.184  -0.003
    1UNL    H30   66   0.131  -0.031   0.076
    1UNL    H31   67   0.037  -0.073  -0.210
   0.00000   0.00000   0.00000   0.00000   0.00000   0.00000   0.00000   0.00000   0.00000
Generated with MDTraj, t= 72.0
 67
    1UNL     C1    1  -0.136  -0.250   0.082
    1UNL     C2    2  -0.132  -0.195  -0.044
    1UNL     C3    3  -0.104  -0.052  -0.066
    1UNL     C4    4  -0.217   0.007  -0.158
    1UNL     O1    5  -0.348  -0.025  -0.102
    1UNL     C5    6  -0.461   0.046  -0.153
    1UNL     O2    7  -0.455   0.187  -0.127
    1UNL     C6    8  -0.471   0.215   0.017
    1UNL     C7    9  -0.344   0.280   0.074
    1UNL     O3   10  -0.342   0.302   0.215
    1UNL     C8   11  -0.512   0.098   0.104
    1UNL     O4   12  -0.541   0.125   0.237
    1UNL     C9   13  -0.636   0.045   0.035
    1UNL     O5   14  -0.741   0.134   0.024
    1UNL    C10   15  -0.595  -0.015  -0.106
    1UNL     O6   16  -0.581  -0.149  -0.087
    1UNL     O7   17  -0.192   0.148  -0.190
    1UNL    C11   18  -0.062   0.188  -0.191
    1UNL    C12   19   0.048   0.120  -0.157
    1UNL    C13   20   0.183   0.183  -0.153
    1UNL     O8   21   0.187   0.299  -0.192
    1UNL     N1   22   0.297   0.101  -0.130
    1UNL    C14   23   0.419   0.177  -0.125
    1UNL    C15   24   0.503   0.149   0.006
    1UNL    C16   25   0.501   0.004   0.050
    1UNL    C17   26   0.591  -0.044   0.146
    1UNL    C18   27   0.601  -0.176   0.186
    1UNL     O9   28   0.712  -0.225   0.266
    1UNL    C19   29   0.719  -0.365   0.295
    1UNL    C20   30   0.492  -0.259   0.143
    1UNL    O10   31   0.476  -0.380   0.209
    1UNL    C21   32   0.399  -0.214   0.054
    1UNL    C22   33   0.400  -0.084   0.008
    1UNL    C23   34   0.294  -0.044  -0.089
    1UNL    C24   35   0.150  -0.076  -0.027
    1UNL    C25   36   0.040  -0.032  -0.126
    1UNL     H1   37  -0.140  -0.356   0.101
    1UNL     H2   38  -0.156  -0.189   0.166
    1UNL     H3   39  -0.133  -0.255  -0.135
    1UNL     H4   40  -0.117  -0.008   0.037
    1UNL     H5   41  -0.200  -0.048  -0.247
    1UNL     H6   42  -0.450   0.035  -0.266
    1UNL     H7   43  -0.553   0.287   0.023
    1UNL     H8   44  -0.328   0.376   0.027
    1UNL     H9   45  -0.252   0.219   0.054
    1UNL    H10   46  -0.403   0.239   0.255
    1UNL    H11   47  -0.429   0.028   0.112
    1UNL    H12   48  -0.637   0.139   0.248
    1UNL    H13   49  -0.666  -0.041   0.096
    1UNL    H14   50  -0.795   0.118  -0.053
    1UNL    H15   51  -0.682   0.002  -0.172
    1UNL    H16   52  -0.568  -0.189  -0.175
    1UNL    H17   53  -0.059   0.293  -0.219
    1UNL    H18   54   0.393   0.286  -0.125
    1UNL    H19   55   0.481   0.156  -0.218
    1UNL    H20   56   0.606   0.181  -0.012
    1UNL    H21   57   0.471   0.212   0.096
    1UNL    H22   58   0.665   0.030   0.179
    1UNL    H23   59   0.639  -0.397   0.362
    1UNL    H24   60   0.822  -0.369   0.335
    1UNL    H25   61   0.716  -0.407   0.194
    1UNL    H26   62   0.401  -0.435   0.186
    1UNL    H27   63   0.304  -0.259   0.041
    1UNL    H28   64   0.304  -0.110  -0.168
    1UNL    H29   65   0.139  -0.182  -0.007
    1UNL    H30   66   0.142  -0.030   0.068
    1UNL    H31   67   0.049  -0.093  -0.218
   0.00000   0.00000   0.00000   0.00000   0.00000   0.00000   0.00000   0.00000   0.00000
Generated with MDTraj, t= 73.0
 67
    1UNL     C1    1  -0.156  -0.247   0.092
    1UNL     C2    2  -0.135  -0.203  -0.031
    1UNL     C3    3  -0.113  -0.060  -0.056
    1UNL     C4    4  -0.221  -0.000  -0.155
    1UNL     O1    5  -0.337   0.001  -0.075
    1UNL     C5    6  -0.441   0.069  -0.146
    1UNL     O2    7  -0.473   0.206  -0.114
    1UNL     C6    8  -0.467   0.227   0.026
    1UNL     C7    9  -0.319   0.270   0.051
    1UNL     O3   10  -0.302   0.303   0.185
    1UNL     C8   11  -0.501   0.109   0.118
    1UNL     O4   12  -0.542   0.160   0.241
    1UNL     C9   13  -0.614   0.022   0.040
    1UNL     O5   14  -0.737   0.092   0.035
    1UNL    C10   15  -0.570  -0.019  -0.115
    1UNL     O6   16  -0.566  -0.159  -0.140
    1UNL     O7   17  -0.190   0.132  -0.204
    1UNL    C11   18  -0.064   0.178  -0.204
    1UNL    C12   19   0.044   0.109  -0.163
    1UNL    C13   20   0.173   0.178  -0.160
    1UNL     O8   21   0.188   0.292  -0.200
    1UNL     N1   22   0.287   0.110  -0.113
    1UNL    C14   23   0.410   0.183  -0.105
    1UNL    C15   24   0.489   0.159   0.027
    1UNL    C16   25   0.480   0.010   0.062
    1UNL    C17   26   0.577  -0.044   0.145
    1UNL    C18   27   0.583  -0.177   0.194
    1UNL     O9   28   0.705  -0.212   0.258
    1UNL    C19   29   0.730  -0.361   0.277
    1UNL    C20   30   0.481  -0.266   0.143
    1UNL    O10   31   0.482  -0.395   0.186
    1UNL    C21   32   0.388  -0.211   0.052
    1UNL    C22   33   0.385  -0.074   0.013
    1UNL    C23   34   0.282  -0.036  -0.083
    1UNL    C24   35   0.144  -0.083  -0.023
    1UNL    C25   36   0.031  -0.034  -0.115
    1UNL     H1   37  -0.189  -0.350   0.104
    1UNL     H2   38  -0.150  -0.178   0.177
    1UNL     H3   39  -0.139  -0.275  -0.115
    1UNL     H4   40  -0.134  -0.004   0.039
    1UNL     H5   41  -0.234  -0.064  -0.240
    1UNL     H6   42  -0.410   0.069  -0.255
    1UNL     H7   43  -0.537   0.308   0.050
    1UNL     H8   44  -0.296   0.352  -0.018
    1UNL     H9   45  -0.255   0.183   0.020
    1UNL    H10   46  -0.373   0.262   0.241
    1UNL    H11   47  -0.414   0.051   0.148
    1UNL    H12   48  -0.637   0.186   0.237
    1UNL    H13   49  -0.621  -0.071   0.099
    1UNL    H14   50  -0.813   0.028   0.021
    1UNL    H15   51  -0.653   0.012  -0.184
    1UNL    H16   52  -0.473  -0.184  -0.123
    1UNL    H17   53  -0.049   0.292  -0.216
    1UNL    H18   54   0.386   0.292  -0.107
    1UNL    H19   55   0.472   0.158  -0.196
    1UNL    H20   56   0.596   0.186   0.026
    1UNL    H21   57   0.443   0.215   0.114
    1UNL    H22   58   0.664   0.003   0.182
    1UNL    H23   59   0.658  -0.410   0.342
    1UNL    H24   60   0.834  -0.361   0.315
    1UNL    H25   61   0.730  -0.401   0.176
    1UNL    H26   62   0.400  -0.439   0.159
    1UNL    H27   63   0.316  -0.284   0.013
    1UNL    H28   64   0.295  -0.094  -0.168
    1UNL    H29   65   0.137  -0.189  -0.005
    1UNL    H30   66   0.136  -0.033   0.071
    1UNL    H31   67   0.046  -0.093  -0.208
   0.00000   0.00000   0.00000   0.00000   0.00000   0.00000   0.00000   0.00000   0.00000
Generated with MDTraj, t= 74.0
 67
    1UNL     C1    1  -0.189  -0.232   0.090
    1UNL     C2    2  -0.149  -0.190  -0.029
    1UNL     C3    3  -0.117  -0.053  -0.063
    1UNL     C4    4  -0.225   0.009  -0.161
    1UNL     O1    5  -0.348  -0.018  -0.094
    1UNL     C5    6  -0.453   0.053  -0.158
    1UNL     O2    7  -0.464   0.199  -0.136
    1UNL     C6    8  -0.454   0.237   0.008
    1UNL     C7    9  -0.306   0.276   0.047
    1UNL     O3   10  -0.297   0.285   0.188
    1UNL     C8   11  -0.498   0.126   0.109
    1UNL     O4   12  -0.547   0.185   0.225
    1UNL     C9   13  -0.601   0.019   0.047
    1UNL     O5   14  -0.734   0.057   0.079
    1UNL    C10   15  -0.577  -0.009  -0.104
    1UNL     O6   16  -0.581  -0.148  -0.126
    1UNL     O7   17  -0.193   0.140  -0.204
    1UNL    C11   18  -0.063   0.181  -0.217
    1UNL    C12   19   0.048   0.110  -0.168
    1UNL    C13   20   0.172   0.180  -0.154
    1UNL     O8   21   0.199   0.291  -0.191
    1UNL     N1   22   0.280   0.105  -0.113
    1UNL    C14   23   0.415   0.165  -0.104
    1UNL    C15   24   0.460   0.155   0.037
    1UNL    C16   25   0.485   0.005   0.074
    1UNL    C17   26   0.582  -0.042   0.158
    1UNL    C18   27   0.596  -0.175   0.183
    1UNL     O9   28   0.685  -0.215   0.281
    1UNL    C19   29   0.743  -0.352   0.285
    1UNL    C20   30   0.507  -0.267   0.125
    1UNL    O10   31   0.523  -0.404   0.149
    1UNL    C21   32   0.399  -0.217   0.054
    1UNL    C22   33   0.379  -0.082   0.033
    1UNL    C23   34   0.271  -0.039  -0.068
    1UNL    C24   35   0.135  -0.065  -0.007
    1UNL    C25   36   0.030  -0.032  -0.119
    1UNL     H1   37  -0.214  -0.334   0.103
    1UNL     H2   38  -0.179  -0.167   0.174
    1UNL     H3   39  -0.157  -0.263  -0.104
    1UNL     H4   40  -0.123   0.017   0.024
    1UNL     H5   41  -0.237  -0.049  -0.253
    1UNL     H6   42  -0.441   0.026  -0.266
    1UNL     H7   43  -0.517   0.327   0.021
    1UNL     H8   44  -0.274   0.366  -0.006
    1UNL     H9   45  -0.246   0.190   0.010
    1UNL    H10   46  -0.383   0.265   0.229
    1UNL    H11   47  -0.411   0.068   0.144
    1UNL    H12   48  -0.631   0.139   0.250
    1UNL    H13   49  -0.575  -0.078   0.096
    1UNL    H14   50  -0.801  -0.017   0.054
    1UNL    H15   51  -0.664   0.044  -0.154
    1UNL    H16   52  -0.603  -0.173  -0.221
    1UNL    H17   53  -0.042   0.273  -0.266
    1UNL    H18   54   0.418   0.271  -0.136
    1UNL    H19   55   0.487   0.108  -0.171
    1UNL    H20   56   0.552   0.213   0.057
    1UNL    H21   57   0.383   0.195   0.108
    1UNL    H22   58   0.663   0.030   0.176
    1UNL    H23   59   0.669  -0.426   0.312
    1UNL    H24   60   0.825  -0.336   0.358
    1UNL    H25   61   0.783  -0.376   0.186
    1UNL    H26   62   0.447  -0.453   0.106
    1UNL    H27   63   0.326  -0.284   0.016
    1UNL    H28   64   0.278  -0.087  -0.159
    1UNL    H29   65   0.126  -0.167   0.021
    1UNL    H30   66   0.120  -0.003   0.081
    1UNL    H31   67   0.059  -0.094  -0.207
   0.00000   0.00000   0.00000   0.00000   0.00000   0.00000   0.00000   0.00000   0.00000
Generated with MDTraj, t= 75.0
 67
    1UNL     C1    1  -0.228  -0.223   0.077
    1UNL     C2    2  -0.130  -0.196  -0.012
    1UNL     C3    3  -0.108  -0.056  -0.048
    1UNL     C4    4  -0.223   0.001  -0.138
    1UNL     O1    5  -0.358  -0.024  -0.091
    1UNL     C5    6  -0.464   0.046  -0.162
    1UNL     O2    7  -0.458   0.189  -0.150
    1UNL     C6    8  -0.464   0.234  -0.011
    1UNL     C7    9  -0.323   0.294   0.023
    1UNL     O3   10  -0.287   0.309   0.162
    1UNL     C8   11  -0.501   0.125   0.096
    1UNL     O4   12  -0.522   0.159   0.234
    1UNL     C9   13  -0.606   0.016   0.052
    1UNL     O5   14  -0.738   0.056   0.095
    1UNL    C10   15  -0.607   0.008  -0.107
    1UNL     O6   16  -0.652  -0.120  -0.146
    1UNL     O7   17  -0.193   0.139  -0.171
    1UNL    C11   18  -0.064   0.184  -0.196
    1UNL    C12   19   0.047   0.114  -0.156
    1UNL    C13   20   0.176   0.177  -0.160
    1UNL     O8   21   0.207   0.288  -0.193
    1UNL     N1   22   0.290   0.101  -0.119
    1UNL    C14   23   0.426   0.169  -0.095
    1UNL    C15   24   0.457   0.151   0.052
    1UNL    C16   25   0.459   0.006   0.087
    1UNL    C17   26   0.552  -0.038   0.186
    1UNL    C18   27   0.594  -0.174   0.194
    1UNL     O9   28   0.698  -0.207   0.284
    1UNL    C19   29   0.754  -0.345   0.285
    1UNL    C20   30   0.535  -0.271   0.113
    1UNL    O10   31   0.546  -0.407   0.144
    1UNL    C21   32   0.427  -0.225   0.033
    1UNL    C22   33   0.393  -0.088   0.008
    1UNL    C23   34   0.285  -0.044  -0.088
    1UNL    C24   35   0.153  -0.076  -0.021
    1UNL    C25   36   0.033  -0.033  -0.116
    1UNL     H1   37  -0.260  -0.322   0.110
    1UNL     H2   38  -0.272  -0.148   0.142
    1UNL     H3   39  -0.067  -0.272  -0.066
    1UNL     H4   40  -0.101  -0.003   0.050
    1UNL     H5   41  -0.224  -0.064  -0.229
    1UNL     H6   42  -0.452   0.019  -0.267
    1UNL     H7   43  -0.539   0.317  -0.011
    1UNL     H8   44  -0.300   0.389  -0.028
    1UNL     H9   45  -0.241   0.228  -0.013
    1UNL    H10   46  -0.357   0.266   0.216
    1UNL    H11   47  -0.406   0.066   0.111
    1UNL    H12   48  -0.610   0.124   0.255
    1UNL    H13   49  -0.577  -0.083   0.098
    1UNL    H14   50  -0.807  -0.002   0.050
    1UNL    H15   51  -0.688   0.080  -0.143
    1UNL    H16   52  -0.608  -0.190  -0.090
    1UNL    H17   53  -0.058   0.280  -0.232
    1UNL    H18   54   0.429   0.275  -0.124
    1UNL    H19   55   0.510   0.118  -0.150
    1UNL    H20   56   0.560   0.188   0.080
    1UNL    H21   57   0.379   0.206   0.109
    1UNL    H22   58   0.602   0.041   0.234
    1UNL    H23   59   0.689  -0.406   0.346
    1UNL    H24   60   0.850  -0.323   0.337
    1UNL    H25   61   0.753  -0.391   0.186
    1UNL    H26   62   0.495  -0.459   0.073
    1UNL    H27   63   0.381  -0.307  -0.022
    1UNL    H28   64   0.298  -0.089  -0.180
    1UNL    H29   65   0.146  -0.181  -0.007
    1UNL    H30   66   0.132  -0.034   0.078
    1UNL    H31   67   0.041  -0.098  -0.206
   0.00000   0.00000   0.00000   0.00000   0.00000   0.00000   0.00000   0.00000   0.00000
Generated with MDTraj, t= 76.0
 67
    1UNL     C1    1  -0.266  -0.226   0.059
    1UNL     C2    2  -0.154  -0.204  -0.012
    1UNL     C3    3  -0.114  -0.068  -0.045
    1UNL     C4    4  -0.218  -0.015  -0.144
    1UNL     O1    5  -0.351  -0.034  -0.100
    1UNL     C5    6  -0.447   0.051  -0.160
    1UNL     O2    7  -0.434   0.195  -0.129
    1UNL     C6    8  -0.443   0.232   0.010
    1UNL     C7    9  -0.318   0.312   0.041
    1UNL     O3   10  -0.339   0.380   0.161
    1UNL     C8   11  -0.470   0.112   0.100
    1UNL     O4   12  -0.504   0.144   0.234
    1UNL     C9   13  -0.582   0.030   0.037
    1UNL     O5   14  -0.700   0.089   0.085
    1UNL    C10   15  -0.589   0.003  -0.118
    1UNL     O6   16  -0.616  -0.133  -0.155
    1UNL     O7   17  -0.196   0.129  -0.156
    1UNL    C11   18  -0.068   0.172  -0.185
    1UNL    C12   19   0.035   0.094  -0.154
    1UNL    C13   20   0.163   0.162  -0.158
    1UNL     O8   21   0.175   0.279  -0.184
    1UNL     N1   22   0.279   0.095  -0.118
    1UNL    C14   23   0.391   0.179  -0.082
    1UNL    C15   24   0.446   0.144   0.063
    1UNL    C16   25   0.464   0.002   0.078
    1UNL    C17   26   0.565  -0.041   0.159
    1UNL    C18   27   0.586  -0.172   0.192
    1UNL     O9   28   0.682  -0.200   0.295
    1UNL    C19   29   0.767  -0.315   0.286
    1UNL    C20   30   0.516  -0.272   0.115
    1UNL    O10   31   0.567  -0.408   0.124
    1UNL    C21   32   0.427  -0.228   0.012
    1UNL    C22   33   0.390  -0.091   0.010
    1UNL    C23   34   0.278  -0.047  -0.078
    1UNL    C24   35   0.146  -0.098  -0.015
    1UNL    C25   36   0.030  -0.055  -0.111
    1UNL     H1   37  -0.289  -0.326   0.087
    1UNL     H2   38  -0.339  -0.154   0.085
    1UNL     H3   39  -0.079  -0.274  -0.022
    1UNL     H4   40  -0.120  -0.002   0.046
    1UNL     H5   41  -0.220  -0.064  -0.247
    1UNL     H6   42  -0.437   0.045  -0.267
    1UNL     H7   43  -0.537   0.296   0.014
    1UNL     H8   44  -0.293   0.391  -0.031
    1UNL     H9   45  -0.223   0.256   0.049
    1UNL    H10   46  -0.402   0.322   0.215
    1UNL    H11   47  -0.381   0.046   0.115
    1UNL    H12   48  -0.603   0.153   0.243
    1UNL    H13   49  -0.574  -0.074   0.079
    1UNL    H14   50  -0.774   0.049   0.038
    1UNL    H15   51  -0.664   0.066  -0.172
    1UNL    H16   52  -0.569  -0.148  -0.239
    1UNL    H17   53  -0.060   0.280  -0.220
    1UNL    H18   54   0.364   0.284  -0.091
    1UNL    H19   55   0.470   0.158  -0.156
    1UNL    H20   56   0.542   0.202   0.083
    1UNL    H21   57   0.366   0.171   0.134
    1UNL    H22   58   0.639   0.035   0.188
    1UNL    H23   59   0.726  -0.385   0.358
    1UNL    H24   60   0.863  -0.275   0.325
    1UNL    H25   61   0.762  -0.364   0.189
    1UNL    H26   62   0.502  -0.458   0.067
    1UNL    H27   63   0.381  -0.308  -0.044
    1UNL    H28   64   0.291  -0.088  -0.173
    1UNL    H29   65   0.141  -0.202   0.007
    1UNL    H30   66   0.122  -0.052   0.082
    1UNL    H31   67   0.034  -0.116  -0.205
   0.00000   0.00000   0.00000   0.00000   0.00000   0.00000   0.00000   0.00000   0.00000
Generated with MDTraj, t= 77.0
 67
    1UNL     C1    1  -0.230  -0.263   0.028
    1UNL     C2    2  -0.134  -0.220  -0.048
    1UNL     C3    3  -0.117  -0.078  -0.061
    1UNL     C4    4  -0.224  -0.016  -0.152
    1UNL     O1    5  -0.352  -0.031  -0.098
    1UNL     C5    6  -0.454   0.049  -0.156
    1UNL     O2    7  -0.446   0.198  -0.143
    1UNL     C6    8  -0.463   0.244  -0.000
    1UNL     C7    9  -0.354   0.335   0.046
    1UNL     O3   10  -0.379   0.386   0.176
    1UNL     C8   11  -0.472   0.122   0.096
    1UNL     O4   12  -0.492   0.144   0.232
    1UNL     C9   13  -0.592   0.038   0.050
    1UNL     O5   14  -0.715   0.116   0.086
    1UNL    C10   15  -0.591  -0.001  -0.101
    1UNL     O6   16  -0.617  -0.136  -0.126
    1UNL     O7   17  -0.192   0.120  -0.198
    1UNL    C11   18  -0.063   0.171  -0.182
    1UNL    C12   19   0.040   0.097  -0.141
    1UNL    C13   20   0.177   0.160  -0.154
    1UNL     O8   21   0.192   0.277  -0.180
    1UNL     N1   22   0.293   0.087  -0.132
    1UNL    C14   23   0.419   0.154  -0.094
    1UNL    C15   24   0.442   0.150   0.060
    1UNL    C16   25   0.464   0.008   0.098
    1UNL    C17   26   0.567  -0.029   0.183
    1UNL    C18   27   0.596  -0.167   0.197
    1UNL     O9   28   0.699  -0.208   0.287
    1UNL    C19   29   0.771  -0.328   0.257
    1UNL    C20   30   0.531  -0.264   0.114
    1UNL    O10   31   0.550  -0.402   0.121
    1UNL    C21   32   0.421  -0.220   0.043
    1UNL    C22   33   0.388  -0.090   0.031
    1UNL    C23   34   0.281  -0.054  -0.066
    1UNL    C24   35   0.138  -0.098  -0.006
    1UNL    C25   36   0.030  -0.050  -0.106
    1UNL     H1   37  -0.247  -0.370   0.032
    1UNL     H2   38  -0.297  -0.195   0.079
    1UNL     H3   39  -0.070  -0.290  -0.110
    1UNL     H4   40  -0.121  -0.029   0.040
    1UNL     H5   41  -0.232  -0.069  -0.255
    1UNL     H6   42  -0.455   0.025  -0.260
    1UNL     H7   43  -0.563   0.301  -0.014
    1UNL     H8   44  -0.343   0.422  -0.021
    1UNL     H9   45  -0.253   0.287   0.040
    1UNL    H10   46  -0.372   0.315   0.240
    1UNL    H11   47  -0.375   0.066   0.087
    1UNL    H12   48  -0.586   0.171   0.247
    1UNL    H13   49  -0.607  -0.056   0.112
    1UNL    H14   50  -0.791   0.076   0.051
    1UNL    H15   51  -0.675   0.053  -0.146
    1UNL    H16   52  -0.566  -0.185  -0.060
    1UNL    H17   53  -0.043   0.269  -0.233
    1UNL    H18   54   0.403   0.257  -0.125
    1UNL    H19   55   0.502   0.114  -0.153
    1UNL    H20   56   0.535   0.211   0.085
    1UNL    H21   57   0.357   0.197   0.110
    1UNL    H22   58   0.602   0.050   0.247
    1UNL    H23   59   0.697  -0.408   0.260
    1UNL    H24   60   0.841  -0.338   0.343
    1UNL    H25   61   0.808  -0.334   0.154
    1UNL    H26   62   0.510  -0.443   0.041
    1UNL    H27   63   0.348  -0.291   0.010
    1UNL    H28   64   0.296  -0.115  -0.150
    1UNL    H29   65   0.126  -0.201   0.019
    1UNL    H30   66   0.130  -0.051   0.094
    1UNL    H31   67   0.056  -0.100  -0.203
   0.00000   0.00000   0.00000   0.00000   0.00000   0.00000   0.00000   0.00000   0.00000
Generated with MDTraj, t= 78.0
 67
    1UNL     C1    1  -0.202  -0.283  -0.009
    1UNL     C2    2  -0.130  -0.218  -0.098
    1UNL     C3    3  -0.109  -0.071  -0.082
    1UNL     C4    4  -0.225  -0.002  -0.159
    1UNL     O1    5  -0.351  -0.018  -0.083
    1UNL     C5    6  -0.456   0.047  -0.144
    1UNL     O2    7  -0.470   0.194  -0.137
    1UNL     C6    8  -0.478   0.243  -0.001
    1UNL     C7    9  -0.356   0.334   0.036
    1UNL     O3   10  -0.359   0.407   0.161
    1UNL     C8   11  -0.495   0.132   0.109
    1UNL     O4   12  -0.520   0.182   0.235
    1UNL     C9   13  -0.608   0.036   0.067
    1UNL     O5   14  -0.742   0.085   0.083
    1UNL    C10   15  -0.590  -0.008  -0.083
    1UNL     O6   16  -0.612  -0.148  -0.101
    1UNL     O7   17  -0.192   0.136  -0.190
    1UNL    C11   18  -0.061   0.172  -0.210
    1UNL    C12   19   0.043   0.097  -0.165
    1UNL    C13   20   0.169   0.165  -0.152
    1UNL     O8   21   0.178   0.283  -0.176
    1UNL     N1   22   0.282   0.095  -0.105
    1UNL    C14   23   0.403   0.175  -0.074
    1UNL    C15   24   0.466   0.146   0.058
    1UNL    C16   25   0.475  -0.004   0.091
    1UNL    C17   26   0.576  -0.046   0.183
    1UNL    C18   27   0.614  -0.182   0.192
    1UNL     O9   28   0.731  -0.206   0.269
    1UNL    C19   29   0.787  -0.335   0.264
    1UNL    C20   30   0.528  -0.276   0.136
    1UNL    O10   31   0.537  -0.415   0.165
    1UNL    C21   32   0.423  -0.238   0.051
    1UNL    C22   33   0.395  -0.101   0.031
    1UNL    C23   34   0.289  -0.060  -0.071
    1UNL    C24   35   0.145  -0.081  -0.018
    1UNL    C25   36   0.037  -0.045  -0.130
    1UNL     H1   37  -0.227  -0.385  -0.025
    1UNL     H2   38  -0.237  -0.229   0.077
    1UNL     H3   39  -0.120  -0.253  -0.196
    1UNL     H4   40  -0.114  -0.060   0.029
    1UNL     H5   41  -0.240  -0.048  -0.263
    1UNL     H6   42  -0.448   0.032  -0.249
    1UNL     H7   43  -0.569   0.315   0.006
    1UNL     H8   44  -0.322   0.401  -0.044
    1UNL     H9   45  -0.272   0.259   0.045
    1UNL    H10   46  -0.393   0.353   0.239
    1UNL    H11   47  -0.399   0.076   0.122
    1UNL    H12   48  -0.609   0.221   0.238
    1UNL    H13   49  -0.600  -0.058   0.132
    1UNL    H14   50  -0.805   0.018   0.060
    1UNL    H15   51  -0.667   0.033  -0.147
    1UNL    H16   52  -0.569  -0.185  -0.181
    1UNL    H17   53  -0.034   0.267  -0.238
    1UNL    H18   54   0.370   0.277  -0.075
    1UNL    H19   55   0.474   0.168  -0.155
    1UNL    H20   56   0.572   0.189   0.056
    1UNL    H21   57   0.421   0.195   0.144
    1UNL    H22   58   0.654   0.017   0.225
    1UNL    H23   59   0.720  -0.399   0.322
    1UNL    H24   60   0.888  -0.336   0.311
    1UNL    H25   61   0.774  -0.374   0.163
    1UNL    H26   62   0.496  -0.474   0.103
    1UNL    H27   63   0.351  -0.316   0.025
    1UNL    H28   64   0.300  -0.116  -0.158
    1UNL    H29   65   0.140  -0.175   0.035
    1UNL    H30   66   0.133  -0.015   0.069
    1UNL    H31   67   0.061  -0.100  -0.224
   0.00000   0.00000   0.00000   0.00000   0.00000   0.00000   0.00000   0.00000   0.00000
Generated with MDTraj, t= 79.0
 67
    1UNL     C1    1  -0.211  -0.297  -0.032
    1UNL     C2    2  -0.129  -0.229  -0.110
    1UNL     C3    3  -0.101  -0.083  -0.081
    1UNL     C4    4  -0.212   0.002  -0.143
    1UNL     O1    5  -0.334  -0.020  -0.069
    1UNL     C5    6  -0.442   0.037  -0.137
    1UNL     O2    7  -0.462   0.184  -0.136
    1UNL     C6    8  -0.473   0.247  -0.005
    1UNL     C7    9  -0.340   0.319   0.017
    1UNL     O3   10  -0.340   0.381   0.140
    1UNL     C8   11  -0.504   0.151   0.110
    1UNL     O4   12  -0.562   0.236   0.204
    1UNL     C9   13  -0.595   0.028   0.066
    1UNL     O5   14  -0.729   0.052   0.098
    1UNL    C10   15  -0.578  -0.020  -0.085
    1UNL     O6   16  -0.584  -0.162  -0.089
    1UNL     O7   17  -0.192   0.144  -0.166
    1UNL    C11   18  -0.071   0.190  -0.149
    1UNL    C12   19   0.043   0.108  -0.132
    1UNL    C13   20   0.171   0.171  -0.137
    1UNL     O8   21   0.191   0.283  -0.178
    1UNL     N1   22   0.280   0.096  -0.097
    1UNL    C14   23   0.407   0.180  -0.084
    1UNL    C15   24   0.467   0.161   0.054
    1UNL    C16   25   0.484   0.007   0.081
    1UNL    C17   26   0.599  -0.045   0.142
    1UNL    C18   27   0.604  -0.173   0.193
    1UNL     O9   28   0.720  -0.216   0.254
    1UNL    C19   29   0.743  -0.358   0.256
    1UNL    C20   30   0.502  -0.267   0.138
    1UNL    O10   31   0.509  -0.398   0.166
    1UNL    C21   32   0.400  -0.221   0.062
    1UNL    C22   33   0.388  -0.086   0.035
    1UNL    C23   34   0.287  -0.046  -0.072
    1UNL    C24   35   0.150  -0.107  -0.028
    1UNL    C25   36   0.039  -0.045  -0.125
    1UNL     H1   37  -0.255  -0.390  -0.066
    1UNL     H2   38  -0.263  -0.249   0.049
    1UNL     H3   39  -0.106  -0.267  -0.212
    1UNL     H4   40  -0.115  -0.080   0.029
    1UNL     H5   41  -0.236  -0.034  -0.249
    1UNL     H6   42  -0.434   0.015  -0.242
    1UNL     H7   43  -0.563   0.322  -0.017
    1UNL     H8   44  -0.340   0.394  -0.062
    1UNL     H9   45  -0.253   0.251   0.004
    1UNL    H10   46  -0.414   0.366   0.201
    1UNL    H11   47  -0.409   0.113   0.156
    1UNL    H12   48  -0.655   0.248   0.173
    1UNL    H13   49  -0.559  -0.055   0.138
    1UNL    H14   50  -0.788  -0.028   0.098
    1UNL    H15   51  -0.658   0.012  -0.148
    1UNL    H16   52  -0.492  -0.205  -0.085
    1UNL    H17   53  -0.059   0.297  -0.155
    1UNL    H18   54   0.391   0.282  -0.114
    1UNL    H19   55   0.469   0.133  -0.159
    1UNL    H20   56   0.568   0.212   0.067
    1UNL    H21   57   0.405   0.209   0.129
    1UNL    H22   58   0.695   0.007   0.142
    1UNL    H23   59   0.660  -0.403   0.311
    1UNL    H24   60   0.838  -0.394   0.301
    1UNL    H25   61   0.733  -0.386   0.151
    1UNL    H26   62   0.437  -0.442   0.122
    1UNL    H27   63   0.347  -0.285  -0.005
    1UNL    H28   64   0.315  -0.093  -0.162
    1UNL    H29   65   0.147  -0.216  -0.019
    1UNL    H30   66   0.142  -0.083   0.079
    1UNL    H31   67   0.044  -0.075  -0.233
   0.00000   0.00000   0.00000   0.00000   0.00000   0.00000   0.00000   0.00000   0.00000
Generated with MDTraj, t= 80.0
 67
    1UNL     C1    1  -0.233  -0.274  -0.076
    1UNL     C2    2  -0.119  -0.212  -0.081
    1UNL     C3    3  -0.097  -0.070  -0.066
    1UNL     C4    4  -0.208   0.002  -0.135
    1UNL     O1    5  -0.334  -0.024  -0.066
    1UNL     C5    6  -0.454   0.010  -0.133
    1UNL     O2    7  -0.471   0.149  -0.155
    1UNL     C6    8  -0.479   0.224  -0.026
    1UNL     C7    9  -0.349   0.307   0.006
    1UNL     O3   10  -0.357   0.384   0.125
    1UNL     C8   11  -0.511   0.142   0.100
    1UNL     O4   12  -0.559   0.234   0.201
    1UNL     C9   13  -0.602   0.021   0.078
    1UNL     O5   14  -0.735   0.060   0.100
    1UNL    C10   15  -0.582  -0.036  -0.062
    1UNL     O6   16  -0.595  -0.175  -0.068
    1UNL     O7   17  -0.182   0.150  -0.148
    1UNL    C11   18  -0.060   0.200  -0.145
    1UNL    C12   19   0.057   0.127  -0.139
    1UNL    C13   20   0.185   0.192  -0.126
    1UNL     O8   21   0.206   0.311  -0.135
    1UNL     N1   22   0.296   0.106  -0.109
    1UNL    C14   23   0.428   0.175  -0.110
    1UNL    C15   24   0.508   0.151   0.021
    1UNL    C16   25   0.496   0.001   0.060
    1UNL    C17   26   0.592  -0.046   0.151
    1UNL    C18   27   0.600  -0.185   0.175
    1UNL     O9   28   0.704  -0.228   0.265
    1UNL    C19   29   0.724  -0.367   0.276
    1UNL    C20   30   0.504  -0.272   0.126
    1UNL    O10   31   0.492  -0.403   0.171
    1UNL    C21   32   0.406  -0.224   0.044
    1UNL    C22   33   0.397  -0.087   0.019
    1UNL    C23   34   0.285  -0.037  -0.075
    1UNL    C24   35   0.147  -0.065  -0.014
    1UNL    C25   36   0.039  -0.027  -0.121
    1UNL     H1   37  -0.235  -0.380  -0.089
    1UNL     H2   38  -0.330  -0.231  -0.081
    1UNL     H3   39  -0.030  -0.272  -0.081
    1UNL     H4   40  -0.099  -0.041   0.041
    1UNL     H5   41  -0.220  -0.029  -0.242
    1UNL     H6   42  -0.455  -0.031  -0.235
    1UNL     H7   43  -0.572   0.290  -0.051
    1UNL     H8   44  -0.324   0.380  -0.072
    1UNL     H9   45  -0.269   0.231   0.020
    1UNL    H10   46  -0.405   0.336   0.199
    1UNL    H11   47  -0.411   0.108   0.135
    1UNL    H12   48  -0.651   0.249   0.173
    1UNL    H13   49  -0.572  -0.060   0.155
    1UNL    H14   50  -0.797  -0.023   0.099
    1UNL    H15   51  -0.664   0.011  -0.112
    1UNL    H16   52  -0.536  -0.219  -0.000
    1UNL    H17   53  -0.057   0.313  -0.156
    1UNL    H18   54   0.401   0.273  -0.146
    1UNL    H19   55   0.484   0.120  -0.185
    1UNL    H20   56   0.613   0.191   0.014
    1UNL    H21   57   0.459   0.208   0.101
    1UNL    H22   58   0.675   0.014   0.178
    1UNL    H23   59   0.655  -0.413   0.348
    1UNL    H24   60   0.824  -0.391   0.317
    1UNL    H25   61   0.720  -0.399   0.172
    1UNL    H26   62   0.419  -0.459   0.134
    1UNL    H27   63   0.318  -0.286   0.017
    1UNL    H28   64   0.306  -0.097  -0.160
    1UNL    H29   65   0.139  -0.162   0.038
    1UNL    H30   66   0.131   0.006   0.067
    1UNL    H31   67   0.060  -0.070  -0.221
   0.00000   0.00000   0.00000   0.00000   0.00000   0.00000   0.00000   0.00000   0.00000
Generated with MDTraj, t= 81.0
 67
    1UNL     C1    1  -0.211  -0.281  -0.105
    1UNL     C2    2  -0.108  -0.217  -0.057
    1UNL     C3    3  -0.096  -0.068  -0.049
    1UNL     C4    4  -0.216   0.004  -0.121
    1UNL     O1    5  -0.341  -0.009  -0.045
    1UNL     C5    6  -0.457   0.023  -0.128
    1UNL     O2    7  -0.481   0.162  -0.144
    1UNL     C6    8  -0.503   0.234  -0.022
    1UNL     C7    9  -0.391   0.336  -0.015
    1UNL     O3   10  -0.394   0.428   0.092
    1UNL     C8   11  -0.509   0.134   0.096
    1UNL     O4   12  -0.528   0.187   0.232
    1UNL     C9   13  -0.612   0.021   0.077
    1UNL     O5   14  -0.745   0.073   0.073
    1UNL    C10   15  -0.587  -0.043  -0.064
    1UNL     O6   16  -0.572  -0.185  -0.059
    1UNL     O7   17  -0.189   0.150  -0.142
    1UNL    C11   18  -0.063   0.191  -0.140
    1UNL    C12   19   0.048   0.120  -0.125
    1UNL    C13   20   0.180   0.199  -0.118
    1UNL     O8   21   0.206   0.319  -0.124
    1UNL     N1   22   0.301   0.116  -0.101
    1UNL    C14   23   0.436   0.180  -0.119
    1UNL    C15   24   0.522   0.138  -0.000
    1UNL    C16   25   0.506  -0.005   0.042
    1UNL    C17   26   0.598  -0.057   0.133
    1UNL    C18   27   0.603  -0.189   0.179
    1UNL     O9   28   0.698  -0.233   0.275
    1UNL    C19   29   0.710  -0.364   0.320
    1UNL    C20   30   0.515  -0.282   0.112
    1UNL    O10   31   0.498  -0.409   0.168
    1UNL    C21   32   0.415  -0.235   0.024
    1UNL    C22   33   0.410  -0.100  -0.006
    1UNL    C23   34   0.294  -0.035  -0.082
    1UNL    C24   35   0.162  -0.075  -0.019
    1UNL    C25   36   0.043  -0.029  -0.108
    1UNL     H1   37  -0.226  -0.388  -0.108
    1UNL     H2   38  -0.298  -0.231  -0.140
    1UNL     H3   39  -0.025  -0.276  -0.024
    1UNL     H4   40  -0.093  -0.038   0.057
    1UNL     H5   41  -0.223  -0.030  -0.225
    1UNL     H6   42  -0.446  -0.010  -0.234
    1UNL     H7   43  -0.603   0.293  -0.039
    1UNL     H8   44  -0.388   0.392  -0.108
    1UNL     H9   45  -0.293   0.285   0.001
    1UNL    H10   46  -0.427   0.380   0.171
    1UNL    H11   47  -0.403   0.103   0.099
    1UNL    H12   48  -0.616   0.232   0.231
    1UNL    H13   49  -0.599  -0.064   0.156
    1UNL    H14   50  -0.807  -0.005   0.060
    1UNL    H15   51  -0.679  -0.022  -0.118
    1UNL    H16   52  -0.487  -0.215  -0.099
    1UNL    H17   53  -0.053   0.298  -0.141
    1UNL    H18   54   0.419   0.287  -0.117
    1UNL    H19   55   0.469   0.151  -0.219
    1UNL    H20   56   0.629   0.150  -0.029
    1UNL    H21   57   0.508   0.201   0.092
    1UNL    H22   58   0.669   0.013   0.181
    1UNL    H23   59   0.619  -0.395   0.372
    1UNL    H24   60   0.785  -0.376   0.400
    1UNL    H25   61   0.745  -0.419   0.233
    1UNL    H26   62   0.426  -0.458   0.115
    1UNL    H27   63   0.332  -0.295  -0.000
    1UNL    H28   64   0.314  -0.068  -0.181
    1UNL    H29   65   0.156  -0.185   0.002
    1UNL    H30   66   0.152  -0.024   0.075
    1UNL    H31   67   0.052  -0.074  -0.210
   0.00000   0.00000   0.00000   0.00000   0.00000   0.00000   0.00000   0.00000   0.00000
Generated with MDTraj, t= 82.0
 67
    1UNL     C1    1  -0.158  -0.279  -0.125
    1UNL     C2    2  -0.147  -0.200  -0.021
    1UNL     C3    3  -0.104  -0.057  -0.033
    1UNL     C4    4  -0.212   0.016  -0.112
    1UNL     O1    5  -0.343  -0.037  -0.073
    1UNL     C5    6  -0.447   0.021  -0.144
    1UNL     O2    7  -0.447   0.164  -0.152
    1UNL     C6    8  -0.480   0.233  -0.030
    1UNL     C7    9  -0.399   0.358  -0.007
    1UNL     O3   10  -0.455   0.426   0.100
    1UNL     C8   11  -0.481   0.136   0.089
    1UNL     O4   12  -0.532   0.196   0.211
    1UNL     C9   13  -0.591   0.030   0.057
    1UNL     O5   14  -0.714   0.090   0.083
    1UNL    C10   15  -0.573  -0.045  -0.074
    1UNL     O6   16  -0.547  -0.186  -0.030
    1UNL     O7   17  -0.191   0.154  -0.087
    1UNL    C11   18  -0.061   0.203  -0.103
    1UNL    C12   19   0.041   0.120  -0.115
    1UNL    C13   20   0.172   0.183  -0.121
    1UNL     O8   21   0.189   0.299  -0.139
    1UNL     N1   22   0.286   0.107  -0.109
    1UNL    C14   23   0.418   0.168  -0.114
    1UNL    C15   24   0.510   0.147   0.004
    1UNL    C16   25   0.510  -0.004   0.047
    1UNL    C17   26   0.615  -0.062   0.119
    1UNL    C18   27   0.606  -0.192   0.170
    1UNL     O9   28   0.707  -0.242   0.255
    1UNL    C19   29   0.673  -0.344   0.342
    1UNL    C20   30   0.500  -0.277   0.125
    1UNL    O10   31   0.523  -0.413   0.138
    1UNL    C21   32   0.406  -0.224   0.037
    1UNL    C22   33   0.401  -0.087   0.014
    1UNL    C23   34   0.289  -0.046  -0.086
    1UNL    C24   35   0.154  -0.112  -0.059
    1UNL    C25   36   0.027  -0.033  -0.115
    1UNL     H1   37  -0.207  -0.374  -0.130
    1UNL     H2   38  -0.146  -0.245  -0.229
    1UNL     H3   39  -0.185  -0.244   0.072
    1UNL     H4   40  -0.093  -0.009   0.064
    1UNL     H5   41  -0.197   0.002  -0.218
    1UNL     H6   42  -0.441  -0.008  -0.252
    1UNL     H7   43  -0.591   0.267  -0.040
    1UNL     H8   44  -0.393   0.426  -0.092
    1UNL     H9   45  -0.296   0.322   0.017
    1UNL    H10   46  -0.475   0.362   0.169
    1UNL    H11   47  -0.388   0.084   0.113
    1UNL    H12   48  -0.629   0.203   0.198
    1UNL    H13   49  -0.582  -0.056   0.137
    1UNL    H14   50  -0.793   0.039   0.067
    1UNL    H15   51  -0.667  -0.035  -0.128
    1UNL    H16   52  -0.460  -0.206  -0.066
    1UNL    H17   53  -0.056   0.307  -0.109
    1UNL    H18   54   0.397   0.273  -0.135
    1UNL    H19   55   0.465   0.122  -0.201
    1UNL    H20   56   0.613   0.165  -0.027
    1UNL    H21   57   0.487   0.218   0.088
    1UNL    H22   58   0.708  -0.014   0.114
    1UNL    H23   59   0.591  -0.315   0.408
    1UNL    H24   60   0.750  -0.363   0.419
    1UNL    H25   61   0.671  -0.440   0.288
    1UNL    H26   62   0.442  -0.465   0.105
    1UNL    H27   63   0.324  -0.292   0.008
    1UNL    H28   64   0.323  -0.089  -0.177
    1UNL    H29   65   0.154  -0.218  -0.101
    1UNL    H30   66   0.144  -0.122   0.048
    1UNL    H31   67  -0.005  -0.068  -0.216
   0.00000   0.00000   0.00000   0.00000   0.00000   0.00000   0.00000   0.00000   0.00000
Generated with MDTraj, t= 83.0
 67
    1UNL     C1    1  -0.103  -0.290  -0.153
    1UNL     C2    2  -0.110  -0.220  -0.043
    1UNL     C3    3  -0.096  -0.072  -0.025
    1UNL     C4    4  -0.205   0.025  -0.074
    1UNL     O1    5  -0.338  -0.019  -0.039
    1UNL     C5    6  -0.440   0.019  -0.131
    1UNL     O2    7  -0.471   0.155  -0.163
    1UNL     C6    8  -0.491   0.231  -0.035
    1UNL     C7    9  -0.401   0.355  -0.020
    1UNL     O3   10  -0.438   0.455   0.069
    1UNL     C8   11  -0.498   0.140   0.094
    1UNL     O4   12  -0.535   0.201   0.217
    1UNL     C9   13  -0.604   0.027   0.072
    1UNL     O5   14  -0.736   0.062   0.082
    1UNL    C10   15  -0.578  -0.034  -0.068
    1UNL     O6   16  -0.597  -0.178  -0.073
    1UNL     O7   17  -0.181   0.162  -0.051
    1UNL    C11   18  -0.053   0.204  -0.078
    1UNL    C12   19   0.051   0.118  -0.103
    1UNL    C13   20   0.187   0.176  -0.121
    1UNL     O8   21   0.209   0.294  -0.132
    1UNL     N1   22   0.295   0.092  -0.134
    1UNL    C14   23   0.432   0.161  -0.127
    1UNL    C15   24   0.482   0.142   0.014
    1UNL    C16   25   0.488  -0.010   0.041
    1UNL    C17   26   0.589  -0.062   0.118
    1UNL    C18   27   0.590  -0.196   0.158
    1UNL     O9   28   0.704  -0.229   0.246
    1UNL    C19   29   0.685  -0.318   0.351
    1UNL    C20   30   0.511  -0.287   0.096
    1UNL    O10   31   0.507  -0.413   0.150
    1UNL    C21   32   0.412  -0.245   0.005
    1UNL    C22   33   0.402  -0.102  -0.018
    1UNL    C23   34   0.288  -0.051  -0.096
    1UNL    C24   35   0.162  -0.073  -0.012
    1UNL    C25   36   0.035  -0.030  -0.089
    1UNL     H1   37  -0.116  -0.396  -0.146
    1UNL     H2   38  -0.085  -0.253  -0.251
    1UNL     H3   39  -0.156  -0.261   0.042
    1UNL     H4   40  -0.081  -0.051   0.080
    1UNL     H5   41  -0.205   0.020  -0.180
    1UNL     H6   42  -0.405  -0.031  -0.226
    1UNL     H7   43  -0.595   0.279  -0.049
    1UNL     H8   44  -0.400   0.398  -0.121
    1UNL     H9   45  -0.294   0.326  -0.007
    1UNL    H10   46  -0.472   0.412   0.154
    1UNL    H11   47  -0.400   0.093   0.107
    1UNL    H12   48  -0.631   0.219   0.217
    1UNL    H13   49  -0.588  -0.059   0.148
    1UNL    H14   50  -0.792  -0.011   0.060
    1UNL    H15   51  -0.661   0.002  -0.132
    1UNL    H16   52  -0.506  -0.217  -0.077
    1UNL    H17   53  -0.033   0.313  -0.069
    1UNL    H18   54   0.439   0.270  -0.156
    1UNL    H19   55   0.492   0.105  -0.199
    1UNL    H20   56   0.573   0.196   0.037
    1UNL    H21   57   0.402   0.179   0.086
    1UNL    H22   58   0.665   0.011   0.152
    1UNL    H23   59   0.594  -0.288   0.401
    1UNL    H24   60   0.762  -0.318   0.431
    1UNL    H25   61   0.686  -0.424   0.322
    1UNL    H26   62   0.439  -0.464   0.100
    1UNL    H27   63   0.346  -0.320  -0.031
    1UNL    H28   64   0.276  -0.104  -0.187
    1UNL    H29   65   0.156  -0.182   0.020
    1UNL    H30   66   0.176  -0.015   0.079
    1UNL    H31   67   0.030  -0.065  -0.194
   0.00000   0.00000   0.00000   0.00000   0.00000   0.00000   0.00000   0.00000   0.00000
Generated with MDTraj, t= 84.0
 67
    1UNL     C1    1  -0.124  -0.280  -0.176
    1UNL     C2    2  -0.122  -0.229  -0.058
    1UNL     C3    3  -0.099  -0.081  -0.035
    1UNL     C4    4  -0.211   0.016  -0.088
    1UNL     O1    5  -0.340  -0.035  -0.032
    1UNL     C5    6  -0.437   0.008  -0.116
    1UNL     O2    7  -0.439   0.149  -0.151
    1UNL     C6    8  -0.483   0.241  -0.043
    1UNL     C7    9  -0.388   0.357  -0.016
    1UNL     O3   10  -0.436   0.451   0.078
    1UNL     C8   11  -0.513   0.159   0.090
    1UNL     O4   12  -0.594   0.247   0.174
    1UNL     C9   13  -0.595   0.025   0.074
    1UNL     O5   14  -0.729   0.035   0.101
    1UNL    C10   15  -0.578  -0.029  -0.064
    1UNL     O6   16  -0.616  -0.167  -0.069
    1UNL     O7   17  -0.188   0.161  -0.057
    1UNL    C11   18  -0.060   0.204  -0.068
    1UNL    C12   19   0.050   0.122  -0.085
    1UNL    C13   20   0.180   0.181  -0.108
    1UNL     O8   21   0.199   0.297  -0.131
    1UNL     N1   22   0.286   0.092  -0.116
    1UNL    C14   23   0.420   0.149  -0.140
    1UNL    C15   24   0.515   0.135  -0.016
    1UNL    C16   25   0.509  -0.004   0.034
    1UNL    C17   26   0.604  -0.052   0.124
    1UNL    C18   27   0.612  -0.186   0.162
    1UNL     O9   28   0.697  -0.230   0.265
    1UNL    C19   29   0.677  -0.346   0.344
    1UNL    C20   30   0.521  -0.278   0.099
    1UNL    O10   31   0.548  -0.408   0.132
    1UNL    C21   32   0.418  -0.233   0.023
    1UNL    C22   33   0.404  -0.097   0.001
    1UNL    C23   34   0.283  -0.053  -0.084
    1UNL    C24   35   0.154  -0.093  -0.018
    1UNL    C25   36   0.034  -0.028  -0.089
    1UNL     H1   37  -0.139  -0.386  -0.193
    1UNL     H2   38  -0.115  -0.217  -0.262
    1UNL     H3   39  -0.151  -0.281   0.036
    1UNL     H4   40  -0.096  -0.069   0.072
    1UNL     H5   41  -0.222   0.009  -0.193
    1UNL     H6   42  -0.400  -0.050  -0.204
    1UNL     H7   43  -0.578   0.292  -0.082
    1UNL     H8   44  -0.359   0.414  -0.106
    1UNL     H9   45  -0.287   0.315   0.009
    1UNL    H10   46  -0.469   0.407   0.158
    1UNL    H11   47  -0.416   0.150   0.141
    1UNL    H12   48  -0.690   0.242   0.149
    1UNL    H13   49  -0.556  -0.056   0.149
    1UNL    H14   50  -0.773  -0.051   0.082
    1UNL    H15   51  -0.657   0.024  -0.125
    1UNL    H16   52  -0.531  -0.219  -0.053
    1UNL    H17   53  -0.024   0.311  -0.053
    1UNL    H18   54   0.415   0.249  -0.195
    1UNL    H19   55   0.471   0.075  -0.203
    1UNL    H20   56   0.619   0.158  -0.035
    1UNL    H21   57   0.476   0.202   0.065
    1UNL    H22   58   0.688   0.009   0.145
    1UNL    H23   59   0.572  -0.350   0.369
    1UNL    H24   60   0.739  -0.354   0.436
    1UNL    H25   61   0.702  -0.441   0.295
    1UNL    H26   62   0.480  -0.455   0.082
    1UNL    H27   63   0.338  -0.305   0.007
    1UNL    H28   64   0.277  -0.099  -0.178
    1UNL    H29   65   0.142  -0.205  -0.010
    1UNL    H30   66   0.152  -0.050   0.083
    1UNL    H31   67   0.040  -0.058  -0.195
   0.00000   0.00000   0.00000   0.00000   0.00000   0.00000   0.00000   0.00000   0.00000
Generated with MDTraj, t= 85.0
 67
    1UNL     C1    1  -0.188  -0.264  -0.179
    1UNL     C2    2  -0.144  -0.225  -0.065
    1UNL     C3    3  -0.102  -0.085  -0.037
    1UNL     C4    4  -0.208   0.007  -0.091
    1UNL     O1    5  -0.345  -0.038  -0.059
    1UNL     C5    6  -0.447   0.022  -0.132
    1UNL     O2    7  -0.441   0.170  -0.147
    1UNL     C6    8  -0.500   0.249  -0.043
    1UNL     C7    9  -0.392   0.355  -0.026
    1UNL     O3   10  -0.436   0.455   0.064
    1UNL     C8   11  -0.535   0.176   0.090
    1UNL     O4   12  -0.616   0.274   0.163
    1UNL     C9   13  -0.600   0.033   0.076
    1UNL     O5   14  -0.733   0.035   0.118
    1UNL    C10   15  -0.587  -0.032  -0.068
    1UNL     O6   16  -0.583  -0.177  -0.059
    1UNL     O7   17  -0.186   0.137  -0.041
    1UNL    C11   18  -0.060   0.179  -0.066
    1UNL    C12   19   0.049   0.104  -0.098
    1UNL    C13   20   0.176   0.176  -0.101
    1UNL     O8   21   0.183   0.296  -0.109
    1UNL     N1   22   0.291   0.097  -0.104
    1UNL    C14   23   0.421   0.169  -0.117
    1UNL    C15   24   0.525   0.135  -0.010
    1UNL    C16   25   0.515  -0.013   0.032
    1UNL    C17   26   0.619  -0.056   0.117
    1UNL    C18   27   0.614  -0.190   0.180
    1UNL     O9   28   0.724  -0.221   0.277
    1UNL    C19   29   0.719  -0.348   0.330
    1UNL    C20   30   0.529  -0.278   0.106
    1UNL    O10   31   0.546  -0.410   0.145
    1UNL    C21   32   0.436  -0.235   0.014
    1UNL    C22   33   0.419  -0.100  -0.009
    1UNL    C23   34   0.294  -0.052  -0.089
    1UNL    C24   35   0.163  -0.111  -0.033
    1UNL    C25   36   0.033  -0.048  -0.097
    1UNL     H1   37  -0.227  -0.360  -0.200
    1UNL     H2   38  -0.206  -0.191  -0.255
    1UNL     H3   39  -0.121  -0.286   0.018
    1UNL     H4   40  -0.092  -0.063   0.068
    1UNL     H5   41  -0.211   0.004  -0.197
    1UNL     H6   42  -0.425  -0.018  -0.231
    1UNL     H7   43  -0.596   0.283  -0.094
    1UNL     H8   44  -0.351   0.400  -0.117
    1UNL     H9   45  -0.300   0.308   0.018
    1UNL    H10   46  -0.517   0.422   0.111
    1UNL    H11   47  -0.442   0.157   0.148
    1UNL    H12   48  -0.689   0.225   0.205
    1UNL    H13   49  -0.544  -0.045   0.144
    1UNL    H14   50  -0.778  -0.056   0.102
    1UNL    H15   51  -0.682  -0.014  -0.129
    1UNL    H16   52  -0.489  -0.201  -0.075
    1UNL    H17   53  -0.040   0.281  -0.054
    1UNL    H18   54   0.403   0.280  -0.096
    1UNL    H19   55   0.460   0.163  -0.220
    1UNL    H20   56   0.621   0.146  -0.057
    1UNL    H21   57   0.531   0.202   0.080
    1UNL    H22   58   0.698   0.014   0.142
    1UNL    H23   59   0.629  -0.359   0.390
    1UNL    H24   60   0.806  -0.377   0.393
    1UNL    H25   61   0.708  -0.424   0.255
    1UNL    H26   62   0.475  -0.463   0.110
    1UNL    H27   63   0.373  -0.307  -0.036
    1UNL    H28   64   0.308  -0.085  -0.188
    1UNL    H29   65   0.159  -0.220  -0.052
    1UNL    H30   66   0.165  -0.093   0.077
    1UNL    H31   67   0.043  -0.084  -0.201
   0.00000   0.00000   0.00000   0.00000   0.00000   0.00000   0.00000   0.00000   0.00000
Generated with MDTraj, t= 86.0
 67
    1UNL     C1    1  -0.217  -0.268  -0.168
    1UNL     C2    2  -0.115  -0.232  -0.098
    1UNL     C3    3  -0.095  -0.086  -0.041
    1UNL     C4    4  -0.205   0.013  -0.083
    1UNL     O1    5  -0.338  -0.035  -0.043
    1UNL     C5    6  -0.441   0.003  -0.122
    1UNL     O2    7  -0.439   0.145  -0.151
    1UNL     C6    8  -0.501   0.231  -0.056
    1UNL     C7    9  -0.410   0.358  -0.047
    1UNL     O3   10  -0.451   0.459   0.046
    1UNL     C8   11  -0.529   0.173   0.083
    1UNL     O4   12  -0.590   0.266   0.180
    1UNL     C9   13  -0.600   0.035   0.073
    1UNL     O5   14  -0.738   0.055   0.100
    1UNL    C10   15  -0.583  -0.032  -0.062
    1UNL     O6   16  -0.588  -0.173  -0.067
    1UNL     O7   17  -0.173   0.146  -0.041
    1UNL    C11   18  -0.040   0.190  -0.052
    1UNL    C12   19   0.060   0.111  -0.084
    1UNL    C13   20   0.191   0.177  -0.091
    1UNL     O8   21   0.202   0.297  -0.081
    1UNL     N1   22   0.297   0.093  -0.123
    1UNL    C14   23   0.428   0.155  -0.118
    1UNL    C15   24   0.483   0.139   0.018
    1UNL    C16   25   0.492  -0.004   0.053
    1UNL    C17   26   0.603  -0.049   0.123
    1UNL    C18   27   0.626  -0.184   0.152
    1UNL     O9   28   0.744  -0.222   0.227
    1UNL    C19   29   0.751  -0.348   0.286
    1UNL    C20   30   0.518  -0.271   0.121
    1UNL    O10   31   0.522  -0.410   0.168
    1UNL    C21   32   0.405  -0.236   0.046
    1UNL    C22   33   0.394  -0.100   0.012
    1UNL    C23   34   0.291  -0.058  -0.087
    1UNL    C24   35   0.159  -0.113  -0.034
    1UNL    C25   36   0.039  -0.039  -0.100
    1UNL     H1   37  -0.235  -0.367  -0.209
    1UNL     H2   38  -0.298  -0.196  -0.184
    1UNL     H3   39  -0.021  -0.293  -0.096
    1UNL     H4   40  -0.094  -0.074   0.066
    1UNL     H5   41  -0.215   0.010  -0.192
    1UNL     H6   42  -0.431  -0.048  -0.217
    1UNL     H7   43  -0.599   0.264  -0.100
    1UNL     H8   44  -0.393   0.407  -0.143
    1UNL     H9   45  -0.306   0.332  -0.014
    1UNL    H10   46  -0.467   0.427   0.140
    1UNL    H11   47  -0.433   0.150   0.135
    1UNL    H12   48  -0.677   0.227   0.204
    1UNL    H13   49  -0.557  -0.034   0.159
    1UNL    H14   50  -0.797  -0.028   0.113
    1UNL    H15   51  -0.671   0.003  -0.127
    1UNL    H16   52  -0.503  -0.201  -0.032
    1UNL    H17   53  -0.029   0.291  -0.025
    1UNL    H18   54   0.409   0.264  -0.146
    1UNL    H19   55   0.487   0.108  -0.198
    1UNL    H20   56   0.581   0.180   0.037
    1UNL    H21   57   0.418   0.186   0.095
    1UNL    H22   58   0.688   0.019   0.130
    1UNL    H23   59   0.657  -0.399   0.306
    1UNL    H24   60   0.811  -0.338   0.378
    1UNL    H25   61   0.799  -0.421   0.224
    1UNL    H26   62   0.439  -0.447   0.135
    1UNL    H27   63   0.315  -0.295   0.053
    1UNL    H28   64   0.313  -0.119  -0.170
    1UNL    H29   65   0.154  -0.223  -0.050
    1UNL    H30   66   0.151  -0.094   0.079
    1UNL    H31   67   0.035  -0.057  -0.208
   0.00000   0.00000   0.00000   0.00000   0.00000   0.00000   0.00000   0.00000   0.00000
Generated with MDTraj, t= 87.0
 67
    1UNL     C1    1  -0.257  -0.273  -0.140
    1UNL     C2    2  -0.142  -0.215  -0.126
    1UNL     C3    3  -0.109  -0.082  -0.056
    1UNL     C4    4  -0.213   0.026  -0.085
    1UNL     O1    5  -0.336  -0.041  -0.058
    1UNL     C5    6  -0.447  -0.004  -0.138
    1UNL     O2    7  -0.456   0.139  -0.166
    1UNL     C6    8  -0.488   0.227  -0.049
    1UNL     C7    9  -0.395   0.353  -0.037
    1UNL     O3   10  -0.469   0.460   0.010
    1UNL     C8   11  -0.503   0.152   0.079
    1UNL     O4   12  -0.538   0.238   0.186
    1UNL     C9   13  -0.604   0.036   0.060
    1UNL     O5   14  -0.736   0.086   0.081
    1UNL    C10   15  -0.581  -0.039  -0.069
    1UNL     O6   16  -0.589  -0.179  -0.050
    1UNL     O7   17  -0.185   0.159  -0.033
    1UNL    C11   18  -0.050   0.192  -0.042
    1UNL    C12   19   0.051   0.113  -0.074
    1UNL    C13   20   0.184   0.177  -0.075
    1UNL     O8   21   0.197   0.298  -0.068
    1UNL     N1   22   0.292   0.090  -0.101
    1UNL    C14   23   0.423   0.151  -0.120
    1UNL    C15   24   0.502   0.143   0.008
    1UNL    C16   25   0.497  -0.006   0.065
    1UNL    C17   26   0.616  -0.048   0.129
    1UNL    C18   27   0.628  -0.183   0.166
    1UNL     O9   28   0.748  -0.223   0.227
    1UNL    C19   29   0.776  -0.362   0.245
    1UNL    C20   30   0.527  -0.276   0.116
    1UNL    O10   31   0.530  -0.406   0.174
    1UNL    C21   32   0.411  -0.227   0.060
    1UNL    C22   33   0.398  -0.096   0.027
    1UNL    C23   34   0.283  -0.054  -0.069
    1UNL    C24   35   0.141  -0.102  -0.018
    1UNL    C25   36   0.036  -0.032  -0.100
    1UNL     H1   37  -0.269  -0.361  -0.198
    1UNL     H2   38  -0.354  -0.233  -0.124
    1UNL     H3   39  -0.060  -0.269  -0.161
    1UNL     H4   40  -0.105  -0.096   0.050
    1UNL     H5   41  -0.203   0.038  -0.196
    1UNL     H6   42  -0.437  -0.049  -0.236
    1UNL     H7   43  -0.588   0.270  -0.074
    1UNL     H8   44  -0.362   0.378  -0.138
    1UNL     H9   45  -0.304   0.333   0.024
    1UNL    H10   46  -0.485   0.454   0.104
    1UNL    H11   47  -0.402   0.110   0.103
    1UNL    H12   48  -0.636   0.239   0.191
    1UNL    H13   49  -0.581  -0.047   0.142
    1UNL    H14   50  -0.796   0.017   0.113
    1UNL    H15   51  -0.668  -0.014  -0.140
    1UNL    H16   52  -0.512  -0.215   0.000
    1UNL    H17   53  -0.028   0.298  -0.004
    1UNL    H18   54   0.407   0.254  -0.166
    1UNL    H19   55   0.459   0.089  -0.203
    1UNL    H20   56   0.603   0.183  -0.004
    1UNL    H21   57   0.459   0.201   0.090
    1UNL    H22   58   0.691   0.019   0.161
    1UNL    H23   59   0.771  -0.404   0.346
    1UNL    H24   60   0.880  -0.372   0.213
    1UNL    H25   61   0.711  -0.432   0.194
    1UNL    H26   62   0.443  -0.452   0.155
    1UNL    H27   63   0.337  -0.306   0.046
    1UNL    H28   64   0.299  -0.105  -0.161
    1UNL    H29   65   0.128  -0.212  -0.027
    1UNL    H30   66   0.135  -0.080   0.095
    1UNL    H31   67   0.046  -0.056  -0.207
   0.00000   0.00000   0.00000   0.00000   0.00000   0.00000   0.00000   0.00000   0.00000
Generated with MDTraj, t= 88.0
 67
    1UNL     C1    1  -0.212  -0.320  -0.115
    1UNL     C2    2  -0.137  -0.216  -0.142
    1UNL     C3    3  -0.113  -0.090  -0.061
    1UNL     C4    4  -0.220   0.016  -0.090
    1UNL     O1    5  -0.348  -0.036  -0.060
    1UNL     C5    6  -0.455   0.006  -0.142
    1UNL     O2    7  -0.453   0.144  -0.180
    1UNL     C6    8  -0.500   0.233  -0.068
    1UNL     C7    9  -0.421   0.369  -0.074
    1UNL     O3   10  -0.438   0.449   0.041
    1UNL     C8   11  -0.491   0.157   0.065
    1UNL     O4   12  -0.516   0.242   0.174
    1UNL     C9   13  -0.606   0.050   0.063
    1UNL     O5   14  -0.733   0.112   0.064
    1UNL    C10   15  -0.586  -0.041  -0.065
    1UNL     O6   16  -0.595  -0.182  -0.032
    1UNL     O7   17  -0.200   0.146  -0.022
    1UNL    C11   18  -0.074   0.191  -0.037
    1UNL    C12   19   0.036   0.118  -0.073
    1UNL    C13   20   0.162   0.180  -0.066
    1UNL     O8   21   0.176   0.300  -0.069
    1UNL     N1   22   0.282   0.099  -0.061
    1UNL    C14   23   0.410   0.169  -0.096
    1UNL    C15   24   0.523   0.133  -0.001
    1UNL    C16   25   0.512  -0.013   0.047
    1UNL    C17   26   0.621  -0.063   0.125
    1UNL    C18   27   0.623  -0.199   0.163
    1UNL     O9   28   0.728  -0.236   0.250
    1UNL    C19   29   0.820  -0.336   0.207
    1UNL    C20   30   0.515  -0.282   0.131
    1UNL    O10   31   0.535  -0.407   0.191
    1UNL    C21   32   0.412  -0.236   0.044
    1UNL    C22   33   0.404  -0.101   0.018
    1UNL    C23   34   0.287  -0.047  -0.065
    1UNL    C24   35   0.149  -0.101  -0.013
    1UNL    C25   36   0.032  -0.028  -0.080
    1UNL     H1   37  -0.242  -0.394  -0.190
    1UNL     H2   38  -0.261  -0.336  -0.021
    1UNL     H3   39  -0.085  -0.205  -0.241
    1UNL     H4   40  -0.128  -0.117   0.042
    1UNL     H5   41  -0.210   0.051  -0.198
    1UNL     H6   42  -0.447  -0.039  -0.241
    1UNL     H7   43  -0.605   0.245  -0.095
    1UNL     H8   44  -0.449   0.418  -0.165
    1UNL     H9   45  -0.316   0.334  -0.081
    1UNL    H10   46  -0.456   0.387   0.117
    1UNL    H11   47  -0.387   0.116   0.073
    1UNL    H12   48  -0.612   0.266   0.165
    1UNL    H13   49  -0.602  -0.010   0.166
    1UNL    H14   50  -0.796   0.043   0.077
    1UNL    H15   51  -0.678  -0.017  -0.129
    1UNL    H16   52  -0.522  -0.235  -0.073
    1UNL    H17   53  -0.053   0.292   0.003
    1UNL    H18   54   0.379   0.278  -0.104
    1UNL    H19   55   0.437   0.135  -0.195
    1UNL    H20   56   0.623   0.142  -0.048
    1UNL    H21   57   0.526   0.205   0.081
    1UNL    H22   58   0.714  -0.005   0.111
    1UNL    H23   59   0.798  -0.444   0.220
    1UNL    H24   60   0.915  -0.307   0.254
    1UNL    H25   61   0.829  -0.329   0.098
    1UNL    H26   62   0.454  -0.465   0.168
    1UNL    H27   63   0.330  -0.296   0.016
    1UNL    H28   64   0.301  -0.079  -0.165
    1UNL    H29   65   0.143  -0.212  -0.026
    1UNL    H30   66   0.141  -0.085   0.099
    1UNL    H31   67   0.047  -0.054  -0.185
   0.00000   0.00000   0.00000   0.00000   0.00000   0.00000   0.00000   0.00000   0.00000
Generated with MDTraj, t= 89.0
 67
    1UNL     C1    1  -0.143  -0.346  -0.068
    1UNL     C2    2  -0.123  -0.231  -0.128
    1UNL     C3    3  -0.106  -0.092  -0.064
    1UNL     C4    4  -0.220   0.003  -0.106
    1UNL     O1    5  -0.345  -0.051  -0.073
    1UNL     C5    6  -0.455   0.006  -0.138
    1UNL     O2    7  -0.437   0.141  -0.174
    1UNL     C6    8  -0.479   0.232  -0.071
    1UNL     C7    9  -0.369   0.342  -0.057
    1UNL     O3   10  -0.413   0.458   0.008
    1UNL     C8   11  -0.499   0.172   0.070
    1UNL     O4   12  -0.552   0.269   0.157
    1UNL     C9   13  -0.605   0.053   0.072
    1UNL     O5   14  -0.737   0.099   0.085
    1UNL    C10   15  -0.588  -0.032  -0.061
    1UNL     O6   16  -0.614  -0.172  -0.045
    1UNL     O7   17  -0.201   0.130  -0.029
    1UNL    C11   18  -0.079   0.177  -0.020
    1UNL    C12   19   0.038   0.111  -0.059
    1UNL    C13   20   0.166   0.181  -0.056
    1UNL     O8   21   0.169   0.302  -0.044
    1UNL     N1   22   0.282   0.103  -0.083
    1UNL    C14   23   0.414   0.176  -0.099
    1UNL    C15   24   0.511   0.143   0.013
    1UNL    C16   25   0.498   0.004   0.061
    1UNL    C17   26   0.602  -0.051   0.137
    1UNL    C18   27   0.612  -0.184   0.169
    1UNL     O9   28   0.723  -0.243   0.236
    1UNL    C19   29   0.794  -0.350   0.156
    1UNL    C20   30   0.510  -0.268   0.128
    1UNL    O10   31   0.519  -0.413   0.169
    1UNL    C21   32   0.392  -0.215   0.076
    1UNL    C22   33   0.393  -0.087   0.030
    1UNL    C23   34   0.286  -0.040  -0.068
    1UNL    C24   35   0.152  -0.105  -0.038
    1UNL    C25   36   0.034  -0.033  -0.103
    1UNL     H1   37  -0.122  -0.432  -0.127
    1UNL     H2   38  -0.138  -0.363   0.036
    1UNL     H3   39  -0.106  -0.223  -0.232
    1UNL     H4   40  -0.124  -0.103   0.042
    1UNL     H5   41  -0.219   0.035  -0.216
    1UNL     H6   42  -0.467  -0.031  -0.242
    1UNL     H7   43  -0.572   0.284  -0.087
    1UNL     H8   44  -0.327   0.372  -0.152
    1UNL     H9   45  -0.288   0.302   0.007
    1UNL    H10   46  -0.448   0.434   0.096
    1UNL    H11   47  -0.402   0.144   0.116
    1UNL    H12   48  -0.639   0.236   0.188
    1UNL    H13   49  -0.586  -0.018   0.166
    1UNL    H14   50  -0.796   0.027   0.056
    1UNL    H15   51  -0.675   0.001  -0.126
    1UNL    H16   52  -0.572  -0.203   0.037
    1UNL    H17   53  -0.068   0.273   0.018
    1UNL    H18   54   0.397   0.286  -0.089
    1UNL    H19   55   0.456   0.156  -0.197
    1UNL    H20   56   0.610   0.164  -0.034
    1UNL    H21   57   0.501   0.211   0.096
    1UNL    H22   58   0.688   0.008   0.150
    1UNL    H23   59   0.752  -0.375   0.057
    1UNL    H24   60   0.796  -0.444   0.213
    1UNL    H25   61   0.900  -0.326   0.141
    1UNL    H26   62   0.472  -0.473   0.104
    1UNL    H27   63   0.311  -0.286   0.056
    1UNL    H28   64   0.324  -0.072  -0.161
    1UNL    H29   65   0.151  -0.217  -0.060
    1UNL    H30   66   0.140  -0.103   0.075
    1UNL    H31   67   0.046  -0.037  -0.211
   0.00000   0.00000   0.00000   0.00000   0.00000   0.00000   0.00000   0.00000   0.00000
Generated with MDTraj, t= 90.0
 67
    1UNL     C1    1  -0.087  -0.348  -0.037
    1UNL     C2    2  -0.131  -0.241  -0.098
    1UNL     C3    3  -0.107  -0.099  -0.045
    1UNL     C4    4  -0.218   0.004  -0.068
    1UNL     O1    5  -0.343  -0.060  -0.045
    1UNL     C5    6  -0.445  -0.006  -0.130
    1UNL     O2    7  -0.417   0.128  -0.166
    1UNL     C6    8  -0.475   0.236  -0.078
    1UNL     C7    9  -0.380   0.354  -0.085
    1UNL     O3   10  -0.412   0.464  -0.001
    1UNL     C8   11  -0.503   0.187   0.065
    1UNL     O4   12  -0.562   0.285   0.140
    1UNL     C9   13  -0.589   0.055   0.060
    1UNL     O5   14  -0.720   0.079   0.101
    1UNL    C10   15  -0.586  -0.018  -0.076
    1UNL     O6   16  -0.618  -0.154  -0.075
    1UNL     O7   17  -0.189   0.136  -0.005
    1UNL    C11   18  -0.065   0.177  -0.011
    1UNL    C12   19   0.036   0.105  -0.067
    1UNL    C13   20   0.164   0.175  -0.061
    1UNL     O8   21   0.169   0.285  -0.016
    1UNL     N1   22   0.282   0.116  -0.104
    1UNL    C14   23   0.405   0.188  -0.077
    1UNL    C15   24   0.458   0.147   0.058
    1UNL    C16   25   0.482  -0.004   0.062
    1UNL    C17   26   0.592  -0.051   0.135
    1UNL    C18   27   0.614  -0.192   0.151
    1UNL     O9   28   0.736  -0.231   0.207
    1UNL    C19   29   0.779  -0.362   0.176
    1UNL    C20   30   0.505  -0.277   0.111
    1UNL    O10   31   0.494  -0.400   0.170
    1UNL    C21   32   0.412  -0.221   0.022
    1UNL    C22   33   0.395  -0.086   0.001
    1UNL    C23   34   0.282  -0.038  -0.092
    1UNL    C24   35   0.152  -0.103  -0.051
    1UNL    C25   36   0.026  -0.042  -0.107
    1UNL     H1   37  -0.105  -0.448  -0.075
    1UNL     H2   38  -0.014  -0.334   0.044
    1UNL     H3   39  -0.187  -0.246  -0.192
    1UNL     H4   40  -0.090  -0.114   0.060
    1UNL     H5   41  -0.213   0.018  -0.182
    1UNL     H6   42  -0.455  -0.065  -0.225
    1UNL     H7   43  -0.570   0.263  -0.116
    1UNL     H8   44  -0.382   0.391  -0.187
    1UNL     H9   45  -0.278   0.330  -0.051
    1UNL    H10   46  -0.469   0.427   0.070
    1UNL    H11   47  -0.404   0.161   0.106
    1UNL    H12   48  -0.653   0.250   0.159
    1UNL    H13   49  -0.548  -0.017   0.145
    1UNL    H14   50  -0.792   0.005   0.095
    1UNL    H15   51  -0.662   0.027  -0.143
    1UNL    H16   52  -0.582  -0.200   0.002
    1UNL    H17   53  -0.048   0.278   0.028
    1UNL    H18   54   0.388   0.297  -0.083
    1UNL    H19   55   0.482   0.160  -0.145
    1UNL    H20   56   0.554   0.197   0.086
    1UNL    H21   57   0.380   0.178   0.126
    1UNL    H22   58   0.674   0.019   0.158
    1UNL    H23   59   0.789  -0.382   0.067
    1UNL    H24   60   0.696  -0.429   0.198
    1UNL    H25   61   0.867  -0.388   0.236
    1UNL    H26   62   0.417  -0.444   0.132
    1UNL    H27   63   0.329  -0.285   0.010
    1UNL    H28   64   0.319  -0.077  -0.182
    1UNL    H29   65   0.160  -0.214  -0.085
    1UNL    H30   66   0.144  -0.111   0.061
    1UNL    H31   67   0.026  -0.043  -0.216
   0.00000   0.00000   0.00000   0.00000   0.00000   0.00000   0.00000   0.00000   0.00000
Generated with MDTraj, t= 91.0
 67
    1UNL     C1    1  -0.063  -0.333  -0.028
    1UNL     C2    2  -0.133  -0.230  -0.066
    1UNL     C3    3  -0.111  -0.089  -0.024
    1UNL     C4    4  -0.225   0.008  -0.057
    1UNL     O1    5  -0.350  -0.059  -0.059
    1UNL     C5    6  -0.448  -0.006  -0.151
    1UNL     O2    7  -0.419   0.132  -0.183
    1UNL     C6    8  -0.474   0.232  -0.085
    1UNL     C7    9  -0.399   0.364  -0.100
    1UNL     O3   10  -0.458   0.476  -0.032
    1UNL     C8   11  -0.497   0.183   0.064
    1UNL     O4   12  -0.549   0.292   0.142
    1UNL     C9   13  -0.586   0.050   0.055
    1UNL     O5   14  -0.712   0.083   0.107
    1UNL    C10   15  -0.585  -0.024  -0.087
    1UNL     O6   16  -0.617  -0.158  -0.070
    1UNL     O7   17  -0.203   0.127   0.022
    1UNL    C11   18  -0.076   0.175   0.025
    1UNL    C12   19   0.031   0.112  -0.024
    1UNL    C13   20   0.160   0.184  -0.050
    1UNL     O8   21   0.170   0.304  -0.034
    1UNL     N1   22   0.272   0.110  -0.091
    1UNL    C14   23   0.400   0.180  -0.091
    1UNL    C15   24   0.496   0.145   0.027
    1UNL    C16   25   0.487  -0.005   0.067
    1UNL    C17   26   0.598  -0.059   0.134
    1UNL    C18   27   0.606  -0.193   0.159
    1UNL     O9   28   0.715  -0.244   0.233
    1UNL    C19   29   0.762  -0.371   0.230
    1UNL    C20   30   0.529  -0.278   0.087
    1UNL    O10   31   0.545  -0.418   0.084
    1UNL    C21   32   0.428  -0.230   0.010
    1UNL    C22   33   0.395  -0.095  -0.003
    1UNL    C23   34   0.279  -0.043  -0.088
    1UNL    C24   35   0.149  -0.110  -0.052
    1UNL    C25   36   0.026  -0.027  -0.077
    1UNL     H1   37  -0.076  -0.432  -0.064
    1UNL     H2   38   0.003  -0.316   0.053
    1UNL     H3   39  -0.201  -0.253  -0.147
    1UNL     H4   40  -0.118  -0.090   0.085
    1UNL     H5   41  -0.212   0.042  -0.163
    1UNL     H6   42  -0.439  -0.064  -0.247
    1UNL     H7   43  -0.575   0.247  -0.112
    1UNL     H8   44  -0.396   0.400  -0.203
    1UNL     H9   45  -0.297   0.345  -0.061
    1UNL    H10   46  -0.480   0.441   0.059
    1UNL    H11   47  -0.393   0.173   0.102
    1UNL    H12   48  -0.646   0.281   0.155
    1UNL    H13   49  -0.537  -0.031   0.125
    1UNL    H14   50  -0.774   0.006   0.122
    1UNL    H15   51  -0.656   0.014  -0.162
    1UNL    H16   52  -0.562  -0.197   0.001
    1UNL    H17   53  -0.066   0.275   0.080
    1UNL    H18   54   0.382   0.287  -0.093
    1UNL    H19   55   0.447   0.160  -0.185
    1UNL    H20   56   0.603   0.173   0.007
    1UNL    H21   57   0.467   0.188   0.121
    1UNL    H22   58   0.666   0.005   0.184
    1UNL    H23   59   0.765  -0.408   0.127
    1UNL    H24   60   0.685  -0.434   0.274
    1UNL    H25   61   0.854  -0.374   0.291
    1UNL    H26   62   0.467  -0.456   0.045
    1UNL    H27   63   0.354  -0.303  -0.023
    1UNL    H28   64   0.291  -0.057  -0.191
    1UNL    H29   65   0.140  -0.209  -0.114
    1UNL    H30   66   0.152  -0.145   0.054
    1UNL    H31   67   0.002  -0.010  -0.181
   0.00000   0.00000   0.00000   0.00000   0.00000   0.00000   0.00000   0.00000   0.00000
Generated with MDTraj, t= 92.0
 67
    1UNL     C1    1  -0.112  -0.347  -0.020
    1UNL     C2    2  -0.117  -0.228  -0.081
    1UNL     C3    3  -0.110  -0.096  -0.018
    1UNL     C4    4  -0.220  -0.001  -0.058
    1UNL     O1    5  -0.347  -0.059  -0.039
    1UNL     C5    6  -0.445  -0.002  -0.133
    1UNL     O2    7  -0.414   0.136  -0.172
    1UNL     C6    8  -0.475   0.235  -0.092
    1UNL     C7    9  -0.396   0.371  -0.105
    1UNL     O3   10  -0.491   0.469  -0.061
    1UNL     C8   11  -0.499   0.184   0.057
    1UNL     O4   12  -0.546   0.288   0.138
    1UNL     C9   13  -0.589   0.056   0.063
    1UNL     O5   14  -0.723   0.092   0.088
    1UNL    C10   15  -0.583  -0.030  -0.078
    1UNL     O6   16  -0.613  -0.164  -0.051
    1UNL     O7   17  -0.207   0.123   0.008
    1UNL    C11   18  -0.082   0.183  -0.013
    1UNL    C12   19   0.029   0.114  -0.041
    1UNL    C13   20   0.161   0.183  -0.034
    1UNL     O8   21   0.172   0.301  -0.008
    1UNL     N1   22   0.277   0.112  -0.062
    1UNL    C14   23   0.397   0.191  -0.074
    1UNL    C15   24   0.502   0.140   0.025
    1UNL    C16   25   0.506  -0.011   0.041
    1UNL    C17   26   0.603  -0.063   0.123
    1UNL    C18   27   0.624  -0.201   0.130
    1UNL     O9   28   0.699  -0.246   0.241
    1UNL    C19   29   0.704  -0.378   0.266
    1UNL    C20   30   0.548  -0.281   0.045
    1UNL    O10   31   0.583  -0.412   0.045
    1UNL    C21   32   0.437  -0.226  -0.018
    1UNL    C22   33   0.411  -0.085  -0.015
    1UNL    C23   34   0.284  -0.038  -0.067
    1UNL    C24   35   0.155  -0.094   0.005
    1UNL    C25   36   0.029  -0.037  -0.058
    1UNL     H1   37  -0.122  -0.443  -0.072
    1UNL     H2   38  -0.103  -0.367   0.086
    1UNL     H3   39  -0.147  -0.231  -0.182
    1UNL     H4   40  -0.103  -0.104   0.089
    1UNL     H5   41  -0.204   0.020  -0.164
    1UNL     H6   42  -0.430  -0.062  -0.226
    1UNL     H7   43  -0.572   0.250  -0.128
    1UNL     H8   44  -0.373   0.378  -0.212
    1UNL     H9   45  -0.303   0.379  -0.044
    1UNL    H10   46  -0.504   0.458   0.034
    1UNL    H11   47  -0.398   0.164   0.098
    1UNL    H12   48  -0.645   0.293   0.134
    1UNL    H13   49  -0.556  -0.012   0.152
    1UNL    H14   50  -0.772   0.011   0.100
    1UNL    H15   51  -0.664   0.006  -0.140
    1UNL    H16   52  -0.561  -0.187   0.031
    1UNL    H17   53  -0.077   0.289  -0.001
    1UNL    H18   54   0.378   0.296  -0.060
    1UNL    H19   55   0.437   0.183  -0.172
    1UNL    H20   56   0.608   0.149  -0.010
    1UNL    H21   57   0.494   0.182   0.122
    1UNL    H22   58   0.675   0.008   0.164
    1UNL    H23   59   0.741  -0.411   0.167
    1UNL    H24   60   0.603  -0.417   0.266
    1UNL    H25   61   0.762  -0.414   0.352
    1UNL    H26   62   0.509  -0.459   0.002
    1UNL    H27   63   0.361  -0.291  -0.059
    1UNL    H28   64   0.283  -0.067  -0.166
    1UNL    H29   65   0.150  -0.210   0.012
    1UNL    H30   66   0.156  -0.052   0.110
    1UNL    H31   67   0.033  -0.058  -0.164
   0.00000   0.00000   0.00000   0.00000   0.00000   0.00000   0.00000   0.00000   0.00000
Generated with MDTraj, t= 93.0
 67
    1UNL     C1    1  -0.176  -0.325  -0.005
    1UNL     C2    2  -0.097  -0.240  -0.074
    1UNL     C3    3  -0.089  -0.097  -0.026
    1UNL     C4    4  -0.212  -0.005  -0.066
    1UNL     O1    5  -0.343  -0.062  -0.038
    1UNL     C5    6  -0.450  -0.012  -0.115
    1UNL     O2    7  -0.430   0.118  -0.174
    1UNL     C6    8  -0.497   0.224  -0.107
    1UNL     C7    9  -0.411   0.359  -0.125
    1UNL     O3   10  -0.471   0.468  -0.060
    1UNL     C8   11  -0.512   0.187   0.047
    1UNL     O4   12  -0.562   0.288   0.129
    1UNL     C9   13  -0.602   0.063   0.070
    1UNL     O5   14  -0.739   0.096   0.072
    1UNL    C10   15  -0.582  -0.036  -0.050
    1UNL     O6   16  -0.609  -0.167  -0.018
    1UNL     O7   17  -0.197   0.126  -0.004
    1UNL    C11   18  -0.071   0.185  -0.003
    1UNL    C12   19   0.046   0.118  -0.036
    1UNL    C13   20   0.173   0.192  -0.033
    1UNL     O8   21   0.176   0.311  -0.008
    1UNL     N1   22   0.293   0.118  -0.061
    1UNL    C14   23   0.418   0.195  -0.042
    1UNL    C15   24   0.490   0.149   0.086
    1UNL    C16   25   0.504  -0.006   0.067
    1UNL    C17   26   0.610  -0.070   0.122
    1UNL    C18   27   0.630  -0.204   0.115
    1UNL     O9   28   0.730  -0.272   0.187
    1UNL    C19   29   0.677  -0.362   0.281
    1UNL    C20   30   0.544  -0.281   0.033
    1UNL    O10   31   0.561  -0.418   0.038
    1UNL    C21   32   0.446  -0.216  -0.024
    1UNL    C22   33   0.417  -0.083  -0.008
    1UNL    C23   34   0.298  -0.025  -0.078
    1UNL    C24   35   0.169  -0.097  -0.033
    1UNL    C25   36   0.040  -0.030  -0.077
    1UNL     H1   37  -0.191  -0.429  -0.023
    1UNL     H2   38  -0.237  -0.301   0.080
    1UNL     H3   39  -0.037  -0.276  -0.161
    1UNL     H4   40  -0.089  -0.081   0.081
    1UNL     H5   41  -0.207   0.018  -0.170
    1UNL     H6   42  -0.458  -0.088  -0.195
    1UNL     H7   43  -0.592   0.230  -0.147
    1UNL     H8   44  -0.411   0.387  -0.231
    1UNL     H9   45  -0.305   0.333  -0.100
    1UNL    H10   46  -0.498   0.435   0.030
    1UNL    H11   47  -0.413   0.158   0.086
    1UNL    H12   48  -0.656   0.302   0.102
    1UNL    H13   49  -0.567   0.017   0.172
    1UNL    H14   50  -0.789   0.017   0.077
    1UNL    H15   51  -0.661  -0.020  -0.121
    1UNL    H16   52  -0.572  -0.191   0.071
    1UNL    H17   53  -0.057   0.286   0.017
    1UNL    H18   54   0.386   0.294  -0.017
    1UNL    H19   55   0.488   0.201  -0.124
    1UNL    H20   56   0.588   0.199   0.101
    1UNL    H21   57   0.428   0.160   0.172
    1UNL    H22   58   0.694  -0.014   0.161
    1UNL    H23   59   0.647  -0.448   0.220
    1UNL    H24   60   0.592  -0.320   0.334
    1UNL    H25   61   0.751  -0.400   0.352
    1UNL    H26   62   0.474  -0.461   0.010
    1UNL    H27   63   0.390  -0.274  -0.095
    1UNL    H28   64   0.316  -0.041  -0.178
    1UNL    H29   65   0.170  -0.208  -0.060
    1UNL    H30   66   0.170  -0.087   0.081
    1UNL    H31   67   0.036  -0.042  -0.185
   0.00000   0.00000   0.00000   0.00000   0.00000   0.00000   0.00000   0.00000   0.00000
Generated with MDTraj, t= 94.0
 67
    1UNL     C1    1  -0.223  -0.279  -0.003
    1UNL     C2    2  -0.137  -0.203  -0.075
    1UNL     C3    3  -0.095  -0.066  -0.033
    1UNL     C4    4  -0.216   0.024  -0.058
    1UNL     O1    5  -0.331  -0.034  -0.012
    1UNL     C5    6  -0.435  -0.036  -0.111
    1UNL     O2    7  -0.438   0.091  -0.185
    1UNL     C6    8  -0.482   0.201  -0.103
    1UNL     C7    9  -0.390   0.324  -0.117
    1UNL     O3   10  -0.447   0.446  -0.090
    1UNL     C8   11  -0.506   0.176   0.051
    1UNL     O4   12  -0.565   0.287   0.113
    1UNL     C9   13  -0.598   0.053   0.067
    1UNL     O5   14  -0.733   0.091   0.070
    1UNL    C10   15  -0.570  -0.056  -0.041
    1UNL     O6   16  -0.566  -0.185   0.009
    1UNL     O7   17  -0.206   0.153  -0.016
    1UNL    C11   18  -0.082   0.202  -0.026
    1UNL    C12   19   0.036   0.133  -0.048
    1UNL    C13   20   0.161   0.205  -0.029
    1UNL     O8   21   0.168   0.325  -0.008
    1UNL     N1   22   0.286   0.128  -0.038
    1UNL    C14   23   0.407   0.210  -0.006
    1UNL    C15   24   0.484   0.133   0.103
    1UNL    C16   25   0.499  -0.013   0.078
    1UNL    C17   26   0.607  -0.087   0.129
    1UNL    C18   27   0.624  -0.228   0.121
    1UNL     O9   28   0.738  -0.280   0.178
    1UNL    C19   29   0.730  -0.372   0.288
    1UNL    C20   30   0.540  -0.294   0.036
    1UNL    O10   31   0.554  -0.431   0.021
    1UNL    C21   32   0.434  -0.218  -0.029
    1UNL    C22   33   0.405  -0.088   0.003
    1UNL    C23   34   0.298  -0.017  -0.079
    1UNL    C24   35   0.161  -0.092  -0.074
    1UNL    C25   36   0.030  -0.008  -0.100
    1UNL     H1   37  -0.243  -0.382  -0.025
    1UNL     H2   38  -0.269  -0.231   0.084
    1UNL     H3   39  -0.073  -0.253  -0.138
    1UNL     H4   40  -0.083  -0.063   0.074
    1UNL     H5   41  -0.226   0.029  -0.164
    1UNL     H6   42  -0.412  -0.117  -0.179
    1UNL     H7   43  -0.571   0.233  -0.144
    1UNL     H8   44  -0.354   0.323  -0.220
    1UNL     H9   45  -0.298   0.320  -0.056
    1UNL    H10   46  -0.486   0.442  -0.000
    1UNL    H11   47  -0.409   0.170   0.104
    1UNL    H12   48  -0.663   0.279   0.102
    1UNL    H13   49  -0.553   0.015   0.167
    1UNL    H14   50  -0.789   0.013   0.074
    1UNL    H15   51  -0.639  -0.052  -0.122
    1UNL    H16   52  -0.505  -0.192   0.084
    1UNL    H17   53  -0.065   0.311  -0.000
    1UNL    H18   54   0.389   0.313   0.017
    1UNL    H19   55   0.471   0.203  -0.092
    1UNL    H20   56   0.585   0.173   0.122
    1UNL    H21   57   0.420   0.137   0.189
    1UNL    H22   58   0.681  -0.036   0.187
    1UNL    H23   59   0.671  -0.464   0.268
    1UNL    H24   60   0.692  -0.318   0.373
    1UNL    H25   61   0.829  -0.413   0.310
    1UNL    H26   62   0.468  -0.470  -0.017
    1UNL    H27   63   0.363  -0.257  -0.101
    1UNL    H28   64   0.326  -0.023  -0.178
    1UNL    H29   65   0.148  -0.182  -0.141
    1UNL    H30   66   0.148  -0.130   0.033
    1UNL    H31   67   0.016  -0.001  -0.207
   0.00000   0.00000   0.00000   0.00000   0.00000   0.00000   0.00000   0.00000   0.00000
Generated with MDTraj, t= 95.0
 67
    1UNL     C1    1  -0.173  -0.293  -0.018
    1UNL     C2    2  -0.112  -0.197  -0.089
    1UNL     C3    3  -0.095  -0.061  -0.031
    1UNL     C4    4  -0.215   0.037  -0.060
    1UNL     O1    5  -0.334  -0.022  -0.010
    1UNL     C5    6  -0.441  -0.038  -0.105
    1UNL     O2    7  -0.462   0.077  -0.184
    1UNL     C6    8  -0.520   0.195  -0.120
    1UNL     C7    9  -0.432   0.303  -0.161
    1UNL     O3   10  -0.455   0.426  -0.098
    1UNL     C8   11  -0.516   0.186   0.036
    1UNL     O4   12  -0.568   0.293   0.105
    1UNL     C9   13  -0.602   0.053   0.063
    1UNL     O5   14  -0.743   0.090   0.065
    1UNL    C10   15  -0.574  -0.069  -0.038
    1UNL     O6   16  -0.558  -0.183   0.040
    1UNL     O7   17  -0.192   0.175  -0.017
    1UNL    C11   18  -0.062   0.225  -0.019
    1UNL    C12   19   0.051   0.151  -0.044
    1UNL    C13   20   0.184   0.212  -0.035
    1UNL     O8   21   0.190   0.325   0.001
    1UNL     N1   22   0.298   0.135  -0.056
    1UNL    C14   23   0.427   0.200  -0.019
    1UNL    C15   24   0.474   0.142   0.113
    1UNL    C16   25   0.496  -0.014   0.097
    1UNL    C17   26   0.614  -0.089   0.135
    1UNL    C18   27   0.624  -0.228   0.118
    1UNL     O9   28   0.735  -0.289   0.176
    1UNL    C19   29   0.711  -0.417   0.230
    1UNL    C20   30   0.530  -0.293   0.035
    1UNL    O10   31   0.551  -0.429   0.006
    1UNL    C21   32   0.424  -0.217  -0.013
    1UNL    C22   33   0.403  -0.084   0.017
    1UNL    C23   34   0.289  -0.015  -0.058
    1UNL    C24   35   0.158  -0.071  -0.000
    1UNL    C25   36   0.040  -0.002  -0.066
    1UNL     H1   37  -0.212  -0.385  -0.059
    1UNL     H2   38  -0.188  -0.266   0.083
    1UNL     H3   39  -0.075  -0.216  -0.195
    1UNL     H4   40  -0.095  -0.078   0.074
    1UNL     H5   41  -0.223   0.031  -0.166
    1UNL     H6   42  -0.410  -0.123  -0.160
    1UNL     H7   43  -0.617   0.199  -0.155
    1UNL     H8   44  -0.419   0.323  -0.266
    1UNL     H9   45  -0.333   0.267  -0.128
    1UNL    H10   46  -0.482   0.409  -0.006
    1UNL    H11   47  -0.411   0.168   0.067
    1UNL    H12   48  -0.660   0.268   0.128
    1UNL    H13   49  -0.571   0.012   0.166
    1UNL    H14   50  -0.800   0.007   0.064
    1UNL    H15   51  -0.660  -0.078  -0.102
    1UNL    H16   52  -0.476  -0.182   0.092
    1UNL    H17   53  -0.057   0.334   0.008
    1UNL    H18   54   0.411   0.307  -0.013
    1UNL    H19   55   0.500   0.184  -0.098
    1UNL    H20   56   0.560   0.200   0.148
    1UNL    H21   57   0.394   0.158   0.184
    1UNL    H22   58   0.692  -0.035   0.190
    1UNL    H23   59   0.672  -0.504   0.169
    1UNL    H24   60   0.667  -0.403   0.328
    1UNL    H25   61   0.813  -0.450   0.253
    1UNL    H26   62   0.478  -0.479  -0.042
    1UNL    H27   63   0.356  -0.279  -0.071
    1UNL    H28   64   0.286  -0.052  -0.154
    1UNL    H29   65   0.159  -0.183  -0.007
    1UNL    H30   66   0.156  -0.041   0.111
    1UNL    H31   67   0.059  -0.016  -0.173
   0.00000   0.00000   0.00000   0.00000   0.00000   0.00000   0.00000   0.00000   0.00000
Generated with MDTraj, t= 96.0
 67
    1UNL     C1    1  -0.130  -0.302  -0.030
    1UNL     C2    2  -0.109  -0.186  -0.095
    1UNL     C3    3  -0.095  -0.057  -0.019
    1UNL     C4    4  -0.215   0.033  -0.056
    1UNL     O1    5  -0.333  -0.021  -0.000
    1UNL     C5    6  -0.433  -0.029  -0.098
    1UNL     O2    7  -0.455   0.081  -0.190
    1UNL     C6    8  -0.524   0.193  -0.131
    1UNL     C7    9  -0.436   0.313  -0.155
    1UNL     O3   10  -0.504   0.434  -0.141
    1UNL     C8   11  -0.534   0.186   0.029
    1UNL     O4   12  -0.594   0.301   0.083
    1UNL     C9   13  -0.607   0.059   0.073
    1UNL     O5   14  -0.745   0.078   0.061
    1UNL    C10   15  -0.563  -0.063  -0.015
    1UNL     O6   16  -0.542  -0.176   0.068
    1UNL     O7   17  -0.192   0.175  -0.035
    1UNL    C11   18  -0.060   0.216  -0.019
    1UNL    C12   19   0.050   0.147  -0.019
    1UNL    C13   20   0.178   0.220  -0.013
    1UNL     O8   21   0.184   0.339  -0.016
    1UNL     N1   22   0.290   0.136  -0.015
    1UNL    C14   23   0.427   0.206  -0.015
    1UNL    C15   24   0.513   0.129   0.091
    1UNL    C16   25   0.506  -0.020   0.089
    1UNL    C17   26   0.608  -0.095   0.148
    1UNL    C18   27   0.621  -0.228   0.126
    1UNL     O9   28   0.715  -0.298   0.204
    1UNL    C19   29   0.740  -0.444   0.182
    1UNL    C20   30   0.528  -0.300   0.031
    1UNL    O10   31   0.549  -0.434  -0.000
    1UNL    C21   32   0.425  -0.222  -0.022
    1UNL    C22   33   0.414  -0.089   0.011
    1UNL    C23   34   0.290  -0.019  -0.037
    1UNL    C24   35   0.153  -0.071   0.013
    1UNL    C25   36   0.045   0.004  -0.052
    1UNL     H1   37  -0.108  -0.391  -0.091
    1UNL     H2   38  -0.141  -0.300   0.077
    1UNL     H3   39  -0.109  -0.189  -0.198
    1UNL     H4   40  -0.109  -0.065   0.087
    1UNL     H5   41  -0.238   0.025  -0.161
    1UNL     H6   42  -0.417  -0.114  -0.160
    1UNL     H7   43  -0.616   0.203  -0.176
    1UNL     H8   44  -0.397   0.307  -0.255
    1UNL     H9   45  -0.348   0.321  -0.090
    1UNL    H10   46  -0.549   0.437  -0.050
    1UNL    H11   47  -0.430   0.196   0.069
    1UNL    H12   48  -0.692   0.291   0.090
    1UNL    H13   49  -0.591   0.038   0.182
    1UNL    H14   50  -0.786  -0.017   0.056
    1UNL    H15   51  -0.641  -0.079  -0.091
    1UNL    H16   52  -0.465  -0.150   0.127
    1UNL    H17   53  -0.054   0.319  -0.016
    1UNL    H18   54   0.406   0.305   0.026
    1UNL    H19   55   0.462   0.226  -0.118
    1UNL    H20   56   0.616   0.157   0.078
    1UNL    H21   57   0.479   0.161   0.189
    1UNL    H22   58   0.686  -0.042   0.198
    1UNL    H23   59   0.793  -0.471   0.088
    1UNL    H24   60   0.652  -0.506   0.194
    1UNL    H25   61   0.804  -0.474   0.266
    1UNL    H26   62   0.472  -0.447  -0.057
    1UNL    H27   63   0.352  -0.267  -0.088
    1UNL    H28   64   0.285  -0.025  -0.140
    1UNL    H29   65   0.146  -0.182  -0.000
    1UNL    H30   66   0.149  -0.045   0.125
    1UNL    H31   67   0.061  -0.001  -0.160
   0.00000   0.00000   0.00000   0.00000   0.00000   0.00000   0.00000   0.00000   0.00000
Generated with MDTraj, t= 97.0
 67
    1UNL     C1    1  -0.099  -0.290  -0.014
    1UNL     C2    2  -0.123  -0.179  -0.084
    1UNL     C3    3  -0.090  -0.053  -0.021
    1UNL     C4    4  -0.209   0.039  -0.056
    1UNL     O1    5  -0.321  -0.007   0.017
    1UNL     C5    6  -0.428  -0.030  -0.073
    1UNL     O2    7  -0.455   0.068  -0.174
    1UNL     C6    8  -0.524   0.189  -0.132
    1UNL     C7    9  -0.449   0.319  -0.175
    1UNL     O3   10  -0.526   0.436  -0.160
    1UNL     C8   11  -0.547   0.193   0.019
    1UNL     O4   12  -0.620   0.307   0.059
    1UNL     C9   13  -0.615   0.063   0.071
    1UNL     O5   14  -0.749   0.072   0.054
    1UNL    C10   15  -0.565  -0.059  -0.002
    1UNL     O6   16  -0.554  -0.172   0.083
    1UNL     O7   17  -0.192   0.175  -0.028
    1UNL    C11   18  -0.058   0.224  -0.033
    1UNL    C12   19   0.055   0.148  -0.048
    1UNL    C13   20   0.186   0.214  -0.014
    1UNL     O8   21   0.190   0.329   0.021
    1UNL     N1   22   0.300   0.133  -0.003
    1UNL    C14   23   0.425   0.206   0.026
    1UNL    C15   24   0.511   0.121   0.115
    1UNL    C16   25   0.508  -0.025   0.094
    1UNL    C17   26   0.615  -0.098   0.153
    1UNL    C18   27   0.624  -0.240   0.124
    1UNL     O9   28   0.722  -0.313   0.195
    1UNL    C19   29   0.754  -0.438   0.130
    1UNL    C20   30   0.531  -0.295   0.040
    1UNL    O10   31   0.531  -0.438   0.031
    1UNL    C21   32   0.425  -0.219  -0.019
    1UNL    C22   33   0.416  -0.080   0.005
    1UNL    C23   34   0.299  -0.004  -0.061
    1UNL    C24   35   0.165  -0.083  -0.034
    1UNL    C25   36   0.046  -0.001  -0.079
    1UNL     H1   37  -0.139  -0.382  -0.047
    1UNL     H2   38  -0.048  -0.289   0.081
    1UNL     H3   39  -0.186  -0.174  -0.178
    1UNL     H4   40  -0.081  -0.069   0.085
    1UNL     H5   41  -0.231   0.032  -0.165
    1UNL     H6   42  -0.411  -0.119  -0.132
    1UNL     H7   43  -0.616   0.184  -0.177
    1UNL     H8   44  -0.436   0.313  -0.281
    1UNL     H9   45  -0.351   0.321  -0.125
    1UNL    H10   46  -0.558   0.439  -0.070
    1UNL    H11   47  -0.447   0.197   0.065
    1UNL    H12   48  -0.718   0.297   0.053
    1UNL    H13   49  -0.596   0.046   0.180
    1UNL    H14   50  -0.792  -0.019   0.057
    1UNL    H15   51  -0.634  -0.091  -0.083
    1UNL    H16   52  -0.494  -0.160   0.160
    1UNL    H17   53  -0.051   0.327  -0.004
    1UNL    H18   54   0.389   0.302   0.065
    1UNL    H19   55   0.476   0.230  -0.070
    1UNL    H20   56   0.610   0.149   0.085
    1UNL    H21   57   0.496   0.146   0.220
    1UNL    H22   58   0.694  -0.047   0.205
    1UNL    H23   59   0.770  -0.421   0.022
    1UNL    H24   60   0.685  -0.518   0.148
    1UNL    H25   61   0.847  -0.466   0.179
    1UNL    H26   62   0.455  -0.478  -0.012
    1UNL    H27   63   0.361  -0.274  -0.086
    1UNL    H28   64   0.302   0.017  -0.163
    1UNL    H29   65   0.174  -0.173  -0.102
    1UNL    H30   66   0.166  -0.114   0.075
    1UNL    H31   67   0.046  -0.018  -0.188
   0.00000   0.00000   0.00000   0.00000   0.00000   0.00000   0.00000   0.00000   0.00000
Generated with MDTraj, t= 98.0
 67
    1UNL     C1    1  -0.071  -0.280   0.012
    1UNL     C2    2  -0.107  -0.177  -0.067
    1UNL     C3    3  -0.082  -0.038  -0.026
    1UNL     C4    4  -0.206   0.048  -0.058
    1UNL     O1    5  -0.328   0.001   0.008
    1UNL     C5    6  -0.440  -0.037  -0.080
    1UNL     O2    7  -0.477   0.054  -0.181
    1UNL     C6    8  -0.531   0.180  -0.141
    1UNL     C7    9  -0.448   0.300  -0.196
    1UNL     O3   10  -0.511   0.425  -0.176
    1UNL     C8   11  -0.548   0.198   0.014
    1UNL     O4   12  -0.625   0.316   0.046
    1UNL     C9   13  -0.618   0.060   0.074
    1UNL     O5   14  -0.757   0.071   0.054
    1UNL    C10   15  -0.569  -0.069   0.006
    1UNL     O6   16  -0.534  -0.169   0.099
    1UNL     O7   17  -0.183   0.184  -0.042
    1UNL    C11   18  -0.056   0.224  -0.004
    1UNL    C12   19   0.065   0.158  -0.019
    1UNL    C13   20   0.190   0.212   0.008
    1UNL     O8   21   0.216   0.320   0.052
    1UNL     N1   22   0.302   0.134  -0.024
    1UNL    C14   23   0.435   0.189   0.022
    1UNL    C15   24   0.483   0.107   0.141
    1UNL    C16   25   0.498  -0.031   0.100
    1UNL    C17   26   0.606  -0.098   0.144
    1UNL    C18   27   0.614  -0.236   0.119
    1UNL     O9   28   0.728  -0.304   0.165
    1UNL    C19   29   0.767  -0.422   0.103
    1UNL    C20   30   0.507  -0.303   0.041
    1UNL    O10   31   0.521  -0.439   0.034
    1UNL    C21   32   0.412  -0.226  -0.013
    1UNL    C22   33   0.400  -0.089   0.010
    1UNL    C23   34   0.300  -0.009  -0.066
    1UNL    C24   35   0.165  -0.073  -0.039
    1UNL    C25   36   0.054   0.024  -0.080
    1UNL     H1   37  -0.094  -0.386   0.002
    1UNL     H2   38  -0.039  -0.255   0.113
    1UNL     H3   39  -0.138  -0.201  -0.164
    1UNL     H4   40  -0.074  -0.036   0.081
    1UNL     H5   41  -0.236   0.049  -0.168
    1UNL     H6   42  -0.410  -0.123  -0.142
    1UNL     H7   43  -0.623   0.183  -0.188
    1UNL     H8   44  -0.428   0.284  -0.300
    1UNL     H9   45  -0.352   0.302  -0.140
    1UNL    H10   46  -0.544   0.429  -0.082
    1UNL    H11   47  -0.447   0.195   0.057
    1UNL    H12   48  -0.720   0.297   0.039
    1UNL    H13   49  -0.613   0.053   0.184
    1UNL    H14   50  -0.811  -0.007   0.052
    1UNL    H15   51  -0.650  -0.106  -0.062
    1UNL    H16   52  -0.471  -0.135   0.163
    1UNL    H17   53  -0.048   0.334   0.030
    1UNL    H18   54   0.433   0.297   0.043
    1UNL    H19   55   0.497   0.175  -0.071
    1UNL    H20   56   0.568   0.148   0.188
    1UNL    H21   57   0.394   0.110   0.206
    1UNL    H22   58   0.680  -0.045   0.201
    1UNL    H23   59   0.769  -0.392  -0.003
    1UNL    H24   60   0.702  -0.507   0.118
    1UNL    H25   61   0.866  -0.443   0.143
    1UNL    H26   62   0.433  -0.468   0.001
    1UNL    H27   63   0.345  -0.265  -0.088
    1UNL    H28   64   0.323  -0.012  -0.166
    1UNL    H29   65   0.146  -0.171  -0.095
    1UNL    H30   66   0.151  -0.091   0.070
    1UNL    H31   67   0.058   0.034  -0.190
   0.00000   0.00000   0.00000   0.00000   0.00000   0.00000   0.00000   0.00000   0.00000
Generated with MDTraj, t= 99.0
 67
    1UNL     C1    1  -0.103  -0.279   0.020
    1UNL     C2    2  -0.131  -0.172  -0.051
    1UNL     C3    3  -0.105  -0.034  -0.004
    1UNL     C4    4  -0.218   0.063  -0.051
    1UNL     O1    5  -0.332   0.018   0.022
    1UNL     C5    6  -0.421  -0.039  -0.076
    1UNL     O2    7  -0.455   0.047  -0.187
    1UNL     C6    8  -0.513   0.176  -0.147
    1UNL     C7    9  -0.427   0.290  -0.198
    1UNL     O3   10  -0.494   0.413  -0.187
    1UNL     C8   11  -0.535   0.189   0.006
    1UNL     O4   12  -0.612   0.310   0.031
    1UNL     C9   13  -0.617   0.061   0.065
    1UNL     O5   14  -0.758   0.069   0.043
    1UNL    C10   15  -0.548  -0.071   0.010
    1UNL     O6   16  -0.499  -0.161   0.111
    1UNL     O7   17  -0.190   0.209  -0.048
    1UNL    C11   18  -0.063   0.240  -0.025
    1UNL    C12   19   0.050   0.156  -0.034
    1UNL    C13   20   0.179   0.204   0.010
    1UNL     O8   21   0.184   0.309   0.067
    1UNL     N1   22   0.299   0.127   0.001
    1UNL    C14   23   0.427   0.190   0.014
    1UNL    C15   24   0.507   0.119   0.122
    1UNL    C16   25   0.498  -0.029   0.094
    1UNL    C17   26   0.590  -0.108   0.156
    1UNL    C18   27   0.612  -0.241   0.119
    1UNL     O9   28   0.722  -0.318   0.169
    1UNL    C19   29   0.781  -0.417   0.091
    1UNL    C20   30   0.521  -0.299   0.033
    1UNL    O10   31   0.532  -0.437  -0.011
    1UNL    C21   32   0.412  -0.227  -0.014
    1UNL    C22   33   0.400  -0.087   0.017
    1UNL    C23   34   0.280  -0.010  -0.052
    1UNL    C24   35   0.147  -0.066  -0.001
    1UNL    C25   36   0.030   0.009  -0.063
    1UNL     H1   37  -0.100  -0.377  -0.025
    1UNL     H2   38  -0.066  -0.268   0.117
    1UNL     H3   39  -0.172  -0.198  -0.150
    1UNL     H4   40  -0.101  -0.034   0.103
    1UNL     H5   41  -0.252   0.044  -0.159
    1UNL     H6   42  -0.377  -0.133  -0.118
    1UNL     H7   43  -0.604   0.193  -0.194
    1UNL     H8   44  -0.400   0.277  -0.301
    1UNL     H9   45  -0.335   0.299  -0.136
    1UNL    H10   46  -0.548   0.413  -0.106
    1UNL    H11   47  -0.437   0.200   0.054
    1UNL    H12   48  -0.708   0.293   0.042
    1UNL    H13   49  -0.616   0.052   0.174
    1UNL    H14   50  -0.787  -0.021   0.058
    1UNL    H15   51  -0.620  -0.136  -0.046
    1UNL    H16   52  -0.452  -0.110   0.181
    1UNL    H17   53  -0.047   0.341   0.011
    1UNL    H18   54   0.406   0.295   0.042
    1UNL    H19   55   0.478   0.197  -0.087
    1UNL    H20   56   0.606   0.155   0.118
    1UNL    H21   57   0.460   0.138   0.220
    1UNL    H22   58   0.657  -0.083   0.238
    1UNL    H23   59   0.782  -0.364  -0.007
    1UNL    H24   60   0.719  -0.505   0.087
    1UNL    H25   61   0.879  -0.440   0.132
    1UNL    H26   62   0.464  -0.458  -0.083
    1UNL    H27   63   0.336  -0.273  -0.078
    1UNL    H28   64   0.288  -0.011  -0.155
    1UNL    H29   65   0.135  -0.178  -0.023
    1UNL    H30   66   0.135  -0.053   0.106
    1UNL    H31   67   0.030  -0.005  -0.172
   0.00000   0.00000   0.00000   0.00000   0.00000   0.00000   0.00000   0.00000   0.00000
