1TPCN00041
15
    1res  C1    1   -0.080   0.078  -0.224
    1res  C2    2   -0.168  -0.113  -0.057
    1res  C3    3   -0.493   0.014  -0.085
    1res  C4    4   -0.654  -0.157  -0.180
    1res  C5    5   -0.684   0.164   0.013
    1res  C6    6   -0.403   0.183   0.106
    1res  C7    7   -0.136  -0.216   0.186
    1res  C8    8    0.016  -0.040   0.082
    1res  C9    9    0.116  -0.134   0.318
    1res  C10   10    0.231  -0.078   0.026
    1res  C11   11    0.402   0.039   0.302
    1res  C12   12    0.470  -0.035   0.077
    1res  C13   13    0.680   0.038   0.064
    1res  C14   14    0.911   0.101  -0.012
    1res  C15   15    0.571  -0.087  -0.196
  10.00000  10.00000  10.00000
