[ moleculetype ]
; name        nrexcl
res           1

[ atoms ]
;    nr  type  resnr resid  atom  cgnr     charge       mass
      1 SX2       1 res   C1        1      0.000     54.000
      2 SN6d      1 res   C2        2      0.000     54.000
      3 TC5       1 res   C3        3      0.000     36.000

[ bonds ]
;  ai    aj   funct      b0(nm)          k(kJ/mol/nm^2)
    1     2     1      0.31241         104205.9
    1     3     1      0.30835         222586.6
    2     3     1      0.35693         110630.2

[ angles ]
;  ai    aj    ak  funct     th0(deg)        k(kJ/mol/rad^2)
    1     2     3     1     54.37042          9800.76
    1     3     2     1     55.43518          7843.73
    2     1     3     1     70.19437          6445.89

[ dihedrals ]
;  ai    aj    ak    al  funct   phi0(deg)        k(kJ/mol)   mult
