1174913-68-9
6
    1res  C1    1   -0.012   0.209   0.010
    1res  C2    2    0.210   0.188  -0.058
    1res  C3    3    0.316  -0.015  -0.060
    1res  C4    4    0.204  -0.203   0.008
    1res  C5    5   -0.019  -0.193   0.078
    1res  C6    6   -0.161   0.010   0.044
  10.00000  10.00000  10.00000
