1TPCN05806
39
    1res  C1    1    0.949  -0.288   0.161
    1res  C2    2    0.696  -0.103   0.057
    1res  C3    3    0.530   0.067   0.112
    1res  C4    4    0.353   0.185  -0.107
    1res  C5    5    0.346  -0.137  -0.092
    1res  C6    6    0.136   0.038   0.198
    1res  C7    7   -0.065   0.102   0.016
    1res  C8    8   -0.196  -0.091   0.132
    1res  C9    9   -0.443  -0.199   0.189
    1res  C10   10   -0.554  -0.484   0.342
    1res  C11   11   -0.668  -0.179   0.339
    1res  C12   12   -0.667  -0.033   0.175
    1res  C13   13   -0.931  -0.076   0.214
    1res  C14   14   -1.230  -0.110   0.249
    1res  C15   15   -1.050  -0.205  -0.028
    1res  C16   16   -1.058   0.015  -0.063
    1res  C17   17   -0.940   0.135   0.068
    1res  C18   18   -0.962   0.314  -0.033
    1res  C19   19   -1.120   0.414  -0.264
    1res  C20   20   -1.005   0.609  -0.160
    1res  C21   21   -0.792   0.555  -0.185
    1res  C22   22   -0.758   0.409   0.047
    1res  C23   23   -0.521  -0.056   0.031
    1res  C24   24   -0.448  -0.211  -0.161
    1res  C25   25   -0.328  -0.507  -0.231
    1res  C26   26   -0.531  -0.346  -0.412
    1res  C27   27   -0.723  -0.246  -0.295
    1res  C28   28   -0.599  -0.007  -0.270
    1res  C29   29   -0.060  -0.273   0.039
    1res  C30   30    0.287  -0.231   0.155
    1res  C31   31    0.675   0.020  -0.231
    1res  C32   32    0.776  -0.025  -0.490
    1res  C33   33    0.945   0.014  -0.253
    1res  C34   34    0.857   0.216  -0.023
    1res  C35   35    1.083   0.293   0.092
    1res  C36   36    1.368   0.349   0.058
    1res  C37   37    1.261   0.221   0.305
    1res  C38   38    1.057   0.151   0.369
    1res  C39   39    0.887   0.335   0.281
  10.00000  10.00000  10.00000
