1TPCN00427
22
    1res  C1    1   -0.181   0.447   0.086
    1res  C2    2   -0.262   0.209   0.046
    1res  C3    3   -0.058   0.134   0.193
    1res  C4    4    0.102   0.081   0.062
    1res  C5    5    0.301  -0.026   0.016
    1res  C6    6    0.421  -0.166  -0.098
    1res  C7    7    0.687  -0.111   0.090
    1res  C8    8    0.818   0.060  -0.097
    1res  C9    9    0.960  -0.189   0.027
    1res  C10   10    0.791  -0.344  -0.115
    1res  C11   11    0.632  -0.401   0.036
    1res  C12   12    0.449   0.146  -0.043
    1res  C13   13    0.287   0.167  -0.249
    1res  C14   14    0.133   0.254  -0.060
    1res  C15   15   -0.279   0.082   0.320
    1res  C16   16   -0.611   0.261   0.325
    1res  C17   17   -0.377  -0.010   0.013
    1res  C18   18   -0.511  -0.141  -0.155
    1res  C19   19   -0.397  -0.388  -0.037
    1res  C20   20   -0.523  -0.366  -0.347
    1res  C21   21   -0.590   0.073  -0.225
    1res  C22   22   -0.756   0.044   0.096
  10.00000  10.00000  10.00000
