1TPCN05242
39
    1res  C1    1   -0.016   0.173   0.137
    1res  C2    2   -0.091  -0.099   0.059
    1res  C3    3   -0.015   0.092  -0.156
    1res  C4    4   -0.198  -0.125  -0.245
    1res  C5    5   -0.437  -0.254  -0.154
    1res  C6    6   -0.654  -0.379   0.002
    1res  C7    7   -0.613  -0.663   0.132
    1res  C8    8   -0.612  -0.855  -0.056
    1res  C9    9   -0.445  -0.855   0.192
    1res  C10   10   -0.482  -0.721   0.399
    1res  C11   11   -0.442  -0.501   0.278
    1res  C12   12   -0.497  -0.124   0.114
    1res  C13   13   -0.576  -0.000  -0.040
    1res  C14   14   -0.845   0.136  -0.104
    1res  C15   15   -1.098  -0.008  -0.198
    1res  C16   16   -1.040   0.021   0.068
    1res  C17   17   -0.870   0.094   0.222
    1res  C18   18   -0.733   0.198   0.087
    1res  C19   19   -0.607   0.374   0.243
    1res  C20   20   -0.404   0.269   0.305
    1res  C21   21   -0.545   0.629   0.339
    1res  C22   22   -0.534   0.654   0.121
    1res  C23   23   -0.720   0.544   0.080
    1res  C24   24   -0.447   0.019  -0.215
    1res  C25   25    0.144  -0.247  -0.190
    1res  C26   26    0.277  -0.071  -0.346
    1res  C27   27    0.326   0.225  -0.253
    1res  C28   28    0.514  -0.102  -0.210
    1res  C29   29    0.721   0.055  -0.153
    1res  C30   30    0.661   0.363  -0.207
    1res  C31   31    0.599   0.435   0.059
    1res  C32   32    0.701   0.231   0.211
    1res  C33   33    0.901   0.226   0.023
    1res  C34   34    1.137   0.078  -0.071
    1res  C35   35    1.261   0.225  -0.254
    1res  C36   36    1.400   0.021  -0.038
    1res  C37   37    1.282  -0.143   0.068
    1res  C38   38    1.107  -0.040   0.204
    1res  C39   39    0.430   0.039   0.048
  10.00000  10.00000  10.00000
