[ moleculetype ]
; name        nrexcl
res           1

[ atoms ]
;    nr  type resnr resid  atom  cgnr     charge       mass
      1 SC4       1 res   C1        1      0.000     54.000
      2 TC3       1 res   C2        2      0.000     36.000
      3 SC5       1 res   C3        3      0.000     54.000
      4 SN4a      1 res   C4        4      0.000     54.000
      5 SN4a      1 res   C5        5      0.000     54.000
      6 TN3r      1 res   C6        6      0.000     36.000
      7 SN4a      1 res   C7        7      0.000     54.000
      8 TP1       1 res   C8        8      0.000     36.000
      9 TN6       1 res   C9        9      0.000     36.000
     10 TN6       1 res   C10      10      0.000     36.000
     11 TN6       1 res   C11      11      0.000     36.000
     12 TN6       1 res   C12      12      0.000     36.000
     13 TN6       1 res   C13      13      0.000     36.000
     14 SN4a      1 res   C14      14      0.000     54.000
     15 TP1       1 res   C15      15      0.000     36.000
     16 TN6       1 res   C16      16      0.000     36.000
     17 TN6       1 res   C17      17      0.000     36.000
     18 TN6       1 res   C18      18      0.000     36.000
     19 SN4a      1 res   C19      19      0.000     54.000
     20 TP1       1 res   C20      20      0.000     36.000
     21 TN6       1 res   C21      21      0.000     36.000
     22 TN6       1 res   C22      22      0.000     36.000
     23 TN6       1 res   C23      23      0.000     36.000
     24 TN6       1 res   C24      24      0.000     36.000
     25 TC3       1 res   C25      25      0.000     36.000
     26 SC4       1 res   C26      26      0.000     54.000
     27 TC3       1 res   C27      27      0.000     36.000
     28 SC4       1 res   C28      28      0.000     54.000
     29 SC4       1 res   C29      29      0.000     54.000
     30 TC3       1 res   C30      30      0.000     36.000
     31 TN6       1 res   C31      31      0.000     36.000
     32 TC4       1 res   C32      32      0.000     36.000
     33 SN4a      1 res   C33      33      0.000     54.000
     34 SN4a      1 res   C34      34      0.000     54.000
     35 TP1       1 res   C35      35      0.000     36.000
     36 TN6       1 res   C36      36      0.000     36.000
     37 TN6       1 res   C37      37      0.000     36.000
     38 TN6       1 res   C38      38      0.000     36.000
     39 TC3       1 res   C39      39      0.000     36.000

[ bonds ]
;  ai    aj   funct      b0(nm)        k
    1     2     1      0.29243    20000
    1     3     1      0.30397    20000
    2     3     1      0.29657    20000
    3     4     1      0.29773    20000
    3    25     1      0.37590    20000
    3    26     1      0.38470    20000
    4     5     1      0.28608    20000
    5     6     1      0.29477    20000
    5    12     1      0.30392    20000
    5    24     1      0.27922    20000
    6     7     1      0.31549    20000
    7     8     1      0.26854    20000
    7     9     1      0.26149    20000
    7    11     1      0.27736    20000
    9    10     1      0.24948    20000
   10    11     1      0.25408    20000
   12    13     1      0.21261    20000
   13    14     1      0.30826    20000
   13    24     1      0.21774    20000
   14    15     1      0.30598    20000
   14    16     1      0.28495    20000
   14    18     1      0.23013    20000
   16    17     1      0.24053    20000
   17    18     1      0.21869    20000
   18    19     1      0.26651    20000
   19    20     1      0.23635    20000
   19    21     1      0.28005    20000
   19    23     1      0.26157    20000
   21    22     1      0.22037    20000
   22    23     1      0.22051    20000
   25    26     1      0.27015    20000
   26    27     1      0.31445    20000
   26    28     1      0.27537    20000
   27    28     1      0.38007    20000
   28    29     1      0.26677    20000
   28    39     1      0.30587    20000
   29    30     1      0.31804    20000
   29    32     1      0.40467    20000
   29    39     1      0.35421    20000
   30    31     1      0.28234    20000
   31    32     1      0.27438    20000
   32    33     1      0.27382    20000
   33    34     1      0.29422    20000
   34    35     1      0.26627    20000
   34    36     1      0.27133    20000
   34    38     1      0.30102    20000
   36    37     1      0.22781    20000
   37    38     1      0.24417    20000
