[ moleculetype ]
; name        nrexcl
res           1

[ atoms ]
;    nr  type  resnr resid  atom  cgnr     charge       mass
      1 TN6a      1 res   C1        1      0.000     36.000
      2 TC5       1 res   C2        2      0.000     36.000
      3 TC5       1 res   C3        3      0.000     36.000
      4 TC5       1 res   C4        4      0.000     36.000
      5 TC6       1 res   C5        5      0.000     36.000

[ constraints ]
;  ai    aj   funct      b0(nm)
    1     2     1      0.23656
    2     3     1      0.24737
    1     5     1      0.21208
    2     5     1      0.21079
    3     4     1      0.29202
    2     4     1      0.25206

[ bonds ]
;  ai    aj   funct      b0(nm)          k(kJ/mol/nm^2)

[ angles ]
;  ai    aj    ak  funct     th0(deg)        k(kJ/mol/rad^2)
    1     2     3     1    125.95062          1455.71
    1     2     4     1    162.05412           979.32
    1     2     5     1     56.25434          3722.51
    1     5     2     1     68.02697          5121.59
    2     1     5     1     55.71866          8489.79
    2     3     4     1     54.96193         10074.44
    2     4     3     1     53.47279          8067.47
    3     2     4     1     71.56525          3984.91
    3     2     5     1    175.43218          2114.70
    4     2     5     1    106.03031           772.30

[ dihedrals ]
;  ai    aj    ak    al  funct   phi0(deg)        k(kJ/mol)   mult
    1     2     3     4     1      0.01005        7.855      1
    1     2     4     3     1     -0.22931       20.336      1
    1     5     2     3     1      2.78936       15.480      1
    1     5     2     4     1      0.91019        7.014      1
    3     2     1     5     1     -0.03015        7.844      1
    3     4     2     5     1     -0.00423        6.366      1
    4     2     1     5     1   -178.63958       17.009      1
    4     3     2     5     1    174.48537       18.880      1
