[ moleculetype ]
; name        nrexcl
res           1

[ atoms ]
;    nr  type  resnr resid  atom  cgnr     charge       mass
      1 TN6a      1 res   C1        1      0.000     36.000
      2 TC5       1 res   C2        2      0.000     36.000
      3 TC5       1 res   C3        3      0.000     36.000
      4 TC5       1 res   C4        4      0.000     36.000
      5 TC6       1 res   C5        5      0.000     36.000

[ constraints ]
;  ai    aj   funct      b0(nm)
    1     2     1      0.23644
    2     3     1      0.24765
    1     5     1      0.21252
    2     5     1      0.21002
    3     4     1      0.29140
    2     4     1      0.25105

[ bonds ]
;  ai    aj   funct      b0(nm)          k(kJ/mol/nm^2)

[ angles ]
;  ai    aj    ak  funct     th0(deg)        k(kJ/mol/rad^2)
    1     2     3     1    125.71920          3804.25
    1     2     4     1    162.36444          1456.60
    1     2     5     1     56.46004         10417.85
    1     5     2     1     68.06778          2629.57
    2     1     5     1     55.47218          4448.14
    2     3     4     1     54.78518         13624.07
    2     4     3     1     53.70824          7471.23
    3     2     4     1     71.50657          7006.79
    3     2     5     1    176.03206          2271.05
    4     2     5     1    106.14256          1114.15

[ dihedrals ]
;  ai    aj    ak    al  funct   phi0(deg)        k(kJ/mol)   mult
    1     2     3     4     1      0.91398        8.561      1
    1     2     4     3     1     -0.16070       19.115      1
    1     5     2     3     1      2.92191       23.334      1
    1     5     2     4     1     -0.00664        6.339      1
    3     2     1     5     1      0.02320        7.836      1
    3     4     2     5     1      0.01540        6.350      1
    4     2     1     5     1    179.57308       17.065      1
    4     3     2     5     1   -175.99876       25.777      1
