1TPCN04160
31
    1res  C1    1   -0.336   0.205  -0.366
    1res  C2    2   -0.275   0.065  -0.158
    1res  C3    3   -0.136   0.003  -0.033
    1res  C4    4    0.045   0.160   0.028
    1res  C5    5    0.180  -0.021   0.203
    1res  C6    6    0.225  -0.287  -0.040
    1res  C7    7    0.392  -0.138   0.159
    1res  C8    8    0.364  -0.040  -0.207
    1res  C9    9    0.590  -0.274  -0.042
    1res  C10   10    0.657  -0.151  -0.222
    1res  C11   11    0.754  -0.037  -0.143
    1res  C12   12    0.958   0.163  -0.174
    1res  C13   13    0.747   0.351  -0.140
    1res  C14   14    0.538   0.209  -0.253
    1res  C15   15    0.748  -0.069   0.128
    1res  C16   16   -0.129  -0.238   0.031
    1res  C17   17   -0.147  -0.100   0.280
    1res  C18   18   -0.521   0.111  -0.106
    1res  C19   19   -0.563  -0.109  -0.049
    1res  C20   20   -0.524  -0.277  -0.207
    1res  C21   21   -0.388  -0.395  -0.319
    1res  C22   22   -0.662  -0.475  -0.163
    1res  C23   23   -0.546  -0.464   0.058
    1res  C24   24   -0.568  -0.235   0.130
    1res  C25   25   -0.525   0.204   0.123
    1res  C26   26   -0.687   0.389   0.232
    1res  C27   27   -0.865   0.233   0.215
    1res  C28   28   -0.676   0.389   0.464
    1res  C29   29   -0.530   0.197   0.491
    1res  C30   30   -0.396   0.265   0.289
    1res  C31   31   -0.518   0.331  -0.234
  10.00000  10.00000  10.00000
