[ moleculetype ]
; name        nrexcl
res           1

[ atoms ]
;    nr  type  resnr resid  atom  cgnr     charge       mass
      1 SC2       1 res   C1        1      0.000     54.000
      2 TC3       1 res   C2        2      0.000     36.000
      3 TC5       1 res   C3        3      0.000     36.000
      4 TC3       1 res   C4        4      0.000     36.000
      5 SC3       1 res   C5        5      0.000     54.000
      6 SN4a      1 res   C6        6      0.000     54.000
      7 SP1       1 res   C7        7      0.000     54.000
      8 TN4a      1 res   C8        8      0.000     36.000
      9 SC5       1 res   C9        9      0.000     54.000
     10 TN6a      1 res   C10      10      0.000     36.000
     11 TC5       1 res   C11      11      0.000     36.000
     12 TC5       1 res   C12      12      0.000     36.000
     13 TC5       1 res   C13      13      0.000     36.000
     14 TC5       1 res   C14      14      0.000     36.000

[ constraints ]
;  ai    aj   funct      b0(nm)
    1     2     1      0.26812
    5    11     1      0.32018
    2     3     1      0.29939
    4     5     1      0.24828
   12    14     1      0.29864
   13    14     1      0.28815
    3     4     1      0.30977
    7     8     1      0.24712
    5     6     1      0.28362
    8    10     1      0.26169
    9    10     1      0.29239
    6     7     1      0.21954
   12    13     1      0.25644
    2     4     1      0.24669
    8     9     1      0.23239

[ bonds ]
;  ai    aj   funct      b0(nm)          k(kJ/mol/nm^2)
   11    12     1      0.25527          10171.4

[ angles ]
;  ai    aj    ak  funct     th0(deg)        k(kJ/mol/rad^2)
    1     2     3     1     87.94012           608.99
    1     2     4     1    104.96743            42.96
    2     3     4     1     47.71778          6929.82
    2     4     3     1     63.94959          1834.65
    2     4     5     1    116.69891           149.53
    3     2     4     1     68.33278          1934.97
    3     4     5     1     75.26121           958.88
    4     5     6     1    130.25011            40.25
    4     5    11     1     78.14322           124.75
    5     6     7     1    107.66756           393.07
    5    11    12     1    150.52338           134.88
    6     5    11     1    106.35861           564.36
    6     7     8     1    155.20174           218.59
    7     8     9     1    112.38642           406.57
    7     8    10     1    158.52728           337.06
    8     9    10     1     58.49651          1982.66
    8    10     9     1     49.18921          3405.55
    9     8    10     1     72.31437          1620.62
   11    12    13     1    141.81541           156.05
   11    12    14     1     81.17485           171.82
   12    13    14     1     66.22050          5239.28
   12    14    13     1     51.78334         12849.31
   13    12    14     1     61.99618          6331.41

[ dihedrals ]
;  ai    aj    ak    al  funct   phi0(deg)        k(kJ/mol)   mult
    1     2     3     4     1    -65.42067       17.748      1
    1     2     4     3     1    104.81586       11.290      1
    1     2     4     5     1     47.69346       14.998      1
    2     3     4     5     1    -49.16422       17.100      1
    2     4     5     6     1     38.14263       19.152      1
    2     4     5    11     1    -58.99798       15.792      1
    3     2     4     5     1    126.77560       15.745      1
    3     4     5     6     1     -8.03704       12.257      1
    3     4     5    11     1   -108.14139        7.842      1
    4     5     6     7     1     93.50384       17.680      1
    4     5    11    12     1    101.81147       28.807      1
    5     6     7     8     1    176.59766       21.915      1
    5    11    12    13     1     41.56867       21.481      1
    5    11    12    14     1     30.19904       18.094      1
    6     5    11    12     1    -25.43350       27.783      1
    6     7     8     9     1     23.65805       27.843      1
    6     7     8    10     1    123.22920       31.650      1
    7     6     5    11     1    178.87916       15.761      1
    7     8     9    10     1    -22.23271       12.094      1
    7     8    10     9     1     70.09949       23.202      1
   11    12    13    14     1    169.27460       16.267      1
   11    12    14    13     1     -6.97514       11.497      1
