1TPCN00328
13
    1res  C1    1   -0.128   0.388  -0.049
    1res  C2    2   -0.127   0.103   0.221
    1res  C3    3   -0.063  -0.167   0.068
    1res  C4    4   -0.283  -0.269   0.127
    1res  C5    5   -0.171  -0.221  -0.116
    1res  C6    6   -0.169   0.010  -0.174
    1res  C7    7    0.028   0.021   0.014
    1res  C8    8    0.176   0.010  -0.098
    1res  C9    9    0.243  -0.184  -0.247
    1res  C10   10    0.364   0.028  -0.184
    1res  C11   11    0.180   0.192   0.035
    1res  C12   12    0.097  -0.078   0.240
    1res  C13   13    0.540   0.134  -0.208
  10.00000  10.00000  10.00000
