[ moleculetype ]
; name        nrexcl
res           1

[ atoms ]
;    nr  type resnr resid  atom  cgnr     charge       mass
      1 SC2       1 res   C1        1      0.000     54.000
      2 SC2       1 res   C2        2      0.000     54.000
      3 SN3r      1 res   C3        3      0.000     54.000
      4 SN4a      1 res   C4        4      0.000     54.000
      5 TN3r      1 res   C5        5      0.000     36.000
      6 TN4a      1 res   C6        6      0.000     36.000
      7 TC4       1 res   C7        7      0.000     36.000
      8 TN6       1 res   C8        8      0.000     36.000
      9 TN6       1 res   C9        9      0.000     36.000
     10 TN6       1 res   C10      10      0.000     36.000
     11 TN6       1 res   C11      11      0.000     36.000
     12 TN6       1 res   C12      12      0.000     36.000
     13 TN6       1 res   C13      13      0.000     36.000
     14 SN4a      1 res   C14      14      0.000     54.000
     15 TP1       1 res   C15      15      0.000     36.000
     16 TN6       1 res   C16      16      0.000     36.000
     17 TN6       1 res   C17      17      0.000     36.000
     18 TN6       1 res   C18      18      0.000     36.000
     19 SN6       1 res   C19      19      0.000     54.000
     20 SC3       1 res   C20      20      0.000     54.000
     21 SN6       1 res   C21      21      0.000     54.000
     22 SC4       1 res   C22      22      0.000     54.000
     23 SC4       1 res   C23      23      0.000     54.000
     24 TC3       1 res   C24      24      0.000     36.000
     25 TN6       1 res   C25      25      0.000     36.000
     26 SC4       1 res   C26      26      0.000     54.000
     27 SN6       1 res   C27      27      0.000     54.000
     28 SN4a      1 res   C28      28      0.000     54.000
     29 TN6       1 res   C29      29      0.000     36.000
     30 TN6       1 res   C30      30      0.000     36.000
     31 TN6       1 res   C31      31      0.000     36.000

[ bonds ]
;  ai    aj   funct      b0(nm)        k
    1     2     1      0.35774    20000
    2     3     1      0.26703    20000
    3     4     1      0.33478    20000
    3    19     1      0.29486    20000
    4     5     1      0.29938    20000
    4    11     1      0.29085    20000
    4    13     1      0.24642    20000
    5     6     1      0.24658    20000
    6     7     1      0.32243    20000
    6    10     1      0.20776    20000
    7     8     1      0.26959    20000
    8     9     1      0.26164    20000
    9    10     1      0.24995    20000
   11    12     1      0.24583    20000
   12    13     1      0.23784    20000
   13    14     1      0.30389    20000
   14    15     1      0.29307    20000
   14    16     1      0.27070    20000
   14    18     1      0.25795    20000
   16    17     1      0.21794    20000
   17    18     1      0.23727    20000
   19    20     1      0.24239    20000
   20    21     1      0.33680    20000
   20    22     1      0.30293    20000
   21    22     1      0.36607    20000
   22    23     1      0.39936    20000
   22    27     1      0.28724    20000
   23    24     1      0.29961    20000
   23    26     1      0.33390    20000
   23    27     1      0.37328    20000
   24    25     1      0.27709    20000
   25    26     1      0.27314    20000
   27    28     1      0.40929    20000
   28    29     1      0.26137    20000
   28    31     1      0.30045    20000
   29    30     1      0.23787    20000
   30    31     1      0.25048    20000
