[ moleculetype ]
; name        nrexcl
res           1

[ atoms ]
;    nr  type resnr resid  atom  cgnr     charge       mass
      1 SN4a      1 res   C1        1      0.000     54.000
      2 SN4a      1 res   C2        2      0.000     54.000
      3 TC3       1 res   C3        3      0.000     36.000
      4 TC4       1 res   C4        4      0.000     36.000
      5 SC4       1 res   C5        5      0.000     54.000
      6 SC2       1 res   C6        6      0.000     54.000
      7 P1        1 res   C7        7      0.000     72.000
      8 TC3       1 res   C8        8      0.000     36.000
      9 C1        1 res   C9        9      0.000     72.000
     10 SC2       1 res   C10      10      0.000     54.000
     11 P1        1 res   C11      11      0.000     72.000

[ bonds ]
;  ai    aj   funct      b0(nm)        k
    1     2     1      0.30315    20000
    2     3     1      0.27251    20000
    2     4     1      0.33124    20000
    2     5     1      0.58015    20000
    2    11     1      0.37868    20000
    3     4     1      0.32253    20000
    4     5     1      0.54417    20000
    5     6     1      0.41393    20000
    5     9     1      0.57034    20000
    6     7     1      0.35164    20000
    7     8     1      0.31433    20000
    8     9     1      0.36972    20000
    9    10     1      0.33756    20000
