1TPCN04828
24
    1res  C1    1   -0.431   0.309  -0.254
    1res  C2    2   -0.546   0.233  -0.006
    1res  C3    3   -0.345   0.055  -0.125
    1res  C4    4   -0.544  -0.053   0.113
    1res  C5    5   -0.780  -0.218  -0.040
    1res  C6    6   -0.928  -0.395  -0.229
    1res  C7    7   -0.951  -0.376   0.069
    1res  C8    8   -0.973  -0.194   0.200
    1res  C9    9   -0.844  -0.007   0.080
    1res  C10   10   -0.268   0.054   0.237
    1res  C11   11   -0.106  -0.138   0.069
    1res  C12   12   -0.004   0.106  -0.145
    1res  C13   13    0.045   0.126   0.149
    1res  C14   14    0.302   0.160   0.075
    1res  C15   15    0.428   0.040  -0.163
    1res  C16   16    0.607   0.073  -0.005
    1res  C17   17    0.798  -0.003  -0.132
    1res  C18   18    0.878  -0.206  -0.405
    1res  C19   19    1.018  -0.161  -0.145
    1res  C20   20    0.973  -0.141   0.106
    1res  C21   21    0.967   0.098   0.031
    1res  C22   22    0.561  -0.087   0.206
    1res  C23   23    0.548   0.186   0.315
    1res  C24   24    0.193  -0.029   0.290
  10.00000  10.00000  10.00000
