1TPCN05625
33
    1res  C1    1    1.076   0.245  -0.169
    1res  C2    2    0.931  -0.087  -0.134
    1res  C3    3    0.838  -0.005  -0.389
    1res  C4    4    0.665  -0.082  -0.260
    1res  C5    5    0.580   0.092  -0.180
    1res  C6    6    0.518   0.103   0.087
    1res  C7    7    0.277  -0.017  -0.011
    1res  C8    8    0.057   0.082  -0.140
    1res  C9    9    0.149   0.275   0.072
    1res  C10   10    0.029   0.382  -0.175
    1res  C11   11   -0.225   0.068   0.143
    1res  C12   12   -0.326   0.137  -0.144
    1res  C13   13   -0.329  -0.168  -0.079
    1res  C14   14   -0.629   0.079   0.081
    1res  C15   15   -0.794   0.001  -0.154
    1res  C16   16   -0.858  -0.182   0.032
    1res  C17   17   -1.156  -0.109  -0.016
    1res  C18   18   -1.291   0.137  -0.159
    1res  C19   19   -1.435  -0.084   0.043
    1res  C20   20   -1.299   0.019   0.208
    1res  C21   21   -1.158  -0.155   0.284
    1res  C22   22   -0.799  -0.354   0.214
    1res  C23   23   -0.664  -0.340  -0.089
    1res  C24   24   -0.450  -0.174   0.207
    1res  C25   25    0.007  -0.082   0.195
    1res  C26   26    0.702   0.296   0.064
    1res  C27   27    0.571   0.307  -0.174
    1res  C28   28    0.753  -0.315  -0.053
    1res  C29   29    1.025  -0.145   0.061
    1res  C30   30    1.199   0.049   0.090
    1res  C31   31    1.390  -0.031   0.187
    1res  C32   32    1.223  -0.155   0.348
    1res  C33   33    1.186  -0.283   0.119
  10.00000  10.00000  10.00000
