1TPCN05947
37
    1res  C1    1    1.560  -0.099  -0.008
    1res  C2    2    1.355   0.095  -0.109
    1res  C3    3    1.156   0.079  -0.135
    1res  C4    4    0.900   0.031  -0.231
    1res  C5    5    0.972   0.314  -0.116
    1res  C6    6    0.662  -0.104  -0.135
    1res  C7    7    0.460  -0.202   0.048
    1res  C8    8    0.180  -0.172   0.211
    1res  C9    9    0.084   0.122   0.187
    1res  C10   10    0.158   0.028   0.444
    1res  C11   11    0.250   0.288   0.335
    1res  C12   12   -0.005  -0.097  -0.039
    1res  C13   13   -0.224   0.226  -0.007
    1res  C14   14   -0.224   0.004  -0.162
    1res  C15   15   -0.502   0.040  -0.185
    1res  C16   16   -0.663   0.136  -0.004
    1res  C17   17   -0.798  -0.072   0.006
    1res  C18   18   -1.043  -0.251   0.120
    1res  C19   19   -1.255  -0.227   0.250
    1res  C20   20   -1.129  -0.030   0.310
    1res  C21   21   -1.078   0.031   0.098
    1res  C22   22   -1.152   0.176  -0.158
    1res  C23   23   -1.224   0.007  -0.399
    1res  C24   24   -1.434   0.070  -0.206
    1res  C25   25   -1.457   0.223  -0.045
    1res  C26   26   -1.256   0.303   0.053
    1res  C27   27   -0.724  -0.209  -0.183
    1res  C28   28   -0.358  -0.229  -0.175
    1res  C29   29   -0.157  -0.174   0.248
    1res  C30   30    0.459  -0.302   0.286
    1res  C31   31    0.610  -0.110   0.337
    1res  C32   32    0.732  -0.087   0.139
    1res  C33   33    0.985  -0.218  -0.243
    1res  C34   34    1.100  -0.128  -0.083
    1res  C35   35    1.433   0.192  -0.301
    1res  C36   36    1.631   0.233  -0.197
    1res  C37   37    1.660   0.160   0.001
  10.00000  10.00000  10.00000
