[ moleculetype ]
; name        nrexcl
res           1

[ atoms ]
;    nr  type  resnr resid  atom  cgnr     charge       mass
      1 SP3       1 res   C1        1      0.000     54.000
      2 SN6       1 res   C2        2      0.000     54.000
      3 SP4       1 res   C3        3      0.000     54.000
      4 TN4a      1 res   C4        4      0.000     36.000
      5 TP1       1 res   C5        5      0.000     36.000

[ constraints ]
;  ai    aj   funct      b0(nm)
    4     5     1      0.22253
    3     4     1      0.27642
    2     4     1      0.27329

[ bonds ]
;  ai    aj   funct      b0(nm)          k(kJ/mol/nm^2)
    1     2     1      0.40924          11133.5
    2     3     1      0.31912          12623.7

[ angles ]
;  ai    aj    ak  funct     th0(deg)        k(kJ/mol/rad^2)
    1     2     3     1     75.96938           474.20
    1     2     4     1    102.90912            35.07
    2     3     4     1     54.03056          1880.48
    2     4     3     1     71.00209           615.00
    2     4     5     1    105.79251            68.95
    3     2     4     1     54.96421          1510.44
    3     4     5     1     97.39019           802.04

[ dihedrals ]
;  ai    aj    ak    al  funct   phi0(deg)        k(kJ/mol)   mult
    1     2     3     4     1     58.22564       23.996      1
    1     2     4     3     1   -128.10823       17.916      1
    1     2     4     5     1    -38.91296       18.024      1
    2     3     4     5     1     74.70697       17.073      1
    3     2     4     5     1    -88.02273        9.300      1
