[ moleculetype ]
; name        nrexcl
res           1

[ atoms ]
;    nr  type resnr resid  atom  cgnr     charge       mass
      1 SX2       1 res   C1        1      0.000     54.000
      2 SX2       1 res   C2        2      0.000     54.000
      3 TX2       1 res   C3        3      0.000     36.000
      4 TX2       1 res   C4        4      0.000     36.000

[ bonds ]
;  ai    aj   funct      b0(nm)        k
    1     2     1      0.31438    20000
    1     4     1      0.30677    20000
    2     3     1      0.30677    20000
    3     4     1      0.24116    20000
