[ moleculetype ]
; name        nrexcl
res           1

[ atoms ]
;    nr  type resnr resid  atom  cgnr     charge       mass
      1 SN4a      1 res   C1        1      0.000     54.000
      2 C2        1 res   C2        2      0.000     72.000
      3 C1        1 res   C3        3      0.000     72.000
      4 TC3       1 res   C4        4      0.000     36.000
      5 TN6a      1 res   C5        5      0.000     36.000
      6 SC4       1 res   C6        6      0.000     54.000

[ bonds ]
;  ai    aj   funct      b0(nm)        k
    1     2     1      0.35803    20000
    2     3     1      0.42522    20000
    2     6     1      0.49004    20000
    3     4     1      0.30295    20000
    4     5     1      0.24067    20000
    4     6     1      0.36185    20000
    5     6     1      0.25551    20000
