1TPCN02806
11
    1res  C1    1    0.497   0.148   0.054
    1res  C2    2    0.300  -0.192   0.057
    1res  C3    3    0.166  -0.106  -0.219
    1res  C4    4    0.074  -0.047   0.047
    1res  C5    5   -0.001  -0.301   0.080
    1res  C6    6   -0.194  -0.043  -0.054
    1res  C7    7   -0.396   0.016  -0.046
    1res  C8    8   -0.504  -0.103  -0.093
    1res  C9    9   -0.608   0.065  -0.048
    1res  C10   10   -0.309   0.200   0.137
    1res  C11   11    0.040   0.190   0.034
  10.00000  10.00000  10.00000
