[ moleculetype ]
; name        nrexcl
res           1

[ atoms ]
;    nr  type resnr resid  atom  cgnr     charge       mass
      1 SN4a      1 res   C1        1      0.000     54.000
      2 TC3       1 res   C2        2      0.000     36.000
      3 TN4a      1 res   C3        3      0.000     36.000
      4 TN6       1 res   C4        4      0.000     36.000
      5 SN6       1 res   C5        5      0.000     54.000
      6 TN6       1 res   C6        6      0.000     36.000
      7 TC4       1 res   C7        7      0.000     36.000
      8 TN4a      1 res   C8        8      0.000     36.000
      9 TN6       1 res   C9        9      0.000     36.000
     10 TN6       1 res   C10      10      0.000     36.000
     11 SC3       1 res   C11      11      0.000     54.000
     12 SC4       1 res   C12      12      0.000     54.000
     13 TC3       1 res   C13      13      0.000     36.000
     14 SC4       1 res   C14      14      0.000     54.000
     15 TC3       1 res   C15      15      0.000     36.000
     16 SC4       1 res   C16      16      0.000     54.000
     17 SC5       1 res   C17      17      0.000     54.000
     18 SC4       1 res   C18      18      0.000     54.000
     19 TC3       1 res   C19      19      0.000     36.000
     20 SP2       1 res   C20      20      0.000     54.000
     21 TC3       1 res   C21      21      0.000     36.000
     22 TC4       1 res   C22      22      0.000     36.000
     23 TP1       1 res   C23      23      0.000     36.000
     24 TN4a      1 res   C24      24      0.000     36.000
     25 TN6       1 res   C25      25      0.000     36.000
     26 TN6       1 res   C26      26      0.000     36.000
     27 TN6       1 res   C27      27      0.000     36.000
     28 SN4a      1 res   C28      28      0.000     54.000

[ bonds ]
;  ai    aj   funct      b0(nm)        k
    1     2     1      0.38276    20000
    2     3     1      0.25653    20000
    2    27     1      0.24108    20000
    2    28     1      0.37273    20000
    3     4     1      0.26618    20000
    4     5     1      0.27932    20000
    4    27     1      0.24390    20000
    5     6     1      0.29321    20000
    5     8     1      0.25707    20000
    6     7     1      0.27518    20000
    7     8     1      0.29541    20000
    8     9     1      0.21569    20000
    9    10     1      0.21130    20000
    9    26     1      0.21557    20000
   10    11     1      0.29707    20000
   10    24     1      0.26707    20000
   11    12     1      0.30517    20000
   11    22     1      0.35119    20000
   12    13     1      0.36792    20000
   12    14     1      0.36073    20000
   12    22     1      0.40670    20000
   13    14     1      0.25613    20000
   14    15     1      0.29200    20000
   14    16     1      0.31206    20000
   15    16     1      0.33269    20000
   16    17     1      0.30907    20000
   16    21     1      0.31411    20000
   17    18     1      0.27783    20000
   17    19     1      0.28261    20000
   17    20     1      0.39960    20000
   17    21     1      0.31008    20000
   18    19     1      0.29364    20000
   22    23     1      0.28359    20000
   24    25     1      0.23069    20000
   25    26     1      0.26999    20000
