[ moleculetype ]
; name        nrexcl
res           1

[ atoms ]
;    nr  type  resnr resid  atom  cgnr     charge       mass
      1 SC4       1 res   C1        1      0.000     54.000
      2 SC4       1 res   C2        2      0.000     54.000
      3 TN2a      1 res   C3        3      0.000     36.000

[ bonds ]
;  ai    aj   funct      b0(nm)          k(kJ/mol/nm^2)
    1     2     1      0.40712         206570.6
    1     3     1      0.22696          89199.5
    2     3     1      0.22687          84970.6

[ angles ]
;  ai    aj    ak  funct     th0(deg)        k(kJ/mol/rad^2)
    1     2     3     1     26.22551          7995.29
    1     3     2     1    127.56493          3629.23
    2     1     3     1     26.20954          9634.99

[ dihedrals ]
;  ai    aj    ak    al  funct   phi0(deg)        k(kJ/mol)   mult
