1TPCN06224
16
    1res  C1    1    0.021  -0.558  -0.022
    1res  C2    2   -0.159  -0.382   0.120
    1res  C3    3   -0.307  -0.356  -0.026
    1res  C4    4   -0.451  -0.290  -0.241
    1res  C5    5   -0.291  -0.076   0.064
    1res  C6    6   -0.130  -0.115  -0.157
    1res  C7    7   -0.239   0.165  -0.200
    1res  C8    8   -0.346   0.505  -0.181
    1res  C9    9   -0.397   0.747  -0.008
    1res  C10   10   -0.305   0.507   0.160
    1res  C11   11    0.110  -0.205  -0.183
    1res  C12   12    0.032   0.063   0.081
    1res  C13   13    0.365  -0.095   0.019
    1res  C14   14    0.479   0.163   0.083
    1res  C15   15    0.255  -0.039   0.367
    1res  C16   16    0.162   0.178  -0.140
  10.00000  10.00000  10.00000
