Generated with MDTraj, t= 0.0
 54
    1UNL     C1    1  -0.323   0.276   0.064
    1UNL     C2    2  -0.195   0.249  -0.013
    1UNL     C3    3  -0.189   0.108  -0.075
    1UNL     C4    4  -0.085   0.097  -0.189
    1UNL     N1    5   0.056   0.081  -0.140
    1UNL     C5    6   0.133   0.205  -0.108
    1UNL     C6    7   0.284   0.178  -0.101
    1UNL     C7    8   0.312   0.052  -0.026
    1UNL     C8    9   0.217  -0.043   0.001
    1UNL     N2   10   0.274  -0.147   0.071
    1UNL     C9   11   0.408  -0.119   0.090
    1UNL    C10   12   0.510  -0.190   0.155
    1UNL    C11   13   0.636  -0.136   0.158
    1UNL    C12   14   0.663  -0.012   0.098
    1UNL    C13   15   0.565   0.060   0.035
    1UNL    C14   16   0.435   0.006   0.031
    1UNL    C15   17   0.074  -0.031  -0.042
    1UNL    C16   18  -0.021  -0.012   0.076
    1UNL    C17   19  -0.169  -0.004   0.032
    1UNL    C18   20  -0.227  -0.139  -0.017
    1UNL    C19   21  -0.213  -0.253   0.084
    1UNL     O1   22  -0.254  -0.377   0.029
    1UNL    C20   23  -0.372  -0.121  -0.055
    1UNL     O2   24  -0.401  -0.096  -0.170
    1UNL     O3   25  -0.461  -0.129   0.048
    1UNL    C21   26  -0.590  -0.111  -0.002
    1UNL     H1   27  -0.411   0.262   0.001
    1UNL     H2   28  -0.333   0.208   0.149
    1UNL     H3   29  -0.326   0.377   0.103
    1UNL     H4   30  -0.184   0.323  -0.093
    1UNL     H5   31  -0.108   0.264   0.051
    1UNL     H6   32  -0.288   0.090  -0.121
    1UNL     H7   33  -0.107   0.011  -0.253
    1UNL     H8   34  -0.090   0.184  -0.253
    1UNL     H9   35   0.097   0.245  -0.013
    1UNL    H10   36   0.110   0.280  -0.185
    1UNL    H11   37   0.336   0.262  -0.053
    1UNL    H12   38   0.326   0.170  -0.202
    1UNL    H13   39   0.226  -0.231   0.103
    1UNL    H14   40   0.488  -0.285   0.200
    1UNL    H15   41   0.715  -0.190   0.207
    1UNL    H16   42   0.763   0.028   0.103
    1UNL    H17   43   0.585   0.155  -0.011
    1UNL    H18   44   0.047  -0.123  -0.096
    1UNL    H19   45   0.007   0.080   0.129
    1UNL    H20   46  -0.005  -0.092   0.150
    1UNL    H21   47  -0.229   0.023   0.120
    1UNL    H22   48  -0.174  -0.169  -0.109
    1UNL    H23   49  -0.275  -0.231   0.172
    1UNL    H24   50  -0.110  -0.264   0.118
    1UNL    H25   51  -0.257  -0.447   0.098
    1UNL    H26   52  -0.598  -0.012  -0.047
    1UNL    H27   53  -0.609  -0.187  -0.078
    1UNL    H28   54  -0.662  -0.121   0.080
   0.00000   0.00000   0.00000   0.00000   0.00000   0.00000   0.00000   0.00000   0.00000
Generated with MDTraj, t= 1.0
 54
    1UNL     C1    1  -0.358   0.258   0.060
    1UNL     C2    2  -0.214   0.244  -0.018
    1UNL     C3    3  -0.189   0.105  -0.068
    1UNL     C4    4  -0.083   0.100  -0.179
    1UNL     N1    5   0.054   0.086  -0.130
    1UNL     C5    6   0.142   0.204  -0.123
    1UNL     C6    7   0.296   0.178  -0.108
    1UNL     C7    8   0.315   0.057  -0.021
    1UNL     C8    9   0.218  -0.034   0.019
    1UNL     N2   10   0.272  -0.139   0.093
    1UNL     C9   11   0.405  -0.116   0.109
    1UNL    C10   12   0.517  -0.186   0.156
    1UNL    C11   13   0.646  -0.138   0.138
    1UNL    C12   14   0.675  -0.027   0.066
    1UNL    C13   15   0.569   0.043   0.009
    1UNL    C14   16   0.436   0.005   0.034
    1UNL    C15   17   0.069  -0.022  -0.024
    1UNL    C16   18  -0.028  -0.004   0.100
    1UNL    C17   19  -0.180  -0.007   0.046
    1UNL    C18   20  -0.226  -0.142  -0.012
    1UNL    C19   21  -0.221  -0.261   0.091
    1UNL     O1   22  -0.253  -0.383   0.035
    1UNL    C20   23  -0.369  -0.124  -0.058
    1UNL     O2   24  -0.380  -0.080  -0.172
    1UNL     O3   25  -0.469  -0.145   0.031
    1UNL    C21   26  -0.587  -0.086  -0.019
    1UNL     H1   27  -0.434   0.251  -0.019
    1UNL     H2   28  -0.369   0.173   0.128
    1UNL     H3   29  -0.360   0.352   0.109
    1UNL     H4   30  -0.224   0.307  -0.105
    1UNL     H5   31  -0.134   0.280   0.050
    1UNL     H6   32  -0.275   0.079  -0.129
    1UNL     H7   33  -0.104   0.026  -0.256
    1UNL     H8   34  -0.093   0.193  -0.233
    1UNL     H9   35   0.109   0.249  -0.027
    1UNL    H10   36   0.126   0.288  -0.191
    1UNL    H11   37   0.345   0.269  -0.076
    1UNL    H12   38   0.333   0.150  -0.211
    1UNL    H13   39   0.231  -0.206   0.156
    1UNL    H14   40   0.505  -0.285   0.209
    1UNL    H15   41   0.715  -0.191   0.195
    1UNL    H16   42   0.777   0.003   0.049
    1UNL    H17   43   0.602   0.135  -0.042
    1UNL    H18   44   0.059  -0.122  -0.072
    1UNL    H19   45  -0.005   0.092   0.151
    1UNL    H20   46  -0.008  -0.088   0.164
    1UNL    H21   47  -0.247   0.020   0.127
    1UNL    H22   48  -0.165  -0.173  -0.106
    1UNL    H23   49  -0.289  -0.237   0.173
    1UNL    H24   50  -0.124  -0.258   0.137
    1UNL    H25   51  -0.171  -0.406  -0.028
    1UNL    H26   52  -0.595   0.019  -0.051
    1UNL    H27   53  -0.596  -0.136  -0.118
    1UNL    H28   54  -0.667  -0.114   0.052
   0.00000   0.00000   0.00000   0.00000   0.00000   0.00000   0.00000   0.00000   0.00000
Generated with MDTraj, t= 2.0
 54
    1UNL     C1    1  -0.336   0.277   0.054
    1UNL     C2    2  -0.204   0.255   0.008
    1UNL     C3    3  -0.191   0.108  -0.057
    1UNL     C4    4  -0.085   0.110  -0.172
    1UNL     N1    5   0.051   0.098  -0.108
    1UNL     C5    6   0.141   0.212  -0.097
    1UNL     C6    7   0.292   0.176  -0.113
    1UNL     C7    8   0.315   0.054  -0.022
    1UNL     C8    9   0.220  -0.031   0.027
    1UNL     N2   10   0.273  -0.128   0.112
    1UNL     C9   11   0.409  -0.104   0.106
    1UNL    C10   12   0.512  -0.186   0.160
    1UNL    C11   13   0.640  -0.145   0.133
    1UNL    C12   14   0.675  -0.041   0.054
    1UNL    C13   15   0.577   0.043  -0.004
    1UNL    C14   16   0.440   0.004   0.015
    1UNL    C15   17   0.073  -0.024  -0.023
    1UNL    C16   18  -0.029  -0.008   0.092
    1UNL    C17   19  -0.177  -0.004   0.047
    1UNL    C18   20  -0.226  -0.133  -0.012
    1UNL    C19   21  -0.222  -0.255   0.095
    1UNL     O1   22  -0.253  -0.381   0.044
    1UNL    C20   23  -0.366  -0.131  -0.075
    1UNL     O2   24  -0.391  -0.136  -0.198
    1UNL     O3   25  -0.467  -0.108   0.017
    1UNL    C21   26  -0.597  -0.128  -0.033
    1UNL     H1   27  -0.422   0.254  -0.009
    1UNL     H2   28  -0.359   0.220   0.145
    1UNL     H3   29  -0.353   0.379   0.087
    1UNL     H4   30  -0.183   0.327  -0.067
    1UNL     H5   31  -0.122   0.259   0.085
    1UNL     H6   32  -0.283   0.093  -0.108
    1UNL     H7   33  -0.106   0.033  -0.245
    1UNL     H8   34  -0.100   0.198  -0.231
    1UNL     H9   35   0.138   0.270  -0.002
    1UNL    H10   36   0.100   0.289  -0.162
    1UNL    H11   37   0.355   0.252  -0.072
    1UNL    H12   38   0.317   0.168  -0.224
    1UNL    H13   39   0.231  -0.218   0.116
    1UNL    H14   40   0.496  -0.266   0.223
    1UNL    H15   41   0.727  -0.211   0.177
    1UNL    H16   42   0.786  -0.026   0.045
    1UNL    H17   43   0.611   0.122  -0.067
    1UNL    H18   44   0.062  -0.120  -0.081
    1UNL    H19   45  -0.000   0.098   0.123
    1UNL    H20   46  -0.015  -0.087   0.164
    1UNL    H21   47  -0.235   0.022   0.137
    1UNL    H22   48  -0.161  -0.174  -0.103
    1UNL    H23   49  -0.294  -0.232   0.173
    1UNL    H24   50  -0.130  -0.261   0.150
    1UNL    H25   51  -0.345  -0.368  -0.001
    1UNL    H26   52  -0.659  -0.053  -0.087
    1UNL    H27   53  -0.582  -0.212  -0.104
    1UNL    H28   54  -0.653  -0.168   0.056
   0.00000   0.00000   0.00000   0.00000   0.00000   0.00000   0.00000   0.00000   0.00000
Generated with MDTraj, t= 3.0
 54
    1UNL     C1    1  -0.317   0.288   0.085
    1UNL     C2    2  -0.191   0.261   0.005
    1UNL     C3    3  -0.190   0.110  -0.056
    1UNL     C4    4  -0.087   0.106  -0.179
    1UNL     N1    5   0.047   0.091  -0.120
    1UNL     C5    6   0.129   0.218  -0.107
    1UNL     C6    7   0.286   0.184  -0.102
    1UNL     C7    8   0.311   0.053  -0.021
    1UNL     C8    9   0.208  -0.032   0.021
    1UNL     N2   10   0.267  -0.134   0.093
    1UNL     C9   11   0.404  -0.111   0.096
    1UNL    C10   12   0.507  -0.188   0.151
    1UNL    C11   13   0.634  -0.150   0.132
    1UNL    C12   14   0.665  -0.030   0.065
    1UNL    C13   15   0.568   0.043   0.008
    1UNL    C14   16   0.436  -0.001   0.021
    1UNL    C15   17   0.064  -0.018  -0.025
    1UNL    C16   18  -0.032   0.005   0.096
    1UNL    C17   19  -0.179  -0.000   0.052
    1UNL    C18   20  -0.216  -0.132  -0.014
    1UNL    C19   21  -0.209  -0.250   0.085
    1UNL     O1   22  -0.276  -0.369   0.047
    1UNL    C20   23  -0.358  -0.139  -0.065
    1UNL     O2   24  -0.366  -0.185  -0.179
    1UNL     O3   25  -0.461  -0.107   0.014
    1UNL    C21   26  -0.587  -0.119  -0.051
    1UNL     H1   27  -0.410   0.293   0.030
    1UNL     H2   28  -0.335   0.213   0.162
    1UNL     H3   29  -0.306   0.385   0.138
    1UNL     H4   30  -0.188   0.318  -0.084
    1UNL     H5   31  -0.099   0.282   0.069
    1UNL     H6   32  -0.284   0.099  -0.108
    1UNL     H7   33  -0.109   0.022  -0.241
    1UNL     H8   34  -0.099   0.192  -0.240
    1UNL     H9   35   0.091   0.270  -0.017
    1UNL    H10   36   0.120   0.299  -0.179
    1UNL    H11   37   0.337   0.269  -0.066
    1UNL    H12   38   0.331   0.167  -0.207
    1UNL    H13   39   0.211  -0.187   0.156
    1UNL    H14   40   0.485  -0.282   0.208
    1UNL    H15   41   0.715  -0.199   0.170
    1UNL    H16   42   0.765  -0.010   0.043
    1UNL    H17   43   0.608   0.125  -0.053
    1UNL    H18   44   0.034  -0.115  -0.074
    1UNL    H19   45  -0.005   0.112   0.130
    1UNL    H20   46   0.001  -0.071   0.165
    1UNL    H21   47  -0.244   0.023   0.136
    1UNL    H22   48  -0.148  -0.161  -0.107
    1UNL    H23   49  -0.259  -0.232   0.182
    1UNL    H24   50  -0.109  -0.276   0.112
    1UNL    H25   51  -0.238  -0.392  -0.035
    1UNL    H26   52  -0.569  -0.090  -0.156
    1UNL    H27   53  -0.638  -0.219  -0.040
    1UNL    H28   54  -0.664  -0.052  -0.003
   0.00000   0.00000   0.00000   0.00000   0.00000   0.00000   0.00000   0.00000   0.00000
Generated with MDTraj, t= 4.0
 54
    1UNL     C1    1  -0.308   0.265   0.117
    1UNL     C2    2  -0.200   0.253  -0.008
    1UNL     C3    3  -0.193   0.107  -0.065
    1UNL     C4    4  -0.098   0.094  -0.187
    1UNL     N1    5   0.041   0.086  -0.135
    1UNL     C5    6   0.126   0.209  -0.117
    1UNL     C6    7   0.271   0.183  -0.106
    1UNL     C7    8   0.307   0.059  -0.019
    1UNL     C8    9   0.213  -0.035   0.007
    1UNL     N2   10   0.267  -0.144   0.073
    1UNL     C9   11   0.401  -0.123   0.092
    1UNL    C10   12   0.511  -0.204   0.140
    1UNL    C11   13   0.631  -0.145   0.132
    1UNL    C12   14   0.656  -0.017   0.081
    1UNL    C13   15   0.558   0.062   0.040
    1UNL    C14   16   0.428   0.007   0.040
    1UNL    C15   17   0.071  -0.021  -0.032
    1UNL    C16   18  -0.027  -0.006   0.093
    1UNL    C17   19  -0.174  -0.004   0.044
    1UNL    C18   20  -0.218  -0.141  -0.003
    1UNL    C19   21  -0.221  -0.246   0.106
    1UNL     O1   22  -0.232  -0.381   0.051
    1UNL    C20   23  -0.354  -0.137  -0.068
    1UNL     O2   24  -0.377  -0.198  -0.171
    1UNL     O3   25  -0.445  -0.058  -0.004
    1UNL    C21   26  -0.577  -0.077  -0.053
    1UNL     H1   27  -0.408   0.237   0.087
    1UNL     H2   28  -0.272   0.200   0.193
    1UNL     H3   29  -0.302   0.370   0.150
    1UNL     H4   30  -0.240   0.319  -0.078
    1UNL     H5   31  -0.098   0.287   0.025
    1UNL     H6   32  -0.293   0.087  -0.107
    1UNL     H7   33  -0.133   0.011  -0.243
    1UNL     H8   34  -0.114   0.185  -0.241
    1UNL     H9   35   0.112   0.271  -0.024
    1UNL    H10   36   0.101   0.274  -0.199
    1UNL    H11   37   0.331   0.262  -0.070
    1UNL    H12   38   0.303   0.165  -0.216
    1UNL    H13   39   0.218  -0.227   0.097
    1UNL    H14   40   0.493  -0.291   0.197
    1UNL    H15   41   0.718  -0.189   0.181
    1UNL    H16   42   0.761   0.016   0.060
    1UNL    H17   43   0.570   0.152  -0.014
    1UNL    H18   44   0.039  -0.119  -0.075
    1UNL    H19   45  -0.002   0.103   0.118
    1UNL    H20   46   0.001  -0.072   0.173
    1UNL    H21   47  -0.245   0.026   0.120
    1UNL    H22   48  -0.143  -0.163  -0.086
    1UNL    H23   49  -0.301  -0.231   0.181
    1UNL    H24   50  -0.132  -0.255   0.163
    1UNL    H25   51  -0.320  -0.405   0.032
    1UNL    H26   52  -0.566  -0.039  -0.151
    1UNL    H27   53  -0.631  -0.176  -0.041
    1UNL    H28   54  -0.643  -0.005  -0.002
   0.00000   0.00000   0.00000   0.00000   0.00000   0.00000   0.00000   0.00000   0.00000
Generated with MDTraj, t= 5.0
 54
    1UNL     C1    1  -0.311   0.254   0.101
    1UNL     C2    2  -0.203   0.245   0.004
    1UNL     C3    3  -0.194   0.105  -0.060
    1UNL     C4    4  -0.090   0.094  -0.181
    1UNL     N1    5   0.050   0.086  -0.135
    1UNL     C5    6   0.122   0.221  -0.108
    1UNL     C6    7   0.274   0.190  -0.095
    1UNL     C7    8   0.304   0.055  -0.028
    1UNL     C8    9   0.216  -0.047   0.000
    1UNL     N2   10   0.277  -0.156   0.054
    1UNL     C9   11   0.409  -0.124   0.077
    1UNL    C10   12   0.515  -0.184   0.143
    1UNL    C11   13   0.639  -0.131   0.155
    1UNL    C12   14   0.658  -0.004   0.104
    1UNL    C13   15   0.560   0.066   0.036
    1UNL    C14   16   0.438   0.003   0.015
    1UNL    C15   17   0.071  -0.034  -0.043
    1UNL    C16   18  -0.022  -0.016   0.077
    1UNL    C17   19  -0.171  -0.013   0.046
    1UNL    C18   20  -0.226  -0.151  -0.002
    1UNL    C19   21  -0.207  -0.262   0.102
    1UNL     O1   22  -0.241  -0.384   0.047
    1UNL    C20   23  -0.372  -0.141  -0.049
    1UNL     O2   24  -0.411  -0.221  -0.132
    1UNL     O3   25  -0.451  -0.036  -0.004
    1UNL    C21   26  -0.570  -0.029  -0.080
    1UNL     H1   27  -0.402   0.196   0.075
    1UNL     H2   28  -0.282   0.208   0.196
    1UNL     H3   29  -0.340   0.354   0.132
    1UNL     H4   30  -0.216   0.310  -0.080
    1UNL     H5   31  -0.110   0.276   0.052
    1UNL     H6   32  -0.296   0.084  -0.102
    1UNL     H7   33  -0.109   0.004  -0.233
    1UNL     H8   34  -0.109   0.176  -0.247
    1UNL     H9   35   0.075   0.271  -0.019
    1UNL    H10   36   0.119   0.291  -0.191
    1UNL    H11   37   0.323   0.268  -0.042
    1UNL    H12   38   0.326   0.175  -0.197
    1UNL    H13   39   0.247  -0.250   0.052
    1UNL    H14   40   0.481  -0.266   0.204
    1UNL    H15   41   0.722  -0.185   0.218
    1UNL    H16   42   0.752   0.041   0.122
    1UNL    H17   43   0.573   0.161  -0.018
    1UNL    H18   44   0.033  -0.124  -0.098
    1UNL    H19   45   0.016   0.073   0.137
    1UNL    H20   46   0.005  -0.105   0.134
    1UNL    H21   47  -0.231   0.004   0.137
    1UNL    H22   48  -0.162  -0.164  -0.089
    1UNL    H23   49  -0.266  -0.246   0.196
    1UNL    H24   50  -0.105  -0.271   0.130
    1UNL    H25   51  -0.342  -0.399   0.028
    1UNL    H26   52  -0.552   0.031  -0.165
    1UNL    H27   53  -0.611  -0.131  -0.114
    1UNL    H28   54  -0.633   0.041  -0.028
   0.00000   0.00000   0.00000   0.00000   0.00000   0.00000   0.00000   0.00000   0.00000
Generated with MDTraj, t= 6.0
 54
    1UNL     C1    1  -0.332   0.258   0.073
    1UNL     C2    2  -0.193   0.235   0.026
    1UNL     C3    3  -0.189   0.105  -0.060
    1UNL     C4    4  -0.091   0.104  -0.174
    1UNL     N1    5   0.050   0.091  -0.135
    1UNL     C5    6   0.128   0.211  -0.091
    1UNL     C6    7   0.279   0.184  -0.102
    1UNL     C7    8   0.307   0.057  -0.028
    1UNL     C8    9   0.220  -0.049  -0.016
    1UNL     N2   10   0.282  -0.151   0.059
    1UNL     C9   11   0.414  -0.114   0.082
    1UNL    C10   12   0.520  -0.183   0.145
    1UNL    C11   13   0.642  -0.119   0.162
    1UNL    C12   14   0.660   0.011   0.106
    1UNL    C13   15   0.558   0.077   0.037
    1UNL    C14   16   0.437   0.010   0.025
    1UNL    C15   17   0.080  -0.039  -0.056
    1UNL    C16   18  -0.013  -0.046   0.065
    1UNL    C17   19  -0.160  -0.024   0.030
    1UNL    C18   20  -0.226  -0.153  -0.016
    1UNL    C19   21  -0.212  -0.276   0.077
    1UNL     O1   22  -0.281  -0.392   0.047
    1UNL    C20   23  -0.376  -0.139  -0.052
    1UNL     O2   24  -0.438  -0.229  -0.101
    1UNL     O3   25  -0.425  -0.015  -0.022
    1UNL    C21   26  -0.564  -0.023  -0.047
    1UNL     H1   27  -0.403   0.267  -0.013
    1UNL     H2   28  -0.366   0.164   0.124
    1UNL     H3   29  -0.344   0.338   0.145
    1UNL     H4   30  -0.160   0.315  -0.039
    1UNL     H5   31  -0.115   0.230   0.098
    1UNL     H6   32  -0.290   0.085  -0.099
    1UNL     H7   33  -0.119   0.027  -0.243
    1UNL     H8   34  -0.094   0.196  -0.229
    1UNL     H9   35   0.093   0.236   0.012
    1UNL    H10   36   0.098   0.289  -0.161
    1UNL    H11   37   0.347   0.258  -0.062
    1UNL    H12   38   0.310   0.157  -0.208
    1UNL    H13   39   0.240  -0.228   0.109
    1UNL    H14   40   0.512  -0.285   0.186
    1UNL    H15   41   0.704  -0.168   0.223
    1UNL    H16   42   0.761   0.056   0.097
    1UNL    H17   43   0.565   0.174  -0.008
    1UNL    H18   44   0.053  -0.126  -0.122
    1UNL    H19   45   0.017   0.034   0.136
    1UNL    H20   46   0.010  -0.141   0.120
    1UNL    H21   47  -0.213  -0.010   0.126
    1UNL    H22   48  -0.162  -0.167  -0.099
    1UNL    H23   49  -0.250  -0.237   0.176
    1UNL    H24   50  -0.109  -0.302   0.093
    1UNL    H25   51  -0.379  -0.387   0.038
    1UNL    H26   52  -0.594  -0.075  -0.134
    1UNL    H27   53  -0.610  -0.087   0.036
    1UNL    H28   54  -0.596   0.077  -0.061
   0.00000   0.00000   0.00000   0.00000   0.00000   0.00000   0.00000   0.00000   0.00000
Generated with MDTraj, t= 7.0
 54
    1UNL     C1    1  -0.327   0.263   0.060
    1UNL     C2    2  -0.183   0.231   0.002
    1UNL     C3    3  -0.184   0.098  -0.070
    1UNL     C4    4  -0.085   0.094  -0.178
    1UNL     N1    5   0.054   0.085  -0.139
    1UNL     C5    6   0.134   0.210  -0.103
    1UNL     C6    7   0.283   0.190  -0.090
    1UNL     C7    8   0.319   0.060  -0.025
    1UNL     C8    9   0.228  -0.039  -0.011
    1UNL     N2   10   0.289  -0.142   0.058
    1UNL     C9   11   0.423  -0.110   0.087
    1UNL    C10   12   0.528  -0.184   0.141
    1UNL    C11   13   0.647  -0.114   0.172
    1UNL    C12   14   0.673   0.016   0.113
    1UNL    C13   15   0.569   0.079   0.044
    1UNL    C14   16   0.444   0.013   0.029
    1UNL    C15   17   0.086  -0.034  -0.054
    1UNL    C16   18  -0.014  -0.048   0.067
    1UNL    C17   19  -0.169  -0.033   0.022
    1UNL    C18   20  -0.242  -0.161  -0.026
    1UNL    C19   21  -0.227  -0.281   0.065
    1UNL     O1   22  -0.292  -0.392   0.022
    1UNL    C20   23  -0.386  -0.138  -0.042
    1UNL     O2   24  -0.453  -0.218  -0.099
    1UNL     O3   25  -0.445  -0.024   0.016
    1UNL    C21   26  -0.581  -0.026  -0.024
    1UNL     H1   27  -0.393   0.282  -0.025
    1UNL     H2   28  -0.353   0.167   0.108
    1UNL     H3   29  -0.317   0.344   0.133
    1UNL     H4   30  -0.151   0.313  -0.063
    1UNL     H5   31  -0.112   0.235   0.079
    1UNL     H6   32  -0.287   0.094  -0.117
    1UNL     H7   33  -0.094   0.008  -0.241
    1UNL     H8   34  -0.105   0.180  -0.242
    1UNL     H9   35   0.103   0.234   0.003
    1UNL    H10   36   0.100   0.288  -0.170
    1UNL    H11   37   0.333   0.265  -0.028
    1UNL    H12   38   0.333   0.183  -0.190
    1UNL    H13   39   0.241  -0.226   0.090
    1UNL    H14   40   0.509  -0.284   0.160
    1UNL    H15   41   0.735  -0.151   0.229
    1UNL    H16   42   0.769   0.059   0.101
    1UNL    H17   43   0.587   0.170  -0.012
    1UNL    H18   44   0.068  -0.124  -0.121
    1UNL    H19   45   0.010   0.007   0.161
    1UNL    H20   46  -0.008  -0.158   0.098
    1UNL    H21   47  -0.223  -0.018   0.117
    1UNL    H22   48  -0.199  -0.189  -0.115
    1UNL    H23   49  -0.251  -0.254   0.173
    1UNL    H24   50  -0.122  -0.305   0.062
    1UNL    H25   51  -0.392  -0.383   0.019
    1UNL    H26   52  -0.622  -0.092  -0.098
    1UNL    H27   53  -0.630  -0.050   0.077
    1UNL    H28   54  -0.610   0.075  -0.039
   0.00000   0.00000   0.00000   0.00000   0.00000   0.00000   0.00000   0.00000   0.00000
Generated with MDTraj, t= 8.0
 54
    1UNL     C1    1  -0.313   0.247   0.060
    1UNL     C2    2  -0.193   0.230  -0.025
    1UNL     C3    3  -0.189   0.090  -0.087
    1UNL     C4    4  -0.079   0.079  -0.189
    1UNL     N1    5   0.060   0.068  -0.138
    1UNL     C5    6   0.125   0.193  -0.102
    1UNL     C6    7   0.273   0.181  -0.086
    1UNL     C7    8   0.306   0.053  -0.010
    1UNL     C8    9   0.215  -0.053   0.001
    1UNL     N2   10   0.286  -0.151   0.066
    1UNL     C9   11   0.415  -0.106   0.100
    1UNL    C10   12   0.529  -0.178   0.148
    1UNL    C11   13   0.651  -0.117   0.153
    1UNL    C12   14   0.661   0.024   0.109
    1UNL    C13   15   0.555   0.082   0.047
    1UNL    C14   16   0.434   0.015   0.034
    1UNL    C15   17   0.074  -0.045  -0.049
    1UNL    C16   18  -0.018  -0.033   0.069
    1UNL    C17   19  -0.165  -0.020   0.020
    1UNL    C18   20  -0.232  -0.148  -0.030
    1UNL    C19   21  -0.211  -0.265   0.057
    1UNL     O1   22  -0.268  -0.390   0.007
    1UNL    C20   23  -0.388  -0.125  -0.048
    1UNL     O2   24  -0.453  -0.189  -0.127
    1UNL     O3   25  -0.431  -0.029   0.038
    1UNL    C21   26  -0.566  -0.025   0.023
    1UNL     H1   27  -0.402   0.199   0.019
    1UNL     H2   28  -0.295   0.208   0.161
    1UNL     H3   29  -0.334   0.357   0.072
    1UNL     H4   30  -0.192   0.308  -0.104
    1UNL     H5   31  -0.107   0.265   0.026
    1UNL     H6   32  -0.297   0.076  -0.119
    1UNL     H7   33  -0.106  -0.012  -0.239
    1UNL     H8   34  -0.068   0.157  -0.265
    1UNL     H9   35   0.073   0.224  -0.007
    1UNL    H10   36   0.106   0.264  -0.182
    1UNL    H11   37   0.303   0.275  -0.033
    1UNL    H12   38   0.320   0.179  -0.186
    1UNL    H13   39   0.258  -0.250   0.050
    1UNL    H14   40   0.514  -0.278   0.199
    1UNL    H15   41   0.739  -0.172   0.202
    1UNL    H16   42   0.760   0.070   0.118
    1UNL    H17   43   0.556   0.180   0.004
    1UNL    H18   44   0.051  -0.135  -0.116
    1UNL    H19   45  -0.001   0.055   0.132
    1UNL    H20   46  -0.007  -0.122   0.142
    1UNL    H21   47  -0.220   0.008   0.111
    1UNL    H22   48  -0.186  -0.175  -0.118
    1UNL    H23   49  -0.252  -0.245   0.159
    1UNL    H24   50  -0.107  -0.286   0.075
    1UNL    H25   51  -0.369  -0.379   0.020
    1UNL    H26   52  -0.615   0.036  -0.053
    1UNL    H27   53  -0.599  -0.136   0.008
    1UNL    H28   54  -0.606  -0.014   0.123
   0.00000   0.00000   0.00000   0.00000   0.00000   0.00000   0.00000   0.00000   0.00000
Generated with MDTraj, t= 9.0
 54
    1UNL     C1    1  -0.323   0.268   0.044
    1UNL     C2    2  -0.198   0.237  -0.031
    1UNL     C3    3  -0.189   0.096  -0.087
    1UNL     C4    4  -0.083   0.085  -0.193
    1UNL     N1    5   0.059   0.073  -0.141
    1UNL     C5    6   0.133   0.207  -0.125
    1UNL     C6    7   0.280   0.178  -0.099
    1UNL     C7    8   0.311   0.050  -0.025
    1UNL     C8    9   0.220  -0.049  -0.004
    1UNL     N2   10   0.283  -0.149   0.062
    1UNL     C9   11   0.410  -0.111   0.093
    1UNL    C10   12   0.515  -0.183   0.153
    1UNL    C11   13   0.640  -0.130   0.164
    1UNL    C12   14   0.657   0.003   0.112
    1UNL    C13   15   0.558   0.079   0.056
    1UNL    C14   16   0.429   0.017   0.040
    1UNL    C15   17   0.079  -0.033  -0.044
    1UNL    C16   18  -0.013  -0.006   0.074
    1UNL    C17   19  -0.161  -0.008   0.021
    1UNL    C18   20  -0.225  -0.149  -0.025
    1UNL    C19   21  -0.199  -0.268   0.064
    1UNL     O1   22  -0.265  -0.378  -0.001
    1UNL    C20   23  -0.379  -0.134  -0.036
    1UNL     O2   24  -0.439  -0.173  -0.136
    1UNL     O3   25  -0.445  -0.079   0.073
    1UNL    C21   26  -0.576  -0.054   0.031
    1UNL     H1   27  -0.424   0.256  -0.004
    1UNL     H2   28  -0.332   0.214   0.139
    1UNL     H3   29  -0.320   0.374   0.083
    1UNL     H4   30  -0.177   0.319  -0.106
    1UNL     H5   31  -0.110   0.256   0.026
    1UNL     H6   32  -0.298   0.087  -0.121
    1UNL     H7   33  -0.089  -0.010  -0.245
    1UNL     H8   34  -0.104   0.162  -0.270
    1UNL     H9   35   0.094   0.265  -0.035
    1UNL    H10   36   0.113   0.265  -0.214
    1UNL    H11   37   0.317   0.260  -0.030
    1UNL    H12   38   0.329   0.189  -0.195
    1UNL    H13   39   0.234  -0.239   0.088
    1UNL    H14   40   0.479  -0.266   0.206
    1UNL    H15   41   0.702  -0.171   0.232
    1UNL    H16   42   0.761   0.034   0.103
    1UNL    H17   43   0.583   0.174   0.008
    1UNL    H18   44   0.056  -0.129  -0.104
    1UNL    H19   45   0.015   0.082   0.134
    1UNL    H20   46  -0.009  -0.093   0.150
    1UNL    H21   47  -0.222   0.013   0.112
    1UNL    H22   48  -0.206  -0.180  -0.123
    1UNL    H23   49  -0.247  -0.263   0.163
    1UNL    H24   50  -0.097  -0.301   0.075
    1UNL    H25   51  -0.354  -0.354  -0.001
    1UNL    H26   52  -0.585   0.034  -0.032
    1UNL    H27   53  -0.614  -0.146  -0.029
    1UNL    H28   54  -0.638  -0.050   0.121
   0.00000   0.00000   0.00000   0.00000   0.00000   0.00000   0.00000   0.00000   0.00000
Generated with MDTraj, t= 10.0
 54
    1UNL     C1    1  -0.337   0.297   0.027
    1UNL     C2    2  -0.192   0.246  -0.007
    1UNL     C3    3  -0.191   0.104  -0.084
    1UNL     C4    4  -0.077   0.103  -0.185
    1UNL     N1    5   0.062   0.090  -0.144
    1UNL     C5    6   0.139   0.215  -0.115
    1UNL     C6    7   0.289   0.180  -0.111
    1UNL     C7    8   0.316   0.049  -0.042
    1UNL     C8    9   0.218  -0.043  -0.022
    1UNL     N2   10   0.268  -0.142   0.061
    1UNL     C9   11   0.404  -0.117   0.095
    1UNL    C10   12   0.500  -0.186   0.169
    1UNL    C11   13   0.626  -0.135   0.175
    1UNL    C12   14   0.659  -0.014   0.115
    1UNL    C13   15   0.559   0.060   0.045
    1UNL    C14   16   0.431   0.004   0.027
    1UNL    C15   17   0.078  -0.024  -0.053
    1UNL    C16   18  -0.015  -0.012   0.068
    1UNL    C17   19  -0.164  -0.008   0.021
    1UNL    C18   20  -0.228  -0.141  -0.028
    1UNL    C19   21  -0.200  -0.256   0.068
    1UNL     O1   22  -0.249  -0.384   0.028
    1UNL    C20   23  -0.375  -0.127  -0.044
    1UNL     O2   24  -0.429  -0.166  -0.147
    1UNL     O3   25  -0.440  -0.087   0.066
    1UNL    C21   26  -0.582  -0.122   0.050
    1UNL     H1   27  -0.384   0.322  -0.071
    1UNL     H2   28  -0.392   0.213   0.074
    1UNL     H3   29  -0.325   0.383   0.099
    1UNL     H4   30  -0.144   0.329  -0.066
    1UNL     H5   31  -0.125   0.256   0.079
    1UNL     H6   32  -0.288   0.092  -0.139
    1UNL     H7   33  -0.109   0.029  -0.260
    1UNL     H8   34  -0.074   0.196  -0.248
    1UNL     H9   35   0.094   0.260  -0.021
    1UNL    H10   36   0.118   0.283  -0.197
    1UNL    H11   37   0.346   0.273  -0.077
    1UNL    H12   38   0.314   0.167  -0.213
    1UNL    H13   39   0.215  -0.196   0.135
    1UNL    H14   40   0.468  -0.268   0.232
    1UNL    H15   41   0.705  -0.184   0.242
    1UNL    H16   42   0.759   0.017   0.123
    1UNL    H17   43   0.595   0.139  -0.014
    1UNL    H18   44   0.054  -0.119  -0.115
    1UNL    H19   45   0.013   0.076   0.132
    1UNL    H20   46   0.014  -0.092   0.145
    1UNL    H21   47  -0.227   0.027   0.106
    1UNL    H22   48  -0.196  -0.169  -0.126
    1UNL    H23   49  -0.251  -0.240   0.164
    1UNL    H24   50  -0.093  -0.269   0.080
    1UNL    H25   51  -0.336  -0.366  -0.022
    1UNL    H26   52  -0.610  -0.118  -0.055
    1UNL    H27   53  -0.611  -0.227   0.088
    1UNL    H28   54  -0.639  -0.049   0.106
   0.00000   0.00000   0.00000   0.00000   0.00000   0.00000   0.00000   0.00000   0.00000
Generated with MDTraj, t= 11.0
 54
    1UNL     C1    1  -0.342   0.292   0.039
    1UNL     C2    2  -0.208   0.265  -0.022
    1UNL     C3    3  -0.189   0.121  -0.078
    1UNL     C4    4  -0.082   0.111  -0.191
    1UNL     N1    5   0.056   0.087  -0.145
    1UNL     C5    6   0.145   0.210  -0.118
    1UNL     C6    7   0.294   0.170  -0.110
    1UNL     C7    8   0.313   0.042  -0.043
    1UNL     C8    9   0.216  -0.043  -0.008
    1UNL     N2   10   0.263  -0.145   0.076
    1UNL     C9   11   0.400  -0.117   0.093
    1UNL    C10   12   0.492  -0.186   0.172
    1UNL    C11   13   0.623  -0.135   0.174
    1UNL    C12   14   0.649  -0.018   0.110
    1UNL    C13   15   0.559   0.053   0.034
    1UNL    C14   16   0.434  -0.008   0.014
    1UNL    C15   17   0.076  -0.020  -0.042
    1UNL    C16   18  -0.021   0.001   0.072
    1UNL    C17   19  -0.167   0.005   0.026
    1UNL    C18   20  -0.218  -0.129  -0.024
    1UNL    C19   21  -0.179  -0.252   0.064
    1UNL     O1   22  -0.249  -0.370   0.031
    1UNL    C20   23  -0.372  -0.135  -0.040
    1UNL     O2   24  -0.417  -0.171  -0.148
    1UNL     O3   25  -0.442  -0.100   0.069
    1UNL    C21   26  -0.578  -0.134   0.036
    1UNL     H1   27  -0.418   0.260  -0.039
    1UNL     H2   28  -0.353   0.221   0.126
    1UNL     H3   29  -0.346   0.397   0.079
    1UNL     H4   30  -0.175   0.349  -0.090
    1UNL     H5   31  -0.129   0.283   0.051
    1UNL     H6   32  -0.278   0.099  -0.141
    1UNL     H7   33  -0.101   0.035  -0.271
    1UNL     H8   34  -0.098   0.203  -0.254
    1UNL     H9   35   0.107   0.260  -0.025
    1UNL    H10   36   0.122   0.276  -0.202
    1UNL    H11   37   0.361   0.252  -0.065
    1UNL    H12   38   0.326   0.168  -0.210
    1UNL    H13   39   0.215  -0.237   0.098
    1UNL    H14   40   0.470  -0.279   0.231
    1UNL    H15   41   0.687  -0.198   0.231
    1UNL    H16   42   0.758   0.016   0.114
    1UNL    H17   43   0.604   0.142  -0.012
    1UNL    H18   44   0.044  -0.113  -0.103
    1UNL    H19   45   0.009   0.094   0.127
    1UNL    H20   46  -0.008  -0.079   0.151
    1UNL    H21   47  -0.230   0.035   0.112
    1UNL    H22   48  -0.173  -0.143  -0.126
    1UNL    H23   49  -0.190  -0.221   0.168
    1UNL    H24   50  -0.071  -0.274   0.054
    1UNL    H25   51  -0.256  -0.381  -0.074
    1UNL    H26   52  -0.598  -0.076  -0.053
    1UNL    H27   53  -0.605  -0.243   0.020
    1UNL    H28   54  -0.638  -0.095   0.117
   0.00000   0.00000   0.00000   0.00000   0.00000   0.00000   0.00000   0.00000   0.00000
Generated with MDTraj, t= 12.0
 54
    1UNL     C1    1  -0.320   0.265   0.071
    1UNL     C2    2  -0.213   0.256  -0.038
    1UNL     C3    3  -0.196   0.113  -0.090
    1UNL     C4    4  -0.081   0.100  -0.202
    1UNL     N1    5   0.056   0.083  -0.146
    1UNL     C5    6   0.145   0.206  -0.129
    1UNL     C6    7   0.293   0.171  -0.118
    1UNL     C7    8   0.314   0.061  -0.022
    1UNL     C8    9   0.211  -0.029   0.010
    1UNL     N2   10   0.254  -0.131   0.084
    1UNL     C9   11   0.394  -0.110   0.102
    1UNL    C10   12   0.492  -0.188   0.159
    1UNL    C11   13   0.621  -0.147   0.163
    1UNL    C12   14   0.656  -0.035   0.098
    1UNL    C13   15   0.564   0.048   0.037
    1UNL    C14   16   0.430   0.009   0.029
    1UNL    C15   17   0.069  -0.022  -0.037
    1UNL    C16   18  -0.031   0.009   0.072
    1UNL    C17   19  -0.180   0.005   0.026
    1UNL    C18   20  -0.218  -0.135  -0.022
    1UNL    C19   21  -0.192  -0.253   0.081
    1UNL     O1   22  -0.211  -0.376   0.021
    1UNL    C20   23  -0.369  -0.140  -0.043
    1UNL     O2   24  -0.411  -0.165  -0.156
    1UNL     O3   25  -0.446  -0.101   0.067
    1UNL    C21   26  -0.575  -0.098   0.026
    1UNL     H1   27  -0.408   0.202   0.039
    1UNL     H2   28  -0.304   0.225   0.177
    1UNL     H3   29  -0.359   0.365   0.098
    1UNL     H4   30  -0.233   0.314  -0.132
    1UNL     H5   31  -0.115   0.300  -0.019
    1UNL     H6   32  -0.284   0.083  -0.151
    1UNL     H7   33  -0.112   0.017  -0.273
    1UNL     H8   34  -0.077   0.183  -0.278
    1UNL     H9   35   0.104   0.262  -0.041
    1UNL    H10   36   0.121   0.268  -0.216
    1UNL    H11   37   0.347   0.265  -0.081
    1UNL    H12   38   0.344   0.153  -0.210
    1UNL    H13   39   0.207  -0.224   0.104
    1UNL    H14   40   0.464  -0.279   0.197
    1UNL    H15   41   0.700  -0.199   0.217
    1UNL    H16   42   0.756  -0.016   0.087
    1UNL    H17   43   0.598   0.144  -0.001
    1UNL    H18   44   0.041  -0.124  -0.085
    1UNL    H19   45  -0.012   0.109   0.123
    1UNL    H20   46  -0.014  -0.062   0.158
    1UNL    H21   47  -0.246   0.033   0.112
    1UNL    H22   48  -0.160  -0.160  -0.119
    1UNL    H23   49  -0.256  -0.244   0.167
    1UNL    H24   50  -0.091  -0.235   0.125
    1UNL    H25   51  -0.307  -0.408   0.005
    1UNL    H26   52  -0.582   0.003  -0.009
    1UNL    H27   53  -0.615  -0.179  -0.041
    1UNL    H28   54  -0.623  -0.108   0.120
   0.00000   0.00000   0.00000   0.00000   0.00000   0.00000   0.00000   0.00000   0.00000
Generated with MDTraj, t= 13.0
 54
    1UNL     C1    1  -0.312   0.271   0.074
    1UNL     C2    2  -0.201   0.248  -0.034
    1UNL     C3    3  -0.191   0.108  -0.088
    1UNL     C4    4  -0.080   0.086  -0.194
    1UNL     N1    5   0.054   0.074  -0.141
    1UNL     C5    6   0.138   0.199  -0.124
    1UNL     C6    7   0.287   0.179  -0.105
    1UNL     C7    8   0.307   0.066  -0.015
    1UNL     C8    9   0.209  -0.032   0.014
    1UNL     N2   10   0.265  -0.141   0.083
    1UNL     C9   11   0.396  -0.105   0.106
    1UNL    C10   12   0.499  -0.185   0.162
    1UNL    C11   13   0.622  -0.136   0.155
    1UNL    C12   14   0.657  -0.025   0.076
    1UNL    C13   15   0.566   0.046   0.018
    1UNL    C14   16   0.428   0.013   0.036
    1UNL    C15   17   0.063  -0.025  -0.034
    1UNL    C16   18  -0.039  -0.005   0.078
    1UNL    C17   19  -0.183  -0.004   0.027
    1UNL    C18   20  -0.221  -0.140  -0.016
    1UNL    C19   21  -0.197  -0.257   0.081
    1UNL     O1   22  -0.201  -0.387   0.032
    1UNL    C20   23  -0.371  -0.135  -0.046
    1UNL     O2   24  -0.407  -0.150  -0.160
    1UNL     O3   25  -0.450  -0.092   0.054
    1UNL    C21   26  -0.586  -0.082   0.006
    1UNL     H1   27  -0.410   0.242   0.026
    1UNL     H2   28  -0.305   0.206   0.166
    1UNL     H3   29  -0.319   0.377   0.112
    1UNL     H4   30  -0.211   0.326  -0.114
    1UNL     H5   31  -0.103   0.266   0.010
    1UNL     H6   32  -0.287   0.084  -0.137
    1UNL     H7   33  -0.102  -0.003  -0.261
    1UNL     H8   34  -0.085   0.174  -0.265
    1UNL     H9   35   0.093   0.250  -0.038
    1UNL    H10   36   0.119   0.259  -0.215
    1UNL    H11   37   0.341   0.274  -0.073
    1UNL    H12   38   0.331   0.159  -0.201
    1UNL    H13   39   0.210  -0.205   0.147
    1UNL    H14   40   0.470  -0.272   0.225
    1UNL    H15   41   0.700  -0.189   0.208
    1UNL    H16   42   0.765   0.001   0.068
    1UNL    H17   43   0.586   0.128  -0.044
    1UNL    H18   44   0.030  -0.121  -0.090
    1UNL    H19   45  -0.024   0.105   0.103
    1UNL    H20   46  -0.028  -0.071   0.166
    1UNL    H21   47  -0.255   0.015   0.111
    1UNL    H22   48  -0.159  -0.160  -0.114
    1UNL    H23   49  -0.256  -0.233   0.168
    1UNL    H24   50  -0.095  -0.248   0.128
    1UNL    H25   51  -0.266  -0.402  -0.034
    1UNL    H26   52  -0.581  -0.026  -0.086
    1UNL    H27   53  -0.642  -0.178   0.003
    1UNL    H28   54  -0.639  -0.029   0.080
   0.00000   0.00000   0.00000   0.00000   0.00000   0.00000   0.00000   0.00000   0.00000
Generated with MDTraj, t= 14.0
 54
    1UNL     C1    1  -0.331   0.303   0.053
    1UNL     C2    2  -0.201   0.255  -0.010
    1UNL     C3    3  -0.190   0.112  -0.068
    1UNL     C4    4  -0.087   0.085  -0.186
    1UNL     N1    5   0.048   0.068  -0.124
    1UNL     C5    6   0.133   0.197  -0.117
    1UNL     C6    7   0.281   0.163  -0.117
    1UNL     C7    8   0.313   0.046  -0.035
    1UNL     C8    9   0.217  -0.040   0.014
    1UNL     N2   10   0.277  -0.145   0.090
    1UNL     C9   11   0.411  -0.114   0.093
    1UNL    C10   12   0.516  -0.180   0.158
    1UNL    C11   13   0.638  -0.124   0.151
    1UNL    C12   14   0.667   0.002   0.084
    1UNL    C13   15   0.570   0.062   0.017
    1UNL    C14   16   0.439   0.009   0.023
    1UNL    C15   17   0.071  -0.042  -0.024
    1UNL    C16   18  -0.027  -0.014   0.092
    1UNL    C17   19  -0.173   0.000   0.048
    1UNL    C18   20  -0.227  -0.138  -0.003
    1UNL    C19   21  -0.212  -0.265   0.083
    1UNL     O1   22  -0.266  -0.373   0.021
    1UNL    C20   23  -0.364  -0.128  -0.052
    1UNL     O2   24  -0.390  -0.178  -0.159
    1UNL     O3   25  -0.455  -0.079   0.038
    1UNL    C21   26  -0.588  -0.094  -0.019
    1UNL     H1   27  -0.405   0.295  -0.030
    1UNL     H2   28  -0.363   0.231   0.133
    1UNL     H3   29  -0.319   0.410   0.090
    1UNL     H4   30  -0.188   0.323  -0.097
    1UNL     H5   31  -0.133   0.278   0.073
    1UNL     H6   32  -0.295   0.087  -0.093
    1UNL     H7   33  -0.114  -0.006  -0.246
    1UNL     H8   34  -0.084   0.176  -0.254
    1UNL     H9   35   0.114   0.239  -0.019
    1UNL    H10   36   0.106   0.270  -0.198
    1UNL    H11   37   0.340   0.249  -0.074
    1UNL    H12   38   0.322   0.148  -0.218
    1UNL    H13   39   0.236  -0.241   0.092
    1UNL    H14   40   0.496  -0.262   0.221
    1UNL    H15   41   0.722  -0.164   0.205
    1UNL    H16   42   0.770   0.034   0.076
    1UNL    H17   43   0.587   0.149  -0.055
    1UNL    H18   44   0.040  -0.144  -0.070
    1UNL    H19   45  -0.003   0.081   0.153
    1UNL    H20   46  -0.017  -0.103   0.152
    1UNL    H21   47  -0.239   0.022   0.137
    1UNL    H22   48  -0.158  -0.144  -0.099
    1UNL    H23   49  -0.258  -0.256   0.182
    1UNL    H24   50  -0.107  -0.281   0.121
    1UNL    H25   51  -0.321  -0.335  -0.051
    1UNL    H26   52  -0.602  -0.028  -0.104
    1UNL    H27   53  -0.615  -0.201  -0.041
    1UNL    H28   54  -0.657  -0.069   0.059
   0.00000   0.00000   0.00000   0.00000   0.00000   0.00000   0.00000   0.00000   0.00000
Generated with MDTraj, t= 15.0
 54
    1UNL     C1    1  -0.330   0.294   0.058
    1UNL     C2    2  -0.191   0.235   0.021
    1UNL     C3    3  -0.182   0.095  -0.058
    1UNL     C4    4  -0.084   0.095  -0.171
    1UNL     N1    5   0.056   0.075  -0.130
    1UNL     C5    6   0.135   0.206  -0.113
    1UNL     C6    7   0.287   0.178  -0.118
    1UNL     C7    8   0.316   0.049  -0.040
    1UNL     C8    9   0.220  -0.041   0.007
    1UNL     N2   10   0.281  -0.137   0.086
    1UNL     C9   11   0.416  -0.108   0.092
    1UNL    C10   12   0.521  -0.172   0.161
    1UNL    C11   13   0.648  -0.121   0.149
    1UNL    C12   14   0.671   0.005   0.088
    1UNL    C13   15   0.568   0.073   0.016
    1UNL    C14   16   0.442   0.010   0.018
    1UNL    C15   17   0.075  -0.046  -0.042
    1UNL    C16   18  -0.026  -0.042   0.084
    1UNL    C17   19  -0.172  -0.021   0.041
    1UNL    C18   20  -0.236  -0.151  -0.014
    1UNL    C19   21  -0.229  -0.255   0.097
    1UNL     O1   22  -0.284  -0.382   0.051
    1UNL    C20   23  -0.373  -0.133  -0.066
    1UNL     O2   24  -0.402  -0.207  -0.156
    1UNL     O3   25  -0.453  -0.051   0.010
    1UNL    C21   26  -0.589  -0.062  -0.033
    1UNL     H1   27  -0.399   0.315  -0.027
    1UNL     H2   28  -0.395   0.228   0.119
    1UNL     H3   29  -0.326   0.391   0.116
    1UNL     H4   30  -0.143   0.310  -0.040
    1UNL     H5   31  -0.134   0.215   0.113
    1UNL     H6   32  -0.289   0.090  -0.089
    1UNL     H7   33  -0.108   0.011  -0.244
    1UNL     H8   34  -0.088   0.194  -0.227
    1UNL     H9   35   0.106   0.251  -0.020
    1UNL    H10   36   0.111   0.274  -0.199
    1UNL    H11   37   0.344   0.262  -0.075
    1UNL    H12   38   0.325   0.165  -0.223
    1UNL    H13   39   0.243  -0.220   0.137
    1UNL    H14   40   0.501  -0.260   0.219
    1UNL    H15   41   0.738  -0.164   0.190
    1UNL    H16   42   0.764   0.055   0.082
    1UNL    H17   43   0.583   0.150  -0.047
    1UNL    H18   44   0.052  -0.133  -0.115
    1UNL    H19   45   0.006   0.053   0.144
    1UNL    H20   46  -0.020  -0.129   0.146
    1UNL    H21   47  -0.239  -0.004   0.130
    1UNL    H22   48  -0.162  -0.185  -0.096
    1UNL    H23   49  -0.289  -0.232   0.187
    1UNL    H24   50  -0.138  -0.276   0.162
    1UNL    H25   51  -0.357  -0.365  -0.020
    1UNL    H26   52  -0.612  -0.037  -0.139
    1UNL    H27   53  -0.620  -0.168  -0.009
    1UNL    H28   54  -0.656  -0.000   0.028
   0.00000   0.00000   0.00000   0.00000   0.00000   0.00000   0.00000   0.00000   0.00000
Generated with MDTraj, t= 16.0
 54
    1UNL     C1    1  -0.315   0.251   0.090
    1UNL     C2    2  -0.189   0.226   0.002
    1UNL     C3    3  -0.190   0.087  -0.069
    1UNL     C4    4  -0.088   0.079  -0.186
    1UNL     N1    5   0.053   0.073  -0.129
    1UNL     C5    6   0.124   0.206  -0.105
    1UNL     C6    7   0.278   0.190  -0.103
    1UNL     C7    8   0.312   0.059  -0.037
    1UNL     C8    9   0.224  -0.042  -0.004
    1UNL     N2   10   0.284  -0.142   0.069
    1UNL     C9   11   0.412  -0.105   0.085
    1UNL    C10   12   0.508  -0.172   0.159
    1UNL    C11   13   0.637  -0.112   0.154
    1UNL    C12   14   0.669   0.005   0.080
    1UNL    C13   15   0.565   0.080   0.022
    1UNL    C14   16   0.440   0.021   0.023
    1UNL    C15   17   0.078  -0.042  -0.044
    1UNL    C16   18  -0.013  -0.039   0.089
    1UNL    C17   19  -0.162  -0.024   0.044
    1UNL    C18   20  -0.228  -0.162  -0.005
    1UNL    C19   21  -0.231  -0.267   0.102
    1UNL     O1   22  -0.293  -0.394   0.051
    1UNL    C20   23  -0.371  -0.138  -0.052
    1UNL     O2   24  -0.423  -0.225  -0.117
    1UNL     O3   25  -0.439  -0.022  -0.010
    1UNL    C21   26  -0.561  -0.001  -0.073
    1UNL     H1   27  -0.413   0.234   0.037
    1UNL     H2   28  -0.328   0.184   0.180
    1UNL     H3   29  -0.322   0.354   0.129
    1UNL     H4   30  -0.183   0.297  -0.079
    1UNL     H5   31  -0.103   0.228   0.075
    1UNL     H6   32  -0.294   0.079  -0.109
    1UNL     H7   33  -0.105  -0.015  -0.246
    1UNL     H8   34  -0.090   0.166  -0.259
    1UNL     H9   35   0.104   0.241  -0.007
    1UNL    H10   36   0.083   0.277  -0.182
    1UNL    H11   37   0.334   0.269  -0.053
    1UNL    H12   38   0.317   0.186  -0.210
    1UNL    H13   39   0.225  -0.201   0.130
    1UNL    H14   40   0.485  -0.265   0.213
    1UNL    H15   41   0.708  -0.169   0.212
    1UNL    H16   42   0.772   0.052   0.078
    1UNL    H17   43   0.580   0.180  -0.024
    1UNL    H18   44   0.057  -0.136  -0.109
    1UNL    H19   45   0.010   0.056   0.150
    1UNL    H20   46   0.007  -0.127   0.147
    1UNL    H21   47  -0.227   0.004   0.131
    1UNL    H22   48  -0.169  -0.204  -0.091
    1UNL    H23   49  -0.273  -0.226   0.196
    1UNL    H24   50  -0.134  -0.300   0.149
    1UNL    H25   51  -0.347  -0.373  -0.022
    1UNL    H26   52  -0.568  -0.021  -0.183
    1UNL    H27   53  -0.624  -0.081  -0.024
    1UNL    H28   54  -0.600   0.100  -0.063
   0.00000   0.00000   0.00000   0.00000   0.00000   0.00000   0.00000   0.00000   0.00000
Generated with MDTraj, t= 17.0
 54
    1UNL     C1    1  -0.303   0.239   0.111
    1UNL     C2    2  -0.202   0.236  -0.003
    1UNL     C3    3  -0.195   0.097  -0.067
    1UNL     C4    4  -0.088   0.088  -0.180
    1UNL     N1    5   0.058   0.065  -0.137
    1UNL     C5    6   0.128   0.200  -0.117
    1UNL     C6    7   0.277   0.171  -0.104
    1UNL     C7    8   0.305   0.045  -0.022
    1UNL     C8    9   0.221  -0.060  -0.002
    1UNL     N2   10   0.292  -0.159   0.057
    1UNL     C9   11   0.421  -0.114   0.087
    1UNL    C10   12   0.531  -0.172   0.150
    1UNL    C11   13   0.653  -0.107   0.148
    1UNL    C12   14   0.671   0.025   0.093
    1UNL    C13   15   0.552   0.087   0.043
    1UNL    C14   16   0.433   0.016   0.034
    1UNL    C15   17   0.073  -0.048  -0.044
    1UNL    C16   18  -0.023  -0.023   0.078
    1UNL    C17   19  -0.169  -0.019   0.040
    1UNL    C18   20  -0.235  -0.152  -0.012
    1UNL    C19   21  -0.223  -0.261   0.091
    1UNL     O1   22  -0.275  -0.384   0.053
    1UNL    C20   23  -0.381  -0.136  -0.045
    1UNL     O2   24  -0.439  -0.233  -0.089
    1UNL     O3   25  -0.444  -0.017  -0.032
    1UNL    C21   26  -0.565  -0.002  -0.088
    1UNL     H1   27  -0.393   0.176   0.086
    1UNL     H2   28  -0.253   0.193   0.200
    1UNL     H3   29  -0.327   0.344   0.134
    1UNL     H4   30  -0.236   0.311  -0.071
    1UNL     H5   31  -0.103   0.250   0.047
    1UNL     H6   32  -0.294   0.077  -0.116
    1UNL     H7   33  -0.118   0.003  -0.248
    1UNL     H8   34  -0.083   0.180  -0.247
    1UNL     H9   35   0.094   0.229  -0.022
    1UNL    H10   36   0.108   0.288  -0.186
    1UNL    H11   37   0.333   0.253  -0.063
    1UNL    H12   38   0.330   0.147  -0.204
    1UNL    H13   39   0.269  -0.259   0.053
    1UNL    H14   40   0.520  -0.271   0.184
    1UNL    H15   41   0.740  -0.154   0.192
    1UNL    H16   42   0.761   0.078   0.099
    1UNL    H17   43   0.546   0.202   0.035
    1UNL    H18   44   0.056  -0.146  -0.104
    1UNL    H19   45   0.006   0.083   0.106
    1UNL    H20   46  -0.013  -0.091   0.162
    1UNL    H21   47  -0.231   0.007   0.129
    1UNL    H22   48  -0.189  -0.190  -0.103
    1UNL    H23   49  -0.283  -0.231   0.182
    1UNL    H24   50  -0.119  -0.259   0.131
    1UNL    H25   51  -0.374  -0.361   0.030
    1UNL    H26   52  -0.563   0.015  -0.198
    1UNL    H27   53  -0.619  -0.098  -0.068
    1UNL    H28   54  -0.604   0.091  -0.049
   0.00000   0.00000   0.00000   0.00000   0.00000   0.00000   0.00000   0.00000   0.00000
Generated with MDTraj, t= 18.0
 54
    1UNL     C1    1  -0.292   0.279   0.083
    1UNL     C2    2  -0.172   0.238  -0.002
    1UNL     C3    3  -0.193   0.102  -0.064
    1UNL     C4    4  -0.094   0.084  -0.182
    1UNL     N1    5   0.051   0.081  -0.142
    1UNL     C5    6   0.126   0.208  -0.108
    1UNL     C6    7   0.275   0.192  -0.105
    1UNL     C7    8   0.316   0.062  -0.032
    1UNL     C8    9   0.220  -0.034  -0.009
    1UNL     N2   10   0.282  -0.143   0.053
    1UNL     C9   11   0.409  -0.112   0.080
    1UNL    C10   12   0.514  -0.187   0.149
    1UNL    C11   13   0.639  -0.128   0.164
    1UNL    C12   14   0.660   0.005   0.111
    1UNL    C13   15   0.566   0.075   0.040
    1UNL    C14   16   0.438   0.013   0.027
    1UNL    C15   17   0.074  -0.031  -0.048
    1UNL    C16   18  -0.018  -0.029   0.084
    1UNL    C17   19  -0.164  -0.018   0.038
    1UNL    C18   20  -0.236  -0.153  -0.006
    1UNL    C19   21  -0.229  -0.266   0.093
    1UNL     O1   22  -0.256  -0.389   0.049
    1UNL    C20   23  -0.380  -0.146  -0.048
    1UNL     O2   24  -0.436  -0.239  -0.105
    1UNL     O3   25  -0.446  -0.029  -0.019
    1UNL    C21   26  -0.585  -0.039  -0.053
    1UNL     H1   27  -0.383   0.264   0.020
    1UNL     H2   28  -0.317   0.217   0.172
    1UNL     H3   29  -0.294   0.384   0.124
    1UNL     H4   30  -0.161   0.308  -0.081
    1UNL     H5   31  -0.080   0.233   0.059
    1UNL     H6   32  -0.286   0.092  -0.127
    1UNL     H7   33  -0.108  -0.011  -0.241
    1UNL     H8   34  -0.110   0.165  -0.259
    1UNL     H9   35   0.096   0.257  -0.020
    1UNL    H10   36   0.095   0.282  -0.186
    1UNL    H11   37   0.333   0.267  -0.056
    1UNL    H12   38   0.316   0.193  -0.213
    1UNL    H13   39   0.240  -0.227   0.090
    1UNL    H14   40   0.494  -0.292   0.177
    1UNL    H15   41   0.721  -0.184   0.198
    1UNL    H16   42   0.755   0.053   0.133
    1UNL    H17   43   0.583   0.168   0.009
    1UNL    H18   44   0.056  -0.127  -0.112
    1UNL    H19   45   0.011   0.063   0.138
    1UNL    H20   46   0.006  -0.115   0.149
    1UNL    H21   47  -0.220   0.024   0.127
    1UNL    H22   48  -0.194  -0.198  -0.092
    1UNL    H23   49  -0.291  -0.234   0.179
    1UNL    H24   50  -0.127  -0.274   0.132
    1UNL    H25   51  -0.316  -0.389  -0.022
    1UNL    H26   52  -0.590  -0.100  -0.145
    1UNL    H27   53  -0.629  -0.110   0.018
    1UNL    H28   54  -0.633   0.054  -0.073
   0.00000   0.00000   0.00000   0.00000   0.00000   0.00000   0.00000   0.00000   0.00000
Generated with MDTraj, t= 19.0
 54
    1UNL     C1    1  -0.332   0.288   0.049
    1UNL     C2    2  -0.195   0.249   0.003
    1UNL     C3    3  -0.189   0.111  -0.058
    1UNL     C4    4  -0.092   0.107  -0.182
    1UNL     N1    5   0.049   0.084  -0.146
    1UNL     C5    6   0.128   0.209  -0.111
    1UNL     C6    7   0.276   0.174  -0.098
    1UNL     C7    8   0.306   0.043  -0.038
    1UNL     C8    9   0.210  -0.051  -0.011
    1UNL     N2   10   0.263  -0.144   0.077
    1UNL     C9   11   0.401  -0.122   0.091
    1UNL    C10   12   0.508  -0.189   0.158
    1UNL    C11   13   0.627  -0.129   0.164
    1UNL    C12   14   0.654  -0.003   0.097
    1UNL    C13   15   0.554   0.059   0.028
    1UNL    C14   16   0.425   0.004   0.034
    1UNL    C15   17   0.069  -0.030  -0.052
    1UNL    C16   18  -0.017  -0.010   0.073
    1UNL    C17   19  -0.162  -0.011   0.034
    1UNL    C18   20  -0.215  -0.145  -0.016
    1UNL    C19   21  -0.186  -0.267   0.084
    1UNL     O1   22  -0.249  -0.381   0.043
    1UNL    C20   23  -0.360  -0.137  -0.051
    1UNL     O2   24  -0.411  -0.220  -0.128
    1UNL     O3   25  -0.435  -0.043   0.014
    1UNL    C21   26  -0.568  -0.063  -0.017
    1UNL     H1   27  -0.399   0.296  -0.037
    1UNL     H2   28  -0.389   0.213   0.107
    1UNL     H3   29  -0.348   0.381   0.112
    1UNL     H4   30  -0.153   0.326  -0.057
    1UNL     H5   31  -0.124   0.243   0.089
    1UNL     H6   32  -0.285   0.094  -0.116
    1UNL     H7   33  -0.129   0.022  -0.245
    1UNL     H8   34  -0.089   0.191  -0.258
    1UNL     H9   35   0.088   0.259  -0.026
    1UNL    H10   36   0.119   0.290  -0.187
    1UNL    H11   37   0.321   0.257  -0.045
    1UNL    H12   38   0.334   0.177  -0.197
    1UNL    H13   39   0.220  -0.218   0.128
    1UNL    H14   40   0.496  -0.285   0.202
    1UNL    H15   41   0.715  -0.179   0.215
    1UNL    H16   42   0.755   0.034   0.107
    1UNL    H17   43   0.576   0.145  -0.038
    1UNL    H18   44   0.038  -0.128  -0.105
    1UNL    H19   45   0.027   0.072   0.127
    1UNL    H20   46   0.009  -0.089   0.149
    1UNL    H21   47  -0.219   0.023   0.125
    1UNL    H22   48  -0.171  -0.173  -0.104
    1UNL    H23   49  -0.223  -0.253   0.186
    1UNL    H24   50  -0.078  -0.278   0.095
    1UNL    H25   51  -0.335  -0.361  -0.012
    1UNL    H26   52  -0.574  -0.100  -0.119
    1UNL    H27   53  -0.611  -0.141   0.046
    1UNL    H28   54  -0.618   0.028  -0.004
   0.00000   0.00000   0.00000   0.00000   0.00000   0.00000   0.00000   0.00000   0.00000
Generated with MDTraj, t= 20.0
 54
    1UNL     C1    1  -0.358   0.264   0.039
    1UNL     C2    2  -0.226   0.247  -0.035
    1UNL     C3    3  -0.201   0.108  -0.070
    1UNL     C4    4  -0.083   0.101  -0.182
    1UNL     N1    5   0.052   0.092  -0.128
    1UNL     C5    6   0.141   0.213  -0.122
    1UNL     C6    7   0.290   0.166  -0.117
    1UNL     C7    8   0.313   0.048  -0.028
    1UNL     C8    9   0.216  -0.038   0.005
    1UNL     N2   10   0.272  -0.140   0.081
    1UNL     C9   11   0.409  -0.127   0.089
    1UNL    C10   12   0.509  -0.191   0.160
    1UNL    C11   13   0.635  -0.141   0.165
    1UNL    C12   14   0.665  -0.018   0.109
    1UNL    C13   15   0.575   0.044   0.028
    1UNL    C14   16   0.438   0.000   0.025
    1UNL    C15   17   0.073  -0.018  -0.037
    1UNL    C16   18  -0.025   0.004   0.073
    1UNL    C17   19  -0.175   0.003   0.036
    1UNL    C18   20  -0.221  -0.135  -0.011
    1UNL    C19   21  -0.192  -0.259   0.081
    1UNL     O1   22  -0.220  -0.385   0.010
    1UNL    C20   23  -0.378  -0.131  -0.040
    1UNL     O2   24  -0.418  -0.201  -0.134
    1UNL     O3   25  -0.448  -0.057   0.047
    1UNL    C21   26  -0.580  -0.065   0.007
    1UNL     H1   27  -0.430   0.235  -0.038
    1UNL     H2   28  -0.371   0.187   0.116
    1UNL     H3   29  -0.387   0.364   0.082
    1UNL     H4   30  -0.224   0.314  -0.119
    1UNL     H5   31  -0.152   0.286   0.038
    1UNL     H6   32  -0.296   0.079  -0.128
    1UNL     H7   33  -0.085   0.019  -0.256
    1UNL     H8   34  -0.080   0.193  -0.243
    1UNL     H9   35   0.126   0.269  -0.031
    1UNL    H10   36   0.126   0.288  -0.201
    1UNL    H11   37   0.359   0.239  -0.076
    1UNL    H12   38   0.317   0.152  -0.226
    1UNL    H13   39   0.226  -0.227   0.097
    1UNL    H14   40   0.474  -0.280   0.210
    1UNL    H15   41   0.705  -0.190   0.221
    1UNL    H16   42   0.757   0.034   0.130
    1UNL    H17   43   0.603   0.143  -0.028
    1UNL    H18   44   0.041  -0.117  -0.088
    1UNL    H19   45   0.005   0.091   0.124
    1UNL    H20   46   0.010  -0.071   0.150
    1UNL    H21   47  -0.237   0.025   0.125
    1UNL    H22   48  -0.173  -0.152  -0.101
    1UNL    H23   49  -0.253  -0.245   0.171
    1UNL    H24   50  -0.092  -0.270   0.122
    1UNL    H25   51  -0.292  -0.355  -0.048
    1UNL    H26   52  -0.608   0.023  -0.055
    1UNL    H27   53  -0.589  -0.149  -0.063
    1UNL    H28   54  -0.639  -0.093   0.091
   0.00000   0.00000   0.00000   0.00000   0.00000   0.00000   0.00000   0.00000   0.00000
Generated with MDTraj, t= 21.0
 54
    1UNL     C1    1  -0.353   0.250   0.043
    1UNL     C2    2  -0.214   0.244  -0.038
    1UNL     C3    3  -0.188   0.107  -0.095
    1UNL     C4    4  -0.080   0.104  -0.200
    1UNL     N1    5   0.056   0.091  -0.142
    1UNL     C5    6   0.139   0.207  -0.116
    1UNL     C6    7   0.294   0.177  -0.106
    1UNL     C7    8   0.314   0.062  -0.013
    1UNL     C8    9   0.214  -0.032   0.017
    1UNL     N2   10   0.265  -0.136   0.090
    1UNL     C9   11   0.402  -0.109   0.111
    1UNL    C10   12   0.502  -0.188   0.175
    1UNL    C11   13   0.633  -0.148   0.159
    1UNL    C12   14   0.661  -0.041   0.080
    1UNL    C13   15   0.567   0.041   0.022
    1UNL    C14   16   0.435   0.010   0.048
    1UNL    C15   17   0.077  -0.015  -0.042
    1UNL    C16   18  -0.021  -0.003   0.074
    1UNL    C17   19  -0.168   0.003   0.013
    1UNL    C18   20  -0.226  -0.138  -0.030
    1UNL    C19   21  -0.190  -0.247   0.072
    1UNL     O1   22  -0.212  -0.379   0.011
    1UNL    C20   23  -0.374  -0.133  -0.043
    1UNL     O2   24  -0.434  -0.188  -0.134
    1UNL     O3   25  -0.446  -0.068   0.056
    1UNL    C21   26  -0.588  -0.077   0.035
    1UNL     H1   27  -0.421   0.195  -0.025
    1UNL     H2   28  -0.348   0.190   0.136
    1UNL     H3   29  -0.405   0.345   0.064
    1UNL     H4   30  -0.220   0.327  -0.108
    1UNL     H5   31  -0.133   0.271   0.034
    1UNL     H6   32  -0.288   0.077  -0.142
    1UNL     H7   33  -0.095   0.019  -0.268
    1UNL     H8   34  -0.065   0.194  -0.261
    1UNL     H9   35   0.112   0.268  -0.028
    1UNL    H10   36   0.133   0.274  -0.200
    1UNL    H11   37   0.334   0.276  -0.081
    1UNL    H12   38   0.340   0.153  -0.204
    1UNL    H13   39   0.212  -0.215   0.116
    1UNL    H14   40   0.486  -0.279   0.229
    1UNL    H15   41   0.711  -0.214   0.202
    1UNL    H16   42   0.765  -0.011   0.074
    1UNL    H17   43   0.591   0.122  -0.033
    1UNL    H18   44   0.045  -0.109  -0.101
    1UNL    H19   45   0.008   0.076   0.136
    1UNL    H20   46  -0.007  -0.085   0.151
    1UNL    H21   47  -0.235   0.017   0.102
    1UNL    H22   48  -0.200  -0.165  -0.129
    1UNL    H23   49  -0.236  -0.241   0.172
    1UNL    H24   50  -0.086  -0.245   0.101
    1UNL    H25   51  -0.299  -0.379  -0.020
    1UNL    H26   52  -0.618   0.031   0.024
    1UNL    H27   53  -0.609  -0.128  -0.061
    1UNL    H28   54  -0.627  -0.132   0.120
   0.00000   0.00000   0.00000   0.00000   0.00000   0.00000   0.00000   0.00000   0.00000
Generated with MDTraj, t= 22.0
 54
    1UNL     C1    1  -0.325   0.289   0.029
    1UNL     C2    2  -0.201   0.250  -0.040
    1UNL     C3    3  -0.186   0.108  -0.088
    1UNL     C4    4  -0.078   0.094  -0.194
    1UNL     N1    5   0.060   0.089  -0.135
    1UNL     C5    6   0.134   0.214  -0.121
    1UNL     C6    7   0.282   0.185  -0.102
    1UNL     C7    8   0.306   0.061  -0.015
    1UNL     C8    9   0.209  -0.029   0.016
    1UNL     N2   10   0.261  -0.131   0.092
    1UNL     C9   11   0.401  -0.117   0.097
    1UNL    C10   12   0.499  -0.188   0.165
    1UNL    C11   13   0.630  -0.142   0.166
    1UNL    C12   14   0.658  -0.032   0.090
    1UNL    C13   15   0.562   0.042   0.026
    1UNL    C14   16   0.428   0.004   0.031
    1UNL    C15   17   0.073  -0.019  -0.030
    1UNL    C16   18  -0.034  -0.003   0.080
    1UNL    C17   19  -0.176   0.004   0.024
    1UNL    C18   20  -0.220  -0.138  -0.038
    1UNL    C19   21  -0.185  -0.261   0.048
    1UNL     O1   22  -0.261  -0.375   0.013
    1UNL    C20   23  -0.369  -0.140  -0.041
    1UNL     O2   24  -0.413  -0.207  -0.129
    1UNL     O3   25  -0.427  -0.071   0.054
    1UNL    C21   26  -0.566  -0.099   0.047
    1UNL     H1   27  -0.412   0.264  -0.037
    1UNL     H2   28  -0.338   0.231   0.121
    1UNL     H3   29  -0.344   0.391   0.061
    1UNL     H4   30  -0.191   0.316  -0.127
    1UNL     H5   31  -0.116   0.279   0.025
    1UNL     H6   32  -0.291   0.088  -0.128
    1UNL     H7   33  -0.079  -0.001  -0.250
    1UNL     H8   34  -0.078   0.178  -0.263
    1UNL     H9   35   0.100   0.271  -0.031
    1UNL    H10   36   0.120   0.283  -0.201
    1UNL    H11   37   0.345   0.262  -0.054
    1UNL    H12   38   0.325   0.177  -0.204
    1UNL    H13   39   0.197  -0.194   0.137
    1UNL    H14   40   0.478  -0.287   0.202
    1UNL    H15   41   0.719  -0.196   0.203
    1UNL    H16   42   0.757   0.008   0.079
    1UNL    H17   43   0.590   0.139  -0.007
    1UNL    H18   44   0.049  -0.115  -0.089
    1UNL    H19   45  -0.027   0.088   0.132
    1UNL    H20   46  -0.028  -0.082   0.160
    1UNL    H21   47  -0.239   0.028   0.113
    1UNL    H22   48  -0.193  -0.153  -0.142
    1UNL    H23   49  -0.195  -0.241   0.157
    1UNL    H24   50  -0.080  -0.287   0.044
    1UNL    H25   51  -0.343  -0.350  -0.047
    1UNL    H26   52  -0.609  -0.015   0.113
    1UNL    H27   53  -0.595  -0.081  -0.058
    1UNL    H28   54  -0.582  -0.204   0.077
   0.00000   0.00000   0.00000   0.00000   0.00000   0.00000   0.00000   0.00000   0.00000
Generated with MDTraj, t= 23.0
 54
    1UNL     C1    1  -0.321   0.295   0.042
    1UNL     C2    2  -0.189   0.260  -0.025
    1UNL     C3    3  -0.188   0.118  -0.093
    1UNL     C4    4  -0.082   0.096  -0.203
    1UNL     N1    5   0.058   0.080  -0.145
    1UNL     C5    6   0.138   0.203  -0.119
    1UNL     C6    7   0.291   0.174  -0.100
    1UNL     C7    8   0.315   0.046  -0.026
    1UNL     C8    9   0.218  -0.045   0.001
    1UNL     N2   10   0.272  -0.144   0.082
    1UNL     C9   11   0.411  -0.117   0.096
    1UNL    C10   12   0.509  -0.187   0.163
    1UNL    C11   13   0.634  -0.135   0.157
    1UNL    C12   14   0.661  -0.006   0.108
    1UNL    C13   15   0.566   0.063   0.048
    1UNL    C14   16   0.437   0.004   0.035
    1UNL    C15   17   0.079  -0.032  -0.052
    1UNL    C16   18  -0.021  -0.010   0.061
    1UNL    C17   19  -0.173   0.004   0.021
    1UNL    C18   20  -0.234  -0.138  -0.021
    1UNL    C19   21  -0.199  -0.254   0.078
    1UNL     O1   22  -0.225  -0.369   0.011
    1UNL    C20   23  -0.389  -0.142  -0.038
    1UNL     O2   24  -0.428  -0.210  -0.127
    1UNL     O3   25  -0.465  -0.073   0.056
    1UNL    C21   26  -0.609  -0.092   0.031
    1UNL     H1   27  -0.393   0.321  -0.039
    1UNL     H2   28  -0.354   0.205   0.094
    1UNL     H3   29  -0.314   0.373   0.118
    1UNL     H4   30  -0.159   0.335  -0.103
    1UNL     H5   31  -0.109   0.271   0.049
    1UNL     H6   32  -0.292   0.106  -0.133
    1UNL     H7   33  -0.102  -0.002  -0.249
    1UNL     H8   34  -0.074   0.177  -0.276
    1UNL     H9   35   0.103   0.260  -0.027
    1UNL    H10   36   0.115   0.275  -0.193
    1UNL    H11   37   0.347   0.263  -0.064
    1UNL    H12   38   0.342   0.150  -0.194
    1UNL    H13   39   0.226  -0.233   0.096
    1UNL    H14   40   0.494  -0.289   0.195
    1UNL    H15   41   0.713  -0.197   0.185
    1UNL    H16   42   0.761   0.031   0.124
    1UNL    H17   43   0.571   0.176   0.020
    1UNL    H18   44   0.065  -0.126  -0.116
    1UNL    H19   45   0.003   0.085   0.100
    1UNL    H20   46  -0.018  -0.085   0.143
    1UNL    H21   47  -0.211   0.041   0.118
    1UNL    H22   48  -0.186  -0.159  -0.119
    1UNL    H23   49  -0.257  -0.242   0.172
    1UNL    H24   50  -0.096  -0.252   0.114
    1UNL    H25   51  -0.312  -0.374  -0.025
    1UNL    H26   52  -0.664  -0.087   0.132
    1UNL    H27   53  -0.633  -0.003  -0.027
    1UNL    H28   54  -0.621  -0.180  -0.030
   0.00000   0.00000   0.00000   0.00000   0.00000   0.00000   0.00000   0.00000   0.00000
Generated with MDTraj, t= 24.0
 54
    1UNL     C1    1  -0.331   0.280   0.057
    1UNL     C2    2  -0.196   0.245  -0.024
    1UNL     C3    3  -0.192   0.099  -0.074
    1UNL     C4    4  -0.090   0.078  -0.191
    1UNL     N1    5   0.052   0.073  -0.145
    1UNL     C5    6   0.131   0.202  -0.128
    1UNL     C6    7   0.283   0.180  -0.107
    1UNL     C7    8   0.309   0.050  -0.038
    1UNL     C8    9   0.210  -0.049  -0.010
    1UNL     N2   10   0.273  -0.152   0.058
    1UNL     C9   11   0.407  -0.129   0.079
    1UNL    C10   12   0.507  -0.187   0.157
    1UNL    C11   13   0.624  -0.124   0.177
    1UNL    C12   14   0.649   0.005   0.117
    1UNL    C13   15   0.557   0.071   0.047
    1UNL    C14   16   0.427   0.006   0.029
    1UNL    C15   17   0.069  -0.033  -0.046
    1UNL    C16   18  -0.019  -0.015   0.085
    1UNL    C17   19  -0.171  -0.004   0.044
    1UNL    C18   20  -0.220  -0.144  -0.014
    1UNL    C19   21  -0.186  -0.268   0.071
    1UNL     O1   22  -0.242  -0.383   0.020
    1UNL    C20   23  -0.367  -0.128  -0.046
    1UNL     O2   24  -0.414  -0.196  -0.132
    1UNL     O3   25  -0.438  -0.042   0.038
    1UNL    C21   26  -0.575  -0.054   0.017
    1UNL     H1   27  -0.410   0.222   0.011
    1UNL     H2   28  -0.316   0.253   0.161
    1UNL     H3   29  -0.352   0.389   0.057
    1UNL     H4   30  -0.189   0.321  -0.109
    1UNL     H5   31  -0.100   0.257   0.028
    1UNL     H6   32  -0.291   0.064  -0.112
    1UNL     H7   33  -0.113  -0.019  -0.237
    1UNL     H8   34  -0.091   0.164  -0.256
    1UNL     H9   35   0.081   0.274  -0.054
    1UNL    H10   36   0.120   0.261  -0.215
    1UNL    H11   37   0.338   0.252  -0.039
    1UNL    H12   38   0.336   0.190  -0.202
    1UNL    H13   39   0.224  -0.231   0.102
    1UNL    H14   40   0.485  -0.282   0.200
    1UNL    H15   41   0.705  -0.176   0.239
    1UNL    H16   42   0.739   0.050   0.157
    1UNL    H17   43   0.572   0.162   0.003
    1UNL    H18   44   0.040  -0.125  -0.107
    1UNL    H19   45   0.001   0.078   0.134
    1UNL    H20   46  -0.009  -0.096   0.155
    1UNL    H21   47  -0.227   0.023   0.135
    1UNL    H22   48  -0.170  -0.158  -0.114
    1UNL    H23   49  -0.233  -0.261   0.174
    1UNL    H24   50  -0.079  -0.264   0.087
    1UNL    H25   51  -0.303  -0.367  -0.064
    1UNL    H26   52  -0.611   0.045   0.061
    1UNL    H27   53  -0.581  -0.053  -0.089
    1UNL    H28   54  -0.620  -0.141   0.061
   0.00000   0.00000   0.00000   0.00000   0.00000   0.00000   0.00000   0.00000   0.00000
Generated with MDTraj, t= 25.0
 54
    1UNL     C1    1  -0.320   0.244   0.083
    1UNL     C2    2  -0.199   0.233   0.002
    1UNL     C3    3  -0.191   0.097  -0.072
    1UNL     C4    4  -0.087   0.094  -0.193
    1UNL     N1    5   0.055   0.076  -0.151
    1UNL     C5    6   0.135   0.212  -0.114
    1UNL     C6    7   0.283   0.177  -0.117
    1UNL     C7    8   0.313   0.052  -0.036
    1UNL     C8    9   0.218  -0.047  -0.019
    1UNL     N2   10   0.273  -0.150   0.051
    1UNL     C9   11   0.402  -0.114   0.092
    1UNL    C10   12   0.503  -0.176   0.169
    1UNL    C11   13   0.629  -0.121   0.172
    1UNL    C12   14   0.655   0.005   0.112
    1UNL    C13   15   0.558   0.073   0.043
    1UNL    C14   16   0.423   0.015   0.044
    1UNL    C15   17   0.076  -0.042  -0.066
    1UNL    C16   18  -0.016  -0.028   0.062
    1UNL    C17   19  -0.163  -0.015   0.024
    1UNL    C18   20  -0.223  -0.152  -0.018
    1UNL    C19   21  -0.201  -0.260   0.080
    1UNL     O1   22  -0.263  -0.383   0.041
    1UNL    C20   23  -0.372  -0.135  -0.043
    1UNL     O2   24  -0.424  -0.218  -0.112
    1UNL     O3   25  -0.435  -0.032   0.021
    1UNL    C21   26  -0.568  -0.018  -0.016
    1UNL     H1   27  -0.403   0.273   0.022
    1UNL     H2   28  -0.354   0.152   0.132
    1UNL     H3   29  -0.306   0.310   0.171
    1UNL     H4   30  -0.177   0.307  -0.084
    1UNL     H5   31  -0.111   0.242   0.063
    1UNL     H6   32  -0.285   0.076  -0.123
    1UNL     H7   33  -0.107   0.009  -0.259
    1UNL     H8   34  -0.095   0.189  -0.244
    1UNL     H9   35   0.119   0.252  -0.008
    1UNL    H10   36   0.098   0.295  -0.169
    1UNL    H11   37   0.337   0.266  -0.072
    1UNL    H12   38   0.319   0.167  -0.218
    1UNL    H13   39   0.234  -0.237   0.093
    1UNL    H14   40   0.486  -0.269   0.224
    1UNL    H15   41   0.705  -0.165   0.226
    1UNL    H16   42   0.751   0.053   0.126
    1UNL    H17   43   0.572   0.166  -0.013
    1UNL    H18   44   0.051  -0.139  -0.121
    1UNL    H19   45   0.014   0.059   0.120
    1UNL    H20   46   0.001  -0.107   0.127
    1UNL    H21   47  -0.220   0.001   0.118
    1UNL    H22   48  -0.170  -0.184  -0.117
    1UNL    H23   49  -0.230  -0.208   0.177
    1UNL    H24   50  -0.097  -0.287   0.088
    1UNL    H25   51  -0.325  -0.383  -0.030
    1UNL    H26   52  -0.584   0.085  -0.057
    1UNL    H27   53  -0.584  -0.085  -0.095
    1UNL    H28   54  -0.639  -0.039   0.061
   0.00000   0.00000   0.00000   0.00000   0.00000   0.00000   0.00000   0.00000   0.00000
Generated with MDTraj, t= 26.0
 54
    1UNL     C1    1  -0.316   0.263   0.095
    1UNL     C2    2  -0.189   0.232   0.018
    1UNL     C3    3  -0.189   0.097  -0.061
    1UNL     C4    4  -0.087   0.101  -0.186
    1UNL     N1    5   0.053   0.086  -0.138
    1UNL     C5    6   0.143   0.211  -0.116
    1UNL     C6    7   0.292   0.180  -0.113
    1UNL     C7    8   0.324   0.055  -0.039
    1UNL     C8    9   0.227  -0.039  -0.012
    1UNL     N2   10   0.290  -0.146   0.057
    1UNL     C9   11   0.420  -0.110   0.078
    1UNL    C10   12   0.505  -0.175   0.161
    1UNL    C11   13   0.632  -0.108   0.178
    1UNL    C12   14   0.666   0.015   0.116
    1UNL    C13   15   0.575   0.076   0.032
    1UNL    C14   16   0.451   0.016   0.021
    1UNL    C15   17   0.083  -0.032  -0.057
    1UNL    C16   18  -0.011  -0.044   0.067
    1UNL    C17   19  -0.161  -0.028   0.025
    1UNL    C18   20  -0.240  -0.159  -0.012
    1UNL    C19   21  -0.235  -0.273   0.088
    1UNL     O1   22  -0.291  -0.394   0.034
    1UNL    C20   23  -0.383  -0.147  -0.045
    1UNL     O2   24  -0.452  -0.239  -0.085
    1UNL     O3   25  -0.444  -0.022  -0.027
    1UNL    C21   26  -0.578  -0.025  -0.043
    1UNL     H1   27  -0.397   0.229   0.032
    1UNL     H2   28  -0.314   0.206   0.188
    1UNL     H3   29  -0.321   0.367   0.127
    1UNL     H4   30  -0.170   0.316  -0.057
    1UNL     H5   31  -0.100   0.224   0.079
    1UNL     H6   32  -0.285   0.092  -0.110
    1UNL     H7   33  -0.113   0.010  -0.238
    1UNL     H8   34  -0.086   0.190  -0.247
    1UNL     H9   35   0.094   0.249  -0.021
    1UNL    H10   36   0.125   0.288  -0.187
    1UNL    H11   37   0.345   0.273  -0.074
    1UNL    H12   38   0.313   0.171  -0.218
    1UNL    H13   39   0.258  -0.244   0.077
    1UNL    H14   40   0.485  -0.267   0.207
    1UNL    H15   41   0.708  -0.164   0.235
    1UNL    H16   42   0.760   0.064   0.134
    1UNL    H17   43   0.600   0.176  -0.010
    1UNL    H18   44   0.067  -0.124  -0.121
    1UNL    H19   45   0.026   0.041   0.124
    1UNL    H20   46   0.026  -0.119   0.129
    1UNL    H21   47  -0.216  -0.004   0.117
    1UNL    H22   48  -0.182  -0.193  -0.109
    1UNL    H23   49  -0.303  -0.250   0.175
    1UNL    H24   50  -0.133  -0.277   0.123
    1UNL    H25   51  -0.390  -0.383   0.006
    1UNL    H26   52  -0.623   0.078  -0.050
    1UNL    H27   53  -0.610  -0.077  -0.128
    1UNL    H28   54  -0.619  -0.075   0.042
   0.00000   0.00000   0.00000   0.00000   0.00000   0.00000   0.00000   0.00000   0.00000
Generated with MDTraj, t= 27.0
 54
    1UNL     C1    1  -0.307   0.253   0.105
    1UNL     C2    2  -0.182   0.223   0.010
    1UNL     C3    3  -0.184   0.092  -0.064
    1UNL     C4    4  -0.080   0.086  -0.180
    1UNL     N1    5   0.059   0.063  -0.142
    1UNL     C5    6   0.122   0.195  -0.099
    1UNL     C6    7   0.272   0.170  -0.109
    1UNL     C7    8   0.302   0.049  -0.027
    1UNL     C8    9   0.219  -0.057  -0.001
    1UNL     N2   10   0.282  -0.145   0.079
    1UNL     C9   11   0.418  -0.113   0.090
    1UNL    C10   12   0.532  -0.174   0.151
    1UNL    C11   13   0.649  -0.098   0.159
    1UNL    C12   14   0.663   0.024   0.092
    1UNL    C13   15   0.550   0.084   0.025
    1UNL    C14   16   0.428   0.013   0.027
    1UNL    C15   17   0.071  -0.058  -0.048
    1UNL    C16   18  -0.022  -0.034   0.079
    1UNL    C17   19  -0.174  -0.026   0.038
    1UNL    C18   20  -0.236  -0.149  -0.018
    1UNL    C19   21  -0.214  -0.264   0.082
    1UNL     O1   22  -0.264  -0.382   0.041
    1UNL    C20   23  -0.384  -0.133  -0.047
    1UNL     O2   24  -0.443  -0.225  -0.101
    1UNL     O3   25  -0.439  -0.014  -0.020
    1UNL    C21   26  -0.569   0.002  -0.076
    1UNL     H1   27  -0.395   0.230   0.044
    1UNL     H2   28  -0.300   0.182   0.189
    1UNL     H3   29  -0.306   0.348   0.154
    1UNL     H4   30  -0.164   0.302  -0.070
    1UNL     H5   31  -0.092   0.217   0.072
    1UNL     H6   32  -0.276   0.113  -0.120
    1UNL     H7   33  -0.104  -0.002  -0.239
    1UNL     H8   34  -0.087   0.175  -0.239
    1UNL     H9   35   0.100   0.212   0.010
    1UNL    H10   36   0.067   0.272  -0.151
    1UNL    H11   37   0.319   0.262  -0.060
    1UNL    H12   38   0.300   0.156  -0.211
    1UNL    H13   39   0.229  -0.222   0.126
    1UNL    H14   40   0.528  -0.282   0.179
    1UNL    H15   41   0.741  -0.147   0.196
    1UNL    H16   42   0.755   0.086   0.086
    1UNL    H17   43   0.548   0.179  -0.013
    1UNL    H18   44   0.054  -0.153  -0.106
    1UNL    H19   45   0.012   0.056   0.129
    1UNL    H20   46   0.003  -0.110   0.147
    1UNL    H21   47  -0.238  -0.003   0.125
    1UNL    H22   48  -0.182  -0.189  -0.114
    1UNL    H23   49  -0.262  -0.235   0.177
    1UNL    H24   50  -0.111  -0.290   0.103
    1UNL    H25   51  -0.328  -0.361  -0.030
    1UNL    H26   52  -0.636   0.086  -0.036
    1UNL    H27   53  -0.580   0.010  -0.183
    1UNL    H28   54  -0.621  -0.092  -0.054
   0.00000   0.00000   0.00000   0.00000   0.00000   0.00000   0.00000   0.00000   0.00000
Generated with MDTraj, t= 28.0
 54
    1UNL     C1    1  -0.306   0.284   0.088
    1UNL     C2    2  -0.196   0.233   0.001
    1UNL     C3    3  -0.197   0.087  -0.055
    1UNL     C4    4  -0.102   0.070  -0.172
    1UNL     N1    5   0.046   0.069  -0.131
    1UNL     C5    6   0.125   0.196  -0.136
    1UNL     C6    7   0.281   0.183  -0.105
    1UNL     C7    8   0.310   0.059  -0.022
    1UNL     C8    9   0.219  -0.038   0.017
    1UNL     N2   10   0.278  -0.141   0.080
    1UNL     C9   11   0.410  -0.107   0.093
    1UNL    C10   12   0.518  -0.177   0.152
    1UNL    C11   13   0.642  -0.118   0.145
    1UNL    C12   14   0.665   0.010   0.081
    1UNL    C13   15   0.562   0.074   0.018
    1UNL    C14   16   0.436   0.017   0.027
    1UNL    C15   17   0.072  -0.035  -0.025
    1UNL    C16   18  -0.015  -0.025   0.096
    1UNL    C17   19  -0.165  -0.023   0.052
    1UNL    C18   20  -0.227  -0.152   0.004
    1UNL    C19   21  -0.226  -0.286   0.093
    1UNL     O1   22  -0.266  -0.396   0.021
    1UNL    C20   23  -0.366  -0.137  -0.055
    1UNL     O2   24  -0.417  -0.212  -0.141
    1UNL     O3   25  -0.443  -0.031  -0.003
    1UNL    C21   26  -0.561  -0.010  -0.067
    1UNL     H1   27  -0.404   0.270   0.039
    1UNL     H2   28  -0.313   0.216   0.173
    1UNL     H3   29  -0.294   0.376   0.139
    1UNL     H4   30  -0.200   0.297  -0.090
    1UNL     H5   31  -0.097   0.245   0.048
    1UNL     H6   32  -0.297   0.082  -0.098
    1UNL     H7   33  -0.132  -0.015  -0.231
    1UNL     H8   34  -0.104   0.153  -0.238
    1UNL     H9   35   0.067   0.257  -0.067
    1UNL    H10   36   0.106   0.243  -0.231
    1UNL    H11   37   0.305   0.272  -0.038
    1UNL    H12   38   0.341   0.177  -0.193
    1UNL    H13   39   0.223  -0.228   0.104
    1UNL    H14   40   0.501  -0.278   0.174
    1UNL    H15   41   0.719  -0.174   0.183
    1UNL    H16   42   0.759   0.053   0.085
    1UNL    H17   43   0.570   0.178  -0.031
    1UNL    H18   44   0.049  -0.126  -0.087
    1UNL    H19   45   0.005   0.065   0.151
    1UNL    H20   46  -0.002  -0.107   0.167
    1UNL    H21   47  -0.222  -0.011   0.147
    1UNL    H22   48  -0.169  -0.193  -0.089
    1UNL    H23   49  -0.295  -0.286   0.179
    1UNL    H24   50  -0.131  -0.304   0.139
    1UNL    H25   51  -0.348  -0.367  -0.023
    1UNL    H26   52  -0.611   0.086  -0.028
    1UNL    H27   53  -0.565  -0.000  -0.175
    1UNL    H28   54  -0.625  -0.096  -0.041
   0.00000   0.00000   0.00000   0.00000   0.00000   0.00000   0.00000   0.00000   0.00000
Generated with MDTraj, t= 29.0
 54
    1UNL     C1    1  -0.316   0.278   0.085
    1UNL     C2    2  -0.195   0.244   0.004
    1UNL     C3    3  -0.190   0.105  -0.058
    1UNL     C4    4  -0.091   0.094  -0.174
    1UNL     N1    5   0.053   0.079  -0.129
    1UNL     C5    6   0.140   0.204  -0.102
    1UNL     C6    7   0.285   0.171  -0.117
    1UNL     C7    8   0.309   0.056  -0.021
    1UNL     C8    9   0.214  -0.040   0.011
    1UNL     N2   10   0.275  -0.138   0.097
    1UNL     C9   11   0.411  -0.105   0.102
    1UNL    C10   12   0.517  -0.176   0.159
    1UNL    C11   13   0.643  -0.132   0.137
    1UNL    C12   14   0.668  -0.008   0.063
    1UNL    C13   15   0.563   0.058   0.017
    1UNL    C14   16   0.434   0.015   0.035
    1UNL    C15   17   0.070  -0.035  -0.041
    1UNL    C16   18  -0.019  -0.013   0.080
    1UNL    C17   19  -0.171  -0.009   0.039
    1UNL    C18   20  -0.224  -0.140  -0.015
    1UNL    C19   21  -0.224  -0.251   0.096
    1UNL     O1   22  -0.267  -0.380   0.048
    1UNL    C20   23  -0.371  -0.134  -0.068
    1UNL     O2   24  -0.396  -0.204  -0.168
    1UNL     O3   25  -0.460  -0.059   0.005
    1UNL    C21   26  -0.589  -0.081  -0.037
    1UNL     H1   27  -0.411   0.276   0.029
    1UNL     H2   28  -0.329   0.201   0.157
    1UNL     H3   29  -0.304   0.362   0.152
    1UNL     H4   30  -0.197   0.314  -0.083
    1UNL     H5   31  -0.102   0.263   0.063
    1UNL     H6   32  -0.286   0.094  -0.109
    1UNL     H7   33  -0.114   0.013  -0.243
    1UNL     H8   34  -0.094   0.182  -0.235
    1UNL     H9   35   0.118   0.235  -0.003
    1UNL    H10   36   0.105   0.285  -0.167
    1UNL    H11   37   0.359   0.254  -0.094
    1UNL    H12   38   0.292   0.122  -0.213
    1UNL    H13   39   0.226  -0.231   0.115
    1UNL    H14   40   0.486  -0.263   0.222
    1UNL    H15   41   0.735  -0.183   0.182
    1UNL    H16   42   0.771   0.033   0.071
    1UNL    H17   43   0.579   0.147  -0.033
    1UNL    H18   44   0.055  -0.132  -0.093
    1UNL    H19   45  -0.007   0.075   0.137
    1UNL    H20   46  -0.007  -0.098   0.151
    1UNL    H21   47  -0.230   0.015   0.131
    1UNL    H22   48  -0.160  -0.176  -0.103
    1UNL    H23   49  -0.269  -0.219   0.191
    1UNL    H24   50  -0.124  -0.271   0.131
    1UNL    H25   51  -0.305  -0.355  -0.040
    1UNL    H26   52  -0.667  -0.024   0.021
    1UNL    H27   53  -0.611  -0.054  -0.140
    1UNL    H28   54  -0.604  -0.192  -0.034
   0.00000   0.00000   0.00000   0.00000   0.00000   0.00000   0.00000   0.00000   0.00000
Generated with MDTraj, t= 30.0
 54
    1UNL     C1    1  -0.330   0.269   0.082
    1UNL     C2    2  -0.197   0.255  -0.009
    1UNL     C3    3  -0.189   0.113  -0.065
    1UNL     C4    4  -0.083   0.101  -0.177
    1UNL     N1    5   0.058   0.091  -0.126
    1UNL     C5    6   0.144   0.217  -0.106
    1UNL     C6    7   0.289   0.185  -0.104
    1UNL     C7    8   0.318   0.055  -0.029
    1UNL     C8    9   0.217  -0.026   0.012
    1UNL     N2   10   0.268  -0.134   0.084
    1UNL     C9   11   0.408  -0.122   0.077
    1UNL    C10   12   0.507  -0.189   0.158
    1UNL    C11   13   0.630  -0.133   0.162
    1UNL    C12   14   0.667  -0.027   0.077
    1UNL    C13   15   0.573   0.037   0.000
    1UNL    C14   16   0.437  -0.002   0.015
    1UNL    C15   17   0.075  -0.011  -0.024
    1UNL    C16   18  -0.025   0.007   0.090
    1UNL    C17   19  -0.183   0.000   0.040
    1UNL    C18   20  -0.224  -0.137  -0.014
    1UNL    C19   21  -0.205  -0.248   0.085
    1UNL     O1   22  -0.272  -0.368   0.045
    1UNL    C20   23  -0.370  -0.143  -0.062
    1UNL     O2   24  -0.390  -0.206  -0.166
    1UNL     O3   25  -0.462  -0.085   0.017
    1UNL    C21   26  -0.589  -0.113  -0.027
    1UNL     H1   27  -0.416   0.214   0.050
    1UNL     H2   28  -0.307   0.234   0.180
    1UNL     H3   29  -0.353   0.372   0.111
    1UNL     H4   30  -0.211   0.330  -0.087
    1UNL     H5   31  -0.109   0.293   0.049
    1UNL     H6   32  -0.279   0.094  -0.121
    1UNL     H7   33  -0.104   0.011  -0.233
    1UNL     H8   34  -0.086   0.180  -0.251
    1UNL     H9   35   0.120   0.268  -0.017
    1UNL    H10   36   0.123   0.288  -0.189
    1UNL    H11   37   0.342   0.265  -0.043
    1UNL    H12   38   0.322   0.163  -0.204
    1UNL    H13   39   0.221  -0.200   0.151
    1UNL    H14   40   0.482  -0.268   0.226
    1UNL    H15   41   0.707  -0.160   0.227
    1UNL    H16   42   0.767   0.009   0.072
    1UNL    H17   43   0.603   0.118  -0.066
    1UNL    H18   44   0.050  -0.098  -0.086
    1UNL    H19   45  -0.007   0.098   0.140
    1UNL    H20   46  -0.020  -0.066   0.176
    1UNL    H21   47  -0.251   0.032   0.123
    1UNL    H22   48  -0.168  -0.154  -0.109
    1UNL    H23   49  -0.248  -0.231   0.185
    1UNL    H24   50  -0.104  -0.264   0.119
    1UNL    H25   51  -0.323  -0.361  -0.041
    1UNL    H26   52  -0.658  -0.058   0.039
    1UNL    H27   53  -0.605  -0.076  -0.126
    1UNL    H28   54  -0.612  -0.220  -0.034
   0.00000   0.00000   0.00000   0.00000   0.00000   0.00000   0.00000   0.00000   0.00000
Generated with MDTraj, t= 31.0
 54
    1UNL     C1    1  -0.345   0.269   0.072
    1UNL     C2    2  -0.217   0.255  -0.008
    1UNL     C3    3  -0.199   0.114  -0.075
    1UNL     C4    4  -0.087   0.107  -0.191
    1UNL     N1    5   0.053   0.092  -0.142
    1UNL     C5    6   0.135   0.212  -0.116
    1UNL     C6    7   0.290   0.168  -0.113
    1UNL     C7    8   0.312   0.061  -0.017
    1UNL     C8    9   0.209  -0.027   0.010
    1UNL     N2   10   0.258  -0.133   0.085
    1UNL     C9   11   0.389  -0.114   0.107
    1UNL    C10   12   0.495  -0.192   0.152
    1UNL    C11   13   0.627  -0.159   0.134
    1UNL    C12   14   0.652  -0.033   0.085
    1UNL    C13   15   0.559   0.050   0.030
    1UNL    C14   16   0.431   0.007   0.045
    1UNL    C15   17   0.073  -0.015  -0.044
    1UNL    C16   18  -0.019   0.002   0.073
    1UNL    C17   19  -0.171   0.001   0.036
    1UNL    C18   20  -0.214  -0.143  -0.005
    1UNL    C19   21  -0.203  -0.251   0.091
    1UNL     O1   22  -0.208  -0.381   0.040
    1UNL    C20   23  -0.357  -0.142  -0.056
    1UNL     O2   24  -0.391  -0.191  -0.161
    1UNL     O3   25  -0.443  -0.079   0.031
    1UNL    C21   26  -0.579  -0.080  -0.012
    1UNL     H1   27  -0.435   0.244   0.026
    1UNL     H2   28  -0.340   0.204   0.158
    1UNL     H3   29  -0.357   0.362   0.129
    1UNL     H4   30  -0.217   0.337  -0.080
    1UNL     H5   31  -0.131   0.289   0.058
    1UNL     H6   32  -0.288   0.074  -0.120
    1UNL     H7   33  -0.098   0.015  -0.247
    1UNL     H8   34  -0.096   0.186  -0.265
    1UNL     H9   35   0.108   0.250  -0.023
    1UNL    H10   36   0.116   0.290  -0.194
    1UNL    H11   37   0.344   0.258  -0.072
    1UNL    H12   38   0.313   0.133  -0.212
    1UNL    H13   39   0.220  -0.229   0.101
    1UNL    H14   40   0.478  -0.290   0.190
    1UNL    H15   41   0.702  -0.234   0.148
    1UNL    H16   42   0.756  -0.011   0.072
    1UNL    H17   43   0.599   0.135  -0.030
    1UNL    H18   44   0.052  -0.101  -0.107
    1UNL    H19   45  -0.012   0.095   0.123
    1UNL    H20   46   0.020  -0.070   0.153
    1UNL    H21   47  -0.229   0.039   0.127
    1UNL    H22   48  -0.153  -0.163  -0.093
    1UNL    H23   49  -0.273  -0.240   0.176
    1UNL    H24   50  -0.111  -0.244   0.146
    1UNL    H25   51  -0.277  -0.394  -0.036
    1UNL    H26   52  -0.634  -0.015   0.057
    1UNL    H27   53  -0.577  -0.045  -0.111
    1UNL    H28   54  -0.630  -0.176  -0.017
   0.00000   0.00000   0.00000   0.00000   0.00000   0.00000   0.00000   0.00000   0.00000
Generated with MDTraj, t= 32.0
 54
    1UNL     C1    1  -0.350   0.275   0.052
    1UNL     C2    2  -0.222   0.249  -0.024
    1UNL     C3    3  -0.201   0.107  -0.074
    1UNL     C4    4  -0.089   0.085  -0.179
    1UNL     N1    5   0.054   0.086  -0.132
    1UNL     C5    6   0.136   0.212  -0.123
    1UNL     C6    7   0.282   0.187  -0.082
    1UNL     C7    8   0.302   0.053  -0.020
    1UNL     C8    9   0.209  -0.036   0.007
    1UNL     N2   10   0.265  -0.147   0.074
    1UNL     C9   11   0.404  -0.131   0.082
    1UNL    C10   12   0.509  -0.200   0.146
    1UNL    C11   13   0.630  -0.142   0.158
    1UNL    C12   14   0.656  -0.028   0.095
    1UNL    C13   15   0.559   0.049   0.026
    1UNL    C14   16   0.428  -0.002   0.022
    1UNL    C15   17   0.066  -0.017  -0.032
    1UNL    C16   18  -0.031   0.010   0.085
    1UNL    C17   19  -0.178   0.003   0.041
    1UNL    C18   20  -0.215  -0.137  -0.007
    1UNL    C19   21  -0.179  -0.262   0.073
    1UNL     O1   22  -0.193  -0.382   0.010
    1UNL    C20   23  -0.366  -0.133  -0.043
    1UNL     O2   24  -0.401  -0.203  -0.133
    1UNL     O3   25  -0.447  -0.055   0.035
    1UNL    C21   26  -0.580  -0.058  -0.013
    1UNL     H1   27  -0.439   0.264  -0.003
    1UNL     H2   28  -0.356   0.205   0.134
    1UNL     H3   29  -0.346   0.367   0.108
    1UNL     H4   30  -0.223   0.320  -0.109
    1UNL     H5   31  -0.137   0.299   0.035
    1UNL     H6   32  -0.291   0.066  -0.113
    1UNL     H7   33  -0.102  -0.007  -0.232
    1UNL     H8   34  -0.099   0.160  -0.256
    1UNL     H9   35   0.090   0.283  -0.059
    1UNL    H10   36   0.130   0.253  -0.227
    1UNL    H11   37   0.305   0.270  -0.009
    1UNL    H12   38   0.339   0.190  -0.173
    1UNL    H13   39   0.229  -0.243   0.096
    1UNL    H14   40   0.489  -0.301   0.190
    1UNL    H15   41   0.707  -0.204   0.213
    1UNL    H16   42   0.764   0.007   0.105
    1UNL    H17   43   0.577   0.142  -0.016
    1UNL    H18   44   0.038  -0.109  -0.078
    1UNL    H19   45   0.001   0.107   0.119
    1UNL    H20   46  -0.018  -0.050   0.179
    1UNL    H21   47  -0.246   0.018   0.134
    1UNL    H22   48  -0.162  -0.147  -0.097
    1UNL    H23   49  -0.239  -0.255   0.167
    1UNL    H24   50  -0.078  -0.253   0.111
    1UNL    H25   51  -0.277  -0.377  -0.040
    1UNL    H26   52  -0.637  -0.014   0.069
    1UNL    H27   53  -0.573   0.001  -0.102
    1UNL    H28   54  -0.622  -0.155  -0.043
   0.00000   0.00000   0.00000   0.00000   0.00000   0.00000   0.00000   0.00000   0.00000
Generated with MDTraj, t= 33.0
 54
    1UNL     C1    1  -0.342   0.279   0.040
    1UNL     C2    2  -0.196   0.246  -0.017
    1UNL     C3    3  -0.188   0.113  -0.084
    1UNL     C4    4  -0.083   0.095  -0.186
    1UNL     N1    5   0.054   0.091  -0.131
    1UNL     C5    6   0.132   0.214  -0.083
    1UNL     C6    7   0.279   0.181  -0.087
    1UNL     C7    8   0.310   0.054  -0.015
    1UNL     C8    9   0.218  -0.048   0.002
    1UNL     N2   10   0.271  -0.154   0.070
    1UNL     C9   11   0.406  -0.123   0.092
    1UNL    C10   12   0.512  -0.195   0.141
    1UNL    C11   13   0.634  -0.137   0.145
    1UNL    C12   14   0.662  -0.010   0.093
    1UNL    C13   15   0.561   0.065   0.045
    1UNL    C14   16   0.430   0.007   0.042
    1UNL    C15   17   0.080  -0.031  -0.045
    1UNL    C16   18  -0.021  -0.011   0.074
    1UNL    C17   19  -0.169  -0.000   0.019
    1UNL    C18   20  -0.227  -0.140  -0.033
    1UNL    C19   21  -0.182  -0.260   0.059
    1UNL     O1   22  -0.221  -0.384   0.012
    1UNL    C20   23  -0.382  -0.139  -0.041
    1UNL     O2   24  -0.431  -0.235  -0.094
    1UNL     O3   25  -0.455  -0.029   0.018
    1UNL    C21   26  -0.589  -0.063   0.004
    1UNL     H1   27  -0.415   0.239  -0.029
    1UNL     H2   28  -0.353   0.226   0.132
    1UNL     H3   29  -0.352   0.382   0.065
    1UNL     H4   30  -0.182   0.324  -0.095
    1UNL     H5   31  -0.106   0.269   0.051
    1UNL     H6   32  -0.289   0.100  -0.119
    1UNL     H7   33  -0.101   0.013  -0.254
    1UNL     H8   34  -0.082   0.183  -0.249
    1UNL     H9   35   0.090   0.236   0.013
    1UNL    H10   36   0.112   0.305  -0.144
    1UNL    H11   37   0.342   0.264  -0.051
    1UNL    H12   38   0.300   0.165  -0.192
    1UNL    H13   39   0.218  -0.231   0.115
    1UNL    H14   40   0.495  -0.294   0.168
    1UNL    H15   41   0.710  -0.183   0.195
    1UNL    H16   42   0.753   0.033   0.102
    1UNL    H17   43   0.586   0.171   0.018
    1UNL    H18   44   0.047  -0.117  -0.098
    1UNL    H19   45   0.013   0.064   0.145
    1UNL    H20   46  -0.005  -0.105   0.133
    1UNL    H21   47  -0.233   0.027   0.113
    1UNL    H22   48  -0.183  -0.163  -0.125
    1UNL    H23   49  -0.212  -0.248   0.168
    1UNL    H24   50  -0.073  -0.259   0.058
    1UNL    H25   51  -0.305  -0.378  -0.034
    1UNL    H26   52  -0.638   0.022   0.054
    1UNL    H27   53  -0.603  -0.071  -0.104
    1UNL    H28   54  -0.618  -0.158   0.055
   0.00000   0.00000   0.00000   0.00000   0.00000   0.00000   0.00000   0.00000   0.00000
Generated with MDTraj, t= 34.0
 54
    1UNL     C1    1  -0.331   0.261   0.057
    1UNL     C2    2  -0.199   0.233  -0.008
    1UNL     C3    3  -0.190   0.096  -0.089
    1UNL     C4    4  -0.078   0.097  -0.190
    1UNL     N1    5   0.062   0.095  -0.141
    1UNL     C5    6   0.139   0.220  -0.118
    1UNL     C6    7   0.288   0.205  -0.075
    1UNL     C7    8   0.311   0.069  -0.005
    1UNL     C8    9   0.214  -0.034   0.009
    1UNL     N2   10   0.279  -0.140   0.060
    1UNL     C9   11   0.415  -0.111   0.085
    1UNL    C10   12   0.516  -0.192   0.145
    1UNL    C11   13   0.643  -0.142   0.152
    1UNL    C12   14   0.664  -0.005   0.111
    1UNL    C13   15   0.567   0.064   0.052
    1UNL    C14   16   0.438   0.016   0.036
    1UNL    C15   17   0.079  -0.024  -0.046
    1UNL    C16   18  -0.028  -0.028   0.064
    1UNL    C17   19  -0.168  -0.026   0.012
    1UNL    C18   20  -0.234  -0.152  -0.041
    1UNL    C19   21  -0.201  -0.274   0.049
    1UNL     O1   22  -0.262  -0.394   0.007
    1UNL    C20   23  -0.389  -0.143  -0.037
    1UNL     O2   24  -0.452  -0.242  -0.064
    1UNL     O3   25  -0.436  -0.022   0.003
    1UNL    C21   26  -0.575  -0.035   0.012
    1UNL     H1   27  -0.404   0.269  -0.024
    1UNL     H2   28  -0.356   0.173   0.109
    1UNL     H3   29  -0.325   0.335   0.131
    1UNL     H4   30  -0.161   0.311  -0.078
    1UNL     H5   31  -0.115   0.229   0.069
    1UNL     H6   32  -0.289   0.098  -0.133
    1UNL     H7   33  -0.090   0.017  -0.261
    1UNL     H8   34  -0.089   0.185  -0.253
    1UNL     H9   35   0.083   0.283  -0.050
    1UNL    H10   36   0.114   0.277  -0.212
    1UNL    H11   37   0.315   0.288  -0.009
    1UNL    H12   38   0.363   0.214  -0.153
    1UNL    H13   39   0.227  -0.228   0.066
    1UNL    H14   40   0.498  -0.295   0.184
    1UNL    H15   41   0.727  -0.201   0.201
    1UNL    H16   42   0.765   0.036   0.138
    1UNL    H17   43   0.580   0.162   0.021
    1UNL    H18   44   0.055  -0.102  -0.113
    1UNL    H19   45   0.000   0.061   0.122
    1UNL    H20   46  -0.005  -0.115   0.128
    1UNL    H21   47  -0.228  -0.008   0.113
    1UNL    H22   48  -0.200  -0.184  -0.133
    1UNL    H23   49  -0.233  -0.247   0.154
    1UNL    H24   50  -0.094  -0.299   0.058
    1UNL    H25   51  -0.361  -0.389  -0.027
    1UNL    H26   52  -0.614   0.064  -0.011
    1UNL    H27   53  -0.605  -0.115  -0.058
    1UNL    H28   54  -0.604  -0.060   0.120
   0.00000   0.00000   0.00000   0.00000   0.00000   0.00000   0.00000   0.00000   0.00000
Generated with MDTraj, t= 35.0
 54
    1UNL     C1    1  -0.324   0.252   0.075
    1UNL     C2    2  -0.207   0.233  -0.017
    1UNL     C3    3  -0.191   0.092  -0.087
    1UNL     C4    4  -0.081   0.095  -0.197
    1UNL     N1    5   0.058   0.080  -0.144
    1UNL     C5    6   0.120   0.198  -0.084
    1UNL     C6    7   0.272   0.184  -0.090
    1UNL     C7    8   0.308   0.052  -0.022
    1UNL     C8    9   0.226  -0.052  -0.012
    1UNL     N2   10   0.285  -0.152   0.050
    1UNL     C9   11   0.420  -0.118   0.086
    1UNL    C10   12   0.521  -0.185   0.148
    1UNL    C11   13   0.641  -0.118   0.166
    1UNL    C12   14   0.658   0.015   0.114
    1UNL    C13   15   0.556   0.085   0.063
    1UNL    C14   16   0.430   0.018   0.044
    1UNL    C15   17   0.079  -0.047  -0.057
    1UNL    C16   18  -0.015  -0.038   0.064
    1UNL    C17   19  -0.164  -0.022   0.020
    1UNL    C18   20  -0.234  -0.149  -0.029
    1UNL    C19   21  -0.207  -0.270   0.056
    1UNL     O1   22  -0.249  -0.386  -0.012
    1UNL    C20   23  -0.380  -0.134  -0.026
    1UNL     O2   24  -0.453  -0.222  -0.067
    1UNL     O3   25  -0.427  -0.013   0.017
    1UNL    C21   26  -0.569  -0.007  -0.012
    1UNL     H1   27  -0.411   0.219   0.018
    1UNL     H2   28  -0.315   0.188   0.157
    1UNL     H3   29  -0.321   0.346   0.119
    1UNL     H4   30  -0.206   0.309  -0.099
    1UNL     H5   31  -0.107   0.234   0.034
    1UNL     H6   32  -0.293   0.079  -0.126
    1UNL     H7   33  -0.100   0.004  -0.252
    1UNL     H8   34  -0.092   0.180  -0.265
    1UNL     H9   35   0.075   0.204   0.015
    1UNL    H10   36   0.081   0.290  -0.132
    1UNL    H11   37   0.324   0.259  -0.031
    1UNL    H12   38   0.311   0.191  -0.193
    1UNL    H13   39   0.224  -0.236   0.053
    1UNL    H14   40   0.487  -0.281   0.183
    1UNL    H15   41   0.727  -0.165   0.208
    1UNL    H16   42   0.756   0.056   0.108
    1UNL    H17   43   0.562   0.183   0.011
    1UNL    H18   44   0.063  -0.134  -0.114
    1UNL    H19   45   0.021   0.046   0.129
    1UNL    H20   46   0.006  -0.128   0.123
    1UNL    H21   47  -0.227   0.003   0.118
    1UNL    H22   48  -0.211  -0.171  -0.128
    1UNL    H23   49  -0.259  -0.268   0.157
    1UNL    H24   50  -0.099  -0.277   0.075
    1UNL    H25   51  -0.338  -0.368  -0.034
    1UNL    H26   52  -0.606   0.075   0.047
    1UNL    H27   53  -0.588   0.002  -0.120
    1UNL    H28   54  -0.616  -0.103   0.031
   0.00000   0.00000   0.00000   0.00000   0.00000   0.00000   0.00000   0.00000   0.00000
Generated with MDTraj, t= 36.0
 54
    1UNL     C1    1  -0.315   0.272   0.079
    1UNL     C2    2  -0.179   0.229   0.014
    1UNL     C3    3  -0.189   0.095  -0.062
    1UNL     C4    4  -0.085   0.087  -0.175
    1UNL     N1    5   0.052   0.072  -0.136
    1UNL     C5    6   0.131   0.202  -0.124
    1UNL     C6    7   0.278   0.178  -0.095
    1UNL     C7    8   0.314   0.046  -0.037
    1UNL     C8    9   0.222  -0.058  -0.015
    1UNL     N2   10   0.287  -0.161   0.044
    1UNL     C9   11   0.417  -0.120   0.073
    1UNL    C10   12   0.514  -0.180   0.148
    1UNL    C11   13   0.628  -0.106   0.174
    1UNL    C12   14   0.648   0.031   0.132
    1UNL    C13   15   0.554   0.087   0.050
    1UNL    C14   16   0.439   0.011   0.022
    1UNL    C15   17   0.074  -0.046  -0.049
    1UNL    C16   18  -0.017  -0.039   0.077
    1UNL    C17   19  -0.170  -0.021   0.034
    1UNL    C18   20  -0.232  -0.149  -0.021
    1UNL    C19   21  -0.193  -0.271   0.058
    1UNL     O1   22  -0.254  -0.388   0.001
    1UNL    C20   23  -0.383  -0.135  -0.039
    1UNL     O2   24  -0.447  -0.212  -0.108
    1UNL     O3   25  -0.439  -0.028   0.014
    1UNL    C21   26  -0.583  -0.017  -0.016
    1UNL     H1   27  -0.389   0.239   0.007
    1UNL     H2   28  -0.336   0.227   0.171
    1UNL     H3   29  -0.305   0.374   0.100
    1UNL     H4   30  -0.139   0.303  -0.061
    1UNL     H5   31  -0.106   0.210   0.097
    1UNL     H6   32  -0.288   0.093  -0.111
    1UNL     H7   33  -0.111  -0.000  -0.233
    1UNL     H8   34  -0.101   0.178  -0.235
    1UNL     H9   35   0.089   0.265  -0.043
    1UNL    H10   36   0.121   0.257  -0.220
    1UNL    H11   37   0.317   0.264  -0.045
    1UNL    H12   38   0.323   0.171  -0.196
    1UNL    H13   39   0.230  -0.234   0.089
    1UNL    H14   40   0.499  -0.276   0.194
    1UNL    H15   41   0.692  -0.165   0.233
    1UNL    H16   42   0.740   0.086   0.148
    1UNL    H17   43   0.551   0.184   0.002
    1UNL    H18   44   0.049  -0.134  -0.101
    1UNL    H19   45   0.018   0.056   0.128
    1UNL    H20   46   0.012  -0.115   0.152
    1UNL    H21   47  -0.242   0.004   0.125
    1UNL    H22   48  -0.199  -0.159  -0.120
    1UNL    H23   49  -0.230  -0.254   0.162
    1UNL    H24   50  -0.087  -0.290   0.068
    1UNL    H25   51  -0.339  -0.346  -0.038
    1UNL    H26   52  -0.625   0.032   0.068
    1UNL    H27   53  -0.610   0.033  -0.108
    1UNL    H28   54  -0.626  -0.122  -0.010
   0.00000   0.00000   0.00000   0.00000   0.00000   0.00000   0.00000   0.00000   0.00000
Generated with MDTraj, t= 37.0
 54
    1UNL     C1    1  -0.295   0.278   0.100
    1UNL     C2    2  -0.176   0.234   0.019
    1UNL     C3    3  -0.192   0.093  -0.055
    1UNL     C4    4  -0.091   0.094  -0.184
    1UNL     N1    5   0.052   0.081  -0.143
    1UNL     C5    6   0.134   0.210  -0.115
    1UNL     C6    7   0.282   0.180  -0.126
    1UNL     C7    8   0.310   0.051  -0.050
    1UNL     C8    9   0.216  -0.049  -0.026
    1UNL     N2   10   0.272  -0.134   0.066
    1UNL     C9   11   0.396  -0.098   0.102
    1UNL    C10   12   0.492  -0.173   0.168
    1UNL    C11   13   0.627  -0.123   0.169
    1UNL    C12   14   0.653   0.004   0.109
    1UNL    C13   15   0.555   0.081   0.043
    1UNL    C14   16   0.426   0.017   0.033
    1UNL    C15   17   0.072  -0.043  -0.064
    1UNL    C16   18  -0.011  -0.039   0.063
    1UNL    C17   19  -0.164  -0.025   0.041
    1UNL    C18   20  -0.221  -0.157  -0.015
    1UNL    C19   21  -0.216  -0.274   0.084
    1UNL     O1   22  -0.266  -0.389   0.015
    1UNL    C20   23  -0.368  -0.133  -0.058
    1UNL     O2   24  -0.415  -0.197  -0.152
    1UNL     O3   25  -0.438  -0.047   0.022
    1UNL    C21   26  -0.575  -0.053  -0.006
    1UNL     H1   27  -0.360   0.333   0.034
    1UNL     H2   28  -0.354   0.207   0.150
    1UNL     H3   29  -0.258   0.342   0.175
    1UNL     H4   30  -0.149   0.312  -0.059
    1UNL     H5   31  -0.089   0.218   0.084
    1UNL     H6   32  -0.293   0.078  -0.099
    1UNL     H7   33  -0.127   0.014  -0.248
    1UNL     H8   34  -0.106   0.191  -0.233
    1UNL     H9   35   0.121   0.242  -0.009
    1UNL    H10   36   0.113   0.291  -0.185
    1UNL    H11   37   0.338   0.257  -0.079
    1UNL    H12   38   0.304   0.172  -0.234
    1UNL    H13   39   0.250  -0.235   0.080
    1UNL    H14   40   0.466  -0.268   0.219
    1UNL    H15   41   0.715  -0.172   0.227
    1UNL    H16   42   0.754   0.049   0.113
    1UNL    H17   43   0.577   0.169  -0.007
    1UNL    H18   44   0.041  -0.126  -0.121
    1UNL    H19   45   0.030   0.043   0.131
    1UNL    H20   46   0.002  -0.131   0.119
    1UNL    H21   47  -0.222  -0.001   0.141
    1UNL    H22   48  -0.169  -0.186  -0.104
    1UNL    H23   49  -0.279  -0.262   0.174
    1UNL    H24   50  -0.117  -0.290   0.122
    1UNL    H25   51  -0.323  -0.368  -0.059
    1UNL    H26   52  -0.617   0.040   0.013
    1UNL    H27   53  -0.598  -0.079  -0.108
    1UNL    H28   54  -0.616  -0.123   0.070
   0.00000   0.00000   0.00000   0.00000   0.00000   0.00000   0.00000   0.00000   0.00000
Generated with MDTraj, t= 38.0
 54
    1UNL     C1    1  -0.293   0.252   0.133
    1UNL     C2    2  -0.206   0.248   0.007
    1UNL     C3    3  -0.195   0.107  -0.062
    1UNL     C4    4  -0.093   0.106  -0.182
    1UNL     N1    5   0.048   0.079  -0.133
    1UNL     C5    6   0.141   0.198  -0.119
    1UNL     C6    7   0.297   0.170  -0.121
    1UNL     C7    8   0.320   0.037  -0.048
    1UNL     C8    9   0.217  -0.042  -0.005
    1UNL     N2   10   0.273  -0.146   0.078
    1UNL     C9   11   0.407  -0.111   0.095
    1UNL    C10   12   0.508  -0.165   0.173
    1UNL    C11   13   0.633  -0.105   0.180
    1UNL    C12   14   0.667   0.007   0.097
    1UNL    C13   15   0.566   0.061   0.013
    1UNL    C14   16   0.441  -0.003   0.013
    1UNL    C15   17   0.070  -0.033  -0.038
    1UNL    C16   18  -0.025  -0.016   0.081
    1UNL    C17   19  -0.172  -0.012   0.035
    1UNL    C18   20  -0.224  -0.145  -0.027
    1UNL    C19   21  -0.207  -0.263   0.069
    1UNL     O1   22  -0.280  -0.377   0.026
    1UNL    C20   23  -0.374  -0.133  -0.065
    1UNL     O2   24  -0.406  -0.198  -0.166
    1UNL     O3   25  -0.458  -0.067   0.025
    1UNL    C21   26  -0.584  -0.065  -0.025
    1UNL     H1   27  -0.393   0.222   0.124
    1UNL     H2   28  -0.259   0.213   0.224
    1UNL     H3   29  -0.307   0.353   0.167
    1UNL     H4   30  -0.238   0.325  -0.070
    1UNL     H5   31  -0.104   0.275   0.031
    1UNL     H6   32  -0.290   0.082  -0.115
    1UNL     H7   33  -0.124   0.029  -0.253
    1UNL     H8   34  -0.113   0.207  -0.222
    1UNL     H9   35   0.118   0.244  -0.018
    1UNL    H10   36   0.120   0.270  -0.196
    1UNL    H11   37   0.344   0.243  -0.062
    1UNL    H12   38   0.346   0.169  -0.220
    1UNL    H13   39   0.239  -0.208   0.155
    1UNL    H14   40   0.498  -0.251   0.232
    1UNL    H15   41   0.704  -0.134   0.247
    1UNL    H16   42   0.762   0.053   0.096
    1UNL    H17   43   0.587   0.142  -0.066
    1UNL    H18   44   0.055  -0.127  -0.084
    1UNL    H19   45  -0.012   0.082   0.135
    1UNL    H20   46  -0.007  -0.095   0.153
    1UNL    H21   47  -0.228   0.020   0.132
    1UNL    H22   48  -0.168  -0.163  -0.120
    1UNL    H23   49  -0.238  -0.230   0.167
    1UNL    H24   50  -0.106  -0.297   0.082
    1UNL    H25   51  -0.336  -0.368  -0.056
    1UNL    H26   52  -0.637   0.014   0.016
    1UNL    H27   53  -0.581  -0.042  -0.131
    1UNL    H28   54  -0.633  -0.163   0.001
   0.00000   0.00000   0.00000   0.00000   0.00000   0.00000   0.00000   0.00000   0.00000
Generated with MDTraj, t= 39.0
 54
    1UNL     C1    1  -0.296   0.246   0.126
    1UNL     C2    2  -0.192   0.239   0.009
    1UNL     C3    3  -0.195   0.104  -0.060
    1UNL     C4    4  -0.091   0.100  -0.173
    1UNL     N1    5   0.050   0.084  -0.129
    1UNL     C5    6   0.141   0.200  -0.123
    1UNL     C6    7   0.287   0.156  -0.137
    1UNL     C7    8   0.311   0.060  -0.034
    1UNL     C8    9   0.217  -0.035   0.010
    1UNL     N2   10   0.270  -0.127   0.104
    1UNL     C9   11   0.401  -0.098   0.101
    1UNL    C10   12   0.505  -0.168   0.168
    1UNL    C11   13   0.632  -0.126   0.156
    1UNL    C12   14   0.665  -0.009   0.079
    1UNL    C13   15   0.569   0.061   0.012
    1UNL    C14   16   0.436   0.010   0.018
    1UNL    C15   17   0.071  -0.030  -0.032
    1UNL    C16   18  -0.030  -0.021   0.085
    1UNL    C17   19  -0.180  -0.016   0.042
    1UNL    C18   20  -0.231  -0.147  -0.016
    1UNL    C19   21  -0.226  -0.266   0.079
    1UNL     O1   22  -0.242  -0.387   0.012
    1UNL    C20   23  -0.371  -0.131  -0.065
    1UNL     O2   24  -0.398  -0.198  -0.162
    1UNL     O3   25  -0.452  -0.049   0.007
    1UNL    C21   26  -0.586  -0.059  -0.032
    1UNL     H1   27  -0.382   0.195   0.106
    1UNL     H2   28  -0.265   0.228   0.226
    1UNL     H3   29  -0.330   0.348   0.130
    1UNL     H4   30  -0.227   0.316  -0.068
    1UNL     H5   31  -0.098   0.274   0.048
    1UNL     H6   32  -0.291   0.084  -0.117
    1UNL     H7   33  -0.128   0.015  -0.231
    1UNL     H8   34  -0.104   0.194  -0.229
    1UNL     H9   35   0.124   0.249  -0.021
    1UNL    H10   36   0.115   0.276  -0.196
    1UNL    H11   37   0.362   0.230  -0.138
    1UNL    H12   38   0.302   0.102  -0.233
    1UNL    H13   39   0.227  -0.217   0.131
    1UNL    H14   40   0.476  -0.249   0.235
    1UNL    H15   41   0.707  -0.180   0.222
    1UNL    H16   42   0.773   0.012   0.065
    1UNL    H17   43   0.597   0.148  -0.036
    1UNL    H18   44   0.068  -0.118  -0.092
    1UNL    H19   45  -0.007   0.078   0.133
    1UNL    H20   46  -0.026  -0.094   0.165
    1UNL    H21   47  -0.240   0.005   0.137
    1UNL    H22   48  -0.161  -0.164  -0.104
    1UNL    H23   49  -0.300  -0.258   0.157
    1UNL    H24   50  -0.130  -0.264   0.124
    1UNL    H25   51  -0.322  -0.384  -0.047
    1UNL    H26   52  -0.651  -0.046   0.051
    1UNL    H27   53  -0.615   0.023  -0.098
    1UNL    H28   54  -0.610  -0.164  -0.071
   0.00000   0.00000   0.00000   0.00000   0.00000   0.00000   0.00000   0.00000   0.00000
Generated with MDTraj, t= 40.0
 54
    1UNL     C1    1  -0.311   0.292   0.102
    1UNL     C2    2  -0.184   0.246   0.023
    1UNL     C3    3  -0.194   0.109  -0.050
    1UNL     C4    4  -0.095   0.096  -0.174
    1UNL     N1    5   0.042   0.075  -0.125
    1UNL     C5    6   0.129   0.196  -0.130
    1UNL     C6    7   0.276   0.176  -0.111
    1UNL     C7    8   0.305   0.065  -0.019
    1UNL     C8    9   0.212  -0.029   0.021
    1UNL     N2   10   0.267  -0.125   0.096
    1UNL     C9   11   0.400  -0.098   0.109
    1UNL    C10   12   0.513  -0.168   0.168
    1UNL    C11   13   0.635  -0.126   0.150
    1UNL    C12   14   0.663  -0.024   0.059
    1UNL    C13   15   0.559   0.048   0.001
    1UNL    C14   16   0.426   0.014   0.022
    1UNL    C15   17   0.065  -0.035  -0.026
    1UNL    C16   18  -0.030  -0.021   0.089
    1UNL    C17   19  -0.177  -0.014   0.050
    1UNL    C18   20  -0.223  -0.154  -0.008
    1UNL    C19   21  -0.199  -0.284   0.075
    1UNL     O1   22  -0.237  -0.400   0.002
    1UNL    C20   23  -0.366  -0.143  -0.054
    1UNL     O2   24  -0.404  -0.209  -0.146
    1UNL     O3   25  -0.447  -0.053   0.004
    1UNL    C21   26  -0.571  -0.041  -0.063
    1UNL     H1   27  -0.365   0.354   0.040
    1UNL     H2   28  -0.364   0.210   0.141
    1UNL     H3   29  -0.280   0.353   0.184
    1UNL     H4   30  -0.166   0.337  -0.041
    1UNL     H5   31  -0.102   0.246   0.090
    1UNL     H6   32  -0.297   0.092  -0.092
    1UNL     H7   33  -0.121   0.009  -0.238
    1UNL     H8   34  -0.113   0.187  -0.233
    1UNL     H9   35   0.089   0.269  -0.052
    1UNL    H10   36   0.107   0.251  -0.221
    1UNL    H11   37   0.331   0.264  -0.088
    1UNL    H12   38   0.324   0.153  -0.208
    1UNL    H13   39   0.211  -0.206   0.126
    1UNL    H14   40   0.482  -0.245   0.237
    1UNL    H15   41   0.726  -0.173   0.190
    1UNL    H16   42   0.762  -0.010   0.027
    1UNL    H17   43   0.578   0.127  -0.075
    1UNL    H18   44   0.050  -0.121  -0.085
    1UNL    H19   45  -0.019   0.064   0.161
    1UNL    H20   46  -0.011  -0.107   0.153
    1UNL    H21   47  -0.244  -0.001   0.140
    1UNL    H22   48  -0.164  -0.165  -0.109
    1UNL    H23   49  -0.258  -0.279   0.166
    1UNL    H24   50  -0.096  -0.303   0.102
    1UNL    H25   51  -0.292  -0.365  -0.066
    1UNL    H26   52  -0.628   0.040  -0.021
    1UNL    H27   53  -0.565  -0.010  -0.170
    1UNL    H28   54  -0.636  -0.135  -0.047
   0.00000   0.00000   0.00000   0.00000   0.00000   0.00000   0.00000   0.00000   0.00000
Generated with MDTraj, t= 41.0
 54
    1UNL     C1    1  -0.333   0.288   0.087
    1UNL     C2    2  -0.199   0.254   0.016
    1UNL     C3    3  -0.191   0.107  -0.053
    1UNL     C4    4  -0.086   0.093  -0.169
    1UNL     N1    5   0.050   0.078  -0.118
    1UNL     C5    6   0.125   0.201  -0.087
    1UNL     C6    7   0.271   0.164  -0.111
    1UNL     C7    8   0.306   0.047  -0.027
    1UNL     C8    9   0.213  -0.035   0.026
    1UNL     N2   10   0.279  -0.144   0.089
    1UNL     C9   11   0.415  -0.109   0.092
    1UNL    C10   12   0.524  -0.185   0.148
    1UNL    C11   13   0.645  -0.124   0.140
    1UNL    C12   14   0.662  -0.004   0.073
    1UNL    C13   15   0.562   0.056   0.009
    1UNL    C14   16   0.437   0.007   0.016
    1UNL    C15   17   0.065  -0.027  -0.023
    1UNL    C16   18  -0.033  -0.027   0.093
    1UNL    C17   19  -0.178  -0.011   0.052
    1UNL    C18   20  -0.231  -0.141  -0.009
    1UNL    C19   21  -0.208  -0.267   0.081
    1UNL     O1   22  -0.226  -0.397   0.013
    1UNL    C20   23  -0.373  -0.138  -0.065
    1UNL     O2   24  -0.413  -0.228  -0.133
    1UNL     O3   25  -0.442  -0.025  -0.026
    1UNL    C21   26  -0.577  -0.048  -0.057
    1UNL     H1   27  -0.419   0.252   0.037
    1UNL     H2   28  -0.339   0.259   0.189
    1UNL     H3   29  -0.360   0.390   0.091
    1UNL     H4   30  -0.162   0.329  -0.058
    1UNL     H5   31  -0.124   0.261   0.090
    1UNL     H6   32  -0.294   0.103  -0.097
    1UNL     H7   33  -0.113   0.022  -0.253
    1UNL     H8   34  -0.080   0.196  -0.209
    1UNL     H9   35   0.106   0.238   0.019
    1UNL    H10   36   0.087   0.279  -0.153
    1UNL    H11   37   0.330   0.252  -0.097
    1UNL    H12   38   0.286   0.151  -0.220
    1UNL    H13   39   0.225  -0.208   0.145
    1UNL    H14   40   0.506  -0.276   0.200
    1UNL    H15   41   0.727  -0.162   0.193
    1UNL    H16   42   0.764   0.036   0.051
    1UNL    H17   43   0.592   0.139  -0.056
    1UNL    H18   44   0.039  -0.113  -0.078
    1UNL    H19   45  -0.005   0.052   0.164
    1UNL    H20   46  -0.031  -0.114   0.158
    1UNL    H21   47  -0.246   0.009   0.138
    1UNL    H22   48  -0.167  -0.152  -0.108
    1UNL    H23   49  -0.280  -0.269   0.164
    1UNL    H24   50  -0.107  -0.275   0.123
    1UNL    H25   51  -0.315  -0.387  -0.039
    1UNL    H26   52  -0.637   0.040  -0.043
    1UNL    H27   53  -0.593  -0.069  -0.166
    1UNL    H28   54  -0.615  -0.133   0.006
   0.00000   0.00000   0.00000   0.00000   0.00000   0.00000   0.00000   0.00000   0.00000
Generated with MDTraj, t= 42.0
 54
    1UNL     C1    1  -0.340   0.242   0.087
    1UNL     C2    2  -0.209   0.241   0.005
    1UNL     C3    3  -0.190   0.104  -0.064
    1UNL     C4    4  -0.082   0.100  -0.178
    1UNL     N1    5   0.058   0.086  -0.125
    1UNL     C5    6   0.131   0.216  -0.101
    1UNL     C6    7   0.284   0.188  -0.077
    1UNL     C7    8   0.313   0.065  -0.013
    1UNL     C8    9   0.218  -0.034   0.002
    1UNL     N2   10   0.276  -0.143   0.073
    1UNL     C9   11   0.413  -0.119   0.078
    1UNL    C10   12   0.516  -0.195   0.135
    1UNL    C11   13   0.644  -0.136   0.133
    1UNL    C12   14   0.668  -0.012   0.085
    1UNL    C13   15   0.566   0.065   0.030
    1UNL    C14   16   0.440   0.010   0.024
    1UNL    C15   17   0.077  -0.034  -0.039
    1UNL    C16   18  -0.019  -0.014   0.076
    1UNL    C17   19  -0.170  -0.012   0.035
    1UNL    C18   20  -0.227  -0.147  -0.013
    1UNL    C19   21  -0.213  -0.261   0.099
    1UNL     O1   22  -0.249  -0.386   0.035
    1UNL    C20   23  -0.377  -0.135  -0.049
    1UNL     O2   24  -0.420  -0.231  -0.105
    1UNL     O3   25  -0.454  -0.026  -0.013
    1UNL    C21   26  -0.580  -0.045  -0.074
    1UNL     H1   27  -0.424   0.254   0.020
    1UNL     H2   28  -0.345   0.158   0.150
    1UNL     H3   29  -0.354   0.323   0.150
    1UNL     H4   30  -0.214   0.320  -0.074
    1UNL     H5   31  -0.120   0.266   0.057
    1UNL     H6   32  -0.296   0.096  -0.104
    1UNL     H7   33  -0.096   0.019  -0.252
    1UNL     H8   34  -0.079   0.197  -0.234
    1UNL     H9   35   0.083   0.273  -0.017
    1UNL    H10   36   0.127   0.279  -0.192
    1UNL    H11   37   0.325   0.273  -0.027
    1UNL    H12   38   0.335   0.196  -0.173
    1UNL    H13   39   0.229  -0.232   0.075
    1UNL    H14   40   0.499  -0.277   0.201
    1UNL    H15   41   0.725  -0.174   0.201
    1UNL    H16   42   0.763   0.034   0.092
    1UNL    H17   43   0.597   0.157  -0.007
    1UNL    H18   44   0.049  -0.119  -0.094
    1UNL    H19   45   0.004   0.073   0.137
    1UNL    H20   46   0.003  -0.101   0.142
    1UNL    H21   47  -0.231   0.014   0.122
    1UNL    H22   48  -0.170  -0.183  -0.108
    1UNL    H23   49  -0.281  -0.242   0.186
    1UNL    H24   50  -0.107  -0.276   0.129
    1UNL    H25   51  -0.315  -0.375  -0.032
    1UNL    H26   52  -0.648   0.035  -0.057
    1UNL    H27   53  -0.573  -0.049  -0.184
    1UNL    H28   54  -0.622  -0.145  -0.045
   0.00000   0.00000   0.00000   0.00000   0.00000   0.00000   0.00000   0.00000   0.00000
Generated with MDTraj, t= 43.0
 54
    1UNL     C1    1  -0.338   0.261   0.069
    1UNL     C2    2  -0.211   0.234  -0.010
    1UNL     C3    3  -0.195   0.097  -0.072
    1UNL     C4    4  -0.093   0.110  -0.180
    1UNL     N1    5   0.051   0.108  -0.133
    1UNL     C5    6   0.126   0.225  -0.085
    1UNL     C6    7   0.282   0.199  -0.068
    1UNL     C7    8   0.309   0.069  -0.015
    1UNL     C8    9   0.219  -0.033  -0.008
    1UNL     N2   10   0.275  -0.154   0.038
    1UNL     C9   11   0.408  -0.121   0.073
    1UNL    C10   12   0.512  -0.201   0.119
    1UNL    C11   13   0.634  -0.146   0.132
    1UNL    C12   14   0.659  -0.015   0.102
    1UNL    C13   15   0.560   0.074   0.061
    1UNL    C14   16   0.428   0.016   0.036
    1UNL    C15   17   0.074  -0.022  -0.046
    1UNL    C16   18  -0.019  -0.025   0.073
    1UNL    C17   19  -0.166  -0.022   0.025
    1UNL    C18   20  -0.219  -0.154  -0.025
    1UNL    C19   21  -0.201  -0.265   0.089
    1UNL     O1   22  -0.274  -0.386   0.077
    1UNL    C20   23  -0.364  -0.150  -0.056
    1UNL     O2   24  -0.420  -0.242  -0.109
    1UNL     O3   25  -0.421  -0.036  -0.007
    1UNL    C21   26  -0.553  -0.031  -0.044
    1UNL     H1   27  -0.419   0.246  -0.002
    1UNL     H2   28  -0.322   0.197   0.152
    1UNL     H3   29  -0.339   0.360   0.098
    1UNL     H4   30  -0.199   0.306  -0.093
    1UNL     H5   31  -0.126   0.258   0.051
    1UNL     H6   32  -0.292   0.070  -0.123
    1UNL     H7   33  -0.094   0.017  -0.241
    1UNL     H8   34  -0.101   0.191  -0.256
    1UNL     H9   35   0.094   0.256   0.017
    1UNL    H10   36   0.106   0.307  -0.158
    1UNL    H11   37   0.337   0.279  -0.021
    1UNL    H12   38   0.320   0.198  -0.169
    1UNL    H13   39   0.246  -0.243   0.077
    1UNL    H14   40   0.499  -0.302   0.158
    1UNL    H15   41   0.714  -0.200   0.170
    1UNL    H16   42   0.762   0.021   0.116
    1UNL    H17   43   0.576   0.180   0.022
    1UNL    H18   44   0.055  -0.093  -0.120
    1UNL    H19   45   0.005   0.061   0.134
    1UNL    H20   46  -0.002  -0.113   0.139
    1UNL    H21   47  -0.224  -0.010   0.117
    1UNL    H22   48  -0.160  -0.184  -0.116
    1UNL    H23   49  -0.249  -0.218   0.179
    1UNL    H24   50  -0.093  -0.288   0.104
    1UNL    H25   51  -0.364  -0.379   0.030
    1UNL    H26   52  -0.592   0.061  -0.009
    1UNL    H27   53  -0.564  -0.029  -0.152
    1UNL    H28   54  -0.603  -0.124  -0.013
   0.00000   0.00000   0.00000   0.00000   0.00000   0.00000   0.00000   0.00000   0.00000
Generated with MDTraj, t= 44.0
 54
    1UNL     C1    1  -0.348   0.250   0.052
    1UNL     C2    2  -0.209   0.241  -0.005
    1UNL     C3    3  -0.188   0.103  -0.074
    1UNL     C4    4  -0.084   0.098  -0.186
    1UNL     N1    5   0.061   0.085  -0.138
    1UNL     C5    6   0.123   0.213  -0.094
    1UNL     C6    7   0.273   0.200  -0.051
    1UNL     C7    8   0.313   0.063  -0.021
    1UNL     C8    9   0.222  -0.046  -0.023
    1UNL     N2   10   0.290  -0.164   0.021
    1UNL     C9   11   0.417  -0.134   0.066
    1UNL    C10   12   0.530  -0.198   0.121
    1UNL    C11   13   0.650  -0.135   0.147
    1UNL    C12   14   0.661   0.003   0.119
    1UNL    C13   15   0.561   0.069   0.067
    1UNL    C14   16   0.435   0.007   0.029
    1UNL    C15   17   0.079  -0.040  -0.054
    1UNL    C16   18  -0.008  -0.022   0.076
    1UNL    C17   19  -0.161  -0.008   0.035
    1UNL    C18   20  -0.230  -0.142  -0.012
    1UNL    C19   21  -0.219  -0.241   0.097
    1UNL     O1   22  -0.251  -0.367   0.055
    1UNL    C20   23  -0.376  -0.133  -0.046
    1UNL     O2   24  -0.423  -0.216  -0.121
    1UNL     O3   25  -0.456  -0.034   0.008
    1UNL    C21   26  -0.590  -0.063  -0.027
    1UNL     H1   27  -0.422   0.245  -0.027
    1UNL     H2   28  -0.354   0.176   0.127
    1UNL     H3   29  -0.367   0.341   0.101
    1UNL     H4   30  -0.187   0.319  -0.078
    1UNL     H5   31  -0.130   0.259   0.070
    1UNL     H6   32  -0.282   0.067  -0.125
    1UNL     H7   33  -0.086   0.004  -0.246
    1UNL     H8   34  -0.092   0.177  -0.264
    1UNL     H9   35   0.061   0.237  -0.006
    1UNL    H10   36   0.110   0.295  -0.170
    1UNL    H11   37   0.291   0.254   0.042
    1UNL    H12   38   0.347   0.241  -0.118
    1UNL    H13   39   0.253  -0.255   0.041
    1UNL    H14   40   0.523  -0.303   0.133
    1UNL    H15   41   0.732  -0.197   0.195
    1UNL    H16   42   0.758   0.041   0.113
    1UNL    H17   43   0.574   0.169   0.048
    1UNL    H18   44   0.058  -0.128  -0.107
    1UNL    H19   45   0.019   0.065   0.133
    1UNL    H20   46   0.017  -0.105   0.148
    1UNL    H21   47  -0.207   0.011   0.131
    1UNL    H22   48  -0.174  -0.178  -0.098
    1UNL    H23   49  -0.289  -0.208   0.177
    1UNL    H24   50  -0.113  -0.253   0.131
    1UNL    H25   51  -0.309  -0.358  -0.025
    1UNL    H26   52  -0.655   0.019  -0.003
    1UNL    H27   53  -0.597  -0.081  -0.133
    1UNL    H28   54  -0.612  -0.163   0.014
   0.00000   0.00000   0.00000   0.00000   0.00000   0.00000   0.00000   0.00000   0.00000
Generated with MDTraj, t= 45.0
 54
    1UNL     C1    1  -0.342   0.268   0.030
    1UNL     C2    2  -0.202   0.244  -0.023
    1UNL     C3    3  -0.194   0.096  -0.078
    1UNL     C4    4  -0.079   0.085  -0.184
    1UNL     N1    5   0.060   0.090  -0.125
    1UNL     C5    6   0.125   0.223  -0.094
    1UNL     C6    7   0.274   0.196  -0.078
    1UNL     C7    8   0.308   0.057  -0.015
    1UNL     C8    9   0.223  -0.054  -0.011
    1UNL     N2   10   0.286  -0.160   0.043
    1UNL     C9   11   0.419  -0.120   0.073
    1UNL    C10   12   0.525  -0.209   0.104
    1UNL    C11   13   0.641  -0.138   0.132
    1UNL    C12   14   0.653   0.005   0.120
    1UNL    C13   15   0.552   0.082   0.072
    1UNL    C14   16   0.433   0.011   0.033
    1UNL    C15   17   0.074  -0.029  -0.042
    1UNL    C16   18  -0.018  -0.018   0.086
    1UNL    C17   19  -0.169  -0.012   0.036
    1UNL    C18   20  -0.227  -0.151  -0.005
    1UNL    C19   21  -0.214  -0.262   0.092
    1UNL     O1   22  -0.257  -0.383   0.032
    1UNL    C20   23  -0.372  -0.136  -0.043
    1UNL     O2   24  -0.421  -0.198  -0.136
    1UNL     O3   25  -0.442  -0.053   0.034
    1UNL    C21   26  -0.570  -0.051  -0.010
    1UNL     H1   27  -0.420   0.281  -0.041
    1UNL     H2   28  -0.373   0.202   0.108
    1UNL     H3   29  -0.352   0.361   0.082
    1UNL     H4   30  -0.170   0.319  -0.092
    1UNL     H5   31  -0.121   0.251   0.054
    1UNL     H6   32  -0.292   0.077  -0.132
    1UNL     H7   33  -0.093   0.000  -0.255
    1UNL     H8   34  -0.074   0.177  -0.247
    1UNL     H9   35   0.084   0.256   0.002
    1UNL    H10   36   0.104   0.296  -0.176
    1UNL    H11   37   0.329   0.265  -0.013
    1UNL    H12   38   0.330   0.201  -0.169
    1UNL    H13   39   0.271  -0.258   0.040
    1UNL    H14   40   0.519  -0.317   0.118
    1UNL    H15   41   0.728  -0.190   0.157
    1UNL    H16   42   0.755   0.045   0.143
    1UNL    H17   43   0.545   0.196   0.065
    1UNL    H18   44   0.036  -0.111  -0.095
    1UNL    H19   45   0.010   0.072   0.137
    1UNL    H20   46  -0.008  -0.094   0.169
    1UNL    H21   47  -0.220   0.031   0.122
    1UNL    H22   48  -0.173  -0.170  -0.093
    1UNL    H23   49  -0.280  -0.251   0.179
    1UNL    H24   50  -0.110  -0.274   0.129
    1UNL    H25   51  -0.341  -0.360  -0.018
    1UNL    H26   52  -0.625   0.025   0.044
    1UNL    H27   53  -0.570  -0.030  -0.117
    1UNL    H28   54  -0.602  -0.158  -0.006
   0.00000   0.00000   0.00000   0.00000   0.00000   0.00000   0.00000   0.00000   0.00000
Generated with MDTraj, t= 46.0
 54
    1UNL     C1    1  -0.346   0.268   0.047
    1UNL     C2    2  -0.204   0.243  -0.019
    1UNL     C3    3  -0.192   0.102  -0.074
    1UNL     C4    4  -0.081   0.093  -0.188
    1UNL     N1    5   0.059   0.078  -0.139
    1UNL     C5    6   0.123   0.216  -0.102
    1UNL     C6    7   0.268   0.203  -0.060
    1UNL     C7    8   0.307   0.058  -0.005
    1UNL     C8    9   0.215  -0.042   0.007
    1UNL     N2   10   0.277  -0.145   0.069
    1UNL     C9   11   0.407  -0.114   0.103
    1UNL    C10   12   0.515  -0.190   0.141
    1UNL    C11   13   0.650  -0.139   0.133
    1UNL    C12   14   0.675  -0.008   0.081
    1UNL    C13   15   0.566   0.066   0.041
    1UNL    C14   16   0.432   0.016   0.048
    1UNL    C15   17   0.074  -0.039  -0.049
    1UNL    C16   18  -0.024  -0.021   0.073
    1UNL    C17   19  -0.166  -0.017   0.022
    1UNL    C18   20  -0.216  -0.154  -0.035
    1UNL    C19   21  -0.191  -0.268   0.061
    1UNL     O1   22  -0.268  -0.386   0.033
    1UNL    C20   23  -0.370  -0.134  -0.052
    1UNL     O2   24  -0.436  -0.203  -0.131
    1UNL     O3   25  -0.433  -0.054   0.035
    1UNL    C21   26  -0.568  -0.045   0.003
    1UNL     H1   27  -0.423   0.259  -0.023
    1UNL     H2   28  -0.355   0.216   0.141
    1UNL     H3   29  -0.349   0.373   0.076
    1UNL     H4   30  -0.186   0.319  -0.090
    1UNL     H5   31  -0.131   0.264   0.065
    1UNL     H6   32  -0.290   0.082  -0.129
    1UNL     H7   33  -0.101   0.006  -0.252
    1UNL     H8   34  -0.089   0.183  -0.252
    1UNL     H9   35   0.068   0.261  -0.020
    1UNL    H10   36   0.117   0.285  -0.191
    1UNL    H11   37   0.308   0.275   0.013
    1UNL    H12   38   0.338   0.208  -0.138
    1UNL    H13   39   0.222  -0.221   0.102
    1UNL    H14   40   0.499  -0.288   0.183
    1UNL    H15   41   0.736  -0.198   0.174
    1UNL    H16   42   0.770   0.031   0.065
    1UNL    H17   43   0.587   0.159  -0.010
    1UNL    H18   44   0.047  -0.127  -0.104
    1UNL    H19   45   0.002   0.069   0.127
    1UNL    H20   46  -0.006  -0.109   0.139
    1UNL    H21   47  -0.226   0.015   0.109
    1UNL    H22   48  -0.184  -0.176  -0.131
    1UNL    H23   49  -0.207  -0.243   0.166
    1UNL    H24   50  -0.086  -0.299   0.053
    1UNL    H25   51  -0.358  -0.367  -0.000
    1UNL    H26   52  -0.628  -0.014   0.092
    1UNL    H27   53  -0.578   0.024  -0.084
    1UNL    H28   54  -0.590  -0.144  -0.041
   0.00000   0.00000   0.00000   0.00000   0.00000   0.00000   0.00000   0.00000   0.00000
Generated with MDTraj, t= 47.0
 54
    1UNL     C1    1  -0.332   0.244   0.058
    1UNL     C2    2  -0.201   0.233  -0.018
    1UNL     C3    3  -0.188   0.098  -0.080
    1UNL     C4    4  -0.074   0.100  -0.189
    1UNL     N1    5   0.061   0.094  -0.126
    1UNL     C5    6   0.140   0.214  -0.091
    1UNL     C6    7   0.290   0.187  -0.101
    1UNL     C7    8   0.318   0.062  -0.022
    1UNL     C8    9   0.222  -0.026   0.026
    1UNL     N2   10   0.280  -0.133   0.082
    1UNL     C9   11   0.419  -0.114   0.086
    1UNL    C10   12   0.518  -0.192   0.153
    1UNL    C11   13   0.644  -0.138   0.151
    1UNL    C12   14   0.672  -0.010   0.087
    1UNL    C13   15   0.572   0.065   0.025
    1UNL    C14   16   0.445   0.012   0.031
    1UNL    C15   17   0.078  -0.023  -0.031
    1UNL    C16   18  -0.030  -0.017   0.086
    1UNL    C17   19  -0.173  -0.014   0.025
    1UNL    C18   20  -0.238  -0.141  -0.027
    1UNL    C19   21  -0.216  -0.266   0.057
    1UNL     O1   22  -0.246  -0.394  -0.003
    1UNL    C20   23  -0.388  -0.128  -0.049
    1UNL     O2   24  -0.449  -0.211  -0.118
    1UNL     O3   25  -0.456  -0.040   0.028
    1UNL    C21   26  -0.589  -0.064   0.007
    1UNL     H1   27  -0.414   0.239  -0.009
    1UNL     H2   28  -0.344   0.181   0.145
    1UNL     H3   29  -0.345   0.345   0.098
    1UNL     H4   30  -0.205   0.309  -0.091
    1UNL     H5   31  -0.113   0.254   0.052
    1UNL     H6   32  -0.282   0.063  -0.136
    1UNL     H7   33  -0.091   0.007  -0.243
    1UNL     H8   34  -0.081   0.190  -0.253
    1UNL     H9   35   0.118   0.239   0.011
    1UNL    H10   36   0.116   0.298  -0.163
    1UNL    H11   37   0.354   0.269  -0.062
    1UNL    H12   38   0.317   0.178  -0.203
    1UNL    H13   39   0.225  -0.209   0.114
    1UNL    H14   40   0.495  -0.274   0.219
    1UNL    H15   41   0.708  -0.184   0.223
    1UNL    H16   42   0.780   0.018   0.077
    1UNL    H17   43   0.586   0.139  -0.045
    1UNL    H18   44   0.084  -0.115  -0.087
    1UNL    H19   45   0.002   0.077   0.132
    1UNL    H20   46  -0.011  -0.103   0.152
    1UNL    H21   47  -0.235   0.006   0.113
    1UNL    H22   48  -0.212  -0.164  -0.124
    1UNL    H23   49  -0.285  -0.255   0.139
    1UNL    H24   50  -0.118  -0.268   0.101
    1UNL    H25   51  -0.321  -0.388  -0.068
    1UNL    H26   52  -0.646   0.028   0.037
    1UNL    H27   53  -0.601  -0.098  -0.100
    1UNL    H28   54  -0.609  -0.155   0.067
   0.00000   0.00000   0.00000   0.00000   0.00000   0.00000   0.00000   0.00000   0.00000
Generated with MDTraj, t= 48.0
 54
    1UNL     C1    1  -0.341   0.270   0.078
    1UNL     C2    2  -0.212   0.256   0.007
    1UNL     C3    3  -0.188   0.112  -0.062
    1UNL     C4    4  -0.084   0.112  -0.173
    1UNL     N1    5   0.050   0.087  -0.131
    1UNL     C5    6   0.139   0.205  -0.121
    1UNL     C6    7   0.290   0.162  -0.117
    1UNL     C7    8   0.311   0.051  -0.017
    1UNL     C8    9   0.214  -0.042   0.009
    1UNL     N2   10   0.271  -0.144   0.084
    1UNL     C9   11   0.403  -0.117   0.100
    1UNL    C10   12   0.509  -0.177   0.170
    1UNL    C11   13   0.636  -0.125   0.154
    1UNL    C12   14   0.667  -0.007   0.084
    1UNL    C13   15   0.562   0.063   0.025
    1UNL    C14   16   0.433   0.005   0.031
    1UNL    C15   17   0.071  -0.031  -0.038
    1UNL    C16   18  -0.026  -0.013   0.086
    1UNL    C17   19  -0.171  -0.017   0.033
    1UNL    C18   20  -0.222  -0.150  -0.035
    1UNL    C19   21  -0.190  -0.275   0.046
    1UNL     O1   22  -0.242  -0.391  -0.014
    1UNL    C20   23  -0.370  -0.135  -0.044
    1UNL     O2   24  -0.432  -0.217  -0.109
    1UNL     O3   25  -0.436  -0.036   0.019
    1UNL    C21   26  -0.576  -0.058  -0.008
    1UNL     H1   27  -0.422   0.265   0.008
    1UNL     H2   28  -0.360   0.203   0.160
    1UNL     H3   29  -0.365   0.367   0.123
    1UNL     H4   30  -0.199   0.325  -0.070
    1UNL     H5   31  -0.131   0.272   0.083
    1UNL     H6   32  -0.289   0.092  -0.116
    1UNL     H7   33  -0.100   0.040  -0.254
    1UNL     H8   34  -0.094   0.212  -0.216
    1UNL     H9   35   0.119   0.255  -0.028
    1UNL    H10   36   0.125   0.270  -0.212
    1UNL    H11   37   0.356   0.247  -0.092
    1UNL    H12   38   0.327   0.123  -0.209
    1UNL    H13   39   0.227  -0.232   0.095
    1UNL    H14   40   0.465  -0.243   0.242
    1UNL    H15   41   0.721  -0.171   0.205
    1UNL    H16   42   0.761   0.039   0.079
    1UNL    H17   43   0.580   0.153  -0.049
    1UNL    H18   44   0.056  -0.124  -0.096
    1UNL    H19   45   0.005   0.084   0.127
    1UNL    H20   46   0.004  -0.089   0.159
    1UNL    H21   47  -0.227  -0.011   0.125
    1UNL    H22   48  -0.179  -0.161  -0.128
    1UNL    H23   49  -0.230  -0.261   0.144
    1UNL    H24   50  -0.082  -0.282   0.056
    1UNL    H25   51  -0.329  -0.357  -0.045
    1UNL    H26   52  -0.643   0.020   0.034
    1UNL    H27   53  -0.587  -0.076  -0.117
    1UNL    H28   54  -0.595  -0.156   0.034
   0.00000   0.00000   0.00000   0.00000   0.00000   0.00000   0.00000   0.00000   0.00000
Generated with MDTraj, t= 49.0
 54
    1UNL     C1    1  -0.318   0.271   0.111
    1UNL     C2    2  -0.196   0.243   0.014
    1UNL     C3    3  -0.198   0.105  -0.059
    1UNL     C4    4  -0.098   0.100  -0.181
    1UNL     N1    5   0.046   0.082  -0.139
    1UNL     C5    6   0.128   0.204  -0.119
    1UNL     C6    7   0.280   0.176  -0.129
    1UNL     C7    8   0.305   0.052  -0.045
    1UNL     C8    9   0.213  -0.042  -0.010
    1UNL     N2   10   0.264  -0.138   0.073
    1UNL     C9   11   0.394  -0.105   0.093
    1UNL    C10   12   0.487  -0.173   0.180
    1UNL    C11   13   0.613  -0.127   0.183
    1UNL    C12   14   0.656  -0.016   0.098
    1UNL    C13   15   0.562   0.051   0.022
    1UNL    C14   16   0.432   0.006   0.014
    1UNL    C15   17   0.072  -0.032  -0.046
    1UNL    C16   18  -0.025  -0.020   0.073
    1UNL    C17   19  -0.175  -0.015   0.043
    1UNL    C18   20  -0.225  -0.147  -0.020
    1UNL    C19   21  -0.184  -0.271   0.063
    1UNL     O1   22  -0.190  -0.396  -0.002
    1UNL    C20   23  -0.372  -0.142  -0.046
    1UNL     O2   24  -0.430  -0.212  -0.125
    1UNL     O3   25  -0.433  -0.038   0.018
    1UNL    C21   26  -0.565  -0.034  -0.024
    1UNL     H1   27  -0.404   0.286   0.044
    1UNL     H2   28  -0.328   0.190   0.182
    1UNL     H3   29  -0.306   0.362   0.167
    1UNL     H4   30  -0.198   0.322  -0.058
    1UNL     H5   31  -0.101   0.241   0.074
    1UNL     H6   32  -0.309   0.099  -0.091
    1UNL     H7   33  -0.126   0.032  -0.260
    1UNL     H8   34  -0.096   0.199  -0.226
    1UNL     H9   35   0.103   0.243  -0.023
    1UNL    H10   36   0.102   0.279  -0.199
    1UNL    H11   37   0.332   0.267  -0.090
    1UNL    H12   38   0.314   0.177  -0.230
    1UNL    H13   39   0.222  -0.201   0.140
    1UNL    H14   40   0.463  -0.266   0.235
    1UNL    H15   41   0.690  -0.172   0.244
    1UNL    H16   42   0.764   0.007   0.093
    1UNL    H17   43   0.591   0.142  -0.020
    1UNL    H18   44   0.025  -0.121  -0.096
    1UNL    H19   45   0.008   0.062   0.140
    1UNL    H20   46   0.001  -0.104   0.136
    1UNL    H21   47  -0.217   0.010   0.139
    1UNL    H22   48  -0.175  -0.146  -0.112
    1UNL    H23   49  -0.242  -0.273   0.154
    1UNL    H24   50  -0.081  -0.265   0.098
    1UNL    H25   51  -0.278  -0.399  -0.036
    1UNL    H26   52  -0.622   0.018   0.055
    1UNL    H27   53  -0.567   0.015  -0.122
    1UNL    H28   54  -0.600  -0.132  -0.037
   0.00000   0.00000   0.00000   0.00000   0.00000   0.00000   0.00000   0.00000   0.00000
Generated with MDTraj, t= 50.0
 54
    1UNL     C1    1  -0.286   0.257   0.138
    1UNL     C2    2  -0.194   0.251   0.010
    1UNL     C3    3  -0.187   0.111  -0.060
    1UNL     C4    4  -0.092   0.101  -0.177
    1UNL     N1    5   0.048   0.078  -0.136
    1UNL     C5    6   0.136   0.200  -0.125
    1UNL     C6    7   0.287   0.172  -0.127
    1UNL     C7    8   0.312   0.043  -0.057
    1UNL     C8    9   0.214  -0.047  -0.017
    1UNL     N2   10   0.264  -0.147   0.071
    1UNL     C9   11   0.393  -0.109   0.089
    1UNL    C10   12   0.499  -0.171   0.160
    1UNL    C11   13   0.617  -0.116   0.180
    1UNL    C12   14   0.642   0.001   0.114
    1UNL    C13   15   0.550   0.065   0.030
    1UNL    C14   16   0.425   0.004   0.013
    1UNL    C15   17   0.069  -0.040  -0.045
    1UNL    C16   18  -0.023  -0.022   0.077
    1UNL    C17   19  -0.168  -0.006   0.037
    1UNL    C18   20  -0.218  -0.141  -0.017
    1UNL    C19   21  -0.197  -0.262   0.084
    1UNL     O1   22  -0.224  -0.379   0.004
    1UNL    C20   23  -0.370  -0.136  -0.050
    1UNL     O2   24  -0.414  -0.211  -0.131
    1UNL     O3   25  -0.450  -0.046   0.013
    1UNL    C21   26  -0.579  -0.060  -0.036
    1UNL     H1   27  -0.389   0.225   0.108
    1UNL     H2   28  -0.240   0.202   0.220
    1UNL     H3   29  -0.292   0.361   0.164
    1UNL     H4   30  -0.231   0.314  -0.070
    1UNL     H5   31  -0.090   0.278   0.037
    1UNL     H6   32  -0.297   0.093  -0.096
    1UNL     H7   33  -0.115   0.024  -0.251
    1UNL     H8   34  -0.094   0.193  -0.236
    1UNL     H9   35   0.115   0.251  -0.034
    1UNL    H10   36   0.102   0.270  -0.206
    1UNL    H11   37   0.348   0.259  -0.092
    1UNL    H12   38   0.324   0.167  -0.228
    1UNL    H13   39   0.212  -0.229   0.107
    1UNL    H14   40   0.471  -0.269   0.189
    1UNL    H15   41   0.693  -0.171   0.233
    1UNL    H16   42   0.738   0.045   0.123
    1UNL    H17   43   0.569   0.168   0.010
    1UNL    H18   44   0.019  -0.131  -0.093
    1UNL    H19   45   0.016   0.069   0.128
    1UNL    H20   46  -0.005  -0.101   0.148
    1UNL    H21   47  -0.226   0.007   0.127
    1UNL    H22   48  -0.161  -0.171  -0.103
    1UNL    H23   49  -0.260  -0.271   0.171
    1UNL    H24   50  -0.095  -0.282   0.119
    1UNL    H25   51  -0.301  -0.367  -0.064
    1UNL    H26   52  -0.643   0.017   0.008
    1UNL    H27   53  -0.571  -0.053  -0.144
    1UNL    H28   54  -0.619  -0.152  -0.013
   0.00000   0.00000   0.00000   0.00000   0.00000   0.00000   0.00000   0.00000   0.00000
Generated with MDTraj, t= 51.0
 54
    1UNL     C1    1  -0.277   0.266   0.135
    1UNL     C2    2  -0.183   0.247   0.024
    1UNL     C3    3  -0.189   0.110  -0.054
    1UNL     C4    4  -0.094   0.106  -0.171
    1UNL     N1    5   0.051   0.080  -0.134
    1UNL     C5    6   0.139   0.197  -0.127
    1UNL     C6    7   0.283   0.166  -0.119
    1UNL     C7    8   0.310   0.052  -0.041
    1UNL     C8    9   0.220  -0.052  -0.017
    1UNL     N2   10   0.273  -0.147   0.068
    1UNL     C9   11   0.408  -0.105   0.092
    1UNL    C10   12   0.510  -0.173   0.155
    1UNL    C11   13   0.627  -0.114   0.161
    1UNL    C12   14   0.653   0.011   0.112
    1UNL    C13   15   0.556   0.077   0.039
    1UNL    C14   16   0.430   0.018   0.025
    1UNL    C15   17   0.070  -0.040  -0.043
    1UNL    C16   18  -0.028  -0.035   0.077
    1UNL    C17   19  -0.179  -0.015   0.036
    1UNL    C18   20  -0.226  -0.140  -0.038
    1UNL    C19   21  -0.207  -0.260   0.063
    1UNL     O1   22  -0.288  -0.375   0.046
    1UNL    C20   23  -0.370  -0.141  -0.072
    1UNL     O2   24  -0.414  -0.222  -0.150
    1UNL     O3   25  -0.442  -0.045   0.002
    1UNL    C21   26  -0.573  -0.073  -0.027
    1UNL     H1   27  -0.384   0.247   0.110
    1UNL     H2   28  -0.252   0.213   0.228
    1UNL     H3   29  -0.279   0.370   0.166
    1UNL     H4   30  -0.201   0.316  -0.059
    1UNL     H5   31  -0.078   0.265   0.047
    1UNL     H6   32  -0.299   0.093  -0.090
    1UNL     H7   33  -0.116   0.027  -0.242
    1UNL     H8   34  -0.104   0.198  -0.230
    1UNL     H9   35   0.101   0.265  -0.053
    1UNL    H10   36   0.123   0.254  -0.222
    1UNL    H11   37   0.342   0.255  -0.089
    1UNL    H12   38   0.326   0.156  -0.219
    1UNL    H13   39   0.238  -0.243   0.093
    1UNL    H14   40   0.483  -0.267   0.205
    1UNL    H15   41   0.709  -0.171   0.205
    1UNL    H16   42   0.749   0.059   0.136
    1UNL    H17   43   0.588   0.176  -0.014
    1UNL    H18   44   0.054  -0.130  -0.112
    1UNL    H19   45   0.009   0.050   0.139
    1UNL    H20   46  -0.011  -0.123   0.135
    1UNL    H21   47  -0.243  -0.005   0.121
    1UNL    H22   48  -0.166  -0.155  -0.130
    1UNL    H23   49  -0.221  -0.223   0.166
    1UNL    H24   50  -0.104  -0.305   0.055
    1UNL    H25   51  -0.353  -0.363  -0.022
    1UNL    H26   52  -0.637   0.008   0.018
    1UNL    H27   53  -0.579  -0.077  -0.137
    1UNL    H28   54  -0.606  -0.163   0.012
   0.00000   0.00000   0.00000   0.00000   0.00000   0.00000   0.00000   0.00000   0.00000
Generated with MDTraj, t= 52.0
 54
    1UNL     C1    1  -0.300   0.256   0.104
    1UNL     C2    2  -0.177   0.228   0.018
    1UNL     C3    3  -0.187   0.091  -0.066
    1UNL     C4    4  -0.088   0.089  -0.179
    1UNL     N1    5   0.047   0.081  -0.128
    1UNL     C5    6   0.127   0.204  -0.107
    1UNL     C6    7   0.284   0.188  -0.107
    1UNL     C7    8   0.320   0.065  -0.041
    1UNL     C8    9   0.224  -0.028  -0.010
    1UNL     N2   10   0.283  -0.127   0.063
    1UNL     C9   11   0.413  -0.095   0.091
    1UNL    C10   12   0.509  -0.165   0.168
    1UNL    C11   13   0.640  -0.118   0.159
    1UNL    C12   14   0.668  -0.004   0.091
    1UNL    C13   15   0.575   0.070   0.026
    1UNL    C14   16   0.438   0.036   0.032
    1UNL    C15   17   0.079  -0.037  -0.044
    1UNL    C16   18  -0.013  -0.050   0.069
    1UNL    C17   19  -0.168  -0.038   0.034
    1UNL    C18   20  -0.235  -0.166  -0.016
    1UNL    C19   21  -0.245  -0.274   0.086
    1UNL     O1   22  -0.294  -0.388   0.032
    1UNL    C20   23  -0.376  -0.136  -0.057
    1UNL     O2   24  -0.423  -0.199  -0.148
    1UNL     O3   25  -0.447  -0.048   0.017
    1UNL    C21   26  -0.574  -0.041  -0.041
    1UNL     H1   27  -0.387   0.285   0.042
    1UNL     H2   28  -0.319   0.163   0.162
    1UNL     H3   29  -0.279   0.337   0.177
    1UNL     H4   30  -0.155   0.320  -0.042
    1UNL     H5   31  -0.094   0.225   0.089
    1UNL     H6   32  -0.292   0.078  -0.114
    1UNL     H7   33  -0.098   0.003  -0.246
    1UNL     H8   34  -0.098   0.179  -0.240
    1UNL     H9   35   0.100   0.249  -0.012
    1UNL    H10   36   0.090   0.278  -0.179
    1UNL    H11   37   0.337   0.274  -0.064
    1UNL    H12   38   0.325   0.194  -0.209
    1UNL    H13   39   0.233  -0.207   0.110
    1UNL    H14   40   0.486  -0.254   0.219
    1UNL    H15   41   0.711  -0.167   0.222
    1UNL    H16   42   0.774   0.016   0.078
    1UNL    H17   43   0.609   0.129  -0.048
    1UNL    H18   44   0.068  -0.121  -0.124
    1UNL    H19   45   0.011   0.026   0.146
    1UNL    H20   46   0.004  -0.148   0.109
    1UNL    H21   47  -0.222  -0.002   0.116
    1UNL    H22   48  -0.179  -0.199  -0.110
    1UNL    H23   49  -0.322  -0.236   0.157
    1UNL    H24   50  -0.145  -0.289   0.136
    1UNL    H25   51  -0.364  -0.356  -0.036
    1UNL    H26   52  -0.636   0.032   0.022
    1UNL    H27   53  -0.561  -0.000  -0.145
    1UNL    H28   54  -0.632  -0.130  -0.050
   0.00000   0.00000   0.00000   0.00000   0.00000   0.00000   0.00000   0.00000   0.00000
Generated with MDTraj, t= 53.0
 54
    1UNL     C1    1  -0.344   0.241   0.078
    1UNL     C2    2  -0.202   0.218   0.015
    1UNL     C3    3  -0.190   0.090  -0.065
    1UNL     C4    4  -0.081   0.092  -0.171
    1UNL     N1    5   0.058   0.070  -0.121
    1UNL     C5    6   0.126   0.197  -0.094
    1UNL     C6    7   0.278   0.163  -0.106
    1UNL     C7    8   0.311   0.044  -0.028
    1UNL     C8    9   0.221  -0.057   0.011
    1UNL     N2   10   0.292  -0.150   0.077
    1UNL     C9   11   0.430  -0.108   0.088
    1UNL    C10   12   0.540  -0.164   0.158
    1UNL    C11   13   0.660  -0.099   0.146
    1UNL    C12   14   0.667   0.024   0.080
    1UNL    C13   15   0.564   0.082   0.016
    1UNL    C14   16   0.437   0.015   0.021
    1UNL    C15   17   0.077  -0.047  -0.028
    1UNL    C16   18  -0.020  -0.039   0.086
    1UNL    C17   19  -0.172  -0.026   0.046
    1UNL    C18   20  -0.234  -0.154  -0.008
    1UNL    C19   21  -0.234  -0.274   0.075
    1UNL     O1   22  -0.291  -0.391   0.014
    1UNL    C20   23  -0.378  -0.127  -0.053
    1UNL     O2   24  -0.431  -0.188  -0.145
    1UNL     O3   25  -0.436  -0.021   0.010
    1UNL    C21   26  -0.565  -0.014  -0.048
    1UNL     H1   27  -0.425   0.226   0.006
    1UNL     H2   28  -0.364   0.176   0.166
    1UNL     H3   29  -0.358   0.347   0.116
    1UNL     H4   30  -0.190   0.309  -0.050
    1UNL     H5   31  -0.126   0.238   0.089
    1UNL     H6   32  -0.285   0.068  -0.128
    1UNL     H7   33  -0.099   0.025  -0.256
    1UNL     H8   34  -0.091   0.196  -0.205
    1UNL     H9   35   0.102   0.233   0.007
    1UNL    H10   36   0.103   0.275  -0.166
    1UNL    H11   37   0.334   0.246  -0.063
    1UNL    H12   38   0.313   0.158  -0.211
    1UNL    H13   39   0.262  -0.242   0.116
    1UNL    H14   40   0.531  -0.259   0.214
    1UNL    H15   41   0.754  -0.130   0.195
    1UNL    H16   42   0.755   0.083   0.081
    1UNL    H17   43   0.579   0.174  -0.042
    1UNL    H18   44   0.041  -0.141  -0.088
    1UNL    H19   45   0.010   0.043   0.152
    1UNL    H20   46  -0.025  -0.130   0.146
    1UNL    H21   47  -0.230   0.015   0.122
    1UNL    H22   48  -0.173  -0.188  -0.102
    1UNL    H23   49  -0.290  -0.256   0.169
    1UNL    H24   50  -0.128  -0.302   0.102
    1UNL    H25   51  -0.347  -0.363  -0.056
    1UNL    H26   52  -0.638   0.050   0.014
    1UNL    H27   53  -0.554   0.028  -0.152
    1UNL    H28   54  -0.617  -0.108  -0.061
   0.00000   0.00000   0.00000   0.00000   0.00000   0.00000   0.00000   0.00000   0.00000
Generated with MDTraj, t= 54.0
 54
    1UNL     C1    1  -0.326   0.270   0.069
    1UNL     C2    2  -0.194   0.229   0.012
    1UNL     C3    3  -0.195   0.096  -0.059
    1UNL     C4    4  -0.093   0.091  -0.173
    1UNL     N1    5   0.052   0.073  -0.126
    1UNL     C5    6   0.120   0.200  -0.094
    1UNL     C6    7   0.272   0.181  -0.094
    1UNL     C7    8   0.314   0.058  -0.017
    1UNL     C8    9   0.219  -0.042   0.010
    1UNL     N2   10   0.289  -0.143   0.079
    1UNL     C9   11   0.425  -0.109   0.086
    1UNL    C10   12   0.533  -0.175   0.143
    1UNL    C11   13   0.657  -0.113   0.144
    1UNL    C12   14   0.675   0.011   0.081
    1UNL    C13   15   0.571   0.076   0.028
    1UNL    C14   16   0.442   0.014   0.022
    1UNL    C15   17   0.073  -0.042  -0.034
    1UNL    C16   18  -0.025  -0.035   0.084
    1UNL    C17   19  -0.174  -0.027   0.035
    1UNL    C18   20  -0.232  -0.164  -0.016
    1UNL    C19   21  -0.219  -0.279   0.083
    1UNL     O1   22  -0.269  -0.397   0.017
    1UNL    C20   23  -0.376  -0.131  -0.054
    1UNL     O2   24  -0.434  -0.201  -0.138
    1UNL     O3   25  -0.449  -0.025   0.003
    1UNL    C21   26  -0.573  -0.029  -0.046
    1UNL     H1   27  -0.418   0.266   0.012
    1UNL     H2   28  -0.357   0.229   0.169
    1UNL     H3   29  -0.324   0.380   0.101
    1UNL     H4   30  -0.160   0.313  -0.057
    1UNL     H5   31  -0.113   0.237   0.082
    1UNL     H6   32  -0.296   0.075  -0.111
    1UNL     H7   33  -0.127   0.009  -0.241
    1UNL     H8   34  -0.098   0.185  -0.230
    1UNL     H9   35   0.088   0.234   0.006
    1UNL    H10   36   0.090   0.266  -0.174
    1UNL    H11   37   0.322   0.272  -0.060
    1UNL    H12   38   0.303   0.166  -0.201
    1UNL    H13   39   0.245  -0.237   0.096
    1UNL    H14   40   0.526  -0.272   0.185
    1UNL    H15   41   0.743  -0.166   0.177
    1UNL    H16   42   0.775   0.059   0.104
    1UNL    H17   43   0.565   0.190   0.009
    1UNL    H18   44   0.040  -0.149  -0.074
    1UNL    H19   45  -0.005   0.054   0.144
    1UNL    H20   46  -0.017  -0.122   0.153
    1UNL    H21   47  -0.237  -0.003   0.115
    1UNL    H22   48  -0.181  -0.205  -0.114
    1UNL    H23   49  -0.275  -0.268   0.177
    1UNL    H24   50  -0.118  -0.315   0.117
    1UNL    H25   51  -0.347  -0.366  -0.038
    1UNL    H26   52  -0.610   0.075  -0.016
    1UNL    H27   53  -0.569  -0.040  -0.157
    1UNL    H28   54  -0.638  -0.097   0.003
   0.00000   0.00000   0.00000   0.00000   0.00000   0.00000   0.00000   0.00000   0.00000
Generated with MDTraj, t= 55.0
 54
    1UNL     C1    1  -0.299   0.279   0.083
    1UNL     C2    2  -0.176   0.236   0.005
    1UNL     C3    3  -0.195   0.104  -0.069
    1UNL     C4    4  -0.093   0.104  -0.189
    1UNL     N1    5   0.053   0.094  -0.142
    1UNL     C5    6   0.129   0.221  -0.110
    1UNL     C6    7   0.278   0.202  -0.076
    1UNL     C7    8   0.308   0.068  -0.019
    1UNL     C8    9   0.218  -0.033   0.002
    1UNL     N2   10   0.273  -0.139   0.069
    1UNL     C9   11   0.406  -0.115   0.089
    1UNL    C10   12   0.505  -0.189   0.143
    1UNL    C11   13   0.634  -0.139   0.144
    1UNL    C12   14   0.661  -0.010   0.083
    1UNL    C13   15   0.562   0.068   0.037
    1UNL    C14   16   0.428   0.016   0.039
    1UNL    C15   17   0.070  -0.029  -0.045
    1UNL    C16   18  -0.015  -0.027   0.074
    1UNL    C17   19  -0.169  -0.015   0.031
    1UNL    C18   20  -0.229  -0.152  -0.014
    1UNL    C19   21  -0.220  -0.268   0.088
    1UNL     O1   22  -0.250  -0.402   0.036
    1UNL    C20   23  -0.378  -0.137  -0.054
    1UNL     O2   24  -0.419  -0.232  -0.124
    1UNL     O3   25  -0.449  -0.034   0.001
    1UNL    C21   26  -0.576  -0.070  -0.036
    1UNL     H1   27  -0.375   0.323   0.016
    1UNL     H2   28  -0.347   0.196   0.142
    1UNL     H3   29  -0.267   0.357   0.161
    1UNL     H4   30  -0.152   0.318  -0.069
    1UNL     H5   31  -0.096   0.231   0.075
    1UNL     H6   32  -0.298   0.091  -0.120
    1UNL     H7   33  -0.107   0.022  -0.263
    1UNL     H8   34  -0.118   0.196  -0.246
    1UNL     H9   35   0.086   0.260  -0.015
    1UNL    H10   36   0.126   0.288  -0.194
    1UNL    H11   37   0.317   0.281  -0.012
    1UNL    H12   38   0.338   0.202  -0.172
    1UNL    H13   39   0.215  -0.215   0.110
    1UNL    H14   40   0.490  -0.293   0.169
    1UNL    H15   41   0.716  -0.207   0.172
    1UNL    H16   42   0.759   0.017   0.063
    1UNL    H17   43   0.569   0.169   0.031
    1UNL    H18   44   0.057  -0.107  -0.129
    1UNL    H19   45   0.021   0.057   0.134
    1UNL    H20   46   0.005  -0.120   0.135
    1UNL    H21   47  -0.222   0.006   0.118
    1UNL    H22   48  -0.160  -0.198  -0.099
    1UNL    H23   49  -0.278  -0.253   0.177
    1UNL    H24   50  -0.115  -0.280   0.125
    1UNL    H25   51  -0.318  -0.379  -0.031
    1UNL    H26   52  -0.651  -0.018   0.026
    1UNL    H27   53  -0.589  -0.049  -0.142
    1UNL    H28   54  -0.593  -0.173  -0.016
   0.00000   0.00000   0.00000   0.00000   0.00000   0.00000   0.00000   0.00000   0.00000
Generated with MDTraj, t= 56.0
 54
    1UNL     C1    1  -0.329   0.255   0.099
    1UNL     C2    2  -0.224   0.259  -0.014
    1UNL     C3    3  -0.198   0.112  -0.070
    1UNL     C4    4  -0.091   0.115  -0.178
    1UNL     N1    5   0.048   0.097  -0.132
    1UNL     C5    6   0.131   0.217  -0.105
    1UNL     C6    7   0.281   0.176  -0.106
    1UNL     C7    8   0.307   0.052  -0.028
    1UNL     C8    9   0.205  -0.045  -0.001
    1UNL     N2   10   0.266  -0.155   0.052
    1UNL     C9   11   0.405  -0.130   0.068
    1UNL    C10   12   0.508  -0.201   0.136
    1UNL    C11   13   0.637  -0.146   0.153
    1UNL    C12   14   0.661  -0.013   0.116
    1UNL    C13   15   0.557   0.060   0.048
    1UNL    C14   16   0.430   0.004   0.028
    1UNL    C15   17   0.063  -0.024  -0.035
    1UNL    C16   18  -0.026   0.003   0.084
    1UNL    C17   19  -0.174  -0.001   0.035
    1UNL    C18   20  -0.214  -0.138  -0.026
    1UNL    C19   21  -0.175  -0.251   0.073
    1UNL     O1   22  -0.233  -0.375   0.046
    1UNL    C20   23  -0.358  -0.136  -0.052
    1UNL     O2   24  -0.399  -0.226  -0.127
    1UNL     O3   25  -0.446  -0.047   0.013
    1UNL    C21   26  -0.576  -0.078  -0.037
    1UNL     H1   27  -0.405   0.177   0.074
    1UNL     H2   28  -0.275   0.227   0.194
    1UNL     H3   29  -0.374   0.356   0.118
    1UNL     H4   30  -0.260   0.330  -0.095
    1UNL     H5   31  -0.129   0.292   0.026
    1UNL     H6   32  -0.299   0.086  -0.120
    1UNL     H7   33  -0.114   0.040  -0.256
    1UNL     H8   34  -0.089   0.208  -0.240
    1UNL     H9   35   0.106   0.245   0.001
    1UNL    H10   36   0.109   0.289  -0.180
    1UNL    H11   37   0.347   0.248  -0.057
    1UNL    H12   38   0.321   0.161  -0.212
    1UNL    H13   39   0.227  -0.248   0.072
    1UNL    H14   40   0.490  -0.301   0.177
    1UNL    H15   41   0.717  -0.208   0.185
    1UNL    H16   42   0.754   0.043   0.139
    1UNL    H17   43   0.567   0.162   0.005
    1UNL    H18   44   0.038  -0.125  -0.083
    1UNL    H19   45  -0.000   0.105   0.120
    1UNL    H20   46  -0.007  -0.060   0.175
    1UNL    H21   47  -0.239   0.027   0.111
    1UNL    H22   48  -0.162  -0.142  -0.130
    1UNL    H23   49  -0.211  -0.212   0.166
    1UNL    H24   50  -0.064  -0.261   0.083
    1UNL    H25   51  -0.315  -0.356  -0.003
    1UNL    H26   52  -0.638   0.007  -0.013
    1UNL    H27   53  -0.575  -0.092  -0.143
    1UNL    H28   54  -0.619  -0.158   0.018
   0.00000   0.00000   0.00000   0.00000   0.00000   0.00000   0.00000   0.00000   0.00000
Generated with MDTraj, t= 57.0
 54
    1UNL     C1    1  -0.356   0.244   0.077
    1UNL     C2    2  -0.225   0.251   0.004
    1UNL     C3    3  -0.195   0.115  -0.073
    1UNL     C4    4  -0.089   0.122  -0.183
    1UNL     N1    5   0.050   0.100  -0.135
    1UNL     C5    6   0.132   0.225  -0.115
    1UNL     C6    7   0.284   0.195  -0.097
    1UNL     C7    8   0.312   0.058  -0.035
    1UNL     C8    9   0.218  -0.039  -0.019
    1UNL     N2   10   0.268  -0.145   0.055
    1UNL     C9   11   0.397  -0.122   0.081
    1UNL    C10   12   0.480  -0.205   0.160
    1UNL    C11   13   0.616  -0.157   0.160
    1UNL    C12   14   0.653  -0.033   0.098
    1UNL    C13   15   0.568   0.051   0.029
    1UNL    C14   16   0.434   0.006   0.034
    1UNL    C15   17   0.072  -0.016  -0.049
    1UNL    C16   18  -0.017  -0.000   0.075
    1UNL    C17   19  -0.168   0.003   0.039
    1UNL    C18   20  -0.216  -0.141  -0.011
    1UNL    C19   21  -0.201  -0.254   0.090
    1UNL     O1   22  -0.194  -0.379   0.029
    1UNL    C20   23  -0.364  -0.145  -0.045
    1UNL     O2   24  -0.407  -0.226  -0.124
    1UNL     O3   25  -0.430  -0.052   0.017
    1UNL    C21   26  -0.570  -0.063  -0.022
    1UNL     H1   27  -0.432   0.179   0.022
    1UNL     H2   28  -0.347   0.197   0.180
    1UNL     H3   29  -0.402   0.343   0.101
    1UNL     H4   30  -0.221   0.323  -0.081
    1UNL     H5   31  -0.141   0.271   0.067
    1UNL     H6   32  -0.299   0.095  -0.117
    1UNL     H7   33  -0.086   0.050  -0.270
    1UNL     H8   34  -0.102   0.218  -0.239
    1UNL     H9   35   0.077   0.277  -0.031
    1UNL    H10   36   0.118   0.280  -0.204
    1UNL    H11   37   0.322   0.266  -0.024
    1UNL    H12   38   0.360   0.207  -0.183
    1UNL    H13   39   0.231  -0.237   0.076
    1UNL    H14   40   0.442  -0.289   0.211
    1UNL    H15   41   0.694  -0.211   0.217
    1UNL    H16   42   0.751   0.009   0.113
    1UNL    H17   43   0.611   0.125  -0.035
    1UNL    H18   44   0.030  -0.114  -0.086
    1UNL    H19   45   0.020   0.089   0.133
    1UNL    H20   46   0.002  -0.082   0.148
    1UNL    H21   47  -0.232   0.019   0.120
    1UNL    H22   48  -0.154  -0.179  -0.101
    1UNL    H23   49  -0.286  -0.253   0.155
    1UNL    H24   50  -0.109  -0.235   0.148
    1UNL    H25   51  -0.269  -0.402  -0.036
    1UNL    H26   52  -0.632  -0.010   0.049
    1UNL    H27   53  -0.586  -0.023  -0.120
    1UNL    H28   54  -0.601  -0.167  -0.013
   0.00000   0.00000   0.00000   0.00000   0.00000   0.00000   0.00000   0.00000   0.00000
Generated with MDTraj, t= 58.0
 54
    1UNL     C1    1  -0.355   0.268   0.051
    1UNL     C2    2  -0.209   0.251  -0.001
    1UNL     C3    3  -0.185   0.111  -0.072
    1UNL     C4    4  -0.078   0.115  -0.177
    1UNL     N1    5   0.051   0.105  -0.124
    1UNL     C5    6   0.136   0.223  -0.096
    1UNL     C6    7   0.279   0.186  -0.107
    1UNL     C7    8   0.310   0.050  -0.038
    1UNL     C8    9   0.212  -0.036  -0.003
    1UNL     N2   10   0.260  -0.139   0.068
    1UNL     C9   11   0.393  -0.114   0.089
    1UNL    C10   12   0.497  -0.191   0.151
    1UNL    C11   13   0.625  -0.152   0.148
    1UNL    C12   14   0.667  -0.025   0.094
    1UNL    C13   15   0.564   0.050   0.034
    1UNL    C14   16   0.429   0.012   0.032
    1UNL    C15   17   0.064  -0.023  -0.038
    1UNL    C16   18  -0.031  -0.009   0.079
    1UNL    C17   19  -0.172  -0.003   0.036
    1UNL    C18   20  -0.217  -0.144  -0.020
    1UNL    C19   21  -0.179  -0.263   0.077
    1UNL     O1   22  -0.215  -0.390   0.022
    1UNL    C20   23  -0.364  -0.149  -0.043
    1UNL     O2   24  -0.416  -0.222  -0.124
    1UNL     O3   25  -0.440  -0.059   0.029
    1UNL    C21   26  -0.571  -0.061  -0.019
    1UNL     H1   27  -0.423   0.318  -0.027
    1UNL     H2   28  -0.397   0.167   0.078
    1UNL     H3   29  -0.345   0.326   0.146
    1UNL     H4   30  -0.191   0.328  -0.079
    1UNL     H5   31  -0.135   0.263   0.077
    1UNL     H6   32  -0.287   0.088  -0.115
    1UNL     H7   33  -0.098   0.033  -0.252
    1UNL     H8   34  -0.073   0.210  -0.237
    1UNL     H9   35   0.109   0.257   0.008
    1UNL    H10   36   0.104   0.298  -0.162
    1UNL    H11   37   0.351   0.259  -0.070
    1UNL    H12   38   0.308   0.178  -0.217
    1UNL    H13   39   0.206  -0.205   0.120
    1UNL    H14   40   0.488  -0.300   0.171
    1UNL    H15   41   0.697  -0.213   0.192
    1UNL    H16   42   0.769   0.010   0.103
    1UNL    H17   43   0.581   0.144  -0.012
    1UNL    H18   44   0.024  -0.102  -0.105
    1UNL    H19   45   0.005   0.088   0.127
    1UNL    H20   46  -0.006  -0.088   0.154
    1UNL    H21   47  -0.241   0.017   0.112
    1UNL    H22   48  -0.168  -0.170  -0.115
    1UNL    H23   49  -0.240  -0.245   0.163
    1UNL    H24   50  -0.071  -0.263   0.104
    1UNL    H25   51  -0.274  -0.383  -0.050
    1UNL    H26   52  -0.622   0.014   0.042
    1UNL    H27   53  -0.574  -0.023  -0.122
    1UNL    H28   54  -0.616  -0.160   0.007
   0.00000   0.00000   0.00000   0.00000   0.00000   0.00000   0.00000   0.00000   0.00000
Generated with MDTraj, t= 59.0
 54
    1UNL     C1    1  -0.342   0.275   0.054
    1UNL     C2    2  -0.205   0.255  -0.012
    1UNL     C3    3  -0.194   0.112  -0.064
    1UNL     C4    4  -0.084   0.096  -0.180
    1UNL     N1    5   0.051   0.074  -0.125
    1UNL     C5    6   0.136   0.201  -0.111
    1UNL     C6    7   0.281   0.183  -0.079
    1UNL     C7    8   0.313   0.054  -0.022
    1UNL     C8    9   0.220  -0.044   0.016
    1UNL     N2   10   0.285  -0.145   0.085
    1UNL     C9   11   0.419  -0.115   0.094
    1UNL    C10   12   0.526  -0.187   0.152
    1UNL    C11   13   0.648  -0.132   0.143
    1UNL    C12   14   0.667  -0.008   0.078
    1UNL    C13   15   0.566   0.066   0.026
    1UNL    C14   16   0.439   0.007   0.030
    1UNL    C15   17   0.069  -0.038  -0.024
    1UNL    C16   18  -0.035  -0.016   0.090
    1UNL    C17   19  -0.179  -0.004   0.042
    1UNL    C18   20  -0.232  -0.138  -0.029
    1UNL    C19   21  -0.193  -0.265   0.056
    1UNL     O1   22  -0.242  -0.390   0.014
    1UNL    C20   23  -0.381  -0.130  -0.063
    1UNL     O2   24  -0.429  -0.208  -0.140
    1UNL     O3   25  -0.455  -0.039   0.016
    1UNL    C21   26  -0.586  -0.078   0.007
    1UNL     H1   27  -0.424   0.212   0.006
    1UNL     H2   28  -0.337   0.248   0.163
    1UNL     H3   29  -0.364   0.385   0.050
    1UNL     H4   30  -0.203   0.318  -0.103
    1UNL     H5   31  -0.122   0.286   0.052
    1UNL     H6   32  -0.297   0.090  -0.104
    1UNL     H7   33  -0.100   0.009  -0.248
    1UNL     H8   34  -0.091   0.191  -0.240
    1UNL     H9   35   0.087   0.258  -0.028
    1UNL    H10   36   0.125   0.258  -0.200
    1UNL    H11   37   0.313   0.264  -0.012
    1UNL    H12   38   0.350   0.199  -0.168
    1UNL    H13   39   0.233  -0.230   0.090
    1UNL    H14   40   0.489  -0.282   0.179
    1UNL    H15   41   0.742  -0.191   0.160
    1UNL    H16   42   0.765   0.035   0.097
    1UNL    H17   43   0.578   0.177   0.010
    1UNL    H18   44   0.053  -0.129  -0.083
    1UNL    H19   45   0.006   0.082   0.134
    1UNL    H20   46  -0.007  -0.096   0.162
    1UNL    H21   47  -0.242   0.015   0.124
    1UNL    H22   48  -0.177  -0.143  -0.117
    1UNL    H23   49  -0.208  -0.248   0.161
    1UNL    H24   50  -0.083  -0.278   0.040
    1UNL    H25   51  -0.267  -0.387  -0.087
    1UNL    H26   52  -0.644  -0.003   0.063
    1UNL    H27   53  -0.615  -0.062  -0.101
    1UNL    H28   54  -0.592  -0.181   0.057
   0.00000   0.00000   0.00000   0.00000   0.00000   0.00000   0.00000   0.00000   0.00000
Generated with MDTraj, t= 60.0
 54
    1UNL     C1    1  -0.306   0.259   0.065
    1UNL     C2    2  -0.183   0.240  -0.024
    1UNL     C3    3  -0.184   0.095  -0.084
    1UNL     C4    4  -0.075   0.085  -0.195
    1UNL     N1    5   0.059   0.082  -0.136
    1UNL     C5    6   0.130   0.208  -0.094
    1UNL     C6    7   0.285   0.191  -0.086
    1UNL     C7    8   0.312   0.067  -0.005
    1UNL     C8    9   0.219  -0.035   0.009
    1UNL     N2   10   0.269  -0.142   0.084
    1UNL     C9   11   0.410  -0.105   0.095
    1UNL    C10   12   0.519  -0.178   0.150
    1UNL    C11   13   0.643  -0.126   0.133
    1UNL    C12   14   0.669  -0.001   0.077
    1UNL    C13   15   0.565   0.075   0.037
    1UNL    C14   16   0.437   0.026   0.044
    1UNL    C15   17   0.078  -0.030  -0.037
    1UNL    C16   18  -0.028  -0.028   0.078
    1UNL    C17   19  -0.169  -0.022   0.024
    1UNL    C18   20  -0.233  -0.157  -0.023
    1UNL    C19   21  -0.223  -0.274   0.070
    1UNL     O1   22  -0.268  -0.394   0.012
    1UNL    C20   23  -0.384  -0.134  -0.048
    1UNL     O2   24  -0.429  -0.189  -0.142
    1UNL     O3   25  -0.452  -0.064   0.044
    1UNL    C21   26  -0.584  -0.051  -0.004
    1UNL     H1   27  -0.406   0.282   0.019
    1UNL     H2   28  -0.332   0.175   0.134
    1UNL     H3   29  -0.289   0.341   0.142
    1UNL     H4   30  -0.167   0.314  -0.105
    1UNL     H5   31  -0.095   0.259   0.041
    1UNL     H6   32  -0.281   0.072  -0.131
    1UNL     H7   33  -0.095  -0.007  -0.253
    1UNL     H8   34  -0.082   0.176  -0.260
    1UNL     H9   35   0.092   0.238   0.005
    1UNL    H10   36   0.108   0.279  -0.170
    1UNL    H11   37   0.331   0.277  -0.034
    1UNL    H12   38   0.326   0.194  -0.190
    1UNL    H13   39   0.225  -0.230   0.102
    1UNL    H14   40   0.502  -0.283   0.187
    1UNL    H15   41   0.717  -0.199   0.143
    1UNL    H16   42   0.767   0.042   0.075
    1UNL    H17   43   0.576   0.178   0.029
    1UNL    H18   44   0.062  -0.125  -0.088
    1UNL    H19   45   0.001   0.072   0.127
    1UNL    H20   46  -0.016  -0.110   0.154
    1UNL    H21   47  -0.226   0.007   0.108
    1UNL    H22   48  -0.182  -0.178  -0.109
    1UNL    H23   49  -0.287  -0.260   0.156
    1UNL    H24   50  -0.121  -0.296   0.113
    1UNL    H25   51  -0.357  -0.374  -0.034
    1UNL    H26   52  -0.633   0.032   0.046
    1UNL    H27   53  -0.572  -0.014  -0.109
    1UNL    H28   54  -0.639  -0.150   0.013
   0.00000   0.00000   0.00000   0.00000   0.00000   0.00000   0.00000   0.00000   0.00000
Generated with MDTraj, t= 61.0
 54
    1UNL     C1    1  -0.339   0.265   0.060
    1UNL     C2    2  -0.194   0.227   0.022
    1UNL     C3    3  -0.192   0.097  -0.061
    1UNL     C4    4  -0.081   0.095  -0.180
    1UNL     N1    5   0.055   0.074  -0.141
    1UNL     C5    6   0.122   0.208  -0.111
    1UNL     C6    7   0.282   0.185  -0.101
    1UNL     C7    8   0.309   0.060  -0.024
    1UNL     C8    9   0.223  -0.041   0.001
    1UNL     N2   10   0.288  -0.148   0.061
    1UNL     C9   11   0.423  -0.114   0.078
    1UNL    C10   12   0.521  -0.177   0.153
    1UNL    C11   13   0.648  -0.114   0.160
    1UNL    C12   14   0.667   0.010   0.102
    1UNL    C13   15   0.565   0.076   0.039
    1UNL    C14   16   0.432   0.021   0.036
    1UNL    C15   17   0.084  -0.044  -0.047
    1UNL    C16   18  -0.019  -0.036   0.073
    1UNL    C17   19  -0.174  -0.027   0.035
    1UNL    C18   20  -0.227  -0.160  -0.032
    1UNL    C19   21  -0.206  -0.281   0.056
    1UNL     O1   22  -0.311  -0.378   0.046
    1UNL    C20   23  -0.370  -0.137  -0.063
    1UNL     O2   24  -0.426  -0.185  -0.158
    1UNL     O3   25  -0.431  -0.053   0.034
    1UNL    C21   26  -0.569  -0.041  -0.002
    1UNL     H1   27  -0.401   0.259  -0.031
    1UNL     H2   28  -0.383   0.197   0.137
    1UNL     H3   29  -0.338   0.371   0.103
    1UNL     H4   30  -0.164   0.316  -0.037
    1UNL     H5   31  -0.121   0.225   0.107
    1UNL     H6   32  -0.285   0.076  -0.115
    1UNL     H7   33  -0.102   0.020  -0.259
    1UNL     H8   34  -0.093   0.198  -0.220
    1UNL     H9   35   0.089   0.243  -0.014
    1UNL    H10   36   0.098   0.281  -0.186
    1UNL    H11   37   0.330   0.277  -0.057
    1UNL    H12   38   0.331   0.173  -0.200
    1UNL    H13   39   0.259  -0.230   0.109
    1UNL    H14   40   0.507  -0.271   0.189
    1UNL    H15   41   0.738  -0.162   0.204
    1UNL    H16   42   0.765   0.055   0.111
    1UNL    H17   43   0.599   0.177  -0.001
    1UNL    H18   44   0.048  -0.128  -0.100
    1UNL    H19   45  -0.007   0.051   0.148
    1UNL    H20   46  -0.012  -0.136   0.126
    1UNL    H21   47  -0.225  -0.001   0.126
    1UNL    H22   48  -0.186  -0.172  -0.125
    1UNL    H23   49  -0.205  -0.253   0.161
    1UNL    H24   50  -0.106  -0.332   0.040
    1UNL    H25   51  -0.387  -0.340   0.009
    1UNL    H26   52  -0.633  -0.023   0.080
    1UNL    H27   53  -0.572   0.049  -0.063
    1UNL    H28   54  -0.599  -0.138  -0.054
   0.00000   0.00000   0.00000   0.00000   0.00000   0.00000   0.00000   0.00000   0.00000
Generated with MDTraj, t= 62.0
 54
    1UNL     C1    1  -0.334   0.247   0.089
    1UNL     C2    2  -0.200   0.233   0.009
    1UNL     C3    3  -0.181   0.098  -0.067
    1UNL     C4    4  -0.082   0.102  -0.185
    1UNL     N1    5   0.058   0.082  -0.134
    1UNL     C5    6   0.133   0.201  -0.088
    1UNL     C6    7   0.283   0.180  -0.106
    1UNL     C7    8   0.319   0.052  -0.048
    1UNL     C8    9   0.226  -0.051  -0.026
    1UNL     N2   10   0.293  -0.157   0.045
    1UNL     C9   11   0.426  -0.117   0.070
    1UNL    C10   12   0.517  -0.174   0.161
    1UNL    C11   13   0.631  -0.102   0.180
    1UNL    C12   14   0.655   0.024   0.121
    1UNL    C13   15   0.563   0.082   0.033
    1UNL    C14   16   0.437   0.012   0.017
    1UNL    C15   17   0.082  -0.046  -0.062
    1UNL    C16   18  -0.007  -0.052   0.061
    1UNL    C17   19  -0.156  -0.024   0.031
    1UNL    C18   20  -0.230  -0.152  -0.003
    1UNL    C19   21  -0.241  -0.270   0.101
    1UNL     O1   22  -0.287  -0.391   0.033
    1UNL    C20   23  -0.377  -0.121  -0.051
    1UNL     O2   24  -0.414  -0.177  -0.153
    1UNL     O3   25  -0.450  -0.042   0.023
    1UNL    C21   26  -0.584  -0.047  -0.017
    1UNL     H1   27  -0.400   0.327   0.054
    1UNL     H2   28  -0.393   0.152   0.091
    1UNL     H3   29  -0.308   0.269   0.198
    1UNL     H4   30  -0.182   0.317  -0.063
    1UNL     H5   31  -0.116   0.251   0.082
    1UNL     H6   32  -0.277   0.074  -0.113
    1UNL     H7   33  -0.106   0.025  -0.260
    1UNL     H8   34  -0.087   0.201  -0.233
    1UNL     H9   35   0.100   0.220   0.011
    1UNL    H10   36   0.098   0.284  -0.150
    1UNL    H11   37   0.352   0.260  -0.067
    1UNL    H12   38   0.301   0.184  -0.215
    1UNL    H13   39   0.262  -0.250   0.057
    1UNL    H14   40   0.507  -0.276   0.211
    1UNL    H15   41   0.703  -0.148   0.246
    1UNL    H16   42   0.735   0.074   0.175
    1UNL    H17   43   0.591   0.162  -0.027
    1UNL    H18   44   0.074  -0.128  -0.129
    1UNL    H19   45   0.034   0.028   0.134
    1UNL    H20   46  -0.013  -0.158   0.105
    1UNL    H21   47  -0.188   0.007   0.129
    1UNL    H22   48  -0.184  -0.197  -0.086
    1UNL    H23   49  -0.315  -0.236   0.173
    1UNL    H24   50  -0.147  -0.283   0.160
    1UNL    H25   51  -0.350  -0.356  -0.045
    1UNL    H26   52  -0.639   0.023   0.036
    1UNL    H27   53  -0.585  -0.026  -0.122
    1UNL    H28   54  -0.619  -0.151   0.000
   0.00000   0.00000   0.00000   0.00000   0.00000   0.00000   0.00000   0.00000   0.00000
Generated with MDTraj, t= 63.0
 54
    1UNL     C1    1  -0.291   0.246   0.123
    1UNL     C2    2  -0.176   0.220   0.025
    1UNL     C3    3  -0.188   0.096  -0.064
    1UNL     C4    4  -0.087   0.100  -0.183
    1UNL     N1    5   0.055   0.083  -0.150
    1UNL     C5    6   0.128   0.204  -0.121
    1UNL     C6    7   0.276   0.179  -0.104
    1UNL     C7    8   0.314   0.053  -0.034
    1UNL     C8    9   0.220  -0.047  -0.022
    1UNL     N2   10   0.277  -0.150   0.045
    1UNL     C9   11   0.410  -0.118   0.075
    1UNL    C10   12   0.511  -0.176   0.147
    1UNL    C11   13   0.627  -0.111   0.173
    1UNL    C12   14   0.648   0.021   0.124
    1UNL    C13   15   0.555   0.083   0.048
    1UNL    C14   16   0.430   0.016   0.032
    1UNL    C15   17   0.071  -0.044  -0.070
    1UNL    C16   18  -0.016  -0.045   0.056
    1UNL    C17   19  -0.169  -0.027   0.025
    1UNL    C18   20  -0.234  -0.156  -0.020
    1UNL    C19   21  -0.244  -0.259   0.097
    1UNL     O1   22  -0.235  -0.394   0.064
    1UNL    C20   23  -0.375  -0.126  -0.059
    1UNL     O2   24  -0.410  -0.183  -0.164
    1UNL     O3   25  -0.458  -0.053   0.024
    1UNL    C21   26  -0.581  -0.024  -0.034
    1UNL     H1   27  -0.390   0.241   0.073
    1UNL     H2   28  -0.294   0.175   0.209
    1UNL     H3   29  -0.279   0.350   0.162
    1UNL     H4   30  -0.164   0.307  -0.044
    1UNL     H5   31  -0.071   0.219   0.065
    1UNL     H6   32  -0.290   0.092  -0.099
    1UNL     H7   33  -0.107   0.025  -0.260
    1UNL     H8   34  -0.094   0.194  -0.240
    1UNL     H9   35   0.088   0.241  -0.032
    1UNL    H10   36   0.103   0.281  -0.196
    1UNL    H11   37   0.313   0.273  -0.052
    1UNL    H12   38   0.332   0.182  -0.198
    1UNL    H13   39   0.228  -0.235   0.063
    1UNL    H14   40   0.499  -0.278   0.170
    1UNL    H15   41   0.698  -0.164   0.231
    1UNL    H16   42   0.734   0.075   0.160
    1UNL    H17   43   0.575   0.185   0.011
    1UNL    H18   44   0.063  -0.127  -0.136
    1UNL    H19   45   0.016   0.039   0.127
    1UNL    H20   46   0.004  -0.147   0.105
    1UNL    H21   47  -0.208  -0.003   0.125
    1UNL    H22   48  -0.193  -0.205  -0.108
    1UNL    H23   49  -0.326  -0.239   0.167
    1UNL    H24   50  -0.153  -0.237   0.160
    1UNL    H25   51  -0.299  -0.407  -0.013
    1UNL    H26   52  -0.604   0.075  -0.013
    1UNL    H27   53  -0.572  -0.042  -0.140
    1UNL    H28   54  -0.658  -0.097   0.000
   0.00000   0.00000   0.00000   0.00000   0.00000   0.00000   0.00000   0.00000   0.00000
Generated with MDTraj, t= 64.0
 54
    1UNL     C1    1  -0.278   0.264   0.136
    1UNL     C2    2  -0.190   0.233   0.011
    1UNL     C3    3  -0.200   0.097  -0.049
    1UNL     C4    4  -0.109   0.080  -0.177
    1UNL     N1    5   0.036   0.071  -0.146
    1UNL     C5    6   0.121   0.192  -0.141
    1UNL     C6    7   0.269   0.179  -0.109
    1UNL     C7    8   0.303   0.056  -0.030
    1UNL     C8    9   0.215  -0.047  -0.014
    1UNL     N2   10   0.274  -0.146   0.048
    1UNL     C9   11   0.402  -0.111   0.079
    1UNL    C10   12   0.503  -0.190   0.143
    1UNL    C11   13   0.626  -0.122   0.161
    1UNL    C12   14   0.644   0.008   0.113
    1UNL    C13   15   0.547   0.079   0.051
    1UNL    C14   16   0.421   0.023   0.035
    1UNL    C15   17   0.069  -0.037  -0.047
    1UNL    C16   18  -0.013  -0.025   0.082
    1UNL    C17   19  -0.165  -0.017   0.050
    1UNL    C18   20  -0.219  -0.148  -0.002
    1UNL    C19   21  -0.219  -0.268   0.092
    1UNL     O1   22  -0.242  -0.392   0.033
    1UNL    C20   23  -0.359  -0.128  -0.058
    1UNL     O2   24  -0.386  -0.197  -0.159
    1UNL     O3   25  -0.439  -0.036   0.002
    1UNL    C21   26  -0.566  -0.030  -0.052
    1UNL     H1   27  -0.387   0.268   0.106
    1UNL     H2   28  -0.260   0.187   0.212
    1UNL     H3   29  -0.243   0.364   0.166
    1UNL     H4   30  -0.196   0.312  -0.068
    1UNL     H5   31  -0.082   0.242   0.042
    1UNL     H6   32  -0.302   0.085  -0.081
    1UNL     H7   33  -0.131  -0.006  -0.240
    1UNL     H8   34  -0.122   0.162  -0.248
    1UNL     H9   35   0.079   0.253  -0.069
    1UNL    H10   36   0.110   0.245  -0.237
    1UNL    H11   37   0.296   0.272  -0.046
    1UNL    H12   38   0.323   0.198  -0.202
    1UNL    H13   39   0.229  -0.229   0.084
    1UNL    H14   40   0.486  -0.295   0.168
    1UNL    H15   41   0.720  -0.171   0.196
    1UNL    H16   42   0.746   0.051   0.124
    1UNL    H17   43   0.551   0.187   0.037
    1UNL    H18   44   0.026  -0.121  -0.101
    1UNL    H19   45   0.026   0.074   0.123
    1UNL    H20   46   0.018  -0.099   0.166
    1UNL    H21   47  -0.207  -0.004   0.152
    1UNL    H22   48  -0.166  -0.183  -0.096
    1UNL    H23   49  -0.295  -0.260   0.170
    1UNL    H24   50  -0.127  -0.280   0.159
    1UNL    H25   51  -0.298  -0.375  -0.041
    1UNL    H26   52  -0.641   0.001   0.018
    1UNL    H27   53  -0.565   0.037  -0.138
    1UNL    H28   54  -0.591  -0.128  -0.107
   0.00000   0.00000   0.00000   0.00000   0.00000   0.00000   0.00000   0.00000   0.00000
Generated with MDTraj, t= 65.0
 54
    1UNL     C1    1  -0.300   0.290   0.116
    1UNL     C2    2  -0.185   0.252   0.026
    1UNL     C3    3  -0.197   0.111  -0.039
    1UNL     C4    4  -0.095   0.107  -0.158
    1UNL     N1    5   0.043   0.087  -0.114
    1UNL     C5    6   0.135   0.209  -0.107
    1UNL     C6    7   0.283   0.165  -0.119
    1UNL     C7    8   0.302   0.040  -0.043
    1UNL     C8    9   0.207  -0.052   0.000
    1UNL     N2   10   0.272  -0.151   0.076
    1UNL     C9   11   0.409  -0.114   0.086
    1UNL    C10   12   0.517  -0.174   0.160
    1UNL    C11   13   0.641  -0.115   0.155
    1UNL    C12   14   0.661   0.008   0.087
    1UNL    C13   15   0.554   0.063   0.021
    1UNL    C14   16   0.428   0.002   0.012
    1UNL    C15   17   0.065  -0.036  -0.037
    1UNL    C16   18  -0.026  -0.025   0.089
    1UNL    C17   19  -0.178  -0.013   0.049
    1UNL    C18   20  -0.223  -0.150  -0.012
    1UNL    C19   21  -0.194  -0.268   0.079
    1UNL     O1   22  -0.245  -0.383   0.027
    1UNL    C20   23  -0.374  -0.146  -0.065
    1UNL     O2   24  -0.406  -0.223  -0.156
    1UNL     O3   25  -0.454  -0.051  -0.013
    1UNL    C21   26  -0.585  -0.048  -0.070
    1UNL     H1   27  -0.396   0.243   0.081
    1UNL     H2   28  -0.291   0.256   0.219
    1UNL     H3   29  -0.317   0.397   0.118
    1UNL     H4   30  -0.165   0.327  -0.055
    1UNL     H5   31  -0.088   0.251   0.085
    1UNL     H6   32  -0.298   0.105  -0.079
    1UNL     H7   33  -0.118   0.026  -0.227
    1UNL     H8   34  -0.094   0.193  -0.224
    1UNL     H9   35   0.117   0.258  -0.014
    1UNL    H10   36   0.109   0.283  -0.186
    1UNL    H11   37   0.353   0.247  -0.079
    1UNL    H12   38   0.318   0.148  -0.220
    1UNL    H13   39   0.221  -0.235   0.103
    1UNL    H14   40   0.493  -0.266   0.219
    1UNL    H15   41   0.724  -0.173   0.181
    1UNL    H16   42   0.747   0.068   0.089
    1UNL    H17   43   0.561   0.163  -0.012
    1UNL    H18   44   0.025  -0.131  -0.076
    1UNL    H19   45   0.014   0.051   0.164
    1UNL    H20   46   0.005  -0.119   0.148
    1UNL    H21   47  -0.228   0.005   0.144
    1UNL    H22   48  -0.162  -0.169  -0.112
    1UNL    H23   49  -0.229  -0.255   0.181
    1UNL    H24   50  -0.084  -0.289   0.098
    1UNL    H25   51  -0.330  -0.360  -0.021
    1UNL    H26   52  -0.668  -0.033  -0.002
    1UNL    H27   53  -0.599   0.017  -0.159
    1UNL    H28   54  -0.596  -0.149  -0.126
   0.00000   0.00000   0.00000   0.00000   0.00000   0.00000   0.00000   0.00000   0.00000
Generated with MDTraj, t= 66.0
 54
    1UNL     C1    1  -0.341   0.247   0.100
    1UNL     C2    2  -0.202   0.238   0.032
    1UNL     C3    3  -0.195   0.105  -0.050
    1UNL     C4    4  -0.091   0.109  -0.161
    1UNL     N1    5   0.050   0.094  -0.120
    1UNL     C5    6   0.135   0.216  -0.099
    1UNL     C6    7   0.284   0.181  -0.118
    1UNL     C7    8   0.316   0.053  -0.043
    1UNL     C8    9   0.223  -0.029   0.010
    1UNL     N2   10   0.274  -0.115   0.108
    1UNL     C9   11   0.414  -0.102   0.103
    1UNL    C10   12   0.513  -0.165   0.177
    1UNL    C11   13   0.641  -0.133   0.152
    1UNL    C12   14   0.678  -0.031   0.057
    1UNL    C13   15   0.578   0.038  -0.012
    1UNL    C14   16   0.445   0.004   0.014
    1UNL    C15   17   0.073  -0.023  -0.022
    1UNL    C16   18  -0.028  -0.023   0.094
    1UNL    C17   19  -0.175  -0.013   0.041
    1UNL    C18   20  -0.233  -0.143  -0.013
    1UNL    C19   21  -0.225  -0.265   0.077
    1UNL     O1   22  -0.253  -0.384  -0.002
    1UNL    C20   23  -0.372  -0.142  -0.068
    1UNL     O2   24  -0.416  -0.229  -0.142
    1UNL     O3   25  -0.447  -0.039  -0.019
    1UNL    C21   26  -0.573  -0.059  -0.047
    1UNL     H1   27  -0.407   0.310   0.036
    1UNL     H2   28  -0.394   0.152   0.100
    1UNL     H3   29  -0.349   0.290   0.199
    1UNL     H4   30  -0.193   0.328  -0.036
    1UNL     H5   31  -0.117   0.241   0.107
    1UNL     H6   32  -0.290   0.091  -0.100
    1UNL     H7   33  -0.110   0.035  -0.237
    1UNL     H8   34  -0.107   0.205  -0.207
    1UNL     H9   35   0.114   0.260  -0.003
    1UNL    H10   36   0.113   0.292  -0.174
    1UNL    H11   37   0.365   0.252  -0.079
    1UNL    H12   38   0.309   0.159  -0.221
    1UNL    H13   39   0.222  -0.177   0.175
    1UNL    H14   40   0.481  -0.237   0.242
    1UNL    H15   41   0.722  -0.180   0.214
    1UNL    H16   42   0.785  -0.002   0.037
    1UNL    H17   43   0.607   0.113  -0.091
    1UNL    H18   44   0.038  -0.107  -0.089
    1UNL    H19   45   0.018   0.048   0.171
    1UNL    H20   46  -0.012  -0.118   0.156
    1UNL    H21   47  -0.231   0.010   0.134
    1UNL    H22   48  -0.172  -0.156  -0.115
    1UNL    H23   49  -0.296  -0.258   0.158
    1UNL    H24   50  -0.127  -0.271   0.130
    1UNL    H25   51  -0.314  -0.354  -0.078
    1UNL    H26   52  -0.620   0.038  -0.060
    1UNL    H27   53  -0.593  -0.129  -0.131
    1UNL    H28   54  -0.615  -0.110   0.046
   0.00000   0.00000   0.00000   0.00000   0.00000   0.00000   0.00000   0.00000   0.00000
Generated with MDTraj, t= 67.0
 54
    1UNL     C1    1  -0.356   0.229   0.089
    1UNL     C2    2  -0.222   0.237   0.015
    1UNL     C3    3  -0.197   0.106  -0.057
    1UNL     C4    4  -0.090   0.117  -0.164
    1UNL     N1    5   0.045   0.110  -0.102
    1UNL     C5    6   0.149   0.212  -0.125
    1UNL     C6    7   0.291   0.159  -0.126
    1UNL     C7    8   0.315   0.063  -0.019
    1UNL     C8    9   0.213  -0.014   0.030
    1UNL     N2   10   0.269  -0.108   0.116
    1UNL     C9   11   0.405  -0.098   0.115
    1UNL    C10   12   0.517  -0.177   0.166
    1UNL    C11   13   0.645  -0.147   0.128
    1UNL    C12   14   0.673  -0.038   0.047
    1UNL    C13   15   0.571   0.047  -0.000
    1UNL    C14   16   0.444   0.014   0.037
    1UNL    C15   17   0.071  -0.018  -0.016
    1UNL    C16   18  -0.034  -0.016   0.092
    1UNL    C17   19  -0.176  -0.019   0.035
    1UNL    C18   20  -0.217  -0.154  -0.030
    1UNL    C19   21  -0.203  -0.272   0.062
    1UNL     O1   22  -0.254  -0.386  -0.006
    1UNL    C20   23  -0.371  -0.145  -0.056
    1UNL     O2   24  -0.418  -0.215  -0.143
    1UNL     O3   25  -0.441  -0.063   0.021
    1UNL    C21   26  -0.559  -0.026  -0.049
    1UNL     H1   27  -0.428   0.174   0.029
    1UNL     H2   28  -0.353   0.184   0.188
    1UNL     H3   29  -0.396   0.330   0.099
    1UNL     H4   30  -0.235   0.315  -0.066
    1UNL     H5   31  -0.144   0.272   0.090
    1UNL     H6   32  -0.282   0.074  -0.115
    1UNL     H7   33  -0.108   0.034  -0.230
    1UNL     H8   34  -0.102   0.210  -0.217
    1UNL     H9   35   0.148   0.287  -0.045
    1UNL    H10   36   0.134   0.264  -0.218
    1UNL    H11   37   0.365   0.244  -0.107
    1UNL    H12   38   0.328   0.104  -0.212
    1UNL    H13   39   0.227  -0.192   0.164
    1UNL    H14   40   0.490  -0.267   0.229
    1UNL    H15   41   0.720  -0.201   0.176
    1UNL    H16   42   0.775  -0.019   0.036
    1UNL    H17   43   0.576   0.113  -0.081
    1UNL    H18   44   0.052  -0.102  -0.088
    1UNL    H19   45  -0.020   0.074   0.161
    1UNL    H20   46  -0.003  -0.103   0.159
    1UNL    H21   47  -0.242  -0.011   0.124
    1UNL    H22   48  -0.164  -0.184  -0.131
    1UNL    H23   49  -0.246  -0.253   0.160
    1UNL    H24   50  -0.094  -0.290   0.078
    1UNL    H25   51  -0.338  -0.370  -0.047
    1UNL    H26   52  -0.535   0.016  -0.144
    1UNL    H27   53  -0.613  -0.119  -0.063
    1UNL    H28   54  -0.626   0.043   0.010
   0.00000   0.00000   0.00000   0.00000   0.00000   0.00000   0.00000   0.00000   0.00000
Generated with MDTraj, t= 68.0
 54
    1UNL     C1    1  -0.326   0.252   0.103
    1UNL     C2    2  -0.218   0.243  -0.004
    1UNL     C3    3  -0.205   0.105  -0.066
    1UNL     C4    4  -0.093   0.104  -0.170
    1UNL     N1    5   0.045   0.105  -0.106
    1UNL     C5    6   0.138   0.222  -0.110
    1UNL     C6    7   0.281   0.170  -0.119
    1UNL     C7    8   0.311   0.054  -0.025
    1UNL     C8    9   0.211  -0.028   0.026
    1UNL     N2   10   0.271  -0.128   0.100
    1UNL     C9   11   0.407  -0.107   0.104
    1UNL    C10   12   0.512  -0.185   0.164
    1UNL    C11   13   0.638  -0.144   0.147
    1UNL    C12   14   0.669  -0.031   0.067
    1UNL    C13   15   0.574   0.040   0.002
    1UNL    C14   16   0.440   0.003   0.022
    1UNL    C15   17   0.065  -0.009  -0.023
    1UNL    C16   18  -0.031  -0.009   0.091
    1UNL    C17   19  -0.182  -0.010   0.050
    1UNL    C18   20  -0.224  -0.136  -0.024
    1UNL    C19   21  -0.198  -0.266   0.057
    1UNL     O1   22  -0.221  -0.391   0.006
    1UNL    C20   23  -0.366  -0.131  -0.067
    1UNL     O2   24  -0.409  -0.209  -0.149
    1UNL     O3   25  -0.450  -0.040   0.002
    1UNL    C21   26  -0.583  -0.078  -0.025
    1UNL     H1   27  -0.428   0.245   0.072
    1UNL     H2   28  -0.318   0.190   0.192
    1UNL     H3   29  -0.321   0.354   0.142
    1UNL     H4   30  -0.240   0.323  -0.082
    1UNL     H5   31  -0.114   0.254   0.040
    1UNL     H6   32  -0.297   0.078  -0.111
    1UNL     H7   33  -0.093   0.014  -0.227
    1UNL     H8   34  -0.110   0.187  -0.235
    1UNL     H9   35   0.124   0.278  -0.015
    1UNL    H10   36   0.114   0.284  -0.194
    1UNL    H11   37   0.361   0.245  -0.090
    1UNL    H12   38   0.303   0.139  -0.220
    1UNL    H13   39   0.239  -0.225   0.126
    1UNL    H14   40   0.474  -0.264   0.222
    1UNL    H15   41   0.722  -0.201   0.193
    1UNL    H16   42   0.771   0.012   0.051
    1UNL    H17   43   0.612   0.121  -0.064
    1UNL    H18   44   0.046  -0.106  -0.081
    1UNL    H19   45  -0.004   0.086   0.148
    1UNL    H20   46  -0.008  -0.089   0.166
    1UNL    H21   47  -0.235   0.017   0.144
    1UNL    H22   48  -0.169  -0.143  -0.123
    1UNL    H23   49  -0.263  -0.256   0.141
    1UNL    H24   50  -0.096  -0.262   0.099
    1UNL    H25   51  -0.290  -0.387  -0.072
    1UNL    H26   52  -0.595  -0.093  -0.129
    1UNL    H27   53  -0.599  -0.169   0.028
    1UNL    H28   54  -0.650  -0.001   0.015
   0.00000   0.00000   0.00000   0.00000   0.00000   0.00000   0.00000   0.00000   0.00000
Generated with MDTraj, t= 69.0
 54
    1UNL     C1    1  -0.296   0.299   0.112
    1UNL     C2    2  -0.180   0.271   0.012
    1UNL     C3    3  -0.194   0.126  -0.066
    1UNL     C4    4  -0.097   0.117  -0.178
    1UNL     N1    5   0.048   0.096  -0.127
    1UNL     C5    6   0.126   0.225  -0.106
    1UNL     C6    7   0.277   0.186  -0.097
    1UNL     C7    8   0.306   0.041  -0.036
    1UNL     C8    9   0.211  -0.052  -0.009
    1UNL     N2   10   0.260  -0.149   0.076
    1UNL     C9   11   0.393  -0.121   0.097
    1UNL    C10   12   0.503  -0.192   0.160
    1UNL    C11   13   0.629  -0.132   0.158
    1UNL    C12   14   0.657  -0.012   0.087
    1UNL    C13   15   0.552   0.043   0.018
    1UNL    C14   16   0.423  -0.004   0.025
    1UNL    C15   17   0.069  -0.026  -0.044
    1UNL    C16   18  -0.022  -0.010   0.077
    1UNL    C17   19  -0.169  -0.000   0.034
    1UNL    C18   20  -0.215  -0.137  -0.024
    1UNL    C19   21  -0.182  -0.257   0.070
    1UNL     O1   22  -0.211  -0.381   0.011
    1UNL    C20   23  -0.370  -0.139  -0.054
    1UNL     O2   24  -0.401  -0.224  -0.132
    1UNL     O3   25  -0.469  -0.066   0.007
    1UNL    C21   26  -0.596  -0.114  -0.036
    1UNL     H1   27  -0.388   0.307   0.061
    1UNL     H2   28  -0.307   0.234   0.198
    1UNL     H3   29  -0.277   0.398   0.153
    1UNL     H4   30  -0.175   0.346  -0.074
    1UNL     H5   31  -0.088   0.273   0.076
    1UNL     H6   32  -0.295   0.113  -0.097
    1UNL     H7   33  -0.125   0.037  -0.243
    1UNL     H8   34  -0.093   0.207  -0.235
    1UNL     H9   35   0.092   0.274  -0.011
    1UNL    H10   36   0.111   0.294  -0.185
    1UNL    H11   37   0.323   0.262  -0.029
    1UNL    H12   38   0.334   0.195  -0.191
    1UNL    H13   39   0.196  -0.218   0.129
    1UNL    H14   40   0.494  -0.284   0.217
    1UNL    H15   41   0.713  -0.177   0.200
    1UNL    H16   42   0.760   0.011   0.069
    1UNL    H17   43   0.566   0.140  -0.023
    1UNL    H18   44   0.032  -0.117  -0.101
    1UNL    H19   45   0.016   0.083   0.133
    1UNL    H20   46  -0.007  -0.089   0.152
    1UNL    H21   47  -0.233   0.026   0.123
    1UNL    H22   48  -0.160  -0.169  -0.111
    1UNL    H23   49  -0.245  -0.250   0.158
    1UNL    H24   50  -0.078  -0.263   0.106
    1UNL    H25   51  -0.291  -0.373  -0.035
    1UNL    H26   52  -0.601  -0.096  -0.141
    1UNL    H27   53  -0.601  -0.219  -0.019
    1UNL    H28   54  -0.673  -0.057   0.019
   0.00000   0.00000   0.00000   0.00000   0.00000   0.00000   0.00000   0.00000   0.00000
Generated with MDTraj, t= 70.0
 54
    1UNL     C1    1  -0.303   0.283   0.107
    1UNL     C2    2  -0.186   0.259   0.013
    1UNL     C3    3  -0.193   0.116  -0.062
    1UNL     C4    4  -0.103   0.105  -0.182
    1UNL     N1    5   0.040   0.091  -0.144
    1UNL     C5    6   0.121   0.221  -0.135
    1UNL     C6    7   0.274   0.186  -0.121
    1UNL     C7    8   0.303   0.062  -0.031
    1UNL     C8    9   0.212  -0.037  -0.001
    1UNL     N2   10   0.270  -0.145   0.061
    1UNL     C9   11   0.403  -0.123   0.068
    1UNL    C10   12   0.497  -0.207   0.125
    1UNL    C11   13   0.620  -0.151   0.164
    1UNL    C12   14   0.641  -0.016   0.136
    1UNL    C13   15   0.552   0.065   0.064
    1UNL    C14   16   0.425   0.008   0.018
    1UNL    C15   17   0.063  -0.024  -0.041
    1UNL    C16   18  -0.027  -0.004   0.083
    1UNL    C17   19  -0.173  -0.001   0.042
    1UNL    C18   20  -0.216  -0.140  -0.024
    1UNL    C19   21  -0.188  -0.255   0.071
    1UNL     O1   22  -0.224  -0.388   0.017
    1UNL    C20   23  -0.363  -0.150  -0.052
    1UNL     O2   24  -0.400  -0.223  -0.142
    1UNL     O3   25  -0.437  -0.067   0.029
    1UNL    C21   26  -0.564  -0.076  -0.019
    1UNL     H1   27  -0.390   0.261   0.051
    1UNL     H2   28  -0.300   0.231   0.201
    1UNL     H3   29  -0.301   0.389   0.127
    1UNL     H4   30  -0.187   0.340  -0.070
    1UNL     H5   31  -0.091   0.265   0.070
    1UNL     H6   32  -0.293   0.103  -0.093
    1UNL     H7   33  -0.114   0.020  -0.245
    1UNL     H8   34  -0.120   0.192  -0.241
    1UNL     H9   35   0.094   0.285  -0.047
    1UNL    H10   36   0.099   0.277  -0.223
    1UNL    H11   37   0.343   0.269  -0.098
    1UNL    H12   38   0.300   0.156  -0.226
    1UNL    H13   39   0.204  -0.225   0.076
    1UNL    H14   40   0.475  -0.307   0.158
    1UNL    H15   41   0.701  -0.212   0.208
    1UNL    H16   42   0.734   0.022   0.174
    1UNL    H17   43   0.582   0.167   0.059
    1UNL    H18   44   0.030  -0.113  -0.103
    1UNL    H19   45   0.007   0.085   0.147
    1UNL    H20   46   0.004  -0.080   0.155
    1UNL    H21   47  -0.248   0.025   0.121
    1UNL    H22   48  -0.165  -0.163  -0.110
    1UNL    H23   49  -0.234  -0.248   0.169
    1UNL    H24   50  -0.079  -0.266   0.087
    1UNL    H25   51  -0.296  -0.369  -0.053
    1UNL    H26   52  -0.557  -0.044  -0.124
    1UNL    H27   53  -0.596  -0.179  -0.012
    1UNL    H28   54  -0.621  -0.003   0.045
   0.00000   0.00000   0.00000   0.00000   0.00000   0.00000   0.00000   0.00000   0.00000
Generated with MDTraj, t= 71.0
 54
    1UNL     C1    1  -0.329   0.222   0.095
    1UNL     C2    2  -0.215   0.243  -0.000
    1UNL     C3    3  -0.182   0.108  -0.071
    1UNL     C4    4  -0.090   0.108  -0.192
    1UNL     N1    5   0.055   0.086  -0.157
    1UNL     C5    6   0.128   0.209  -0.117
    1UNL     C6    7   0.275   0.198  -0.069
    1UNL     C7    8   0.307   0.057  -0.020
    1UNL     C8    9   0.219  -0.052  -0.024
    1UNL     N2   10   0.277  -0.164   0.027
    1UNL     C9   11   0.408  -0.124   0.086
    1UNL    C10   12   0.505  -0.185   0.159
    1UNL    C11   13   0.627  -0.128   0.164
    1UNL    C12   14   0.655  -0.006   0.109
    1UNL    C13   15   0.551   0.068   0.056
    1UNL    C14   16   0.422   0.010   0.038
    1UNL    C15   17   0.075  -0.037  -0.066
    1UNL    C16   18  -0.006  -0.023   0.056
    1UNL    C17   19  -0.156  -0.015   0.031
    1UNL    C18   20  -0.222  -0.142  -0.019
    1UNL    C19   21  -0.203  -0.258   0.082
    1UNL     O1   22  -0.236  -0.379   0.011
    1UNL    C20   23  -0.367  -0.129  -0.042
    1UNL     O2   24  -0.420  -0.201  -0.124
    1UNL     O3   25  -0.438  -0.035   0.032
    1UNL    C21   26  -0.575  -0.047   0.000
    1UNL     H1   27  -0.410   0.174   0.043
    1UNL     H2   28  -0.309   0.171   0.187
    1UNL     H3   29  -0.364   0.317   0.128
    1UNL     H4   30  -0.237   0.321  -0.086
    1UNL     H5   31  -0.123   0.276   0.048
    1UNL     H6   32  -0.277   0.079  -0.107
    1UNL     H7   33  -0.116   0.032  -0.261
    1UNL     H8   34  -0.087   0.199  -0.248
    1UNL     H9   35   0.061   0.260  -0.043
    1UNL    H10   36   0.130   0.273  -0.204
    1UNL    H11   37   0.293   0.276   0.006
    1UNL    H12   38   0.345   0.226  -0.153
    1UNL    H13   39   0.216  -0.249   0.038
    1UNL    H14   40   0.492  -0.281   0.207
    1UNL    H15   41   0.694  -0.188   0.225
    1UNL    H16   42   0.756   0.038   0.104
    1UNL    H17   43   0.570   0.161  -0.003
    1UNL    H18   44   0.058  -0.133  -0.125
    1UNL    H19   45   0.032   0.076   0.096
    1UNL    H20   46   0.018  -0.089   0.140
    1UNL    H21   47  -0.209   0.012   0.123
    1UNL    H22   48  -0.181  -0.167  -0.108
    1UNL    H23   49  -0.271  -0.247   0.167
    1UNL    H24   50  -0.102  -0.278   0.121
    1UNL    H25   51  -0.312  -0.352  -0.037
    1UNL    H26   52  -0.584  -0.015  -0.108
    1UNL    H27   53  -0.608  -0.150   0.014
    1UNL    H28   54  -0.621   0.030   0.070
   0.00000   0.00000   0.00000   0.00000   0.00000   0.00000   0.00000   0.00000   0.00000
Generated with MDTraj, t= 72.0
 54
    1UNL     C1    1  -0.331   0.261   0.050
    1UNL     C2    2  -0.196   0.233  -0.019
    1UNL     C3    3  -0.192   0.098  -0.078
    1UNL     C4    4  -0.075   0.104  -0.184
    1UNL     N1    5   0.057   0.107  -0.117
    1UNL     C5    6   0.142   0.221  -0.067
    1UNL     C6    7   0.292   0.190  -0.088
    1UNL     C7    8   0.321   0.062  -0.021
    1UNL     C8    9   0.227  -0.043  -0.015
    1UNL     N2   10   0.292  -0.154   0.028
    1UNL     C9   11   0.426  -0.120   0.063
    1UNL    C10   12   0.518  -0.187   0.131
    1UNL    C11   13   0.640  -0.118   0.156
    1UNL    C12   14   0.655   0.014   0.121
    1UNL    C13   15   0.563   0.085   0.064
    1UNL    C14   16   0.444   0.016   0.032
    1UNL    C15   17   0.080  -0.030  -0.043
    1UNL    C16   18  -0.021  -0.045   0.068
    1UNL    C17   19  -0.173  -0.027   0.033
    1UNL    C18   20  -0.236  -0.157  -0.033
    1UNL    C19   21  -0.205  -0.290   0.046
    1UNL     O1   22  -0.289  -0.403   0.029
    1UNL    C20   23  -0.389  -0.141  -0.047
    1UNL     O2   24  -0.460  -0.218  -0.107
    1UNL     O3   25  -0.432  -0.036   0.026
    1UNL    C21   26  -0.579  -0.026   0.013
    1UNL     H1   27  -0.400   0.281  -0.032
    1UNL     H2   28  -0.368   0.180   0.108
    1UNL     H3   29  -0.324   0.342   0.117
    1UNL     H4   30  -0.169   0.310  -0.106
    1UNL     H5   31  -0.110   0.236   0.049
    1UNL     H6   32  -0.279   0.073  -0.130
    1UNL     H7   33  -0.061   0.028  -0.257
    1UNL     H8   34  -0.085   0.195  -0.237
    1UNL     H9   35   0.121   0.234   0.041
    1UNL    H10   36   0.103   0.309  -0.119
    1UNL    H11   37   0.350   0.272  -0.048
    1UNL    H12   38   0.322   0.191  -0.199
    1UNL    H13   39   0.245  -0.246   0.045
    1UNL    H14   40   0.488  -0.291   0.157
    1UNL    H15   41   0.706  -0.159   0.229
    1UNL    H16   42   0.749   0.049   0.147
    1UNL    H17   43   0.578   0.181   0.031
    1UNL    H18   44   0.061  -0.118  -0.116
    1UNL    H19   45  -0.003   0.032   0.147
    1UNL    H20   46  -0.011  -0.144   0.111
    1UNL    H21   47  -0.231  -0.001   0.123
    1UNL    H22   48  -0.191  -0.173  -0.126
    1UNL    H23   49  -0.201  -0.276   0.156
    1UNL    H24   50  -0.106  -0.329   0.014
    1UNL    H25   51  -0.366  -0.373  -0.029
    1UNL    H26   52  -0.598  -0.008  -0.098
    1UNL    H27   53  -0.627  -0.121   0.034
    1UNL    H28   54  -0.620   0.059   0.074
   0.00000   0.00000   0.00000   0.00000   0.00000   0.00000   0.00000   0.00000   0.00000
Generated with MDTraj, t= 73.0
 54
    1UNL     C1    1  -0.342   0.268   0.033
    1UNL     C2    2  -0.194   0.224   0.015
    1UNL     C3    3  -0.180   0.092  -0.061
    1UNL     C4    4  -0.075   0.094  -0.179
    1UNL     N1    5   0.066   0.079  -0.152
    1UNL     C5    6   0.128   0.200  -0.094
    1UNL     C6    7   0.273   0.202  -0.055
    1UNL     C7    8   0.315   0.063  -0.009
    1UNL     C8    9   0.226  -0.044  -0.010
    1UNL     N2   10   0.287  -0.145   0.060
    1UNL     C9   11   0.421  -0.106   0.094
    1UNL    C10   12   0.539  -0.184   0.123
    1UNL    C11   13   0.661  -0.124   0.134
    1UNL    C12   14   0.675   0.015   0.103
    1UNL    C13   15   0.572   0.087   0.064
    1UNL    C14   16   0.440   0.027   0.050
    1UNL    C15   17   0.090  -0.051  -0.062
    1UNL    C16   18  -0.014  -0.055   0.049
    1UNL    C17   19  -0.165  -0.038   0.027
    1UNL    C18   20  -0.243  -0.158  -0.028
    1UNL    C19   21  -0.220  -0.287   0.062
    1UNL     O1   22  -0.281  -0.396  -0.000
    1UNL    C20   23  -0.391  -0.130  -0.049
    1UNL     O2   24  -0.466  -0.205  -0.110
    1UNL     O3   25  -0.445  -0.020   0.017
    1UNL    C21   26  -0.585  -0.025   0.026
    1UNL     H1   27  -0.374   0.287  -0.070
    1UNL     H2   28  -0.402   0.190   0.076
    1UNL     H3   29  -0.356   0.353   0.092
    1UNL     H4   30  -0.133   0.309  -0.035
    1UNL     H5   31  -0.145   0.216   0.112
    1UNL     H6   32  -0.267   0.069  -0.115
    1UNL     H7   33  -0.096   0.022  -0.256
    1UNL     H8   34  -0.079   0.191  -0.223
    1UNL     H9   35   0.063   0.234  -0.013
    1UNL    H10   36   0.116   0.268  -0.181
    1UNL    H11   37   0.294   0.279   0.018
    1UNL    H12   38   0.334   0.241  -0.144
    1UNL    H13   39   0.263  -0.245   0.073
    1UNL    H14   40   0.536  -0.283   0.160
    1UNL    H15   41   0.748  -0.183   0.158
    1UNL    H16   42   0.777   0.065   0.117
    1UNL    H17   43   0.578   0.196   0.032
    1UNL    H18   44   0.067  -0.136  -0.135
    1UNL    H19   45   0.015   0.028   0.117
    1UNL    H20   46  -0.014  -0.150   0.105
    1UNL    H21   47  -0.213  -0.004   0.122
    1UNL    H22   48  -0.202  -0.175  -0.128
    1UNL    H23   49  -0.281  -0.273   0.154
    1UNL    H24   50  -0.117  -0.317   0.089
    1UNL    H25   51  -0.367  -0.361  -0.048
    1UNL    H26   52  -0.628  -0.036  -0.078
    1UNL    H27   53  -0.623  -0.103   0.086
    1UNL    H28   54  -0.608   0.074   0.067
   0.00000   0.00000   0.00000   0.00000   0.00000   0.00000   0.00000   0.00000   0.00000
Generated with MDTraj, t= 74.0
 54
    1UNL     C1    1  -0.322   0.260   0.054
    1UNL     C2    2  -0.196   0.236  -0.021
    1UNL     C3    3  -0.183   0.094  -0.077
    1UNL     C4    4  -0.072   0.077  -0.192
    1UNL     N1    5   0.054   0.072  -0.120
    1UNL     C5    6   0.116   0.202  -0.067
    1UNL     C6    7   0.267   0.190  -0.062
    1UNL     C7    8   0.306   0.056  -0.020
    1UNL     C8    9   0.220  -0.047   0.014
    1UNL     N2   10   0.293  -0.157   0.071
    1UNL     C9   11   0.426  -0.118   0.076
    1UNL    C10   12   0.537  -0.186   0.114
    1UNL    C11   13   0.647  -0.117   0.139
    1UNL    C12   14   0.656   0.023   0.103
    1UNL    C13   15   0.556   0.089   0.033
    1UNL    C14   16   0.433   0.011   0.023
    1UNL    C15   17   0.079  -0.043  -0.027
    1UNL    C16   18  -0.025  -0.022   0.090
    1UNL    C17   19  -0.168  -0.019   0.033
    1UNL    C18   20  -0.237  -0.155  -0.019
    1UNL    C19   21  -0.211  -0.283   0.058
    1UNL     O1   22  -0.270  -0.394  -0.018
    1UNL    C20   23  -0.389  -0.138  -0.041
    1UNL     O2   24  -0.443  -0.199  -0.131
    1UNL     O3   25  -0.437  -0.036   0.038
    1UNL    C21   26  -0.566  -0.011   0.003
    1UNL     H1   27  -0.407   0.232  -0.007
    1UNL     H2   28  -0.337   0.217   0.152
    1UNL     H3   29  -0.342   0.362   0.072
    1UNL     H4   30  -0.186   0.311  -0.104
    1UNL     H5   31  -0.109   0.263   0.042
    1UNL     H6   32  -0.271   0.067  -0.129
    1UNL     H7   33  -0.071  -0.009  -0.258
    1UNL     H8   34  -0.073   0.167  -0.249
    1UNL     H9   35   0.074   0.209   0.032
    1UNL    H10   36   0.084   0.286  -0.133
    1UNL    H11   37   0.309   0.273  -0.009
    1UNL    H12   38   0.310   0.203  -0.167
    1UNL    H13   39   0.255  -0.249   0.099
    1UNL    H14   40   0.520  -0.293   0.138
    1UNL    H15   41   0.737  -0.162   0.175
    1UNL    H16   42   0.749   0.068   0.102
    1UNL    H17   43   0.561   0.194   0.007
    1UNL    H18   44   0.059  -0.147  -0.066
    1UNL    H19   45   0.007   0.062   0.150
    1UNL    H20   46  -0.017  -0.116   0.148
    1UNL    H21   47  -0.238   0.025   0.109
    1UNL    H22   48  -0.188  -0.167  -0.123
    1UNL    H23   49  -0.244  -0.280   0.163
    1UNL    H24   50  -0.103  -0.304   0.053
    1UNL    H25   51  -0.336  -0.360  -0.074
    1UNL    H26   52  -0.570   0.001  -0.108
    1UNL    H27   53  -0.628  -0.093   0.019
    1UNL    H28   54  -0.600   0.079   0.047
   0.00000   0.00000   0.00000   0.00000   0.00000   0.00000   0.00000   0.00000   0.00000
Generated with MDTraj, t= 75.0
 54
    1UNL     C1    1  -0.338   0.250   0.093
    1UNL     C2    2  -0.210   0.241   0.001
    1UNL     C3    3  -0.194   0.101  -0.064
    1UNL     C4    4  -0.083   0.101  -0.178
    1UNL     N1    5   0.058   0.085  -0.135
    1UNL     C5    6   0.130   0.212  -0.108
    1UNL     C6    7   0.280   0.183  -0.089
    1UNL     C7    8   0.300   0.065  -0.001
    1UNL     C8    9   0.221  -0.045  -0.002
    1UNL     N2   10   0.287  -0.150   0.061
    1UNL     C9   11   0.411  -0.114   0.099
    1UNL    C10   12   0.525  -0.185   0.142
    1UNL    C11   13   0.655  -0.137   0.136
    1UNL    C12   14   0.673  -0.011   0.080
    1UNL    C13   15   0.561   0.066   0.038
    1UNL    C14   16   0.428   0.017   0.050
    1UNL    C15   17   0.077  -0.031  -0.043
    1UNL    C16   18  -0.020  -0.015   0.079
    1UNL    C17   19  -0.166  -0.016   0.032
    1UNL    C18   20  -0.227  -0.145  -0.024
    1UNL    C19   21  -0.206  -0.264   0.067
    1UNL     O1   22  -0.247  -0.388   0.005
    1UNL    C20   23  -0.377  -0.135  -0.048
    1UNL     O2   24  -0.420  -0.211  -0.130
    1UNL     O3   25  -0.456  -0.039   0.018
    1UNL    C21   26  -0.589  -0.046  -0.018
    1UNL     H1   27  -0.429   0.245   0.038
    1UNL     H2   28  -0.341   0.189   0.183
    1UNL     H3   29  -0.337   0.351   0.128
    1UNL     H4   30  -0.213   0.322  -0.074
    1UNL     H5   31  -0.119   0.269   0.061
    1UNL     H6   32  -0.283   0.069  -0.110
    1UNL     H7   33  -0.102   0.025  -0.254
    1UNL     H8   34  -0.084   0.195  -0.230
    1UNL     H9   35   0.088   0.252  -0.018
    1UNL    H10   36   0.108   0.274  -0.200
    1UNL    H11   37   0.333   0.268  -0.051
    1UNL    H12   38   0.322   0.169  -0.194
    1UNL    H13   39   0.252  -0.245   0.068
    1UNL    H14   40   0.513  -0.284   0.177
    1UNL    H15   41   0.736  -0.198   0.175
    1UNL    H16   42   0.778   0.014   0.054
    1UNL    H17   43   0.563   0.159  -0.006
    1UNL    H18   44   0.045  -0.116  -0.108
    1UNL    H19   45  -0.001   0.087   0.107
    1UNL    H20   46   0.008  -0.085   0.161
    1UNL    H21   47  -0.235  -0.004   0.120
    1UNL    H22   48  -0.182  -0.173  -0.130
    1UNL    H23   49  -0.269  -0.253   0.156
    1UNL    H24   50  -0.103  -0.274   0.102
    1UNL    H25   51  -0.338  -0.368  -0.044
    1UNL    H26   52  -0.617   0.039  -0.085
    1UNL    H27   53  -0.614  -0.133  -0.072
    1UNL    H28   54  -0.649  -0.030   0.067
   0.00000   0.00000   0.00000   0.00000   0.00000   0.00000   0.00000   0.00000   0.00000
Generated with MDTraj, t= 76.0
 54
    1UNL     C1    1  -0.325   0.263   0.110
    1UNL     C2    2  -0.202   0.240   0.017
    1UNL     C3    3  -0.210   0.108  -0.060
    1UNL     C4    4  -0.099   0.121  -0.169
    1UNL     N1    5   0.044   0.117  -0.113
    1UNL     C5    6   0.136   0.234  -0.107
    1UNL     C6    7   0.286   0.191  -0.115
    1UNL     C7    8   0.318   0.067  -0.027
    1UNL     C8    9   0.221  -0.023   0.002
    1UNL     N2   10   0.265  -0.134   0.062
    1UNL     C9   11   0.397  -0.117   0.080
    1UNL    C10   12   0.488  -0.194   0.152
    1UNL    C11   13   0.620  -0.155   0.159
    1UNL    C12   14   0.659  -0.038   0.085
    1UNL    C13   15   0.568   0.047   0.021
    1UNL    C14   16   0.439   0.006   0.016
    1UNL    C15   17   0.074  -0.002  -0.038
    1UNL    C16   18  -0.019  -0.009   0.082
    1UNL    C17   19  -0.170  -0.012   0.036
    1UNL    C18   20  -0.217  -0.148  -0.028
    1UNL    C19   21  -0.201  -0.264   0.076
    1UNL     O1   22  -0.237  -0.393   0.044
    1UNL    C20   23  -0.358  -0.145  -0.067
    1UNL     O2   24  -0.398  -0.229  -0.142
    1UNL     O3   25  -0.442  -0.058  -0.003
    1UNL    C21   26  -0.580  -0.075  -0.031
    1UNL     H1   27  -0.416   0.279   0.058
    1UNL     H2   28  -0.330   0.194   0.194
    1UNL     H3   29  -0.304   0.361   0.154
    1UNL     H4   30  -0.184   0.326  -0.047
    1UNL     H5   31  -0.111   0.234   0.087
    1UNL     H6   32  -0.309   0.095  -0.095
    1UNL     H7   33  -0.099   0.032  -0.232
    1UNL     H8   34  -0.105   0.205  -0.236
    1UNL     H9   35   0.111   0.285  -0.016
    1UNL    H10   36   0.105   0.293  -0.198
    1UNL    H11   37   0.344   0.278  -0.087
    1UNL    H12   38   0.325   0.162  -0.216
    1UNL    H13   39   0.217  -0.215   0.096
    1UNL    H14   40   0.452  -0.279   0.211
    1UNL    H15   41   0.689  -0.212   0.218
    1UNL    H16   42   0.757   0.005   0.080
    1UNL    H17   43   0.610   0.128  -0.051
    1UNL    H18   44   0.054  -0.075  -0.119
    1UNL    H19   45  -0.003   0.072   0.149
    1UNL    H20   46   0.003  -0.112   0.121
    1UNL    H21   47  -0.225  -0.003   0.134
    1UNL    H22   48  -0.158  -0.180  -0.126
    1UNL    H23   49  -0.259  -0.234   0.163
    1UNL    H24   50  -0.098  -0.277   0.108
    1UNL    H25   51  -0.292  -0.385  -0.031
    1UNL    H26   52  -0.611  -0.066  -0.140
    1UNL    H27   53  -0.615  -0.173  -0.007
    1UNL    H28   54  -0.639  -0.003   0.022
   0.00000   0.00000   0.00000   0.00000   0.00000   0.00000   0.00000   0.00000   0.00000
Generated with MDTraj, t= 77.0
 54
    1UNL     C1    1  -0.327   0.251   0.128
    1UNL     C2    2  -0.216   0.259   0.030
    1UNL     C3    3  -0.194   0.122  -0.049
    1UNL     C4    4  -0.096   0.130  -0.162
    1UNL     N1    5   0.051   0.102  -0.132
    1UNL     C5    6   0.141   0.215  -0.100
    1UNL     C6    7   0.279   0.170  -0.108
    1UNL     C7    8   0.306   0.040  -0.046
    1UNL     C8    9   0.201  -0.038  -0.000
    1UNL     N2   10   0.253  -0.133   0.091
    1UNL     C9   11   0.393  -0.122   0.080
    1UNL    C10   12   0.498  -0.192   0.157
    1UNL    C11   13   0.629  -0.144   0.142
    1UNL    C12   14   0.653  -0.022   0.079
    1UNL    C13   15   0.550   0.043   0.010
    1UNL    C14   16   0.426  -0.013   0.005
    1UNL    C15   17   0.064  -0.016  -0.042
    1UNL    C16   18  -0.023  -0.003   0.087
    1UNL    C17   19  -0.166   0.005   0.046
    1UNL    C18   20  -0.210  -0.129  -0.013
    1UNL    C19   21  -0.181  -0.251   0.083
    1UNL     O1   22  -0.220  -0.374   0.025
    1UNL    C20   23  -0.354  -0.141  -0.060
    1UNL     O2   24  -0.377  -0.229  -0.139
    1UNL     O3   25  -0.450  -0.062  -0.006
    1UNL    C21   26  -0.576  -0.083  -0.071
    1UNL     H1   27  -0.416   0.206   0.089
    1UNL     H2   28  -0.300   0.208   0.223
    1UNL     H3   29  -0.362   0.353   0.151
    1UNL     H4   30  -0.239   0.331  -0.046
    1UNL     H5   31  -0.116   0.292   0.072
    1UNL     H6   32  -0.291   0.108  -0.085
    1UNL     H7   33  -0.121   0.056  -0.240
    1UNL     H8   34  -0.100   0.223  -0.215
    1UNL     H9   35   0.117   0.234   0.003
    1UNL    H10   36   0.106   0.299  -0.169
    1UNL    H11   37   0.357   0.235  -0.066
    1UNL    H12   38   0.301   0.156  -0.216
    1UNL    H13   39   0.198  -0.198   0.142
    1UNL    H14   40   0.460  -0.270   0.220
    1UNL    H15   41   0.711  -0.176   0.207
    1UNL    H16   42   0.753   0.019   0.075
    1UNL    H17   43   0.570   0.131  -0.041
    1UNL    H18   44   0.043  -0.109  -0.096
    1UNL    H19   45   0.004   0.086   0.140
    1UNL    H20   46  -0.010  -0.090   0.154
    1UNL    H21   47  -0.211   0.025   0.147
    1UNL    H22   48  -0.141  -0.145  -0.104
    1UNL    H23   49  -0.248  -0.244   0.170
    1UNL    H24   50  -0.079  -0.252   0.122
    1UNL    H25   51  -0.293  -0.349  -0.039
    1UNL    H26   52  -0.572  -0.171  -0.146
    1UNL    H27   53  -0.655  -0.117  -0.003
    1UNL    H28   54  -0.618   0.002  -0.127
   0.00000   0.00000   0.00000   0.00000   0.00000   0.00000   0.00000   0.00000   0.00000
Generated with MDTraj, t= 78.0
 54
    1UNL     C1    1  -0.324   0.267   0.130
    1UNL     C2    2  -0.218   0.256   0.020
    1UNL     C3    3  -0.201   0.114  -0.043
    1UNL     C4    4  -0.104   0.101  -0.158
    1UNL     N1    5   0.037   0.084  -0.124
    1UNL     C5    6   0.128   0.209  -0.123
    1UNL     C6    7   0.280   0.172  -0.117
    1UNL     C7    8   0.309   0.056  -0.031
    1UNL     C8    9   0.211  -0.022   0.018
    1UNL     N2   10   0.269  -0.128   0.091
    1UNL     C9   11   0.406  -0.117   0.088
    1UNL    C10   12   0.511  -0.196   0.147
    1UNL    C11   13   0.636  -0.146   0.138
    1UNL    C12   14   0.668  -0.020   0.072
    1UNL    C13   15   0.564   0.048   0.017
    1UNL    C14   16   0.433   0.000   0.015
    1UNL    C15   17   0.062  -0.024  -0.027
    1UNL    C16   18  -0.032  -0.010   0.096
    1UNL    C17   19  -0.182  -0.009   0.056
    1UNL    C18   20  -0.232  -0.144  -0.006
    1UNL    C19   21  -0.220  -0.267   0.089
    1UNL     O1   22  -0.184  -0.377   0.002
    1UNL    C20   23  -0.368  -0.139  -0.066
    1UNL     O2   24  -0.394  -0.224  -0.151
    1UNL     O3   25  -0.444  -0.042  -0.009
    1UNL    C21   26  -0.566  -0.054  -0.068
    1UNL     H1   27  -0.421   0.254   0.081
    1UNL     H2   28  -0.303   0.193   0.206
    1UNL     H3   29  -0.324   0.369   0.170
    1UNL     H4   30  -0.245   0.324  -0.059
    1UNL     H5   31  -0.115   0.292   0.055
    1UNL     H6   32  -0.292   0.098  -0.089
    1UNL     H7   33  -0.136   0.020  -0.225
    1UNL     H8   34  -0.108   0.190  -0.219
    1UNL     H9   35   0.088   0.270  -0.043
    1UNL    H10   36   0.115   0.259  -0.224
    1UNL    H11   37   0.340   0.260  -0.084
    1UNL    H12   38   0.326   0.138  -0.210
    1UNL    H13   39   0.217  -0.202   0.134
    1UNL    H14   40   0.483  -0.276   0.219
    1UNL    H15   41   0.718  -0.197   0.181
    1UNL    H16   42   0.772   0.011   0.068
    1UNL    H17   43   0.589   0.143  -0.026
    1UNL    H18   44   0.042  -0.115  -0.080
    1UNL    H19   45  -0.005   0.072   0.160
    1UNL    H20   46  -0.012  -0.101   0.152
    1UNL    H21   47  -0.238   0.005   0.151
    1UNL    H22   48  -0.166  -0.168  -0.090
    1UNL    H23   49  -0.313  -0.277   0.148
    1UNL    H24   50  -0.141  -0.263   0.163
    1UNL    H25   51  -0.238  -0.374  -0.082
    1UNL    H26   52  -0.598  -0.162  -0.046
    1UNL    H27   53  -0.640   0.017  -0.026
    1UNL    H28   54  -0.562  -0.039  -0.178
   0.00000   0.00000   0.00000   0.00000   0.00000   0.00000   0.00000   0.00000   0.00000
Generated with MDTraj, t= 79.0
 54
    1UNL     C1    1  -0.302   0.282   0.106
    1UNL     C2    2  -0.179   0.243   0.019
    1UNL     C3    3  -0.199   0.108  -0.050
    1UNL     C4    4  -0.097   0.089  -0.168
    1UNL     N1    5   0.042   0.083  -0.113
    1UNL     C5    6   0.121   0.211  -0.096
    1UNL     C6    7   0.272   0.174  -0.105
    1UNL     C7    8   0.301   0.069  -0.006
    1UNL     C8    9   0.214  -0.032   0.025
    1UNL     N2   10   0.275  -0.138   0.083
    1UNL     C9   11   0.403  -0.100   0.109
    1UNL    C10   12   0.514  -0.177   0.158
    1UNL    C11   13   0.638  -0.130   0.130
    1UNL    C12   14   0.663  -0.021   0.042
    1UNL    C13   15   0.561   0.063   0.004
    1UNL    C14   16   0.428   0.026   0.034
    1UNL    C15   17   0.065  -0.029  -0.018
    1UNL    C16   18  -0.032  -0.025   0.096
    1UNL    C17   19  -0.178  -0.019   0.048
    1UNL    C18   20  -0.223  -0.151  -0.019
    1UNL    C19   21  -0.183  -0.277   0.057
    1UNL     O1   22  -0.253  -0.390   0.005
    1UNL    C20   23  -0.372  -0.148  -0.059
    1UNL     O2   24  -0.419  -0.235  -0.135
    1UNL     O3   25  -0.440  -0.039  -0.013
    1UNL    C21   26  -0.563  -0.037  -0.071
    1UNL     H1   27  -0.383   0.309   0.035
    1UNL     H2   28  -0.334   0.196   0.164
    1UNL     H3   29  -0.295   0.374   0.165
    1UNL     H4   30  -0.148   0.322  -0.046
    1UNL     H5   31  -0.091   0.231   0.088
    1UNL     H6   32  -0.289   0.100  -0.098
    1UNL     H7   33  -0.125   0.001  -0.227
    1UNL     H8   34  -0.101   0.174  -0.237
    1UNL     H9   35   0.106   0.257   0.002
    1UNL    H10   36   0.088   0.279  -0.180
    1UNL    H11   37   0.339   0.257  -0.069
    1UNL    H12   38   0.299   0.145  -0.205
    1UNL    H13   39   0.235  -0.225   0.115
    1UNL    H14   40   0.500  -0.261   0.223
    1UNL    H15   41   0.721  -0.191   0.168
    1UNL    H16   42   0.762  -0.005   0.005
    1UNL    H17   43   0.585   0.150  -0.066
    1UNL    H18   44   0.032  -0.107  -0.082
    1UNL    H19   45  -0.005   0.048   0.171
    1UNL    H20   46  -0.013  -0.114   0.154
    1UNL    H21   47  -0.246  -0.013   0.135
    1UNL    H22   48  -0.173  -0.159  -0.110
    1UNL    H23   49  -0.207  -0.276   0.165
    1UNL    H24   50  -0.075  -0.292   0.055
    1UNL    H25   51  -0.330  -0.362  -0.046
    1UNL    H26   52  -0.634  -0.070   0.010
    1UNL    H27   53  -0.579   0.067  -0.100
    1UNL    H28   54  -0.571  -0.104  -0.156
   0.00000   0.00000   0.00000   0.00000   0.00000   0.00000   0.00000   0.00000   0.00000
Generated with MDTraj, t= 80.0
 54
    1UNL     C1    1  -0.315   0.242   0.088
    1UNL     C2    2  -0.185   0.225   0.017
    1UNL     C3    3  -0.190   0.097  -0.059
    1UNL     C4    4  -0.076   0.094  -0.169
    1UNL     N1    5   0.064   0.085  -0.112
    1UNL     C5    6   0.136   0.217  -0.090
    1UNL     C6    7   0.285   0.192  -0.085
    1UNL     C7    8   0.315   0.065  -0.018
    1UNL     C8    9   0.221  -0.041   0.008
    1UNL     N2   10   0.282  -0.142   0.079
    1UNL     C9   11   0.419  -0.101   0.093
    1UNL    C10   12   0.532  -0.168   0.147
    1UNL    C11   13   0.659  -0.114   0.137
    1UNL    C12   14   0.675   0.001   0.074
    1UNL    C13   15   0.570   0.065   0.009
    1UNL    C14   16   0.441   0.016   0.023
    1UNL    C15   17   0.072  -0.036  -0.029
    1UNL    C16   18  -0.033  -0.041   0.088
    1UNL    C17   19  -0.178  -0.024   0.040
    1UNL    C18   20  -0.236  -0.151  -0.025
    1UNL    C19   21  -0.232  -0.270   0.068
    1UNL     O1   22  -0.270  -0.390   0.013
    1UNL    C20   23  -0.386  -0.136  -0.064
    1UNL     O2   24  -0.448  -0.230  -0.115
    1UNL     O3   25  -0.448  -0.020  -0.035
    1UNL    C21   26  -0.591  -0.038  -0.039
    1UNL     H1   27  -0.402   0.226   0.018
    1UNL     H2   28  -0.334   0.174   0.171
    1UNL     H3   29  -0.348   0.340   0.120
    1UNL     H4   30  -0.158   0.309  -0.045
    1UNL     H5   31  -0.103   0.215   0.089
    1UNL     H6   32  -0.281   0.091  -0.106
    1UNL     H7   33  -0.093   0.004  -0.230
    1UNL     H8   34  -0.092   0.183  -0.232
    1UNL     H9   35   0.097   0.239   0.010
    1UNL    H10   36   0.111   0.309  -0.154
    1UNL    H11   37   0.329   0.279  -0.028
    1UNL    H12   38   0.331   0.189  -0.180
    1UNL    H13   39   0.244  -0.235   0.101
    1UNL    H14   40   0.509  -0.265   0.186
    1UNL    H15   41   0.737  -0.157   0.194
    1UNL    H16   42   0.779   0.029   0.051
    1UNL    H17   43   0.589   0.147  -0.047
    1UNL    H18   44   0.053  -0.125  -0.083
    1UNL    H19   45  -0.004   0.044   0.149
    1UNL    H20   46  -0.015  -0.117   0.160
    1UNL    H21   47  -0.247   0.007   0.119
    1UNL    H22   48  -0.177  -0.164  -0.107
    1UNL    H23   49  -0.291  -0.246   0.160
    1UNL    H24   50  -0.132  -0.288   0.106
    1UNL    H25   51  -0.351  -0.368  -0.050
    1UNL    H26   52  -0.613  -0.124   0.024
    1UNL    H27   53  -0.635   0.056  -0.004
    1UNL    H28   54  -0.617  -0.062  -0.137
   0.00000   0.00000   0.00000   0.00000   0.00000   0.00000   0.00000   0.00000   0.00000
Generated with MDTraj, t= 81.0
 54
    1UNL     C1    1  -0.343   0.238   0.087
    1UNL     C2    2  -0.227   0.227  -0.009
    1UNL     C3    3  -0.199   0.092  -0.070
    1UNL     C4    4  -0.089   0.109  -0.182
    1UNL     N1    5   0.058   0.086  -0.132
    1UNL     C5    6   0.138   0.204  -0.088
    1UNL     C6    7   0.288   0.192  -0.089
    1UNL     C7    8   0.328   0.054  -0.035
    1UNL     C8    9   0.234  -0.041  -0.009
    1UNL     N2   10   0.295  -0.145   0.065
    1UNL     C9   11   0.428  -0.110   0.083
    1UNL    C10   12   0.537  -0.188   0.121
    1UNL    C11   13   0.655  -0.121   0.144
    1UNL    C12   14   0.668   0.016   0.119
    1UNL    C13   15   0.569   0.084   0.060
    1UNL    C14   16   0.448   0.020   0.030
    1UNL    C15   17   0.086  -0.041  -0.055
    1UNL    C16   18  -0.011  -0.047   0.063
    1UNL    C17   19  -0.167  -0.027   0.030
    1UNL    C18   20  -0.243  -0.158  -0.016
    1UNL    C19   21  -0.231  -0.280   0.081
    1UNL     O1   22  -0.277  -0.395   0.027
    1UNL    C20   23  -0.388  -0.136  -0.039
    1UNL     O2   24  -0.443  -0.211  -0.119
    1UNL     O3   25  -0.451  -0.032   0.020
    1UNL    C21   26  -0.575  -0.002  -0.047
    1UNL     H1   27  -0.435   0.198   0.039
    1UNL     H2   28  -0.324   0.184   0.182
    1UNL     H3   29  -0.377   0.342   0.096
    1UNL     H4   30  -0.243   0.296  -0.091
    1UNL     H5   31  -0.144   0.258   0.052
    1UNL     H6   32  -0.288   0.065  -0.115
    1UNL     H7   33  -0.113   0.034  -0.260
    1UNL     H8   34  -0.097   0.210  -0.227
    1UNL     H9   35   0.105   0.235   0.012
    1UNL    H10   36   0.107   0.290  -0.154
    1UNL    H11   37   0.343   0.271  -0.030
    1UNL    H12   38   0.320   0.201  -0.189
    1UNL    H13   39   0.262  -0.241   0.090
    1UNL    H14   40   0.535  -0.296   0.139
    1UNL    H15   41   0.742  -0.178   0.189
    1UNL    H16   42   0.757   0.069   0.139
    1UNL    H17   43   0.603   0.180   0.014
    1UNL    H18   44   0.061  -0.120  -0.123
    1UNL    H19   45   0.024   0.030   0.129
    1UNL    H20   46   0.001  -0.130   0.129
    1UNL    H21   47  -0.219   0.012   0.118
    1UNL    H22   48  -0.206  -0.183  -0.109
    1UNL    H23   49  -0.283  -0.266   0.179
    1UNL    H24   50  -0.128  -0.295   0.109
    1UNL    H25   51  -0.358  -0.373  -0.015
    1UNL    H26   52  -0.638  -0.091  -0.045
    1UNL    H27   53  -0.611   0.087   0.005
    1UNL    H28   54  -0.548   0.021  -0.145
   0.00000   0.00000   0.00000   0.00000   0.00000   0.00000   0.00000   0.00000   0.00000
Generated with MDTraj, t= 82.0
 54
    1UNL     C1    1  -0.318   0.264   0.076
    1UNL     C2    2  -0.188   0.228   0.002
    1UNL     C3    3  -0.180   0.089  -0.072
    1UNL     C4    4  -0.088   0.086  -0.192
    1UNL     N1    5   0.054   0.080  -0.149
    1UNL     C5    6   0.110   0.214  -0.103
    1UNL     C6    7   0.259   0.198  -0.055
    1UNL     C7    8   0.299   0.058  -0.024
    1UNL     C8    9   0.218  -0.053  -0.031
    1UNL     N2   10   0.280  -0.157   0.029
    1UNL     C9   11   0.409  -0.120   0.064
    1UNL    C10   12   0.513  -0.191   0.123
    1UNL    C11   13   0.627  -0.123   0.157
    1UNL    C12   14   0.642   0.017   0.129
    1UNL    C13   15   0.544   0.086   0.067
    1UNL    C14   16   0.424   0.015   0.029
    1UNL    C15   17   0.077  -0.045  -0.063
    1UNL    C16   18  -0.003  -0.036   0.066
    1UNL    C17   19  -0.154  -0.026   0.028
    1UNL    C18   20  -0.213  -0.157  -0.026
    1UNL    C19   21  -0.202  -0.268   0.084
    1UNL     O1   22  -0.290  -0.382   0.057
    1UNL    C20   23  -0.360  -0.130  -0.051
    1UNL     O2   24  -0.407  -0.200  -0.139
    1UNL     O3   25  -0.422  -0.030   0.020
    1UNL    C21   26  -0.564  -0.041   0.000
    1UNL     H1   27  -0.389   0.315   0.011
    1UNL     H2   28  -0.366   0.171   0.115
    1UNL     H3   29  -0.310   0.345   0.151
    1UNL     H4   30  -0.171   0.307  -0.071
    1UNL     H5   31  -0.106   0.222   0.069
    1UNL     H6   32  -0.275   0.062  -0.104
    1UNL     H7   33  -0.111   0.016  -0.275
    1UNL     H8   34  -0.104   0.188  -0.233
    1UNL     H9   35   0.052   0.267  -0.024
    1UNL    H10   36   0.103   0.285  -0.189
    1UNL    H11   37   0.279   0.267   0.033
    1UNL    H12   38   0.324   0.237  -0.129
    1UNL    H13   39   0.238  -0.248   0.057
    1UNL    H14   40   0.504  -0.288   0.165
    1UNL    H15   41   0.700  -0.167   0.215
    1UNL    H16   42   0.742   0.054   0.163
    1UNL    H17   43   0.555   0.191   0.039
    1UNL    H18   44   0.043  -0.124  -0.129
    1UNL    H19   45   0.018   0.055   0.119
    1UNL    H20   46   0.018  -0.120   0.126
    1UNL    H21   47  -0.208  -0.006   0.120
    1UNL    H22   48  -0.172  -0.201  -0.116
    1UNL    H23   49  -0.231  -0.222   0.181
    1UNL    H24   50  -0.103  -0.304   0.109
    1UNL    H25   51  -0.340  -0.358  -0.030
    1UNL    H26   52  -0.581  -0.145  -0.026
    1UNL    H27   53  -0.616  -0.003   0.091
    1UNL    H28   54  -0.575   0.022  -0.085
   0.00000   0.00000   0.00000   0.00000   0.00000   0.00000   0.00000   0.00000   0.00000
Generated with MDTraj, t= 83.0
 54
    1UNL     C1    1  -0.311   0.296   0.063
    1UNL     C2    2  -0.179   0.243   0.006
    1UNL     C3    3  -0.184   0.101  -0.072
    1UNL     C4    4  -0.082   0.105  -0.185
    1UNL     N1    5   0.059   0.089  -0.146
    1UNL     C5    6   0.127   0.221  -0.117
    1UNL     C6    7   0.282   0.192  -0.095
    1UNL     C7    8   0.308   0.065  -0.019
    1UNL     C8    9   0.220  -0.046  -0.031
    1UNL     N2   10   0.297  -0.161  -0.002
    1UNL     C9   11   0.419  -0.129   0.059
    1UNL    C10   12   0.515  -0.202   0.125
    1UNL    C11   13   0.624  -0.134   0.167
    1UNL    C12   14   0.636   0.006   0.148
    1UNL    C13   15   0.544   0.087   0.088
    1UNL    C14   16   0.428   0.014   0.040
    1UNL    C15   17   0.078  -0.029  -0.064
    1UNL    C16   18  -0.009  -0.024   0.061
    1UNL    C17   19  -0.165  -0.014   0.038
    1UNL    C18   20  -0.228  -0.145  -0.011
    1UNL    C19   21  -0.208  -0.256   0.095
    1UNL     O1   22  -0.263  -0.382   0.038
    1UNL    C20   23  -0.375  -0.136  -0.046
    1UNL     O2   24  -0.418  -0.203  -0.138
    1UNL     O3   25  -0.459  -0.073   0.042
    1UNL    C21   26  -0.593  -0.094   0.004
    1UNL     H1   27  -0.390   0.293  -0.012
    1UNL     H2   28  -0.343   0.230   0.148
    1UNL     H3   29  -0.308   0.406   0.082
    1UNL     H4   30  -0.134   0.308  -0.070
    1UNL     H5   31  -0.108   0.234   0.082
    1UNL     H6   32  -0.278   0.082  -0.115
    1UNL     H7   33  -0.104   0.033  -0.265
    1UNL     H8   34  -0.086   0.202  -0.240
    1UNL     H9   35   0.077   0.267  -0.025
    1UNL    H10   36   0.104   0.292  -0.202
    1UNL    H11   37   0.334   0.281  -0.053
    1UNL    H12   38   0.326   0.183  -0.192
    1UNL    H13   39   0.246  -0.252   0.005
    1UNL    H14   40   0.484  -0.304   0.148
    1UNL    H15   41   0.697  -0.188   0.234
    1UNL    H16   42   0.733   0.043   0.161
    1UNL    H17   43   0.542   0.192   0.080
    1UNL    H18   44   0.061  -0.119  -0.124
    1UNL    H19   45   0.032   0.056   0.119
    1UNL    H20   46   0.004  -0.120   0.106
    1UNL    H21   47  -0.203   0.015   0.136
    1UNL    H22   48  -0.178  -0.183  -0.106
    1UNL    H23   49  -0.250  -0.227   0.195
    1UNL    H24   50  -0.105  -0.270   0.121
    1UNL    H25   51  -0.317  -0.358  -0.037
    1UNL    H26   52  -0.619  -0.196   0.036
    1UNL    H27   53  -0.655  -0.005   0.044
    1UNL    H28   54  -0.581  -0.089  -0.105
   0.00000   0.00000   0.00000   0.00000   0.00000   0.00000   0.00000   0.00000   0.00000
Generated with MDTraj, t= 84.0
 54
    1UNL     C1    1  -0.340   0.265   0.073
    1UNL     C2    2  -0.208   0.248  -0.006
    1UNL     C3    3  -0.190   0.114  -0.081
    1UNL     C4    4  -0.085   0.112  -0.190
    1UNL     N1    5   0.056   0.089  -0.144
    1UNL     C5    6   0.133   0.209  -0.103
    1UNL     C6    7   0.281   0.184  -0.094
    1UNL     C7    8   0.308   0.052  -0.024
    1UNL     C8    9   0.219  -0.045  -0.010
    1UNL     N2   10   0.275  -0.160   0.034
    1UNL     C9   11   0.409  -0.126   0.074
    1UNL    C10   12   0.503  -0.192   0.147
    1UNL    C11   13   0.625  -0.132   0.175
    1UNL    C12   14   0.657  -0.005   0.122
    1UNL    C13   15   0.558   0.063   0.058
    1UNL    C14   16   0.435   0.003   0.023
    1UNL    C15   17   0.077  -0.027  -0.052
    1UNL    C16   18  -0.018  -0.010   0.069
    1UNL    C17   19  -0.165   0.001   0.027
    1UNL    C18   20  -0.220  -0.137  -0.019
    1UNL    C19   21  -0.193  -0.251   0.078
    1UNL     O1   22  -0.233  -0.369   0.008
    1UNL    C20   23  -0.371  -0.137  -0.045
    1UNL     O2   24  -0.419  -0.205  -0.131
    1UNL     O3   25  -0.445  -0.066   0.038
    1UNL    C21   26  -0.582  -0.091   0.018
    1UNL     H1   27  -0.424   0.258   0.003
    1UNL     H2   28  -0.349   0.187   0.151
    1UNL     H3   29  -0.341   0.375   0.102
    1UNL     H4   30  -0.198   0.330  -0.078
    1UNL     H5   31  -0.123   0.252   0.055
    1UNL     H6   32  -0.283   0.095  -0.128
    1UNL     H7   33  -0.100   0.021  -0.252
    1UNL     H8   34  -0.093   0.194  -0.265
    1UNL     H9   35   0.096   0.251  -0.004
    1UNL    H10   36   0.106   0.285  -0.180
    1UNL    H11   37   0.326   0.270  -0.041
    1UNL    H12   38   0.322   0.198  -0.194
    1UNL    H13   39   0.229  -0.252   0.049
    1UNL    H14   40   0.479  -0.283   0.199
    1UNL    H15   41   0.693  -0.194   0.227
    1UNL    H16   42   0.754   0.050   0.133
    1UNL    H17   43   0.570   0.168   0.017
    1UNL    H18   44   0.047  -0.120  -0.104
    1UNL    H19   45   0.009   0.082   0.115
    1UNL    H20   46   0.003  -0.090   0.139
    1UNL    H21   47  -0.218   0.044   0.110
    1UNL    H22   48  -0.171  -0.159  -0.123
    1UNL    H23   49  -0.259  -0.249   0.168
    1UNL    H24   50  -0.095  -0.257   0.122
    1UNL    H25   51  -0.322  -0.351  -0.041
    1UNL    H26   52  -0.597  -0.199   0.021
    1UNL    H27   53  -0.641  -0.030   0.098
    1UNL    H28   54  -0.601  -0.053  -0.085
   0.00000   0.00000   0.00000   0.00000   0.00000   0.00000   0.00000   0.00000   0.00000
Generated with MDTraj, t= 85.0
 54
    1UNL     C1    1  -0.345   0.239   0.074
    1UNL     C2    2  -0.229   0.240  -0.017
    1UNL     C3    3  -0.201   0.103  -0.080
    1UNL     C4    4  -0.087   0.106  -0.186
    1UNL     N1    5   0.055   0.095  -0.136
    1UNL     C5    6   0.143   0.214  -0.101
    1UNL     C6    7   0.287   0.190  -0.092
    1UNL     C7    8   0.311   0.057  -0.020
    1UNL     C8    9   0.210  -0.031   0.013
    1UNL     N2   10   0.259  -0.118   0.104
    1UNL     C9   11   0.394  -0.107   0.106
    1UNL    C10   12   0.491  -0.184   0.164
    1UNL    C11   13   0.630  -0.151   0.153
    1UNL    C12   14   0.657  -0.034   0.081
    1UNL    C13   15   0.560   0.045   0.020
    1UNL    C14   16   0.432   0.002   0.027
    1UNL    C15   17   0.073  -0.020  -0.041
    1UNL    C16   18  -0.035  -0.005   0.077
    1UNL    C17   19  -0.179  -0.009   0.024
    1UNL    C18   20  -0.218  -0.146  -0.038
    1UNL    C19   21  -0.171  -0.267   0.033
    1UNL     O1   22  -0.221  -0.386  -0.013
    1UNL    C20   23  -0.364  -0.140  -0.041
    1UNL     O2   24  -0.416  -0.216  -0.117
    1UNL     O3   25  -0.420  -0.043   0.038
    1UNL    C21   26  -0.561  -0.052   0.021
    1UNL     H1   27  -0.438   0.210   0.022
    1UNL     H2   28  -0.339   0.171   0.160
    1UNL     H3   29  -0.369   0.347   0.099
    1UNL     H4   30  -0.233   0.313  -0.102
    1UNL     H5   31  -0.142   0.268   0.033
    1UNL     H6   32  -0.288   0.076  -0.136
    1UNL     H7   33  -0.099   0.022  -0.256
    1UNL     H8   34  -0.091   0.194  -0.253
    1UNL     H9   35   0.099   0.258  -0.006
    1UNL    H10   36   0.127   0.299  -0.173
    1UNL    H11   37   0.334   0.276  -0.041
    1UNL    H12   38   0.343   0.193  -0.189
    1UNL    H13   39   0.201  -0.188   0.152
    1UNL    H14   40   0.459  -0.275   0.215
    1UNL    H15   41   0.715  -0.197   0.205
    1UNL    H16   42   0.757  -0.004   0.071
    1UNL    H17   43   0.584   0.128  -0.035
    1UNL    H18   44   0.029  -0.103  -0.099
    1UNL    H19   45  -0.008   0.085   0.125
    1UNL    H20   46  -0.021  -0.084   0.148
    1UNL    H21   47  -0.249   0.014   0.102
    1UNL    H22   48  -0.189  -0.153  -0.154
    1UNL    H23   49  -0.194  -0.261   0.141
    1UNL    H24   50  -0.066  -0.282   0.022
    1UNL    H25   51  -0.294  -0.372  -0.076
    1UNL    H26   52  -0.588  -0.154  -0.001
    1UNL    H27   53  -0.620  -0.014   0.112
    1UNL    H28   54  -0.578   0.003  -0.072
   0.00000   0.00000   0.00000   0.00000   0.00000   0.00000   0.00000   0.00000   0.00000
Generated with MDTraj, t= 86.0
 54
    1UNL     C1    1  -0.344   0.274   0.068
    1UNL     C2    2  -0.209   0.249  -0.002
    1UNL     C3    3  -0.199   0.110  -0.073
    1UNL     C4    4  -0.082   0.105  -0.177
    1UNL     N1    5   0.051   0.114  -0.105
    1UNL     C5    6   0.161   0.216  -0.120
    1UNL     C6    7   0.311   0.181  -0.109
    1UNL     C7    8   0.322   0.058  -0.021
    1UNL     C8    9   0.216  -0.019   0.025
    1UNL     N2   10   0.261  -0.107   0.119
    1UNL     C9   11   0.403  -0.095   0.119
    1UNL    C10   12   0.507  -0.182   0.166
    1UNL    C11   13   0.636  -0.156   0.138
    1UNL    C12   14   0.675  -0.039   0.065
    1UNL    C13   15   0.578   0.045   0.011
    1UNL    C14   16   0.442   0.009   0.039
    1UNL    C15   17   0.075  -0.001  -0.024
    1UNL    C16   18  -0.035  -0.021   0.079
    1UNL    C17   19  -0.178  -0.017   0.018
    1UNL    C18   20  -0.237  -0.147  -0.033
    1UNL    C19   21  -0.184  -0.275   0.033
    1UNL     O1   22  -0.204  -0.391  -0.043
    1UNL    C20   23  -0.388  -0.148  -0.036
    1UNL     O2   24  -0.437  -0.241  -0.094
    1UNL     O3   25  -0.467  -0.049   0.022
    1UNL    C21   26  -0.600  -0.072  -0.002
    1UNL     H1   27  -0.430   0.251  -0.001
    1UNL     H2   28  -0.365   0.206   0.151
    1UNL     H3   29  -0.368   0.382   0.089
    1UNL     H4   30  -0.189   0.326  -0.078
    1UNL     H5   31  -0.128   0.260   0.066
    1UNL     H6   32  -0.290   0.086  -0.123
    1UNL     H7   33  -0.081   0.024  -0.250
    1UNL     H8   34  -0.093   0.198  -0.236
    1UNL     H9   35   0.146   0.296  -0.043
    1UNL    H10   36   0.133   0.262  -0.218
    1UNL    H11   37   0.382   0.255  -0.072
    1UNL    H12   38   0.347   0.148  -0.211
    1UNL    H13   39   0.199  -0.179   0.159
    1UNL    H14   40   0.477  -0.274   0.209
    1UNL    H15   41   0.707  -0.223   0.185
    1UNL    H16   42   0.780  -0.021   0.038
    1UNL    H17   43   0.595   0.127  -0.063
    1UNL    H18   44   0.056  -0.092  -0.090
    1UNL    H19   45  -0.026   0.058   0.148
    1UNL    H20   46  -0.010  -0.111   0.133
    1UNL    H21   47  -0.244   0.005   0.101
    1UNL    H22   48  -0.202  -0.160  -0.145
    1UNL    H23   49  -0.240  -0.294   0.127
    1UNL    H24   50  -0.080  -0.270   0.053
    1UNL    H25   51  -0.302  -0.403  -0.054
    1UNL    H26   52  -0.635  -0.151   0.056
    1UNL    H27   53  -0.653   0.022   0.028
    1UNL    H28   54  -0.609  -0.097  -0.107
   0.00000   0.00000   0.00000   0.00000   0.00000   0.00000   0.00000   0.00000   0.00000
Generated with MDTraj, t= 87.0
 54
    1UNL     C1    1  -0.350   0.284   0.079
    1UNL     C2    2  -0.205   0.246   0.025
    1UNL     C3    3  -0.200   0.118  -0.057
    1UNL     C4    4  -0.090   0.105  -0.168
    1UNL     N1    5   0.049   0.094  -0.117
    1UNL     C5    6   0.139   0.212  -0.117
    1UNL     C6    7   0.288   0.156  -0.128
    1UNL     C7    8   0.306   0.048  -0.025
    1UNL     C8    9   0.209  -0.031   0.027
    1UNL     N2   10   0.273  -0.129   0.105
    1UNL     C9   11   0.407  -0.108   0.111
    1UNL    C10   12   0.514  -0.174   0.171
    1UNL    C11   13   0.641  -0.135   0.158
    1UNL    C12   14   0.669  -0.026   0.069
    1UNL    C13   15   0.568   0.039   0.005
    1UNL    C14   16   0.435   0.002   0.025
    1UNL    C15   17   0.068  -0.020  -0.018
    1UNL    C16   18  -0.043  -0.001   0.093
    1UNL    C17   19  -0.190  -0.005   0.037
    1UNL    C18   20  -0.225  -0.133  -0.039
    1UNL    C19   21  -0.174  -0.262   0.032
    1UNL     O1   22  -0.203  -0.391  -0.032
    1UNL    C20   23  -0.376  -0.143  -0.054
    1UNL     O2   24  -0.423  -0.246  -0.095
    1UNL     O3   25  -0.451  -0.032  -0.017
    1UNL    C21   26  -0.582  -0.071  -0.004
    1UNL     H1   27  -0.422   0.306  -0.004
    1UNL     H2   28  -0.387   0.192   0.126
    1UNL     H3   29  -0.354   0.378   0.140
    1UNL     H4   30  -0.170   0.327  -0.040
    1UNL     H5   31  -0.142   0.244   0.112
    1UNL     H6   32  -0.295   0.102  -0.105
    1UNL     H7   33  -0.106   0.027  -0.241
    1UNL     H8   34  -0.097   0.196  -0.229
    1UNL     H9   35   0.115   0.270  -0.025
    1UNL    H10   36   0.137   0.277  -0.208
    1UNL    H11   37   0.358   0.234  -0.102
    1UNL    H12   38   0.318   0.104  -0.226
    1UNL    H13   39   0.234  -0.218   0.130
    1UNL    H14   40   0.476  -0.247   0.241
    1UNL    H15   41   0.715  -0.199   0.197
    1UNL    H16   42   0.772   0.003   0.058
    1UNL    H17   43   0.590   0.111  -0.073
    1UNL    H18   44   0.059  -0.119  -0.075
    1UNL    H19   45  -0.011   0.079   0.152
    1UNL    H20   46  -0.034  -0.091   0.153
    1UNL    H21   47  -0.261   0.009   0.117
    1UNL    H22   48  -0.172  -0.139  -0.138
    1UNL    H23   49  -0.219  -0.260   0.133
    1UNL    H24   50  -0.067  -0.261   0.035
    1UNL    H25   51  -0.276  -0.367  -0.102
    1UNL    H26   52  -0.583  -0.143   0.071
    1UNL    H27   53  -0.649   0.013   0.024
    1UNL    H28   54  -0.615  -0.121  -0.093
   0.00000   0.00000   0.00000   0.00000   0.00000   0.00000   0.00000   0.00000   0.00000
Generated with MDTraj, t= 88.0
 54
    1UNL     C1    1  -0.329   0.257   0.103
    1UNL     C2    2  -0.206   0.242   0.022
    1UNL     C3    3  -0.196   0.113  -0.058
    1UNL     C4    4  -0.091   0.104  -0.172
    1UNL     N1    5   0.046   0.095  -0.128
    1UNL     C5    6   0.127   0.211  -0.109
    1UNL     C6    7   0.279   0.173  -0.126
    1UNL     C7    8   0.304   0.049  -0.048
    1UNL     C8    9   0.208  -0.043  -0.012
    1UNL     N2   10   0.261  -0.144   0.064
    1UNL     C9   11   0.391  -0.114   0.093
    1UNL    C10   12   0.489  -0.172   0.183
    1UNL    C11   13   0.615  -0.122   0.176
    1UNL    C12   14   0.649  -0.016   0.090
    1UNL    C13   15   0.554   0.045   0.008
    1UNL    C14   16   0.424   0.002   0.019
    1UNL    C15   17   0.066  -0.030  -0.039
    1UNL    C16   18  -0.019  -0.006   0.087
    1UNL    C17   19  -0.169  -0.009   0.047
    1UNL    C18   20  -0.214  -0.142  -0.012
    1UNL    C19   21  -0.176  -0.273   0.064
    1UNL     O1   22  -0.199  -0.391  -0.019
    1UNL    C20   23  -0.358  -0.139  -0.038
    1UNL     O2   24  -0.409  -0.228  -0.103
    1UNL     O3   25  -0.442  -0.044   0.019
    1UNL    C21   26  -0.559  -0.029  -0.056
    1UNL     H1   27  -0.426   0.226   0.053
    1UNL     H2   28  -0.321   0.187   0.189
    1UNL     H3   29  -0.352   0.361   0.134
    1UNL     H4   30  -0.206   0.323  -0.052
    1UNL     H5   31  -0.121   0.254   0.090
    1UNL     H6   32  -0.292   0.092  -0.102
    1UNL     H7   33  -0.107   0.014  -0.229
    1UNL     H8   34  -0.101   0.185  -0.245
    1UNL     H9   35   0.111   0.265  -0.015
    1UNL    H10   36   0.102   0.275  -0.198
    1UNL    H11   37   0.353   0.247  -0.102
    1UNL    H12   38   0.286   0.143  -0.238
    1UNL    H13   39   0.215  -0.214   0.119
    1UNL    H14   40   0.462  -0.246   0.257
    1UNL    H15   41   0.701  -0.156   0.244
    1UNL    H16   42   0.754   0.001   0.080
    1UNL    H17   43   0.575   0.129  -0.048
    1UNL    H18   44   0.042  -0.120  -0.104
    1UNL    H19   45   0.012   0.091   0.119
    1UNL    H20   46   0.007  -0.074   0.167
    1UNL    H21   47  -0.227   0.010   0.136
    1UNL    H22   48  -0.168  -0.156  -0.106
    1UNL    H23   49  -0.242  -0.290   0.152
    1UNL    H24   50  -0.073  -0.279   0.093
    1UNL    H25   51  -0.272  -0.374  -0.077
    1UNL    H26   52  -0.618  -0.114  -0.040
    1UNL    H27   53  -0.615   0.064  -0.029
    1UNL    H28   54  -0.543  -0.029  -0.164
   0.00000   0.00000   0.00000   0.00000   0.00000   0.00000   0.00000   0.00000   0.00000
Generated with MDTraj, t= 89.0
 54
    1UNL     C1    1  -0.298   0.248   0.145
    1UNL     C2    2  -0.202   0.243   0.027
    1UNL     C3    3  -0.194   0.113  -0.056
    1UNL     C4    4  -0.100   0.115  -0.182
    1UNL     N1    5   0.045   0.087  -0.149
    1UNL     C5    6   0.131   0.210  -0.140
    1UNL     C6    7   0.278   0.175  -0.116
    1UNL     C7    8   0.317   0.045  -0.047
    1UNL     C8    9   0.219  -0.047  -0.019
    1UNL     N2   10   0.272  -0.154   0.053
    1UNL     C9   11   0.404  -0.116   0.075
    1UNL    C10   12   0.500  -0.185   0.153
    1UNL    C11   13   0.619  -0.122   0.175
    1UNL    C12   14   0.645   0.005   0.125
    1UNL    C13   15   0.555   0.080   0.049
    1UNL    C14   16   0.434   0.011   0.020
    1UNL    C15   17   0.071  -0.030  -0.056
    1UNL    C16   18  -0.011  -0.019   0.072
    1UNL    C17   19  -0.161  -0.014   0.037
    1UNL    C18   20  -0.220  -0.149  -0.021
    1UNL    C19   21  -0.208  -0.261   0.078
    1UNL     O1   22  -0.245  -0.392   0.040
    1UNL    C20   23  -0.366  -0.140  -0.059
    1UNL     O2   24  -0.409  -0.229  -0.132
    1UNL     O3   25  -0.437  -0.039  -0.003
    1UNL    C21   26  -0.573  -0.044  -0.040
    1UNL     H1   27  -0.400   0.200   0.143
    1UNL     H2   28  -0.248   0.197   0.232
    1UNL     H3   29  -0.327   0.350   0.176
    1UNL     H4   30  -0.238   0.320  -0.041
    1UNL     H5   31  -0.097   0.262   0.056
    1UNL     H6   32  -0.297   0.089  -0.088
    1UNL     H7   33  -0.123   0.040  -0.254
    1UNL     H8   34  -0.109   0.211  -0.233
    1UNL     H9   35   0.099   0.270  -0.055
    1UNL    H10   36   0.123   0.276  -0.228
    1UNL    H11   37   0.324   0.252  -0.057
    1UNL    H12   38   0.335   0.168  -0.215
    1UNL    H13   39   0.216  -0.225   0.097
    1UNL    H14   40   0.480  -0.280   0.197
    1UNL    H15   41   0.689  -0.165   0.232
    1UNL    H16   42   0.736   0.066   0.144
    1UNL    H17   43   0.592   0.186   0.026
    1UNL    H18   44   0.038  -0.130  -0.102
    1UNL    H19   45   0.015   0.074   0.117
    1UNL    H20   46   0.016  -0.097   0.139
    1UNL    H21   47  -0.221   0.006   0.125
    1UNL    H22   48  -0.176  -0.178  -0.108
    1UNL    H23   49  -0.279  -0.244   0.163
    1UNL    H24   50  -0.111  -0.281   0.120
    1UNL    H25   51  -0.345  -0.400   0.013
    1UNL    H26   52  -0.593  -0.146  -0.067
    1UNL    H27   53  -0.650  -0.002   0.033
    1UNL    H28   54  -0.600   0.007  -0.138
   0.00000   0.00000   0.00000   0.00000   0.00000   0.00000   0.00000   0.00000   0.00000
Generated with MDTraj, t= 90.0
 54
    1UNL     C1    1  -0.266   0.254   0.132
    1UNL     C2    2  -0.167   0.235   0.012
    1UNL     C3    3  -0.186   0.096  -0.058
    1UNL     C4    4  -0.090   0.095  -0.177
    1UNL     N1    5   0.058   0.081  -0.149
    1UNL     C5    6   0.129   0.213  -0.110
    1UNL     C6    7   0.279   0.196  -0.104
    1UNL     C7    8   0.310   0.065  -0.036
    1UNL     C8    9   0.224  -0.042  -0.025
    1UNL     N2   10   0.280  -0.144   0.045
    1UNL     C9   11   0.413  -0.115   0.072
    1UNL    C10   12   0.519  -0.184   0.135
    1UNL    C11   13   0.637  -0.112   0.155
    1UNL    C12   14   0.650   0.024   0.131
    1UNL    C13   15   0.541   0.084   0.072
    1UNL    C14   16   0.432   0.019   0.028
    1UNL    C15   17   0.074  -0.042  -0.073
    1UNL    C16   18  -0.011  -0.044   0.058
    1UNL    C17   19  -0.162  -0.028   0.029
    1UNL    C18   20  -0.232  -0.162  -0.018
    1UNL    C19   21  -0.230  -0.262   0.092
    1UNL     O1   22  -0.309  -0.373   0.068
    1UNL    C20   23  -0.372  -0.136  -0.062
    1UNL     O2   24  -0.411  -0.204  -0.155
    1UNL     O3   25  -0.454  -0.050   0.002
    1UNL    C21   26  -0.581  -0.070  -0.034
    1UNL     H1   27  -0.374   0.248   0.108
    1UNL     H2   28  -0.247   0.173   0.209
    1UNL     H3   29  -0.254   0.354   0.176
    1UNL     H4   30  -0.183   0.300  -0.074
    1UNL     H5   31  -0.068   0.252   0.065
    1UNL     H6   32  -0.293   0.083  -0.095
    1UNL     H7   33  -0.117   0.024  -0.253
    1UNL     H8   34  -0.093   0.190  -0.230
    1UNL     H9   35   0.104   0.234  -0.006
    1UNL    H10   36   0.099   0.300  -0.169
    1UNL    H11   37   0.313   0.270  -0.032
    1UNL    H12   38   0.337   0.214  -0.202
    1UNL    H13   39   0.233  -0.232   0.054
    1UNL    H14   40   0.518  -0.290   0.157
    1UNL    H15   41   0.731  -0.162   0.196
    1UNL    H16   42   0.732   0.072   0.177
    1UNL    H17   43   0.550   0.185   0.053
    1UNL    H18   44   0.041  -0.132  -0.133
    1UNL    H19   45   0.031   0.035   0.117
    1UNL    H20   46   0.003  -0.131   0.119
    1UNL    H21   47  -0.210  -0.003   0.124
    1UNL    H22   48  -0.187  -0.194  -0.105
    1UNL    H23   49  -0.280  -0.222   0.186
    1UNL    H24   50  -0.131  -0.295   0.115
    1UNL    H25   51  -0.371  -0.356   0.001
    1UNL    H26   52  -0.625  -0.155   0.017
    1UNL    H27   53  -0.642   0.025  -0.024
    1UNL    H28   54  -0.596  -0.098  -0.145
   0.00000   0.00000   0.00000   0.00000   0.00000   0.00000   0.00000   0.00000   0.00000
Generated with MDTraj, t= 91.0
 54
    1UNL     C1    1  -0.327   0.249   0.080
    1UNL     C2    2  -0.189   0.221   0.025
    1UNL     C3    3  -0.185   0.087  -0.054
    1UNL     C4    4  -0.090   0.090  -0.174
    1UNL     N1    5   0.054   0.076  -0.136
    1UNL     C5    6   0.131   0.203  -0.098
    1UNL     C6    7   0.285   0.196  -0.086
    1UNL     C7    8   0.316   0.059  -0.035
    1UNL     C8    9   0.233  -0.051  -0.018
    1UNL     N2   10   0.301  -0.161   0.036
    1UNL     C9   11   0.426  -0.113   0.067
    1UNL    C10   12   0.527  -0.177   0.144
    1UNL    C11   13   0.641  -0.100   0.158
    1UNL    C12   14   0.663   0.031   0.109
    1UNL    C13   15   0.565   0.092   0.038
    1UNL    C14   16   0.438   0.024   0.022
    1UNL    C15   17   0.078  -0.041  -0.048
    1UNL    C16   18  -0.004  -0.049   0.080
    1UNL    C17   19  -0.156  -0.030   0.044
    1UNL    C18   20  -0.229  -0.161  -0.007
    1UNL    C19   21  -0.250  -0.274   0.100
    1UNL     O1   22  -0.325  -0.382   0.039
    1UNL    C20   23  -0.373  -0.132  -0.062
    1UNL     O2   24  -0.423  -0.183  -0.161
    1UNL     O3   25  -0.448  -0.046   0.015
    1UNL    C21   26  -0.571  -0.036  -0.035
    1UNL     H1   27  -0.407   0.271   0.007
    1UNL     H2   28  -0.356   0.161   0.142
    1UNL     H3   29  -0.320   0.340   0.142
    1UNL     H4   30  -0.169   0.305  -0.042
    1UNL     H5   31  -0.102   0.212   0.100
    1UNL     H6   32  -0.294   0.068  -0.088
    1UNL     H7   33  -0.106   0.006  -0.239
    1UNL     H8   34  -0.105   0.179  -0.234
    1UNL     H9   35   0.086   0.235  -0.005
    1UNL    H10   36   0.098   0.281  -0.165
    1UNL    H11   37   0.338   0.272  -0.026
    1UNL    H12   38   0.336   0.202  -0.187
    1UNL    H13   39   0.260  -0.247   0.069
    1UNL    H14   40   0.515  -0.282   0.165
    1UNL    H15   41   0.718  -0.143   0.217
    1UNL    H16   42   0.762   0.077   0.122
    1UNL    H17   43   0.572   0.195   0.008
    1UNL    H18   44   0.046  -0.119  -0.121
    1UNL    H19   45   0.033   0.014   0.160
    1UNL    H20   46   0.021  -0.146   0.119
    1UNL    H21   47  -0.198   0.002   0.140
    1UNL    H22   48  -0.161  -0.194  -0.082
    1UNL    H23   49  -0.297  -0.232   0.194
    1UNL    H24   50  -0.156  -0.320   0.124
    1UNL    H25   51  -0.370  -0.347  -0.050
    1UNL    H26   52  -0.630  -0.123  -0.014
    1UNL    H27   53  -0.625   0.059  -0.013
    1UNL    H28   54  -0.567  -0.033  -0.149
   0.00000   0.00000   0.00000   0.00000   0.00000   0.00000   0.00000   0.00000   0.00000
Generated with MDTraj, t= 92.0
 54
    1UNL     C1    1  -0.356   0.256   0.053
    1UNL     C2    2  -0.214   0.227   0.014
    1UNL     C3    3  -0.190   0.088  -0.050
    1UNL     C4    4  -0.087   0.091  -0.156
    1UNL     N1    5   0.055   0.076  -0.116
    1UNL     C5    6   0.123   0.203  -0.082
    1UNL     C6    7   0.275   0.173  -0.094
    1UNL     C7    8   0.309   0.061  -0.016
    1UNL     C8    9   0.224  -0.050   0.003
    1UNL     N2   10   0.291  -0.154   0.061
    1UNL     C9   11   0.427  -0.106   0.085
    1UNL    C10   12   0.540  -0.172   0.144
    1UNL    C11   13   0.660  -0.109   0.142
    1UNL    C12   14   0.679   0.017   0.073
    1UNL    C13   15   0.572   0.083   0.024
    1UNL    C14   16   0.437   0.026   0.034
    1UNL    C15   17   0.080  -0.056  -0.036
    1UNL    C16   18  -0.022  -0.047   0.083
    1UNL    C17   19  -0.172  -0.034   0.042
    1UNL    C18   20  -0.233  -0.156  -0.024
    1UNL    C19   21  -0.229  -0.274   0.081
    1UNL     O1   22  -0.283  -0.392   0.018
    1UNL    C20   23  -0.378  -0.133  -0.058
    1UNL     O2   24  -0.428  -0.194  -0.150
    1UNL     O3   25  -0.441  -0.034   0.019
    1UNL    C21   26  -0.560  -0.002  -0.037
    1UNL     H1   27  -0.429   0.258  -0.029
    1UNL     H2   28  -0.381   0.177   0.126
    1UNL     H3   29  -0.363   0.355   0.102
    1UNL     H4   30  -0.187   0.294  -0.068
    1UNL     H5   31  -0.142   0.256   0.101
    1UNL     H6   32  -0.293   0.069  -0.105
    1UNL     H7   33  -0.114   0.007  -0.220
    1UNL     H8   34  -0.090   0.183  -0.216
    1UNL     H9   35   0.099   0.215   0.023
    1UNL    H10   36   0.076   0.292  -0.123
    1UNL    H11   37   0.344   0.258  -0.072
    1UNL    H12   38   0.303   0.146  -0.199
    1UNL    H13   39   0.263  -0.249   0.081
    1UNL    H14   40   0.527  -0.270   0.184
    1UNL    H15   41   0.746  -0.168   0.169
    1UNL    H16   42   0.771   0.068   0.067
    1UNL    H17   43   0.584   0.183  -0.023
    1UNL    H18   44   0.065  -0.142  -0.104
    1UNL    H19   45   0.011   0.036   0.143
    1UNL    H20   46  -0.002  -0.130   0.146
    1UNL    H21   47  -0.225  -0.023   0.137
    1UNL    H22   48  -0.167  -0.187  -0.109
    1UNL    H23   49  -0.297  -0.252   0.168
    1UNL    H24   50  -0.132  -0.299   0.118
    1UNL    H25   51  -0.336  -0.368  -0.056
    1UNL    H26   52  -0.594  -0.076  -0.104
    1UNL    H27   53  -0.637   0.022   0.034
    1UNL    H28   54  -0.549   0.093  -0.095
   0.00000   0.00000   0.00000   0.00000   0.00000   0.00000   0.00000   0.00000   0.00000
Generated with MDTraj, t= 93.0
 54
    1UNL     C1    1  -0.314   0.274   0.079
    1UNL     C2    2  -0.183   0.238   0.003
    1UNL     C3    3  -0.185   0.100  -0.069
    1UNL     C4    4  -0.079   0.082  -0.177
    1UNL     N1    5   0.060   0.084  -0.112
    1UNL     C5    6   0.125   0.213  -0.100
    1UNL     C6    7   0.275   0.195  -0.072
    1UNL     C7    8   0.310   0.072  -0.006
    1UNL     C8    9   0.214  -0.021   0.030
    1UNL     N2   10   0.279  -0.132   0.095
    1UNL     C9   11   0.415  -0.109   0.090
    1UNL    C10   12   0.516  -0.189   0.137
    1UNL    C11   13   0.646  -0.131   0.125
    1UNL    C12   14   0.664  -0.008   0.059
    1UNL    C13   15   0.564   0.064   0.006
    1UNL    C14   16   0.435   0.018   0.032
    1UNL    C15   17   0.076  -0.033  -0.020
    1UNL    C16   18  -0.025  -0.029   0.095
    1UNL    C17   19  -0.175  -0.018   0.035
    1UNL    C18   20  -0.235  -0.143  -0.025
    1UNL    C19   21  -0.207  -0.271   0.057
    1UNL     O1   22  -0.254  -0.392   0.001
    1UNL    C20   23  -0.382  -0.140  -0.056
    1UNL     O2   24  -0.430  -0.225  -0.126
    1UNL     O3   25  -0.452  -0.043   0.006
    1UNL    C21   26  -0.587  -0.055  -0.036
    1UNL     H1   27  -0.404   0.264   0.018
    1UNL     H2   28  -0.318   0.199   0.157
    1UNL     H3   29  -0.321   0.374   0.128
    1UNL     H4   30  -0.153   0.319  -0.067
    1UNL     H5   31  -0.094   0.239   0.075
    1UNL     H6   32  -0.293   0.100  -0.119
    1UNL     H7   33  -0.078  -0.017  -0.224
    1UNL     H8   34  -0.098   0.162  -0.249
    1UNL     H9   35   0.071   0.275  -0.032
    1UNL    H10   36   0.110   0.266  -0.194
    1UNL    H11   37   0.300   0.280  -0.002
    1UNL    H12   38   0.335   0.217  -0.162
    1UNL    H13   39   0.254  -0.230   0.109
    1UNL    H14   40   0.498  -0.284   0.184
    1UNL    H15   41   0.737  -0.186   0.161
    1UNL    H16   42   0.771   0.021   0.056
    1UNL    H17   43   0.571   0.154  -0.041
    1UNL    H18   44   0.052  -0.121  -0.082
    1UNL    H19   45  -0.001   0.058   0.152
    1UNL    H20   46  -0.009  -0.112   0.162
    1UNL    H21   47  -0.239   0.004   0.123
    1UNL    H22   48  -0.185  -0.171  -0.126
    1UNL    H23   49  -0.261  -0.268   0.155
    1UNL    H24   50  -0.106  -0.292   0.081
    1UNL    H25   51  -0.355  -0.388  -0.031
    1UNL    H26   52  -0.634  -0.140   0.001
    1UNL    H27   53  -0.647   0.030  -0.008
    1UNL    H28   54  -0.587  -0.056  -0.147
   0.00000   0.00000   0.00000   0.00000   0.00000   0.00000   0.00000   0.00000   0.00000
Generated with MDTraj, t= 94.0
 54
    1UNL     C1    1  -0.309   0.275   0.109
    1UNL     C2    2  -0.211   0.262  -0.005
    1UNL     C3    3  -0.195   0.119  -0.071
    1UNL     C4    4  -0.083   0.107  -0.187
    1UNL     N1    5   0.058   0.094  -0.125
    1UNL     C5    6   0.132   0.219  -0.107
    1UNL     C6    7   0.280   0.176  -0.094
    1UNL     C7    8   0.304   0.059  -0.010
    1UNL     C8    9   0.207  -0.027   0.028
    1UNL     N2   10   0.260  -0.131   0.102
    1UNL     C9   11   0.401  -0.114   0.107
    1UNL    C10   12   0.504  -0.199   0.132
    1UNL    C11   13   0.635  -0.159   0.108
    1UNL    C12   14   0.659  -0.026   0.068
    1UNL    C13   15   0.556   0.055   0.026
    1UNL    C14   16   0.423   0.012   0.049
    1UNL    C15   17   0.064  -0.014  -0.026
    1UNL    C16   18  -0.031  -0.000   0.085
    1UNL    C17   19  -0.178  -0.006   0.030
    1UNL    C18   20  -0.216  -0.140  -0.032
    1UNL    C19   21  -0.191  -0.257   0.060
    1UNL     O1   22  -0.211  -0.382   0.006
    1UNL    C20   23  -0.364  -0.149  -0.063
    1UNL     O2   24  -0.411  -0.244  -0.117
    1UNL     O3   25  -0.444  -0.049  -0.015
    1UNL    C21   26  -0.585  -0.088  -0.011
    1UNL     H1   27  -0.415   0.265   0.082
    1UNL     H2   28  -0.280   0.205   0.183
    1UNL     H3   29  -0.299   0.371   0.165
    1UNL     H4   30  -0.237   0.339  -0.082
    1UNL     H5   31  -0.110   0.299   0.024
    1UNL     H6   32  -0.300   0.102  -0.122
    1UNL     H7   33  -0.106   0.017  -0.244
    1UNL     H8   34  -0.073   0.194  -0.254
    1UNL     H9   35   0.105   0.272  -0.020
    1UNL    H10   36   0.115   0.288  -0.189
    1UNL    H11   37   0.338   0.268  -0.058
    1UNL    H12   38   0.311   0.157  -0.196
    1UNL    H13   39   0.219  -0.215   0.144
    1UNL    H14   40   0.487  -0.304   0.156
    1UNL    H15   41   0.712  -0.225   0.127
    1UNL    H16   42   0.754   0.016   0.054
    1UNL    H17   43   0.575   0.157  -0.020
    1UNL    H18   44   0.024  -0.105  -0.068
    1UNL    H19   45  -0.018   0.094   0.133
    1UNL    H20   46  -0.015  -0.078   0.159
    1UNL    H21   47  -0.257   0.014   0.106
    1UNL    H22   48  -0.163  -0.155  -0.138
    1UNL    H23   49  -0.256  -0.253   0.150
    1UNL    H24   50  -0.091  -0.255   0.098
    1UNL    H25   51  -0.281  -0.367  -0.052
    1UNL    H26   52  -0.601  -0.129   0.085
    1UNL    H27   53  -0.656  -0.007  -0.012
    1UNL    H28   54  -0.610  -0.160  -0.094
   0.00000   0.00000   0.00000   0.00000   0.00000   0.00000   0.00000   0.00000   0.00000
Generated with MDTraj, t= 95.0
 54
    1UNL     C1    1  -0.339   0.263   0.105
    1UNL     C2    2  -0.229   0.258  -0.005
    1UNL     C3    3  -0.205   0.119  -0.061
    1UNL     C4    4  -0.095   0.114  -0.170
    1UNL     N1    5   0.049   0.109  -0.124
    1UNL     C5    6   0.136   0.236  -0.106
    1UNL     C6    7   0.283   0.195  -0.102
    1UNL     C7    8   0.315   0.060  -0.038
    1UNL     C8    9   0.209  -0.030  -0.003
    1UNL     N2   10   0.249  -0.142   0.067
    1UNL     C9   11   0.387  -0.129   0.078
    1UNL    C10   12   0.482  -0.206   0.152
    1UNL    C11   13   0.614  -0.166   0.159
    1UNL    C12   14   0.653  -0.051   0.087
    1UNL    C13   15   0.563   0.032   0.020
    1UNL    C14   16   0.427  -0.004   0.016
    1UNL    C15   17   0.068  -0.002  -0.035
    1UNL    C16   18  -0.028   0.021   0.084
    1UNL    C17   19  -0.181   0.011   0.042
    1UNL    C18   20  -0.213  -0.129  -0.011
    1UNL    C19   21  -0.158  -0.249   0.065
    1UNL     O1   22  -0.165  -0.379   0.004
    1UNL    C20   23  -0.362  -0.155  -0.039
    1UNL     O2   24  -0.394  -0.245  -0.112
    1UNL     O3   25  -0.449  -0.064   0.015
    1UNL    C21   26  -0.574  -0.080  -0.043
    1UNL     H1   27  -0.431   0.217   0.071
    1UNL     H2   28  -0.303   0.218   0.194
    1UNL     H3   29  -0.363   0.365   0.140
    1UNL     H4   30  -0.251   0.325  -0.092
    1UNL     H5   31  -0.142   0.305   0.039
    1UNL     H6   32  -0.300   0.088  -0.126
    1UNL     H7   33  -0.097   0.029  -0.242
    1UNL     H8   34  -0.106   0.211  -0.223
    1UNL     H9   35   0.107   0.290  -0.021
    1UNL    H10   36   0.128   0.308  -0.187
    1UNL    H11   37   0.344   0.282  -0.055
    1UNL    H12   38   0.311   0.189  -0.205
    1UNL    H13   39   0.183  -0.219   0.086
    1UNL    H14   40   0.452  -0.294   0.205
    1UNL    H15   41   0.690  -0.235   0.211
    1UNL    H16   42   0.756  -0.012   0.100
    1UNL    H17   43   0.595   0.116  -0.035
    1UNL    H18   44   0.033  -0.084  -0.094
    1UNL    H19   45  -0.009   0.122   0.114
    1UNL    H20   46   0.002  -0.052   0.158
    1UNL    H21   47  -0.251   0.035   0.124
    1UNL    H22   48  -0.163  -0.128  -0.118
    1UNL    H23   49  -0.207  -0.250   0.164
    1UNL    H24   50  -0.056  -0.232   0.086
    1UNL    H25   51  -0.270  -0.384  -0.012
    1UNL    H26   52  -0.586  -0.188  -0.040
    1UNL    H27   53  -0.650  -0.047   0.027
    1UNL    H28   54  -0.578  -0.033  -0.149
   0.00000   0.00000   0.00000   0.00000   0.00000   0.00000   0.00000   0.00000   0.00000
Generated with MDTraj, t= 96.0
 54
    1UNL     C1    1  -0.372   0.250   0.079
    1UNL     C2    2  -0.226   0.254   0.031
    1UNL     C3    3  -0.195   0.122  -0.054
    1UNL     C4    4  -0.103   0.140  -0.174
    1UNL     N1    5   0.043   0.118  -0.139
    1UNL     C5    6   0.145   0.225  -0.108
    1UNL     C6    7   0.295   0.180  -0.113
    1UNL     C7    8   0.305   0.054  -0.032
    1UNL     C8    9   0.208  -0.037  -0.014
    1UNL     N2   10   0.253  -0.150   0.050
    1UNL     C9   11   0.386  -0.126   0.076
    1UNL    C10   12   0.473  -0.199   0.155
    1UNL    C11   13   0.605  -0.161   0.160
    1UNL    C12   14   0.645  -0.042   0.093
    1UNL    C13   15   0.556   0.036   0.031
    1UNL    C14   16   0.421  -0.005   0.023
    1UNL    C15   17   0.062  -0.004  -0.049
    1UNL    C16   18  -0.015   0.014   0.082
    1UNL    C17   19  -0.164   0.001   0.038
    1UNL    C18   20  -0.199  -0.139  -0.019
    1UNL    C19   21  -0.162  -0.249   0.083
    1UNL     O1   22  -0.169  -0.376   0.019
    1UNL    C20   23  -0.349  -0.145  -0.048
    1UNL     O2   24  -0.397  -0.235  -0.111
    1UNL     O3   25  -0.439  -0.054   0.007
    1UNL    C21   26  -0.568  -0.079  -0.021
    1UNL     H1   27  -0.435   0.244  -0.009
    1UNL     H2   28  -0.387   0.164   0.140
    1UNL     H3   29  -0.405   0.331   0.143
    1UNL     H4   30  -0.225   0.348  -0.033
    1UNL     H5   31  -0.146   0.270   0.102
    1UNL     H6   32  -0.293   0.083  -0.110
    1UNL     H7   33  -0.134   0.064  -0.249
    1UNL     H8   34  -0.101   0.239  -0.226
    1UNL     H9   35   0.130   0.277  -0.017
    1UNL    H10   36   0.118   0.300  -0.181
    1UNL    H11   37   0.370   0.254  -0.065
    1UNL    H12   38   0.327   0.162  -0.215
    1UNL    H13   39   0.191  -0.229   0.082
    1UNL    H14   40   0.430  -0.290   0.193
    1UNL    H15   41   0.676  -0.212   0.212
    1UNL    H16   42   0.749  -0.021   0.098
    1UNL    H17   43   0.585   0.130  -0.010
    1UNL    H18   44   0.042  -0.087  -0.111
    1UNL    H19   45   0.011   0.109   0.123
    1UNL    H20   46   0.014  -0.071   0.142
    1UNL    H21   47  -0.226   0.011   0.130
    1UNL    H22   48  -0.139  -0.162  -0.112
    1UNL    H23   49  -0.229  -0.250   0.171
    1UNL    H24   50  -0.062  -0.244   0.120
    1UNL    H25   51  -0.225  -0.380  -0.053
    1UNL    H26   52  -0.573  -0.190  -0.013
    1UNL    H27   53  -0.621  -0.032   0.061
    1UNL    H28   54  -0.588  -0.035  -0.127
   0.00000   0.00000   0.00000   0.00000   0.00000   0.00000   0.00000   0.00000   0.00000
Generated with MDTraj, t= 97.0
 54
    1UNL     C1    1  -0.367   0.254   0.067
    1UNL     C2    2  -0.232   0.250   0.006
    1UNL     C3    3  -0.194   0.117  -0.059
    1UNL     C4    4  -0.092   0.134  -0.169
    1UNL     N1    5   0.055   0.110  -0.127
    1UNL     C5    6   0.151   0.227  -0.104
    1UNL     C6    7   0.297   0.187  -0.113
    1UNL     C7    8   0.316   0.056  -0.026
    1UNL     C8    9   0.214  -0.032  -0.006
    1UNL     N2   10   0.270  -0.144   0.053
    1UNL     C9   11   0.407  -0.128   0.070
    1UNL    C10   12   0.506  -0.202   0.136
    1UNL    C11   13   0.628  -0.151   0.153
    1UNL    C12   14   0.663  -0.020   0.110
    1UNL    C13   15   0.566   0.052   0.043
    1UNL    C14   16   0.440  -0.000   0.019
    1UNL    C15   17   0.074  -0.009  -0.043
    1UNL    C16   18  -0.023  -0.003   0.077
    1UNL    C17   19  -0.174  -0.004   0.045
    1UNL    C18   20  -0.222  -0.139  -0.019
    1UNL    C19   21  -0.185  -0.265   0.057
    1UNL     O1   22  -0.241  -0.388   0.016
    1UNL    C20   23  -0.368  -0.146  -0.043
    1UNL     O2   24  -0.411  -0.234  -0.117
    1UNL     O3   25  -0.442  -0.051   0.025
    1UNL    C21   26  -0.574  -0.075  -0.005
    1UNL     H1   27  -0.441   0.231  -0.008
    1UNL     H2   28  -0.376   0.184   0.150
    1UNL     H3   29  -0.387   0.348   0.113
    1UNL     H4   30  -0.219   0.330  -0.071
    1UNL     H5   31  -0.160   0.272   0.085
    1UNL     H6   32  -0.287   0.095  -0.130
    1UNL     H7   33  -0.094   0.063  -0.256
    1UNL     H8   34  -0.102   0.234  -0.217
    1UNL     H9   35   0.118   0.261  -0.008
    1UNL    H10   36   0.132   0.309  -0.171
    1UNL    H11   37   0.366   0.268  -0.072
    1UNL    H12   38   0.335   0.161  -0.211
    1UNL    H13   39   0.212  -0.219   0.095
    1UNL    H14   40   0.485  -0.303   0.170
    1UNL    H15   41   0.701  -0.219   0.202
    1UNL    H16   42   0.762   0.025   0.127
    1UNL    H17   43   0.590   0.159   0.022
    1UNL    H18   44   0.059  -0.097  -0.099
    1UNL    H19   45  -0.001   0.093   0.120
    1UNL    H20   46   0.005  -0.080   0.147
    1UNL    H21   47  -0.228   0.007   0.142
    1UNL    H22   48  -0.173  -0.145  -0.115
    1UNL    H23   49  -0.207  -0.255   0.164
    1UNL    H24   50  -0.081  -0.288   0.047
    1UNL    H25   51  -0.288  -0.392  -0.080
    1UNL    H26   52  -0.617  -0.113   0.089
    1UNL    H27   53  -0.618   0.015  -0.048
    1UNL    H28   54  -0.573  -0.166  -0.078
   0.00000   0.00000   0.00000   0.00000   0.00000   0.00000   0.00000   0.00000   0.00000
Generated with MDTraj, t= 98.0
 54
    1UNL     C1    1  -0.331   0.242   0.072
    1UNL     C2    2  -0.200   0.234  -0.013
    1UNL     C3    3  -0.184   0.099  -0.086
    1UNL     C4    4  -0.074   0.099  -0.189
    1UNL     N1    5   0.064   0.092  -0.135
    1UNL     C5    6   0.124   0.213  -0.078
    1UNL     C6    7   0.273   0.204  -0.055
    1UNL     C7    8   0.315   0.062  -0.014
    1UNL     C8    9   0.222  -0.039   0.011
    1UNL     N2   10   0.281  -0.139   0.075
    1UNL     C9   11   0.413  -0.114   0.089
    1UNL    C10   12   0.528  -0.188   0.134
    1UNL    C11   13   0.652  -0.128   0.139
    1UNL    C12   14   0.674  -0.005   0.080
    1UNL    C13   15   0.570   0.078   0.028
    1UNL    C14   16   0.445   0.011   0.037
    1UNL    C15   17   0.082  -0.031  -0.049
    1UNL    C16   18  -0.024  -0.036   0.060
    1UNL    C17   19  -0.172  -0.022   0.016
    1UNL    C18   20  -0.234  -0.156  -0.033
    1UNL    C19   21  -0.212  -0.273   0.064
    1UNL     O1   22  -0.269  -0.388   0.016
    1UNL    C20   23  -0.386  -0.133  -0.047
    1UNL     O2   24  -0.444  -0.186  -0.141
    1UNL     O3   25  -0.446  -0.053   0.044
    1UNL    C21   26  -0.589  -0.053   0.014
    1UNL     H1   27  -0.413   0.238   0.004
    1UNL     H2   28  -0.344   0.164   0.147
    1UNL     H3   29  -0.336   0.330   0.130
    1UNL     H4   30  -0.207   0.317  -0.086
    1UNL     H5   31  -0.109   0.253   0.045
    1UNL     H6   32  -0.282   0.094  -0.151
    1UNL     H7   33  -0.087   0.009  -0.255
    1UNL     H8   34  -0.061   0.185  -0.259
    1UNL     H9   35   0.086   0.217   0.022
    1UNL    H10   36   0.085   0.294  -0.138
    1UNL    H11   37   0.301   0.273   0.031
    1UNL    H12   38   0.323   0.237  -0.147
    1UNL    H13   39   0.240  -0.235   0.074
    1UNL    H14   40   0.510  -0.285   0.176
    1UNL    H15   41   0.738  -0.184   0.176
    1UNL    H16   42   0.777   0.029   0.081
    1UNL    H17   43   0.593   0.172  -0.008
    1UNL    H18   44   0.067  -0.118  -0.103
    1UNL    H19   45   0.003   0.048   0.120
    1UNL    H20   46   0.002  -0.117   0.128
    1UNL    H21   47  -0.239   0.009   0.099
    1UNL    H22   48  -0.190  -0.173  -0.128
    1UNL    H23   49  -0.269  -0.252   0.157
    1UNL    H24   50  -0.108  -0.288   0.082
    1UNL    H25   51  -0.295  -0.373  -0.073
    1UNL    H26   52  -0.633   0.034   0.062
    1UNL    H27   53  -0.611  -0.060  -0.090
    1UNL    H28   54  -0.632  -0.137   0.078
   0.00000   0.00000   0.00000   0.00000   0.00000   0.00000   0.00000   0.00000   0.00000
Generated with MDTraj, t= 99.0
 54
    1UNL     C1    1  -0.334   0.261   0.044
    1UNL     C2    2  -0.195   0.219  -0.008
    1UNL     C3    3  -0.182   0.079  -0.072
    1UNL     C4    4  -0.075   0.070  -0.183
    1UNL     N1    5   0.059   0.070  -0.116
    1UNL     C5    6   0.128   0.208  -0.089
    1UNL     C6    7   0.275   0.196  -0.071
    1UNL     C7    8   0.307   0.061   0.005
    1UNL     C8    9   0.225  -0.047   0.013
    1UNL     N2   10   0.301  -0.145   0.065
    1UNL     C9   11   0.430  -0.111   0.086
    1UNL    C10   12   0.548  -0.178   0.112
    1UNL    C11   13   0.665  -0.112   0.109
    1UNL    C12   14   0.671   0.026   0.095
    1UNL    C13   15   0.560   0.098   0.050
    1UNL    C14   16   0.440   0.029   0.052
    1UNL    C15   17   0.082  -0.052  -0.032
    1UNL    C16   18  -0.020  -0.052   0.083
    1UNL    C17   19  -0.165  -0.030   0.031
    1UNL    C18   20  -0.234  -0.157  -0.030
    1UNL    C19   21  -0.235  -0.287   0.050
    1UNL     O1   22  -0.327  -0.385  -0.005
    1UNL    C20   23  -0.380  -0.123  -0.050
    1UNL     O2   24  -0.441  -0.167  -0.148
    1UNL     O3   25  -0.436  -0.051   0.046
    1UNL    C21   26  -0.578  -0.032   0.022
    1UNL     H1   27  -0.407   0.236  -0.029
    1UNL     H2   28  -0.361   0.210   0.136
    1UNL     H3   29  -0.341   0.363   0.071
    1UNL     H4   30  -0.163   0.299  -0.076
    1UNL     H5   31  -0.123   0.220   0.076
    1UNL     H6   32  -0.285   0.068  -0.128
    1UNL     H7   33  -0.065  -0.026  -0.240
    1UNL     H8   34  -0.092   0.154  -0.255
    1UNL     H9   35   0.081   0.252  -0.003
    1UNL    H10   36   0.123   0.272  -0.177
    1UNL    H11   37   0.307   0.287  -0.014
    1UNL    H12   38   0.326   0.191  -0.172
    1UNL    H13   39   0.271  -0.244   0.074
    1UNL    H14   40   0.549  -0.285   0.130
    1UNL    H15   41   0.752  -0.162   0.136
    1UNL    H16   42   0.765   0.076   0.099
    1UNL    H17   43   0.561   0.210   0.023
    1UNL    H18   44   0.065  -0.135  -0.092
    1UNL    H19   45   0.015   0.014   0.159
    1UNL    H20   46  -0.013  -0.147   0.132
    1UNL    H21   47  -0.239  -0.008   0.114
    1UNL    H22   48  -0.196  -0.175  -0.123
    1UNL    H23   49  -0.271  -0.262   0.153
    1UNL    H24   50  -0.135  -0.324   0.048
    1UNL    H25   51  -0.350  -0.362  -0.098
    1UNL    H26   52  -0.601   0.074   0.028
    1UNL    H27   53  -0.623  -0.070  -0.066
    1UNL    H28   54  -0.623  -0.065   0.118
   0.00000   0.00000   0.00000   0.00000   0.00000   0.00000   0.00000   0.00000   0.00000
