[ moleculetype ]
; name        nrexcl
res           1

[ atoms ]
;    nr  type resnr resid  atom  cgnr     charge       mass
      1 C1        1 res   C1        1      0.000     72.000
      2 SP1       1 res   C2        2      0.000     54.000
      3 TC4       1 res   C3        3      0.000     36.000
      4 TC4       1 res   C4        4      0.000     36.000
      5 SN6       1 res   C5        5      0.000     54.000
      6 TN4a      1 res   C6        6      0.000     36.000
      7 TC4       1 res   C7        7      0.000     36.000
      8 TN6       1 res   C8        8      0.000     36.000
      9 SN4a      1 res   C9        9      0.000     54.000
     10 TP1       1 res   C10      10      0.000     36.000
     11 TN6       1 res   C11      11      0.000     36.000
     12 TN6       1 res   C12      12      0.000     36.000
     13 TN6       1 res   C13      13      0.000     36.000
     14 TN6       1 res   C14      14      0.000     36.000
     15 TN6       1 res   C15      15      0.000     36.000
     16 SC4       1 res   C16      16      0.000     54.000
     17 SC4       1 res   C17      17      0.000     54.000
     18 TC3       1 res   C18      18      0.000     36.000

[ bonds ]
;  ai    aj   funct      b0(nm)        k
    1     2     1      0.34095    20000
    1     3     1      0.26931    20000
    3     4     1      0.36086    20000
    3    16     1      0.30014    20000
    4     5     1      0.28604    20000
    5     6     1      0.23647    20000
    5    16     1      0.30905    20000
    6     7     1      0.29990    20000
    6    15     1      0.23254    20000
    7     8     1      0.25747    20000
    8     9     1      0.29434    20000
    8    14     1      0.24325    20000
    9    10     1      0.25802    20000
    9    11     1      0.25805    20000
    9    13     1      0.26915    20000
   11    12     1      0.24521    20000
   12    13     1      0.24246    20000
   14    15     1      0.21667    20000
   16    17     1      0.31983    20000
   16    18     1      0.33920    20000
   17    18     1      0.36544    20000
