1TPCN05222
34
    1res  C1    1   -0.862   0.030  -0.330
    1res  C2    2   -0.982   0.060  -0.059
    1res  C3    3   -0.890  -0.095   0.049
    1res  C4    4   -0.684  -0.052   0.047
    1res  C5    5   -0.715   0.229   0.044
    1res  C6    6   -0.445   0.153   0.075
    1res  C7    7   -0.155   0.033   0.157
    1res  C8    8   -0.038  -0.199  -0.029
    1res  C9    9    0.068   0.138  -0.156
    1res  C10   10    0.162   0.089   0.106
    1res  C11   11    0.268  -0.192  -0.128
    1res  C12   12    0.411   0.167  -0.052
    1res  C13   13    0.688   0.042   0.047
    1res  C14   14    0.748  -0.218  -0.255
    1res  C15   15    0.884   0.004  -0.239
    1res  C16   16    1.166   0.109  -0.121
    1res  C17   17    1.177   0.359  -0.064
    1res  C18   18    1.309   0.143   0.082
    1res  C19   19    1.326  -0.098   0.044
    1res  C20   20    1.238  -0.139  -0.152
    1res  C21   21    0.790  -0.235   0.065
    1res  C22   22    0.461  -0.015   0.193
    1res  C23   23   -0.287   0.063  -0.201
    1res  C24   24   -0.335  -0.198  -0.057
    1res  C25   25   -0.537   0.183   0.301
    1res  C26   26   -0.533   0.297   0.535
    1res  C27   27   -0.677   0.383   0.290
    1res  C28   28   -0.626  -0.284   0.162
    1res  C29   29   -0.514  -0.190   0.348
    1res  C30   30   -0.844  -0.275   0.310
    1res  C31   31   -0.946  -0.314   0.110
    1res  C32   32   -1.173  -0.092  -0.158
    1res  C33   33   -1.250   0.122  -0.247
    1res  C34   34   -1.089   0.142  -0.411
  10.00000  10.00000  10.00000
