[ moleculetype ]
; name        nrexcl
res           1

[ atoms ]
;    nr  type  resnr resid  atom  cgnr     charge       mass
      1 TC5       1 res   C1        1      0.000     36.000
      2 TX3       1 res   C2        2      0.000     36.000
      3 TN6d      1 res   C3        3      0.000     36.000
      4 SX3       1 res   C4        4      0.000     54.000

[ constraints ]
;  ai    aj   funct      b0(nm)
    1     2     1      0.28085
    2     3     1      0.25202
    1     4     1      0.30392
    3     4     1      0.31908

[ bonds ]
;  ai    aj   funct      b0(nm)          k(kJ/mol/nm^2)

[ angles ]
;  ai    aj    ak  funct     th0(deg)        k(kJ/mol/rad^2)
    1     2     3     1    104.71567          1423.13
    1     4     3     1     85.30770          2360.95
    2     1     4     1     83.65270          2778.96
    2     3     4     1     85.38396          1808.78

[ dihedrals ]
;  ai    aj    ak    al  funct   phi0(deg)        k(kJ/mol)   mult
    1     2     3     4     1    179.03320       12.989      1
    1     4     3     2     1   -178.12746       12.245      1
    2     1     4     3     1    179.04120       11.511      1
    3     2     1     4     1   -178.12651       13.700      1
