1Threhalose
8
    1res  C1    1   -0.339  -0.076  -0.227
    1res  C2    2   -0.209  -0.034  -0.064
    1res  C3    3   -0.377   0.013   0.138
    1res  C4    4   -0.118   0.137   0.154
    1res  C5    5    0.203   0.030   0.001
    1res  C6    6    0.198  -0.211  -0.037
    1res  C7    7    0.384  -0.046  -0.185
    1res  C8    8    0.405   0.227  -0.000
  10.00000  10.00000  10.00000
