1TPCN00024
27
    1res  C1    1    0.617   0.184  -0.079
    1res  C2    2    0.560  -0.054   0.157
    1res  C3    3    0.772  -0.057   0.131
    1res  C4    4    0.873  -0.079  -0.061
    1res  C5    5    0.992   0.072  -0.186
    1res  C6    6    1.091   0.132  -0.362
    1res  C7    7    1.139   0.166  -0.028
    1res  C8    8    1.213  -0.088  -0.050
    1res  C9    9    1.025  -0.203   0.051
    1res  C10   10    0.703   0.019   0.362
    1res  C11   11    0.389   0.065   0.557
    1res  C12   12    0.321  -0.025   0.124
    1res  C13   13    0.145   0.101  -0.158
    1res  C14   14   -0.030   0.071  -0.286
    1res  C15   15   -0.343  -0.160  -0.189
    1res  C16   16   -0.565  -0.194   0.056
    1res  C17   17   -0.562   0.061  -0.046
    1res  C18   18   -0.769  -0.107  -0.101
    1res  C19   19   -0.962  -0.083  -0.024
    1res  C20   20   -0.953   0.147  -0.010
    1res  C21   21   -0.921   0.322  -0.140
    1res  C22   22   -1.124   0.254   0.096
    1res  C23   23   -1.254   0.082   0.096
    1res  C24   24   -1.139  -0.093   0.097
    1res  C25   25   -0.807  -0.390   0.070
    1res  C26   26   -0.341   0.058   0.062
    1res  C27   27   -0.044  -0.105   0.081
  10.00000  10.00000  10.00000
