1TPCN02481
13
    1res  C1    1   -0.212   0.298   0.064
    1res  C2    2   -0.032  -0.079  -0.136
    1res  C3    3   -0.100  -0.152   0.111
    1res  C4    4   -0.420  -0.093   0.219
    1res  C5    5    0.054  -0.335   0.036
    1res  C6    6    0.233  -0.206  -0.128
    1res  C7    7    0.287  -0.029   0.061
    1res  C8    8    0.356   0.117   0.234
    1res  C9    9    0.464   0.297   0.313
    1res  C10   10    0.578   0.135   0.104
    1res  C11   11    0.044   0.036  -0.336
    1res  C12   12   -0.186   0.109  -0.288
    1res  C13   13   -0.345  -0.065  -0.210
  10.00000  10.00000  10.00000
