1TPCN06216
23
    1res  C1    1   -0.772   0.346   0.121
    1res  C2    2   -0.707   0.116   0.055
    1res  C3    3   -0.637   0.025  -0.102
    1res  C4    4   -0.430   0.021  -0.139
    1res  C5    5   -0.132  -0.023  -0.207
    1res  C6    6    0.032  -0.200  -0.096
    1res  C7    7    0.087  -0.167   0.202
    1res  C8    8    0.273  -0.176   0.017
    1res  C9    9    0.349  -0.016  -0.204
    1res  C10   10    0.357   0.113   0.103
    1res  C11   11    0.642   0.104   0.003
    1res  C12   12    0.840   0.284  -0.085
    1res  C13   13    0.887   0.077   0.118
    1res  C14   14    0.735  -0.228   0.148
    1res  C15   15    0.545  -0.015   0.306
    1res  C16   16   -0.255  -0.205   0.064
    1res  C17   17   -0.455  -0.055  -0.351
    1res  C18   18   -0.452   0.010  -0.601
    1res  C19   19   -0.695  -0.124  -0.421
    1res  C20   20   -0.739  -0.120  -0.212
    1res  C21   21   -0.810  -0.028   0.235
    1res  C22   22   -0.603   0.066   0.334
    1res  C23   23   -0.725   0.264   0.382
  10.00000  10.00000  10.00000
