[ moleculetype ]
; name        nrexcl
res           1

[ atoms ]
;    nr  type resnr resid  atom  cgnr     charge       mass
      1 SC4       1 res   C1        1      0.000     54.000
      2 SC5       1 res   C2        2      0.000     54.000
      3 SC4       1 res   C3        3      0.000     54.000
      4 TC3       1 res   C4        4      0.000     36.000
      5 SC4       1 res   C5        5      0.000     54.000
      6 SC4       1 res   C6        6      0.000     54.000
      7 SN6       1 res   C7        7      0.000     54.000
      8 TN6       1 res   C8        8      0.000     36.000
      9 SN4a      1 res   C9        9      0.000     54.000
     10 TP1       1 res   C10      10      0.000     36.000
     11 TN6       1 res   C11      11      0.000     36.000
     12 SN4a      1 res   C12      12      0.000     54.000
     13 TN6       1 res   C13      13      0.000     36.000
     14 TN6       1 res   C14      14      0.000     36.000
     15 TN6       1 res   C15      15      0.000     36.000
     16 TN6       1 res   C16      16      0.000     36.000
     17 TN6       1 res   C17      17      0.000     36.000
     18 SN4a      1 res   C18      18      0.000     54.000
     19 TN6       1 res   C19      19      0.000     36.000
     20 SN4a      1 res   C20      20      0.000     54.000
     21 TN6       1 res   C21      21      0.000     36.000
     22 TN6       1 res   C22      22      0.000     36.000
     23 TN6       1 res   C23      23      0.000     36.000
     24 TN6       1 res   C24      24      0.000     36.000
     25 SN4a      1 res   C25      25      0.000     54.000
     26 TP1       1 res   C26      26      0.000     36.000
     27 TN6       1 res   C27      27      0.000     36.000
     28 TN6       1 res   C28      28      0.000     36.000
     29 TN6       1 res   C29      29      0.000     36.000
     30 TN6       1 res   C30      30      0.000     36.000
     31 SC4       1 res   C31      31      0.000     54.000
     32 TC3       1 res   C32      32      0.000     36.000
     33 TC3       1 res   C33      33      0.000     36.000
     34 TC3       1 res   C34      34      0.000     36.000
     35 SN4a      1 res   C35      35      0.000     54.000

[ bonds ]
;  ai    aj   funct      b0(nm)        k
    1     2     1      0.28607    20000
    1    34     1      0.30543    20000
    2     3     1      0.30491    20000
    2    33     1      0.37560    20000
    2    34     1      0.28572    20000
    2    35     1      0.30242    20000
    3     4     1      0.39379    20000
    3     5     1      0.30695    20000
    3    33     1      0.29490    20000
    4     5     1      0.37839    20000
    5     6     1      0.34827    20000
    5    32     1      0.30618    20000
    6     7     1      0.27960    20000
    6    31     1      0.31776    20000
    6    32     1      0.32591    20000
    7     8     1      0.25139    20000
    8     9     1      0.28090    20000
    8    31     1      0.24553    20000
    9    10     1      0.28033    20000
    9    11     1      0.22979    20000
    9    17     1      0.22982    20000
   11    12     1      0.31543    20000
   11    16     1      0.21454    20000
   12    13     1      0.28016    20000
   12    15     1      0.28082    20000
   13    14     1      0.22104    20000
   14    15     1      0.21159    20000
   16    17     1      0.21580    20000
   17    18     1      0.27297    20000
   18    19     1      0.23542    20000
   18    30     1      0.29885    20000
   19    20     1      0.26240    20000
   19    24     1      0.20673    20000
   20    21     1      0.25167    20000
   20    23     1      0.26756    20000
   21    22     1      0.23364    20000
   22    23     1      0.28395    20000
   24    25     1      0.28977    20000
   24    30     1      0.24046    20000
   25    26     1      0.29585    20000
   25    27     1      0.29349    20000
   25    29     1      0.26356    20000
   27    28     1      0.23298    20000
   28    29     1      0.22041    20000
   34    35     1      0.26900    20000
