1TPCN04168
30
    1res  C1    1    1.017  -0.133  -0.243
    1res  C2    2    1.050  -0.041   0.052
    1res  C3    3    0.747   0.039   0.004
    1res  C4    4    0.761  -0.175   0.115
    1res  C5    5    0.483  -0.085  -0.185
    1res  C6    6    0.382  -0.092   0.088
    1res  C7    7    0.139  -0.095  -0.013
    1res  C8    8    0.062   0.064  -0.229
    1res  C9    9   -0.153   0.012  -0.107
    1res  C10   10   -0.330  -0.035  -0.205
    1res  C11   11   -0.320   0.215  -0.379
    1res  C12   12   -0.581   0.201  -0.355
    1res  C13   13   -0.553   0.193  -0.121
    1res  C14   14   -0.661   0.164   0.155
    1res  C15   15   -0.497   0.232   0.327
    1res  C16   16   -0.868   0.220   0.333
    1res  C17   17   -0.810   0.433   0.195
    1res  C18   18   -0.860   0.279  -0.011
    1res  C19   19   -0.498  -0.006  -0.074
    1res  C20   20   -0.482  -0.292  -0.031
    1res  C21   21   -0.342  -0.525  -0.170
    1res  C22   22   -0.606  -0.557   0.003
    1res  C23   23   -0.671  -0.363   0.141
    1res  C24   24   -0.739  -0.231  -0.053
    1res  C25   25   -0.119  -0.049   0.139
    1res  C26   26   -0.157   0.235   0.118
    1res  C27   27    0.228   0.057   0.240
    1res  C28   28    0.557   0.152   0.122
    1res  C29   29    0.804   0.114   0.285
    1res  C30   30    0.820   0.048  -0.268
  10.00000  10.00000  10.00000
