1TPCN04441
24
    1res  C1    1   -0.960   0.018  -0.000
    1res  C2    2   -0.773   0.248  -0.085
    1res  C3    3   -0.687  -0.000   0.028
    1res  C4    4   -0.685   0.315   0.229
    1res  C5    5   -0.391   0.207  -0.017
    1res  C6    6   -0.477  -0.047  -0.159
    1res  C7    7   -0.361  -0.140   0.214
    1res  C8    8   -0.268  -0.192  -0.051
    1res  C9    9   -0.044  -0.286   0.076
    1res  C10   10    0.068  -0.022   0.198
    1res  C11   11    0.267  -0.005   0.041
    1res  C12   12    0.336   0.279  -0.014
    1res  C13   13    0.498   0.518  -0.091
    1res  C14   14    0.319   0.269  -0.293
    1res  C15   15    0.532   0.180  -0.275
    1res  C16   16    0.531   0.111  -0.048
    1res  C17   17    0.651  -0.101   0.138
    1res  C18   18    0.781  -0.007   0.324
    1res  C19   19    0.803  -0.323   0.156
    1res  C20   20    0.928  -0.192  -0.010
    1res  C21   21    0.724  -0.108  -0.153
    1res  C22   22    0.255  -0.157  -0.170
    1res  C23   23    0.245  -0.344   0.032
    1res  C24   24   -0.088  -0.040  -0.200
  10.00000  10.00000  10.00000
