[ moleculetype ]
; name        nrexcl
res           1

[ atoms ]
;    nr  type  resnr resid  atom  cgnr     charge       mass
      1 TN2a      1 res   C1        1      0.000     36.000
      2 TC5       1 res   C2        2      0.000     36.000
      3 TN2a      1 res   C3        3      0.000     36.000
      4 TC5       1 res   C4        4      0.000     36.000

[ constraints ]
;  ai    aj   funct      b0(nm)
    3     4     1      0.20760
    2     3     1      0.22432
    2     4     1      0.23884

[ bonds ]
;  ai    aj   funct      b0(nm)          k(kJ/mol/nm^2)
    1     2     1      0.31839          10582.1

[ angles ]
;  ai    aj    ak  funct     th0(deg)        k(kJ/mol/rad^2)
    1     2     3     1     58.54297           128.81
    1     2     4     1    110.07357           152.46
    2     3     4     1     67.01968          3929.49
    2     4     3     1     59.83917          4824.12
    3     2     4     1     53.14115          6827.51

[ dihedrals ]
;  ai    aj    ak    al  funct   phi0(deg)        k(kJ/mol)   mult
    1     2     3     4     1     -0.96304       22.333      1
    1     2     4     3     1    178.53199       20.898      1
