[ moleculetype ]
; name        nrexcl
res           1

[ atoms ]
;    nr  type resnr resid  atom  cgnr     charge       mass
      1 SC4       1 res   C1        1      0.000     54.000
      2 TC3       1 res   C2        2      0.000     36.000
      3 SC5       1 res   C3        3      0.000     54.000
      4 SP2       1 res   C4        4      0.000     54.000
      5 TC3       1 res   C5        5      0.000     36.000
      6 SC4       1 res   C6        6      0.000     54.000
      7 TC3       1 res   C7        7      0.000     36.000
      8 SC4       1 res   C8        8      0.000     54.000
      9 SC4       1 res   C9        9      0.000     54.000
     10 SN6       1 res   C10      10      0.000     54.000
     11 TN6       1 res   C11      11      0.000     36.000
     12 SN4a      1 res   C12      12      0.000     54.000
     13 TP1       1 res   C13      13      0.000     36.000
     14 TN6       1 res   C14      14      0.000     36.000
     15 TN6       1 res   C15      15      0.000     36.000
     16 SN4a      1 res   C16      16      0.000     54.000
     17 TN3r      1 res   C17      17      0.000     36.000
     18 SN4a      1 res   C18      18      0.000     54.000
     19 TP1       1 res   C19      19      0.000     36.000
     20 TN6       1 res   C20      20      0.000     36.000
     21 TN6       1 res   C21      21      0.000     36.000
     22 SN4a      1 res   C22      22      0.000     54.000
     23 TP1       1 res   C23      23      0.000     36.000
     24 TN6       1 res   C24      24      0.000     36.000
     25 TN6       1 res   C25      25      0.000     36.000
     26 SN4a      1 res   C26      26      0.000     54.000
     27 TN6       1 res   C27      27      0.000     36.000
     28 TN6       1 res   C28      28      0.000     36.000
     29 TN6       1 res   C29      29      0.000     36.000
     30 TN6       1 res   C30      30      0.000     36.000
     31 TN6       1 res   C31      31      0.000     36.000
     32 TN6       1 res   C32      32      0.000     36.000
     33 TN6       1 res   C33      33      0.000     36.000
     34 TN6       1 res   C34      34      0.000     36.000
     35 TN6       1 res   C35      35      0.000     36.000
     36 TC4       1 res   C36      36      0.000     36.000
     37 TP1       1 res   C37      37      0.000     36.000
     38 TC3       1 res   C38      38      0.000     36.000

[ bonds ]
;  ai    aj   funct      b0(nm)        k
    1     2     1      0.29406    20000
    1     3     1      0.28760    20000
    2     3     1      0.28210    20000
    3     4     1      0.31567    20000
    3     5     1      0.36122    20000
    3     6     1      0.37907    20000
    5     6     1      0.27350    20000
    6     7     1      0.31859    20000
    6     8     1      0.27468    20000
    7     8     1      0.38177    20000
    8     9     1      0.26554    20000
    8    38     1      0.28619    20000
    9    10     1      0.27236    20000
    9    36     1      0.39711    20000
    9    38     1      0.30181    20000
   10    11     1      0.25902    20000
   11    12     1      0.28626    20000
   11    36     1      0.24883    20000
   12    13     1      0.29097    20000
   12    14     1      0.28543    20000
   12    35     1      0.29819    20000
   14    15     1      0.20733    20000
   15    16     1      0.28067    20000
   15    35     1      0.21883    20000
   16    17     1      0.22838    20000
   16    32     1      0.26714    20000
   16    34     1      0.30677    20000
   17    18     1      0.30587    20000
   18    19     1      0.29915    20000
   18    20     1      0.27195    20000
   18    31     1      0.26405    20000
   20    21     1      0.21197    20000
   21    22     1      0.25183    20000
   21    31     1      0.22041    20000
   22    23     1      0.31716    20000
   22    24     1      0.28051    20000
   22    30     1      0.28333    20000
   24    25     1      0.24719    20000
   25    26     1      0.33365    20000
   25    30     1      0.24543    20000
   26    27     1      0.26458    20000
   26    29     1      0.31221    20000
   27    28     1      0.28237    20000
   28    29     1      0.25991    20000
   32    33     1      0.24030    20000
   33    34     1      0.21255    20000
   36    37     1      0.28104    20000
