1TPCN02995
18
    1res  C1    1    0.158  -0.323  -0.234
    1res  C2    2   -0.073  -0.092  -0.406
    1res  C3    3   -0.054  -0.223  -0.050
    1res  C4    4    0.034   0.051  -0.146
    1res  C5    5    0.252  -0.047   0.008
    1res  C6    6    0.442  -0.074   0.171
    1res  C7    7    0.514  -0.049   0.417
    1res  C8    8    0.239   0.020   0.327
    1res  C9    9    0.119   0.252  -0.123
    1res  C10   10    0.298   0.427  -0.098
    1res  C11   11    0.414   0.588   0.067
    1res  C12   12    0.190   0.412   0.153
    1res  C13   13   -0.200   0.167   0.017
    1res  C14   14   -0.344   0.025  -0.207
    1res  C15   15   -0.346  -0.179  -0.017
    1res  C16   16   -0.431  -0.088   0.124
    1res  C17   17   -0.270  -0.345   0.313
    1res  C18   18   -0.475  -0.147   0.370
  10.00000  10.00000  10.00000
