1TPCN00533
11
    1res  C1    1    0.234  -0.306   0.036
    1res  C2    2    0.420  -0.115  -0.203
    1res  C3    3    0.175  -0.002  -0.207
    1res  C4    4    0.141  -0.047   0.028
    1res  C5    5   -0.015  -0.137   0.000
    1res  C6    6   -0.191   0.040  -0.025
    1res  C7    7   -0.499   0.043  -0.111
    1res  C8    8   -0.338   0.108   0.217
    1res  C9    9   -0.108  -0.083   0.248
    1res  C10   10    0.291   0.121   0.039
    1res  C11   11    0.419   0.260  -0.109
  10.00000  10.00000  10.00000
