[ moleculetype ]
; name        nrexcl
res           1

[ atoms ]
;    nr  type  resnr resid  atom  cgnr     charge       mass
      1 SC4       1 res   C1        1      0.000     54.000
      2 TN6a      1 res   C2        2      0.000     36.000
      3 TC3       1 res   C3        3      0.000     36.000
      4 TN4a      1 res   C4        4      0.000     36.000
      5 TN6       1 res   C5        5      0.000     36.000
      6 SN4a      1 res   C6        6      0.000     54.000
      7 TP1       1 res   C7        7      0.000     36.000
      8 SP4       1 res   C8        8      0.000     54.000
      9 TN6       1 res   C9        9      0.000     36.000
     10 TC5       1 res   C10      10      0.000     36.000
     11 TN2a      1 res   C11      11      0.000     36.000

[ constraints ]
;  ai    aj   funct      b0(nm)
    1     2     1      0.35672
   10    11     1      0.25013
    2     3     1      0.27064
    4     5     1      0.18400
    1     4     1      0.27168
    6     8     1      0.29280
    3     4     1      0.24269
    3    10     1      0.29103
    4    10     1      0.22089
    6     7     1      0.31097

[ bonds ]
;  ai    aj   funct      b0(nm)          k(kJ/mol/nm^2)
    6     9     1      0.26677          15402.6
    5     6     1      0.19748           9196.4
    8     9     1      0.31982          19680.1

[ angles ]
;  ai    aj    ak  funct     th0(deg)        k(kJ/mol/rad^2)
    1     2     3     1     74.81751          2578.04
    1     4     3     1     97.53284          1200.66
    1     4     5     1     79.31323           615.02
    1     4    10     1    118.18414           245.62
    2     1     4     1     71.17231          2024.30
    2     3     4     1     92.84155           668.99
    2     3    10     1     79.58525           704.91
    3     4     5     1     92.01731          1711.87
    3     4    10     1     77.62677          2890.06
    3    10     4     1     54.53680          4428.07
    3    10    11     1     84.64863           482.98
    4     3    10     1     47.83648          7884.41
    4     5     6     1    120.23586            42.19
    4    10    11     1    134.20855           450.20
    5     4    10     1    160.09443           235.38
    5     6     7     1    144.72373           151.34
    5     6     8     1     93.68251            29.40
    5     6     9     1     76.09002           179.03
    6     8     9     1     51.36907          1630.15
    6     9     8     1     59.10618          1512.32
    7     6     8     1     69.58253           811.91
    7     6     9     1    110.35029            18.77
    8     6     9     1     69.52487          1356.32

[ dihedrals ]
;  ai    aj    ak    al  funct   phi0(deg)        k(kJ/mol)   mult
    1     2     3     4     1    147.91559        9.291      1
    1     2     3    10     1    101.30847        8.592      1
    1     4     3     2     1   -137.00377       11.475      1
    1     4     3    10     1    -61.08371       11.504      1
    1     4     5     6     1      5.20827       26.179      1
    1     4    10     3     1     88.02287        7.829      1
    1     4    10    11     1    117.36526       16.345      1
    2     1     4     3     1    146.90678       10.030      1
    2     1     4     5     1     55.15556       10.019      1
    2     1     4    10     1   -134.95939       11.511      1
    2     3     4     5     1    -55.22163       11.468      1
    2     3     4    10     1    104.93707        7.022      1
    2     3    10     4     1    -76.97881        7.075      1
    2     3    10    11     1    122.75665       11.478      1
    3     2     1     4     1   -150.85217        8.559      1
    3     4     5     6     1    -94.03346       26.291      1
    3     4    10    11     1   -150.99873       17.043      1
    3    10     4     5     1   -125.03032       17.084      1
    4     3    10    11     1     19.74717       12.158      1
    4     5     6     7     1    -16.85181       25.772      1
    4     5     6     8     1    -43.41481       25.708      1
    4     5     6     9     1   -104.23078       29.288      1
    5     4     3    10     1     18.07161       12.180      1
    5     4    10    11     1    -92.40639       20.350      1
    5     6     8     9     1    118.40975       19.280      1
    5     6     9     8     1    -69.91387       21.727      1
    6     5     4    10     1   -147.64769       27.175      1
    7     6     8     9     1    -38.70597       24.980      1
    7     6     9     8     1    154.32138       23.758      1
