[ moleculetype ]
; name        nrexcl
res           1

[ atoms ]
;    nr  type  resnr resid  atom  cgnr     charge       mass
      1 TC3       1 res   C1        1      0.000     36.000
      2 TC5       1 res   C2        2      0.000     36.000
      3 TC5       1 res   C3        3      0.000     36.000
      4 TN6d      1 res   C4        4      0.000     36.000
      5 TC5       1 res   C5        5      0.000     36.000
      6 TC5       1 res   C6        6      0.000     36.000
      7 TC5       1 res   C7        7      0.000     36.000
      8 TN6a      1 res   C8        8      0.000     36.000
      9 TC3       1 res   C9        9      0.000     36.000
     10 TN6d      1 res   C10      10      0.000     36.000
     11 TC3       1 res   C11      11      0.000     36.000

[ constraints ]
;  ai    aj   funct      b0(nm)
    1     2     1      0.29654
   10    11     1      0.25123
    4     9     1      0.27503
    2     3     1      0.26420
    4     5     1      0.19005
    4     8     1      0.23820
    5     7     1      0.24873
    3     4     1      0.25576
    5     8     1      0.23445
    5     6     1      0.24889
    9    10     1      0.28983
    6     7     1      0.28987
    2    11     1      0.29007
    2     4     1      0.21466
    2    10     1      0.28407

[ bonds ]
;  ai    aj   funct      b0(nm)          k(kJ/mol/nm^2)

[ angles ]
;  ai    aj    ak  funct     th0(deg)        k(kJ/mol/rad^2)
    1     2     3     1     81.19130           826.50
    1     2     4     1    143.59983           821.68
    1     2    10     1    103.20581           460.41
    1     2    11     1     66.89439           674.25
    2     3     4     1     48.71773          6645.22
    2     4     3     1     67.68149          2778.75
    2     4     5     1    149.70613           685.34
    2     4     8     1     93.53755          1276.46
    2     4     9     1     75.59535          2465.03
    2    10     9     1     63.94480          2114.95
    2    10    11     1     65.28548          3969.72
    2    11    10     1     62.83274          3884.80
    3     2     4     1     63.60076          2460.22
    3     2    10     1    138.92311           509.18
    3     2    11     1     96.24553          1330.45
    3     4     5     1     99.69804           693.14
    3     4     8     1    112.85331           468.48
    3     4     9     1    142.34262          1306.36
    4     2    10     1     99.03201           803.79
    4     2    11     1    107.92575           801.38
    4     5     6     1    125.60669          2040.33
    4     5     7     1    162.34304          1708.18
    4     5     8     1     67.33231          3765.03
    4     8     5     1     47.40617          7417.69
    4     9    10     1     85.01812          2219.22
    5     4     8     1     65.26149          3657.89
    5     4     9     1    116.14109           723.59
    5     6     7     1     54.34329         10344.98
    5     7     6     1     54.39664          7265.01
    6     5     7     1     71.26001          5554.65
    6     5     8     1    165.71933          1149.79
    7     5     8     1     95.73526          1263.72
    8     4     9     1     75.78200           602.39
    9    10    11     1    123.29018           807.19
   10     2    11     1     51.88177          4776.12

[ dihedrals ]
;  ai    aj    ak    al  funct   phi0(deg)        k(kJ/mol)   mult
    1     2     3     4     1      6.09978        9.345      1
    1     2     4     3     1   -166.70860       15.036      1
    1     2     4     5     1    122.29228       16.432      1
    1     2     4     8     1     80.96895       17.159      1
    1     2     4     9     1      6.04743       13.674      1
    1     2    10     9     1     19.02847        7.044      1
    1     2    10    11     1   -135.89421        7.834      1
    1     2    11    10     1     49.03286       10.028      1
    2     3     4     5     1    -28.04438        6.280      1
    2     3     4     8     1    -95.95689        6.303      1
    2     3     4     9     1    169.08596       11.489      1
    2     4     5     6     1    -52.06185       12.214      1
    2     4     5     7     1    125.64597       25.298      1
    2     4     5     8     1    132.89329       11.449      1
    2     4     8     5     1    -21.83430        7.790      1
    2     4     9    10     1   -135.90138        6.249      1
    2    10     9     4     1    144.93868        5.462      1
    2    11    10     9     1    152.92422        8.530      1
    3     2     4     5     1    108.10521       12.138      1
    3     2     4     8     1     67.75222        9.230      1
    3     2     4     9     1     -7.03208        8.526      1
    3     2    10     9     1    -71.37966        8.494      1
    3     2    10    11     1    134.95473       11.421      1
    3     2    11    10     1    -28.61646        8.535      1
    3     4     2    10     1    -39.94501        9.220      1
    3     4     2    11     1    -92.76612        8.461      1
    3     4     5     6     1   -114.96230       12.936      1
    3     4     5     7     1     60.14052       22.866      1
    3     4     5     8     1     69.00183        8.528      1
    3     4     8     5     1    -90.89777        7.059      1
    3     4     9    10     1   -127.27363       11.481      1
    4     2    10     9     1   -131.95446        6.250      1
    4     2    10    11     1     74.02424        7.792      1
    4     2    11    10     1    -92.01634        9.203      1
    4     3     2    10     1    106.74293       10.015      1
    4     3     2    11     1     72.05466        9.197      1
    4     5     6     7     1     -1.02228       11.468      1
    4     5     7     6     1      1.57785       20.897      1
    4     8     5     6     1      9.64396       24.070      1
    4     8     5     7     1     -2.97722        8.571      1
    4     9    10    11     1    173.00501       11.399      1
    5     4     2    10     1   -110.74932       10.729      1
    5     4     2    11     1   -163.15813       12.842      1
    5     4     9    10     1     75.00430        7.054      1
    5     8     4     9     1     51.98762        7.802      1
    6     5     4     8     1     -3.86501       10.759      1
    6     5     4     9     1     54.83006       12.869      1
    6     7     5     8     1     -3.07824        9.955      1
    7     5     4     8     1    170.39336       20.337      1
    7     5     4     9     1   -131.86999       22.145      1
    7     6     5     8     1    165.86907       22.973      1
    8     4     2    10     1   -153.89052        7.831      1
    8     4     2    11     1    154.96031        8.519      1
    8     4     9    10     1    127.03247        7.089      1
    8     5     4     9     1   -123.11440        8.547      1
    9     4     2    10     1    133.91071        4.772      1
    9     4     2    11     1     79.13218        5.501      1
    9    10     2    11     1    -25.09449        9.957      1
