1TPCN02305
13
    1res  C1    1    0.425   0.159  -0.170
    1res  C2    2    0.369   0.111   0.125
    1res  C3    3    0.156   0.243   0.116
    1res  C4    4    0.170   0.175  -0.198
    1res  C5    5   -0.104   0.196  -0.079
    1res  C6    6   -0.078   0.016   0.023
    1res  C7    7   -0.318  -0.059  -0.220
    1res  C8    8   -0.175  -0.292  -0.042
    1res  C9    9   -0.079  -0.173   0.199
    1res  C10   10   -0.347  -0.003   0.054
    1res  C11   11   -0.351   0.109   0.296
    1res  C12   12    0.175  -0.042   0.099
    1res  C13   13    0.309  -0.252  -0.210
  10.00000  10.00000  10.00000
