1TPCN04759
39
    1res  C1    1   -0.181   0.185  -0.363
    1res  C2    2    0.086   0.041  -0.402
    1res  C3    3   -0.024   0.115  -0.122
    1res  C4    4   -0.093  -0.167  -0.182
    1res  C5    5   -0.385  -0.194  -0.012
    1res  C6    6   -0.580  -0.087  -0.081
    1res  C7    7   -0.588   0.227  -0.101
    1res  C8    8   -0.381   0.247   0.097
    1res  C9    9   -0.690   0.423   0.071
    1res  C10   10   -0.749   0.196   0.183
    1res  C11   11   -0.813   0.122  -0.045
    1res  C12   12   -1.090   0.209  -0.075
    1res  C13   13   -1.164   0.472   0.085
    1res  C14   14   -1.043   0.470  -0.203
    1res  C15   15   -1.015   0.313  -0.354
    1res  C16   16   -1.020   0.105  -0.293
    1res  C17   17   -0.570  -0.375  -0.033
    1res  C18   18   -0.369  -0.468   0.049
    1res  C19   19   -0.320  -0.566   0.300
    1res  C20   20   -0.292  -0.495   0.601
    1res  C21   21   -0.366  -0.750   0.496
    1res  C22   22   -0.389  -0.829   0.296
    1res  C23   23   -0.499  -0.680   0.136
    1res  C24   24   -0.179  -0.414  -0.048
    1res  C25   25    0.264  -0.131  -0.110
    1res  C26   26    0.205   0.039   0.096
    1res  C27   27    0.313   0.253  -0.223
    1res  C28   28    0.390   0.260   0.106
    1res  C29   29    0.671   0.340   0.009
    1res  C30   30    0.707   0.386  -0.270
    1res  C31   31    0.958   0.322  -0.165
    1res  C32   32    0.794   0.062  -0.268
    1res  C33   33    0.968   0.043  -0.052
    1res  C34   34    1.016  -0.081   0.265
    1res  C35   35    1.072   0.035   0.473
    1res  C36   36    1.237  -0.207   0.318
    1res  C37   37    1.145  -0.340   0.167
    1res  C38   38    1.099  -0.186   0.022
    1res  C39   39    0.580   0.026   0.038
  10.00000  10.00000  10.00000
