113577-71-4
6
    1res  C1    1   -0.131   0.015  -0.079
    1res  C2    2   -0.350  -0.007  -0.016
    1res  C3    3    0.034   0.008  -0.027
    1res  C4    4    0.254   0.033  -0.150
    1res  C5    5    0.258  -0.016   0.113
    1res  C6    6   -0.101  -0.025   0.137
  10.00000  10.00000  10.00000
