1TPCN04438
35
    1res  C1    1    0.257  -0.515  -0.322
    1res  C2    2    0.130  -0.294  -0.172
    1res  C3    3   -0.059  -0.216  -0.121
    1res  C4    4   -0.148   0.010  -0.029
    1res  C5    5   -0.318  -0.073  -0.226
    1res  C6    6   -0.574  -0.226  -0.127
    1res  C7    7   -0.566  -0.010  -0.257
    1res  C8    8   -0.488   0.272  -0.135
    1res  C9    9   -0.768   0.171  -0.226
    1res  C10   10   -0.650   0.137   0.087
    1res  C11   11   -0.804   0.203   0.108
    1res  C12   12   -0.977   0.338   0.244
    1res  C13   13   -0.832   0.557   0.135
    1res  C14   14   -0.944   0.028  -0.020
    1res  C15   15   -0.239  -0.357   0.032
    1res  C16   16   -0.216  -0.429  -0.245
    1res  C17   17    0.307  -0.197  -0.089
    1res  C18   18    0.275  -0.237   0.153
    1res  C19   19    0.391  -0.415   0.228
    1res  C20   20    0.561  -0.546   0.276
    1res  C21   21    0.351  -0.483   0.463
    1res  C22   22    0.129  -0.449   0.332
    1res  C23   23    0.163  -0.189   0.343
    1res  C24   24    0.504  -0.128  -0.037
    1res  C25   25    0.632   0.006   0.156
    1res  C26   26    0.497   0.206   0.111
    1res  C27   27    0.778   0.117   0.023
    1res  C28   28    0.855   0.381   0.041
    1res  C29   29    0.702   0.495  -0.126
    1res  C30   30    1.006   0.581   0.006
    1res  C31   31    1.149   0.450   0.142
    1res  C32   32    1.099   0.219   0.082
    1res  C33   33    0.853  -0.047  -0.077
    1res  C34   34    0.658  -0.132  -0.189
    1res  C35   35    0.461  -0.420  -0.185
  10.00000  10.00000  10.00000
