[ moleculetype ]
; name        nrexcl
res           1

[ atoms ]
;    nr  type resnr resid  atom  cgnr     charge       mass
      1 TC4       1 res   C1        1      0.000     36.000
      2 TN4a      1 res   C2        2      0.000     36.000
      3 TN3r      1 res   C3        3      0.000     36.000
      4 TN4a      1 res   C4        4      0.000     36.000
      5 TN6       1 res   C5        5      0.000     36.000
      6 SN6       1 res   C6        6      0.000     54.000
      7 TN4a      1 res   C7        7      0.000     36.000
      8 TP1       1 res   C8        8      0.000     36.000
      9 TN6       1 res   C9        9      0.000     36.000
     10 SN6       1 res   C10      10      0.000     54.000
     11 TN4a      1 res   C11      11      0.000     36.000
     12 TN6       1 res   C12      12      0.000     36.000
     13 SN6       1 res   C13      13      0.000     54.000
     14 TN6       1 res   C14      14      0.000     36.000
     15 TC4       1 res   C15      15      0.000     36.000
     16 TN4a      1 res   C16      16      0.000     36.000
     17 TN6       1 res   C17      17      0.000     36.000
     18 TN6       1 res   C18      18      0.000     36.000
     19 SC3       1 res   C19      19      0.000     54.000
     20 SC4       1 res   C20      20      0.000     54.000
     21 TC3       1 res   C21      21      0.000     36.000
     22 SC4       1 res   C22      22      0.000     54.000
     23 TC3       1 res   C23      23      0.000     36.000
     24 SC4       1 res   C24      24      0.000     54.000
     25 SC5       1 res   C25      25      0.000     54.000
     26 SC4       1 res   C26      26      0.000     54.000
     27 TC3       1 res   C27      27      0.000     36.000
     28 SN4a      1 res   C28      28      0.000     54.000
     29 SN4a      1 res   C29      29      0.000     54.000
     30 TN3r      1 res   C30      30      0.000     36.000
     31 SN4a      1 res   C31      31      0.000     54.000
     32 TP1       1 res   C32      32      0.000     36.000
     33 TN6       1 res   C33      33      0.000     36.000
     34 TN6       1 res   C34      34      0.000     36.000
     35 TN6       1 res   C35      35      0.000     36.000
     36 TN6       1 res   C36      36      0.000     36.000
     37 TN6       1 res   C37      37      0.000     36.000
     38 TN6       1 res   C38      38      0.000     36.000
     39 TC3       1 res   C39      39      0.000     36.000
     40 SC4       1 res   C40      40      0.000     54.000
     41 TN4a      1 res   C41      41      0.000     36.000
     42 TN6       1 res   C42      42      0.000     36.000
     43 TN6       1 res   C43      43      0.000     36.000
     44 TN6       1 res   C44      44      0.000     36.000
     45 TN6       1 res   C45      45      0.000     36.000
     46 TN6       1 res   C46      46      0.000     36.000
     47 TN6       1 res   C47      47      0.000     36.000
     48 TN6       1 res   C48      48      0.000     36.000
     49 TN6       1 res   C49      49      0.000     36.000
     50 TN6       1 res   C50      50      0.000     36.000
     51 TN6       1 res   C51      51      0.000     36.000

[ bonds ]
;  ai    aj   funct      b0(nm)        k
    1     2     1      0.32115    20000
    1    51     1      0.26144    20000
    2     3     1      0.25731    20000
    2    49     1      0.23897    20000
    3     4     1      0.21387    20000
    4     5     1      0.23569    20000
    4    48     1      0.25711    20000
    5     6     1      0.25514    20000
    5    46     1      0.21534    20000
    6     7     1      0.25869    20000
    6    45     1      0.25775    20000
    7     8     1      0.22098    20000
    7     9     1      0.25530    20000
    9    10     1      0.26938    20000
    9    45     1      0.24008    20000
   10    11     1      0.29510    20000
   10    44     1      0.26283    20000
   11    12     1      0.26744    20000
   12    13     1      0.29614    20000
   12    44     1      0.23776    20000
   13    14     1      0.29567    20000
   13    16     1      0.22938    20000
   14    15     1      0.28968    20000
   15    16     1      0.32232    20000
   16    17     1      0.22658    20000
   17    18     1      0.21223    20000
   17    43     1      0.21905    20000
   18    19     1      0.33859    20000
   18    41     1      0.28358    20000
   19    20     1      0.32253    20000
   19    40     1      0.34052    20000
   20    21     1      0.37228    20000
   20    22     1      0.36503    20000
   20    40     1      0.33144    20000
   21    22     1      0.26726    20000
   22    23     1      0.32383    20000
   22    24     1      0.34419    20000
   23    24     1      0.31637    20000
   24    25     1      0.35243    20000
   24    39     1      0.31208    20000
   25    26     1      0.27825    20000
   25    27     1      0.28377    20000
   25    28     1      0.30456    20000
   25    39     1      0.36151    20000
   26    27     1      0.29646    20000
   28    29     1      0.24229    20000
   29    30     1      0.30128    20000
   29    36     1      0.27249    20000
   29    38     1      0.25082    20000
   30    31     1      0.32318    20000
   31    32     1      0.28911    20000
   31    33     1      0.27023    20000
   31    35     1      0.30676    20000
   33    34     1      0.23434    20000
   34    35     1      0.22131    20000
   36    37     1      0.22791    20000
   37    38     1      0.21141    20000
   41    42     1      0.23022    20000
   42    43     1      0.24269    20000
   46    47     1      0.22292    20000
   47    48     1      0.25206    20000
   49    50     1      0.24137    20000
   50    51     1      0.28062    20000
