[ moleculetype ]
; name        nrexcl
res           1

[ atoms ]
;    nr  type resnr resid  atom  cgnr     charge       mass
      1 N4a       1 res   C1        1      0.000     72.000
      2 SN4a      1 res   C2        2      0.000     54.000
      3 N3r       1 res   C3        3      0.000     72.000
      4 P1        1 res   C4        4      0.000     72.000
      5 TC3       1 res   C5        5      0.000     36.000
      6 TC3       1 res   C6        6      0.000     36.000
      7 SC3       1 res   C7        7      0.000     54.000
      8 SC4       1 res   C8        8      0.000     54.000
      9 TC3       1 res   C9        9      0.000     36.000
     10 SC4       1 res   C10      10      0.000     54.000
     11 SC4       1 res   C11      11      0.000     54.000
     12 TN6       1 res   C12      12      0.000     36.000
     13 TN4a      1 res   C13      13      0.000     36.000
     14 TC4       1 res   C14      14      0.000     36.000
     15 TN6       1 res   C15      15      0.000     36.000
     16 SN4a      1 res   C16      16      0.000     54.000
     17 TN3r      1 res   C17      17      0.000     36.000
     18 SN4a      1 res   C18      18      0.000     54.000
     19 TN6       1 res   C19      19      0.000     36.000
     20 SN4a      1 res   C20      20      0.000     54.000
     21 TN6       1 res   C21      21      0.000     36.000
     22 SN4a      1 res   C22      22      0.000     54.000
     23 TP1       1 res   C23      23      0.000     36.000
     24 TN6       1 res   C24      24      0.000     36.000
     25 TN6       1 res   C25      25      0.000     36.000
     26 TN6       1 res   C26      26      0.000     36.000
     27 TN6       1 res   C27      27      0.000     36.000
     28 TN6       1 res   C28      28      0.000     36.000
     29 TN6       1 res   C29      29      0.000     36.000
     30 TN6       1 res   C30      30      0.000     36.000
     31 TN6       1 res   C31      31      0.000     36.000
     32 TN6       1 res   C32      32      0.000     36.000
     33 TN6       1 res   C33      33      0.000     36.000
     34 TN6       1 res   C34      34      0.000     36.000
     35 TN6       1 res   C35      35      0.000     36.000
     36 TC3       1 res   C36      36      0.000     36.000
     37 TC3       1 res   C37      37      0.000     36.000
     38 TN6       1 res   C38      38      0.000     36.000
     39 TN6       1 res   C39      39      0.000     36.000
     40 TN6       1 res   C40      40      0.000     36.000

[ bonds ]
;  ai    aj   funct      b0(nm)        k
    1     2     1      0.35636    20000
    2     3     1      0.32270    20000
    2    38     1      0.31062    20000
    2    40     1      0.27092    20000
    3     4     1      0.34583    20000
    4     5     1      0.27388    20000
    5     6     1      0.25066    20000
    6     7     1      0.20953    20000
    7     8     1      0.23856    20000
    7    37     1      0.30576    20000
    8     9     1      0.23471    20000
    8    10     1      0.25408    20000
    8    37     1      0.27740    20000
    9    10     1      0.29389    20000
   10    11     1      0.36770    20000
   10    36     1      0.29599    20000
   11    12     1      0.24769    20000
   12    13     1      0.22424    20000
   12    36     1      0.24402    20000
   13    14     1      0.29730    20000
   13    35     1      0.24252    20000
   14    15     1      0.24044    20000
   15    16     1      0.28555    20000
   15    34     1      0.22688    20000
   16    17     1      0.23920    20000
   16    31     1      0.25141    20000
   16    33     1      0.26790    20000
   17    18     1      0.34512    20000
   18    19     1      0.24520    20000
   18    30     1      0.29803    20000
   19    20     1      0.30201    20000
   19    29     1      0.21620    20000
   20    21     1      0.25175    20000
   20    28     1      0.31081    20000
   21    22     1      0.28993    20000
   21    27     1      0.24044    20000
   22    23     1      0.24478    20000
   22    24     1      0.27655    20000
   22    26     1      0.25912    20000
   24    25     1      0.23862    20000
   25    26     1      0.21796    20000
   27    28     1      0.22527    20000
   29    30     1      0.21210    20000
   31    32     1      0.23656    20000
   32    33     1      0.22207    20000
   34    35     1      0.26771    20000
   38    39     1      0.24539    20000
   39    40     1      0.25038    20000
