[ moleculetype ]
; name        nrexcl
res           1

[ atoms ]
;    nr  type  resnr resid  atom  cgnr     charge       mass
      1 TC3       1 res   C1        1      0.000     36.000
      2 TC3       1 res   C2        2      0.000     36.000
      3 TN6d      1 res   C3        3      0.000     36.000
      4 TC3       1 res   C4        4      0.000     36.000
      5 TC5       1 res   C5        5      0.000     36.000
      6 TC5       1 res   C6        6      0.000     36.000
      7 TC5       1 res   C7        7      0.000     36.000
      8 TC5       1 res   C8        8      0.000     36.000
      9 TN6d      1 res   C9        9      0.000     36.000
     10 TN2a      1 res   C10      10      0.000     36.000
     11 SN6       1 res   C11      11      0.000     54.000
     12 TC3       1 res   C12      12      0.000     36.000
     13 N4a       1 res   C13      13      0.000     72.000

[ constraints ]
;  ai    aj   funct      b0(nm)
    1     2     1      0.26780
    5    11     1      0.27455
   10    11     1      0.19796
    2     3     1      0.26486
    4     5     1      0.26921
    6     9     1      0.24713
    2    12     1      0.28345
    5    13     1      0.33216
    6     8     1      0.25070
    3     4     1      0.28532
    7     8     1      0.29021
    5     6     1      0.21856
    9    10     1      0.20293
    6     7     1      0.24995
    5     9     1      0.24876
    5    12     1      0.27069
    3    12     1      0.24745

[ bonds ]
;  ai    aj   funct      b0(nm)          k(kJ/mol/nm^2)
    3    11     1      0.25258          15485.8

[ angles ]
;  ai    aj    ak  funct     th0(deg)        k(kJ/mol/rad^2)
    1     2     3     1    146.08464           323.27
    1     2    12     1    102.99338           668.71
    2     3     4     1     65.57798          1531.05
    2     3    11     1    133.57150           444.83
    2     3    12     1     67.07524          3904.32
    2    12     3     1     59.39830          3053.27
    2    12     5     1     80.38280          1686.82
    3     2    12     1     53.52639          3942.52
    3     4     5     1     64.78940          5093.50
    3    11     5     1     68.43409          4383.23
    3    11    10     1     80.74980           636.27
    3    12     5     1     69.89038          4361.80
    4     3    11     1     74.13616           610.66
    4     3    12     1    102.71670          1603.40
    4     5     6     1    104.73234          1462.94
    4     5     9     1    161.27289           833.27
    4     5    11     1     73.42186          1080.43
    4     5    12     1    101.03716          3281.98
    4     5    13     1    105.68428           429.86
    5     6     7     1    117.03564          2188.79
    5     6     8     1    166.60836           355.27
    5     6     9     1     64.23485          3559.86
    5     9     6     1     52.29687          5866.88
    5     9    10     1     59.40994          3803.31
    5    11    10     1     54.67487          1599.92
    6     5     9     1     63.46831          4504.82
    6     5    11     1     73.54454           413.77
    6     5    12     1    144.34454          1391.59
    6     5    13     1     84.37533           315.73
    6     7     8     1     54.68907          7962.15
    6     8     7     1     54.44997          9000.53
    6     9    10     1     76.85595           948.72
    7     6     8     1     70.86094          4286.40
    7     6     9     1    170.70558           223.26
    8     6     9     1    108.98831          1470.88
    9     5    11     1     89.07480           720.14
    9     5    12     1     84.93794          2239.16
    9     5    13     1     87.92736           324.60
    9    10    11     1    133.21146           194.66
   11     3    12     1    102.22526          1106.97
   11     5    12     1     91.16801           520.44
   11     5    13     1    156.16686           319.61
   12     5    13     1    111.64102           780.41

[ dihedrals ]
;  ai    aj    ak    al  funct   phi0(deg)        k(kJ/mol)   mult
    1     2     3     4     1    108.66576       24.295      1
    1     2     3    11     1    140.84097       26.946      1
    1     2     3    12     1   -133.88256       24.518      1
    1     2    12     3     1     24.52746       15.729      1
    1     2    12     5     1     97.04580       17.168      1
    2     3     4     5     1    -86.99751        4.031      1
    2     3    11     5     1   -152.13688        7.850      1
    2     3    11    10     1    -96.02779       10.799      1
    2     3    12     5     1     89.25720        5.517      1
    2    12     3     4     1   -123.98572        6.266      1
    2    12     3    11     1    -47.97083        7.874      1
    2    12     5     4     1    156.00690        6.285      1
    2    12     5     6     1     19.96279        9.308      1
    2    12     5     9     1     -7.10294        8.506      1
    2    12     5    11     1     82.94230        7.050      1
    2    12     5    13     1    -92.95193        8.596      1
    3     2    12     5     1   -108.90237        3.979      1
    3     4     5     6     1    -56.99379        5.583      1
    3     4     5     9     1   -102.23642       15.043      1
    3     4     5    11     1   -124.99298        7.095      1
    3     4     5    12     1    147.05035        4.009      1
    3     4     5    13     1     30.87706        8.549      1
    3    11     5     4     1    114.08189        4.760      1
    3    11     5     6     1      2.11046        9.204      1
    3    11     5     9     1    -58.98984        7.035      1
    3    11     5    12     1   -144.89255        5.543      1
    3    11     5    13     1     24.25937       17.787      1
    3    11    10     9     1     59.06516       11.507      1
    3    12     5     4     1   -143.01249        5.485      1
    3    12     5     6     1     80.02200        9.291      1
    3    12     5     9     1     53.11886        7.045      1
    3    12     5    11     1    143.01867        5.565      1
    3    12     5    13     1    -31.05599        8.599      1
    4     3     2    12     1     62.98315        5.560      1
    4     3    11     5     1   -121.00119        5.523      1
    4     3    11    10     1    -66.14980        9.295      1
    4     3    12     5     1    145.96704        3.238      1
    4     5     6     7     1   -175.05738       14.392      1
    4     5     6     8     1    -25.27737       26.325      1
    4     5     6     9     1     15.02426        8.520      1
    4     5     9     6     1   -128.37682       16.340      1
    4     5     9    10     1    134.12291       16.425      1
    4     5    11    10     1     20.07176        9.320      1
    5     4     3    11     1    116.96884        5.554      1
    5     4     3    12     1   -143.99535        3.258      1
    5     6     7     8     1     -6.93049       12.985      1
    5     6     8     7     1     24.97953       25.748      1
    5     6     9    10     1   -118.98778        5.494      1
    5     9     6     7     1     68.44763       21.044      1
    5     9     6     8     1     -9.83237       12.241      1
    5     9    10    11     1   -126.95631        9.993      1
    5    11     3    12     1    138.95707        7.025      1
    5    11    10     9     1    130.10335        9.307      1
    5    12     3    11     1   -138.91376        8.544      1
    6     5     9    10     1     82.06057        7.825      1
    6     5    11    10     1    -90.02135        7.859      1
    6     9     5    11     1   -108.00351        9.316      1
    6     9     5    12     1    -16.04367        6.351      1
    6     9     5    13     1     95.81778        9.285      1
    6     9    10    11     1    179.88713       10.785      1
    7     6     5     9     1     -9.99272       12.260      1
    7     6     5    11     1   -105.11161       14.351      1
    7     6     5    12     1    -36.07986       15.083      1
    7     6     5    13     1     80.07231       13.656      1
    7     6     9    10     1    129.69127       22.563      1
    7     8     6     9     1     -9.96980       12.252      1
    8     6     5     9     1    141.14810       25.774      1
    8     6     5    11     1     41.93409       23.226      1
    8     6     5    12     1    111.51956       24.829      1
    8     6     5    13     1   -133.43534       24.474      1
    8     6     9    10     1     52.86569       14.355      1
    8     7     6     9     1     95.48557       22.338      1
    9     5    11    10     1   -153.92476        7.843      1
    9     6     5    11     1     81.72911        9.218      1
    9     6     5    12     1    151.92976       10.764      1
    9     6     5    13     1    -88.12251        9.299      1
   10     9     5    11     1    155.00272        8.573      1
   10     9     5    12     1   -115.86997        7.756      1
   10     9     5    13     1     -3.06821        9.959      1
   10    11     3    12     1   -166.96234       10.077      1
   10    11     5    12     1    122.03796        7.805      1
   10    11     5    13     1    -69.59829       18.982      1
   11     3     2    12     1     94.07508        7.832      1
