1TPCN05863
17
    1res  C1    1   -0.623  -0.146  -0.296
    1res  C2    2   -0.293  -0.262  -0.236
    1res  C3    3   -0.198  -0.209   0.025
    1res  C4    4   -0.019   0.080  -0.125
    1res  C5    5   -0.024   0.360   0.018
    1res  C6    6    0.069   0.587   0.120
    1res  C7    7    0.272   0.465   0.080
    1res  C8    8    0.202   0.403  -0.120
    1res  C9    9    0.078  -0.175  -0.123
    1res  C10   10    0.183  -0.261   0.054
    1res  C11   11    0.211   0.021   0.236
    1res  C12   12    0.490  -0.048   0.188
    1res  C13   13    0.640   0.118  -0.090
    1res  C14   14    0.615  -0.301   0.152
    1res  C15   15   -0.370   0.072  -0.227
    1res  C16   16   -0.484  -0.004   0.101
    1res  C17   17   -0.643  -0.025   0.450
  10.00000  10.00000  10.00000
