1TPCN03265
16
    1res  C1    1   -0.212   0.458   0.036
    1res  C2    2   -0.017   0.247   0.092
    1res  C3    3   -0.188   0.165  -0.071
    1res  C4    4   -0.306   0.054  -0.220
    1res  C5    5   -0.015  -0.159  -0.186
    1res  C6    6    0.185   0.039   0.030
    1res  C7    7    0.408  -0.005  -0.020
    1res  C8    8    0.577  -0.086  -0.140
    1res  C9    9    0.571  -0.055   0.171
    1res  C10   10    0.368  -0.100   0.309
    1res  C11   11    0.277   0.099   0.250
    1res  C12   12   -0.118  -0.266   0.087
    1res  C13   13   -0.340  -0.249  -0.014
    1res  C14   14   -0.527  -0.270  -0.104
    1res  C15   15   -0.463  -0.297   0.176
    1res  C16   16   -0.269  -0.190  -0.283
  10.00000  10.00000  10.00000
