[ moleculetype ]
; name        nrexcl
res           1

[ atoms ]
;    nr  type  resnr resid  atom  cgnr     charge       mass
      1 TC4       1 res   C1        1      0.000     36.000
      2 SN6a      1 res   C2        2      0.000     54.000
      3 SC3       1 res   C3        3      0.000     54.000
      4 TN6       1 res   C4        4      0.000     36.000
      5 SN5a      1 res   C5        5      0.000     54.000
      6 N4a       1 res   C6        6      0.000     72.000
      7 TC5       1 res   C7        7      0.000     36.000
      8 TC5       1 res   C8        8      0.000     36.000
      9 TC5       1 res   C9        9      0.000     36.000

[ constraints ]
;  ai    aj   funct      b0(nm)
    1     2     1      0.31862
    3     5     1      0.27055
    2     3     1      0.29540
    1     5     1      0.31173
    4     5     1      0.29790
    7     9     1      0.29740
    3     4     1      0.30559
    7     8     1      0.25570
    6     7     1      0.31125
    3     6     1      0.32511
    8     9     1      0.28785

[ bonds ]
;  ai    aj   funct      b0(nm)          k(kJ/mol/nm^2)
    1     4     1      0.27713           9624.2

[ angles ]
;  ai    aj    ak  funct     th0(deg)        k(kJ/mol/rad^2)
    1     2     3     1     88.93563          4022.80
    1     4     3     1     95.08307          1784.57
    1     4     5     1     65.60981           923.57
    1     5     3     1     95.08692          2332.50
    1     5     4     1     54.00846           783.65
    2     1     4     1     82.40502          1468.82
    2     1     5     1     69.50386          6037.74
    2     3     4     1     81.82349          1506.06
    2     3     5     1     78.70814          2996.57
    2     3     6     1     91.52449          1098.43
    3     4     5     1     53.20568          6002.41
    3     5     4     1     64.86729           966.17
    3     6     7     1    101.70623           587.85
    4     1     5     1     60.38122          2722.40
    4     3     5     1     61.92700          1321.24
    4     3     6     1    133.09406           835.76
    5     3     6     1     71.34841          1589.08
    6     7     8     1    164.07861          1057.37
    6     7     9     1    103.06026          1405.98
    7     8     9     1     66.03541         12567.76
    7     9     8     1     51.78142         12654.43
    8     7     9     1     62.18316         13463.85

[ dihedrals ]
;  ai    aj    ak    al  funct   phi0(deg)        k(kJ/mol)   mult
    1     2     3     4     1   -156.97402        5.552      1
    1     2     3     5     1    140.98247        4.025      1
    1     2     3     6     1     69.97415        6.270      1
    1     4     3     2     1    152.95528        5.530      1
    1     4     3     5     1   -125.05567        5.576      1
    1     4     3     6     1   -122.99233       10.024      1
    1     4     5     3     1     62.97524        5.487      1
    1     5     3     2     1   -140.88674        3.976      1
    1     5     3     4     1    134.92020        5.534      1
    1     5     3     6     1    -44.93452        6.998      1
    1     5     4     3     1    -62.97524        5.487      1
    2     1     4     3     1   -154.99973        5.496      1
    2     1     4     5     1   -109.04316        3.976      1
    2     1     5     3     1    141.91529        4.742      1
    2     1     5     4     1     87.04010        5.542      1
    2     3     4     5     1     98.03158        4.783      1
    2     3     5     4     1    -93.97692        6.242      1
    2     3     6     7     1     79.94728        7.815      1
    3     2     1     4     1    153.06297        5.493      1
    3     2     1     5     1   -145.00330        4.001      1
    3     4     1     5     1    134.95341        3.955      1
    3     5     1     4     1   -126.92968        5.551      1
    3     6     7     8     1     66.88413       24.269      1
    3     6     7     9     1     78.73130       11.422      1
    4     3     6     7     1     -1.03492       10.052      1
    4     5     3     6     1      2.02688        7.803      1
    5     3     6     7     1      1.96112        7.804      1
    5     4     3     6     1   -176.99878       10.014      1
    6     7     8     9     1   -161.69055       25.265      1
    6     7     9     8     1      6.84970       10.021      1
