[ moleculetype ]
; name        nrexcl
res           1

[ atoms ]
;    nr  type  resnr resid  atom  cgnr     charge       mass
      1 TX3       1 res   C1        1      0.000     36.000
      2 TX3       1 res   C2        2      0.000     36.000
      3 TX3       1 res   C3        3      0.000     36.000
      4 TX3       1 res   C4        4      0.000     36.000
      5 SX3       1 res   C5        5      0.000     54.000

[ constraints ]
;  ai    aj   funct      b0(nm)
    1     2     1      0.22151
    2     3     1      0.22796
    1     5     1      0.28325
    4     5     1      0.27101
    3     4     1      0.22079

[ bonds ]
;  ai    aj   funct      b0(nm)          k(kJ/mol/nm^2)

[ angles ]
;  ai    aj    ak  funct     th0(deg)        k(kJ/mol/rad^2)
    1     2     3     1     98.84650           194.99
    1     5     4     1     94.48770           499.11
    2     1     5     1     90.98932           320.17
    2     3     4     1     99.99736           158.21
    3     4     5     1     94.71977           341.37

[ dihedrals ]
;  ai    aj    ak    al  funct   phi0(deg)        k(kJ/mol)   mult
    1     2     3     4     1    124.78250       17.650      1
    1     5     4     3     1    169.46464       25.484      1
    2     1     5     4     1    162.25560       26.484      1
    2     3     4     5     1   -150.83957       24.363      1
    3     2     1     5     1   -140.86236       19.401      1
