1TPCN00424
26
    1res  C1    1   -0.254  -0.341   0.273
    1res  C2    2   -0.446  -0.205   0.152
    1res  C3    3   -0.615  -0.002   0.115
    1res  C4    4   -0.579  -0.114  -0.093
    1res  C5    5   -0.466   0.073  -0.178
    1res  C6    6   -0.164   0.224  -0.057
    1res  C7    7   -0.374   0.279  -0.053
    1res  C8    8   -0.331   0.499   0.057
    1res  C9    9   -0.593   0.398  -0.026
    1res  C10   10   -0.183  -0.084  -0.119
    1res  C11   11   -0.069   0.061  -0.315
    1res  C12   12   -0.206   0.102  -0.587
    1res  C13   13    0.125   0.165  -0.445
    1res  C14   14    0.109   0.091  -0.206
    1res  C15   15    0.241   0.095  -0.085
    1res  C16   16    0.057   0.004  -0.016
    1res  C17   17    0.347   0.122   0.135
    1res  C18   18    0.083  -0.088   0.315
    1res  C19   19    0.425  -0.157   0.073
    1res  C20   20    0.517  -0.015   0.295
    1res  C21   21    0.432   0.109   0.497
    1res  C22   22    0.593   0.048   0.062
    1res  C23   23    0.466   0.219  -0.143
    1res  C24   24    0.769   0.015  -0.128
    1res  C25   25   -0.349  -0.236  -0.138
    1res  C26   26   -0.577  -0.487  -0.095
  10.00000  10.00000  10.00000
