[ moleculetype ]
; name        nrexcl
res           1

[ atoms ]
;    nr  type resnr resid  atom  cgnr     charge       mass
      1 TC4       1 res   C1        1      0.000     36.000
      2 TN4a      1 res   C2        2      0.000     36.000
      3 TN6       1 res   C3        3      0.000     36.000
      4 TN6       1 res   C4        4      0.000     36.000
      5 SC3       1 res   C5        5      0.000     54.000
      6 SC4       1 res   C6        6      0.000     54.000
      7 TC3       1 res   C7        7      0.000     36.000
      8 SC4       1 res   C8        8      0.000     54.000
      9 TC3       1 res   C9        9      0.000     36.000
     10 SC4       1 res   C10      10      0.000     54.000
     11 SC5       1 res   C11      11      0.000     54.000
     12 SC4       1 res   C12      12      0.000     54.000
     13 TC3       1 res   C13      13      0.000     36.000
     14 SN4a      1 res   C14      14      0.000     54.000
     15 TN4a      1 res   C15      15      0.000     36.000
     16 TC3       1 res   C16      16      0.000     36.000
     17 TN6       1 res   C17      17      0.000     36.000
     18 TN4a      1 res   C18      18      0.000     36.000
     19 TP1       1 res   C19      19      0.000     36.000
     20 TN6       1 res   C20      20      0.000     36.000
     21 TN6       1 res   C21      21      0.000     36.000
     22 TN6       1 res   C22      22      0.000     36.000
     23 TN6       1 res   C23      23      0.000     36.000
     24 TN6       1 res   C24      24      0.000     36.000
     25 TC3       1 res   C25      25      0.000     36.000
     26 TC4       1 res   C26      26      0.000     36.000
     27 TP1       1 res   C27      27      0.000     36.000
     28 TN4a      1 res   C28      28      0.000     36.000
     29 TN6       1 res   C29      29      0.000     36.000
     30 TN6       1 res   C30      30      0.000     36.000
     31 TN6       1 res   C31      31      0.000     36.000
     32 SN6       1 res   C32      32      0.000     54.000
     33 TN6       1 res   C33      33      0.000     36.000
     34 TN4a      1 res   C34      34      0.000     36.000
     35 TP1       1 res   C35      35      0.000     36.000
     36 TN6       1 res   C36      36      0.000     36.000
     37 SN4a      1 res   C37      37      0.000     54.000
     38 TP1       1 res   C38      38      0.000     36.000
     39 TN6       1 res   C39      39      0.000     36.000
     40 TN6       1 res   C40      40      0.000     36.000
     41 TN6       1 res   C41      41      0.000     36.000
     42 TN6       1 res   C42      42      0.000     36.000
     43 TN6       1 res   C43      43      0.000     36.000

[ bonds ]
;  ai    aj   funct      b0(nm)        k
    1     2     1      0.32154    20000
    1    32     1      0.29971    20000
    2     3     1      0.22084    20000
    2    31     1      0.23110    20000
    3     4     1      0.22114    20000
    3    30     1      0.21869    20000
    4     5     1      0.33417    20000
    4    28     1      0.25920    20000
    5     6     1      0.29859    20000
    5    26     1      0.38440    20000
    6     7     1      0.37504    20000
    6     8     1      0.37033    20000
    6    26     1      0.40059    20000
    7     8     1      0.28495    20000
    8     9     1      0.37884    20000
    8    10     1      0.31151    20000
    9    10     1      0.39772    20000
   10    11     1      0.32065    20000
   10    25     1      0.30285    20000
   11    12     1      0.29804    20000
   11    13     1      0.29408    20000
   11    14     1      0.32513    20000
   11    25     1      0.38143    20000
   12    13     1      0.28783    20000
   14    15     1      0.24251    20000
   15    16     1      0.25523    20000
   15    24     1      0.24842    20000
   16    17     1      0.26457    20000
   16    23     1      0.30445    20000
   17    18     1      0.27039    20000
   17    22     1      0.21504    20000
   18    19     1      0.23641    20000
   18    20     1      0.24423    20000
   20    21     1      0.27662    20000
   21    22     1      0.22023    20000
   23    24     1      0.23583    20000
   26    27     1      0.28449    20000
   28    29     1      0.24861    20000
   29    30     1      0.24910    20000
   31    32     1      0.33501    20000
   32    33     1      0.24526    20000
   33    34     1      0.24155    20000
   33    43     1      0.22339    20000
   34    35     1      0.21977    20000
   34    36     1      0.22362    20000
   36    37     1      0.25352    20000
   36    42     1      0.24189    20000
   37    38     1      0.29531    20000
   37    39     1      0.30461    20000
   37    41     1      0.25852    20000
   39    40     1      0.21765    20000
   40    41     1      0.25029    20000
   42    43     1      0.26014    20000
