1TPCN05591
23
    1res  C1    1    1.153   0.192   0.114
    1res  C2    2    0.887   0.177  -0.118
    1res  C3    3    0.742  -0.013  -0.004
    1res  C4    4    0.651  -0.070   0.205
    1res  C5    5    0.445  -0.198   0.049
    1res  C6    6    0.324   0.024   0.137
    1res  C7    7    0.020  -0.119   0.119
    1res  C8    8   -0.061  -0.017  -0.094
    1res  C9    9   -0.252   0.232  -0.067
    1res  C10   10   -0.281   0.034  -0.219
    1res  C11   11   -0.369  -0.242  -0.093
    1res  C12   12   -0.528  -0.059  -0.286
    1res  C13   13   -0.713  -0.147   0.007
    1res  C14   14   -0.954  -0.264   0.083
    1res  C15   15   -0.897   0.018   0.140
    1res  C16   16   -0.588   0.070   0.247
    1res  C17   17   -0.636   0.182  -0.123
    1res  C18   18    0.027   0.215   0.210
    1res  C19   19    0.172   0.267  -0.031
    1res  C20   20    0.446   0.037   0.317
    1res  C21   21    0.712  -0.098  -0.204
    1res  C22   22    0.908  -0.063  -0.344
    1res  C23   23    1.074   0.045  -0.207
  10.00000  10.00000  10.00000
