Generated with MDTraj, t= 0.0
 87
    1UNL     C1    1  -0.138  -0.475  -0.141
    1UNL     C2    2  -0.088  -0.371  -0.203
    1UNL     C3    3  -0.091  -0.233  -0.147
    1UNL     C4    4   0.023  -0.148  -0.209
    1UNL     O1    5   0.151  -0.209  -0.182
    1UNL     C5    6   0.232  -0.133  -0.093
    1UNL     O2    7   0.367  -0.180  -0.090
    1UNL     C6    8   0.378  -0.314  -0.043
    1UNL     C7    9   0.525  -0.356  -0.044
    1UNL     O3   10   0.598  -0.278   0.047
    1UNL     C8   11   0.321  -0.326   0.101
    1UNL     O4   12   0.330  -0.456   0.156
    1UNL     C9   13   0.176  -0.276   0.104
    1UNL     O5   14   0.122  -0.288   0.234
    1UNL    C10   15   0.172  -0.132   0.050
    1UNL     O6   16   0.245  -0.046   0.136
    1UNL    C11   17   0.229   0.090   0.101
    1UNL     O7   18   0.296   0.128  -0.021
    1UNL    C12   19   0.421   0.195  -0.002
    1UNL    C13   20   0.525   0.105   0.065
    1UNL     O8   21   0.572   0.006  -0.023
    1UNL    C14   22   0.401   0.333   0.071
    1UNL     O9   23   0.382   0.437  -0.022
    1UNL    C15   24   0.279   0.329   0.169
    1UNL    O10   25   0.162   0.374   0.103
    1UNL    C16   26   0.260   0.185   0.223
    1UNL    O11   27   0.373   0.141   0.296
    1UNL    O12   28  -0.000  -0.122  -0.349
    1UNL    C17   29  -0.122  -0.066  -0.371
    1UNL    C18   30  -0.230  -0.074  -0.289
    1UNL    C19   31  -0.349   0.005  -0.313
    1UNL    O13   32  -0.364   0.065  -0.419
    1UNL     N1   33  -0.445   0.014  -0.212
    1UNL    C20   34  -0.563   0.098  -0.238
    1UNL    C21   35  -0.559   0.227  -0.156
    1UNL    C22   36  -0.513   0.200  -0.016
    1UNL    C23   37  -0.452   0.083   0.023
    1UNL     N2   38  -0.422   0.090   0.157
    1UNL    C24   39  -0.464   0.213   0.206
    1UNL    C25   40  -0.458   0.270   0.334
    1UNL    C26   41  -0.509   0.395   0.352
    1UNL    C27   42  -0.567   0.466   0.245
    1UNL    C28   43  -0.574   0.412   0.120
    1UNL    C29   44  -0.522   0.284   0.099
    1UNL    C30   45  -0.421  -0.030  -0.071
    1UNL    C31   46  -0.279  -0.085  -0.047
    1UNL    C32   47  -0.229  -0.164  -0.169
    1UNL     H1   48  -0.184  -0.465  -0.044
    1UNL     H2   49  -0.136  -0.574  -0.184
    1UNL     H3   50  -0.044  -0.382  -0.301
    1UNL     H4   51  -0.074  -0.241  -0.039
    1UNL     H5   52   0.023  -0.048  -0.163
    1UNL     H6   53   0.238  -0.031  -0.133
    1UNL     H7   54   0.319  -0.376  -0.111
    1UNL     H8   55   0.566  -0.343  -0.145
    1UNL     H9   56   0.535  -0.462  -0.016
    1UNL    H10   57   0.695  -0.294   0.038
    1UNL    H11   58   0.381  -0.261   0.166
    1UNL    H12   59   0.280  -0.519   0.099
    1UNL    H13   60   0.116  -0.341   0.038
    1UNL    H14   61   0.172  -0.359   0.282
    1UNL    H15   62   0.068  -0.096   0.050
    1UNL    H16   63   0.122   0.104   0.078
    1UNL    H17   64   0.456   0.217  -0.104
    1UNL    H18   65   0.612   0.162   0.098
    1UNL    H19   66   0.482   0.055   0.153
    1UNL    H20   67   0.501  -0.058  -0.045
    1UNL    H21   68   0.492   0.356   0.128
    1UNL    H22   69   0.455   0.439  -0.088
    1UNL    H23   70   0.297   0.398   0.253
    1UNL    H24   71   0.188   0.429   0.026
    1UNL    H25   72   0.174   0.182   0.292
    1UNL    H26   73   0.386   0.197   0.376
    1UNL    H27   74  -0.131  -0.008  -0.462
    1UNL    H28   75  -0.566   0.119  -0.345
    1UNL    H29   76  -0.653   0.039  -0.215
    1UNL    H30   77  -0.658   0.275  -0.153
    1UNL    H31   78  -0.491   0.299  -0.202
    1UNL    H32   79  -0.375   0.018   0.213
    1UNL    H33   80  -0.413   0.215   0.414
    1UNL    H34   81  -0.505   0.441   0.449
    1UNL    H35   82  -0.606   0.565   0.263
    1UNL    H36   83  -0.618   0.466   0.038
    1UNL    H37   84  -0.494  -0.110  -0.051
    1UNL    H38   85  -0.276  -0.147   0.043
    1UNL    H39   86  -0.212  -0.001  -0.028
    1UNL    H40   87  -0.302  -0.244  -0.190
   0.00000   0.00000   0.00000   0.00000   0.00000   0.00000   0.00000   0.00000   0.00000
Generated with MDTraj, t= 1.0
 87
    1UNL     C1    1  -0.063  -0.458  -0.095
    1UNL     C2    2  -0.075  -0.370  -0.193
    1UNL     C3    3  -0.090  -0.221  -0.154
    1UNL     C4    4   0.027  -0.141  -0.227
    1UNL     O1    5   0.159  -0.203  -0.198
    1UNL     C5    6   0.237  -0.143  -0.097
    1UNL     O2    7   0.372  -0.194  -0.095
    1UNL     C6    8   0.384  -0.324  -0.042
    1UNL     C7    9   0.532  -0.361  -0.040
    1UNL     O3   10   0.597  -0.312   0.077
    1UNL     C8   11   0.316  -0.327   0.104
    1UNL     O4   12   0.331  -0.448   0.182
    1UNL     C9   13   0.172  -0.284   0.094
    1UNL     O5   14   0.104  -0.294   0.216
    1UNL    C10   15   0.174  -0.133   0.038
    1UNL     O6   16   0.242  -0.042   0.123
    1UNL    C11   17   0.221   0.094   0.086
    1UNL     O7   18   0.305   0.119  -0.031
    1UNL    C12   19   0.429   0.186  -0.004
    1UNL    C13   20   0.523   0.102   0.071
    1UNL     O8   21   0.573  -0.003  -0.016
    1UNL    C14   22   0.401   0.332   0.054
    1UNL     O9   23   0.357   0.439  -0.036
    1UNL    C15   24   0.290   0.330   0.159
    1UNL    O10   25   0.168   0.375   0.109
    1UNL    C16   26   0.250   0.186   0.206
    1UNL    O11   27   0.360   0.147   0.286
    1UNL    O12   28  -0.005  -0.113  -0.359
    1UNL    C17   29  -0.127  -0.052  -0.376
    1UNL    C18   30  -0.239  -0.062  -0.288
    1UNL    C19   31  -0.357   0.022  -0.308
    1UNL    O13   32  -0.359   0.098  -0.404
    1UNL     N1   33  -0.457   0.004  -0.215
    1UNL    C20   34  -0.571   0.100  -0.229
    1UNL    C21   35  -0.543   0.234  -0.159
    1UNL    C22   36  -0.504   0.203  -0.017
    1UNL    C23   37  -0.447   0.085   0.020
    1UNL     N2   38  -0.429   0.084   0.159
    1UNL    C24   39  -0.457   0.213   0.209
    1UNL    C25   40  -0.464   0.262   0.338
    1UNL    C26   41  -0.521   0.381   0.361
    1UNL    C27   42  -0.575   0.460   0.257
    1UNL    C28   43  -0.576   0.413   0.129
    1UNL    C29   44  -0.519   0.282   0.104
    1UNL    C30   45  -0.424  -0.035  -0.068
    1UNL    C31   46  -0.282  -0.097  -0.049
    1UNL    C32   47  -0.231  -0.160  -0.174
    1UNL     H1   48  -0.042  -0.443   0.006
    1UNL     H2   49  -0.064  -0.566  -0.120
    1UNL     H3   50  -0.079  -0.407  -0.293
    1UNL     H4   51  -0.060  -0.201  -0.053
    1UNL     H5   52   0.043  -0.044  -0.181
    1UNL     H6   53   0.247  -0.041  -0.132
    1UNL     H7   54   0.321  -0.382  -0.114
    1UNL     H8   55   0.589  -0.311  -0.121
    1UNL     H9   56   0.549  -0.474  -0.049
    1UNL    H10   57   0.557  -0.364   0.156
    1UNL    H11   58   0.352  -0.242   0.159
    1UNL    H12   59   0.239  -0.467   0.216
    1UNL    H13   60   0.119  -0.351   0.032
    1UNL    H14   61   0.092  -0.193   0.232
    1UNL    H15   62   0.069  -0.100   0.039
    1UNL    H16   63   0.113   0.100   0.053
    1UNL    H17   64   0.484   0.184  -0.096
    1UNL    H18   65   0.610   0.147   0.122
    1UNL    H19   66   0.476   0.039   0.146
    1UNL    H20   67   0.494  -0.056  -0.043
    1UNL    H21   68   0.491   0.369   0.103
    1UNL    H22   69   0.418   0.492  -0.082
    1UNL    H23   70   0.306   0.399   0.242
    1UNL    H24   71   0.177   0.454   0.046
    1UNL    H25   72   0.158   0.171   0.264
    1UNL    H26   73   0.378   0.226   0.351
    1UNL    H27   74  -0.139  -0.015  -0.480
    1UNL    H28   75  -0.574   0.131  -0.335
    1UNL    H29   76  -0.664   0.050  -0.208
    1UNL    H30   77  -0.629   0.297  -0.151
    1UNL    H31   78  -0.462   0.304  -0.206
    1UNL    H32   79  -0.456   0.000   0.213
    1UNL    H33   80  -0.431   0.183   0.416
    1UNL    H34   81  -0.530   0.421   0.465
    1UNL    H35   82  -0.596   0.566   0.274
    1UNL    H36   83  -0.619   0.458   0.040
    1UNL    H37   84  -0.507  -0.098  -0.032
    1UNL    H38   85  -0.293  -0.167   0.027
    1UNL    H39   86  -0.211  -0.012  -0.017
    1UNL    H40   87  -0.300  -0.237  -0.210
   0.00000   0.00000   0.00000   0.00000   0.00000   0.00000   0.00000   0.00000   0.00000
Generated with MDTraj, t= 2.0
 87
    1UNL     C1    1  -0.078  -0.465  -0.105
    1UNL     C2    2  -0.078  -0.367  -0.194
    1UNL     C3    3  -0.079  -0.229  -0.146
    1UNL     C4    4   0.034  -0.146  -0.222
    1UNL     O1    5   0.167  -0.200  -0.196
    1UNL     C5    6   0.244  -0.125  -0.100
    1UNL     O2    7   0.381  -0.182  -0.089
    1UNL     C6    8   0.381  -0.308  -0.040
    1UNL     C7    9   0.513  -0.380  -0.042
    1UNL     O3   10   0.575  -0.352   0.078
    1UNL     C8   11   0.312  -0.311   0.098
    1UNL     O4   12   0.339  -0.429   0.178
    1UNL     C9   13   0.167  -0.265   0.094
    1UNL     O5   14   0.100  -0.259   0.222
    1UNL    C10   15   0.173  -0.124   0.039
    1UNL     O6   16   0.228  -0.047   0.136
    1UNL    C11   17   0.220   0.092   0.089
    1UNL     O7   18   0.293   0.128  -0.035
    1UNL    C12   19   0.425   0.192  -0.022
    1UNL    C13   20   0.517   0.110   0.051
    1UNL     O8   21   0.579  -0.004  -0.012
    1UNL    C14   22   0.402   0.331   0.053
    1UNL     O9   23   0.372   0.429  -0.049
    1UNL    C15   24   0.282   0.328   0.148
    1UNL    O10   25   0.161   0.373   0.093
    1UNL    C16   26   0.249   0.184   0.203
    1UNL    O11   27   0.347   0.134   0.290
    1UNL    O12   28   0.002  -0.121  -0.356
    1UNL    C17   29  -0.118  -0.057  -0.379
    1UNL    C18   30  -0.217  -0.061  -0.284
    1UNL    C19   31  -0.334   0.022  -0.307
    1UNL    O13   32  -0.346   0.087  -0.410
    1UNL     N1   33  -0.438   0.035  -0.215
    1UNL    C20   34  -0.555   0.114  -0.246
    1UNL    C21   35  -0.566   0.228  -0.144
    1UNL    C22   36  -0.511   0.197  -0.008
    1UNL    C23   37  -0.455   0.075   0.031
    1UNL     N2   38  -0.431   0.074   0.164
    1UNL    C24   39  -0.475   0.191   0.220
    1UNL    C25   40  -0.483   0.249   0.348
    1UNL    C26   41  -0.521   0.378   0.373
    1UNL    C27   42  -0.565   0.456   0.255
    1UNL    C28   43  -0.565   0.406   0.129
    1UNL    C29   44  -0.515   0.277   0.113
    1UNL    C30   45  -0.423  -0.026  -0.069
    1UNL    C31   46  -0.280  -0.091  -0.046
    1UNL    C32   47  -0.216  -0.158  -0.167
    1UNL     H1   48  -0.070  -0.447   0.003
    1UNL     H2   49  -0.068  -0.568  -0.133
    1UNL     H3   50  -0.039  -0.384  -0.298
    1UNL     H4   51  -0.056  -0.226  -0.039
    1UNL     H5   52   0.030  -0.046  -0.179
    1UNL     H6   53   0.246  -0.029  -0.149
    1UNL     H7   54   0.311  -0.360  -0.112
    1UNL     H8   55   0.583  -0.337  -0.120
    1UNL     H9   56   0.509  -0.497  -0.054
    1UNL    H10   57   0.550  -0.408   0.156
    1UNL    H11   58   0.360  -0.231   0.152
    1UNL    H12   59   0.261  -0.488   0.166
    1UNL    H13   60   0.116  -0.332   0.039
    1UNL    H14   61   0.090  -0.168   0.252
    1UNL    H15   62   0.073  -0.081   0.015
    1UNL    H16   63   0.108   0.113   0.068
    1UNL    H17   64   0.474   0.204  -0.117
    1UNL    H18   65   0.601   0.170   0.093
    1UNL    H19   66   0.473   0.062   0.140
    1UNL    H20   67   0.517  -0.075  -0.041
    1UNL    H21   68   0.495   0.370   0.097
    1UNL    H22   69   0.317   0.388  -0.117
    1UNL    H23   70   0.300   0.404   0.224
    1UNL    H24   71   0.161   0.346   0.003
    1UNL    H25   72   0.160   0.187   0.269
    1UNL    H26   73   0.358   0.209   0.363
    1UNL    H27   74  -0.128   0.005  -0.468
    1UNL    H28   75  -0.537   0.141  -0.353
    1UNL    H29   76  -0.639   0.053  -0.246
    1UNL    H30   77  -0.662   0.271  -0.129
    1UNL    H31   78  -0.506   0.324  -0.180
    1UNL    H32   79  -0.394  -0.004   0.222
    1UNL    H33   80  -0.474   0.191   0.430
    1UNL    H34   81  -0.509   0.411   0.472
    1UNL    H35   82  -0.607   0.553   0.274
    1UNL    H36   83  -0.589   0.458   0.037
    1UNL    H37   84  -0.496  -0.108  -0.075
    1UNL    H38   85  -0.281  -0.158   0.031
    1UNL    H39   86  -0.209  -0.001  -0.018
    1UNL    H40   87  -0.289  -0.241  -0.176
   0.00000   0.00000   0.00000   0.00000   0.00000   0.00000   0.00000   0.00000   0.00000
Generated with MDTraj, t= 3.0
 87
    1UNL     C1    1  -0.149  -0.474  -0.146
    1UNL     C2    2  -0.089  -0.369  -0.206
    1UNL     C3    3  -0.085  -0.232  -0.155
    1UNL     C4    4   0.033  -0.151  -0.221
    1UNL     O1    5   0.158  -0.214  -0.176
    1UNL     C5    6   0.240  -0.133  -0.089
    1UNL     O2    7   0.374  -0.197  -0.078
    1UNL     C6    8   0.366  -0.326  -0.036
    1UNL     C7    9   0.503  -0.400  -0.050
    1UNL     O3   10   0.583  -0.375   0.067
    1UNL     C8   11   0.316  -0.321   0.115
    1UNL     O4   12   0.319  -0.459   0.172
    1UNL     C9   13   0.175  -0.261   0.121
    1UNL     O5   14   0.120  -0.267   0.248
    1UNL    C10   15   0.178  -0.127   0.058
    1UNL     O6   16   0.250  -0.025   0.130
    1UNL    C11   17   0.223   0.113   0.087
    1UNL     O7   18   0.287   0.143  -0.034
    1UNL    C12   19   0.415   0.202  -0.009
    1UNL    C13   20   0.513   0.109   0.064
    1UNL     O8   21   0.561   0.004  -0.013
    1UNL    C14   22   0.395   0.349   0.060
    1UNL     O9   23   0.380   0.445  -0.053
    1UNL    C15   24   0.269   0.359   0.143
    1UNL    O10   25   0.167   0.420   0.060
    1UNL    C16   26   0.253   0.210   0.204
    1UNL    O11   27   0.369   0.171   0.291
    1UNL    O12   28   0.008  -0.140  -0.365
    1UNL    C17   29  -0.114  -0.077  -0.382
    1UNL    C18   30  -0.211  -0.066  -0.293
    1UNL    C19   31  -0.330   0.020  -0.320
    1UNL    O13   32  -0.344   0.088  -0.426
    1UNL     N1   33  -0.431   0.026  -0.214
    1UNL    C20   34  -0.543   0.119  -0.240
    1UNL    C21   35  -0.536   0.238  -0.150
    1UNL    C22   36  -0.506   0.198  -0.007
    1UNL    C23   37  -0.454   0.078   0.024
    1UNL     N2   38  -0.428   0.070   0.163
    1UNL    C24   39  -0.486   0.184   0.223
    1UNL    C25   40  -0.466   0.227   0.353
    1UNL    C26   41  -0.503   0.360   0.374
    1UNL    C27   42  -0.569   0.438   0.276
    1UNL    C28   43  -0.590   0.390   0.148
    1UNL    C29   44  -0.535   0.263   0.118
    1UNL    C30   45  -0.413  -0.027  -0.080
    1UNL    C31   46  -0.265  -0.064  -0.057
    1UNL    C32   47  -0.220  -0.154  -0.172
    1UNL     H1   48  -0.197  -0.452  -0.048
    1UNL     H2   49  -0.128  -0.573  -0.168
    1UNL     H3   50  -0.025  -0.381  -0.286
    1UNL     H4   51  -0.057  -0.243  -0.049
    1UNL     H5   52   0.033  -0.046  -0.186
    1UNL     H6   53   0.246  -0.033  -0.127
    1UNL     H7   54   0.289  -0.374  -0.107
    1UNL     H8   55   0.560  -0.360  -0.140
    1UNL     H9   56   0.492  -0.517  -0.061
    1UNL    H10   57   0.537  -0.398   0.152
    1UNL    H11   58   0.394  -0.265   0.166
    1UNL    H12   59   0.257  -0.517   0.126
    1UNL    H13   60   0.114  -0.324   0.072
    1UNL    H14   61   0.119  -0.350   0.305
    1UNL    H15   62   0.079  -0.076   0.052
    1UNL    H16   63   0.111   0.132   0.064
    1UNL    H17   64   0.459   0.226  -0.104
    1UNL    H18   65   0.606   0.158   0.103
    1UNL    H19   66   0.459   0.069   0.151
    1UNL    H20   67   0.498  -0.066  -0.045
    1UNL    H21   68   0.483   0.382   0.120
    1UNL    H22   69   0.403   0.535  -0.011
    1UNL    H23   70   0.282   0.424   0.230
    1UNL    H24   71   0.183   0.399  -0.033
    1UNL    H25   72   0.176   0.210   0.285
    1UNL    H26   73   0.384   0.238   0.363
    1UNL    H27   74  -0.120  -0.009  -0.465
    1UNL    H28   75  -0.536   0.149  -0.347
    1UNL    H29   76  -0.626   0.058  -0.230
    1UNL    H30   77  -0.616   0.309  -0.161
    1UNL    H31   78  -0.441   0.304  -0.176
    1UNL    H32   79  -0.336   0.035   0.201
    1UNL    H33   80  -0.410   0.156   0.417
    1UNL    H34   81  -0.507   0.403   0.478
    1UNL    H35   82  -0.600   0.540   0.286
    1UNL    H36   83  -0.637   0.437   0.063
    1UNL    H37   84  -0.471  -0.122  -0.070
    1UNL    H38   85  -0.241  -0.100   0.039
    1UNL    H39   86  -0.200   0.029  -0.077
    1UNL    H40   87  -0.304  -0.225  -0.179
   0.00000   0.00000   0.00000   0.00000   0.00000   0.00000   0.00000   0.00000   0.00000
Generated with MDTraj, t= 4.0
 87
    1UNL     C1    1  -0.198  -0.467  -0.186
    1UNL     C2    2  -0.100  -0.380  -0.209
    1UNL     C3    3  -0.100  -0.239  -0.152
    1UNL     C4    4   0.025  -0.160  -0.200
    1UNL     O1    5   0.148  -0.224  -0.171
    1UNL     C5    6   0.226  -0.141  -0.091
    1UNL     O2    7   0.362  -0.193  -0.077
    1UNL     C6    8   0.363  -0.322  -0.029
    1UNL     C7    9   0.492  -0.394  -0.050
    1UNL     O3   10   0.583  -0.399   0.056
    1UNL     C8   11   0.316  -0.319   0.114
    1UNL     O4   12   0.320  -0.451   0.174
    1UNL     C9   13   0.175  -0.256   0.128
    1UNL     O5   14   0.145  -0.243   0.267
    1UNL    C10   15   0.176  -0.120   0.054
    1UNL     O6   16   0.249  -0.022   0.136
    1UNL    C11   17   0.234   0.111   0.093
    1UNL     O7   18   0.301   0.135  -0.029
    1UNL    C12   19   0.417   0.210  -0.020
    1UNL    C13   20   0.524   0.124   0.056
    1UNL     O8   21   0.565   0.019  -0.028
    1UNL    C14   22   0.393   0.344   0.054
    1UNL     O9   23   0.406   0.447  -0.041
    1UNL    C15   24   0.262   0.361   0.134
    1UNL    O10   25   0.163   0.404   0.040
    1UNL    C16   26   0.241   0.222   0.210
    1UNL    O11   27   0.351   0.182   0.290
    1UNL    O12   28   0.020  -0.124  -0.344
    1UNL    C17   29  -0.101  -0.066  -0.371
    1UNL    C18   30  -0.212  -0.070  -0.294
    1UNL    C19   31  -0.322   0.014  -0.319
    1UNL    O13   32  -0.334   0.052  -0.435
    1UNL     N1   33  -0.414   0.039  -0.216
    1UNL    C20   34  -0.527   0.136  -0.250
    1UNL    C21   35  -0.553   0.244  -0.142
    1UNL    C22   36  -0.502   0.204  -0.006
    1UNL    C23   37  -0.439   0.081   0.019
    1UNL     N2   38  -0.412   0.068   0.153
    1UNL    C24   39  -0.458   0.185   0.215
    1UNL    C25   40  -0.467   0.213   0.349
    1UNL    C26   41  -0.536   0.333   0.388
    1UNL    C27   42  -0.586   0.424   0.292
    1UNL    C28   43  -0.569   0.390   0.158
    1UNL    C29   44  -0.504   0.277   0.118
    1UNL    C30   45  -0.411  -0.021  -0.081
    1UNL    C31   46  -0.276  -0.087  -0.052
    1UNL    C32   47  -0.224  -0.161  -0.178
    1UNL     H1   48  -0.280  -0.448  -0.121
    1UNL     H2   49  -0.185  -0.567  -0.230
    1UNL     H3   50  -0.014  -0.402  -0.280
    1UNL     H4   51  -0.088  -0.258  -0.044
    1UNL     H5   52   0.022  -0.060  -0.151
    1UNL     H6   53   0.241  -0.049  -0.141
    1UNL     H7   54   0.285  -0.373  -0.095
    1UNL     H8   55   0.547  -0.337  -0.129
    1UNL     H9   56   0.461  -0.500  -0.091
    1UNL    H10   57   0.524  -0.427   0.133
    1UNL    H11   58   0.390  -0.253   0.165
    1UNL    H12   59   0.233  -0.468   0.212
    1UNL    H13   60   0.107  -0.325   0.098
    1UNL    H14   61   0.120  -0.150   0.299
    1UNL    H15   62   0.072  -0.075   0.056
    1UNL    H16   63   0.128   0.117   0.044
    1UNL    H17   64   0.445   0.239  -0.123
    1UNL    H18   65   0.622   0.174   0.076
    1UNL    H19   66   0.485   0.078   0.147
    1UNL    H20   67   0.489  -0.042  -0.043
    1UNL    H21   68   0.482   0.360   0.118
    1UNL    H22   69   0.401   0.532   0.007
    1UNL    H23   70   0.274   0.449   0.200
    1UNL    H24   71   0.166   0.331  -0.031
    1UNL    H25   72   0.151   0.213   0.277
    1UNL    H26   73   0.354   0.233   0.369
    1UNL    H27   74  -0.089  -0.025  -0.470
    1UNL    H28   75  -0.496   0.175  -0.350
    1UNL    H29   76  -0.617   0.089  -0.266
    1UNL    H30   77  -0.660   0.271  -0.136
    1UNL    H31   78  -0.510   0.340  -0.183
    1UNL    H32   79  -0.396  -0.025   0.201
    1UNL    H33   80  -0.425   0.148   0.433
    1UNL    H34   81  -0.556   0.354   0.489
    1UNL    H35   82  -0.638   0.519   0.314
    1UNL    H36   83  -0.603   0.454   0.077
    1UNL    H37   84  -0.488  -0.099  -0.061
    1UNL    H38   85  -0.276  -0.159   0.034
    1UNL    H39   86  -0.209  -0.005  -0.028
    1UNL    H40   87  -0.302  -0.233  -0.207
   0.00000   0.00000   0.00000   0.00000   0.00000   0.00000   0.00000   0.00000   0.00000
Generated with MDTraj, t= 5.0
 87
    1UNL     C1    1  -0.173  -0.490  -0.228
    1UNL     C2    2  -0.096  -0.382  -0.244
    1UNL     C3    3  -0.105  -0.253  -0.163
    1UNL     C4    4   0.014  -0.163  -0.195
    1UNL     O1    5   0.133  -0.223  -0.154
    1UNL     C5    6   0.220  -0.136  -0.086
    1UNL     O2    7   0.354  -0.186  -0.087
    1UNL     C6    8   0.368  -0.312  -0.021
    1UNL     C7    9   0.500  -0.391  -0.043
    1UNL     O3   10   0.593  -0.416   0.067
    1UNL     C8   11   0.332  -0.301   0.129
    1UNL     O4   12   0.340  -0.427   0.208
    1UNL     C9   13   0.190  -0.247   0.148
    1UNL     O5   14   0.169  -0.227   0.279
    1UNL    C10   15   0.177  -0.116   0.059
    1UNL     O6   16   0.255  -0.026   0.126
    1UNL    C11   17   0.224   0.099   0.078
    1UNL     O7   18   0.287   0.143  -0.047
    1UNL    C12   19   0.416   0.208  -0.020
    1UNL    C13   20   0.515   0.112   0.067
    1UNL     O8   21   0.562   0.013  -0.027
    1UNL    C14   22   0.399   0.347   0.050
    1UNL     O9   23   0.426   0.455  -0.039
    1UNL    C15   24   0.267   0.345   0.120
    1UNL    O10   25   0.163   0.366   0.030
    1UNL    C16   26   0.240   0.213   0.189
    1UNL    O11   27   0.341   0.173   0.279
    1UNL    O12   28   0.018  -0.119  -0.335
    1UNL    C17   29  -0.099  -0.065  -0.371
    1UNL    C18   30  -0.222  -0.077  -0.304
    1UNL    C19   31  -0.328   0.021  -0.324
    1UNL    O13   32  -0.329   0.082  -0.431
    1UNL     N1   33  -0.421   0.048  -0.221
    1UNL    C20   34  -0.526   0.146  -0.241
    1UNL    C21   35  -0.519   0.261  -0.134
    1UNL    C22   36  -0.500   0.205   0.001
    1UNL    C23   37  -0.439   0.084   0.026
    1UNL     N2   38  -0.427   0.071   0.161
    1UNL    C24   39  -0.471   0.181   0.221
    1UNL    C25   40  -0.471   0.220   0.354
    1UNL    C26   41  -0.538   0.335   0.397
    1UNL    C27   42  -0.586   0.421   0.296
    1UNL    C28   43  -0.589   0.394   0.161
    1UNL    C29   44  -0.519   0.271   0.124
    1UNL    C30   45  -0.414  -0.019  -0.086
    1UNL    C31   46  -0.287  -0.098  -0.057
    1UNL    C32   47  -0.232  -0.171  -0.186
    1UNL     H1   48  -0.259  -0.497  -0.169
    1UNL     H2   49  -0.157  -0.568  -0.306
    1UNL     H3   50  -0.031  -0.386  -0.324
    1UNL     H4   51  -0.111  -0.283  -0.056
    1UNL     H5   52  -0.012  -0.074  -0.132
    1UNL     H6   53   0.226  -0.050  -0.147
    1UNL     H7   54   0.285  -0.370  -0.068
    1UNL     H8   55   0.549  -0.330  -0.119
    1UNL     H9   56   0.480  -0.496  -0.084
    1UNL    H10   57   0.543  -0.444   0.143
    1UNL    H11   58   0.394  -0.225   0.186
    1UNL    H12   59   0.248  -0.462   0.212
    1UNL    H13   60   0.119  -0.310   0.111
    1UNL    H14   61   0.186  -0.131   0.282
    1UNL    H15   62   0.067  -0.094   0.058
    1UNL    H16   63   0.116   0.087   0.048
    1UNL    H17   64   0.451   0.211  -0.128
    1UNL    H18   65   0.610   0.168   0.071
    1UNL    H19   66   0.482   0.070   0.162
    1UNL    H20   67   0.492  -0.052  -0.048
    1UNL    H21   68   0.480   0.343   0.125
    1UNL    H22   69   0.342   0.487  -0.075
    1UNL    H23   70   0.250   0.431   0.190
    1UNL    H24   71   0.178   0.307  -0.043
    1UNL    H25   72   0.144   0.215   0.247
    1UNL    H26   73   0.326   0.207   0.364
    1UNL    H27   74  -0.089  -0.013  -0.467
    1UNL    H28   75  -0.526   0.199  -0.337
    1UNL    H29   76  -0.616   0.096  -0.234
    1UNL    H30   77  -0.619   0.312  -0.152
    1UNL    H31   78  -0.448   0.336  -0.161
    1UNL    H32   79  -0.424  -0.027   0.203
    1UNL    H33   80  -0.445   0.155   0.426
    1UNL    H34   81  -0.546   0.363   0.504
    1UNL    H35   82  -0.617   0.520   0.318
    1UNL    H36   83  -0.624   0.467   0.092
    1UNL    H37   84  -0.501  -0.088  -0.095
    1UNL    H38   85  -0.315  -0.169   0.034
    1UNL    H39   86  -0.212  -0.037  -0.018
    1UNL    H40   87  -0.311  -0.243  -0.212
   0.00000   0.00000   0.00000   0.00000   0.00000   0.00000   0.00000   0.00000   0.00000
Generated with MDTraj, t= 6.0
 87
    1UNL     C1    1  -0.146  -0.500  -0.262
    1UNL     C2    2  -0.129  -0.367  -0.277
    1UNL     C3    3  -0.123  -0.255  -0.173
    1UNL     C4    4   0.007  -0.170  -0.189
    1UNL     O1    5   0.117  -0.245  -0.140
    1UNL     C5    6   0.223  -0.160  -0.085
    1UNL     O2    7   0.357  -0.212  -0.092
    1UNL     C6    8   0.383  -0.339  -0.015
    1UNL     C7    9   0.518  -0.401  -0.039
    1UNL     O3   10   0.607  -0.383   0.070
    1UNL     C8   11   0.352  -0.304   0.135
    1UNL     O4   12   0.370  -0.419   0.224
    1UNL     C9   13   0.198  -0.259   0.154
    1UNL     O5   14   0.175  -0.233   0.285
    1UNL    C10   15   0.172  -0.135   0.064
    1UNL     O6   16   0.241  -0.027   0.121
    1UNL    C11   17   0.222   0.104   0.073
    1UNL     O7   18   0.291   0.147  -0.042
    1UNL    C12   19   0.425   0.202  -0.023
    1UNL    C13   20   0.504   0.100   0.065
    1UNL     O8   21   0.540  -0.012  -0.016
    1UNL    C14   22   0.413   0.347   0.040
    1UNL     O9   23   0.427   0.447  -0.064
    1UNL    C15   24   0.275   0.362   0.115
    1UNL    O10   25   0.174   0.398   0.022
    1UNL    C16   26   0.229   0.228   0.178
    1UNL    O11   27   0.324   0.199   0.278
    1UNL    O12   28   0.013  -0.116  -0.323
    1UNL    C17   29  -0.098  -0.049  -0.356
    1UNL    C18   30  -0.209  -0.046  -0.279
    1UNL    C19   31  -0.323   0.043  -0.312
    1UNL    O13   32  -0.322   0.121  -0.406
    1UNL     N1   33  -0.432   0.043  -0.225
    1UNL    C20   34  -0.538   0.140  -0.236
    1UNL    C21   35  -0.515   0.258  -0.137
    1UNL    C22   36  -0.494   0.206  -0.001
    1UNL    C23   37  -0.454   0.078   0.017
    1UNL     N2   38  -0.445   0.057   0.153
    1UNL    C24   39  -0.491   0.170   0.225
    1UNL    C25   40  -0.501   0.207   0.361
    1UNL    C26   41  -0.535   0.332   0.390
    1UNL    C27   42  -0.573   0.424   0.292
    1UNL    C28   43  -0.558   0.396   0.157
    1UNL    C29   44  -0.515   0.265   0.121
    1UNL    C30   45  -0.420  -0.025  -0.090
    1UNL    C31   46  -0.289  -0.094  -0.061
    1UNL    C32   47  -0.243  -0.163  -0.188
    1UNL     H1   48  -0.163  -0.530  -0.160
    1UNL     H2   49  -0.170  -0.573  -0.336
    1UNL     H3   50  -0.144  -0.328  -0.381
    1UNL     H4   51  -0.117  -0.301  -0.073
    1UNL     H5   52  -0.005  -0.087  -0.117
    1UNL     H6   53   0.227  -0.065  -0.129
    1UNL     H7   54   0.307  -0.406  -0.058
    1UNL     H8   55   0.574  -0.366  -0.122
    1UNL     H9   56   0.501  -0.512  -0.043
    1UNL    H10   57   0.568  -0.375   0.166
    1UNL    H11   58   0.428  -0.230   0.179
    1UNL    H12   59   0.280  -0.461   0.236
    1UNL    H13   60   0.143  -0.344   0.139
    1UNL    H14   61   0.240  -0.152   0.299
    1UNL    H15   62   0.065  -0.114   0.087
    1UNL    H16   63   0.116   0.098   0.043
    1UNL    H17   64   0.442   0.213  -0.137
    1UNL    H18   65   0.584   0.163   0.107
    1UNL    H19   66   0.439   0.064   0.144
    1UNL    H20   67   0.465  -0.072  -0.044
    1UNL    H21   68   0.502   0.355   0.105
    1UNL    H22   69   0.335   0.475  -0.094
    1UNL    H23   70   0.266   0.439   0.197
    1UNL    H24   71   0.163   0.314  -0.035
    1UNL    H25   72   0.134   0.254   0.231
    1UNL    H26   73   0.315   0.255   0.359
    1UNL    H27   74  -0.101   0.022  -0.440
    1UNL    H28   75  -0.542   0.173  -0.339
    1UNL    H29   76  -0.633   0.104  -0.215
    1UNL    H30   77  -0.598   0.339  -0.138
    1UNL    H31   78  -0.429   0.301  -0.177
    1UNL    H32   79  -0.387  -0.023   0.191
    1UNL    H33   80  -0.492   0.133   0.447
    1UNL    H34   81  -0.556   0.360   0.489
    1UNL    H35   82  -0.576   0.527   0.334
    1UNL    H36   83  -0.580   0.457   0.069
    1UNL    H37   84  -0.500  -0.101  -0.083
    1UNL    H38   85  -0.308  -0.178   0.020
    1UNL    H39   86  -0.226  -0.027  -0.015
    1UNL    H40   87  -0.323  -0.223  -0.234
   0.00000   0.00000   0.00000   0.00000   0.00000   0.00000   0.00000   0.00000   0.00000
Generated with MDTraj, t= 7.0
 87
    1UNL     C1    1  -0.106  -0.499  -0.275
    1UNL     C2    2  -0.101  -0.365  -0.282
    1UNL     C3    3  -0.123  -0.256  -0.176
    1UNL     C4    4   0.004  -0.175  -0.165
    1UNL     O1    5   0.121  -0.253  -0.134
    1UNL     C5    6   0.219  -0.161  -0.070
    1UNL     O2    7   0.349  -0.204  -0.088
    1UNL     C6    8   0.366  -0.332  -0.016
    1UNL     C7    9   0.499  -0.387  -0.043
    1UNL     O3   10   0.594  -0.325   0.038
    1UNL     C8   11   0.346  -0.300   0.134
    1UNL     O4   12   0.384  -0.403   0.229
    1UNL     C9   13   0.194  -0.251   0.166
    1UNL     O5   14   0.184  -0.201   0.294
    1UNL    C10   15   0.174  -0.135   0.076
    1UNL     O6   16   0.248  -0.028   0.119
    1UNL    C11   17   0.214   0.092   0.059
    1UNL     O7   18   0.297   0.123  -0.061
    1UNL    C12   19   0.423   0.173  -0.026
    1UNL    C13   20   0.508   0.082   0.062
    1UNL     O8   21   0.561  -0.033  -0.004
    1UNL    C14   22   0.401   0.322   0.031
    1UNL     O9   23   0.424   0.423  -0.077
    1UNL    C15   24   0.260   0.337   0.092
    1UNL    O10   25   0.167   0.382  -0.010
    1UNL    C16   26   0.220   0.212   0.167
    1UNL    O11   27   0.313   0.185   0.271
    1UNL    O12   28   0.025  -0.084  -0.276
    1UNL    C17   29  -0.085  -0.014  -0.324
    1UNL    C18   30  -0.204  -0.037  -0.270
    1UNL    C19   31  -0.318   0.057  -0.295
    1UNL    O13   32  -0.291   0.147  -0.373
    1UNL     N1   33  -0.436   0.052  -0.223
    1UNL    C20   34  -0.536   0.154  -0.250
    1UNL    C21   35  -0.527   0.260  -0.137
    1UNL    C22   36  -0.494   0.203  -0.007
    1UNL    C23   37  -0.471   0.067   0.017
    1UNL     N2   38  -0.463   0.044   0.157
    1UNL    C24   39  -0.503   0.161   0.221
    1UNL    C25   40  -0.515   0.201   0.354
    1UNL    C26   41  -0.543   0.330   0.385
    1UNL    C27   42  -0.550   0.428   0.287
    1UNL    C28   43  -0.533   0.394   0.163
    1UNL    C29   44  -0.508   0.262   0.124
    1UNL    C30   45  -0.442  -0.025  -0.094
    1UNL    C31   46  -0.318  -0.120  -0.064
    1UNL    C32   47  -0.245  -0.159  -0.194
    1UNL     H1   48  -0.137  -0.538  -0.174
    1UNL     H2   49  -0.090  -0.569  -0.352
    1UNL     H3   50  -0.077  -0.325  -0.376
    1UNL     H4   51  -0.135  -0.311  -0.081
    1UNL     H5   52  -0.016  -0.100  -0.085
    1UNL     H6   53   0.217  -0.072  -0.132
    1UNL     H7   54   0.295  -0.395  -0.069
    1UNL     H8   55   0.522  -0.365  -0.142
    1UNL     H9   56   0.505  -0.494  -0.026
    1UNL    H10   57   0.589  -0.358   0.125
    1UNL    H11   58   0.411  -0.212   0.172
    1UNL    H12   59   0.308  -0.430   0.286
    1UNL    H13   60   0.108  -0.307   0.152
    1UNL    H14   61   0.250  -0.132   0.301
    1UNL    H15   62   0.066  -0.116   0.074
    1UNL    H16   63   0.114   0.084   0.019
    1UNL    H17   64   0.472   0.172  -0.129
    1UNL    H18   65   0.590   0.139   0.106
    1UNL    H19   66   0.432   0.060   0.138
    1UNL    H20   67   0.492  -0.092  -0.040
    1UNL    H21   68   0.485   0.320   0.103
    1UNL    H22   69   0.342   0.474  -0.066
    1UNL    H23   70   0.259   0.419   0.170
    1UNL    H24   71   0.160   0.312  -0.077
    1UNL    H25   72   0.126   0.233   0.219
    1UNL    H26   73   0.333   0.256   0.346
    1UNL    H27   74  -0.078   0.069  -0.395
    1UNL    H28   75  -0.529   0.200  -0.347
    1UNL    H29   76  -0.632   0.108  -0.258
    1UNL    H30   77  -0.623   0.325  -0.137
    1UNL    H31   78  -0.448   0.324  -0.156
    1UNL    H32   79  -0.442  -0.050   0.205
    1UNL    H33   80  -0.520   0.117   0.421
    1UNL    H34   81  -0.558   0.357   0.493
    1UNL    H35   82  -0.565   0.529   0.317
    1UNL    H36   83  -0.510   0.484   0.107
    1UNL    H37   84  -0.533  -0.089  -0.104
    1UNL    H38   85  -0.347  -0.213  -0.002
    1UNL    H39   86  -0.249  -0.073   0.002
    1UNL    H40   87  -0.313  -0.216  -0.261
   0.00000   0.00000   0.00000   0.00000   0.00000   0.00000   0.00000   0.00000   0.00000
Generated with MDTraj, t= 8.0
 87
    1UNL     C1    1  -0.075  -0.473  -0.289
    1UNL     C2    2  -0.116  -0.349  -0.302
    1UNL     C3    3  -0.143  -0.254  -0.185
    1UNL     C4    4  -0.011  -0.173  -0.146
    1UNL     O1    5   0.102  -0.255  -0.107
    1UNL     C5    6   0.204  -0.173  -0.051
    1UNL     O2    7   0.337  -0.223  -0.063
    1UNL     C6    8   0.363  -0.340   0.010
    1UNL     C7    9   0.500  -0.395  -0.030
    1UNL     O3   10   0.610  -0.300  -0.025
    1UNL     C8   11   0.354  -0.307   0.157
    1UNL     O4   12   0.406  -0.418   0.238
    1UNL     C9   13   0.206  -0.258   0.188
    1UNL     O5   14   0.191  -0.230   0.321
    1UNL    C10   15   0.177  -0.135   0.102
    1UNL     O6   16   0.264  -0.014   0.141
    1UNL    C11   17   0.219   0.095   0.070
    1UNL     O7   18   0.293   0.109  -0.058
    1UNL    C12   19   0.422   0.172  -0.033
    1UNL    C13   20   0.507   0.096   0.060
    1UNL     O8   21   0.551  -0.031   0.013
    1UNL    C14   22   0.404   0.324   0.015
    1UNL     O9   23   0.439   0.416  -0.095
    1UNL    C15   24   0.261   0.347   0.063
    1UNL    O10   25   0.179   0.358  -0.054
    1UNL    C16   26   0.230   0.230   0.154
    1UNL    O11   27   0.310   0.202   0.266
    1UNL    O12   28   0.036  -0.078  -0.246
    1UNL    C17   29  -0.078  -0.003  -0.290
    1UNL    C18   30  -0.212  -0.024  -0.265
    1UNL    C19   31  -0.315   0.077  -0.295
    1UNL    O13   32  -0.295   0.185  -0.348
    1UNL     N1   33  -0.443   0.053  -0.249
    1UNL    C20   34  -0.543   0.162  -0.254
    1UNL    C21   35  -0.501   0.265  -0.147
    1UNL    C22   36  -0.502   0.199  -0.011
    1UNL    C23   37  -0.478   0.066   0.001
    1UNL     N2   38  -0.477   0.032   0.138
    1UNL    C24   39  -0.499   0.157   0.211
    1UNL    C25   40  -0.488   0.179   0.355
    1UNL    C26   41  -0.518   0.307   0.387
    1UNL    C27   42  -0.546   0.406   0.299
    1UNL    C28   43  -0.550   0.386   0.162
    1UNL    C29   44  -0.518   0.259   0.117
    1UNL    C30   45  -0.464  -0.020  -0.113
    1UNL    C31   46  -0.358  -0.130  -0.084
    1UNL    C32   47  -0.264  -0.154  -0.206
    1UNL     H1   48  -0.054  -0.515  -0.195
    1UNL     H2   49  -0.063  -0.523  -0.383
    1UNL     H3   50  -0.122  -0.313  -0.406
    1UNL     H4   51  -0.174  -0.310  -0.096
    1UNL     H5   52  -0.048  -0.099  -0.071
    1UNL     H6   53   0.199  -0.081  -0.115
    1UNL     H7   54   0.293  -0.413  -0.024
    1UNL     H8   55   0.504  -0.427  -0.128
    1UNL     H9   56   0.515  -0.481   0.031
    1UNL    H10   57   0.615  -0.258   0.060
    1UNL    H11   58   0.426  -0.226   0.195
    1UNL    H12   59   0.335  -0.477   0.268
    1UNL    H13   60   0.137  -0.333   0.171
    1UNL    H14   61   0.208  -0.132   0.337
    1UNL    H15   62   0.077  -0.102   0.117
    1UNL    H16   63   0.121   0.075   0.036
    1UNL    H17   64   0.474   0.184  -0.131
    1UNL    H18   65   0.592   0.162   0.082
    1UNL    H19   66   0.451   0.071   0.152
    1UNL    H20   67   0.470  -0.080  -0.018
    1UNL    H21   68   0.477   0.359   0.093
    1UNL    H22   69   0.377   0.375  -0.163
    1UNL    H23   70   0.258   0.448   0.111
    1UNL    H24   71   0.191   0.283  -0.113
    1UNL    H25   72   0.134   0.257   0.198
    1UNL    H26   73   0.340   0.289   0.315
    1UNL    H27   74  -0.052   0.066  -0.368
    1UNL    H28   75  -0.549   0.198  -0.355
    1UNL    H29   76  -0.644   0.125  -0.247
    1UNL    H30   77  -0.567   0.356  -0.134
    1UNL    H31   78  -0.403   0.299  -0.170
    1UNL    H32   79  -0.494  -0.056   0.193
    1UNL    H33   80  -0.475   0.105   0.429
    1UNL    H34   81  -0.544   0.326   0.486
    1UNL    H35   82  -0.561   0.506   0.338
    1UNL    H36   83  -0.555   0.469   0.094
    1UNL    H37   84  -0.560  -0.066  -0.141
    1UNL    H38   85  -0.401  -0.222  -0.047
    1UNL    H39   86  -0.295  -0.101   0.002
    1UNL    H40   87  -0.326  -0.203  -0.284
   0.00000   0.00000   0.00000   0.00000   0.00000   0.00000   0.00000   0.00000   0.00000
Generated with MDTraj, t= 9.0
 87
    1UNL     C1    1  -0.021  -0.429  -0.298
    1UNL     C2    2  -0.100  -0.321  -0.304
    1UNL     C3    3  -0.146  -0.251  -0.186
    1UNL     C4    4  -0.025  -0.172  -0.116
    1UNL     O1    5   0.085  -0.253  -0.071
    1UNL     C5    6   0.184  -0.175  -0.028
    1UNL     O2    7   0.318  -0.228  -0.062
    1UNL     C6    8   0.356  -0.344   0.006
    1UNL     C7    9   0.494  -0.404  -0.036
    1UNL     O3   10   0.594  -0.308  -0.081
    1UNL     C8   11   0.355  -0.306   0.154
    1UNL     O4   12   0.404  -0.415   0.238
    1UNL     C9   13   0.223  -0.241   0.209
    1UNL     O5   14   0.228  -0.207   0.342
    1UNL    C10   15   0.173  -0.134   0.118
    1UNL     O6   16   0.245  -0.008   0.157
    1UNL    C11   17   0.218   0.096   0.073
    1UNL     O7   18   0.304   0.098  -0.043
    1UNL    C12   19   0.432   0.164  -0.032
    1UNL    C13   20   0.514   0.092   0.069
    1UNL     O8   21   0.519  -0.048   0.045
    1UNL    C14   22   0.412   0.313  -0.009
    1UNL     O9   23   0.428   0.384  -0.129
    1UNL    C15   24   0.266   0.344   0.038
    1UNL    O10   25   0.177   0.343  -0.078
    1UNL    C16   26   0.221   0.232   0.150
    1UNL    O11   27   0.318   0.222   0.255
    1UNL    O12   28   0.021  -0.070  -0.205
    1UNL    C17   29  -0.071   0.010  -0.269
    1UNL    C18   30  -0.206  -0.013  -0.252
    1UNL    C19   31  -0.300   0.091  -0.288
    1UNL    O13   32  -0.272   0.188  -0.354
    1UNL     N1   33  -0.430   0.073  -0.242
    1UNL    C20   34  -0.533   0.179  -0.275
    1UNL    C21   35  -0.562   0.267  -0.149
    1UNL    C22   36  -0.522   0.199  -0.021
    1UNL    C23   37  -0.491   0.068  -0.014
    1UNL     N2   38  -0.473   0.028   0.118
    1UNL    C24   39  -0.493   0.135   0.208
    1UNL    C25   40  -0.494   0.155   0.346
    1UNL    C26   41  -0.507   0.283   0.394
    1UNL    C27   42  -0.530   0.388   0.310
    1UNL    C28   43  -0.534   0.373   0.170
    1UNL    C29   44  -0.508   0.247   0.118
    1UNL    C30   45  -0.469  -0.021  -0.135
    1UNL    C31   46  -0.364  -0.134  -0.104
    1UNL    C32   47  -0.257  -0.148  -0.213
    1UNL     H1   48   0.021  -0.466  -0.208
    1UNL     H2   49   0.013  -0.475  -0.395
    1UNL     H3   50  -0.126  -0.272  -0.397
    1UNL     H4   51  -0.173  -0.320  -0.106
    1UNL     H5   52  -0.066  -0.120  -0.030
    1UNL     H6   53   0.169  -0.081  -0.092
    1UNL     H7   54   0.286  -0.414  -0.036
    1UNL     H8   55   0.488  -0.477  -0.110
    1UNL     H9   56   0.538  -0.456   0.046
    1UNL    H10   57   0.557  -0.211  -0.070
    1UNL    H11   58   0.429  -0.224   0.174
    1UNL    H12   59   0.348  -0.422   0.318
    1UNL    H13   60   0.153  -0.317   0.209
    1UNL    H14   61   0.259  -0.111   0.350
    1UNL    H15   62   0.072  -0.116   0.146
    1UNL    H16   63   0.123   0.071   0.035
    1UNL    H17   64   0.473   0.139  -0.130
    1UNL    H18   65   0.623   0.110   0.085
    1UNL    H19   66   0.461   0.102   0.166
    1UNL    H20   67   0.427  -0.071   0.015
    1UNL    H21   68   0.486   0.355   0.060
    1UNL    H22   69   0.345   0.391  -0.183
    1UNL    H23   70   0.259   0.443   0.085
    1UNL    H24   71   0.168   0.250  -0.116
    1UNL    H25   72   0.129   0.246   0.205
    1UNL    H26   73   0.338   0.314   0.277
    1UNL    H27   74  -0.036   0.090  -0.332
    1UNL    H28   75  -0.499   0.236  -0.358
    1UNL    H29   76  -0.621   0.133  -0.320
    1UNL    H30   77  -0.669   0.286  -0.145
    1UNL    H31   78  -0.508   0.363  -0.145
    1UNL    H32   79  -0.449  -0.070   0.142
    1UNL    H33   80  -0.489   0.059   0.409
    1UNL    H34   81  -0.531   0.298   0.504
    1UNL    H35   82  -0.531   0.485   0.357
    1UNL    H36   83  -0.561   0.465   0.118
    1UNL    H37   84  -0.567  -0.060  -0.165
    1UNL    H38   85  -0.410  -0.223  -0.081
    1UNL    H39   86  -0.312  -0.106  -0.006
    1UNL    H40   87  -0.314  -0.181  -0.301
   0.00000   0.00000   0.00000   0.00000   0.00000   0.00000   0.00000   0.00000   0.00000
Generated with MDTraj, t= 10.0
 87
    1UNL     C1    1   0.055  -0.378  -0.295
    1UNL     C2    2  -0.060  -0.303  -0.312
    1UNL     C3    3  -0.131  -0.233  -0.198
    1UNL     C4    4  -0.026  -0.154  -0.104
    1UNL     O1    5   0.071  -0.237  -0.049
    1UNL     C5    6   0.183  -0.167  -0.015
    1UNL     O2    7   0.311  -0.239  -0.058
    1UNL     C6    8   0.333  -0.353   0.015
    1UNL     C7    9   0.446  -0.420  -0.060
    1UNL     O3   10   0.555  -0.324  -0.081
    1UNL     C8   11   0.356  -0.311   0.165
    1UNL     O4   12   0.407  -0.409   0.253
    1UNL     C9   13   0.234  -0.241   0.237
    1UNL     O5   14   0.279  -0.184   0.357
    1UNL    C10   15   0.180  -0.134   0.140
    1UNL     O6   16   0.256  -0.010   0.158
    1UNL    C11   17   0.209   0.096   0.070
    1UNL     O7   18   0.287   0.080  -0.051
    1UNL    C12   19   0.420   0.145  -0.044
    1UNL    C13   20   0.497   0.072   0.067
    1UNL     O8   21   0.502  -0.065   0.056
    1UNL    C14   22   0.405   0.297  -0.035
    1UNL     O9   23   0.428   0.354  -0.160
    1UNL    C15   24   0.271   0.342   0.020
    1UNL    O10   25   0.170   0.343  -0.075
    1UNL    C16   26   0.222   0.235   0.129
    1UNL    O11   27   0.316   0.239   0.237
    1UNL    O12   28   0.021  -0.041  -0.179
    1UNL    C17   29  -0.070   0.035  -0.240
    1UNL    C18   30  -0.205   0.005  -0.249
    1UNL    C19   31  -0.302   0.103  -0.290
    1UNL    O13   32  -0.268   0.203  -0.351
    1UNL     N1   33  -0.437   0.079  -0.246
    1UNL    C20   34  -0.522   0.195  -0.271
    1UNL    C21   35  -0.534   0.272  -0.138
    1UNL    C22   36  -0.536   0.183  -0.016
    1UNL    C23   37  -0.499   0.049  -0.012
    1UNL     N2   38  -0.477   0.012   0.118
    1UNL    C24   39  -0.507   0.118   0.194
    1UNL    C25   40  -0.473   0.141   0.331
    1UNL    C26   41  -0.487   0.265   0.381
    1UNL    C27   42  -0.531   0.379   0.308
    1UNL    C28   43  -0.569   0.355   0.178
    1UNL    C29   44  -0.537   0.231   0.118
    1UNL    C30   45  -0.470  -0.029  -0.144
    1UNL    C31   46  -0.358  -0.131  -0.118
    1UNL    C32   47  -0.253  -0.134  -0.226
    1UNL     H1   48   0.101  -0.382  -0.201
    1UNL     H2   49   0.113  -0.423  -0.370
    1UNL     H3   50  -0.108  -0.287  -0.407
    1UNL     H4   51  -0.167  -0.316  -0.139
    1UNL     H5   52  -0.081  -0.113  -0.021
    1UNL     H6   53   0.179  -0.077  -0.088
    1UNL     H7   54   0.247  -0.419   0.010
    1UNL     H8   55   0.411  -0.447  -0.155
    1UNL     H9   56   0.479  -0.508  -0.008
    1UNL    H10   57   0.541  -0.256  -0.017
    1UNL    H11   58   0.436  -0.234   0.171
    1UNL    H12   59   0.374  -0.399   0.347
    1UNL    H13   60   0.163  -0.313   0.255
    1UNL    H14   61   0.341  -0.114   0.337
    1UNL    H15   62   0.080  -0.124   0.178
    1UNL    H16   63   0.105   0.080   0.049
    1UNL    H17   64   0.467   0.114  -0.134
    1UNL    H18   65   0.599   0.115   0.069
    1UNL    H19   66   0.455   0.079   0.170
    1UNL    H20   67   0.410  -0.082   0.020
    1UNL    H21   68   0.483   0.345   0.028
    1UNL    H22   69   0.363   0.414  -0.200
    1UNL    H23   70   0.276   0.442   0.059
    1UNL    H24   71   0.174   0.261  -0.124
    1UNL    H25   72   0.128   0.264   0.176
    1UNL    H26   73   0.332   0.328   0.257
    1UNL    H27   74  -0.038   0.139  -0.258
    1UNL    H28   75  -0.479   0.254  -0.348
    1UNL    H29   76  -0.621   0.160  -0.305
    1UNL    H30   77  -0.616   0.336  -0.138
    1UNL    H31   78  -0.434   0.325  -0.143
    1UNL    H32   79  -0.448  -0.081   0.147
    1UNL    H33   80  -0.452   0.064   0.393
    1UNL    H34   81  -0.442   0.266   0.477
    1UNL    H35   82  -0.529   0.481   0.350
    1UNL    H36   83  -0.598   0.436   0.116
    1UNL    H37   84  -0.561  -0.083  -0.171
    1UNL    H38   85  -0.389  -0.223  -0.086
    1UNL    H39   86  -0.305  -0.089  -0.024
    1UNL    H40   87  -0.303  -0.168  -0.318
   0.00000   0.00000   0.00000   0.00000   0.00000   0.00000   0.00000   0.00000   0.00000
Generated with MDTraj, t= 11.0
 87
    1UNL     C1    1   0.078  -0.266  -0.317
    1UNL     C2    2  -0.055  -0.268  -0.313
    1UNL     C3    3  -0.129  -0.222  -0.190
    1UNL     C4    4  -0.033  -0.144  -0.093
    1UNL     O1    5   0.056  -0.234  -0.035
    1UNL     C5    6   0.184  -0.171   0.001
    1UNL     O2    7   0.298  -0.243  -0.044
    1UNL     C6    8   0.324  -0.359   0.033
    1UNL     C7    9   0.429  -0.444  -0.037
    1UNL     O3   10   0.558  -0.381  -0.042
    1UNL     C8   11   0.360  -0.317   0.177
    1UNL     O4   12   0.411  -0.431   0.257
    1UNL     C9   13   0.241  -0.232   0.245
    1UNL     O5   14   0.296  -0.175   0.366
    1UNL    C10   15   0.197  -0.127   0.151
    1UNL     O6   16   0.262  -0.000   0.172
    1UNL    C11   17   0.215   0.105   0.078
    1UNL     O7   18   0.268   0.093  -0.054
    1UNL    C12   19   0.405   0.137  -0.061
    1UNL    C13   20   0.495   0.060   0.039
    1UNL     O8   21   0.521  -0.070  -0.001
    1UNL    C14   22   0.409   0.293  -0.049
    1UNL     O9   23   0.436   0.351  -0.178
    1UNL    C15   24   0.268   0.339   0.010
    1UNL    O10   25   0.167   0.329  -0.089
    1UNL    C16   26   0.230   0.243   0.129
    1UNL    O11   27   0.335   0.266   0.229
    1UNL    O12   28   0.019  -0.029  -0.165
    1UNL    C17   29  -0.076   0.049  -0.214
    1UNL    C18   30  -0.203   0.009  -0.236
    1UNL    C19   31  -0.300   0.106  -0.283
    1UNL    O13   32  -0.276   0.218  -0.326
    1UNL     N1   33  -0.441   0.071  -0.263
    1UNL    C20   34  -0.534   0.184  -0.278
    1UNL    C21   35  -0.557   0.270  -0.154
    1UNL    C22   36  -0.519   0.189  -0.025
    1UNL    C23   37  -0.489   0.055  -0.027
    1UNL     N2   38  -0.472   0.011   0.100
    1UNL    C24   39  -0.488   0.110   0.189
    1UNL    C25   40  -0.490   0.109   0.331
    1UNL    C26   41  -0.513   0.230   0.394
    1UNL    C27   42  -0.541   0.350   0.314
    1UNL    C28   43  -0.543   0.350   0.175
    1UNL    C29   44  -0.513   0.228   0.111
    1UNL    C30   45  -0.475  -0.027  -0.153
    1UNL    C31   46  -0.373  -0.140  -0.129
    1UNL    C32   47  -0.257  -0.133  -0.223
    1UNL     H1   48   0.142  -0.231  -0.229
    1UNL     H2   49   0.130  -0.320  -0.394
    1UNL     H3   50  -0.105  -0.323  -0.394
    1UNL     H4   51  -0.158  -0.314  -0.144
    1UNL     H5   52  -0.096  -0.104  -0.017
    1UNL     H6   53   0.195  -0.076  -0.063
    1UNL     H7   54   0.229  -0.416   0.035
    1UNL     H8   55   0.393  -0.465  -0.137
    1UNL     H9   56   0.437  -0.537   0.024
    1UNL    H10   57   0.541  -0.285  -0.060
    1UNL    H11   58   0.443  -0.248   0.177
    1UNL    H12   59   0.393  -0.432   0.355
    1UNL    H13   60   0.162  -0.295   0.271
    1UNL    H14   61   0.346  -0.090   0.341
    1UNL    H15   62   0.096  -0.112   0.192
    1UNL    H16   63   0.106   0.101   0.067
    1UNL    H17   64   0.441   0.094  -0.152
    1UNL    H18   65   0.596   0.101   0.049
    1UNL    H19   66   0.444   0.073   0.136
    1UNL    H20   67   0.427  -0.102  -0.003
    1UNL    H21   68   0.488   0.341   0.012
    1UNL    H22   69   0.347   0.387  -0.209
    1UNL    H23   70   0.282   0.441   0.038
    1UNL    H24   71   0.148   0.229  -0.103
    1UNL    H25   72   0.137   0.279   0.174
    1UNL    H26   73   0.346   0.359   0.251
    1UNL    H27   74  -0.037   0.149  -0.230
    1UNL    H28   75  -0.502   0.244  -0.358
    1UNL    H29   76  -0.632   0.135  -0.298
    1UNL    H30   77  -0.656   0.296  -0.160
    1UNL    H31   78  -0.485   0.357  -0.158
    1UNL    H32   79  -0.470  -0.083   0.132
    1UNL    H33   80  -0.476   0.011   0.382
    1UNL    H34   81  -0.529   0.258   0.499
    1UNL    H35   82  -0.534   0.445   0.358
    1UNL    H36   83  -0.561   0.438   0.111
    1UNL    H37   84  -0.569  -0.075  -0.180
    1UNL    H38   85  -0.423  -0.234  -0.132
    1UNL    H39   86  -0.330  -0.140  -0.024
    1UNL    H40   87  -0.290  -0.173  -0.322
   0.00000   0.00000   0.00000   0.00000   0.00000   0.00000   0.00000   0.00000   0.00000
Generated with MDTraj, t= 12.0
 87
    1UNL     C1    1   0.076  -0.195  -0.334
    1UNL     C2    2  -0.035  -0.258  -0.304
    1UNL     C3    3  -0.125  -0.213  -0.193
    1UNL     C4    4  -0.050  -0.141  -0.078
    1UNL     O1    5   0.047  -0.240  -0.033
    1UNL     C5    6   0.168  -0.174   0.006
    1UNL     O2    7   0.287  -0.244  -0.033
    1UNL     C6    8   0.315  -0.363   0.050
    1UNL     C7    9   0.429  -0.450   0.003
    1UNL     O3   10   0.558  -0.388  -0.006
    1UNL     C8   11   0.356  -0.307   0.185
    1UNL     O4   12   0.386  -0.422   0.267
    1UNL     C9   13   0.227  -0.226   0.250
    1UNL     O5   14   0.271  -0.157   0.366
    1UNL    C10   15   0.176  -0.120   0.150
    1UNL     O6   16   0.263  -0.005   0.155
    1UNL    C11   17   0.230   0.105   0.059
    1UNL     O7   18   0.286   0.080  -0.069
    1UNL    C12   19   0.411   0.138  -0.092
    1UNL    C13   20   0.526   0.060  -0.009
    1UNL     O8   21   0.523  -0.073  -0.050
    1UNL    C14   22   0.410   0.291  -0.072
    1UNL     O9   23   0.422   0.366  -0.194
    1UNL    C15   24   0.285   0.337   0.010
    1UNL    O10   25   0.172   0.326  -0.082
    1UNL    C16   26   0.262   0.243   0.128
    1UNL    O11   27   0.375   0.222   0.220
    1UNL    O12   28   0.003  -0.009  -0.113
    1UNL    C17   29  -0.090   0.069  -0.171
    1UNL    C18   30  -0.199   0.023  -0.233
    1UNL    C19   31  -0.301   0.118  -0.270
    1UNL    O13   32  -0.276   0.230  -0.309
    1UNL     N1   33  -0.433   0.073  -0.261
    1UNL    C20   34  -0.534   0.177  -0.278
    1UNL    C21   35  -0.528   0.262  -0.147
    1UNL    C22   36  -0.507   0.172  -0.021
    1UNL    C23   37  -0.480   0.036  -0.026
    1UNL     N2   38  -0.486  -0.018   0.107
    1UNL    C24   39  -0.509   0.093   0.190
    1UNL    C25   40  -0.507   0.105   0.330
    1UNL    C26   41  -0.528   0.231   0.395
    1UNL    C27   42  -0.549   0.345   0.306
    1UNL    C28   43  -0.546   0.335   0.171
    1UNL    C29   44  -0.523   0.208   0.118
    1UNL    C30   45  -0.467  -0.029  -0.163
    1UNL    C31   46  -0.365  -0.148  -0.164
    1UNL    C32   47  -0.238  -0.124  -0.242
    1UNL     H1   48   0.117  -0.127  -0.264
    1UNL     H2   49   0.133  -0.230  -0.411
    1UNL     H3   50  -0.062  -0.339  -0.367
    1UNL     H4   51  -0.157  -0.306  -0.149
    1UNL     H5   52  -0.108  -0.128   0.014
    1UNL     H6   53   0.184  -0.079  -0.053
    1UNL     H7   54   0.219  -0.421   0.049
    1UNL     H8   55   0.404  -0.491  -0.098
    1UNL     H9   56   0.445  -0.529   0.082
    1UNL    H10   57   0.542  -0.294  -0.043
    1UNL    H11   58   0.433  -0.235   0.178
    1UNL    H12   59   0.358  -0.407   0.357
    1UNL    H13   60   0.153  -0.297   0.275
    1UNL    H14   61   0.297  -0.073   0.328
    1UNL    H15   62   0.074  -0.090   0.185
    1UNL    H16   63   0.121   0.103   0.029
    1UNL    H17   64   0.454   0.117  -0.189
    1UNL    H18   65   0.618   0.115  -0.023
    1UNL    H19   66   0.499   0.070   0.096
    1UNL    H20   67   0.435  -0.107  -0.022
    1UNL    H21   68   0.492   0.334  -0.013
    1UNL    H22   69   0.329   0.384  -0.213
    1UNL    H23   70   0.287   0.439   0.043
    1UNL    H24   71   0.167   0.241  -0.124
    1UNL    H25   72   0.168   0.274   0.180
    1UNL    H26   73   0.391   0.299   0.286
    1UNL    H27   74  -0.054   0.170  -0.180
    1UNL    H28   75  -0.511   0.237  -0.359
    1UNL    H29   76  -0.632   0.126  -0.296
    1UNL    H30   77  -0.618   0.312  -0.131
    1UNL    H31   78  -0.441   0.334  -0.156
    1UNL    H32   79  -0.459  -0.109   0.131
    1UNL    H33   80  -0.502   0.016   0.394
    1UNL    H34   81  -0.553   0.235   0.504
    1UNL    H35   82  -0.571   0.448   0.345
    1UNL    H36   83  -0.543   0.414   0.100
    1UNL    H37   84  -0.568  -0.069  -0.180
    1UNL    H38   85  -0.416  -0.247  -0.192
    1UNL    H39   86  -0.340  -0.163  -0.059
    1UNL    H40   87  -0.258  -0.152  -0.348
   0.00000   0.00000   0.00000   0.00000   0.00000   0.00000   0.00000   0.00000   0.00000
Generated with MDTraj, t= 13.0
 87
    1UNL     C1    1   0.055  -0.125  -0.341
    1UNL     C2    2  -0.017  -0.226  -0.301
    1UNL     C3    3  -0.119  -0.216  -0.189
    1UNL     C4    4  -0.054  -0.160  -0.059
    1UNL     O1    5   0.058  -0.251  -0.025
    1UNL     C5    6   0.180  -0.184  -0.011
    1UNL     O2    7   0.300  -0.264  -0.033
    1UNL     C6    8   0.317  -0.366   0.070
    1UNL     C7    9   0.442  -0.440   0.027
    1UNL     O3   10   0.554  -0.361   0.021
    1UNL     C8   11   0.342  -0.299   0.205
    1UNL     O4   12   0.350  -0.399   0.312
    1UNL     C9   13   0.211  -0.217   0.240
    1UNL     O5   14   0.223  -0.177   0.372
    1UNL    C10   15   0.189  -0.112   0.122
    1UNL     O6   16   0.289  -0.017   0.128
    1UNL    C11   17   0.255   0.104   0.052
    1UNL     O7   18   0.284   0.097  -0.087
    1UNL    C12   19   0.412   0.140  -0.119
    1UNL    C13   20   0.516   0.049  -0.040
    1UNL     O8   21   0.502  -0.090  -0.070
    1UNL    C14   22   0.423   0.292  -0.094
    1UNL     O9   23   0.418   0.357  -0.221
    1UNL    C15   24   0.314   0.340   0.010
    1UNL    O10   25   0.189   0.358  -0.061
    1UNL    C16   26   0.306   0.242   0.124
    1UNL    O11   27   0.430   0.212   0.189
    1UNL    O12   28  -0.005  -0.028  -0.077
    1UNL    C17   29  -0.092   0.060  -0.142
    1UNL    C18   30  -0.202   0.019  -0.207
    1UNL    C19   31  -0.293   0.116  -0.271
    1UNL    O13   32  -0.254   0.227  -0.298
    1UNL     N1   33  -0.428   0.077  -0.270
    1UNL    C20   34  -0.522   0.191  -0.280
    1UNL    C21   35  -0.550   0.268  -0.149
    1UNL    C22   36  -0.532   0.178  -0.032
    1UNL    C23   37  -0.506   0.039  -0.037
    1UNL     N2   38  -0.498  -0.009   0.089
    1UNL    C24   39  -0.517   0.091   0.181
    1UNL    C25   40  -0.502   0.079   0.314
    1UNL    C26   41  -0.535   0.188   0.392
    1UNL    C27   42  -0.567   0.316   0.332
    1UNL    C28   43  -0.558   0.327   0.189
    1UNL    C29   44  -0.537   0.210   0.110
    1UNL    C30   45  -0.478  -0.031  -0.165
    1UNL    C31   46  -0.373  -0.150  -0.155
    1UNL    C32   47  -0.233  -0.121  -0.229
    1UNL     H1   48   0.047  -0.027  -0.296
    1UNL     H2   49   0.128  -0.138  -0.428
    1UNL     H3   50   0.003  -0.328  -0.340
    1UNL     H4   51  -0.163  -0.311  -0.169
    1UNL     H5   52  -0.123  -0.151   0.028
    1UNL     H6   53   0.185  -0.100  -0.089
    1UNL     H7   54   0.233  -0.442   0.082
    1UNL     H8   55   0.438  -0.476  -0.083
    1UNL     H9   56   0.475  -0.524   0.096
    1UNL    H10   57   0.538  -0.270   0.003
    1UNL    H11   58   0.431  -0.244   0.208
    1UNL    H12   59   0.269  -0.407   0.366
    1UNL    H13   60   0.128  -0.285   0.238
    1UNL    H14   61   0.279  -0.091   0.364
    1UNL    H15   62   0.087  -0.065   0.138
    1UNL    H16   63   0.141   0.113   0.059
    1UNL    H17   64   0.429   0.118  -0.227
    1UNL    H18   65   0.614   0.081  -0.073
    1UNL    H19   66   0.506   0.079   0.065
    1UNL    H20   67   0.405  -0.111  -0.069
    1UNL    H21   68   0.518   0.330  -0.055
    1UNL    H22   69   0.323   0.383  -0.239
    1UNL    H23   70   0.334   0.439   0.054
    1UNL    H24   71   0.152   0.268  -0.095
    1UNL    H25   72   0.227   0.265   0.200
    1UNL    H26   73   0.454   0.286   0.260
    1UNL    H27   74  -0.076   0.164  -0.119
    1UNL    H28   75  -0.477   0.252  -0.351
    1UNL    H29   76  -0.621   0.166  -0.329
    1UNL    H30   77  -0.652   0.309  -0.139
    1UNL    H31   78  -0.475   0.347  -0.123
    1UNL    H32   79  -0.488  -0.105   0.112
    1UNL    H33   80  -0.483  -0.011   0.358
    1UNL    H34   81  -0.536   0.176   0.495
    1UNL    H35   82  -0.611   0.399   0.378
    1UNL    H36   83  -0.554   0.421   0.134
    1UNL    H37   84  -0.574  -0.067  -0.205
    1UNL    H38   85  -0.424  -0.253  -0.187
    1UNL    H39   86  -0.347  -0.164  -0.055
    1UNL    H40   87  -0.268  -0.130  -0.335
   0.00000   0.00000   0.00000   0.00000   0.00000   0.00000   0.00000   0.00000   0.00000
Generated with MDTraj, t= 14.0
 87
    1UNL     C1    1   0.047  -0.120  -0.357
    1UNL     C2    2  -0.016  -0.224  -0.302
    1UNL     C3    3  -0.119  -0.205  -0.190
    1UNL     C4    4  -0.048  -0.168  -0.055
    1UNL     O1    5   0.065  -0.258  -0.044
    1UNL     C5    6   0.182  -0.185  -0.022
    1UNL     O2    7   0.302  -0.258  -0.035
    1UNL     C6    8   0.310  -0.360   0.074
    1UNL     C7    9   0.438  -0.431   0.043
    1UNL     O3   10   0.545  -0.342   0.061
    1UNL     C8   11   0.322  -0.295   0.218
    1UNL     O4   12   0.330  -0.386   0.332
    1UNL     C9   13   0.199  -0.211   0.237
    1UNL     O5   14   0.193  -0.145   0.356
    1UNL    C10   15   0.181  -0.108   0.117
    1UNL     O6   16   0.281  -0.015   0.134
    1UNL    C11   17   0.261   0.100   0.056
    1UNL     O7   18   0.281   0.091  -0.079
    1UNL    C12   19   0.409   0.126  -0.131
    1UNL    C13   20   0.533   0.039  -0.076
    1UNL     O8   21   0.518  -0.097  -0.101
    1UNL    C14   22   0.440   0.277  -0.118
    1UNL     O9   23   0.418   0.347  -0.240
    1UNL    C15   24   0.348   0.339  -0.003
    1UNL    O10   25   0.214   0.372  -0.042
    1UNL    C16   26   0.343   0.231   0.112
    1UNL    O11   27   0.473   0.196   0.152
    1UNL    O12   28  -0.017  -0.030  -0.030
    1UNL    C17   29  -0.093   0.065  -0.098
    1UNL    C18   30  -0.192   0.035  -0.192
    1UNL    C19   31  -0.284   0.142  -0.246
    1UNL    O13   32  -0.248   0.251  -0.283
    1UNL     N1   33  -0.416   0.100  -0.247
    1UNL    C20   34  -0.513   0.203  -0.267
    1UNL    C21   35  -0.571   0.260  -0.136
    1UNL    C22   36  -0.556   0.157  -0.030
    1UNL    C23   37  -0.511   0.030  -0.043
    1UNL     N2   38  -0.502  -0.036   0.078
    1UNL    C24   39  -0.532   0.059   0.178
    1UNL    C25   40  -0.522   0.067   0.315
    1UNL    C26   41  -0.548   0.182   0.388
    1UNL    C27   42  -0.576   0.301   0.320
    1UNL    C28   43  -0.583   0.303   0.185
    1UNL    C29   44  -0.569   0.178   0.112
    1UNL    C30   45  -0.468  -0.021  -0.177
    1UNL    C31   46  -0.369  -0.146  -0.171
    1UNL    C32   47  -0.227  -0.100  -0.234
    1UNL     H1   48   0.023  -0.024  -0.338
    1UNL     H2   49   0.133  -0.127  -0.419
    1UNL     H3   50   0.012  -0.321  -0.331
    1UNL     H4   51  -0.172  -0.296  -0.176
    1UNL     H5   52  -0.114  -0.190   0.034
    1UNL     H6   53   0.182  -0.106  -0.105
    1UNL     H7   54   0.220  -0.429   0.071
    1UNL     H8   55   0.452  -0.476  -0.063
    1UNL     H9   56   0.475  -0.509   0.119
    1UNL    H10   57   0.535  -0.253   0.013
    1UNL    H11   58   0.407  -0.234   0.228
    1UNL    H12   59   0.345  -0.341   0.421
    1UNL    H13   60   0.111  -0.276   0.248
    1UNL    H14   61   0.205  -0.049   0.347
    1UNL    H15   62   0.080  -0.059   0.136
    1UNL    H16   63   0.153   0.129   0.084
    1UNL    H17   64   0.396   0.084  -0.236
    1UNL    H18   65   0.621   0.073  -0.130
    1UNL    H19   66   0.558   0.046   0.033
    1UNL    H20   67   0.432  -0.138  -0.081
    1UNL    H21   68   0.548   0.279  -0.103
    1UNL    H22   69   0.331   0.390  -0.243
    1UNL    H23   70   0.396   0.429   0.041
    1UNL    H24   71   0.186   0.298  -0.091
    1UNL    H25   72   0.289   0.276   0.199
    1UNL    H26   73   0.500   0.270   0.215
    1UNL    H27   74  -0.069   0.171  -0.082
    1UNL    H28   75  -0.469   0.280  -0.324
    1UNL    H29   76  -0.591   0.166  -0.339
    1UNL    H30   77  -0.684   0.289  -0.138
    1UNL    H31   78  -0.514   0.346  -0.101
    1UNL    H32   79  -0.443  -0.113   0.102
    1UNL    H33   80  -0.482  -0.030   0.363
    1UNL    H34   81  -0.547   0.174   0.502
    1UNL    H35   82  -0.562   0.394   0.380
    1UNL    H36   83  -0.603   0.381   0.116
    1UNL    H37   84  -0.555  -0.042  -0.242
    1UNL    H38   85  -0.403  -0.244  -0.227
    1UNL    H39   86  -0.355  -0.175  -0.069
    1UNL    H40   87  -0.243  -0.092  -0.343
   0.00000   0.00000   0.00000   0.00000   0.00000   0.00000   0.00000   0.00000   0.00000
Generated with MDTraj, t= 15.0
 87
    1UNL     C1    1   0.062  -0.113  -0.347
    1UNL     C2    2  -0.004  -0.212  -0.293
    1UNL     C3    3  -0.112  -0.199  -0.184
    1UNL     C4    4  -0.051  -0.154  -0.051
    1UNL     O1    5   0.058  -0.240  -0.026
    1UNL     C5    6   0.178  -0.172  -0.006
    1UNL     O2    7   0.298  -0.243  -0.019
    1UNL     C6    8   0.324  -0.335   0.095
    1UNL     C7    9   0.439  -0.419   0.070
    1UNL     O3   10   0.559  -0.337   0.073
    1UNL     C8   11   0.317  -0.283   0.233
    1UNL     O4   12   0.315  -0.392   0.322
    1UNL     C9   13   0.191  -0.197   0.245
    1UNL     O5   14   0.179  -0.121   0.359
    1UNL    C10   15   0.180  -0.090   0.131
    1UNL     O6   16   0.295  -0.009   0.134
    1UNL    C11   17   0.275   0.102   0.056
    1UNL     O7   18   0.292   0.085  -0.088
    1UNL    C12   19   0.419   0.109  -0.148
    1UNL    C13   20   0.532   0.014  -0.098
    1UNL     O8   21   0.515  -0.121  -0.138
    1UNL    C14   22   0.455   0.262  -0.134
    1UNL     O9   23   0.413   0.326  -0.259
    1UNL    C15   24   0.379   0.323  -0.020
    1UNL    O10   25   0.249   0.356  -0.053
    1UNL    C16   26   0.366   0.227   0.103
    1UNL    O11   27   0.489   0.182   0.145
    1UNL    O12   28  -0.010  -0.015  -0.049
    1UNL    C17   29  -0.089   0.076  -0.109
    1UNL    C18   30  -0.198   0.045  -0.189
    1UNL    C19   31  -0.293   0.150  -0.215
    1UNL    O13   32  -0.275   0.267  -0.200
    1UNL     N1   33  -0.420   0.103  -0.255
    1UNL    C20   34  -0.523   0.209  -0.273
    1UNL    C21   35  -0.564   0.267  -0.137
    1UNL    C22   36  -0.566   0.160  -0.032
    1UNL    C23   37  -0.512   0.031  -0.052
    1UNL     N2   38  -0.495  -0.034   0.071
    1UNL    C24   39  -0.537   0.054   0.170
    1UNL    C25   40  -0.530   0.035   0.308
    1UNL    C26   41  -0.569   0.143   0.383
    1UNL    C27   42  -0.613   0.260   0.317
    1UNL    C28   43  -0.621   0.283   0.188
    1UNL    C29   44  -0.573   0.180   0.109
    1UNL    C30   45  -0.476  -0.013  -0.185
    1UNL    C31   46  -0.372  -0.135  -0.181
    1UNL    C32   47  -0.225  -0.096  -0.235
    1UNL     H1   48   0.046  -0.006  -0.316
    1UNL     H2   49   0.138  -0.126  -0.427
    1UNL     H3   50   0.013  -0.307  -0.347
    1UNL     H4   51  -0.149  -0.297  -0.170
    1UNL     H5   52  -0.117  -0.171   0.039
    1UNL     H6   53   0.183  -0.100  -0.094
    1UNL     H7   54   0.237  -0.403   0.075
    1UNL     H8   55   0.441  -0.478  -0.029
    1UNL     H9   56   0.450  -0.498   0.151
    1UNL    H10   57   0.557  -0.259   0.011
    1UNL    H11   58   0.406  -0.227   0.245
    1UNL    H12   59   0.238  -0.452   0.301
    1UNL    H13   60   0.109  -0.270   0.237
    1UNL    H14   61   0.234  -0.043   0.350
    1UNL    H15   62   0.085  -0.030   0.152
    1UNL    H16   63   0.166   0.128   0.080
    1UNL    H17   64   0.400   0.101  -0.260
    1UNL    H18   65   0.635   0.045  -0.121
    1UNL    H19   66   0.523   0.013   0.013
    1UNL    H20   67   0.422  -0.149  -0.110
    1UNL    H21   68   0.564   0.268  -0.130
    1UNL    H22   69   0.324   0.370  -0.252
    1UNL    H23   70   0.426   0.415   0.023
    1UNL    H24   71   0.206   0.270  -0.092
    1UNL    H25   72   0.318   0.281   0.189
    1UNL    H26   73   0.532   0.249   0.194
    1UNL    H27   74  -0.062   0.183  -0.101
    1UNL    H28   75  -0.476   0.281  -0.339
    1UNL    H29   76  -0.613   0.178  -0.333
    1UNL    H30   77  -0.673   0.315  -0.147
    1UNL    H31   78  -0.496   0.345  -0.107
    1UNL    H32   79  -0.453  -0.124   0.097
    1UNL    H33   80  -0.494  -0.054   0.354
    1UNL    H34   81  -0.541   0.141   0.483
    1UNL    H35   82  -0.643   0.339   0.380
    1UNL    H36   83  -0.656   0.377   0.142
    1UNL    H37   84  -0.575  -0.043  -0.228
    1UNL    H38   85  -0.419  -0.212  -0.248
    1UNL    H39   86  -0.355  -0.186  -0.082
    1UNL    H40   87  -0.210  -0.104  -0.343
   0.00000   0.00000   0.00000   0.00000   0.00000   0.00000   0.00000   0.00000   0.00000
Generated with MDTraj, t= 16.0
 87
    1UNL     C1    1   0.088  -0.111  -0.334
    1UNL     C2    2  -0.016  -0.189  -0.302
    1UNL     C3    3  -0.108  -0.170  -0.188
    1UNL     C4    4  -0.044  -0.124  -0.049
    1UNL     O1    5   0.054  -0.222  -0.014
    1UNL     C5    6   0.188  -0.169   0.008
    1UNL     O2    7   0.291  -0.258  -0.005
    1UNL     C6    8   0.305  -0.350   0.098
    1UNL     C7    9   0.426  -0.435   0.087
    1UNL     O3   10   0.537  -0.334   0.075
    1UNL     C8   11   0.314  -0.284   0.233
    1UNL     O4   12   0.314  -0.383   0.340
    1UNL     C9   13   0.198  -0.194   0.250
    1UNL     O5   14   0.199  -0.139   0.377
    1UNL    C10   15   0.190  -0.088   0.139
    1UNL     O6   16   0.297   0.005   0.140
    1UNL    C11   17   0.284   0.111   0.051
    1UNL     O7   18   0.304   0.077  -0.093
    1UNL    C12   19   0.432   0.092  -0.155
    1UNL    C13   20   0.528  -0.001  -0.096
    1UNL     O8   21   0.494  -0.133  -0.136
    1UNL    C14   22   0.470   0.253  -0.150
    1UNL     O9   23   0.443   0.315  -0.278
    1UNL    C15   24   0.398   0.327  -0.039
    1UNL    O10   25   0.269   0.368  -0.089
    1UNL    C16   26   0.391   0.226   0.086
    1UNL    O11   27   0.518   0.180   0.117
    1UNL    O12   28   0.006   0.016  -0.061
    1UNL    C17   29  -0.086   0.100  -0.106
    1UNL    C18   30  -0.203   0.068  -0.166
    1UNL    C19   31  -0.304   0.168  -0.199
    1UNL    O13   32  -0.282   0.287  -0.198
    1UNL     N1   33  -0.427   0.113  -0.242
    1UNL    C20   34  -0.533   0.216  -0.266
    1UNL    C21   35  -0.594   0.255  -0.132
    1UNL    C22   36  -0.556   0.151  -0.026
    1UNL    C23   37  -0.509   0.020  -0.051
    1UNL     N2   38  -0.504  -0.050   0.064
    1UNL    C24   39  -0.548   0.036   0.165
    1UNL    C25   40  -0.564   0.011   0.299
    1UNL    C26   41  -0.611   0.111   0.376
    1UNL    C27   42  -0.642   0.234   0.327
    1UNL    C28   43  -0.633   0.260   0.195
    1UNL    C29   44  -0.579   0.158   0.110
    1UNL    C30   45  -0.474  -0.019  -0.192
    1UNL    C31   46  -0.366  -0.129  -0.208
    1UNL    C32   47  -0.223  -0.069  -0.227
    1UNL     H1   48   0.103  -0.014  -0.288
    1UNL     H2   49   0.157  -0.130  -0.404
    1UNL     H3   50  -0.041  -0.272  -0.363
    1UNL     H4   51  -0.156  -0.263  -0.172
    1UNL     H5   52  -0.123  -0.124   0.028
    1UNL     H6   53   0.207  -0.099  -0.080
    1UNL     H7   54   0.210  -0.405   0.112
    1UNL     H8   55   0.426  -0.516   0.009
    1UNL     H9   56   0.446  -0.489   0.181
    1UNL    H10   57   0.538  -0.282  -0.007
    1UNL    H11   58   0.404  -0.227   0.250
    1UNL    H12   59   0.328  -0.338   0.424
    1UNL    H13   60   0.108  -0.261   0.249
    1UNL    H14   61   0.276  -0.075   0.390
    1UNL    H15   62   0.095  -0.029   0.153
    1UNL    H16   63   0.180   0.150   0.054
    1UNL    H17   64   0.421   0.072  -0.266
    1UNL    H18   65   0.631   0.009  -0.133
    1UNL    H19   66   0.537   0.003   0.014
    1UNL    H20   67   0.415  -0.153  -0.085
    1UNL    H21   68   0.577   0.261  -0.125
    1UNL    H22   69   0.345   0.326  -0.273
    1UNL    H23   70   0.450   0.425  -0.015
    1UNL    H24   71   0.206   0.293  -0.099
    1UNL    H25   72   0.349   0.281   0.172
    1UNL    H26   73   0.576   0.252   0.134
    1UNL    H27   74  -0.069   0.202  -0.079
    1UNL    H28   75  -0.490   0.308  -0.308
    1UNL    H29   76  -0.602   0.180  -0.345
    1UNL    H30   77  -0.708   0.261  -0.152
    1UNL    H31   78  -0.559   0.358  -0.109
    1UNL    H32   79  -0.484  -0.153   0.070
    1UNL    H33   80  -0.541  -0.081   0.341
    1UNL    H34   81  -0.635   0.107   0.485
    1UNL    H35   82  -0.677   0.317   0.391
    1UNL    H36   83  -0.666   0.356   0.164
    1UNL    H37   84  -0.565  -0.045  -0.249
    1UNL    H38   85  -0.380  -0.208  -0.281
    1UNL    H39   86  -0.359  -0.186  -0.106
    1UNL    H40   87  -0.205  -0.056  -0.333
   0.00000   0.00000   0.00000   0.00000   0.00000   0.00000   0.00000   0.00000   0.00000
Generated with MDTraj, t= 17.0
 87
    1UNL     C1    1   0.117  -0.089  -0.299
    1UNL     C2    2   0.013  -0.169  -0.294
    1UNL     C3    3  -0.097  -0.154  -0.197
    1UNL     C4    4  -0.051  -0.111  -0.053
    1UNL     O1    5   0.042  -0.212  -0.007
    1UNL     C5    6   0.181  -0.156   0.004
    1UNL     O2    7   0.295  -0.250  -0.011
    1UNL     C6    8   0.299  -0.340   0.099
    1UNL     C7    9   0.396  -0.452   0.084
    1UNL     O3   10   0.524  -0.403   0.069
    1UNL     C8   11   0.315  -0.264   0.232
    1UNL     O4   12   0.322  -0.344   0.352
    1UNL     C9   13   0.208  -0.165   0.257
    1UNL     O5   14   0.242  -0.087   0.369
    1UNL    C10   15   0.193  -0.071   0.132
    1UNL     O6   16   0.312   0.008   0.134
    1UNL    C11   17   0.304   0.110   0.042
    1UNL     O7   18   0.299   0.060  -0.090
    1UNL    C12   19   0.426   0.075  -0.160
    1UNL    C13   20   0.538  -0.012  -0.103
    1UNL     O8   21   0.511  -0.153  -0.117
    1UNL    C14   22   0.477   0.227  -0.158
    1UNL     O9   23   0.464   0.290  -0.289
    1UNL    C15   24   0.410   0.315  -0.055
    1UNL    O10   25   0.286   0.362  -0.106
    1UNL    C16   26   0.405   0.224   0.077
    1UNL    O11   27   0.523   0.184   0.130
    1UNL    O12   28   0.008   0.025  -0.056
    1UNL    C17   29  -0.075   0.112  -0.120
    1UNL    C18   30  -0.188   0.083  -0.184
    1UNL    C19   31  -0.294   0.181  -0.217
    1UNL    O13   32  -0.274   0.300  -0.223
    1UNL     N1   33  -0.425   0.128  -0.239
    1UNL    C20   34  -0.532   0.228  -0.241
    1UNL    C21   35  -0.598   0.267  -0.106
    1UNL    C22   36  -0.585   0.144  -0.015
    1UNL    C23   37  -0.533   0.022  -0.053
    1UNL     N2   38  -0.541  -0.062   0.054
    1UNL    C24   39  -0.589   0.009   0.158
    1UNL    C25   40  -0.591  -0.025   0.293
    1UNL    C26   41  -0.623   0.078   0.377
    1UNL    C27   42  -0.675   0.197   0.343
    1UNL    C28   43  -0.680   0.233   0.211
    1UNL    C29   44  -0.626   0.140   0.117
    1UNL    C30   45  -0.467  -0.010  -0.186
    1UNL    C31   46  -0.354  -0.110  -0.179
    1UNL    C32   47  -0.218  -0.058  -0.232
    1UNL     H1   48   0.129   0.002  -0.239
    1UNL     H2   49   0.198  -0.109  -0.370
    1UNL     H3   50   0.002  -0.260  -0.353
    1UNL     H4   51  -0.140  -0.251  -0.185
    1UNL     H5   52  -0.141  -0.108   0.007
    1UNL     H6   53   0.185  -0.088  -0.086
    1UNL     H7   54   0.200  -0.380   0.106
    1UNL     H8   55   0.374  -0.506  -0.009
    1UNL     H9   56   0.405  -0.527   0.161
    1UNL    H10   57   0.522  -0.322   0.007
    1UNL    H11   58   0.406  -0.202   0.208
    1UNL    H12   59   0.280  -0.292   0.422
    1UNL    H13   60   0.114  -0.225   0.272
    1UNL    H14   61   0.318  -0.027   0.339
    1UNL    H15   62   0.105  -0.002   0.137
    1UNL    H16   63   0.204   0.153   0.048
    1UNL    H17   64   0.404   0.047  -0.266
    1UNL    H18   65   0.641   0.011  -0.137
    1UNL    H19   66   0.543  -0.002   0.010
    1UNL    H20   67   0.412  -0.166  -0.133
    1UNL    H21   68   0.587   0.229  -0.136
    1UNL    H22   69   0.386   0.348  -0.279
    1UNL    H23   70   0.488   0.398  -0.055
    1UNL    H24   71   0.232   0.288  -0.137
    1UNL    H25   72   0.350   0.276   0.157
    1UNL    H26   73   0.598   0.249   0.123
    1UNL    H27   74  -0.051   0.214  -0.098
    1UNL    H28   75  -0.492   0.314  -0.301
    1UNL    H29   76  -0.614   0.191  -0.300
    1UNL    H30   77  -0.702   0.298  -0.131
    1UNL    H31   78  -0.538   0.358  -0.077
    1UNL    H32   79  -0.501  -0.159   0.033
    1UNL    H33   80  -0.560  -0.124   0.345
    1UNL    H34   81  -0.629   0.048   0.480
    1UNL    H35   82  -0.716   0.254   0.426
    1UNL    H36   83  -0.723   0.329   0.185
    1UNL    H37   84  -0.544  -0.048  -0.256
    1UNL    H38   85  -0.378  -0.209  -0.213
    1UNL    H39   86  -0.331  -0.130  -0.068
    1UNL    H40   87  -0.229  -0.051  -0.340
   0.00000   0.00000   0.00000   0.00000   0.00000   0.00000   0.00000   0.00000   0.00000
Generated with MDTraj, t= 18.0
 87
    1UNL     C1    1   0.073  -0.040  -0.335
    1UNL     C2    2   0.003  -0.144  -0.303
    1UNL     C3    3  -0.096  -0.145  -0.186
    1UNL     C4    4  -0.044  -0.098  -0.049
    1UNL     O1    5   0.041  -0.196   0.016
    1UNL     C5    6   0.172  -0.147   0.024
    1UNL     O2    7   0.263  -0.257   0.009
    1UNL     C6    8   0.272  -0.340   0.123
    1UNL     C7    9   0.357  -0.462   0.086
    1UNL     O3   10   0.483  -0.430   0.041
    1UNL     C8   11   0.331  -0.265   0.248
    1UNL     O4   12   0.340  -0.357   0.366
    1UNL     C9   13   0.231  -0.149   0.265
    1UNL     O5   14   0.271  -0.069   0.372
    1UNL    C10   15   0.210  -0.062   0.137
    1UNL     O6   16   0.331   0.006   0.122
    1UNL    C11   17   0.314   0.108   0.021
    1UNL     O7   18   0.324   0.065  -0.119
    1UNL    C12   19   0.458   0.075  -0.163
    1UNL    C13   20   0.538  -0.005  -0.064
    1UNL     O8   21   0.505  -0.140  -0.083
    1UNL    C14   22   0.508   0.217  -0.177
    1UNL     O9   23   0.492   0.261  -0.314
    1UNL    C15   24   0.436   0.314  -0.088
    1UNL    O10   25   0.321   0.362  -0.148
    1UNL    C16   26   0.403   0.235   0.056
    1UNL    O11   27   0.524   0.198   0.115
    1UNL    O12   28   0.007   0.034  -0.046
    1UNL    C17   29  -0.072   0.124  -0.112
    1UNL    C18   30  -0.181   0.090  -0.184
    1UNL    C19   31  -0.289   0.187  -0.215
    1UNL    O13   32  -0.260   0.301  -0.242
    1UNL     N1   33  -0.422   0.140  -0.224
    1UNL    C20   34  -0.526   0.245  -0.231
    1UNL    C21   35  -0.586   0.273  -0.086
    1UNL    C22   36  -0.584   0.143  -0.007
    1UNL    C23   37  -0.537   0.017  -0.050
    1UNL     N2   38  -0.551  -0.079   0.048
    1UNL    C24   39  -0.612  -0.018   0.156
    1UNL    C25   40  -0.646  -0.062   0.282
    1UNL    C26   41  -0.691   0.024   0.370
    1UNL    C27   42  -0.712   0.158   0.338
    1UNL    C28   43  -0.688   0.212   0.217
    1UNL    C29   44  -0.632   0.122   0.126
    1UNL    C30   45  -0.459   0.002  -0.181
    1UNL    C31   46  -0.341  -0.095  -0.161
    1UNL    C32   47  -0.212  -0.051  -0.220
    1UNL     H1   48   0.066   0.046  -0.277
    1UNL     H2   49   0.158  -0.055  -0.402
    1UNL     H3   50   0.031  -0.239  -0.347
    1UNL     H4   51  -0.119  -0.246  -0.161
    1UNL     H5   52  -0.130  -0.094   0.015
    1UNL     H6   53   0.180  -0.086  -0.073
    1UNL     H7   54   0.172  -0.373   0.146
    1UNL     H8   55   0.318  -0.531   0.012
    1UNL     H9   56   0.375  -0.519   0.171
    1UNL    H10   57   0.489  -0.337   0.013
    1UNL    H11   58   0.428  -0.221   0.206
    1UNL    H12   59   0.314  -0.299   0.442
    1UNL    H13   60   0.139  -0.202   0.311
    1UNL    H14   61   0.343  -0.013   0.342
    1UNL    H15   62   0.138   0.016   0.162
    1UNL    H16   63   0.213   0.140   0.019
    1UNL    H17   64   0.459   0.020  -0.258
    1UNL    H18   65   0.641   0.000  -0.104
    1UNL    H19   66   0.528   0.033   0.040
    1UNL    H20   67   0.410  -0.156  -0.073
    1UNL    H21   68   0.618   0.230  -0.153
    1UNL    H22   69   0.408   0.311  -0.327
    1UNL    H23   70   0.504   0.400  -0.066
    1UNL    H24   71   0.251   0.286  -0.152
    1UNL    H25   72   0.346   0.304   0.119
    1UNL    H26   73   0.597   0.272   0.102
    1UNL    H27   74  -0.040   0.228  -0.103
    1UNL    H28   75  -0.495   0.339  -0.288
    1UNL    H29   76  -0.601   0.205  -0.296
    1UNL    H30   77  -0.682   0.319  -0.106
    1UNL    H31   78  -0.516   0.352  -0.039
    1UNL    H32   79  -0.519  -0.180   0.032
    1UNL    H33   80  -0.638  -0.163   0.300
    1UNL    H34   81  -0.706  -0.008   0.471
    1UNL    H35   82  -0.755   0.217   0.416
    1UNL    H36   83  -0.704   0.319   0.216
    1UNL    H37   84  -0.531  -0.044  -0.251
    1UNL    H38   85  -0.365  -0.197  -0.190
    1UNL    H39   86  -0.326  -0.103  -0.055
    1UNL    H40   87  -0.222  -0.046  -0.328
   0.00000   0.00000   0.00000   0.00000   0.00000   0.00000   0.00000   0.00000   0.00000
Generated with MDTraj, t= 19.0
 87
    1UNL     C1    1   0.064  -0.047  -0.347
    1UNL     C2    2   0.036  -0.125  -0.246
    1UNL     C3    3  -0.090  -0.126  -0.164
    1UNL     C4    4  -0.043  -0.065  -0.030
    1UNL     O1    5   0.047  -0.163   0.031
    1UNL     C5    6   0.185  -0.136   0.015
    1UNL     O2    7   0.267  -0.257  -0.002
    1UNL     C6    8   0.259  -0.338   0.113
    1UNL     C7    9   0.331  -0.475   0.093
    1UNL     O3   10   0.463  -0.457   0.051
    1UNL     C8   11   0.329  -0.268   0.232
    1UNL     O4   12   0.337  -0.350   0.349
    1UNL     C9   13   0.249  -0.137   0.263
    1UNL     O5   14   0.313  -0.052   0.356
    1UNL    C10   15   0.223  -0.050   0.135
    1UNL     O6   16   0.335   0.031   0.119
    1UNL    C11   17   0.324   0.118   0.010
    1UNL     O7   18   0.345   0.050  -0.112
    1UNL    C12   19   0.485   0.058  -0.163
    1UNL    C13   20   0.576  -0.024  -0.064
    1UNL     O8   21   0.517  -0.149  -0.066
    1UNL    C14   22   0.538   0.201  -0.178
    1UNL     O9   23   0.535   0.229  -0.324
    1UNL    C15   24   0.447   0.305  -0.115
    1UNL    O10   25   0.333   0.325  -0.193
    1UNL    C16   26   0.396   0.251   0.028
    1UNL    O11   27   0.509   0.226   0.106
    1UNL    O12   28   0.006   0.064  -0.032
    1UNL    C17   29  -0.073   0.143  -0.106
    1UNL    C18   30  -0.191   0.095  -0.169
    1UNL    C19   31  -0.290   0.193  -0.198
    1UNL    O13   32  -0.271   0.312  -0.208
    1UNL     N1   33  -0.422   0.149  -0.221
    1UNL    C20   34  -0.531   0.246  -0.208
    1UNL    C21   35  -0.559   0.276  -0.063
    1UNL    C22   36  -0.576   0.141   0.009
    1UNL    C23   37  -0.529   0.025  -0.044
    1UNL     N2   38  -0.569  -0.082   0.040
    1UNL    C24   39  -0.634  -0.030   0.150
    1UNL    C25   40  -0.705  -0.095   0.260
    1UNL    C26   41  -0.769  -0.012   0.343
    1UNL    C27   42  -0.770   0.125   0.337
    1UNL    C28   43  -0.704   0.188   0.234
    1UNL    C29   44  -0.642   0.110   0.132
    1UNL    C30   45  -0.470   0.012  -0.177
    1UNL    C31   46  -0.352  -0.095  -0.181
    1UNL    C32   47  -0.212  -0.047  -0.221
    1UNL     H1   48   0.002   0.038  -0.358
    1UNL     H2   49   0.151  -0.058  -0.413
    1UNL     H3   50   0.113  -0.194  -0.217
    1UNL     H4   51  -0.118  -0.228  -0.145
    1UNL     H5   52  -0.132  -0.054   0.026
    1UNL     H6   53   0.183  -0.079  -0.083
    1UNL     H7   54   0.157  -0.357   0.144
    1UNL     H8   55   0.269  -0.526   0.023
    1UNL     H9   56   0.336  -0.536   0.177
    1UNL    H10   57   0.473  -0.382  -0.015
    1UNL    H11   58   0.435  -0.246   0.191
    1UNL    H12   59   0.337  -0.286   0.425
    1UNL    H13   60   0.152  -0.170   0.318
    1UNL    H14   61   0.372   0.016   0.307
    1UNL    H15   62   0.143   0.019   0.157
    1UNL    H16   63   0.223   0.148   0.003
    1UNL    H17   64   0.484   0.005  -0.256
    1UNL    H18   65   0.676  -0.017  -0.107
    1UNL    H19   66   0.567   0.021   0.035
    1UNL    H20   67   0.419  -0.139  -0.061
    1UNL    H21   68   0.646   0.215  -0.153
    1UNL    H22   69   0.448   0.224  -0.366
    1UNL    H23   70   0.490   0.402  -0.091
    1UNL    H24   71   0.277   0.251  -0.212
    1UNL    H25   72   0.327   0.324   0.071
    1UNL    H26   73   0.571   0.310   0.107
    1UNL    H27   74  -0.052   0.250  -0.095
    1UNL    H28   75  -0.498   0.338  -0.265
    1UNL    H29   76  -0.617   0.212  -0.262
    1UNL    H30   77  -0.648   0.335  -0.050
    1UNL    H31   78  -0.469   0.339  -0.018
    1UNL    H32   79  -0.565  -0.189   0.036
    1UNL    H33   80  -0.700  -0.202   0.266
    1UNL    H34   81  -0.820  -0.056   0.430
    1UNL    H35   82  -0.800   0.182   0.426
    1UNL    H36   83  -0.696   0.294   0.219
    1UNL    H37   84  -0.545  -0.018  -0.252
    1UNL    H38   85  -0.385  -0.181  -0.239
    1UNL    H39   86  -0.347  -0.134  -0.087
    1UNL    H40   87  -0.208  -0.050  -0.329
   0.00000   0.00000   0.00000   0.00000   0.00000   0.00000   0.00000   0.00000   0.00000
Generated with MDTraj, t= 20.0
 87
    1UNL     C1    1   0.077  -0.041  -0.329
    1UNL     C2    2   0.005  -0.131  -0.263
    1UNL     C3    3  -0.104  -0.118  -0.152
    1UNL     C4    4  -0.043  -0.064  -0.016
    1UNL     O1    5   0.040  -0.161   0.058
    1UNL     C5    6   0.177  -0.126   0.029
    1UNL     O2    7   0.259  -0.234  -0.008
    1UNL     C6    8   0.260  -0.320   0.103
    1UNL     C7    9   0.322  -0.454   0.066
    1UNL     O3   10   0.461  -0.441   0.050
    1UNL     C8   11   0.332  -0.257   0.227
    1UNL     O4   12   0.341  -0.333   0.344
    1UNL     C9   13   0.268  -0.122   0.271
    1UNL     O5   14   0.348  -0.051   0.358
    1UNL    C10   15   0.237  -0.036   0.152
    1UNL     O6   16   0.348   0.036   0.113
    1UNL    C11   17   0.323   0.106  -0.010
    1UNL     O7   18   0.350   0.032  -0.130
    1UNL    C12   19   0.494   0.038  -0.170
    1UNL    C13   20   0.588  -0.034  -0.062
    1UNL     O8   21   0.536  -0.158  -0.031
    1UNL    C14   22   0.552   0.174  -0.190
    1UNL     O9   23   0.596   0.201  -0.324
    1UNL    C15   24   0.455   0.287  -0.152
    1UNL    O10   25   0.353   0.292  -0.244
    1UNL    C16   26   0.405   0.245  -0.009
    1UNL    O11   27   0.517   0.240   0.085
    1UNL    O12   28   0.006   0.074  -0.027
    1UNL    C17   29  -0.080   0.160  -0.082
    1UNL    C18   30  -0.189   0.119  -0.154
    1UNL    C19   31  -0.290   0.217  -0.181
    1UNL    O13   32  -0.265   0.334  -0.160
    1UNL     N1   33  -0.420   0.166  -0.205
    1UNL    C20   34  -0.528   0.259  -0.189
    1UNL    C21   35  -0.563   0.271  -0.039
    1UNL    C22   36  -0.592   0.135   0.010
    1UNL    C23   37  -0.543   0.019  -0.043
    1UNL     N2   38  -0.586  -0.094   0.029
    1UNL    C24   39  -0.663  -0.047   0.133
    1UNL    C25   40  -0.738  -0.115   0.226
    1UNL    C26   41  -0.817  -0.046   0.314
    1UNL    C27   42  -0.816   0.100   0.311
    1UNL    C28   43  -0.733   0.166   0.227
    1UNL    C29   44  -0.664   0.094   0.133
    1UNL    C30   45  -0.462   0.020  -0.165
    1UNL    C31   46  -0.342  -0.088  -0.148
    1UNL    C32   47  -0.209  -0.025  -0.194
    1UNL     H1   48   0.068   0.066  -0.308
    1UNL     H2   49   0.163  -0.069  -0.387
    1UNL     H3   50   0.031  -0.235  -0.282
    1UNL     H4   51  -0.147  -0.215  -0.127
    1UNL     H5   52  -0.128  -0.044   0.049
    1UNL     H6   53   0.165  -0.069  -0.068
    1UNL     H7   54   0.158  -0.337   0.141
    1UNL     H8   55   0.277  -0.480  -0.028
    1UNL     H9   56   0.295  -0.523   0.139
    1UNL    H10   57   0.493  -0.352   0.029
    1UNL    H11   58   0.439  -0.235   0.189
    1UNL    H12   59   0.354  -0.272   0.419
    1UNL    H13   60   0.161  -0.133   0.317
    1UNL    H14   61   0.407   0.006   0.310
    1UNL    H15   62   0.167   0.042   0.180
    1UNL    H16   63   0.219   0.133  -0.016
    1UNL    H17   64   0.490  -0.037  -0.247
    1UNL    H18   65   0.687  -0.055  -0.101
    1UNL    H19   66   0.589   0.036   0.021
    1UNL    H20   67   0.434  -0.152  -0.032
    1UNL    H21   68   0.644   0.180  -0.129
    1UNL    H22   69   0.516   0.215  -0.382
    1UNL    H23   70   0.517   0.376  -0.140
    1UNL    H24   71   0.284   0.215  -0.239
    1UNL    H25   72   0.336   0.324   0.021
    1UNL    H26   73   0.560   0.328   0.093
    1UNL    H27   74  -0.073   0.263  -0.053
    1UNL    H28   75  -0.495   0.355  -0.243
    1UNL    H29   76  -0.609   0.222  -0.248
    1UNL    H30   77  -0.646   0.337  -0.015
    1UNL    H31   78  -0.476   0.307   0.030
    1UNL    H32   79  -0.584  -0.200   0.024
    1UNL    H33   80  -0.730  -0.231   0.219
    1UNL    H34   81  -0.872  -0.097   0.387
    1UNL    H35   82  -0.880   0.155   0.376
    1UNL    H36   83  -0.732   0.275   0.237
    1UNL    H37   84  -0.528  -0.010  -0.248
    1UNL    H38   85  -0.358  -0.184  -0.199
    1UNL    H39   86  -0.337  -0.114  -0.049
    1UNL    H40   87  -0.226  -0.027  -0.301
   0.00000   0.00000   0.00000   0.00000   0.00000   0.00000   0.00000   0.00000   0.00000
Generated with MDTraj, t= 21.0
 87
    1UNL     C1    1   0.105  -0.025  -0.270
    1UNL     C2    2   0.019  -0.119  -0.235
    1UNL     C3    3  -0.102  -0.105  -0.141
    1UNL     C4    4  -0.037  -0.059  -0.008
    1UNL     O1    5   0.053  -0.159   0.044
    1UNL     C5    6   0.193  -0.137   0.017
    1UNL     O2    7   0.266  -0.256   0.007
    1UNL     C6    8   0.283  -0.333   0.120
    1UNL     C7    9   0.354  -0.461   0.083
    1UNL     O3   10   0.481  -0.435   0.030
    1UNL     C8   11   0.356  -0.247   0.233
    1UNL     O4   12   0.351  -0.325   0.350
    1UNL     C9   13   0.277  -0.114   0.260
    1UNL     O5   14   0.349  -0.043   0.359
    1UNL    C10   15   0.250  -0.037   0.133
    1UNL     O6   16   0.367   0.035   0.095
    1UNL    C11   17   0.353   0.104  -0.026
    1UNL     O7   18   0.378   0.027  -0.144
    1UNL    C12   19   0.521   0.013  -0.179
    1UNL    C13   20   0.588  -0.045  -0.048
    1UNL     O8   21   0.519  -0.157  -0.010
    1UNL    C14   22   0.575   0.154  -0.210
    1UNL     O9   23   0.611   0.162  -0.346
    1UNL    C15   24   0.480   0.275  -0.174
    1UNL    O10   25   0.387   0.268  -0.277
    1UNL    C16   26   0.429   0.249  -0.028
    1UNL    O11   27   0.534   0.263   0.061
    1UNL    O12   28   0.014   0.072  -0.025
    1UNL    C17   29  -0.082   0.155  -0.065
    1UNL    C18   30  -0.193   0.128  -0.129
    1UNL    C19   31  -0.295   0.240  -0.143
    1UNL    O13   32  -0.271   0.361  -0.135
    1UNL     N1   33  -0.428   0.194  -0.164
    1UNL    C20   34  -0.539   0.283  -0.171
    1UNL    C21   35  -0.614   0.279  -0.037
    1UNL    C22   36  -0.634   0.135   0.010
    1UNL    C23   37  -0.576   0.027  -0.052
    1UNL     N2   38  -0.623  -0.092   0.004
    1UNL    C24   39  -0.713  -0.057   0.106
    1UNL    C25   40  -0.770  -0.137   0.209
    1UNL    C26   41  -0.848  -0.076   0.306
    1UNL    C27   42  -0.857   0.067   0.318
    1UNL    C28   43  -0.798   0.151   0.217
    1UNL    C29   44  -0.726   0.085   0.111
    1UNL    C30   45  -0.470   0.049  -0.154
    1UNL    C31   46  -0.357  -0.060  -0.133
    1UNL    C32   47  -0.215  -0.013  -0.187
    1UNL     H1   48   0.102   0.080  -0.241
    1UNL     H2   49   0.175  -0.044  -0.345
    1UNL     H3   50   0.032  -0.215  -0.280
    1UNL     H4   51  -0.138  -0.206  -0.120
    1UNL     H5   52  -0.113  -0.044   0.071
    1UNL     H6   53   0.212  -0.091  -0.084
    1UNL     H7   54   0.178  -0.347   0.153
    1UNL     H8   55   0.292  -0.518   0.009
    1UNL     H9   56   0.372  -0.512   0.175
    1UNL    H10   57   0.489  -0.336   0.025
    1UNL    H11   58   0.465  -0.227   0.198
    1UNL    H12   59   0.356  -0.271   0.430
    1UNL    H13   60   0.175  -0.137   0.313
    1UNL    H14   61   0.408   0.032   0.323
    1UNL    H15   62   0.185   0.049   0.161
    1UNL    H16   63   0.246   0.124  -0.045
    1UNL    H17   64   0.535  -0.048  -0.269
    1UNL    H18   65   0.692  -0.063  -0.070
    1UNL    H19   66   0.577   0.031   0.030
    1UNL    H20   67   0.423  -0.127  -0.032
    1UNL    H21   68   0.673   0.169  -0.164
    1UNL    H22   69   0.529   0.171  -0.397
    1UNL    H23   70   0.534   0.368  -0.173
    1UNL    H24   71   0.337   0.187  -0.285
    1UNL    H25   72   0.356   0.327  -0.007
    1UNL    H26   73   0.555   0.354   0.069
    1UNL    H27   74  -0.059   0.256  -0.038
    1UNL    H28   75  -0.487   0.383  -0.193
    1UNL    H29   76  -0.595   0.264  -0.259
    1UNL    H30   77  -0.717   0.319  -0.035
    1UNL    H31   78  -0.566   0.328   0.050
    1UNL    H32   79  -0.584  -0.190  -0.007
    1UNL    H33   80  -0.750  -0.236   0.211
    1UNL    H34   81  -0.901  -0.149   0.373
    1UNL    H35   82  -0.922   0.117   0.391
    1UNL    H36   83  -0.796   0.258   0.211
    1UNL    H37   84  -0.524   0.034  -0.248
    1UNL    H38   85  -0.384  -0.155  -0.171
    1UNL    H39   86  -0.340  -0.073  -0.029
    1UNL    H40   87  -0.218  -0.007  -0.296
   0.00000   0.00000   0.00000   0.00000   0.00000   0.00000   0.00000   0.00000   0.00000
Generated with MDTraj, t= 22.0
 87
    1UNL     C1    1   0.050  -0.002  -0.290
    1UNL     C2    2  -0.023  -0.103  -0.247
    1UNL     C3    3  -0.109  -0.100  -0.124
    1UNL     C4    4  -0.026  -0.064   0.005
    1UNL     O1    5   0.065  -0.169   0.032
    1UNL     C5    6   0.200  -0.134   0.009
    1UNL     O2    7   0.284  -0.249   0.003
    1UNL     C6    8   0.293  -0.316   0.124
    1UNL     C7    9   0.358  -0.453   0.119
    1UNL     O3   10   0.479  -0.455   0.045
    1UNL     C8   11   0.371  -0.226   0.229
    1UNL     O4   12   0.379  -0.305   0.349
    1UNL     C9   13   0.290  -0.094   0.255
    1UNL     O5   14   0.344   0.001   0.343
    1UNL    C10   15   0.249  -0.029   0.118
    1UNL     O6   16   0.361   0.046   0.075
    1UNL    C11   17   0.363   0.099  -0.055
    1UNL     O7   18   0.401   0.005  -0.155
    1UNL    C12   19   0.542  -0.000  -0.176
    1UNL    C13   20   0.611  -0.044  -0.049
    1UNL     O8   21   0.575  -0.174  -0.009
    1UNL    C14   22   0.595   0.139  -0.226
    1UNL     O9   23   0.611   0.142  -0.362
    1UNL    C15   24   0.502   0.258  -0.191
    1UNL    O10   25   0.402   0.257  -0.286
    1UNL    C16   26   0.451   0.233  -0.050
    1UNL    O11   27   0.544   0.218   0.046
    1UNL    O12   28   0.015   0.073  -0.005
    1UNL    C17   29  -0.081   0.169  -0.019
    1UNL    C18   30  -0.195   0.143  -0.082
    1UNL    C19   31  -0.296   0.247  -0.095
    1UNL    O13   32  -0.268   0.364  -0.089
    1UNL     N1   33  -0.427   0.207  -0.122
    1UNL    C20   34  -0.534   0.303  -0.145
    1UNL    C21   35  -0.642   0.288  -0.032
    1UNL    C22   36  -0.667   0.137  -0.002
    1UNL    C23   37  -0.595   0.033  -0.057
    1UNL     N2   38  -0.632  -0.085  -0.004
    1UNL    C24   39  -0.729  -0.073   0.089
    1UNL    C25   40  -0.790  -0.153   0.182
    1UNL    C26   41  -0.875  -0.095   0.280
    1UNL    C27   42  -0.907   0.045   0.266
    1UNL    C28   43  -0.842   0.126   0.174
    1UNL    C29   44  -0.753   0.063   0.090
    1UNL    C30   45  -0.466   0.060  -0.135
    1UNL    C31   46  -0.358  -0.044  -0.093
    1UNL    C32   47  -0.220   0.007  -0.145
    1UNL     H1   48   0.047   0.099  -0.252
    1UNL     H2   49   0.114  -0.010  -0.380
    1UNL     H3   50  -0.028  -0.191  -0.314
    1UNL     H4   51  -0.154  -0.201  -0.115
    1UNL     H5   52  -0.099  -0.052   0.091
    1UNL     H6   53   0.194  -0.091  -0.095
    1UNL     H7   54   0.186  -0.317   0.158
    1UNL     H8   55   0.296  -0.521   0.051
    1UNL     H9   56   0.368  -0.497   0.219
    1UNL    H10   57   0.504  -0.360   0.039
    1UNL    H11   58   0.477  -0.205   0.185
    1UNL    H12   59   0.409  -0.248   0.424
    1UNL    H13   60   0.193  -0.136   0.306
    1UNL    H14   61   0.400   0.063   0.298
    1UNL    H15   62   0.166   0.043   0.139
    1UNL    H16   63   0.257   0.121  -0.090
    1UNL    H17   64   0.562  -0.077  -0.254
    1UNL    H18   65   0.720  -0.053  -0.059
    1UNL    H19   66   0.600   0.036   0.028
    1UNL    H20   67   0.476  -0.165  -0.043
    1UNL    H21   68   0.692   0.156  -0.183
    1UNL    H22   69   0.521   0.152  -0.400
    1UNL    H23   70   0.549   0.356  -0.185
    1UNL    H24   71   0.348   0.170  -0.285
    1UNL    H25   72   0.384   0.315  -0.019
    1UNL    H26   73   0.579   0.297   0.085
    1UNL    H27   74  -0.042   0.266   0.010
    1UNL    H28   75  -0.492   0.410  -0.147
    1UNL    H29   76  -0.573   0.283  -0.242
    1UNL    H30   77  -0.739   0.342  -0.055
    1UNL    H31   78  -0.608   0.331   0.059
    1UNL    H32   79  -0.588  -0.172  -0.040
    1UNL    H33   80  -0.758  -0.256   0.185
    1UNL    H34   81  -0.923  -0.154   0.350
    1UNL    H35   82  -0.985   0.086   0.324
    1UNL    H36   83  -0.862   0.231   0.149
    1UNL    H37   84  -0.487   0.049  -0.242
    1UNL    H38   85  -0.372  -0.137  -0.134
    1UNL    H39   86  -0.351  -0.056   0.016
    1UNL    H40   87  -0.213   0.025  -0.251
   0.00000   0.00000   0.00000   0.00000   0.00000   0.00000   0.00000   0.00000   0.00000
Generated with MDTraj, t= 23.0
 87
    1UNL     C1    1   0.026   0.017  -0.305
    1UNL     C2    2  -0.009  -0.096  -0.247
    1UNL     C3    3  -0.099  -0.093  -0.131
    1UNL     C4    4  -0.019  -0.058   0.005
    1UNL     O1    5   0.075  -0.156   0.049
    1UNL     C5    6   0.209  -0.136   0.005
    1UNL     O2    7   0.282  -0.258   0.005
    1UNL     C6    8   0.292  -0.310   0.132
    1UNL     C7    9   0.358  -0.445   0.126
    1UNL     O3   10   0.492  -0.434   0.092
    1UNL     C8   11   0.366  -0.217   0.231
    1UNL     O4   12   0.384  -0.266   0.369
    1UNL     C9   13   0.289  -0.082   0.241
    1UNL     O5   14   0.340   0.008   0.338
    1UNL    C10   15   0.278  -0.026   0.099
    1UNL     O6   16   0.395   0.037   0.063
    1UNL    C11   17   0.381   0.091  -0.066
    1UNL     O7   18   0.407   0.010  -0.175
    1UNL    C12   19   0.550  -0.004  -0.191
    1UNL    C13   20   0.620  -0.062  -0.074
    1UNL     O8   21   0.562  -0.185  -0.028
    1UNL    C14   22   0.614   0.125  -0.243
    1UNL     O9   23   0.634   0.130  -0.381
    1UNL    C15   24   0.518   0.240  -0.208
    1UNL    O10   25   0.413   0.242  -0.299
    1UNL    C16   26   0.470   0.227  -0.064
    1UNL    O11   27   0.583   0.222   0.019
    1UNL    O12   28   0.030   0.077   0.017
    1UNL    C17   29  -0.068   0.162  -0.007
    1UNL    C18   30  -0.194   0.139  -0.061
    1UNL    C19   31  -0.298   0.238  -0.050
    1UNL    O13   32  -0.271   0.345   0.003
    1UNL     N1   33  -0.429   0.207  -0.093
    1UNL    C20   34  -0.532   0.314  -0.098
    1UNL    C21   35  -0.656   0.284  -0.023
    1UNL    C22   36  -0.677   0.133   0.008
    1UNL    C23   37  -0.589   0.033  -0.037
    1UNL     N2   38  -0.637  -0.087   0.004
    1UNL    C24   39  -0.745  -0.063   0.084
    1UNL    C25   40  -0.826  -0.154   0.144
    1UNL    C26   41  -0.937  -0.116   0.217
    1UNL    C27   42  -0.971   0.028   0.223
    1UNL    C28   43  -0.897   0.116   0.150
    1UNL    C29   44  -0.782   0.074   0.083
    1UNL    C30   45  -0.469   0.065  -0.118
    1UNL    C31   46  -0.366  -0.042  -0.087
    1UNL    C32   47  -0.224   0.011  -0.142
    1UNL     H1   48  -0.007   0.113  -0.282
    1UNL     H2   49   0.100   0.015  -0.383
    1UNL     H3   50   0.013  -0.187  -0.292
    1UNL     H4   51  -0.139  -0.197  -0.125
    1UNL     H5   52  -0.102  -0.050   0.083
    1UNL     H6   53   0.191  -0.098  -0.098
    1UNL     H7   54   0.188  -0.318   0.173
    1UNL     H8   55   0.300  -0.497   0.040
    1UNL     H9   56   0.352  -0.507   0.221
    1UNL    H10   57   0.509  -0.357   0.033
    1UNL    H11   58   0.469  -0.189   0.184
    1UNL    H12   59   0.420  -0.190   0.420
    1UNL    H13   60   0.182  -0.112   0.281
    1UNL    H14   61   0.409   0.073   0.300
    1UNL    H15   62   0.205   0.062   0.107
    1UNL    H16   63   0.272   0.123  -0.080
    1UNL    H17   64   0.550  -0.088  -0.267
    1UNL    H18   65   0.727  -0.084  -0.097
    1UNL    H19   66   0.629   0.002   0.018
    1UNL    H20   67   0.461  -0.173  -0.047
    1UNL    H21   68   0.715   0.132  -0.206
    1UNL    H22   69   0.549   0.130  -0.430
    1UNL    H23   70   0.577   0.331  -0.229
    1UNL    H24   71   0.365   0.161  -0.282
    1UNL    H25   72   0.401   0.313  -0.049
    1UNL    H26   73   0.621   0.314   0.032
    1UNL    H27   74  -0.052   0.262   0.038
    1UNL    H28   75  -0.491   0.412  -0.053
    1UNL    H29   76  -0.561   0.327  -0.199
    1UNL    H30   77  -0.743   0.324  -0.086
    1UNL    H31   78  -0.654   0.340   0.064
    1UNL    H32   79  -0.583  -0.171  -0.018
    1UNL    H33   80  -0.808  -0.267   0.128
    1UNL    H34   81  -0.993  -0.191   0.281
    1UNL    H35   82  -1.058   0.071   0.274
    1UNL    H36   83  -0.918   0.220   0.140
    1UNL    H37   84  -0.510   0.055  -0.219
    1UNL    H38   85  -0.399  -0.130  -0.128
    1UNL    H39   86  -0.366  -0.053   0.023
    1UNL    H40   87  -0.230   0.040  -0.246
   0.00000   0.00000   0.00000   0.00000   0.00000   0.00000   0.00000   0.00000   0.00000
Generated with MDTraj, t= 24.0
 87
    1UNL     C1    1   0.047   0.026  -0.278
    1UNL     C2    2  -0.012  -0.081  -0.229
    1UNL     C3    3  -0.102  -0.074  -0.107
    1UNL     C4    4  -0.014  -0.050   0.018
    1UNL     O1    5   0.087  -0.155   0.033
    1UNL     C5    6   0.219  -0.126   0.011
    1UNL     O2    7   0.300  -0.247   0.018
    1UNL     C6    8   0.299  -0.305   0.145
    1UNL     C7    9   0.377  -0.440   0.133
    1UNL     O3   10   0.515  -0.402   0.134
    1UNL     C8   11   0.364  -0.214   0.252
    1UNL     O4   12   0.338  -0.260   0.385
    1UNL     C9   13   0.298  -0.073   0.246
    1UNL     O5   14   0.368   0.019   0.322
    1UNL    C10   15   0.281  -0.016   0.100
    1UNL     O6   16   0.397   0.038   0.048
    1UNL    C11   17   0.388   0.099  -0.085
    1UNL     O7   18   0.402   0.002  -0.192
    1UNL    C12   19   0.546  -0.022  -0.225
    1UNL    C13   20   0.618  -0.087  -0.110
    1UNL     O8   21   0.571  -0.212  -0.071
    1UNL    C14   22   0.622   0.109  -0.265
    1UNL     O9   23   0.644   0.109  -0.405
    1UNL    C15   24   0.542   0.238  -0.228
    1UNL    O10   25   0.440   0.257  -0.325
    1UNL    C16   26   0.481   0.225  -0.087
    1UNL    O11   27   0.582   0.201   0.005
    1UNL    O12   28   0.036   0.089   0.013
    1UNL    C17   29  -0.062   0.174   0.014
    1UNL    C18   30  -0.189   0.152  -0.030
    1UNL    C19   31  -0.301   0.238  -0.013
    1UNL    O13   32  -0.290   0.343   0.052
    1UNL     N1   33  -0.427   0.201  -0.069
    1UNL    C20   34  -0.542   0.302  -0.066
    1UNL    C21   35  -0.647   0.271   0.037
    1UNL    C22   36  -0.677   0.119   0.032
    1UNL    C23   37  -0.590   0.027  -0.023
    1UNL     N2   38  -0.650  -0.093   0.009
    1UNL    C24   39  -0.778  -0.076   0.069
    1UNL    C25   40  -0.882  -0.164   0.100
    1UNL    C26   41  -1.001  -0.115   0.151
    1UNL    C27   42  -1.017   0.027   0.159
    1UNL    C28   43  -0.919   0.115   0.127
    1UNL    C29   44  -0.796   0.059   0.077
    1UNL    C30   45  -0.465   0.061  -0.106
    1UNL    C31   46  -0.350  -0.035  -0.085
    1UNL    C32   47  -0.216   0.038  -0.111
    1UNL     H1   48   0.034   0.130  -0.242
    1UNL     H2   49   0.125   0.013  -0.354
    1UNL     H3   50   0.014  -0.185  -0.263
    1UNL     H4   51  -0.139  -0.179  -0.088
    1UNL     H5   52  -0.077  -0.047   0.111
    1UNL     H6   53   0.231  -0.085  -0.090
    1UNL     H7   54   0.197  -0.329   0.181
    1UNL     H8   55   0.346  -0.511   0.045
    1UNL     H9   56   0.357  -0.494   0.230
    1UNL    H10   57   0.552  -0.353   0.056
    1UNL    H11   58   0.476  -0.212   0.227
    1UNL    H12   59   0.380  -0.200   0.450
    1UNL    H13   60   0.194  -0.086   0.301
    1UNL    H14   61   0.432   0.065   0.268
    1UNL    H15   62   0.218   0.079   0.111
    1UNL    H16   63   0.280   0.133  -0.079
    1UNL    H17   64   0.546  -0.094  -0.312
    1UNL    H18   65   0.730  -0.080  -0.112
    1UNL    H19   66   0.598  -0.028  -0.016
    1UNL    H20   67   0.477  -0.217  -0.053
    1UNL    H21   68   0.722   0.118  -0.225
    1UNL    H22   69   0.574   0.152  -0.458
    1UNL    H23   70   0.601   0.333  -0.222
    1UNL    H24   71   0.392   0.168  -0.321
    1UNL    H25   72   0.416   0.309  -0.051
    1UNL    H26   73   0.638   0.287   0.026
    1UNL    H27   74  -0.047   0.273   0.055
    1UNL    H28   75  -0.496   0.403  -0.037
    1UNL    H29   76  -0.597   0.308  -0.157
    1UNL    H30   77  -0.740   0.332   0.011
    1UNL    H31   78  -0.618   0.299   0.131
    1UNL    H32   79  -0.616  -0.181  -0.026
    1UNL    H33   80  -0.867  -0.263   0.092
    1UNL    H34   81  -1.078  -0.173   0.192
    1UNL    H35   82  -1.107   0.066   0.203
    1UNL    H36   83  -0.920   0.223   0.137
    1UNL    H37   84  -0.498   0.061  -0.211
    1UNL    H38   85  -0.365  -0.128  -0.137
    1UNL    H39   86  -0.359  -0.058   0.021
    1UNL    H40   87  -0.213   0.079  -0.213
   0.00000   0.00000   0.00000   0.00000   0.00000   0.00000   0.00000   0.00000   0.00000
Generated with MDTraj, t= 25.0
 87
    1UNL     C1    1   0.068   0.036  -0.232
    1UNL     C2    2  -0.027  -0.054  -0.215
    1UNL     C3    3  -0.099  -0.073  -0.087
    1UNL     C4    4  -0.019  -0.062   0.041
    1UNL     O1    5   0.078  -0.164   0.048
    1UNL     C5    6   0.209  -0.122   0.010
    1UNL     O2    7   0.299  -0.239   0.019
    1UNL     C6    8   0.303  -0.289   0.155
    1UNL     C7    9   0.385  -0.420   0.162
    1UNL     O3   10   0.520  -0.395   0.144
    1UNL     C8   11   0.357  -0.187   0.255
    1UNL     O4   12   0.320  -0.235   0.377
    1UNL     C9   13   0.307  -0.042   0.234
    1UNL     O5   14   0.387   0.055   0.294
    1UNL    C10   15   0.285  -0.005   0.083
    1UNL     O6   16   0.409   0.033   0.038
    1UNL    C11   17   0.403   0.106  -0.088
    1UNL     O7   18   0.415  -0.000  -0.196
    1UNL    C12   19   0.548  -0.035  -0.234
    1UNL    C13   20   0.618  -0.115  -0.128
    1UNL     O8   21   0.556  -0.235  -0.117
    1UNL    C14   22   0.623   0.095  -0.284
    1UNL     O9   23   0.633   0.102  -0.424
    1UNL    C15   24   0.552   0.229  -0.245
    1UNL    O10   25   0.430   0.247  -0.326
    1UNL    C16   26   0.514   0.221  -0.093
    1UNL    O11   27   0.629   0.203  -0.004
    1UNL    O12   28   0.034   0.068   0.048
    1UNL    C17   29  -0.063   0.162   0.045
    1UNL    C18   30  -0.185   0.144  -0.010
    1UNL    C19   31  -0.297   0.236   0.001
    1UNL    O13   32  -0.277   0.350   0.044
    1UNL     N1   33  -0.425   0.203  -0.035
    1UNL    C20   34  -0.533   0.301  -0.034
    1UNL    C21   35  -0.637   0.259   0.072
    1UNL    C22   36  -0.688   0.119   0.049
    1UNL    C23   37  -0.598   0.027  -0.012
    1UNL     N2   38  -0.666  -0.091  -0.025
    1UNL    C24   39  -0.795  -0.080   0.022
    1UNL    C25   40  -0.905  -0.159   0.016
    1UNL    C26   41  -1.022  -0.115   0.073
    1UNL    C27   42  -1.034   0.009   0.133
    1UNL    C28   43  -0.931   0.095   0.138
    1UNL    C29   44  -0.812   0.049   0.077
    1UNL    C30   45  -0.470   0.067  -0.068
    1UNL    C31   46  -0.355  -0.034  -0.031
    1UNL    C32   47  -0.225   0.022  -0.083
    1UNL     H1   48   0.092   0.103  -0.152
    1UNL     H2   49   0.102   0.057  -0.328
    1UNL     H3   50  -0.043  -0.131  -0.282
    1UNL     H4   51  -0.129  -0.183  -0.084
    1UNL     H5   52  -0.088  -0.061   0.126
    1UNL     H6   53   0.207  -0.097  -0.095
    1UNL     H7   54   0.200  -0.311   0.191
    1UNL     H8   55   0.347  -0.489   0.076
    1UNL     H9   56   0.380  -0.469   0.263
    1UNL    H10   57   0.546  -0.371   0.053
    1UNL    H11   58   0.470  -0.180   0.242
    1UNL    H12   59   0.348  -0.174   0.447
    1UNL    H13   60   0.201  -0.030   0.280
    1UNL    H14   61   0.455   0.085   0.225
    1UNL    H15   62   0.221   0.090   0.080
    1UNL    H16   63   0.301   0.147  -0.093
    1UNL    H17   64   0.544  -0.105  -0.321
    1UNL    H18   65   0.724  -0.146  -0.146
    1UNL    H19   66   0.629  -0.055  -0.036
    1UNL    H20   67   0.461  -0.236  -0.079
    1UNL    H21   68   0.727   0.095  -0.251
    1UNL    H22   69   0.547   0.135  -0.463
    1UNL    H23   70   0.608   0.325  -0.267
    1UNL    H24   71   0.377   0.170  -0.308
    1UNL    H25   72   0.463   0.318  -0.070
    1UNL    H26   73   0.681   0.292  -0.010
    1UNL    H27   74  -0.024   0.252   0.087
    1UNL    H28   75  -0.485   0.402  -0.008
    1UNL    H29   76  -0.576   0.309  -0.132
    1UNL    H30   77  -0.727   0.325   0.072
    1UNL    H31   78  -0.600   0.277   0.169
    1UNL    H32   79  -0.635  -0.177  -0.062
    1UNL    H33   80  -0.898  -0.260  -0.028
    1UNL    H34   81  -1.108  -0.184   0.067
    1UNL    H35   82  -1.132   0.033   0.169
    1UNL    H36   83  -0.943   0.192   0.185
    1UNL    H37   84  -0.478   0.076  -0.178
    1UNL    H38   85  -0.375  -0.143  -0.059
    1UNL    H39   86  -0.343  -0.038   0.074
    1UNL    H40   87  -0.236   0.052  -0.188
   0.00000   0.00000   0.00000   0.00000   0.00000   0.00000   0.00000   0.00000   0.00000
Generated with MDTraj, t= 26.0
 87
    1UNL     C1    1   0.057   0.047  -0.229
    1UNL     C2    2   0.003  -0.062  -0.185
    1UNL     C3    3  -0.089  -0.071  -0.065
    1UNL     C4    4  -0.010  -0.052   0.073
    1UNL     O1    5   0.088  -0.154   0.081
    1UNL     C5    6   0.214  -0.128   0.016
    1UNL     O2    7   0.298  -0.243   0.031
    1UNL     C6    8   0.313  -0.278   0.170
    1UNL     C7    9   0.393  -0.407   0.184
    1UNL     O3   10   0.522  -0.401   0.136
    1UNL     C8   11   0.376  -0.163   0.257
    1UNL     O4   12   0.371  -0.211   0.390
    1UNL     C9   13   0.298  -0.032   0.241
    1UNL     O5   14   0.341   0.067   0.333
    1UNL    C10   15   0.287  -0.006   0.081
    1UNL     O6   16   0.415   0.022   0.022
    1UNL    C11   17   0.409   0.087  -0.106
    1UNL     O7   18   0.404   0.009  -0.222
    1UNL    C12   19   0.535  -0.033  -0.270
    1UNL    C13   20   0.605  -0.117  -0.159
    1UNL     O8   21   0.531  -0.223  -0.106
    1UNL    C14   22   0.626   0.092  -0.320
    1UNL     O9   23   0.640   0.085  -0.461
    1UNL    C15   24   0.563   0.220  -0.261
    1UNL    O10   25   0.450   0.259  -0.334
    1UNL    C16   26   0.527   0.191  -0.113
    1UNL    O11   27   0.643   0.147  -0.036
    1UNL    O12   28   0.030   0.083   0.097
    1UNL    C17   29  -0.076   0.168   0.075
    1UNL    C18   30  -0.192   0.149   0.011
    1UNL    C19   31  -0.304   0.242   0.013
    1UNL    O13   32  -0.282   0.361   0.038
    1UNL     N1   33  -0.433   0.197   0.005
    1UNL    C20   34  -0.534   0.297   0.042
    1UNL    C21   35  -0.649   0.239   0.124
    1UNL    C22   36  -0.680   0.104   0.062
    1UNL    C23   37  -0.609   0.036  -0.028
    1UNL     N2   38  -0.678  -0.075  -0.070
    1UNL    C24   39  -0.810  -0.072  -0.018
    1UNL    C25   40  -0.917  -0.157  -0.037
    1UNL    C26   41  -1.031  -0.114   0.018
    1UNL    C27   42  -1.039  -0.009   0.103
    1UNL    C28   43  -0.936   0.080   0.127
    1UNL    C29   44  -0.812   0.047   0.061
    1UNL    C30   45  -0.472   0.069  -0.068
    1UNL    C31   46  -0.353  -0.033  -0.034
    1UNL    C32   47  -0.217   0.027  -0.074
    1UNL     H1   48   0.029   0.139  -0.176
    1UNL     H2   49   0.130   0.055  -0.310
    1UNL     H3   50   0.039  -0.162  -0.222
    1UNL     H4   51  -0.124  -0.179  -0.059
    1UNL     H5   52  -0.079  -0.066   0.155
    1UNL     H6   53   0.197  -0.110  -0.090
    1UNL     H7   54   0.211  -0.290   0.214
    1UNL     H8   55   0.343  -0.499   0.140
    1UNL     H9   56   0.418  -0.410   0.291
    1UNL    H10   57   0.522  -0.361   0.042
    1UNL    H11   58   0.485  -0.146   0.239
    1UNL    H12   59   0.348  -0.144   0.457
    1UNL    H13   60   0.193  -0.056   0.280
    1UNL    H14   61   0.423   0.103   0.299
    1UNL    H15   62   0.214   0.081   0.066
    1UNL    H16   63   0.319   0.148  -0.100
    1UNL    H17   64   0.529  -0.095  -0.361
    1UNL    H18   65   0.711  -0.140  -0.175
    1UNL    H19   66   0.612  -0.061  -0.065
    1UNL    H20   67   0.433  -0.213  -0.113
    1UNL    H21   68   0.730   0.082  -0.282
    1UNL    H22   69   0.561   0.140  -0.485
    1UNL    H23   70   0.644   0.297  -0.278
    1UNL    H24   71   0.392   0.177  -0.338
    1UNL    H25   72   0.495   0.283  -0.060
    1UNL    H26   73   0.714   0.212  -0.023
    1UNL    H27   74  -0.045   0.256   0.131
    1UNL    H28   75  -0.479   0.385   0.088
    1UNL    H29   76  -0.570   0.342  -0.050
    1UNL    H30   77  -0.736   0.305   0.132
    1UNL    H31   78  -0.630   0.229   0.232
    1UNL    H32   79  -0.659  -0.141  -0.140
    1UNL    H33   80  -0.913  -0.254  -0.098
    1UNL    H34   81  -1.114  -0.178  -0.012
    1UNL    H35   82  -1.140   0.011   0.138
    1UNL    H36   83  -0.951   0.169   0.186
    1UNL    H37   84  -0.481   0.089  -0.177
    1UNL    H38   85  -0.360  -0.125  -0.106
    1UNL    H39   86  -0.348  -0.075   0.063
    1UNL    H40   87  -0.228   0.060  -0.180
   0.00000   0.00000   0.00000   0.00000   0.00000   0.00000   0.00000   0.00000   0.00000
Generated with MDTraj, t= 27.0
 87
    1UNL     C1    1   0.042   0.048  -0.213
    1UNL     C2    2  -0.021  -0.062  -0.182
    1UNL     C3    3  -0.105  -0.065  -0.056
    1UNL     C4    4  -0.014  -0.042   0.067
    1UNL     O1    5   0.076  -0.154   0.077
    1UNL     C5    6   0.209  -0.137   0.029
    1UNL     O2    7   0.283  -0.252   0.043
    1UNL     C6    8   0.319  -0.273   0.188
    1UNL     C7    9   0.407  -0.397   0.197
    1UNL     O3   10   0.523  -0.369   0.120
    1UNL     C8   11   0.394  -0.150   0.247
    1UNL     O4   12   0.437  -0.161   0.381
    1UNL     C9   13   0.308  -0.019   0.242
    1UNL     O5   14   0.388   0.095   0.277
    1UNL    C10   15   0.276  -0.012   0.091
    1UNL     O6   16   0.408   0.020   0.034
    1UNL    C11   17   0.407   0.088  -0.093
    1UNL     O7   18   0.399   0.003  -0.202
    1UNL    C12   19   0.514  -0.052  -0.257
    1UNL    C13   20   0.591  -0.140  -0.162
    1UNL     O8   21   0.513  -0.249  -0.127
    1UNL    C14   22   0.602   0.064  -0.324
    1UNL     O9   23   0.586   0.059  -0.464
    1UNL    C15   24   0.565   0.197  -0.258
    1UNL    O10   25   0.448   0.254  -0.321
    1UNL    C16   26   0.532   0.181  -0.105
    1UNL    O11   27   0.640   0.131  -0.035
    1UNL    O12   28   0.031   0.092   0.077
    1UNL    C17   29  -0.066   0.186   0.068
    1UNL    C18   30  -0.194   0.162   0.028
    1UNL    C19   31  -0.306   0.251   0.047
    1UNL    O13   32  -0.285   0.358   0.106
    1UNL     N1   33  -0.436   0.213   0.016
    1UNL    C20   34  -0.540   0.292   0.070
    1UNL    C21   35  -0.646   0.211   0.143
    1UNL    C22   36  -0.683   0.097   0.059
    1UNL    C23   37  -0.595   0.040  -0.033
    1UNL     N2   38  -0.660  -0.054  -0.106
    1UNL    C24   39  -0.793  -0.067  -0.055
    1UNL    C25   40  -0.905  -0.138  -0.093
    1UNL    C26   41  -1.022  -0.122  -0.024
    1UNL    C27   42  -1.043  -0.029   0.071
    1UNL    C28   43  -0.935   0.040   0.119
    1UNL    C29   44  -0.805   0.026   0.054
    1UNL    C30   45  -0.462   0.091  -0.060
    1UNL    C31   46  -0.357  -0.018  -0.025
    1UNL    C32   47  -0.219   0.039  -0.052
    1UNL     H1   48   0.046   0.128  -0.148
    1UNL     H2   49   0.120   0.042  -0.288
    1UNL     H3   50  -0.024  -0.139  -0.252
    1UNL     H4   51  -0.147  -0.169  -0.035
    1UNL     H5   52  -0.074  -0.062   0.156
    1UNL     H6   53   0.198  -0.114  -0.077
    1UNL     H7   54   0.220  -0.293   0.230
    1UNL     H8   55   0.356  -0.480   0.147
    1UNL     H9   56   0.435  -0.416   0.297
    1UNL    H10   57   0.510  -0.369   0.026
    1UNL    H11   58   0.483  -0.132   0.185
    1UNL    H12   59   0.436  -0.071   0.422
    1UNL    H13   60   0.224  -0.032   0.317
    1UNL    H14   61   0.463   0.101   0.217
    1UNL    H15   62   0.200   0.073   0.074
    1UNL    H16   63   0.322   0.153  -0.097
    1UNL    H17   64   0.482  -0.113  -0.341
    1UNL    H18   65   0.675  -0.195  -0.205
    1UNL    H19   66   0.633  -0.080  -0.083
    1UNL    H20   67   0.429  -0.229  -0.085
    1UNL    H21   68   0.709   0.033  -0.306
    1UNL    H22   69   0.582   0.153  -0.493
    1UNL    H23   70   0.643   0.273  -0.280
    1UNL    H24   71   0.386   0.182  -0.335
    1UNL    H25   72   0.517   0.281  -0.060
    1UNL    H26   73   0.711   0.191  -0.042
    1UNL    H27   74  -0.047   0.282   0.116
    1UNL    H28   75  -0.488   0.360   0.142
    1UNL    H29   76  -0.572   0.358  -0.011
    1UNL    H30   77  -0.729   0.263   0.185
    1UNL    H31   78  -0.598   0.177   0.239
    1UNL    H32   79  -0.621  -0.103  -0.183
    1UNL    H33   80  -0.901  -0.199  -0.173
    1UNL    H34   81  -1.106  -0.177  -0.058
    1UNL    H35   82  -1.145  -0.015   0.096
    1UNL    H36   83  -0.964   0.127   0.178
    1UNL    H37   84  -0.460   0.128  -0.165
    1UNL    H38   85  -0.376  -0.119  -0.076
    1UNL    H39   86  -0.359  -0.043   0.082
    1UNL    H40   87  -0.238   0.077  -0.156
   0.00000   0.00000   0.00000   0.00000   0.00000   0.00000   0.00000   0.00000   0.00000
Generated with MDTraj, t= 28.0
 87
    1UNL     C1    1   0.067   0.023  -0.223
    1UNL     C2    2  -0.024  -0.061  -0.184
    1UNL     C3    3  -0.096  -0.047  -0.054
    1UNL     C4    4  -0.008  -0.019   0.071
    1UNL     O1    5   0.073  -0.129   0.097
    1UNL     C5    6   0.210  -0.116   0.050
    1UNL     O2    7   0.291  -0.235   0.072
    1UNL     C6    8   0.337  -0.262   0.204
    1UNL     C7    9   0.406  -0.399   0.202
    1UNL     O3   10   0.547  -0.391   0.177
    1UNL     C8   11   0.426  -0.144   0.254
    1UNL     O4   12   0.459  -0.167   0.390
    1UNL     C9   13   0.346  -0.014   0.247
    1UNL     O5   14   0.428   0.109   0.265
    1UNL    C10   15   0.293   0.003   0.103
    1UNL     O6   16   0.409   0.011   0.020
    1UNL    C11   17   0.388   0.091  -0.101
    1UNL     O7   18   0.369   0.002  -0.214
    1UNL    C12   19   0.487  -0.060  -0.262
    1UNL    C13   20   0.556  -0.156  -0.159
    1UNL     O8   21   0.476  -0.270  -0.143
    1UNL    C14   22   0.574   0.051  -0.338
    1UNL     O9   23   0.549   0.055  -0.480
    1UNL    C15   24   0.558   0.185  -0.271
    1UNL    O10   25   0.455   0.252  -0.344
    1UNL    C16   26   0.521   0.176  -0.120
    1UNL    O11   27   0.623   0.110  -0.050
    1UNL    O12   28   0.046   0.111   0.076
    1UNL    C17   29  -0.063   0.193   0.087
    1UNL    C18   30  -0.191   0.173   0.040
    1UNL    C19   31  -0.300   0.246   0.092
    1UNL    O13   32  -0.288   0.332   0.182
    1UNL     N1   33  -0.432   0.219   0.042
    1UNL    C20   34  -0.545   0.293   0.095
    1UNL    C21   35  -0.656   0.202   0.150
    1UNL    C22   36  -0.690   0.092   0.057
    1UNL    C23   37  -0.600   0.052  -0.041
    1UNL     N2   38  -0.669  -0.035  -0.120
    1UNL    C24   39  -0.798  -0.054  -0.074
    1UNL    C25   40  -0.901  -0.131  -0.137
    1UNL    C26   41  -1.018  -0.137  -0.076
    1UNL    C27   42  -1.027  -0.071   0.046
    1UNL    C28   43  -0.939   0.014   0.096
    1UNL    C29   44  -0.814   0.027   0.034
    1UNL    C30   45  -0.462   0.107  -0.060
    1UNL    C31   46  -0.354  -0.004  -0.058
    1UNL    C32   47  -0.203   0.059  -0.053
    1UNL     H1   48   0.096   0.110  -0.163
    1UNL     H2   49   0.098   0.023  -0.327
    1UNL     H3   50  -0.063  -0.129  -0.264
    1UNL     H4   51  -0.150  -0.143  -0.023
    1UNL     H5   52  -0.082  -0.026   0.155
    1UNL     H6   53   0.196  -0.103  -0.057
    1UNL     H7   54   0.249  -0.272   0.268
    1UNL     H8   55   0.356  -0.452   0.122
    1UNL     H9   56   0.391  -0.445   0.293
    1UNL    H10   57   0.555  -0.343   0.089
    1UNL    H11   58   0.517  -0.127   0.200
    1UNL    H12   59   0.471  -0.086   0.444
    1UNL    H13   60   0.259  -0.018   0.316
    1UNL    H14   61   0.484   0.113   0.183
    1UNL    H15   62   0.229   0.099   0.093
    1UNL    H16   63   0.297   0.146  -0.086
    1UNL    H17   64   0.455  -0.120  -0.347
    1UNL    H18   65   0.652  -0.179  -0.204
    1UNL    H19   66   0.576  -0.116  -0.060
    1UNL    H20   67   0.398  -0.256  -0.079
    1UNL    H21   68   0.680   0.017  -0.322
    1UNL    H22   69   0.562   0.147  -0.508
    1UNL    H23   70   0.645   0.251  -0.277
    1UNL    H24   71   0.375   0.191  -0.336
    1UNL    H25   72   0.512   0.272  -0.069
    1UNL    H26   73   0.705   0.158  -0.062
    1UNL    H27   74  -0.052   0.287   0.142
    1UNL    H28   75  -0.498   0.363   0.167
    1UNL    H29   76  -0.594   0.354   0.014
    1UNL    H30   77  -0.736   0.266   0.171
    1UNL    H31   78  -0.632   0.167   0.255
    1UNL    H32   79  -0.629  -0.078  -0.203
    1UNL    H33   80  -0.881  -0.196  -0.227
    1UNL    H34   81  -1.094  -0.212  -0.107
    1UNL    H35   82  -1.119  -0.090   0.101
    1UNL    H36   83  -0.961   0.061   0.187
    1UNL    H37   84  -0.453   0.165  -0.154
    1UNL    H38   85  -0.361  -0.078  -0.142
    1UNL    H39   86  -0.370  -0.072   0.033
    1UNL    H40   87  -0.194   0.111  -0.152
   0.00000   0.00000   0.00000   0.00000   0.00000   0.00000   0.00000   0.00000   0.00000
Generated with MDTraj, t= 29.0
 87
    1UNL     C1    1   0.064   0.026  -0.198
    1UNL     C2    2  -0.012  -0.068  -0.146
    1UNL     C3    3  -0.099  -0.052  -0.026
    1UNL     C4    4  -0.006  -0.015   0.103
    1UNL     O1    5   0.088  -0.116   0.122
    1UNL     C5    6   0.214  -0.114   0.057
    1UNL     O2    7   0.281  -0.236   0.087
    1UNL     C6    8   0.315  -0.249   0.221
    1UNL     C7    9   0.389  -0.386   0.234
    1UNL     O3   10   0.502  -0.393   0.149
    1UNL     C8   11   0.413  -0.140   0.270
    1UNL     O4   12   0.449  -0.172   0.407
    1UNL     C9   13   0.351  -0.007   0.246
    1UNL     O5   14   0.454   0.088   0.282
    1UNL    C10   15   0.313  -0.000   0.094
    1UNL     O6   16   0.433   0.016   0.019
    1UNL    C11   17   0.415   0.087  -0.103
    1UNL     O7   18   0.355   0.013  -0.212
    1UNL    C12   19   0.456  -0.065  -0.282
    1UNL    C13   20   0.539  -0.154  -0.184
    1UNL     O8   21   0.462  -0.265  -0.138
    1UNL    C14   22   0.554   0.033  -0.363
    1UNL     O9   23   0.521   0.029  -0.501
    1UNL    C15   24   0.545   0.181  -0.307
    1UNL    O10   25   0.430   0.250  -0.367
    1UNL    C16   26   0.535   0.181  -0.154
    1UNL    O11   27   0.653   0.144  -0.081
    1UNL    O12   28   0.043   0.118   0.094
    1UNL    C17   29  -0.072   0.201   0.107
    1UNL    C18   30  -0.194   0.167   0.062
    1UNL    C19   31  -0.308   0.232   0.117
    1UNL    O13   32  -0.293   0.313   0.213
    1UNL     N1   33  -0.433   0.211   0.062
    1UNL    C20   34  -0.542   0.274   0.138
    1UNL    C21   35  -0.660   0.181   0.160
    1UNL    C22   36  -0.687   0.095   0.031
    1UNL    C23   37  -0.592   0.071  -0.060
    1UNL     N2   38  -0.645  -0.012  -0.159
    1UNL    C24   39  -0.773  -0.057  -0.114
    1UNL    C25   40  -0.877  -0.140  -0.161
    1UNL    C26   41  -0.993  -0.149  -0.092
    1UNL    C27   42  -1.021  -0.072   0.022
    1UNL    C28   43  -0.925   0.008   0.071
    1UNL    C29   44  -0.802   0.019   0.003
    1UNL    C30   45  -0.456   0.126  -0.053
    1UNL    C31   46  -0.354   0.016  -0.063
    1UNL    C32   47  -0.197   0.066  -0.044
    1UNL     H1   48   0.051   0.131  -0.171
    1UNL     H2   49   0.132   0.017  -0.277
    1UNL     H3   50   0.004  -0.167  -0.180
    1UNL     H4   51  -0.158  -0.147  -0.002
    1UNL     H5   52  -0.072  -0.017   0.197
    1UNL     H6   53   0.202  -0.116  -0.051
    1UNL     H7   54   0.227  -0.257   0.285
    1UNL     H8   55   0.322  -0.467   0.214
    1UNL     H9   56   0.424  -0.385   0.332
    1UNL    H10   57   0.466  -0.370   0.060
    1UNL    H11   58   0.508  -0.142   0.225
    1UNL    H12   59   0.468  -0.095   0.465
    1UNL    H13   60   0.265   0.008   0.311
    1UNL    H14   61   0.511   0.102   0.202
    1UNL    H15   62   0.263   0.102   0.075
    1UNL    H16   63   0.339   0.156  -0.068
    1UNL    H17   64   0.377  -0.117  -0.338
    1UNL    H18   65   0.635  -0.195  -0.219
    1UNL    H19   66   0.555  -0.086  -0.099
    1UNL    H20   67   0.394  -0.239  -0.076
    1UNL    H21   68   0.657  -0.011  -0.349
    1UNL    H22   69   0.449   0.097  -0.517
    1UNL    H23   70   0.628   0.241  -0.343
    1UNL    H24   71   0.355   0.198  -0.329
    1UNL    H25   72   0.505   0.282  -0.129
    1UNL    H26   73   0.731   0.199  -0.116
    1UNL    H27   74  -0.053   0.289   0.162
    1UNL    H28   75  -0.502   0.287   0.239
    1UNL    H29   76  -0.568   0.374   0.091
    1UNL    H30   77  -0.743   0.237   0.185
    1UNL    H31   78  -0.638   0.123   0.257
    1UNL    H32   79  -0.583  -0.037  -0.238
    1UNL    H33   80  -0.848  -0.207  -0.243
    1UNL    H34   81  -1.068  -0.220  -0.111
    1UNL    H35   82  -1.112  -0.081   0.076
    1UNL    H36   83  -0.935   0.060   0.168
    1UNL    H37   84  -0.436   0.192  -0.141
    1UNL    H38   85  -0.367  -0.031  -0.162
    1UNL    H39   86  -0.379  -0.072   0.011
    1UNL    H40   87  -0.159   0.127  -0.132
   0.00000   0.00000   0.00000   0.00000   0.00000   0.00000   0.00000   0.00000   0.00000
Generated with MDTraj, t= 30.0
 87
    1UNL     C1    1   0.062   0.033  -0.196
    1UNL     C2    2  -0.006  -0.062  -0.134
    1UNL     C3    3  -0.084  -0.041  -0.007
    1UNL     C4    4   0.009  -0.013   0.116
    1UNL     O1    5   0.107  -0.108   0.127
    1UNL     C5    6   0.221  -0.088   0.050
    1UNL     O2    7   0.298  -0.210   0.053
    1UNL     C6    8   0.319  -0.244   0.197
    1UNL     C7    9   0.379  -0.387   0.222
    1UNL     O3   10   0.464  -0.428   0.119
    1UNL     C8   11   0.410  -0.141   0.269
    1UNL     O4   12   0.429  -0.161   0.406
    1UNL     C9   13   0.361   0.010   0.247
    1UNL     O5   14   0.461   0.101   0.278
    1UNL    C10   15   0.305   0.036   0.101
    1UNL     O6   16   0.417   0.057   0.021
    1UNL    C11   17   0.386   0.099  -0.107
    1UNL     O7   18   0.344  -0.020  -0.198
    1UNL    C12   19   0.447  -0.081  -0.277
    1UNL    C13   20   0.540  -0.154  -0.179
    1UNL     O8   21   0.469  -0.259  -0.117
    1UNL    C14   22   0.525   0.028  -0.370
    1UNL     O9   23   0.489   0.009  -0.506
    1UNL    C15   24   0.505   0.172  -0.318
    1UNL    O10   25   0.380   0.228  -0.364
    1UNL    C16   26   0.520   0.167  -0.164
    1UNL    O11   27   0.635   0.092  -0.106
    1UNL    O12   28   0.051   0.125   0.122
    1UNL    C17   29  -0.064   0.204   0.139
    1UNL    C18   30  -0.187   0.171   0.104
    1UNL    C19   31  -0.305   0.244   0.141
    1UNL    O13   32  -0.290   0.332   0.229
    1UNL     N1   33  -0.423   0.222   0.077
    1UNL    C20   34  -0.545   0.285   0.125
    1UNL    C21   35  -0.655   0.182   0.159
    1UNL    C22   36  -0.671   0.080   0.048
    1UNL    C23   37  -0.577   0.066  -0.052
    1UNL     N2   38  -0.624  -0.011  -0.157
    1UNL    C24   39  -0.755  -0.043  -0.131
    1UNL    C25   40  -0.839  -0.125  -0.201
    1UNL    C26   41  -0.959  -0.159  -0.151
    1UNL    C27   42  -1.000  -0.095  -0.029
    1UNL    C28   43  -0.911  -0.015   0.049
    1UNL    C29   44  -0.790   0.013  -0.009
    1UNL    C30   45  -0.438   0.118  -0.031
    1UNL    C31   46  -0.341   0.001  -0.005
    1UNL    C32   47  -0.196   0.068  -0.005
    1UNL     H1   48   0.082   0.129  -0.154
    1UNL     H2   49   0.134   0.003  -0.271
    1UNL     H3   50  -0.002  -0.160  -0.180
    1UNL     H4   51  -0.140  -0.137   0.017
    1UNL     H5   52  -0.054  -0.024   0.209
    1UNL     H6   53   0.201  -0.085  -0.057
    1UNL     H7   54   0.214  -0.247   0.228
    1UNL     H8   55   0.293  -0.456   0.223
    1UNL     H9   56   0.429  -0.388   0.316
    1UNL    H10   57   0.442  -0.374   0.036
    1UNL    H11   58   0.505  -0.147   0.225
    1UNL    H12   59   0.428  -0.072   0.446
    1UNL    H13   60   0.280   0.030   0.314
    1UNL    H14   61   0.523   0.103   0.203
    1UNL    H15   62   0.248   0.135   0.089
    1UNL    H16   63   0.298   0.165  -0.097
    1UNL    H17   64   0.389  -0.150  -0.342
    1UNL    H18   65   0.617  -0.187  -0.252
    1UNL    H19   66   0.579  -0.095  -0.093
    1UNL    H20   67   0.379  -0.220  -0.098
    1UNL    H21   68   0.630  -0.006  -0.362
    1UNL    H22   69   0.483   0.097  -0.553
    1UNL    H23   70   0.574   0.244  -0.358
    1UNL    H24   71   0.313   0.163  -0.335
    1UNL    H25   72   0.524   0.269  -0.129
    1UNL    H26   73   0.730   0.124  -0.135
    1UNL    H27   74  -0.050   0.289   0.204
    1UNL    H28   75  -0.515   0.344   0.211
    1UNL    H29   76  -0.591   0.350   0.041
    1UNL    H30   77  -0.744   0.236   0.180
    1UNL    H31   78  -0.635   0.134   0.260
    1UNL    H32   79  -0.560  -0.039  -0.235
    1UNL    H33   80  -0.804  -0.166  -0.288
    1UNL    H34   81  -1.028  -0.225  -0.208
    1UNL    H35   82  -1.107  -0.103  -0.004
    1UNL    H36   83  -0.939   0.025   0.139
    1UNL    H37   84  -0.403   0.161  -0.127
    1UNL    H38   85  -0.354  -0.085  -0.077
    1UNL    H39   86  -0.363  -0.046   0.099
    1UNL    H40   87  -0.184   0.125  -0.102
   0.00000   0.00000   0.00000   0.00000   0.00000   0.00000   0.00000   0.00000   0.00000
Generated with MDTraj, t= 31.0
 87
    1UNL     C1    1   0.032   0.073  -0.184
    1UNL     C2    2  -0.016  -0.031  -0.125
    1UNL     C3    3  -0.085  -0.023   0.007
    1UNL     C4    4   0.001  -0.006   0.133
    1UNL     O1    5   0.102  -0.101   0.152
    1UNL     C5    6   0.226  -0.094   0.074
    1UNL     O2    7   0.288  -0.221   0.080
    1UNL     C6    8   0.330  -0.253   0.214
    1UNL     C7    9   0.373  -0.405   0.211
    1UNL     O3   10   0.490  -0.431   0.139
    1UNL     C8   11   0.427  -0.147   0.264
    1UNL     O4   12   0.464  -0.164   0.395
    1UNL     C9   13   0.360  -0.008   0.254
    1UNL     O5   14   0.438   0.094   0.298
    1UNL    C10   15   0.323   0.016   0.108
    1UNL     O6   16   0.438   0.041   0.023
    1UNL    C11   17   0.403   0.084  -0.106
    1UNL     O7   18   0.350  -0.020  -0.192
    1UNL    C12   19   0.446  -0.081  -0.282
    1UNL    C13   20   0.553  -0.163  -0.197
    1UNL     O8   21   0.491  -0.272  -0.131
    1UNL    C14   22   0.500   0.015  -0.392
    1UNL     O9   23   0.424  -0.006  -0.510
    1UNL    C15   24   0.481   0.159  -0.335
    1UNL    O10   25   0.349   0.203  -0.364
    1UNL    C16   26   0.510   0.171  -0.179
    1UNL    O11   27   0.639   0.134  -0.152
    1UNL    O12   28   0.043   0.134   0.153
    1UNL    C17   29  -0.060   0.216   0.159
    1UNL    C18   30  -0.185   0.185   0.112
    1UNL    C19   31  -0.303   0.259   0.150
    1UNL    O13   32  -0.292   0.358   0.226
    1UNL     N1   33  -0.425   0.226   0.095
    1UNL    C20   34  -0.555   0.272   0.141
    1UNL    C21   35  -0.669   0.170   0.151
    1UNL    C22   36  -0.672   0.075   0.035
    1UNL    C23   37  -0.568   0.065  -0.049
    1UNL     N2   38  -0.601  -0.020  -0.153
    1UNL    C24   39  -0.729  -0.055  -0.138
    1UNL    C25   40  -0.815  -0.133  -0.218
    1UNL    C26   41  -0.948  -0.149  -0.187
    1UNL    C27   42  -0.998  -0.098  -0.065
    1UNL    C28   43  -0.916  -0.014   0.016
    1UNL    C29   44  -0.782   0.008  -0.027
    1UNL    C30   45  -0.438   0.134  -0.028
    1UNL    C31   46  -0.333   0.016  -0.010
    1UNL    C32   47  -0.197   0.084   0.007
    1UNL     H1   48   0.038   0.169  -0.139
    1UNL     H2   49   0.074   0.057  -0.284
    1UNL     H3   50   0.006  -0.133  -0.163
    1UNL     H4   51  -0.129  -0.127   0.021
    1UNL     H5   52  -0.065  -0.021   0.220
    1UNL     H6   53   0.202  -0.099  -0.033
    1UNL     H7   54   0.238  -0.247   0.272
    1UNL     H8   55   0.291  -0.467   0.165
    1UNL     H9   56   0.384  -0.436   0.315
    1UNL    H10   57   0.506  -0.363   0.071
    1UNL    H11   58   0.522  -0.152   0.218
    1UNL    H12   59   0.460  -0.077   0.443
    1UNL    H13   60   0.275  -0.008   0.317
    1UNL    H14   61   0.488   0.129   0.221
    1UNL    H15   62   0.261   0.114   0.103
    1UNL    H16   63   0.309   0.145  -0.093
    1UNL    H17   64   0.382  -0.157  -0.335
    1UNL    H18   65   0.645  -0.201  -0.248
    1UNL    H19   66   0.580  -0.086  -0.123
    1UNL    H20   67   0.409  -0.242  -0.090
    1UNL    H21   68   0.603  -0.015  -0.415
    1UNL    H22   69   0.348   0.053  -0.495
    1UNL    H23   70   0.543   0.232  -0.384
    1UNL    H24   71   0.285   0.143  -0.318
    1UNL    H25   72   0.504   0.279  -0.157
    1UNL    H26   73   0.706   0.171  -0.221
    1UNL    H27   74  -0.067   0.305   0.222
    1UNL    H28   75  -0.540   0.309   0.240
    1UNL    H29   76  -0.582   0.360   0.071
    1UNL    H30   77  -0.768   0.216   0.152
    1UNL    H31   78  -0.672   0.116   0.248
    1UNL    H32   79  -0.537  -0.044  -0.235
    1UNL    H33   80  -0.773  -0.166  -0.320
    1UNL    H34   81  -1.001  -0.199  -0.262
    1UNL    H35   82  -1.102  -0.089  -0.038
    1UNL    H36   83  -0.952   0.047   0.104
    1UNL    H37   84  -0.425   0.212  -0.106
    1UNL    H38   85  -0.331  -0.057  -0.099
    1UNL    H39   86  -0.362  -0.047   0.079
    1UNL    H40   87  -0.195   0.144  -0.090
   0.00000   0.00000   0.00000   0.00000   0.00000   0.00000   0.00000   0.00000   0.00000
Generated with MDTraj, t= 32.0
 87
    1UNL     C1    1   0.067   0.102  -0.168
    1UNL     C2    2   0.006  -0.007  -0.128
    1UNL     C3    3  -0.077  -0.020   0.001
    1UNL     C4    4   0.008  -0.002   0.132
    1UNL     O1    5   0.105  -0.100   0.150
    1UNL     C5    6   0.228  -0.098   0.075
    1UNL     O2    7   0.296  -0.223   0.078
    1UNL     C6    8   0.340  -0.258   0.210
    1UNL     C7    9   0.410  -0.395   0.211
    1UNL     O3   10   0.541  -0.390   0.157
    1UNL     C8   11   0.445  -0.158   0.259
    1UNL     O4   12   0.499  -0.197   0.387
    1UNL     C9   13   0.387  -0.015   0.265
    1UNL     O5   14   0.488   0.088   0.288
    1UNL    C10   15   0.325   0.016   0.123
    1UNL     O6   16   0.430   0.029   0.025
    1UNL    C11   17   0.371   0.072  -0.102
    1UNL     O7   18   0.331  -0.039  -0.181
    1UNL    C12   19   0.424  -0.094  -0.270
    1UNL    C13   20   0.540  -0.150  -0.188
    1UNL     O8   21   0.502  -0.244  -0.100
    1UNL    C14   22   0.467   0.001  -0.385
    1UNL     O9   23   0.383  -0.011  -0.504
    1UNL    C15   24   0.456   0.148  -0.337
    1UNL    O10   25   0.328   0.201  -0.368
    1UNL    C16   26   0.474   0.153  -0.180
    1UNL    O11   27   0.602   0.110  -0.145
    1UNL    O12   28   0.043   0.139   0.157
    1UNL    C17   29  -0.064   0.226   0.160
    1UNL    C18   30  -0.187   0.188   0.108
    1UNL    C19   31  -0.310   0.246   0.155
    1UNL    O13   32  -0.307   0.336   0.241
    1UNL     N1   33  -0.431   0.214   0.100
    1UNL    C20   34  -0.563   0.269   0.144
    1UNL    C21   35  -0.682   0.172   0.146
    1UNL    C22   36  -0.679   0.096   0.014
    1UNL    C23   37  -0.566   0.068  -0.056
    1UNL     N2   38  -0.598  -0.012  -0.158
    1UNL    C24   39  -0.734  -0.047  -0.155
    1UNL    C25   40  -0.816  -0.133  -0.235
    1UNL    C26   41  -0.943  -0.162  -0.188
    1UNL    C27   42  -1.003  -0.082  -0.077
    1UNL    C28   43  -0.925   0.012  -0.008
    1UNL    C29   44  -0.791   0.022  -0.044
    1UNL    C30   45  -0.437   0.132  -0.024
    1UNL    C31   46  -0.327   0.021  -0.021
    1UNL    C32   47  -0.190   0.094  -0.004
    1UNL     H1   48   0.057   0.188  -0.105
    1UNL     H2   49   0.132   0.105  -0.253
    1UNL     H3   50   0.020  -0.099  -0.176
    1UNL     H4   51  -0.114  -0.126  -0.000
    1UNL     H5   52  -0.057  -0.015   0.215
    1UNL     H6   53   0.201  -0.087  -0.032
    1UNL     H7   54   0.248  -0.253   0.270
    1UNL     H8   55   0.348  -0.476   0.160
    1UNL     H9   56   0.425  -0.431   0.316
    1UNL    H10   57   0.531  -0.343   0.072
    1UNL    H11   58   0.535  -0.158   0.197
    1UNL    H12   59   0.521  -0.115   0.437
    1UNL    H13   60   0.317  -0.004   0.343
    1UNL    H14   61   0.530   0.105   0.197
    1UNL    H15   62   0.262   0.111   0.129
    1UNL    H16   63   0.276   0.132  -0.082
    1UNL    H17   64   0.369  -0.185  -0.312
    1UNL    H18   65   0.604  -0.196  -0.264
    1UNL    H19   66   0.590  -0.068  -0.135
    1UNL    H20   67   0.443  -0.208  -0.028
    1UNL    H21   68   0.562  -0.022  -0.430
    1UNL    H22   69   0.410   0.069  -0.557
    1UNL    H23   70   0.534   0.202  -0.391
    1UNL    H24   71   0.272   0.126  -0.390
    1UNL    H25   72   0.478   0.259  -0.143
    1UNL    H26   73   0.671   0.144  -0.203
    1UNL    H27   74  -0.060   0.312   0.227
    1UNL    H28   75  -0.531   0.300   0.241
    1UNL    H29   76  -0.590   0.361   0.080
    1UNL    H30   77  -0.786   0.217   0.163
    1UNL    H31   78  -0.677   0.097   0.225
    1UNL    H32   79  -0.548  -0.051  -0.243
    1UNL    H33   80  -0.767  -0.181  -0.314
    1UNL    H34   81  -1.012  -0.241  -0.224
    1UNL    H35   82  -1.106  -0.098  -0.050
    1UNL    H36   83  -0.966   0.085   0.059
    1UNL    H37   84  -0.424   0.200  -0.109
    1UNL    H38   85  -0.318  -0.033  -0.124
    1UNL    H39   86  -0.334  -0.058   0.054
    1UNL    H40   87  -0.172   0.162  -0.093
   0.00000   0.00000   0.00000   0.00000   0.00000   0.00000   0.00000   0.00000   0.00000
Generated with MDTraj, t= 33.0
 87
    1UNL     C1    1   0.069   0.133  -0.155
    1UNL     C2    2   0.037   0.008  -0.124
    1UNL     C3    3  -0.053  -0.027  -0.005
    1UNL     C4    4   0.021  -0.012   0.132
    1UNL     O1    5   0.111  -0.112   0.161
    1UNL     C5    6   0.230  -0.108   0.082
    1UNL     O2    7   0.299  -0.230   0.082
    1UNL     C6    8   0.359  -0.257   0.214
    1UNL     C7    9   0.439  -0.393   0.221
    1UNL     O3   10   0.542  -0.390   0.133
    1UNL     C8   11   0.454  -0.143   0.259
    1UNL     O4   12   0.514  -0.177   0.393
    1UNL     C9   13   0.397  -0.005   0.255
    1UNL     O5   14   0.513   0.088   0.263
    1UNL    C10   15   0.322   0.017   0.123
    1UNL     O6   16   0.425   0.040   0.028
    1UNL    C11   17   0.371   0.079  -0.098
    1UNL     O7   18   0.316  -0.034  -0.163
    1UNL    C12   19   0.408  -0.097  -0.253
    1UNL    C13   20   0.529  -0.151  -0.176
    1UNL     O8   21   0.498  -0.264  -0.104
    1UNL    C14   22   0.445  -0.001  -0.367
    1UNL     O9   23   0.362  -0.034  -0.483
    1UNL    C15   24   0.431   0.146  -0.328
    1UNL    O10   25   0.310   0.199  -0.370
    1UNL    C16   26   0.464   0.165  -0.180
    1UNL    O11   27   0.601   0.138  -0.142
    1UNL    O12   28   0.053   0.125   0.162
    1UNL    C17   29  -0.070   0.198   0.162
    1UNL    C18   30  -0.188   0.160   0.108
    1UNL    C19   31  -0.317   0.221   0.156
    1UNL    O13   32  -0.316   0.294   0.258
    1UNL     N1   33  -0.431   0.208   0.083
    1UNL    C20   34  -0.552   0.290   0.122
    1UNL    C21   35  -0.680   0.206   0.129
    1UNL    C22   36  -0.677   0.098   0.013
    1UNL    C23   37  -0.568   0.077  -0.067
    1UNL     N2   38  -0.608  -0.012  -0.170
    1UNL    C24   39  -0.736  -0.044  -0.150
    1UNL    C25   40  -0.823  -0.118  -0.234
    1UNL    C26   41  -0.955  -0.131  -0.202
    1UNL    C27   42  -1.000  -0.067  -0.080
    1UNL    C28   43  -0.921   0.014  -0.004
    1UNL    C29   44  -0.786   0.020  -0.040
    1UNL    C30   45  -0.435   0.128  -0.040
    1UNL    C31   46  -0.334   0.005  -0.028
    1UNL    C32   47  -0.191   0.070  -0.012
    1UNL     H1   48   0.029   0.222  -0.105
    1UNL     H2   49   0.133   0.149  -0.237
    1UNL     H3   50   0.068  -0.079  -0.188
    1UNL     H4   51  -0.092  -0.131  -0.016
    1UNL     H5   52  -0.060  -0.025   0.204
    1UNL     H6   53   0.199  -0.077  -0.020
    1UNL     H7   54   0.266  -0.259   0.276
    1UNL     H8   55   0.378  -0.488   0.192
    1UNL     H9   56   0.475  -0.413   0.326
    1UNL    H10   57   0.529  -0.338   0.053
    1UNL    H11   58   0.538  -0.144   0.187
    1UNL    H12   59   0.513  -0.098   0.449
    1UNL    H13   60   0.325   0.007   0.330
    1UNL    H14   61   0.546   0.096   0.174
    1UNL    H15   62   0.255   0.108   0.131
    1UNL    H16   63   0.279   0.144  -0.077
    1UNL    H17   64   0.359  -0.194  -0.285
    1UNL    H18   65   0.611  -0.184  -0.241
    1UNL    H19   66   0.560  -0.082  -0.095
    1UNL    H20   67   0.418  -0.241  -0.053
    1UNL    H21   68   0.545  -0.022  -0.399
    1UNL    H22   69   0.383   0.035  -0.550
    1UNL    H23   70   0.507   0.199  -0.389
    1UNL    H24   71   0.247   0.129  -0.405
    1UNL    H25   72   0.456   0.276  -0.154
    1UNL    H26   73   0.656   0.193  -0.192
    1UNL    H27   74  -0.068   0.274   0.239
    1UNL    H28   75  -0.540   0.345   0.213
    1UNL    H29   76  -0.548   0.361   0.030
    1UNL    H30   77  -0.778   0.264   0.108
    1UNL    H31   78  -0.697   0.152   0.220
    1UNL    H32   79  -0.546  -0.063  -0.240
    1UNL    H33   80  -0.775  -0.178  -0.309
    1UNL    H34   81  -1.008  -0.209  -0.253
    1UNL    H35   82  -1.099  -0.091  -0.045
    1UNL    H36   83  -0.951   0.064   0.084
    1UNL    H37   84  -0.407   0.189  -0.127
    1UNL    H38   85  -0.333  -0.061  -0.124
    1UNL    H39   86  -0.356  -0.062   0.053
    1UNL    H40   87  -0.174   0.138  -0.101
   0.00000   0.00000   0.00000   0.00000   0.00000   0.00000   0.00000   0.00000   0.00000
Generated with MDTraj, t= 34.0
 87
    1UNL     C1    1   0.059   0.152  -0.145
    1UNL     C2    2   0.024   0.026  -0.125
    1UNL     C3    3  -0.052  -0.023  -0.004
    1UNL     C4    4   0.019  -0.036   0.131
    1UNL     O1    5   0.121  -0.137   0.154
    1UNL     C5    6   0.244  -0.122   0.082
    1UNL     O2    7   0.323  -0.239   0.104
    1UNL     C6    8   0.368  -0.253   0.236
    1UNL     C7    9   0.421  -0.399   0.253
    1UNL     O3   10   0.539  -0.427   0.202
    1UNL     C8   11   0.462  -0.136   0.262
    1UNL     O4   12   0.527  -0.157   0.388
    1UNL     C9   13   0.378  -0.008   0.266
    1UNL     O5   14   0.473   0.101   0.297
    1UNL    C10   15   0.318   0.013   0.122
    1UNL     O6   16   0.416   0.056   0.029
    1UNL    C11   17   0.372   0.081  -0.108
    1UNL     O7   18   0.313  -0.028  -0.181
    1UNL    C12   19   0.405  -0.084  -0.274
    1UNL    C13   20   0.524  -0.148  -0.204
    1UNL     O8   21   0.492  -0.265  -0.128
    1UNL    C14   22   0.444   0.018  -0.390
    1UNL     O9   23   0.371  -0.016  -0.510
    1UNL    C15   24   0.418   0.164  -0.349
    1UNL    O10   25   0.277   0.192  -0.364
    1UNL    C16   26   0.463   0.175  -0.194
    1UNL    O11   27   0.609   0.146  -0.177
    1UNL    O12   28   0.047   0.096   0.184
    1UNL    C17   29  -0.066   0.172   0.198
    1UNL    C18   30  -0.181   0.146   0.132
    1UNL    C19   31  -0.304   0.218   0.153
    1UNL    O13   32  -0.320   0.293   0.249
    1UNL     N1   33  -0.413   0.214   0.062
    1UNL    C20   34  -0.541   0.282   0.093
    1UNL    C21   35  -0.650   0.188   0.127
    1UNL    C22   36  -0.668   0.100   0.003
    1UNL    C23   37  -0.563   0.056  -0.076
    1UNL     N2   38  -0.600  -0.031  -0.172
    1UNL    C24   39  -0.738  -0.051  -0.160
    1UNL    C25   40  -0.840  -0.117  -0.224
    1UNL    C26   41  -0.969  -0.110  -0.189
    1UNL    C27   42  -1.012  -0.031  -0.080
    1UNL    C28   43  -0.912   0.035  -0.009
    1UNL    C29   44  -0.776   0.030  -0.052
    1UNL    C30   45  -0.421   0.112  -0.051
    1UNL    C31   46  -0.323  -0.000  -0.019
    1UNL    C32   47  -0.181   0.063   0.013
    1UNL     H1   48   0.036   0.238  -0.084
    1UNL     H2   49   0.103   0.182  -0.238
    1UNL     H3   50   0.047  -0.043  -0.198
    1UNL     H4   51  -0.080  -0.127  -0.032
    1UNL     H5   52  -0.065  -0.069   0.199
    1UNL     H6   53   0.226  -0.110  -0.029
    1UNL     H7   54   0.275  -0.230   0.297
    1UNL     H8   55   0.343  -0.476   0.217
    1UNL     H9   56   0.441  -0.424   0.360
    1UNL    H10   57   0.552  -0.393   0.108
    1UNL    H11   58   0.547  -0.127   0.189
    1UNL    H12   59   0.522  -0.074   0.439
    1UNL    H13   60   0.304  -0.004   0.341
    1UNL    H14   61   0.517   0.121   0.209
    1UNL    H15   62   0.252   0.101   0.137
    1UNL    H16   63   0.278   0.145  -0.086
    1UNL    H17   64   0.345  -0.166  -0.315
    1UNL    H18   65   0.601  -0.186  -0.271
    1UNL    H19   66   0.561  -0.075  -0.130
    1UNL    H20   67   0.417  -0.236  -0.068
    1UNL    H21   68   0.544  -0.003  -0.425
    1UNL    H22   69   0.372   0.062  -0.567
    1UNL    H23   70   0.465   0.240  -0.417
    1UNL    H24   71   0.224   0.114  -0.385
    1UNL    H25   72   0.452   0.275  -0.143
    1UNL    H26   73   0.660   0.226  -0.199
    1UNL    H27   74  -0.068   0.254   0.266
    1UNL    H28   75  -0.511   0.343   0.176
    1UNL    H29   76  -0.585   0.342   0.005
    1UNL    H30   77  -0.752   0.243   0.142
    1UNL    H31   78  -0.625   0.126   0.211
    1UNL    H32   79  -0.538  -0.051  -0.255
    1UNL    H33   80  -0.812  -0.188  -0.308
    1UNL    H34   81  -1.043  -0.168  -0.245
    1UNL    H35   82  -1.117  -0.019  -0.054
    1UNL    H36   83  -0.937   0.100   0.080
    1UNL    H37   84  -0.397   0.168  -0.143
    1UNL    H38   85  -0.326  -0.081  -0.095
    1UNL    H39   86  -0.360  -0.048   0.072
    1UNL    H40   87  -0.169   0.138  -0.071
   0.00000   0.00000   0.00000   0.00000   0.00000   0.00000   0.00000   0.00000   0.00000
Generated with MDTraj, t= 35.0
 87
    1UNL     C1    1   0.080   0.168  -0.104
    1UNL     C2    2   0.045   0.039  -0.114
    1UNL     C3    3  -0.049  -0.033  -0.015
    1UNL     C4    4   0.013  -0.057   0.131
    1UNL     O1    5   0.108  -0.165   0.146
    1UNL     C5    6   0.231  -0.133   0.078
    1UNL     O2    7   0.328  -0.232   0.095
    1UNL     C6    8   0.349  -0.243   0.240
    1UNL     C7    9   0.422  -0.378   0.265
    1UNL     O3   10   0.527  -0.394   0.170
    1UNL     C8   11   0.438  -0.123   0.275
    1UNL     O4   12   0.488  -0.132   0.406
    1UNL     C9   13   0.366   0.015   0.253
    1UNL     O5   14   0.443   0.137   0.258
    1UNL    C10   15   0.301   0.002   0.112
    1UNL     O6   16   0.402   0.024   0.018
    1UNL    C11   17   0.364   0.062  -0.113
    1UNL     O7   18   0.318  -0.049  -0.201
    1UNL    C12   19   0.425  -0.095  -0.295
    1UNL    C13   20   0.548  -0.144  -0.214
    1UNL     O8   21   0.516  -0.257  -0.131
    1UNL    C14   22   0.447   0.025  -0.393
    1UNL     O9   23   0.372   0.006  -0.513
    1UNL    C15   24   0.415   0.164  -0.326
    1UNL    O10   25   0.279   0.197  -0.341
    1UNL    C16   26   0.464   0.164  -0.178
    1UNL    O11   27   0.601   0.126  -0.166
    1UNL    O12   28   0.050   0.067   0.199
    1UNL    C17   29  -0.056   0.148   0.197
    1UNL    C18   30  -0.173   0.140   0.120
    1UNL    C19   31  -0.290   0.221   0.146
    1UNL    O13   32  -0.290   0.313   0.229
    1UNL     N1   33  -0.405   0.200   0.067
    1UNL    C20   34  -0.530   0.286   0.088
    1UNL    C21   35  -0.657   0.200   0.122
    1UNL    C22   36  -0.665   0.086   0.022
    1UNL    C23   37  -0.556   0.032  -0.049
    1UNL     N2   38  -0.607  -0.052  -0.143
    1UNL    C24   39  -0.744  -0.043  -0.141
    1UNL    C25   40  -0.831  -0.106  -0.228
    1UNL    C26   41  -0.968  -0.094  -0.199
    1UNL    C27   42  -1.008  -0.019  -0.092
    1UNL    C28   43  -0.923   0.048  -0.007
    1UNL    C29   44  -0.786   0.042  -0.036
    1UNL    C30   45  -0.416   0.087  -0.032
    1UNL    C31   46  -0.309  -0.015  -0.024
    1UNL    C32   47  -0.171   0.057  -0.003
    1UNL     H1   48   0.063   0.224  -0.017
    1UNL     H2   49   0.144   0.226  -0.174
    1UNL     H3   50   0.074  -0.015  -0.209
    1UNL     H4   51  -0.072  -0.131  -0.062
    1UNL     H5   52  -0.074  -0.090   0.196
    1UNL     H6   53   0.210  -0.136  -0.034
    1UNL     H7   54   0.254  -0.221   0.298
    1UNL     H8   55   0.358  -0.471   0.256
    1UNL     H9   56   0.464  -0.381   0.366
    1UNL    H10   57   0.515  -0.336   0.090
    1UNL    H11   58   0.533  -0.139   0.211
    1UNL    H12   59   0.508  -0.038   0.434
    1UNL    H13   60   0.283   0.020   0.320
    1UNL    H14   61   0.497   0.132   0.177
    1UNL    H15   62   0.225   0.079   0.106
    1UNL    H16   63   0.275   0.126  -0.089
    1UNL    H17   64   0.377  -0.179  -0.343
    1UNL    H18   65   0.622  -0.176  -0.286
    1UNL    H19   66   0.585  -0.066  -0.144
    1UNL    H20   67   0.432  -0.222  -0.095
    1UNL    H21   68   0.552   0.028  -0.427
    1UNL    H22   69   0.370   0.091  -0.563
    1UNL    H23   70   0.459   0.248  -0.387
    1UNL    H24   71   0.225   0.119  -0.369
    1UNL    H25   72   0.458   0.264  -0.128
    1UNL    H26   73   0.657   0.213  -0.168
    1UNL    H27   74  -0.053   0.239   0.258
    1UNL    H28   75  -0.514   0.357   0.167
    1UNL    H29   76  -0.551   0.335  -0.012
    1UNL    H30   77  -0.752   0.267   0.112
    1UNL    H31   78  -0.642   0.163   0.222
    1UNL    H32   79  -0.540  -0.112  -0.196
    1UNL    H33   80  -0.802  -0.151  -0.313
    1UNL    H34   81  -1.038  -0.131  -0.270
    1UNL    H35   82  -1.115  -0.010  -0.091
    1UNL    H36   83  -0.960   0.109   0.067
    1UNL    H37   84  -0.402   0.153  -0.120
    1UNL    H38   85  -0.315  -0.082  -0.105
    1UNL    H39   86  -0.334  -0.079   0.065
    1UNL    H40   87  -0.164   0.134  -0.085
   0.00000   0.00000   0.00000   0.00000   0.00000   0.00000   0.00000   0.00000   0.00000
Generated with MDTraj, t= 36.0
 87
    1UNL     C1    1   0.041   0.189  -0.118
    1UNL     C2    2   0.038   0.054  -0.110
    1UNL     C3    3  -0.047  -0.031  -0.016
    1UNL     C4    4   0.014  -0.058   0.123
    1UNL     O1    5   0.116  -0.162   0.132
    1UNL     C5    6   0.233  -0.148   0.055
    1UNL     O2    7   0.320  -0.258   0.090
    1UNL     C6    8   0.364  -0.255   0.230
    1UNL     C7    9   0.467  -0.368   0.248
    1UNL     O3   10   0.576  -0.355   0.158
    1UNL     C8   11   0.420  -0.128   0.283
    1UNL     O4   12   0.431  -0.134   0.421
    1UNL     C9   13   0.335  -0.001   0.243
    1UNL     O5   14   0.414   0.111   0.269
    1UNL    C10   15   0.301  -0.013   0.092
    1UNL     O6   16   0.419   0.019   0.013
    1UNL    C11   17   0.371   0.064  -0.114
    1UNL     O7   18   0.323  -0.041  -0.201
    1UNL    C12   19   0.427  -0.094  -0.292
    1UNL    C13   20   0.542  -0.162  -0.215
    1UNL     O8   21   0.506  -0.252  -0.113
    1UNL    C14   22   0.473   0.013  -0.392
    1UNL     O9   23   0.403  -0.007  -0.516
    1UNL    C15   24   0.449   0.164  -0.341
    1UNL    O10   25   0.316   0.213  -0.349
    1UNL    C16   26   0.475   0.167  -0.186
    1UNL    O11   27   0.602   0.134  -0.150
    1UNL    O12   28   0.045   0.068   0.177
    1UNL    C17   29  -0.058   0.164   0.184
    1UNL    C18   30  -0.177   0.144   0.114
    1UNL    C19   31  -0.298   0.231   0.140
    1UNL    O13   32  -0.291   0.327   0.218
    1UNL     N1   33  -0.419   0.199   0.083
    1UNL    C20   34  -0.536   0.282   0.109
    1UNL    C21   35  -0.674   0.199   0.125
    1UNL    C22   36  -0.673   0.084   0.027
    1UNL    C23   37  -0.563   0.042  -0.040
    1UNL     N2   38  -0.600  -0.055  -0.128
    1UNL    C24   39  -0.744  -0.060  -0.125
    1UNL    C25   40  -0.836  -0.128  -0.203
    1UNL    C26   41  -0.967  -0.089  -0.186
    1UNL    C27   42  -1.006   0.008  -0.096
    1UNL    C28   43  -0.920   0.070  -0.021
    1UNL    C29   44  -0.787   0.034  -0.033
    1UNL    C30   45  -0.426   0.092  -0.018
    1UNL    C31   46  -0.322  -0.023   0.003
    1UNL    C32   47  -0.181   0.045  -0.006
    1UNL     H1   48  -0.005   0.258  -0.049
    1UNL     H2   49   0.087   0.235  -0.204
    1UNL     H3   50   0.102   0.001  -0.171
    1UNL     H4   51  -0.070  -0.122  -0.073
    1UNL     H5   52  -0.073  -0.093   0.183
    1UNL     H6   53   0.213  -0.168  -0.055
    1UNL     H7   54   0.267  -0.268   0.282
    1UNL     H8   55   0.412  -0.461   0.233
    1UNL     H9   56   0.513  -0.373   0.345
    1UNL    H10   57   0.540  -0.344   0.064
    1UNL    H11   58   0.526  -0.111   0.241
    1UNL    H12   59   0.411  -0.042   0.451
    1UNL    H13   60   0.243   0.011   0.304
    1UNL    H14   61   0.464   0.129   0.185
    1UNL    H15   62   0.229   0.064   0.075
    1UNL    H16   63   0.283   0.122  -0.087
    1UNL    H17   64   0.372  -0.176  -0.333
    1UNL    H18   65   0.601  -0.224  -0.285
    1UNL    H19   66   0.601  -0.080  -0.169
    1UNL    H20   67   0.465  -0.195  -0.046
    1UNL    H21   68   0.581  -0.008  -0.410
    1UNL    H22   69   0.309   0.017  -0.498
    1UNL    H23   70   0.515   0.236  -0.395
    1UNL    H24   71   0.271   0.139  -0.302
    1UNL    H25   72   0.465   0.271  -0.152
    1UNL    H26   73   0.670   0.206  -0.183
    1UNL    H27   74  -0.035   0.246   0.253
    1UNL    H28   75  -0.514   0.340   0.197
    1UNL    H29   76  -0.555   0.348   0.020
    1UNL    H30   77  -0.754   0.273   0.096
    1UNL    H31   78  -0.679   0.162   0.228
    1UNL    H32   79  -0.534  -0.103  -0.192
    1UNL    H33   80  -0.806  -0.205  -0.279
    1UNL    H34   81  -1.045  -0.139  -0.244
    1UNL    H35   82  -1.108   0.045  -0.088
    1UNL    H36   83  -0.967   0.145   0.047
    1UNL    H37   84  -0.404   0.136  -0.118
    1UNL    H38   85  -0.333  -0.099  -0.067
    1UNL    H39   86  -0.331  -0.074   0.102
    1UNL    H40   87  -0.185   0.108  -0.098
   0.00000   0.00000   0.00000   0.00000   0.00000   0.00000   0.00000   0.00000   0.00000
Generated with MDTraj, t= 37.0
 87
    1UNL     C1    1   0.073   0.153  -0.149
    1UNL     C2    2   0.035   0.025  -0.143
    1UNL     C3    3  -0.062  -0.028  -0.028
    1UNL     C4    4   0.010  -0.049   0.116
    1UNL     O1    5   0.103  -0.156   0.126
    1UNL     C5    6   0.214  -0.124   0.051
    1UNL     O2    7   0.304  -0.236   0.068
    1UNL     C6    8   0.348  -0.260   0.203
    1UNL     C7    9   0.465  -0.372   0.204
    1UNL     O3   10   0.577  -0.305   0.158
    1UNL     C8   11   0.403  -0.140   0.277
    1UNL     O4   12   0.423  -0.152   0.420
    1UNL     C9   13   0.331  -0.009   0.249
    1UNL     O5   14   0.395   0.097   0.319
    1UNL    C10   15   0.295   0.004   0.097
    1UNL     O6   16   0.407   0.037   0.008
    1UNL    C11   17   0.374   0.082  -0.118
    1UNL     O7   18   0.339  -0.027  -0.209
    1UNL    C12   19   0.447  -0.090  -0.285
    1UNL    C13   20   0.553  -0.156  -0.196
    1UNL     O8   21   0.493  -0.226  -0.093
    1UNL    C14   22   0.506   0.004  -0.388
    1UNL     O9   23   0.457  -0.015  -0.529
    1UNL    C15   24   0.480   0.149  -0.342
    1UNL    O10   25   0.346   0.186  -0.375
    1UNL    C16   26   0.493   0.164  -0.185
    1UNL    O11   27   0.620   0.112  -0.148
    1UNL    O12   28   0.051   0.075   0.171
    1UNL    C17   29  -0.057   0.156   0.184
    1UNL    C18   30  -0.170   0.141   0.113
    1UNL    C19   31  -0.297   0.225   0.154
    1UNL    O13   32  -0.281   0.319   0.233
    1UNL     N1   33  -0.425   0.194   0.102
    1UNL    C20   34  -0.541   0.291   0.108
    1UNL    C21   35  -0.673   0.214   0.132
    1UNL    C22   36  -0.687   0.101   0.034
    1UNL    C23   37  -0.574   0.041  -0.023
    1UNL     N2   38  -0.612  -0.059  -0.109
    1UNL    C24   39  -0.753  -0.061  -0.114
    1UNL    C25   40  -0.851  -0.132  -0.192
    1UNL    C26   41  -0.981  -0.108  -0.175
    1UNL    C27   42  -1.026  -0.007  -0.091
    1UNL    C28   43  -0.935   0.065  -0.020
    1UNL    C29   44  -0.795   0.040  -0.023
    1UNL    C30   45  -0.439   0.094  -0.012
    1UNL    C31   46  -0.322  -0.016  -0.001
    1UNL    C32   47  -0.188   0.054  -0.007
    1UNL     H1   48   0.052   0.214  -0.061
    1UNL     H2   49   0.137   0.188  -0.223
    1UNL     H3   50   0.062  -0.043  -0.227
    1UNL     H4   51  -0.089  -0.127  -0.067
    1UNL     H5   52  -0.064  -0.088   0.187
    1UNL     H6   53   0.187  -0.125  -0.059
    1UNL     H7   54   0.261  -0.300   0.254
    1UNL     H8   55   0.456  -0.466   0.155
    1UNL     H9   56   0.473  -0.392   0.308
    1UNL    H10   57   0.557  -0.264   0.074
    1UNL    H11   58   0.512  -0.132   0.240
    1UNL    H12   59   0.419  -0.065   0.465
    1UNL    H13   60   0.237  -0.021   0.313
    1UNL    H14   61   0.449   0.152   0.253
    1UNL    H15   62   0.238   0.093   0.095
    1UNL    H16   63   0.282   0.138  -0.103
    1UNL    H17   64   0.399  -0.161  -0.350
    1UNL    H18   65   0.623  -0.218  -0.256
    1UNL    H19   66   0.599  -0.069  -0.145
    1UNL    H20   67   0.411  -0.177  -0.075
    1UNL    H21   68   0.614  -0.027  -0.405
    1UNL    H22   69   0.402   0.061  -0.549
    1UNL    H23   70   0.540   0.229  -0.389
    1UNL    H24   71   0.286   0.109  -0.352
    1UNL    H25   72   0.486   0.266  -0.152
    1UNL    H26   73   0.697   0.143  -0.199
    1UNL    H27   74  -0.052   0.238   0.255
    1UNL    H28   75  -0.525   0.354   0.195
    1UNL    H29   76  -0.530   0.349   0.014
    1UNL    H30   77  -0.760   0.280   0.124
    1UNL    H31   78  -0.662   0.167   0.234
    1UNL    H32   79  -0.553  -0.102  -0.180
    1UNL    H33   80  -0.823  -0.219  -0.256
    1UNL    H34   81  -1.062  -0.163  -0.219
    1UNL    H35   82  -1.133   0.001  -0.079
    1UNL    H36   83  -0.977   0.143   0.043
    1UNL    H37   84  -0.416   0.148  -0.106
    1UNL    H38   85  -0.326  -0.083  -0.081
    1UNL    H39   86  -0.323  -0.079   0.087
    1UNL    H40   87  -0.191   0.122  -0.094
   0.00000   0.00000   0.00000   0.00000   0.00000   0.00000   0.00000   0.00000   0.00000
Generated with MDTraj, t= 38.0
 87
    1UNL     C1    1   0.057   0.105  -0.162
    1UNL     C2    2   0.002  -0.014  -0.143
    1UNL     C3    3  -0.081  -0.034  -0.019
    1UNL     C4    4   0.006  -0.040   0.110
    1UNL     O1    5   0.106  -0.145   0.118
    1UNL     C5    6   0.220  -0.118   0.042
    1UNL     O2    7   0.317  -0.226   0.059
    1UNL     C6    8   0.345  -0.242   0.195
    1UNL     C7    9   0.429  -0.379   0.210
    1UNL     O3   10   0.558  -0.378   0.156
    1UNL     C8   11   0.410  -0.123   0.258
    1UNL     O4   12   0.417  -0.148   0.399
    1UNL     C9   13   0.323   0.001   0.240
    1UNL     O5   14   0.379   0.122   0.281
    1UNL    C10   15   0.295   0.011   0.093
    1UNL     O6   16   0.419   0.038   0.017
    1UNL    C11   17   0.403   0.069  -0.117
    1UNL     O7   18   0.376  -0.051  -0.206
    1UNL    C12   19   0.490  -0.095  -0.286
    1UNL    C13   20   0.592  -0.160  -0.192
    1UNL     O8   21   0.547  -0.277  -0.122
    1UNL    C14   22   0.539   0.022  -0.375
    1UNL     O9   23   0.491   0.001  -0.510
    1UNL    C15   24   0.494   0.165  -0.325
    1UNL    O10   25   0.358   0.187  -0.365
    1UNL    C16   26   0.512   0.161  -0.174
    1UNL    O11   27   0.643   0.139  -0.122
    1UNL    O12   28   0.043   0.091   0.142
    1UNL    C17   29  -0.064   0.173   0.167
    1UNL    C18   30  -0.192   0.148   0.117
    1UNL    C19   31  -0.316   0.225   0.158
    1UNL    O13   32  -0.297   0.303   0.250
    1UNL     N1   33  -0.437   0.210   0.088
    1UNL    C20   34  -0.552   0.294   0.122
    1UNL    C21   35  -0.690   0.227   0.120
    1UNL    C22   36  -0.689   0.113   0.029
    1UNL    C23   37  -0.587   0.054  -0.036
    1UNL     N2   38  -0.628  -0.053  -0.114
    1UNL    C24   39  -0.760  -0.067  -0.102
    1UNL    C25   40  -0.861  -0.142  -0.175
    1UNL    C26   41  -0.992  -0.115  -0.147
    1UNL    C27   42  -1.028  -0.024  -0.046
    1UNL    C28   43  -0.940   0.054   0.022
    1UNL    C29   44  -0.800   0.032  -0.008
    1UNL    C30   45  -0.453   0.119  -0.034
    1UNL    C31   46  -0.346   0.009  -0.024
    1UNL    C32   47  -0.202   0.062  -0.008
    1UNL     H1   48   0.043   0.181  -0.084
    1UNL     H2   49   0.100   0.133  -0.257
    1UNL     H3   50  -0.003  -0.090  -0.217
    1UNL     H4   51  -0.127  -0.132  -0.031
    1UNL     H5   52  -0.054  -0.073   0.194
    1UNL     H6   53   0.190  -0.114  -0.068
    1UNL     H7   54   0.245  -0.255   0.235
    1UNL     H8   55   0.369  -0.447   0.153
    1UNL     H9   56   0.440  -0.418   0.307
    1UNL    H10   57   0.552  -0.341   0.063
    1UNL    H11   58   0.509  -0.088   0.214
    1UNL    H12   59   0.434  -0.065   0.447
    1UNL    H13   60   0.224  -0.012   0.299
    1UNL    H14   61   0.423   0.170   0.208
    1UNL    H15   62   0.234   0.096   0.076
    1UNL    H16   63   0.310   0.128  -0.119
    1UNL    H17   64   0.451  -0.176  -0.347
    1UNL    H18   65   0.667  -0.207  -0.259
    1UNL    H19   66   0.634  -0.087  -0.120
    1UNL    H20   67   0.464  -0.248  -0.079
    1UNL    H21   68   0.652   0.014  -0.372
    1UNL    H22   69   0.425   0.077  -0.516
    1UNL    H23   70   0.554   0.247  -0.367
    1UNL    H24   71   0.309   0.114  -0.325
    1UNL    H25   72   0.477   0.260  -0.146
    1UNL    H26   73   0.681   0.222  -0.105
    1UNL    H27   74  -0.053   0.258   0.229
    1UNL    H28   75  -0.511   0.326   0.218
    1UNL    H29   76  -0.550   0.378   0.054
    1UNL    H30   77  -0.771   0.294   0.100
    1UNL    H31   78  -0.710   0.180   0.222
    1UNL    H32   79  -0.573  -0.117  -0.166
    1UNL    H33   80  -0.839  -0.209  -0.247
    1UNL    H34   81  -1.062  -0.173  -0.206
    1UNL    H35   82  -1.136  -0.025  -0.038
    1UNL    H36   83  -0.976   0.126   0.090
    1UNL    H37   84  -0.438   0.183  -0.123
    1UNL    H38   85  -0.359  -0.065  -0.101
    1UNL    H39   86  -0.376  -0.039   0.062
    1UNL    H40   87  -0.195   0.123  -0.100
   0.00000   0.00000   0.00000   0.00000   0.00000   0.00000   0.00000   0.00000   0.00000
Generated with MDTraj, t= 39.0
 87
    1UNL     C1    1   0.051   0.072  -0.208
    1UNL     C2    2  -0.021  -0.033  -0.163
    1UNL     C3    3  -0.100  -0.043  -0.034
    1UNL     C4    4  -0.009  -0.043   0.093
    1UNL     O1    5   0.099  -0.143   0.078
    1UNL     C5    6   0.230  -0.117   0.028
    1UNL     O2    7   0.316  -0.227   0.063
    1UNL     C6    8   0.326  -0.246   0.202
    1UNL     C7    9   0.387  -0.386   0.234
    1UNL     O3   10   0.513  -0.385   0.177
    1UNL     C8   11   0.410  -0.136   0.251
    1UNL     O4   12   0.443  -0.159   0.388
    1UNL     C9   13   0.336   0.004   0.238
    1UNL     O5   14   0.424   0.111   0.277
    1UNL    C10   15   0.297   0.006   0.085
    1UNL     O6   16   0.418   0.040   0.015
    1UNL    C11   17   0.404   0.078  -0.119
    1UNL     O7   18   0.388  -0.032  -0.209
    1UNL    C12   19   0.507  -0.076  -0.277
    1UNL    C13   20   0.603  -0.137  -0.169
    1UNL     O8   21   0.549  -0.248  -0.098
    1UNL    C14   22   0.566   0.030  -0.365
    1UNL     O9   23   0.542   0.000  -0.502
    1UNL    C15   24   0.519   0.174  -0.320
    1UNL    O10   25   0.399   0.203  -0.379
    1UNL    C16   26   0.520   0.174  -0.165
    1UNL    O11   27   0.645   0.130  -0.105
    1UNL    O12   28   0.041   0.089   0.127
    1UNL    C17   29  -0.074   0.163   0.157
    1UNL    C18   30  -0.203   0.145   0.101
    1UNL    C19   31  -0.320   0.222   0.143
    1UNL    O13   32  -0.305   0.293   0.239
    1UNL     N1   33  -0.437   0.211   0.073
    1UNL    C20   34  -0.556   0.301   0.123
    1UNL    C21   35  -0.684   0.213   0.142
    1UNL    C22   36  -0.701   0.113   0.031
    1UNL    C23   37  -0.596   0.074  -0.049
    1UNL     N2   38  -0.643  -0.022  -0.130
    1UNL    C24   39  -0.784  -0.035  -0.115
    1UNL    C25   40  -0.875  -0.130  -0.149
    1UNL    C26   41  -0.994  -0.145  -0.091
    1UNL    C27   42  -1.035  -0.056   0.007
    1UNL    C28   43  -0.949   0.045   0.049
    1UNL    C29   44  -0.824   0.050  -0.006
    1UNL    C30   45  -0.454   0.120  -0.040
    1UNL    C31   46  -0.356   0.001  -0.027
    1UNL    C32   47  -0.213   0.055  -0.018
    1UNL     H1   48   0.040   0.166  -0.169
    1UNL     H2   49   0.115   0.069  -0.297
    1UNL     H3   50  -0.013  -0.130  -0.214
    1UNL     H4   51  -0.155  -0.136  -0.039
    1UNL     H5   52  -0.066  -0.080   0.178
    1UNL     H6   53   0.220  -0.109  -0.085
    1UNL     H7   54   0.229  -0.239   0.246
    1UNL     H8   55   0.339  -0.477   0.198
    1UNL     H9   56   0.401  -0.394   0.340
    1UNL    H10   57   0.503  -0.344   0.088
    1UNL    H11   58   0.505  -0.137   0.195
    1UNL    H12   59   0.499  -0.091   0.433
    1UNL    H13   60   0.240   0.010   0.303
    1UNL    H14   61   0.489   0.132   0.207
    1UNL    H15   62   0.228   0.081   0.060
    1UNL    H16   63   0.307   0.134  -0.128
    1UNL    H17   64   0.471  -0.163  -0.340
    1UNL    H18   65   0.694  -0.168  -0.221
    1UNL    H19   66   0.626  -0.061  -0.091
    1UNL    H20   67   0.457  -0.221  -0.073
    1UNL    H21   68   0.678   0.012  -0.351
    1UNL    H22   69   0.543   0.088  -0.545
    1UNL    H23   70   0.593   0.243  -0.360
    1UNL    H24   71   0.351   0.117  -0.375
    1UNL    H25   72   0.485   0.270  -0.124
    1UNL    H26   73   0.710   0.200  -0.099
    1UNL    H27   74  -0.060   0.245   0.227
    1UNL    H28   75  -0.528   0.363   0.210
    1UNL    H29   76  -0.561   0.369   0.039
    1UNL    H30   77  -0.775   0.261   0.155
    1UNL    H31   78  -0.671   0.145   0.234
    1UNL    H32   79  -0.604  -0.078  -0.201
    1UNL    H33   80  -0.841  -0.202  -0.231
    1UNL    H34   81  -1.057  -0.226  -0.127
    1UNL    H35   82  -1.132  -0.059   0.053
    1UNL    H36   83  -0.976   0.112   0.135
    1UNL    H37   84  -0.439   0.178  -0.133
    1UNL    H38   85  -0.374  -0.060  -0.116
    1UNL    H39   86  -0.379  -0.063   0.049
    1UNL    H40   87  -0.208   0.123  -0.103
   0.00000   0.00000   0.00000   0.00000   0.00000   0.00000   0.00000   0.00000   0.00000
Generated with MDTraj, t= 40.0
 87
    1UNL     C1    1   0.050   0.045  -0.213
    1UNL     C2    2  -0.024  -0.055  -0.171
    1UNL     C3    3  -0.099  -0.051  -0.041
    1UNL     C4    4  -0.015  -0.036   0.083
    1UNL     O1    5   0.081  -0.143   0.096
    1UNL     C5    6   0.207  -0.121   0.031
    1UNL     O2    7   0.287  -0.244   0.053
    1UNL     C6    8   0.315  -0.262   0.194
    1UNL     C7    9   0.387  -0.403   0.212
    1UNL     O3   10   0.517  -0.403   0.150
    1UNL     C8   11   0.400  -0.151   0.252
    1UNL     O4   12   0.426  -0.158   0.393
    1UNL     C9   13   0.330  -0.007   0.235
    1UNL     O5   14   0.426   0.092   0.269
    1UNL    C10   15   0.291   0.001   0.085
    1UNL     O6   16   0.414   0.040   0.014
    1UNL    C11   17   0.398   0.092  -0.121
    1UNL     O7   18   0.385  -0.011  -0.217
    1UNL    C12   19   0.511  -0.069  -0.257
    1UNL    C13   20   0.600  -0.126  -0.142
    1UNL     O8   21   0.521  -0.200  -0.057
    1UNL    C14   22   0.593   0.026  -0.343
    1UNL     O9   23   0.571  -0.016  -0.477
    1UNL    C15   24   0.557   0.172  -0.317
    1UNL    O10   25   0.451   0.206  -0.398
    1UNL    C16   26   0.513   0.192  -0.161
    1UNL    O11   27   0.623   0.172  -0.072
    1UNL    O12   28   0.039   0.098   0.092
    1UNL    C17   29  -0.075   0.181   0.107
    1UNL    C18   30  -0.201   0.147   0.067
    1UNL    C19   31  -0.307   0.228   0.124
    1UNL    O13   32  -0.287   0.304   0.219
    1UNL     N1   33  -0.435   0.211   0.059
    1UNL    C20   34  -0.546   0.297   0.112
    1UNL    C21   35  -0.659   0.212   0.155
    1UNL    C22   36  -0.689   0.104   0.057
    1UNL    C23   37  -0.605   0.078  -0.046
    1UNL     N2   38  -0.663  -0.009  -0.138
    1UNL    C24   39  -0.791  -0.042  -0.092
    1UNL    C25   40  -0.884  -0.132  -0.153
    1UNL    C26   41  -1.000  -0.137  -0.068
    1UNL    C27   42  -1.024  -0.065   0.051
    1UNL    C28   43  -0.931   0.022   0.104
    1UNL    C29   44  -0.812   0.025   0.031
    1UNL    C30   45  -0.464   0.120  -0.053
    1UNL    C31   46  -0.363   0.007  -0.070
    1UNL    C32   47  -0.213   0.053  -0.048
    1UNL     H1   48   0.060   0.131  -0.149
    1UNL     H2   49   0.114   0.049  -0.304
    1UNL     H3   50  -0.036  -0.137  -0.241
    1UNL     H4   51  -0.144  -0.149  -0.037
    1UNL     H5   52  -0.078  -0.055   0.173
    1UNL     H6   53   0.188  -0.109  -0.080
    1UNL     H7   54   0.220  -0.268   0.244
    1UNL     H8   55   0.327  -0.487   0.170
    1UNL     H9   56   0.411  -0.432   0.316
    1UNL    H10   57   0.507  -0.338   0.071
    1UNL    H11   58   0.495  -0.146   0.201
    1UNL    H12   59   0.470  -0.077   0.429
    1UNL    H13   60   0.241   0.014   0.308
    1UNL    H14   61   0.507   0.090   0.210
    1UNL    H15   62   0.232   0.087   0.079
    1UNL    H16   63   0.298   0.147  -0.133
    1UNL    H17   64   0.479  -0.147  -0.334
    1UNL    H18   65   0.686  -0.184  -0.178
    1UNL    H19   66   0.636  -0.034  -0.093
    1UNL    H20   67   0.430  -0.159  -0.059
    1UNL    H21   68   0.700  -0.002  -0.331
    1UNL    H22   69   0.494   0.030  -0.515
    1UNL    H23   70   0.627   0.253  -0.336
    1UNL    H24   71   0.377   0.150  -0.371
    1UNL    H25   72   0.471   0.294  -0.139
    1UNL    H26   73   0.713   0.201  -0.111
    1UNL    H27   74  -0.061   0.270   0.170
    1UNL    H28   75  -0.497   0.345   0.199
    1UNL    H29   76  -0.581   0.368   0.041
    1UNL    H30   77  -0.743   0.274   0.157
    1UNL    H31   78  -0.645   0.168   0.261
    1UNL    H32   79  -0.629  -0.036  -0.226
    1UNL    H33   80  -0.868  -0.171  -0.253
    1UNL    H34   81  -1.088  -0.189  -0.103
    1UNL    H35   82  -1.116  -0.078   0.108
    1UNL    H36   83  -0.941   0.074   0.194
    1UNL    H37   84  -0.448   0.182  -0.142
    1UNL    H38   85  -0.379  -0.042  -0.164
    1UNL    H39   86  -0.379  -0.072  -0.003
    1UNL    H40   87  -0.182   0.117  -0.130
   0.00000   0.00000   0.00000   0.00000   0.00000   0.00000   0.00000   0.00000   0.00000
Generated with MDTraj, t= 41.0
 87
    1UNL     C1    1   0.063   0.022  -0.234
    1UNL     C2    2  -0.028  -0.063  -0.187
    1UNL     C3    3  -0.102  -0.040  -0.051
    1UNL     C4    4  -0.010  -0.020   0.070
    1UNL     O1    5   0.077  -0.128   0.082
    1UNL     C5    6   0.200  -0.114   0.020
    1UNL     O2    7   0.279  -0.235   0.040
    1UNL     C6    8   0.305  -0.260   0.179
    1UNL     C7    9   0.368  -0.404   0.193
    1UNL     O3   10   0.495  -0.432   0.144
    1UNL     C8   11   0.383  -0.154   0.249
    1UNL     O4   12   0.399  -0.178   0.386
    1UNL     C9   13   0.315  -0.010   0.230
    1UNL     O5   14   0.399   0.084   0.282
    1UNL    C10   15   0.287   0.001   0.083
    1UNL     O6   16   0.414   0.017   0.016
    1UNL    C11   17   0.387   0.075  -0.119
    1UNL     O7   18   0.397  -0.028  -0.221
    1UNL    C12   19   0.537  -0.070  -0.243
    1UNL    C13   20   0.616  -0.118  -0.122
    1UNL     O8   21   0.552  -0.224  -0.062
    1UNL    C14   22   0.614   0.048  -0.317
    1UNL     O9   23   0.620   0.021  -0.456
    1UNL    C15   24   0.535   0.184  -0.296
    1UNL    O10   25   0.425   0.192  -0.388
    1UNL    C16   26   0.486   0.194  -0.145
    1UNL    O11   27   0.601   0.175  -0.064
    1UNL    O12   28   0.039   0.114   0.086
    1UNL    C17   29  -0.065   0.207   0.075
    1UNL    C18   30  -0.188   0.186   0.029
    1UNL    C19   31  -0.301   0.259   0.084
    1UNL    O13   32  -0.282   0.341   0.170
    1UNL     N1   33  -0.434   0.231   0.040
    1UNL    C20   34  -0.541   0.299   0.111
    1UNL    C21   35  -0.627   0.186   0.171
    1UNL    C22   36  -0.673   0.080   0.070
    1UNL    C23   37  -0.594   0.058  -0.044
    1UNL     N2   38  -0.665  -0.025  -0.133
    1UNL    C24   39  -0.786  -0.057  -0.073
    1UNL    C25   40  -0.897  -0.128  -0.115
    1UNL    C26   41  -1.016  -0.132  -0.045
    1UNL    C27   42  -1.022  -0.064   0.083
    1UNL    C28   43  -0.911   0.006   0.121
    1UNL    C29   44  -0.795   0.007   0.049
    1UNL    C30   45  -0.456   0.117  -0.065
    1UNL    C31   46  -0.353   0.010  -0.044
    1UNL    C32   47  -0.213   0.069  -0.058
    1UNL     H1   48   0.081   0.111  -0.176
    1UNL     H2   49   0.128   0.014  -0.314
    1UNL     H3   50  -0.040  -0.154  -0.243
    1UNL     H4   51  -0.156  -0.131  -0.037
    1UNL     H5   52  -0.069  -0.043   0.164
    1UNL     H6   53   0.192  -0.097  -0.092
    1UNL     H7   54   0.209  -0.275   0.230
    1UNL     H8   55   0.303  -0.476   0.135
    1UNL     H9   56   0.362  -0.430   0.302
    1UNL    H10   57   0.513  -0.380   0.064
    1UNL    H11   58   0.478  -0.142   0.203
    1UNL    H12   59   0.430  -0.097   0.428
    1UNL    H13   60   0.215  -0.013   0.286
    1UNL    H14   61   0.447   0.118   0.205
    1UNL    H15   62   0.232   0.090   0.079
    1UNL    H16   63   0.288   0.129  -0.132
    1UNL    H17   64   0.520  -0.163  -0.308
    1UNL    H18   65   0.708  -0.159  -0.164
    1UNL    H19   66   0.643  -0.042  -0.046
    1UNL    H20   67   0.456  -0.208  -0.053
    1UNL    H21   68   0.714   0.052  -0.275
    1UNL    H22   69   0.532   0.050  -0.492
    1UNL    H23   70   0.598   0.274  -0.312
    1UNL    H24   71   0.366   0.115  -0.364
    1UNL    H25   72   0.434   0.293  -0.122
    1UNL    H26   73   0.619   0.269  -0.021
    1UNL    H27   74  -0.048   0.304   0.124
    1UNL    H28   75  -0.495   0.369   0.187
    1UNL    H29   76  -0.598   0.353   0.039
    1UNL    H30   77  -0.712   0.225   0.221
    1UNL    H31   78  -0.563   0.137   0.250
    1UNL    H32   79  -0.627  -0.050  -0.221
    1UNL    H33   80  -0.900  -0.156  -0.213
    1UNL    H34   81  -1.106  -0.177  -0.085
    1UNL    H35   82  -1.105  -0.067   0.151
    1UNL    H36   83  -0.908   0.057   0.218
    1UNL    H37   84  -0.438   0.166  -0.161
    1UNL    H38   85  -0.356  -0.077  -0.103
    1UNL    H39   86  -0.378  -0.026   0.056
    1UNL    H40   87  -0.217   0.112  -0.158
   0.00000   0.00000   0.00000   0.00000   0.00000   0.00000   0.00000   0.00000   0.00000
Generated with MDTraj, t= 42.0
 87
    1UNL     C1    1   0.026   0.061  -0.250
    1UNL     C2    2  -0.018  -0.051  -0.197
    1UNL     C3    3  -0.101  -0.043  -0.077
    1UNL     C4    4  -0.018  -0.016   0.049
    1UNL     O1    5   0.071  -0.118   0.071
    1UNL     C5    6   0.201  -0.109   0.021
    1UNL     O2    7   0.284  -0.231   0.038
    1UNL     C6    8   0.274  -0.273   0.170
    1UNL     C7    9   0.337  -0.416   0.193
    1UNL     O3   10   0.472  -0.417   0.153
    1UNL     C8   11   0.364  -0.174   0.253
    1UNL     O4   12   0.384  -0.218   0.384
    1UNL     C9   13   0.309  -0.024   0.244
    1UNL     O5   14   0.398   0.069   0.304
    1UNL    C10   15   0.287  -0.002   0.096
    1UNL     O6   16   0.416   0.010   0.032
    1UNL    C11   17   0.404   0.063  -0.101
    1UNL     O7   18   0.421  -0.044  -0.201
    1UNL    C12   19   0.559  -0.054  -0.242
    1UNL    C13   20   0.635  -0.126  -0.129
    1UNL     O8   21   0.568  -0.243  -0.085
    1UNL    C14   22   0.622   0.083  -0.296
    1UNL     O9   23   0.662   0.069  -0.434
    1UNL    C15   24   0.511   0.187  -0.289
    1UNL    O10   25   0.409   0.152  -0.380
    1UNL    C16   26   0.476   0.201  -0.137
    1UNL    O11   27   0.597   0.214  -0.059
    1UNL    O12   28   0.039   0.110   0.051
    1UNL    C17   29  -0.057   0.207   0.050
    1UNL    C18   30  -0.189   0.177   0.019
    1UNL    C19   31  -0.294   0.276   0.039
    1UNL    O13   32  -0.268   0.387   0.082
    1UNL     N1   33  -0.427   0.228   0.025
    1UNL    C20   34  -0.529   0.288   0.103
    1UNL    C21   35  -0.613   0.183   0.186
    1UNL    C22   36  -0.668   0.087   0.082
    1UNL    C23   37  -0.594   0.051  -0.028
    1UNL     N2   38  -0.666  -0.037  -0.107
    1UNL    C24   39  -0.793  -0.053  -0.052
    1UNL    C25   40  -0.902  -0.130  -0.095
    1UNL    C26   41  -1.011  -0.145  -0.017
    1UNL    C27   42  -1.017  -0.066   0.108
    1UNL    C28   43  -0.907   0.006   0.152
    1UNL    C29   44  -0.788   0.011   0.074
    1UNL    C30   45  -0.460   0.115  -0.070
    1UNL    C31   46  -0.358   0.000  -0.055
    1UNL    C32   47  -0.221   0.056  -0.078
    1UNL     H1   48  -0.001   0.163  -0.213
    1UNL     H2   49   0.087   0.058  -0.341
    1UNL     H3   50   0.028  -0.147  -0.222
    1UNL     H4   51  -0.146  -0.140  -0.072
    1UNL     H5   52  -0.083  -0.032   0.139
    1UNL     H6   53   0.201  -0.094  -0.092
    1UNL     H7   54   0.165  -0.275   0.199
    1UNL     H8   55   0.273  -0.498   0.148
    1UNL     H9   56   0.347  -0.433   0.305
    1UNL    H10   57   0.483  -0.374   0.061
    1UNL    H11   58   0.455  -0.170   0.200
    1UNL    H12   59   0.437  -0.159   0.441
    1UNL    H13   60   0.215  -0.017   0.308
    1UNL    H14   61   0.441   0.116   0.225
    1UNL    H15   62   0.234   0.088   0.098
    1UNL    H16   63   0.295   0.093  -0.114
    1UNL    H17   64   0.550  -0.122  -0.333
    1UNL    H18   65   0.742  -0.147  -0.136
    1UNL    H19   66   0.625  -0.058  -0.043
    1UNL    H20   67   0.473  -0.225  -0.072
    1UNL    H21   68   0.714   0.107  -0.246
    1UNL    H22   69   0.583   0.093  -0.485
    1UNL    H23   70   0.565   0.273  -0.333
    1UNL    H24   71   0.371   0.067  -0.353
    1UNL    H25   72   0.399   0.277  -0.103
    1UNL    H26   73   0.625   0.310  -0.063
    1UNL    H27   74  -0.031   0.307   0.076
    1UNL    H28   75  -0.481   0.351   0.184
    1UNL    H29   76  -0.588   0.349   0.041
    1UNL    H30   77  -0.679   0.237   0.253
    1UNL    H31   78  -0.547   0.122   0.250
    1UNL    H32   79  -0.623  -0.056  -0.196
    1UNL    H33   80  -0.891  -0.180  -0.199
    1UNL    H34   81  -1.094  -0.209  -0.040
    1UNL    H35   82  -1.099  -0.077   0.180
    1UNL    H36   83  -0.897   0.052   0.248
    1UNL    H37   84  -0.471   0.148  -0.173
    1UNL    H38   85  -0.389  -0.067  -0.128
    1UNL    H39   86  -0.365  -0.059   0.038
    1UNL    H40   87  -0.238   0.105  -0.173
   0.00000   0.00000   0.00000   0.00000   0.00000   0.00000   0.00000   0.00000   0.00000
Generated with MDTraj, t= 43.0
 87
    1UNL     C1    1   0.059   0.087  -0.268
    1UNL     C2    2   0.002  -0.024  -0.225
    1UNL     C3    3  -0.096  -0.043  -0.105
    1UNL     C4    4  -0.006  -0.016   0.025
    1UNL     O1    5   0.069  -0.129   0.058
    1UNL     C5    6   0.202  -0.118   0.022
    1UNL     O2    7   0.280  -0.243   0.035
    1UNL     C6    8   0.291  -0.294   0.168
    1UNL     C7    9   0.359  -0.432   0.168
    1UNL     O3   10   0.494  -0.442   0.119
    1UNL     C8   11   0.363  -0.195   0.261
    1UNL     O4   12   0.353  -0.228   0.396
    1UNL     C9   13   0.306  -0.043   0.245
    1UNL     O5   14   0.408   0.044   0.297
    1UNL    C10   15   0.284  -0.009   0.101
    1UNL     O6   16   0.405   0.028   0.033
    1UNL    C11   17   0.383   0.068  -0.099
    1UNL     O7   18   0.404  -0.029  -0.207
    1UNL    C12   19   0.539  -0.057  -0.224
    1UNL    C13   20   0.606  -0.104  -0.098
    1UNL     O8   21   0.556  -0.223  -0.044
    1UNL    C14   22   0.622   0.070  -0.276
    1UNL     O9   23   0.675   0.047  -0.405
    1UNL    C15   24   0.531   0.193  -0.278
    1UNL    O10   25   0.433   0.194  -0.381
    1UNL    C16   26   0.458   0.204  -0.130
    1UNL    O11   27   0.554   0.234  -0.026
    1UNL    O12   28   0.047   0.118   0.019
    1UNL    C17   29  -0.058   0.209   0.019
    1UNL    C18   30  -0.189   0.180  -0.016
    1UNL    C19   31  -0.296   0.271   0.010
    1UNL    O13   32  -0.272   0.386   0.045
    1UNL     N1   33  -0.425   0.220   0.012
    1UNL    C20   34  -0.526   0.300   0.086
    1UNL    C21   35  -0.631   0.207   0.153
    1UNL    C22   36  -0.665   0.095   0.073
    1UNL    C23   37  -0.595   0.038  -0.028
    1UNL     N2   38  -0.677  -0.046  -0.096
    1UNL    C24   39  -0.794  -0.056  -0.030
    1UNL    C25   40  -0.903  -0.145  -0.060
    1UNL    C26   41  -1.006  -0.143   0.035
    1UNL    C27   42  -1.000  -0.064   0.158
    1UNL    C28   43  -0.899   0.029   0.177
    1UNL    C29   44  -0.789   0.027   0.087
    1UNL    C30   45  -0.464   0.092  -0.062
    1UNL    C31   46  -0.346  -0.010  -0.053
    1UNL    C32   47  -0.218   0.054  -0.095
    1UNL     H1   48   0.032   0.180  -0.237
    1UNL     H2   49   0.149   0.073  -0.324
    1UNL     H3   50   0.046  -0.115  -0.260
    1UNL     H4   51  -0.132  -0.142  -0.120
    1UNL     H5   52  -0.066  -0.019   0.117
    1UNL     H6   53   0.206  -0.093  -0.089
    1UNL     H7   54   0.187  -0.298   0.214
    1UNL     H8   55   0.304  -0.493   0.090
    1UNL     H9   56   0.347  -0.483   0.266
    1UNL    H10   57   0.492  -0.442   0.023
    1UNL    H11   58   0.464  -0.197   0.227
    1UNL    H12   59   0.404  -0.174   0.461
    1UNL    H13   60   0.219  -0.024   0.313
    1UNL    H14   61   0.451   0.092   0.225
    1UNL    H15   62   0.221   0.075   0.105
    1UNL    H16   63   0.274   0.084  -0.118
    1UNL    H17   64   0.550  -0.130  -0.308
    1UNL    H18   65   0.714  -0.114  -0.113
    1UNL    H19   66   0.604  -0.032  -0.014
    1UNL    H20   67   0.460  -0.213  -0.023
    1UNL    H21   68   0.701   0.092  -0.210
    1UNL    H22   69   0.605   0.085  -0.461
    1UNL    H23   70   0.577   0.294  -0.295
    1UNL    H24   71   0.389   0.104  -0.387
    1UNL    H25   72   0.381   0.285  -0.127
    1UNL    H26   73   0.614   0.294  -0.066
    1UNL    H27   74  -0.034   0.308   0.050
    1UNL    H28   75  -0.477   0.369   0.163
    1UNL    H29   76  -0.578   0.365   0.021
    1UNL    H30   77  -0.728   0.257   0.174
    1UNL    H31   78  -0.595   0.184   0.249
    1UNL    H32   79  -0.630  -0.102  -0.167
    1UNL    H33   80  -0.896  -0.211  -0.142
    1UNL    H34   81  -1.098  -0.200   0.014
    1UNL    H35   82  -1.061  -0.097   0.240
    1UNL    H36   83  -0.880   0.085   0.268
    1UNL    H37   84  -0.472   0.120  -0.166
    1UNL    H38   85  -0.348  -0.095  -0.112
    1UNL    H39   86  -0.341  -0.047   0.052
    1UNL    H40   87  -0.226   0.096  -0.193
   0.00000   0.00000   0.00000   0.00000   0.00000   0.00000   0.00000   0.00000   0.00000
Generated with MDTraj, t= 44.0
 87
    1UNL     C1    1   0.063   0.073  -0.284
    1UNL     C2    2  -0.001  -0.030  -0.234
    1UNL     C3    3  -0.094  -0.045  -0.123
    1UNL     C4    4  -0.020  -0.036   0.017
    1UNL     O1    5   0.065  -0.146   0.040
    1UNL     C5    6   0.197  -0.121   0.003
    1UNL     O2    7   0.270  -0.251   0.012
    1UNL     C6    8   0.275  -0.302   0.145
    1UNL     C7    9   0.323  -0.447   0.150
    1UNL     O3   10   0.465  -0.456   0.138
    1UNL     C8   11   0.363  -0.203   0.233
    1UNL     O4   12   0.381  -0.242   0.367
    1UNL     C9   13   0.300  -0.055   0.235
    1UNL     O5   14   0.398   0.024   0.294
    1UNL    C10   15   0.273  -0.009   0.093
    1UNL     O6   16   0.388   0.054   0.035
    1UNL    C11   17   0.371   0.094  -0.093
    1UNL     O7   18   0.408  -0.014  -0.189
    1UNL    C12   19   0.548  -0.040  -0.196
    1UNL    C13   20   0.598  -0.080  -0.056
    1UNL     O8   21   0.531  -0.200  -0.022
    1UNL    C14   22   0.626   0.083  -0.265
    1UNL     O9   23   0.660   0.041  -0.402
    1UNL    C15   24   0.537   0.210  -0.255
    1UNL    O10   25   0.446   0.209  -0.359
    1UNL    C16   26   0.464   0.221  -0.119
    1UNL    O11   27   0.544   0.251  -0.006
    1UNL    O12   28   0.033   0.089   0.034
    1UNL    C17   29  -0.065   0.189   0.031
    1UNL    C18   30  -0.181   0.172  -0.033
    1UNL    C19   31  -0.292   0.264  -0.010
    1UNL    O13   32  -0.260   0.363   0.054
    1UNL     N1   33  -0.422   0.226  -0.044
    1UNL    C20   34  -0.523   0.310   0.020
    1UNL    C21   35  -0.609   0.240   0.130
    1UNL    C22   36  -0.653   0.105   0.081
    1UNL    C23   37  -0.589   0.045  -0.028
    1UNL     N2   38  -0.654  -0.072  -0.067
    1UNL    C24   39  -0.772  -0.080   0.007
    1UNL    C25   40  -0.872  -0.176   0.015
    1UNL    C26   41  -0.985  -0.151   0.089
    1UNL    C27   42  -0.996  -0.032   0.168
    1UNL    C28   43  -0.888   0.055   0.173
    1UNL    C29   44  -0.771   0.026   0.102
    1UNL    C30   45  -0.456   0.099  -0.090
    1UNL    C31   46  -0.347  -0.011  -0.079
    1UNL    C32   47  -0.215   0.053  -0.117
    1UNL     H1   48   0.061   0.173  -0.244
    1UNL     H2   49   0.113   0.050  -0.384
    1UNL     H3   50   0.002  -0.123  -0.295
    1UNL     H4   51  -0.139  -0.141  -0.140
    1UNL     H5   52  -0.089  -0.049   0.099
    1UNL     H6   53   0.201  -0.073  -0.101
    1UNL     H7   54   0.168  -0.293   0.182
    1UNL     H8   55   0.271  -0.516   0.079
    1UNL     H9   56   0.317  -0.493   0.249
    1UNL    H10   57   0.491  -0.396   0.064
    1UNL    H11   58   0.455  -0.200   0.178
    1UNL    H12   59   0.443  -0.180   0.411
    1UNL    H13   60   0.209  -0.063   0.293
    1UNL    H14   61   0.458   0.068   0.224
    1UNL    H15   62   0.202   0.068   0.096
    1UNL    H16   63   0.273   0.136  -0.118
    1UNL    H17   64   0.555  -0.127  -0.261
    1UNL    H18   65   0.704  -0.108  -0.051
    1UNL    H19   66   0.587   0.002   0.019
    1UNL    H20   67   0.434  -0.192  -0.026
    1UNL    H21   68   0.722   0.097  -0.218
    1UNL    H22   69   0.586   0.077  -0.457
    1UNL    H23   70   0.597   0.303  -0.273
    1UNL    H24   71   0.384   0.137  -0.341
    1UNL    H25   72   0.402   0.310  -0.129
    1UNL    H26   73   0.618   0.307  -0.019
    1UNL    H27   74  -0.051   0.286   0.082
    1UNL    H28   75  -0.465   0.400   0.060
    1UNL    H29   76  -0.583   0.359  -0.053
    1UNL    H30   77  -0.689   0.306   0.174
    1UNL    H31   78  -0.552   0.219   0.213
    1UNL    H32   79  -0.653  -0.125  -0.155
    1UNL    H33   80  -0.873  -0.260  -0.047
    1UNL    H34   81  -1.071  -0.209   0.080
    1UNL    H35   82  -1.080  -0.000   0.228
    1UNL    H36   83  -0.895   0.142   0.238
    1UNL    H37   84  -0.474   0.120  -0.196
    1UNL    H38   85  -0.380  -0.100  -0.128
    1UNL    H39   86  -0.340  -0.038   0.028
    1UNL    H40   87  -0.225   0.096  -0.216
   0.00000   0.00000   0.00000   0.00000   0.00000   0.00000   0.00000   0.00000   0.00000
Generated with MDTraj, t= 45.0
 87
    1UNL     C1    1   0.054   0.058  -0.274
    1UNL     C2    2  -0.015  -0.052  -0.240
    1UNL     C3    3  -0.098  -0.055  -0.124
    1UNL     C4    4  -0.016  -0.041   0.010
    1UNL     O1    5   0.071  -0.149   0.032
    1UNL     C5    6   0.200  -0.121   0.003
    1UNL     O2    7   0.281  -0.242   0.006
    1UNL     C6    8   0.277  -0.299   0.137
    1UNL     C7    9   0.317  -0.446   0.143
    1UNL     O3   10   0.443  -0.475   0.093
    1UNL     C8   11   0.359  -0.205   0.233
    1UNL     O4   12   0.367  -0.268   0.360
    1UNL     C9   13   0.280  -0.069   0.240
    1UNL     O5   14   0.351   0.021   0.322
    1UNL    C10   15   0.266  -0.017   0.098
    1UNL     O6   16   0.384   0.042   0.052
    1UNL    C11   17   0.376   0.087  -0.079
    1UNL     O7   18   0.418  -0.008  -0.173
    1UNL    C12   19   0.556  -0.024  -0.199
    1UNL    C13   20   0.623  -0.064  -0.064
    1UNL     O8   21   0.572  -0.192  -0.035
    1UNL    C14   22   0.618   0.102  -0.256
    1UNL     O9   23   0.680   0.083  -0.383
    1UNL    C15   24   0.519   0.224  -0.246
    1UNL    O10   25   0.412   0.215  -0.337
    1UNL    C16   26   0.466   0.222  -0.104
    1UNL    O11   27   0.561   0.210  -0.001
    1UNL    O12   28   0.029   0.089   0.047
    1UNL    C17   29  -0.073   0.178   0.027
    1UNL    C18   30  -0.189   0.158  -0.036
    1UNL    C19   31  -0.296   0.256  -0.020
    1UNL    O13   32  -0.281   0.354   0.052
    1UNL     N1   33  -0.425   0.231  -0.076
    1UNL    C20   34  -0.536   0.333  -0.045
    1UNL    C21   35  -0.630   0.276   0.058
    1UNL    C22   36  -0.647   0.125   0.058
    1UNL    C23   37  -0.579   0.044  -0.025
    1UNL     N2   38  -0.632  -0.090  -0.027
    1UNL    C24   39  -0.747  -0.083   0.046
    1UNL    C25   40  -0.844  -0.183   0.080
    1UNL    C26   41  -0.955  -0.149   0.156
    1UNL    C27   42  -0.966  -0.020   0.197
    1UNL    C28   43  -0.870   0.078   0.179
    1UNL    C29   44  -0.756   0.042   0.106
    1UNL    C30   45  -0.473   0.090  -0.119
    1UNL    C31   46  -0.354  -0.007  -0.130
    1UNL    C32   47  -0.210   0.054  -0.139
    1UNL     H1   48   0.047   0.152  -0.225
    1UNL     H2   49   0.100   0.063  -0.365
    1UNL     H3   50  -0.011  -0.140  -0.298
    1UNL     H4   51  -0.154  -0.145  -0.126
    1UNL     H5   52  -0.085  -0.057   0.094
    1UNL     H6   53   0.194  -0.078  -0.103
    1UNL     H7   54   0.172  -0.285   0.175
    1UNL     H8   55   0.248  -0.515   0.094
    1UNL     H9   56   0.320  -0.475   0.247
    1UNL    H10   57   0.490  -0.391   0.059
    1UNL    H11   58   0.452  -0.184   0.179
    1UNL    H12   59   0.427  -0.215   0.415
    1UNL    H13   60   0.183  -0.086   0.281
    1UNL    H14   61   0.431   0.057   0.287
    1UNL    H15   62   0.196   0.062   0.107
    1UNL    H16   63   0.272   0.108  -0.103
    1UNL    H17   64   0.553  -0.106  -0.268
    1UNL    H18   65   0.733  -0.056  -0.071
    1UNL    H19   66   0.588  -0.001   0.020
    1UNL    H20   67   0.473  -0.202  -0.037
    1UNL    H21   68   0.706   0.117  -0.193
    1UNL    H22   69   0.607   0.087  -0.446
    1UNL    H23   70   0.581   0.312  -0.269
    1UNL    H24   71   0.374   0.122  -0.326
    1UNL    H25   72   0.401   0.306  -0.086
    1UNL    H26   73   0.619   0.290   0.001
    1UNL    H27   74  -0.059   0.279   0.067
    1UNL    H28   75  -0.492   0.437  -0.027
    1UNL    H29   76  -0.591   0.350  -0.136
    1UNL    H30   77  -0.735   0.312   0.043
    1UNL    H31   78  -0.604   0.308   0.151
    1UNL    H32   79  -0.606  -0.177  -0.078
    1UNL    H33   80  -0.853  -0.278   0.014
    1UNL    H34   81  -1.043  -0.220   0.156
    1UNL    H35   82  -1.057   0.005   0.250
    1UNL    H36   83  -0.883   0.178   0.211
    1UNL    H37   84  -0.524   0.097  -0.216
    1UNL    H38   85  -0.370  -0.065  -0.225
    1UNL    H39   86  -0.370  -0.078  -0.049
    1UNL    H40   87  -0.207   0.093  -0.239
   0.00000   0.00000   0.00000   0.00000   0.00000   0.00000   0.00000   0.00000   0.00000
Generated with MDTraj, t= 46.0
 87
    1UNL     C1    1   0.081   0.055  -0.259
    1UNL     C2    2  -0.001  -0.049  -0.247
    1UNL     C3    3  -0.101  -0.067  -0.135
    1UNL     C4    4  -0.026  -0.054  -0.001
    1UNL     O1    5   0.065  -0.154   0.034
    1UNL     C5    6   0.196  -0.130   0.004
    1UNL     O2    7   0.280  -0.252   0.004
    1UNL     C6    8   0.275  -0.313   0.135
    1UNL     C7    9   0.355  -0.447   0.121
    1UNL     O3   10   0.468  -0.442   0.040
    1UNL     C8   11   0.340  -0.223   0.243
    1UNL     O4   12   0.313  -0.281   0.371
    1UNL     C9   13   0.271  -0.082   0.246
    1UNL     O5   14   0.342   0.012   0.328
    1UNL    C10   15   0.264  -0.028   0.101
    1UNL     O6   16   0.398   0.014   0.069
    1UNL    C11   17   0.392   0.071  -0.057
    1UNL     O7   18   0.420  -0.008  -0.171
    1UNL    C12   19   0.558  -0.014  -0.204
    1UNL    C13   20   0.634  -0.082  -0.088
    1UNL     O8   21   0.554  -0.191  -0.040
    1UNL    C14   22   0.616   0.122  -0.253
    1UNL     O9   23   0.648   0.112  -0.395
    1UNL    C15   24   0.521   0.235  -0.211
    1UNL    O10   25   0.407   0.231  -0.303
    1UNL    C16   26   0.477   0.209  -0.067
    1UNL    O11   27   0.581   0.217   0.027
    1UNL    O12   28   0.018   0.083   0.038
    1UNL    C17   29  -0.078   0.181   0.019
    1UNL    C18   30  -0.201   0.159  -0.050
    1UNL    C19   31  -0.310   0.254  -0.037
    1UNL    O13   32  -0.305   0.353   0.032
    1UNL     N1   33  -0.432   0.227  -0.104
    1UNL    C20   34  -0.547   0.317  -0.099
    1UNL    C21   35  -0.659   0.284  -0.005
    1UNL    C22   36  -0.680   0.137  -0.000
    1UNL    C23   37  -0.590   0.046  -0.056
    1UNL     N2   38  -0.624  -0.083  -0.020
    1UNL    C24   39  -0.734  -0.079   0.068
    1UNL    C25   40  -0.801  -0.173   0.147
    1UNL    C26   41  -0.889  -0.132   0.241
    1UNL    C27   42  -0.922   0.001   0.252
    1UNL    C28   43  -0.873   0.100   0.170
    1UNL    C29   44  -0.770   0.059   0.083
    1UNL    C30   45  -0.468   0.083  -0.134
    1UNL    C31   46  -0.358  -0.011  -0.113
    1UNL    C32   47  -0.216   0.041  -0.142
    1UNL     H1   48   0.079   0.142  -0.184
    1UNL     H2   49   0.166   0.056  -0.326
    1UNL     H3   50   0.013  -0.131  -0.320
    1UNL     H4   51  -0.139  -0.166  -0.143
    1UNL     H5   52  -0.097  -0.077   0.082
    1UNL     H6   53   0.188  -0.102  -0.106
    1UNL     H7   54   0.173  -0.331   0.171
    1UNL     H8   55   0.280  -0.509   0.076
    1UNL     H9   56   0.381  -0.489   0.214
    1UNL    H10   57   0.485  -0.358  -0.002
    1UNL    H11   58   0.448  -0.228   0.213
    1UNL    H12   59   0.348  -0.229   0.447
    1UNL    H13   60   0.176  -0.093   0.292
    1UNL    H14   61   0.417   0.061   0.281
    1UNL    H15   62   0.206   0.060   0.113
    1UNL    H16   63   0.287   0.092  -0.073
    1UNL    H17   64   0.550  -0.073  -0.291
    1UNL    H18   65   0.732  -0.125  -0.112
    1UNL    H19   66   0.644  -0.007  -0.007
    1UNL    H20   67   0.460  -0.161  -0.034
    1UNL    H21   68   0.713   0.135  -0.200
    1UNL    H22   69   0.575   0.160  -0.442
    1UNL    H23   70   0.553   0.341  -0.210
    1UNL    H24   71   0.374   0.141  -0.303
    1UNL    H25   72   0.402   0.281  -0.038
    1UNL    H26   73   0.611   0.317   0.018
    1UNL    H27   74  -0.048   0.277   0.056
    1UNL    H28   75  -0.516   0.423  -0.075
    1UNL    H29   76  -0.582   0.327  -0.201
    1UNL    H30   77  -0.748   0.329  -0.053
    1UNL    H31   78  -0.649   0.322   0.095
    1UNL    H32   79  -0.579  -0.176  -0.038
    1UNL    H33   80  -0.787  -0.272   0.128
    1UNL    H34   81  -0.938  -0.201   0.301
    1UNL    H35   82  -0.976   0.024   0.343
    1UNL    H36   83  -0.895   0.204   0.198
    1UNL    H37   84  -0.484   0.084  -0.244
    1UNL    H38   85  -0.383  -0.115  -0.153
    1UNL    H39   86  -0.355  -0.023  -0.005
    1UNL    H40   87  -0.208   0.077  -0.243
   0.00000   0.00000   0.00000   0.00000   0.00000   0.00000   0.00000   0.00000   0.00000
Generated with MDTraj, t= 47.0
 87
    1UNL     C1    1   0.075   0.071  -0.250
    1UNL     C2    2   0.009  -0.045  -0.227
    1UNL     C3    3  -0.097  -0.076  -0.129
    1UNL     C4    4  -0.038  -0.061   0.008
    1UNL     O1    5   0.056  -0.161   0.038
    1UNL     C5    6   0.188  -0.135   0.008
    1UNL     O2    7   0.267  -0.249  -0.014
    1UNL     C6    8   0.263  -0.324   0.108
    1UNL     C7    9   0.340  -0.463   0.085
    1UNL     O3   10   0.477  -0.444   0.089
    1UNL     C8   11   0.330  -0.241   0.227
    1UNL     O4   12   0.316  -0.305   0.354
    1UNL     C9   13   0.265  -0.099   0.246
    1UNL     O5   14   0.338  -0.017   0.333
    1UNL    C10   15   0.252  -0.035   0.109
    1UNL     O6   16   0.380   0.019   0.068
    1UNL    C11   17   0.377   0.098  -0.053
    1UNL     O7   18   0.399   0.015  -0.171
    1UNL    C12   19   0.540  -0.012  -0.202
    1UNL    C13   20   0.613  -0.071  -0.084
    1UNL     O8   21   0.540  -0.178  -0.035
    1UNL    C14   22   0.604   0.132  -0.246
    1UNL     O9   23   0.607   0.145  -0.390
    1UNL    C15   24   0.533   0.252  -0.188
    1UNL    O10   25   0.434   0.298  -0.282
    1UNL    C16   26   0.484   0.220  -0.046
    1UNL    O11   27   0.588   0.173   0.034
    1UNL    O12   28   0.016   0.077   0.022
    1UNL    C17   29  -0.091   0.166   0.021
    1UNL    C18   30  -0.210   0.139  -0.044
    1UNL    C19   31  -0.312   0.246  -0.058
    1UNL    O13   32  -0.298   0.365  -0.031
    1UNL     N1   33  -0.437   0.202  -0.116
    1UNL    C20   34  -0.545   0.296  -0.138
    1UNL    C21   35  -0.670   0.273  -0.046
    1UNL    C22   36  -0.679   0.123  -0.026
    1UNL    C23   37  -0.596   0.024  -0.080
    1UNL     N2   38  -0.613  -0.092  -0.006
    1UNL    C24   39  -0.707  -0.067   0.094
    1UNL    C25   40  -0.760  -0.143   0.198
    1UNL    C26   41  -0.842  -0.086   0.282
    1UNL    C27   42  -0.883   0.043   0.275
    1UNL    C28   43  -0.842   0.117   0.173
    1UNL    C29   44  -0.744   0.067   0.084
    1UNL    C30   45  -0.462   0.054  -0.153
    1UNL    C31   46  -0.351  -0.044  -0.118
    1UNL    C32   47  -0.217   0.022  -0.133
    1UNL     H1   48   0.058   0.154  -0.190
    1UNL     H2   49   0.150   0.086  -0.322
    1UNL     H3   50   0.042  -0.128  -0.283
    1UNL     H4   51  -0.126  -0.177  -0.147
    1UNL     H5   52  -0.123  -0.078   0.081
    1UNL     H6   53   0.181  -0.082  -0.092
    1UNL     H7   54   0.165  -0.344   0.147
    1UNL     H8   55   0.306  -0.519  -0.002
    1UNL     H9   56   0.316  -0.526   0.166
    1UNL    H10   57   0.500  -0.363   0.030
    1UNL    H11   58   0.438  -0.224   0.196
    1UNL    H12   59   0.353  -0.237   0.416
    1UNL    H13   60   0.169  -0.107   0.287
    1UNL    H14   61   0.394   0.043   0.283
    1UNL    H15   62   0.193   0.055   0.115
    1UNL    H16   63   0.285   0.151  -0.069
    1UNL    H17   64   0.538  -0.075  -0.286
    1UNL    H18   65   0.712  -0.105  -0.112
    1UNL    H19   66   0.621  -0.004   0.003
    1UNL    H20   67   0.447  -0.149  -0.029
    1UNL    H21   68   0.712   0.125  -0.213
    1UNL    H22   69   0.603   0.242  -0.415
    1UNL    H23   70   0.599   0.336  -0.175
    1UNL    H24   71   0.370   0.222  -0.294
    1UNL    H25   72   0.446   0.308   0.009
    1UNL    H26   73   0.651   0.240   0.073
    1UNL    H27   74  -0.067   0.261   0.062
    1UNL    H28   75  -0.510   0.402  -0.121
    1UNL    H29   76  -0.581   0.294  -0.240
    1UNL    H30   77  -0.765   0.314  -0.079
    1UNL    H31   78  -0.636   0.317   0.052
    1UNL    H32   79  -0.561  -0.182  -0.025
    1UNL    H33   80  -0.724  -0.245   0.208
    1UNL    H34   81  -0.869  -0.150   0.369
    1UNL    H35   82  -0.933   0.091   0.358
    1UNL    H36   83  -0.853   0.221   0.176
    1UNL    H37   84  -0.484   0.049  -0.263
    1UNL    H38   85  -0.362  -0.139  -0.188
    1UNL    H39   86  -0.361  -0.083  -0.019
    1UNL    H40   87  -0.218   0.068  -0.232
   0.00000   0.00000   0.00000   0.00000   0.00000   0.00000   0.00000   0.00000   0.00000
Generated with MDTraj, t= 48.0
 87
    1UNL     C1    1   0.073   0.066  -0.285
    1UNL     C2    2   0.022  -0.047  -0.237
    1UNL     C3    3  -0.086  -0.077  -0.146
    1UNL     C4    4  -0.049  -0.074   0.002
    1UNL     O1    5   0.056  -0.163   0.038
    1UNL     C5    6   0.189  -0.131   0.002
    1UNL     O2    7   0.268  -0.246  -0.016
    1UNL     C6    8   0.268  -0.318   0.106
    1UNL     C7    9   0.338  -0.450   0.088
    1UNL     O3   10   0.472  -0.447   0.082
    1UNL     C8   11   0.333  -0.241   0.215
    1UNL     O4   12   0.329  -0.318   0.331
    1UNL     C9   13   0.261  -0.103   0.247
    1UNL     O5   14   0.339  -0.037   0.347
    1UNL    C10   15   0.250  -0.030   0.112
    1UNL     O6   16   0.382   0.028   0.087
    1UNL    C11   17   0.370   0.115  -0.022
    1UNL     O7   18   0.367   0.047  -0.146
    1UNL    C12   19   0.503   0.008  -0.190
    1UNL    C13   20   0.585  -0.080  -0.095
    1UNL     O8   21   0.550  -0.217  -0.095
    1UNL    C14   22   0.590   0.135  -0.235
    1UNL     O9   23   0.571   0.160  -0.377
    1UNL    C15   24   0.543   0.258  -0.156
    1UNL    O10   25   0.437   0.311  -0.238
    1UNL    C16   26   0.483   0.230  -0.009
    1UNL    O11   27   0.587   0.180   0.077
    1UNL    O12   28  -0.024   0.060   0.049
    1UNL    C17   29  -0.121   0.152   0.010
    1UNL    C18   30  -0.206   0.137  -0.092
    1UNL    C19   31  -0.318   0.234  -0.109
    1UNL    O13   32  -0.305   0.350  -0.068
    1UNL     N1   33  -0.438   0.181  -0.171
    1UNL    C20   34  -0.548   0.275  -0.191
    1UNL    C21   35  -0.659   0.261  -0.082
    1UNL    C22   36  -0.647   0.130  -0.007
    1UNL    C23   37  -0.565   0.023  -0.045
    1UNL     N2   38  -0.590  -0.090   0.030
    1UNL    C24   39  -0.685  -0.050   0.123
    1UNL    C25   40  -0.739  -0.129   0.227
    1UNL    C26   41  -0.827  -0.063   0.312
    1UNL    C27   42  -0.863   0.071   0.297
    1UNL    C28   43  -0.813   0.144   0.197
    1UNL    C29   44  -0.716   0.089   0.111
    1UNL    C30   45  -0.473   0.038  -0.160
    1UNL    C31   46  -0.344  -0.056  -0.151
    1UNL    C32   47  -0.210   0.013  -0.177
    1UNL     H1   48   0.040   0.160  -0.249
    1UNL     H2   49   0.150   0.067  -0.369
    1UNL     H3   50   0.074  -0.138  -0.272
    1UNL     H4   51  -0.108  -0.181  -0.168
    1UNL     H5   52  -0.137  -0.120   0.054
    1UNL     H6   53   0.178  -0.082  -0.099
    1UNL     H7   54   0.170  -0.339   0.139
    1UNL     H8   55   0.293  -0.502   0.001
    1UNL     H9   56   0.320  -0.517   0.169
    1UNL    H10   57   0.493  -0.395   0.003
    1UNL    H11   58   0.440  -0.223   0.176
    1UNL    H12   59   0.407  -0.286   0.382
    1UNL    H13   60   0.168  -0.123   0.287
    1UNL    H14   61   0.407   0.017   0.295
    1UNL    H15   62   0.188   0.059   0.120
    1UNL    H16   63   0.274   0.169  -0.028
    1UNL    H17   64   0.479  -0.057  -0.271
    1UNL    H18   65   0.688  -0.083  -0.130
    1UNL    H19   66   0.572  -0.044   0.008
    1UNL    H20   67   0.453  -0.225  -0.070
    1UNL    H21   68   0.698   0.107  -0.219
    1UNL    H22   69   0.534   0.250  -0.387
    1UNL    H23   70   0.624   0.328  -0.167
    1UNL    H24   71   0.368   0.241  -0.228
    1UNL    H25   72   0.439   0.323   0.032
    1UNL    H26   73   0.640   0.250   0.111
    1UNL    H27   74  -0.119   0.242   0.071
    1UNL    H28   75  -0.509   0.381  -0.201
    1UNL    H29   76  -0.591   0.259  -0.291
    1UNL    H30   77  -0.755   0.273  -0.128
    1UNL    H31   78  -0.648   0.342   0.000
    1UNL    H32   79  -0.530  -0.177   0.023
    1UNL    H33   80  -0.716  -0.241   0.237
    1UNL    H34   81  -0.890  -0.115   0.382
    1UNL    H35   82  -0.935   0.104   0.371
    1UNL    H36   83  -0.851   0.247   0.188
    1UNL    H37   84  -0.534   0.015  -0.250
    1UNL    H38   85  -0.355  -0.160  -0.205
    1UNL    H39   86  -0.348  -0.087  -0.048
    1UNL    H40   87  -0.213   0.033  -0.286
   0.00000   0.00000   0.00000   0.00000   0.00000   0.00000   0.00000   0.00000   0.00000
Generated with MDTraj, t= 49.0
 87
    1UNL     C1    1   0.072   0.066  -0.268
    1UNL     C2    2   0.007  -0.051  -0.273
    1UNL     C3    3  -0.093  -0.094  -0.164
    1UNL     C4    4  -0.042  -0.060  -0.014
    1UNL     O1    5   0.051  -0.163   0.028
    1UNL     C5    6   0.188  -0.129   0.017
    1UNL     O2    7   0.275  -0.242  -0.004
    1UNL     C6    8   0.274  -0.324   0.118
    1UNL     C7    9   0.348  -0.463   0.086
    1UNL     O3   10   0.475  -0.438   0.028
    1UNL     C8   11   0.339  -0.244   0.235
    1UNL     O4   12   0.339  -0.326   0.350
    1UNL     C9   13   0.254  -0.119   0.263
    1UNL     O5   14   0.311  -0.040   0.369
    1UNL    C10   15   0.237  -0.038   0.133
    1UNL     O6   16   0.360   0.023   0.107
    1UNL    C11   17   0.361   0.113  -0.005
    1UNL     O7   18   0.352   0.042  -0.133
    1UNL    C12   19   0.487   0.023  -0.191
    1UNL    C13   20   0.565  -0.085  -0.115
    1UNL     O8   21   0.500  -0.208  -0.123
    1UNL    C14   22   0.569   0.160  -0.211
    1UNL     O9   23   0.577   0.200  -0.347
    1UNL    C15   24   0.511   0.271  -0.129
    1UNL    O10   25   0.397   0.343  -0.187
    1UNL    C16   26   0.475   0.213   0.010
    1UNL    O11   27   0.585   0.140   0.054
    1UNL    O12   28  -0.005   0.080   0.011
    1UNL    C17   29  -0.106   0.161  -0.040
    1UNL    C18   30  -0.204   0.129  -0.127
    1UNL    C19   31  -0.319   0.215  -0.141
    1UNL    O13   32  -0.316   0.332  -0.107
    1UNL     N1   33  -0.434   0.154  -0.201
    1UNL    C20   34  -0.549   0.239  -0.212
    1UNL    C21   35  -0.606   0.262  -0.066
    1UNL    C22   36  -0.609   0.131   0.009
    1UNL    C23   37  -0.537   0.020  -0.030
    1UNL     N2   38  -0.568  -0.083   0.053
    1UNL    C24   39  -0.664  -0.044   0.146
    1UNL    C25   40  -0.708  -0.102   0.269
    1UNL    C26   41  -0.803  -0.028   0.338
    1UNL    C27   42  -0.843   0.101   0.294
    1UNL    C28   43  -0.790   0.167   0.185
    1UNL    C29   44  -0.691   0.092   0.115
    1UNL    C30   45  -0.476   0.011  -0.171
    1UNL    C31   46  -0.345  -0.081  -0.174
    1UNL    C32   47  -0.219  -0.009  -0.193
    1UNL     H1   48   0.052   0.139  -0.196
    1UNL     H2   49   0.147   0.087  -0.339
    1UNL     H3   50   0.025  -0.107  -0.362
    1UNL     H4   51  -0.103  -0.202  -0.176
    1UNL     H5   52  -0.126  -0.078   0.055
    1UNL     H6   53   0.180  -0.083  -0.087
    1UNL     H7   54   0.173  -0.339   0.148
    1UNL     H8   55   0.286  -0.533   0.022
    1UNL     H9   56   0.362  -0.515   0.178
    1UNL    H10   57   0.459  -0.361  -0.036
    1UNL    H11   58   0.444  -0.220   0.196
    1UNL    H12   59   0.404  -0.294   0.416
    1UNL    H13   60   0.165  -0.149   0.306
    1UNL    H14   61   0.397  -0.008   0.343
    1UNL    H15   62   0.171   0.046   0.160
    1UNL    H16   63   0.259   0.157   0.000
    1UNL    H17   64   0.473  -0.013  -0.294
    1UNL    H18   65   0.665  -0.098  -0.156
    1UNL    H19   66   0.560  -0.059  -0.008
    1UNL    H20   67   0.406  -0.187  -0.130
    1UNL    H21   68   0.677   0.149  -0.182
    1UNL    H22   69   0.495   0.252  -0.358
    1UNL    H23   70   0.592   0.344  -0.124
    1UNL    H24   71   0.352   0.279  -0.242
    1UNL    H25   72   0.441   0.280   0.094
    1UNL    H26   73   0.643   0.195   0.104
    1UNL    H27   74  -0.098   0.265  -0.007
    1UNL    H28   75  -0.525   0.332  -0.270
    1UNL    H29   76  -0.624   0.192  -0.280
    1UNL    H30   77  -0.703   0.305  -0.061
    1UNL    H31   78  -0.535   0.341  -0.015
    1UNL    H32   79  -0.554  -0.186   0.036
    1UNL    H33   80  -0.694  -0.196   0.300
    1UNL    H34   81  -0.864  -0.070   0.416
    1UNL    H35   82  -0.922   0.154   0.345
    1UNL    H36   83  -0.831   0.261   0.153
    1UNL    H37   84  -0.547  -0.011  -0.253
    1UNL    H38   85  -0.357  -0.174  -0.242
    1UNL    H39   86  -0.331  -0.124  -0.073
    1UNL    H40   87  -0.213  -0.004  -0.304
   0.00000   0.00000   0.00000   0.00000   0.00000   0.00000   0.00000   0.00000   0.00000
Generated with MDTraj, t= 50.0
 87
    1UNL     C1    1   0.114   0.013  -0.286
    1UNL     C2    2   0.041  -0.097  -0.265
    1UNL     C3    3  -0.071  -0.101  -0.172
    1UNL     C4    4  -0.039  -0.060  -0.027
    1UNL     O1    5   0.040  -0.162   0.026
    1UNL     C5    6   0.173  -0.141   0.011
    1UNL     O2    7   0.245  -0.262  -0.001
    1UNL     C6    8   0.255  -0.342   0.119
    1UNL     C7    9   0.337  -0.463   0.078
    1UNL     O3   10   0.465  -0.420   0.063
    1UNL     C8   11   0.320  -0.263   0.234
    1UNL     O4   12   0.346  -0.334   0.353
    1UNL     C9   13   0.236  -0.139   0.261
    1UNL     O5   14   0.287  -0.056   0.371
    1UNL    C10   15   0.232  -0.055   0.131
    1UNL     O6   16   0.362  -0.005   0.100
    1UNL    C11   17   0.361   0.107   0.008
    1UNL     O7   18   0.346   0.068  -0.130
    1UNL    C12   19   0.469   0.053  -0.201
    1UNL    C13   20   0.538  -0.067  -0.147
    1UNL     O8   21   0.468  -0.185  -0.168
    1UNL    C14   22   0.544   0.196  -0.202
    1UNL     O9   23   0.548   0.247  -0.336
    1UNL    C15   24   0.492   0.290  -0.096
    1UNL    O10   25   0.369   0.353  -0.135
    1UNL    C16   26   0.472   0.210   0.042
    1UNL    O11   27   0.606   0.158   0.076
    1UNL    O12   28   0.003   0.070  -0.015
    1UNL    C17   29  -0.077   0.163  -0.078
    1UNL    C18   30  -0.190   0.122  -0.152
    1UNL    C19   31  -0.304   0.209  -0.177
    1UNL    O13   32  -0.301   0.332  -0.163
    1UNL     N1   33  -0.428   0.140  -0.205
    1UNL    C20   34  -0.551   0.223  -0.224
    1UNL    C21   35  -0.626   0.244  -0.090
    1UNL    C22   36  -0.615   0.127  -0.005
    1UNL    C23   37  -0.543   0.015  -0.033
    1UNL     N2   38  -0.571  -0.087   0.060
    1UNL    C24   39  -0.644  -0.033   0.163
    1UNL    C25   40  -0.698  -0.086   0.278
    1UNL    C26   41  -0.779  -0.003   0.354
    1UNL    C27   42  -0.806   0.133   0.331
    1UNL    C28   43  -0.746   0.190   0.218
    1UNL    C29   44  -0.666   0.105   0.129
    1UNL    C30   45  -0.460   0.003  -0.164
    1UNL    C31   46  -0.327  -0.084  -0.143
    1UNL    C32   47  -0.202  -0.021  -0.208
    1UNL     H1   48   0.088   0.116  -0.248
    1UNL     H2   49   0.200   0.007  -0.348
    1UNL     H3   50   0.074  -0.187  -0.317
    1UNL     H4   51  -0.098  -0.207  -0.167
    1UNL     H5   52  -0.130  -0.064   0.032
    1UNL     H6   53   0.178  -0.091  -0.090
    1UNL     H7   54   0.154  -0.361   0.149
    1UNL     H8   55   0.286  -0.509  -0.015
    1UNL     H9   56   0.332  -0.531   0.162
    1UNL    H10   57   0.471  -0.363  -0.017
    1UNL    H11   58   0.417  -0.227   0.188
    1UNL    H12   59   0.309  -0.294   0.434
    1UNL    H13   60   0.140  -0.165   0.288
    1UNL    H14   61   0.384  -0.035   0.356
    1UNL    H15   62   0.173   0.040   0.143
    1UNL    H16   63   0.262   0.156   0.031
    1UNL    H17   64   0.448   0.033  -0.310
    1UNL    H18   65   0.626  -0.085  -0.211
    1UNL    H19   66   0.561  -0.050  -0.040
    1UNL    H20   67   0.379  -0.181  -0.123
    1UNL    H21   68   0.651   0.181  -0.179
    1UNL    H22   69   0.453   0.271  -0.355
    1UNL    H23   70   0.557   0.379  -0.088
    1UNL    H24   71   0.304   0.275  -0.142
    1UNL    H25   72   0.446   0.280   0.125
    1UNL    H26   73   0.659   0.233   0.111
    1UNL    H27   74  -0.055   0.266  -0.053
    1UNL    H28   75  -0.521   0.324  -0.257
    1UNL    H29   76  -0.615   0.191  -0.312
    1UNL    H30   77  -0.727   0.277  -0.107
    1UNL    H31   78  -0.577   0.333  -0.034
    1UNL    H32   79  -0.532  -0.183   0.057
    1UNL    H33   80  -0.686  -0.196   0.298
    1UNL    H34   81  -0.809  -0.059   0.445
    1UNL    H35   82  -0.858   0.194   0.403
    1UNL    H36   83  -0.752   0.294   0.194
    1UNL    H37   84  -0.534  -0.050  -0.226
    1UNL    H38   85  -0.341  -0.191  -0.180
    1UNL    H39   86  -0.319  -0.083  -0.028
    1UNL    H40   87  -0.218  -0.018  -0.318
   0.00000   0.00000   0.00000   0.00000   0.00000   0.00000   0.00000   0.00000   0.00000
Generated with MDTraj, t= 51.0
 87
    1UNL     C1    1   0.083  -0.048  -0.311
    1UNL     C2    2   0.005  -0.145  -0.263
    1UNL     C3    3  -0.098  -0.129  -0.156
    1UNL     C4    4  -0.037  -0.069  -0.017
    1UNL     O1    5   0.050  -0.177   0.028
    1UNL     C5    6   0.180  -0.142   0.019
    1UNL     O2    7   0.270  -0.246  -0.002
    1UNL     C6    8   0.274  -0.335   0.110
    1UNL     C7    9   0.362  -0.460   0.066
    1UNL     O3   10   0.495  -0.433   0.025
    1UNL     C8   11   0.316  -0.272   0.245
    1UNL     O4   12   0.289  -0.364   0.355
    1UNL     C9   13   0.236  -0.145   0.273
    1UNL     O5   14   0.308  -0.066   0.367
    1UNL    C10   15   0.229  -0.058   0.147
    1UNL     O6   16   0.346   0.020   0.120
    1UNL    C11   17   0.339   0.124   0.021
    1UNL     O7   18   0.319   0.091  -0.111
    1UNL    C12   19   0.442   0.072  -0.195
    1UNL    C13   20   0.535  -0.035  -0.135
    1UNL     O8   21   0.488  -0.161  -0.165
    1UNL    C14   22   0.517   0.206  -0.203
    1UNL     O9   23   0.477   0.267  -0.323
    1UNL    C15   24   0.498   0.296  -0.083
    1UNL    O10   25   0.383   0.377  -0.105
    1UNL    C16   26   0.465   0.211   0.046
    1UNL    O11   27   0.575   0.128   0.092
    1UNL    O12   28   0.015   0.062  -0.037
    1UNL    C17   29  -0.078   0.144  -0.093
    1UNL    C18   30  -0.197   0.098  -0.147
    1UNL    C19   31  -0.296   0.191  -0.200
    1UNL    O13   32  -0.267   0.307  -0.225
    1UNL     N1   33  -0.429   0.147  -0.208
    1UNL    C20   34  -0.530   0.247  -0.221
    1UNL    C21   35  -0.600   0.267  -0.082
    1UNL    C22   36  -0.622   0.137  -0.015
    1UNL    C23   37  -0.564   0.015  -0.055
    1UNL     N2   38  -0.559  -0.074   0.050
    1UNL    C24   39  -0.622  -0.014   0.157
    1UNL    C25   40  -0.653  -0.065   0.280
    1UNL    C26   41  -0.723   0.010   0.374
    1UNL    C27   42  -0.759   0.143   0.339
    1UNL    C28   43  -0.730   0.195   0.211
    1UNL    C29   44  -0.666   0.115   0.119
    1UNL    C30   45  -0.474  -0.001  -0.179
    1UNL    C31   46  -0.354  -0.098  -0.144
    1UNL    C32   47  -0.219  -0.040  -0.191
    1UNL     H1   48   0.086   0.053  -0.273
    1UNL     H2   49   0.146  -0.069  -0.391
    1UNL     H3   50   0.006  -0.239  -0.317
    1UNL     H4   51  -0.135  -0.231  -0.134
    1UNL     H5   52  -0.107  -0.056   0.064
    1UNL     H6   53   0.188  -0.067  -0.065
    1UNL     H7   54   0.168  -0.360   0.128
    1UNL     H8   55   0.303  -0.497  -0.026
    1UNL     H9   56   0.355  -0.540   0.139
    1UNL    H10   57   0.501  -0.367  -0.041
    1UNL    H11   58   0.422  -0.244   0.248
    1UNL    H12   59   0.242  -0.323   0.431
    1UNL    H13   60   0.144  -0.175   0.306
    1UNL    H14   61   0.369  -0.003   0.320
    1UNL    H15   62   0.157   0.030   0.158
    1UNL    H16   63   0.253   0.186   0.059
    1UNL    H17   64   0.411   0.034  -0.298
    1UNL    H18   65   0.640  -0.024  -0.166
    1UNL    H19   66   0.526  -0.030  -0.025
    1UNL    H20   67   0.409  -0.185  -0.114
    1UNL    H21   68   0.623   0.184  -0.215
    1UNL    H22   69   0.466   0.362  -0.308
    1UNL    H23   70   0.584   0.369  -0.070
    1UNL    H24   71   0.305   0.315  -0.114
    1UNL    H25   72   0.455   0.278   0.133
    1UNL    H26   73   0.662   0.180   0.115
    1UNL    H27   74  -0.051   0.247  -0.102
    1UNL    H28   75  -0.492   0.337  -0.267
    1UNL    H29   76  -0.606   0.215  -0.300
    1UNL    H30   77  -0.693   0.325  -0.088
    1UNL    H31   78  -0.534   0.335  -0.021
    1UNL    H32   79  -0.515  -0.165   0.059
    1UNL    H33   80  -0.604  -0.163   0.307
    1UNL    H34   81  -0.738  -0.029   0.472
    1UNL    H35   82  -0.776   0.210   0.422
    1UNL    H36   83  -0.727   0.303   0.185
    1UNL    H37   84  -0.518  -0.040  -0.272
    1UNL    H38   85  -0.370  -0.202  -0.187
    1UNL    H39   86  -0.341  -0.101  -0.027
    1UNL    H40   87  -0.222  -0.026  -0.302
   0.00000   0.00000   0.00000   0.00000   0.00000   0.00000   0.00000   0.00000   0.00000
Generated with MDTraj, t= 52.0
 87
    1UNL     C1    1   0.076  -0.116  -0.319
    1UNL     C2    2  -0.011  -0.198  -0.261
    1UNL     C3    3  -0.119  -0.161  -0.163
    1UNL     C4    4  -0.060  -0.100  -0.026
    1UNL     O1    5   0.044  -0.184   0.024
    1UNL     C5    6   0.176  -0.132   0.014
    1UNL     O2    7   0.272  -0.232  -0.011
    1UNL     C6    8   0.264  -0.340   0.084
    1UNL     C7    9   0.368  -0.452   0.053
    1UNL     O3   10   0.492  -0.394   0.047
    1UNL     C8   11   0.316  -0.280   0.221
    1UNL     O4   12   0.307  -0.380   0.325
    1UNL     C9   13   0.237  -0.152   0.265
    1UNL     O5   14   0.311  -0.089   0.379
    1UNL    C10   15   0.229  -0.054   0.143
    1UNL     O6   16   0.353   0.007   0.134
    1UNL    C11   17   0.344   0.126   0.055
    1UNL     O7   18   0.327   0.081  -0.079
    1UNL    C12   19   0.442   0.080  -0.168
    1UNL    C13   20   0.545  -0.021  -0.123
    1UNL     O8   21   0.497  -0.152  -0.143
    1UNL    C14   22   0.489   0.222  -0.190
    1UNL     O9   23   0.421   0.274  -0.308
    1UNL    C15   24   0.479   0.313  -0.065
    1UNL    O10   25   0.366   0.403  -0.081
    1UNL    C16   26   0.470   0.226   0.058
    1UNL    O11   27   0.599   0.170   0.081
    1UNL    O12   28  -0.009   0.031  -0.044
    1UNL    C17   29  -0.089   0.110  -0.114
    1UNL    C18   30  -0.195   0.071  -0.184
    1UNL    C19   31  -0.290   0.175  -0.220
    1UNL    O13   32  -0.259   0.292  -0.213
    1UNL     N1   33  -0.425   0.145  -0.223
    1UNL    C20   34  -0.518   0.253  -0.217
    1UNL    C21   35  -0.588   0.280  -0.088
    1UNL    C22   36  -0.608   0.149  -0.017
    1UNL    C23   37  -0.543   0.033  -0.051
    1UNL     N2   38  -0.551  -0.063   0.051
    1UNL    C24   39  -0.629   0.002   0.151
    1UNL    C25   40  -0.651  -0.058   0.281
    1UNL    C26   41  -0.692   0.032   0.382
    1UNL    C27   42  -0.713   0.174   0.351
    1UNL    C28   43  -0.701   0.222   0.222
    1UNL    C29   44  -0.653   0.135   0.117
    1UNL    C30   45  -0.475   0.011  -0.176
    1UNL    C31   46  -0.377  -0.101  -0.173
    1UNL    C32   47  -0.229  -0.069  -0.221
    1UNL     H1   48   0.075  -0.011  -0.313
    1UNL     H2   49   0.158  -0.167  -0.375
    1UNL     H3   50   0.011  -0.302  -0.270
    1UNL     H4   51  -0.172  -0.255  -0.137
    1UNL     H5   52  -0.129  -0.087   0.059
    1UNL     H6   53   0.182  -0.065  -0.075
    1UNL     H7   54   0.160  -0.382   0.090
    1UNL     H8   55   0.350  -0.518  -0.039
    1UNL     H9   56   0.372  -0.527   0.132
    1UNL    H10   57   0.492  -0.328  -0.032
    1UNL    H11   58   0.421  -0.254   0.212
    1UNL    H12   59   0.274  -0.336   0.407
    1UNL    H13   60   0.143  -0.180   0.296
    1UNL    H14   61   0.344  -0.002   0.352
    1UNL    H15   62   0.158   0.027   0.172
    1UNL    H16   63   0.248   0.166   0.090
    1UNL    H17   64   0.399   0.037  -0.266
    1UNL    H18   65   0.637  -0.018  -0.184
    1UNL    H19   66   0.574  -0.008  -0.018
    1UNL    H20   67   0.405  -0.163  -0.110
    1UNL    H21   68   0.590   0.222  -0.225
    1UNL    H22   69   0.407   0.372  -0.302
    1UNL    H23   70   0.562   0.390  -0.068
    1UNL    H24   71   0.290   0.353  -0.112
    1UNL    H25   72   0.457   0.288   0.147
    1UNL    H26   73   0.672   0.237   0.049
    1UNL    H27   74  -0.060   0.215  -0.110
    1UNL    H28   75  -0.478   0.342  -0.261
    1UNL    H29   76  -0.601   0.230  -0.292
    1UNL    H30   77  -0.689   0.331  -0.103
    1UNL    H31   78  -0.536   0.350  -0.022
    1UNL    H32   79  -0.535  -0.161   0.048
    1UNL    H33   80  -0.636  -0.156   0.295
    1UNL    H34   81  -0.721  -0.002   0.483
    1UNL    H35   82  -0.749   0.254   0.415
    1UNL    H36   83  -0.708   0.324   0.201
    1UNL    H37   84  -0.551  -0.013  -0.251
    1UNL    H38   85  -0.415  -0.195  -0.226
    1UNL    H39   86  -0.366  -0.125  -0.058
    1UNL    H40   87  -0.230  -0.077  -0.333
   0.00000   0.00000   0.00000   0.00000   0.00000   0.00000   0.00000   0.00000   0.00000
Generated with MDTraj, t= 53.0
 87
    1UNL     C1    1   0.055  -0.153  -0.299
    1UNL     C2    2  -0.031  -0.221  -0.229
    1UNL     C3    3  -0.120  -0.147  -0.137
    1UNL     C4    4  -0.035  -0.082  -0.025
    1UNL     O1    5   0.050  -0.185   0.031
    1UNL     C5    6   0.180  -0.139   0.018
    1UNL     O2    7   0.279  -0.235  -0.020
    1UNL     C6    8   0.292  -0.336   0.084
    1UNL     C7    9   0.389  -0.445   0.042
    1UNL     O3   10   0.516  -0.396   0.026
    1UNL     C8   11   0.339  -0.277   0.219
    1UNL     O4   12   0.346  -0.386   0.307
    1UNL     C9   13   0.231  -0.177   0.259
    1UNL     O5   14   0.260  -0.121   0.386
    1UNL    C10   15   0.227  -0.067   0.146
    1UNL     O6   16   0.347  -0.010   0.127
    1UNL    C11   17   0.329   0.098   0.035
    1UNL     O7   18   0.318   0.068  -0.108
    1UNL    C12   19   0.440   0.090  -0.183
    1UNL    C13   20   0.546  -0.001  -0.125
    1UNL     O8   21   0.513  -0.139  -0.128
    1UNL    C14   22   0.476   0.239  -0.184
    1UNL     O9   23   0.402   0.303  -0.284
    1UNL    C15   24   0.437   0.313  -0.048
    1UNL    O10   25   0.313   0.389  -0.060
    1UNL    C16   26   0.429   0.211   0.067
    1UNL    O11   27   0.549   0.154   0.103
    1UNL    O12   28   0.017   0.046  -0.075
    1UNL    C17   29  -0.084   0.124  -0.123
    1UNL    C18   30  -0.202   0.088  -0.170
    1UNL    C19   31  -0.303   0.180  -0.218
    1UNL    O13   32  -0.285   0.301  -0.222
    1UNL     N1   33  -0.428   0.126  -0.235
    1UNL    C20   34  -0.536   0.223  -0.245
    1UNL    C21   35  -0.555   0.275  -0.100
    1UNL    C22   36  -0.541   0.160  -0.000
    1UNL    C23   37  -0.530   0.025  -0.045
    1UNL     N2   38  -0.575  -0.066   0.054
    1UNL    C24   39  -0.617   0.014   0.157
    1UNL    C25   40  -0.658  -0.027   0.279
    1UNL    C26   41  -0.698   0.067   0.372
    1UNL    C27   42  -0.688   0.208   0.334
    1UNL    C28   43  -0.642   0.243   0.213
    1UNL    C29   44  -0.597   0.148   0.130
    1UNL    C30   45  -0.477  -0.004  -0.182
    1UNL    C31   46  -0.371  -0.109  -0.172
    1UNL    C32   47  -0.223  -0.056  -0.203
    1UNL     H1   48   0.060  -0.049  -0.288
    1UNL     H2   49   0.129  -0.211  -0.356
    1UNL     H3   50  -0.023  -0.331  -0.224
    1UNL     H4   51  -0.188  -0.221  -0.089
    1UNL     H5   52  -0.094  -0.041   0.061
    1UNL     H6   53   0.178  -0.083  -0.077
    1UNL     H7   54   0.192  -0.393   0.090
    1UNL     H8   55   0.361  -0.494  -0.056
    1UNL     H9   56   0.399  -0.532   0.103
    1UNL    H10   57   0.512  -0.320  -0.036
    1UNL    H11   58   0.435  -0.234   0.207
    1UNL    H12   59   0.305  -0.363   0.394
    1UNL    H13   60   0.137  -0.220   0.262
    1UNL    H14   61   0.294  -0.027   0.366
    1UNL    H15   62   0.153   0.004   0.184
    1UNL    H16   63   0.224   0.119   0.051
    1UNL    H17   64   0.419   0.055  -0.291
    1UNL    H18   65   0.645   0.008  -0.175
    1UNL    H19   66   0.573   0.015  -0.019
    1UNL    H20   67   0.429  -0.152  -0.082
    1UNL    H21   68   0.582   0.260  -0.196
    1UNL    H22   69   0.410   0.399  -0.270
    1UNL    H23   70   0.517   0.386  -0.020
    1UNL    H24   71   0.256   0.322  -0.098
    1UNL    H25   72   0.404   0.269   0.156
    1UNL    H26   73   0.616   0.221   0.128
    1UNL    H27   74  -0.053   0.229  -0.122
    1UNL    H28   75  -0.519   0.299  -0.317
    1UNL    H29   76  -0.633   0.174  -0.280
    1UNL    H30   77  -0.655   0.332  -0.087
    1UNL    H31   78  -0.481   0.350  -0.079
    1UNL    H32   79  -0.563  -0.164   0.057
    1UNL    H33   80  -0.677  -0.138   0.289
    1UNL    H34   81  -0.763   0.043   0.451
    1UNL    H35   82  -0.731   0.283   0.398
    1UNL    H36   83  -0.650   0.345   0.168
    1UNL    H37   84  -0.566  -0.037  -0.239
    1UNL    H38   85  -0.382  -0.198  -0.244
    1UNL    H39   86  -0.376  -0.147  -0.065
    1UNL    H40   87  -0.213  -0.074  -0.314
   0.00000   0.00000   0.00000   0.00000   0.00000   0.00000   0.00000   0.00000   0.00000
Generated with MDTraj, t= 54.0
 87
    1UNL     C1    1   0.076  -0.166  -0.298
    1UNL     C2    2  -0.027  -0.240  -0.261
    1UNL     C3    3  -0.128  -0.189  -0.162
    1UNL     C4    4  -0.060  -0.131  -0.034
    1UNL     O1    5   0.046  -0.210   0.019
    1UNL     C5    6   0.176  -0.157   0.018
    1UNL     O2    7   0.278  -0.246  -0.026
    1UNL     C6    8   0.312  -0.351   0.076
    1UNL     C7    9   0.412  -0.452   0.018
    1UNL     O3   10   0.537  -0.392  -0.011
    1UNL     C8   11   0.358  -0.291   0.213
    1UNL     O4   12   0.373  -0.387   0.310
    1UNL     C9   13   0.243  -0.196   0.259
    1UNL     O5   14   0.281  -0.138   0.385
    1UNL    C10   15   0.218  -0.084   0.154
    1UNL     O6   16   0.326   0.009   0.150
    1UNL    C11   17   0.315   0.118   0.062
    1UNL     O7   18   0.305   0.082  -0.076
    1UNL    C12   19   0.430   0.103  -0.152
    1UNL    C13   20   0.545   0.007  -0.114
    1UNL     O8   21   0.518  -0.124  -0.154
    1UNL    C14   22   0.472   0.255  -0.157
    1UNL     O9   23   0.439   0.317  -0.286
    1UNL    C15   24   0.402   0.329  -0.040
    1UNL    O10   25   0.269   0.352  -0.084
    1UNL    C16   26   0.408   0.243   0.094
    1UNL    O11   27   0.549   0.205   0.122
    1UNL    O12   28  -0.005  -0.005  -0.061
    1UNL    C17   29  -0.085   0.085  -0.117
    1UNL    C18   30  -0.202   0.058  -0.179
    1UNL    C19   31  -0.295   0.166  -0.227
    1UNL    O13   32  -0.254   0.283  -0.235
    1UNL     N1   33  -0.431   0.126  -0.244
    1UNL    C20   34  -0.527   0.242  -0.248
    1UNL    C21   35  -0.557   0.290  -0.107
    1UNL    C22   36  -0.555   0.174  -0.008
    1UNL    C23   37  -0.532   0.044  -0.045
    1UNL     N2   38  -0.577  -0.038   0.054
    1UNL    C24   39  -0.613   0.033   0.167
    1UNL    C25   40  -0.648   0.003   0.300
    1UNL    C26   41  -0.685   0.102   0.385
    1UNL    C27   42  -0.691   0.238   0.344
    1UNL    C28   43  -0.647   0.278   0.217
    1UNL    C29   44  -0.594   0.171   0.132
    1UNL    C30   45  -0.482   0.002  -0.181
    1UNL    C31   46  -0.384  -0.117  -0.175
    1UNL    C32   47  -0.230  -0.085  -0.217
    1UNL     H1   48   0.085  -0.067  -0.252
    1UNL     H2   49   0.146  -0.198  -0.369
    1UNL     H3   50  -0.037  -0.338  -0.297
    1UNL     H4   51  -0.187  -0.278  -0.125
    1UNL     H5   52  -0.138  -0.113   0.045
    1UNL     H6   53   0.177  -0.079  -0.060
    1UNL     H7   54   0.213  -0.408   0.093
    1UNL     H8   55   0.378  -0.510  -0.071
    1UNL     H9   56   0.429  -0.529   0.089
    1UNL    H10   57   0.529  -0.301  -0.050
    1UNL    H11   58   0.448  -0.236   0.208
    1UNL    H12   59   0.373  -0.338   0.396
    1UNL    H13   60   0.157  -0.253   0.274
    1UNL    H14   61   0.287  -0.042   0.370
    1UNL    H15   62   0.137  -0.023   0.189
    1UNL    H16   63   0.213   0.150   0.081
    1UNL    H17   64   0.403   0.074  -0.257
    1UNL    H18   65   0.644   0.033  -0.158
    1UNL    H19   66   0.566   0.015  -0.005
    1UNL    H20   67   0.427  -0.150  -0.122
    1UNL    H21   68   0.582   0.259  -0.160
    1UNL    H22   69   0.342   0.313  -0.311
    1UNL    H23   70   0.442   0.431  -0.026
    1UNL    H24   71   0.228   0.264  -0.113
    1UNL    H25   72   0.385   0.315   0.174
    1UNL    H26   73   0.609   0.265   0.160
    1UNL    H27   74  -0.047   0.185  -0.115
    1UNL    H28   75  -0.483   0.320  -0.305
    1UNL    H29   76  -0.625   0.215  -0.299
    1UNL    H30   77  -0.659   0.349  -0.101
    1UNL    H31   78  -0.484   0.365  -0.081
    1UNL    H32   79  -0.602  -0.132   0.039
    1UNL    H33   80  -0.659  -0.103   0.328
    1UNL    H34   81  -0.713   0.073   0.490
    1UNL    H35   82  -0.722   0.315   0.414
    1UNL    H36   83  -0.646   0.374   0.171
    1UNL    H37   84  -0.562  -0.018  -0.256
    1UNL    H38   85  -0.427  -0.194  -0.250
    1UNL    H39   86  -0.375  -0.160  -0.076
    1UNL    H40   87  -0.217  -0.100  -0.329
   0.00000   0.00000   0.00000   0.00000   0.00000   0.00000   0.00000   0.00000   0.00000
Generated with MDTraj, t= 55.0
 87
    1UNL     C1    1   0.064  -0.160  -0.314
    1UNL     C2    2  -0.038  -0.235  -0.270
    1UNL     C3    3  -0.130  -0.200  -0.153
    1UNL     C4    4  -0.043  -0.139  -0.030
    1UNL     O1    5   0.060  -0.233  -0.001
    1UNL     C5    6   0.185  -0.172  -0.003
    1UNL     O2    7   0.295  -0.253  -0.042
    1UNL     C6    8   0.318  -0.362   0.057
    1UNL     C7    9   0.421  -0.451   0.003
    1UNL     O3   10   0.544  -0.381   0.001
    1UNL     C8   11   0.369  -0.306   0.193
    1UNL     O4   12   0.398  -0.396   0.293
    1UNL     C9   13   0.261  -0.207   0.249
    1UNL     O5   14   0.320  -0.139   0.363
    1UNL    C10   15   0.221  -0.104   0.139
    1UNL     O6   16   0.310   0.006   0.130
    1UNL    C11   17   0.274   0.111   0.041
    1UNL     O7   18   0.287   0.078  -0.101
    1UNL    C12   19   0.420   0.101  -0.151
    1UNL    C13   20   0.517   0.008  -0.080
    1UNL     O8   21   0.501  -0.124  -0.113
    1UNL    C14   22   0.456   0.257  -0.132
    1UNL     O9   23   0.454   0.335  -0.251
    1UNL    C15   24   0.364   0.330  -0.030
    1UNL    O10   25   0.237   0.364  -0.086
    1UNL    C16   26   0.346   0.241   0.093
    1UNL    O11   27   0.474   0.194   0.139
    1UNL    O12   28   0.007  -0.000  -0.042
    1UNL    C17   29  -0.069   0.083  -0.119
    1UNL    C18   30  -0.185   0.049  -0.185
    1UNL    C19   31  -0.272   0.152  -0.231
    1UNL    O13   32  -0.222   0.261  -0.263
    1UNL     N1   33  -0.409   0.121  -0.231
    1UNL    C20   34  -0.496   0.242  -0.249
    1UNL    C21   35  -0.554   0.281  -0.113
    1UNL    C22   36  -0.583   0.171  -0.018
    1UNL    C23   37  -0.536   0.045  -0.044
    1UNL     N2   38  -0.554  -0.025   0.073
    1UNL    C24   39  -0.609   0.053   0.173
    1UNL    C25   40  -0.629   0.037   0.310
    1UNL    C26   41  -0.668   0.143   0.389
    1UNL    C27   42  -0.684   0.270   0.333
    1UNL    C28   43  -0.669   0.294   0.198
    1UNL    C29   44  -0.628   0.182   0.120
    1UNL    C30   45  -0.466  -0.001  -0.171
    1UNL    C31   46  -0.367  -0.114  -0.124
    1UNL    C32   47  -0.227  -0.090  -0.191
    1UNL     H1   48   0.084  -0.065  -0.258
    1UNL     H2   49   0.124  -0.177  -0.399
    1UNL     H3   50  -0.079  -0.314  -0.338
    1UNL     H4   51  -0.186  -0.284  -0.101
    1UNL     H5   52  -0.113  -0.139   0.058
    1UNL     H6   53   0.183  -0.085  -0.072
    1UNL     H7   54   0.212  -0.408   0.073
    1UNL     H8   55   0.386  -0.485  -0.095
    1UNL     H9   56   0.436  -0.537   0.062
    1UNL    H10   57   0.538  -0.285  -0.025
    1UNL    H11   58   0.459  -0.251   0.184
    1UNL    H12   59   0.449  -0.354   0.364
    1UNL    H13   60   0.180  -0.268   0.277
    1UNL    H14   61   0.336  -0.049   0.335
    1UNL    H15   62   0.140  -0.043   0.171
    1UNL    H16   63   0.168   0.120   0.063
    1UNL    H17   64   0.418   0.082  -0.259
    1UNL    H18   65   0.615   0.040  -0.119
    1UNL    H19   66   0.518   0.025   0.028
    1UNL    H20   67   0.406  -0.144  -0.128
    1UNL    H21   68   0.560   0.261  -0.093
    1UNL    H22   69   0.358   0.336  -0.273
    1UNL    H23   70   0.406   0.427  -0.002
    1UNL    H24   71   0.176   0.291  -0.106
    1UNL    H25   72   0.292   0.290   0.176
    1UNL    H26   73   0.513   0.236   0.217
    1UNL    H27   74  -0.038   0.185  -0.117
    1UNL    H28   75  -0.445   0.321  -0.300
    1UNL    H29   76  -0.589   0.213  -0.305
    1UNL    H30   77  -0.647   0.348  -0.126
    1UNL    H31   78  -0.476   0.339  -0.064
    1UNL    H32   79  -0.541  -0.123   0.078
    1UNL    H33   80  -0.611  -0.051   0.356
    1UNL    H34   81  -0.668   0.126   0.490
    1UNL    H35   82  -0.674   0.355   0.398
    1UNL    H36   83  -0.649   0.398   0.167
    1UNL    H37   84  -0.542  -0.049  -0.236
    1UNL    H38   85  -0.408  -0.221  -0.145
    1UNL    H39   86  -0.362  -0.102  -0.020
    1UNL    H40   87  -0.235  -0.104  -0.304
   0.00000   0.00000   0.00000   0.00000   0.00000   0.00000   0.00000   0.00000   0.00000
Generated with MDTraj, t= 56.0
 87
    1UNL     C1    1   0.048  -0.140  -0.334
    1UNL     C2    2  -0.024  -0.228  -0.266
    1UNL     C3    3  -0.114  -0.196  -0.156
    1UNL     C4    4  -0.032  -0.150  -0.031
    1UNL     O1    5   0.064  -0.248   0.009
    1UNL     C5    6   0.195  -0.200  -0.012
    1UNL     O2    7   0.297  -0.293  -0.043
    1UNL     C6    8   0.336  -0.389   0.061
    1UNL     C7    9   0.451  -0.471   0.001
    1UNL     O3   10   0.564  -0.395  -0.040
    1UNL     C8   11   0.388  -0.316   0.189
    1UNL     O4   12   0.408  -0.411   0.288
    1UNL     C9   13   0.279  -0.220   0.232
    1UNL     O5   14   0.313  -0.142   0.346
    1UNL    C10   15   0.234  -0.124   0.120
    1UNL     O6   16   0.326  -0.022   0.100
    1UNL    C11   17   0.268   0.086   0.028
    1UNL     O7   18   0.292   0.078  -0.110
    1UNL    C12   19   0.428   0.119  -0.141
    1UNL    C13   20   0.532   0.031  -0.066
    1UNL     O8   21   0.525  -0.105  -0.098
    1UNL    C14   22   0.442   0.275  -0.115
    1UNL     O9   23   0.438   0.347  -0.239
    1UNL    C15   24   0.334   0.329  -0.018
    1UNL    O10   25   0.215   0.368  -0.090
    1UNL    C16   26   0.301   0.225   0.090
    1UNL    O11   27   0.391   0.231   0.198
    1UNL    O12   28   0.023  -0.021  -0.053
    1UNL    C17   29  -0.060   0.066  -0.122
    1UNL    C18   30  -0.181   0.041  -0.186
    1UNL    C19   31  -0.272   0.144  -0.226
    1UNL    O13   32  -0.236   0.259  -0.250
    1UNL     N1   33  -0.411   0.111  -0.228
    1UNL    C20   34  -0.506   0.214  -0.262
    1UNL    C21   35  -0.566   0.276  -0.134
    1UNL    C22   36  -0.588   0.179  -0.021
    1UNL    C23   37  -0.533   0.054  -0.029
    1UNL     N2   38  -0.547   0.000   0.095
    1UNL    C24   39  -0.603   0.087   0.185
    1UNL    C25   40  -0.636   0.068   0.320
    1UNL    C26   41  -0.681   0.181   0.382
    1UNL    C27   42  -0.691   0.305   0.319
    1UNL    C28   43  -0.663   0.321   0.185
    1UNL    C29   44  -0.624   0.209   0.117
    1UNL    C30   45  -0.464  -0.000  -0.147
    1UNL    C31   46  -0.355  -0.099  -0.098
    1UNL    C32   47  -0.227  -0.099  -0.192
    1UNL     H1   48   0.023  -0.038  -0.338
    1UNL     H2   49   0.124  -0.176  -0.401
    1UNL     H3   50   0.007  -0.326  -0.272
    1UNL     H4   51  -0.169  -0.289  -0.116
    1UNL     H5   52  -0.108  -0.141   0.050
    1UNL     H6   53   0.181  -0.135  -0.099
    1UNL     H7   54   0.244  -0.448   0.095
    1UNL     H8   55   0.426  -0.528  -0.090
    1UNL     H9   56   0.483  -0.548   0.067
    1UNL    H10   57   0.553  -0.302  -0.066
    1UNL    H11   58   0.478  -0.259   0.176
    1UNL    H12   59   0.448  -0.382   0.373
    1UNL    H13   60   0.197  -0.284   0.252
    1UNL    H14   61   0.301  -0.045   0.316
    1UNL    H15   62   0.142  -0.075   0.145
    1UNL    H16   63   0.162   0.063   0.040
    1UNL    H17   64   0.433   0.108  -0.247
    1UNL    H18   65   0.633   0.064  -0.091
    1UNL    H19   66   0.512   0.050   0.040
    1UNL    H20   67   0.440  -0.144  -0.065
    1UNL    H21   68   0.544   0.286  -0.064
    1UNL    H22   69   0.353   0.396  -0.239
    1UNL    H23   70   0.382   0.415   0.026
    1UNL    H24   71   0.181   0.294  -0.144
    1UNL    H25   72   0.203   0.254   0.134
    1UNL    H26   73   0.437   0.322   0.181
    1UNL    H27   74  -0.031   0.170  -0.108
    1UNL    H28   75  -0.454   0.295  -0.308
    1UNL    H29   76  -0.582   0.170  -0.329
    1UNL    H30   77  -0.657   0.336  -0.154
    1UNL    H31   78  -0.483   0.341  -0.096
    1UNL    H32   79  -0.494  -0.076   0.134
    1UNL    H33   80  -0.645  -0.032   0.376
    1UNL    H34   81  -0.724   0.186   0.486
    1UNL    H35   82  -0.715   0.390   0.382
    1UNL    H36   83  -0.655   0.423   0.152
    1UNL    H37   84  -0.531  -0.067  -0.208
    1UNL    H38   85  -0.409  -0.199  -0.073
    1UNL    H39   86  -0.315  -0.072  -0.004
    1UNL    H40   87  -0.255  -0.125  -0.299
   0.00000   0.00000   0.00000   0.00000   0.00000   0.00000   0.00000   0.00000   0.00000
Generated with MDTraj, t= 57.0
 87
    1UNL     C1    1   0.032  -0.148  -0.353
    1UNL     C2    2  -0.039  -0.236  -0.291
    1UNL     C3    3  -0.123  -0.209  -0.168
    1UNL     C4    4  -0.027  -0.174  -0.053
    1UNL     O1    5   0.078  -0.270  -0.028
    1UNL     C5    6   0.199  -0.200  -0.003
    1UNL     O2    7   0.317  -0.264  -0.045
    1UNL     C6    8   0.352  -0.375   0.040
    1UNL     C7    9   0.448  -0.476  -0.018
    1UNL     O3   10   0.562  -0.406  -0.041
    1UNL     C8   11   0.396  -0.314   0.176
    1UNL     O4   12   0.448  -0.420   0.256
    1UNL     C9   13   0.283  -0.233   0.234
    1UNL     O5   14   0.324  -0.154   0.350
    1UNL    C10   15   0.219  -0.134   0.136
    1UNL     O6   16   0.309  -0.022   0.123
    1UNL    C11   17   0.257   0.083   0.035
    1UNL     O7   18   0.314   0.079  -0.098
    1UNL    C12   19   0.442   0.140  -0.130
    1UNL    C13   20   0.550   0.059  -0.061
    1UNL     O8   21   0.526  -0.079  -0.081
    1UNL    C14   22   0.439   0.294  -0.092
    1UNL     O9   23   0.460   0.371  -0.210
    1UNL    C15   24   0.312   0.334  -0.026
    1UNL    O10   25   0.209   0.323  -0.124
    1UNL    C16   26   0.280   0.227   0.092
    1UNL    O11   27   0.375   0.228   0.194
    1UNL    O12   28   0.022  -0.043  -0.073
    1UNL    C17   29  -0.069   0.055  -0.097
    1UNL    C18   30  -0.188   0.031  -0.154
    1UNL    C19   31  -0.278   0.131  -0.198
    1UNL    O13   32  -0.243   0.245  -0.225
    1UNL     N1   33  -0.415   0.097  -0.219
    1UNL    C20   34  -0.506   0.196  -0.263
    1UNL    C21   35  -0.541   0.278  -0.135
    1UNL    C22   36  -0.555   0.186  -0.010
    1UNL    C23   37  -0.531   0.052  -0.009
    1UNL     N2   38  -0.545   0.004   0.120
    1UNL    C24   39  -0.600   0.107   0.195
    1UNL    C25   40  -0.644   0.121   0.333
    1UNL    C26   41  -0.706   0.235   0.370
    1UNL    C27   42  -0.717   0.338   0.284
    1UNL    C28   43  -0.665   0.338   0.161
    1UNL    C29   44  -0.603   0.221   0.116
    1UNL    C30   45  -0.473  -0.016  -0.132
    1UNL    C31   46  -0.372  -0.133  -0.114
    1UNL    C32   47  -0.238  -0.102  -0.187
    1UNL     H1   48   0.047  -0.057  -0.304
    1UNL     H2   49   0.064  -0.165  -0.460
    1UNL     H3   50  -0.052  -0.332  -0.347
    1UNL     H4   51  -0.179  -0.304  -0.136
    1UNL     H5   52  -0.086  -0.169   0.039
    1UNL     H6   53   0.183  -0.123  -0.074
    1UNL     H7   54   0.256  -0.432   0.046
    1UNL     H8   55   0.416  -0.532  -0.111
    1UNL     H9   56   0.483  -0.560   0.041
    1UNL    H10   57   0.543  -0.307  -0.058
    1UNL    H11   58   0.481  -0.247   0.162
    1UNL    H12   59   0.483  -0.396   0.345
    1UNL    H13   60   0.212  -0.303   0.276
    1UNL    H14   61   0.403  -0.102   0.335
    1UNL    H15   62   0.126  -0.087   0.172
    1UNL    H16   63   0.153   0.053   0.022
    1UNL    H17   64   0.453   0.133  -0.235
    1UNL    H18   65   0.646   0.092  -0.100
    1UNL    H19   66   0.540   0.074   0.047
    1UNL    H20   67   0.432  -0.100  -0.057
    1UNL    H21   68   0.531   0.302  -0.025
    1UNL    H22   69   0.378   0.418  -0.239
    1UNL    H23   70   0.332   0.434   0.007
    1UNL    H24   71   0.225   0.232  -0.166
    1UNL    H25   72   0.185   0.254   0.141
    1UNL    H26   73   0.348   0.287   0.276
    1UNL    H27   74  -0.038   0.159  -0.087
    1UNL    H28   75  -0.451   0.259  -0.330
    1UNL    H29   76  -0.590   0.151  -0.318
    1UNL    H30   77  -0.634   0.328  -0.144
    1UNL    H31   78  -0.461   0.351  -0.105
    1UNL    H32   79  -0.552  -0.096   0.141
    1UNL    H33   80  -0.652   0.034   0.395
    1UNL    H34   81  -0.766   0.240   0.457
    1UNL    H35   82  -0.779   0.422   0.309
    1UNL    H36   83  -0.670   0.427   0.103
    1UNL    H37   84  -0.552  -0.064  -0.192
    1UNL    H38   85  -0.409  -0.230  -0.159
    1UNL    H39   86  -0.355  -0.153  -0.011
    1UNL    H40   87  -0.265  -0.109  -0.296
   0.00000   0.00000   0.00000   0.00000   0.00000   0.00000   0.00000   0.00000   0.00000
Generated with MDTraj, t= 58.0
 87
    1UNL     C1    1   0.030  -0.189  -0.325
    1UNL     C2    2  -0.059  -0.262  -0.267
    1UNL     C3    3  -0.131  -0.221  -0.144
    1UNL     C4    4  -0.022  -0.166  -0.045
    1UNL     O1    5   0.092  -0.255  -0.036
    1UNL     C5    6   0.215  -0.185  -0.033
    1UNL     O2    7   0.327  -0.259  -0.080
    1UNL     C6    8   0.368  -0.362   0.015
    1UNL     C7    9   0.479  -0.449  -0.043
    1UNL     O3   10   0.605  -0.378  -0.064
    1UNL     C8   11   0.399  -0.310   0.156
    1UNL     O4   12   0.435  -0.415   0.246
    1UNL     C9   13   0.276  -0.241   0.211
    1UNL     O5   14   0.326  -0.184   0.333
    1UNL    C10   15   0.226  -0.128   0.112
    1UNL     O6   16   0.305  -0.008   0.122
    1UNL    C11   17   0.249   0.090   0.035
    1UNL     O7   18   0.311   0.073  -0.092
    1UNL    C12   19   0.448   0.123  -0.097
    1UNL    C13   20   0.539   0.047  -0.006
    1UNL     O8   21   0.546  -0.084  -0.060
    1UNL    C14   22   0.438   0.283  -0.075
    1UNL     O9   23   0.487   0.344  -0.193
    1UNL    C15   24   0.300   0.324  -0.020
    1UNL    O10   25   0.194   0.315  -0.115
    1UNL    C16   26   0.275   0.224   0.099
    1UNL    O11   27   0.383   0.228   0.193
    1UNL    O12   28   0.015  -0.030  -0.069
    1UNL    C17   29  -0.072   0.052  -0.133
    1UNL    C18   30  -0.192   0.019  -0.176
    1UNL    C19   31  -0.291   0.122  -0.211
    1UNL    O13   32  -0.264   0.242  -0.202
    1UNL     N1   33  -0.422   0.080  -0.230
    1UNL    C20   34  -0.523   0.175  -0.266
    1UNL    C21   35  -0.549   0.269  -0.149
    1UNL    C22   36  -0.550   0.197  -0.022
    1UNL    C23   37  -0.523   0.062  -0.003
    1UNL     N2   38  -0.556   0.016   0.121
    1UNL    C24   39  -0.610   0.125   0.194
    1UNL    C25   40  -0.662   0.134   0.326
    1UNL    C26   41  -0.714   0.248   0.367
    1UNL    C27   42  -0.715   0.360   0.286
    1UNL    C28   43  -0.670   0.357   0.158
    1UNL    C29   44  -0.606   0.243   0.105
    1UNL    C30   45  -0.463  -0.012  -0.119
    1UNL    C31   46  -0.361  -0.120  -0.071
    1UNL    C32   47  -0.249  -0.119  -0.171
    1UNL     H1   48   0.054  -0.095  -0.279
    1UNL     H2   49   0.087  -0.223  -0.407
    1UNL     H3   50  -0.083  -0.354  -0.310
    1UNL     H4   51  -0.174  -0.312  -0.088
    1UNL     H5   52  -0.055  -0.167   0.059
    1UNL     H6   53   0.194  -0.105  -0.098
    1UNL     H7   54   0.283  -0.430   0.022
    1UNL     H8   55   0.459  -0.493  -0.146
    1UNL     H9   56   0.493  -0.545   0.010
    1UNL    H10   57   0.587  -0.284  -0.059
    1UNL    H11   58   0.482  -0.235   0.154
    1UNL    H12   59   0.412  -0.391   0.338
    1UNL    H13   60   0.196  -0.312   0.239
    1UNL    H14   61   0.402  -0.124   0.306
    1UNL    H15   62   0.125  -0.088   0.139
    1UNL    H16   63   0.143   0.069   0.021
    1UNL    H17   64   0.474   0.109  -0.198
    1UNL    H18   65   0.642   0.083  -0.004
    1UNL    H19   66   0.490   0.049   0.093
    1UNL    H20   67   0.454  -0.119  -0.061
    1UNL    H21   68   0.511   0.307   0.007
    1UNL    H22   69   0.420   0.373  -0.257
    1UNL    H23   70   0.290   0.425   0.017
    1UNL    H24   71   0.190   0.221  -0.133
    1UNL    H25   72   0.183   0.262   0.145
    1UNL    H26   73   0.363   0.278   0.273
    1UNL    H27   74  -0.042   0.154  -0.143
    1UNL    H28   75  -0.486   0.236  -0.349
    1UNL    H29   76  -0.612   0.129  -0.307
    1UNL    H30   77  -0.645   0.308  -0.149
    1UNL    H31   78  -0.477   0.357  -0.138
    1UNL    H32   79  -0.553  -0.087   0.135
    1UNL    H33   80  -0.668   0.050   0.385
    1UNL    H34   81  -0.767   0.247   0.462
    1UNL    H35   82  -0.754   0.449   0.334
    1UNL    H36   83  -0.694   0.443   0.093
    1UNL    H37   84  -0.552  -0.066  -0.152
    1UNL    H38   85  -0.401  -0.223  -0.079
    1UNL    H39   86  -0.325  -0.086   0.024
    1UNL    H40   87  -0.302  -0.134  -0.268
   0.00000   0.00000   0.00000   0.00000   0.00000   0.00000   0.00000   0.00000   0.00000
Generated with MDTraj, t= 59.0
 87
    1UNL     C1    1   0.015  -0.261  -0.325
    1UNL     C2    2  -0.097  -0.281  -0.260
    1UNL     C3    3  -0.137  -0.221  -0.133
    1UNL     C4    4  -0.017  -0.155  -0.056
    1UNL     O1    5   0.088  -0.246  -0.045
    1UNL     C5    6   0.213  -0.178  -0.024
    1UNL     O2    7   0.330  -0.242  -0.074
    1UNL     C6    8   0.371  -0.365  -0.007
    1UNL     C7    9   0.495  -0.423  -0.073
    1UNL     O3   10   0.611  -0.344  -0.053
    1UNL     C8   11   0.401  -0.333   0.140
    1UNL     O4   12   0.439  -0.435   0.225
    1UNL     C9   13   0.281  -0.260   0.205
    1UNL     O5   14   0.312  -0.228   0.340
    1UNL    C10   15   0.240  -0.136   0.123
    1UNL     O6   16   0.313  -0.017   0.141
    1UNL    C11   17   0.275   0.089   0.046
    1UNL     O7   18   0.337   0.070  -0.081
    1UNL    C12   19   0.464   0.127  -0.102
    1UNL    C13   20   0.569   0.062  -0.019
    1UNL     O8   21   0.542  -0.074   0.000
    1UNL    C14   22   0.461   0.282  -0.088
    1UNL     O9   23   0.473   0.328  -0.219
    1UNL    C15   24   0.330   0.332  -0.007
    1UNL    O10   25   0.222   0.367  -0.086
    1UNL    C16   26   0.289   0.235   0.102
    1UNL    O11   27   0.363   0.238   0.223
    1UNL    O12   28   0.029  -0.024  -0.110
    1UNL    C17   29  -0.070   0.061  -0.154
    1UNL    C18   30  -0.196   0.023  -0.169
    1UNL    C19   31  -0.289   0.112  -0.232
    1UNL    O13   32  -0.254   0.213  -0.289
    1UNL     N1   33  -0.419   0.084  -0.218
    1UNL    C20   34  -0.516   0.182  -0.255
    1UNL    C21   35  -0.583   0.262  -0.136
    1UNL    C22   36  -0.582   0.185  -0.012
    1UNL    C23   37  -0.545   0.057   0.001
    1UNL     N2   38  -0.582   0.017   0.129
    1UNL    C24   39  -0.645   0.120   0.198
    1UNL    C25   40  -0.673   0.148   0.333
    1UNL    C26   41  -0.699   0.278   0.372
    1UNL    C27   42  -0.707   0.379   0.282
    1UNL    C28   43  -0.686   0.354   0.151
    1UNL    C29   44  -0.640   0.228   0.109
    1UNL    C30   45  -0.475  -0.014  -0.112
    1UNL    C31   46  -0.373  -0.118  -0.060
    1UNL    C32   47  -0.253  -0.117  -0.151
    1UNL     H1   48   0.103  -0.201  -0.290
    1UNL     H2   49   0.026  -0.307  -0.419
    1UNL     H3   50  -0.177  -0.344  -0.304
    1UNL     H4   51  -0.181  -0.300  -0.062
    1UNL     H5   52  -0.044  -0.132   0.046
    1UNL     H6   53   0.205  -0.090  -0.082
    1UNL     H7   54   0.290  -0.433  -0.017
    1UNL     H8   55   0.472  -0.448  -0.181
    1UNL     H9   56   0.525  -0.523  -0.032
    1UNL    H10   57   0.598  -0.243  -0.046
    1UNL    H11   58   0.489  -0.263   0.153
    1UNL    H12   59   0.443  -0.394   0.316
    1UNL    H13   60   0.194  -0.330   0.207
    1UNL    H14   61   0.382  -0.162   0.323
    1UNL    H15   62   0.138  -0.102   0.159
    1UNL    H16   63   0.171   0.064   0.022
    1UNL    H17   64   0.476   0.100  -0.205
    1UNL    H18   65   0.666   0.078  -0.067
    1UNL    H19   66   0.573   0.101   0.084
    1UNL    H20   67   0.446  -0.088  -0.013
    1UNL    H21   68   0.542   0.320  -0.023
    1UNL    H22   69   0.411   0.405  -0.228
    1UNL    H23   70   0.359   0.426   0.042
    1UNL    H24   71   0.201   0.284  -0.137
    1UNL    H25   72   0.186   0.268   0.121
    1UNL    H26   73   0.383   0.145   0.245
    1UNL    H27   74  -0.040   0.163  -0.167
    1UNL    H28   75  -0.470   0.252  -0.326
    1UNL    H29   76  -0.592   0.140  -0.317
    1UNL    H30   77  -0.680   0.296  -0.151
    1UNL    H31   78  -0.524   0.355  -0.109
    1UNL    H32   79  -0.553  -0.073   0.174
    1UNL    H33   80  -0.658   0.065   0.412
    1UNL    H34   81  -0.698   0.305   0.479
    1UNL    H35   82  -0.712   0.480   0.320
    1UNL    H36   83  -0.689   0.429   0.078
    1UNL    H37   84  -0.553  -0.058  -0.175
    1UNL    H38   85  -0.416  -0.213  -0.077
    1UNL    H39   86  -0.328  -0.095   0.036
    1UNL    H40   87  -0.295  -0.132  -0.253
   0.00000   0.00000   0.00000   0.00000   0.00000   0.00000   0.00000   0.00000   0.00000
Generated with MDTraj, t= 60.0
 87
    1UNL     C1    1   0.011  -0.321  -0.290
    1UNL     C2    2  -0.105  -0.317  -0.229
    1UNL     C3    3  -0.141  -0.220  -0.121
    1UNL     C4    4  -0.011  -0.154  -0.074
    1UNL     O1    5   0.095  -0.243  -0.050
    1UNL     C5    6   0.215  -0.171  -0.026
    1UNL     O2    7   0.340  -0.230  -0.065
    1UNL     C6    8   0.371  -0.362  -0.004
    1UNL     C7    9   0.488  -0.425  -0.078
    1UNL     O3   10   0.608  -0.350  -0.083
    1UNL     C8   11   0.402  -0.333   0.147
    1UNL     O4   12   0.437  -0.453   0.206
    1UNL     C9   13   0.275  -0.257   0.208
    1UNL     O5   14   0.297  -0.207   0.337
    1UNL    C10   15   0.231  -0.133   0.124
    1UNL     O6   16   0.315  -0.023   0.140
    1UNL    C11   17   0.291   0.089   0.053
    1UNL     O7   18   0.353   0.079  -0.077
    1UNL    C12   19   0.474   0.146  -0.087
    1UNL    C13   20   0.575   0.090   0.016
    1UNL     O8   21   0.572  -0.050   0.018
    1UNL    C14   22   0.475   0.297  -0.082
    1UNL     O9   23   0.455   0.344  -0.213
    1UNL    C15   24   0.350   0.331   0.015
    1UNL    O10   25   0.239   0.362  -0.061
    1UNL    C16   26   0.324   0.226   0.124
    1UNL    O11   27   0.426   0.207   0.222
    1UNL    O12   28   0.023  -0.047  -0.163
    1UNL    C17   29  -0.078   0.031  -0.210
    1UNL    C18   30  -0.211   0.009  -0.216
    1UNL    C19   31  -0.313   0.105  -0.248
    1UNL    O13   32  -0.280   0.201  -0.316
    1UNL     N1   33  -0.446   0.083  -0.216
    1UNL    C20   34  -0.544   0.187  -0.267
    1UNL    C21   35  -0.599   0.273  -0.148
    1UNL    C22   36  -0.606   0.196  -0.020
    1UNL    C23   37  -0.556   0.066  -0.005
    1UNL     N2   38  -0.570   0.033   0.130
    1UNL    C24   39  -0.626   0.138   0.199
    1UNL    C25   40  -0.647   0.146   0.336
    1UNL    C26   41  -0.704   0.262   0.387
    1UNL    C27   42  -0.737   0.365   0.296
    1UNL    C28   43  -0.711   0.357   0.162
    1UNL    C29   44  -0.651   0.242   0.108
    1UNL    C30   45  -0.482  -0.007  -0.107
    1UNL    C31   46  -0.356  -0.074  -0.047
    1UNL    C32   47  -0.259  -0.122  -0.158
    1UNL     H1   48   0.093  -0.255  -0.271
    1UNL     H2   49   0.024  -0.385  -0.374
    1UNL     H3   50  -0.179  -0.386  -0.263
    1UNL     H4   51  -0.180  -0.283  -0.032
    1UNL     H5   52  -0.025  -0.100   0.020
    1UNL     H6   53   0.213  -0.082  -0.085
    1UNL     H7   54   0.281  -0.416  -0.006
    1UNL     H8   55   0.475  -0.453  -0.186
    1UNL     H9   56   0.511  -0.523  -0.031
    1UNL    H10   57   0.598  -0.264  -0.043
    1UNL    H11   58   0.497  -0.269   0.159
    1UNL    H12   59   0.385  -0.465   0.289
    1UNL    H13   60   0.197  -0.338   0.227
    1UNL    H14   61   0.326  -0.116   0.326
    1UNL    H15   62   0.133  -0.097   0.169
    1UNL    H16   63   0.184   0.073   0.027
    1UNL    H17   64   0.503   0.116  -0.189
    1UNL    H18   65   0.681   0.116  -0.000
    1UNL    H19   66   0.552   0.121   0.118
    1UNL    H20   67   0.481  -0.086   0.001
    1UNL    H21   68   0.572   0.338  -0.057
    1UNL    H22   69   0.395   0.423  -0.208
    1UNL    H23   70   0.385   0.427   0.062
    1UNL    H24   71   0.214   0.281  -0.117
    1UNL    H25   72   0.231   0.249   0.178
    1UNL    H26   73   0.414   0.106   0.252
    1UNL    H27   74  -0.038   0.120  -0.262
    1UNL    H28   75  -0.496   0.251  -0.343
    1UNL    H29   76  -0.623   0.145  -0.324
    1UNL    H30   77  -0.690   0.322  -0.172
    1UNL    H31   78  -0.528   0.357  -0.137
    1UNL    H32   79  -0.560  -0.058   0.184
    1UNL    H33   80  -0.615   0.079   0.408
    1UNL    H34   81  -0.723   0.277   0.490
    1UNL    H35   82  -0.773   0.460   0.329
    1UNL    H36   83  -0.727   0.448   0.101
    1UNL    H37   84  -0.548  -0.085  -0.148
    1UNL    H38   85  -0.375  -0.154   0.013
    1UNL    H39   86  -0.297   0.005  -0.000
    1UNL    H40   87  -0.312  -0.174  -0.238
   0.00000   0.00000   0.00000   0.00000   0.00000   0.00000   0.00000   0.00000   0.00000
Generated with MDTraj, t= 61.0
 87
    1UNL     C1    1  -0.024  -0.373  -0.276
    1UNL     C2    2  -0.123  -0.344  -0.195
    1UNL     C3    3  -0.135  -0.212  -0.121
    1UNL     C4    4  -0.001  -0.129  -0.119
    1UNL     O1    5   0.099  -0.209  -0.052
    1UNL     C5    6   0.222  -0.146  -0.034
    1UNL     O2    7   0.333  -0.217  -0.079
    1UNL     C6    8   0.353  -0.345  -0.009
    1UNL     C7    9   0.463  -0.426  -0.075
    1UNL     O3   10   0.579  -0.356  -0.078
    1UNL     C8   11   0.377  -0.315   0.142
    1UNL     O4   12   0.417  -0.434   0.206
    1UNL     C9   13   0.255  -0.238   0.206
    1UNL     O5   14   0.294  -0.197   0.335
    1UNL    C10   15   0.228  -0.111   0.121
    1UNL     O6   16   0.330  -0.018   0.156
    1UNL    C11   17   0.307   0.102   0.083
    1UNL     O7   18   0.348   0.086  -0.056
    1UNL    C12   19   0.474   0.146  -0.084
    1UNL    C13   20   0.589   0.054  -0.017
    1UNL     O8   21   0.553  -0.081  -0.025
    1UNL    C14   22   0.484   0.296  -0.051
    1UNL     O9   23   0.462   0.374  -0.169
    1UNL    C15   24   0.363   0.339   0.045
    1UNL    O10   25   0.247   0.346  -0.041
    1UNL    C16   26   0.349   0.237   0.159
    1UNL    O11   27   0.470   0.222   0.230
    1UNL    O12   28   0.026  -0.063  -0.241
    1UNL    C17   29  -0.073   0.021  -0.268
    1UNL    C18   30  -0.204   0.006  -0.231
    1UNL    C19   31  -0.310   0.097  -0.263
    1UNL    O13   32  -0.296   0.186  -0.350
    1UNL     N1   33  -0.441   0.076  -0.204
    1UNL    C20   34  -0.544   0.176  -0.252
    1UNL    C21   35  -0.588   0.259  -0.136
    1UNL    C22   36  -0.597   0.187  -0.006
    1UNL    C23   37  -0.533   0.067   0.014
    1UNL     N2   38  -0.536   0.035   0.150
    1UNL    C24   39  -0.601   0.138   0.219
    1UNL    C25   40  -0.654   0.151   0.347
    1UNL    C26   41  -0.736   0.262   0.376
    1UNL    C27   42  -0.760   0.363   0.275
    1UNL    C28   43  -0.715   0.354   0.146
    1UNL    C29   44  -0.639   0.233   0.120
    1UNL    C30   45  -0.475  -0.014  -0.098
    1UNL    C31   46  -0.357  -0.100  -0.049
    1UNL    C32   47  -0.253  -0.121  -0.166
    1UNL     H1   48   0.048  -0.301  -0.300
    1UNL     H2   49  -0.014  -0.472  -0.326
    1UNL     H3   50  -0.198  -0.419  -0.179
    1UNL     H4   51  -0.155  -0.238  -0.011
    1UNL     H5   52  -0.015  -0.037  -0.057
    1UNL     H6   53   0.218  -0.055  -0.089
    1UNL     H7   54   0.255  -0.385  -0.027
    1UNL     H8   55   0.436  -0.447  -0.179
    1UNL     H9   56   0.486  -0.525  -0.036
    1UNL    H10   57   0.563  -0.258  -0.051
    1UNL    H11   58   0.469  -0.245   0.146
    1UNL    H12   59   0.335  -0.480   0.238
    1UNL    H13   60   0.166  -0.311   0.211
    1UNL    H14   61   0.333  -0.104   0.324
    1UNL    H15   62   0.125  -0.070   0.143
    1UNL    H16   63   0.196   0.103   0.069
    1UNL    H17   64   0.492   0.140  -0.195
    1UNL    H18   65   0.686   0.062  -0.070
    1UNL    H19   66   0.614   0.068   0.089
    1UNL    H20   67   0.454  -0.084  -0.024
    1UNL    H21   68   0.582   0.319  -0.016
    1UNL    H22   69   0.390   0.437  -0.151
    1UNL    H23   70   0.376   0.440   0.095
    1UNL    H24   71   0.235   0.273  -0.103
    1UNL    H25   72   0.285   0.286   0.236
    1UNL    H26   73   0.483   0.139   0.269
    1UNL    H27   74  -0.055   0.116  -0.321
    1UNL    H28   75  -0.504   0.237  -0.336
    1UNL    H29   76  -0.629   0.128  -0.291
    1UNL    H30   77  -0.686   0.296  -0.169
    1UNL    H31   78  -0.524   0.345  -0.137
    1UNL    H32   79  -0.483  -0.045   0.195
    1UNL    H33   80  -0.648   0.069   0.418
    1UNL    H34   81  -0.808   0.257   0.462
    1UNL    H35   82  -0.828   0.446   0.297
    1UNL    H36   83  -0.730   0.425   0.069
    1UNL    H37   84  -0.554  -0.085  -0.123
    1UNL    H38   85  -0.392  -0.193  -0.025
    1UNL    H39   86  -0.307  -0.053   0.035
    1UNL    H40   87  -0.305  -0.175  -0.245
   0.00000   0.00000   0.00000   0.00000   0.00000   0.00000   0.00000   0.00000   0.00000
Generated with MDTraj, t= 62.0
 87
    1UNL     C1    1  -0.026  -0.373  -0.274
    1UNL     C2    2  -0.125  -0.353  -0.191
    1UNL     C3    3  -0.134  -0.231  -0.105
    1UNL     C4    4  -0.008  -0.140  -0.103
    1UNL     O1    5   0.099  -0.216  -0.051
    1UNL     C5    6   0.216  -0.143  -0.033
    1UNL     O2    7   0.330  -0.214  -0.080
    1UNL     C6    8   0.336  -0.344  -0.024
    1UNL     C7    9   0.450  -0.434  -0.080
    1UNL     O3   10   0.570  -0.369  -0.070
    1UNL     C8   11   0.362  -0.325   0.136
    1UNL     O4   12   0.379  -0.445   0.215
    1UNL     C9   13   0.249  -0.243   0.193
    1UNL     O5   14   0.264  -0.224   0.331
    1UNL    C10   15   0.233  -0.105   0.120
    1UNL     O6   16   0.335  -0.006   0.146
    1UNL    C11   17   0.294   0.120   0.080
    1UNL     O7   18   0.328   0.127  -0.064
    1UNL    C12   19   0.465   0.164  -0.091
    1UNL    C13   20   0.574   0.067  -0.036
    1UNL     O8   21   0.562  -0.065  -0.078
    1UNL    C14   22   0.503   0.310  -0.042
    1UNL     O9   23   0.513   0.416  -0.141
    1UNL    C15   24   0.391   0.363   0.068
    1UNL    O10   25   0.282   0.421   0.002
    1UNL    C16   26   0.367   0.244   0.158
    1UNL    O11   27   0.493   0.201   0.210
    1UNL    O12   28   0.021  -0.084  -0.232
    1UNL    C17   29  -0.090  -0.030  -0.291
    1UNL    C18   30  -0.220  -0.041  -0.249
    1UNL    C19   31  -0.316   0.065  -0.279
    1UNL    O13   32  -0.284   0.151  -0.361
    1UNL     N1   33  -0.437   0.073  -0.208
    1UNL    C20   34  -0.542   0.164  -0.251
    1UNL    C21   35  -0.573   0.266  -0.141
    1UNL    C22   36  -0.586   0.200  -0.004
    1UNL    C23   37  -0.527   0.076   0.015
    1UNL     N2   38  -0.537   0.052   0.148
    1UNL    C24   39  -0.619   0.138   0.209
    1UNL    C25   40  -0.667   0.142   0.336
    1UNL    C26   41  -0.742   0.250   0.381
    1UNL    C27   42  -0.769   0.360   0.290
    1UNL    C28   43  -0.721   0.355   0.159
    1UNL    C29   44  -0.648   0.240   0.117
    1UNL    C30   45  -0.455  -0.014  -0.089
    1UNL    C31   46  -0.324  -0.076  -0.029
    1UNL    C32   47  -0.256  -0.147  -0.149
    1UNL     H1   48   0.050  -0.298  -0.284
    1UNL     H2   49  -0.012  -0.468  -0.322
    1UNL     H3   50  -0.203  -0.430  -0.174
    1UNL     H4   51  -0.155  -0.260   0.004
    1UNL     H5   52  -0.027  -0.049  -0.039
    1UNL     H6   53   0.204  -0.053  -0.093
    1UNL     H7   54   0.237  -0.392  -0.025
    1UNL     H8   55   0.434  -0.460  -0.183
    1UNL     H9   56   0.451  -0.530  -0.031
    1UNL    H10   57   0.563  -0.268  -0.086
    1UNL    H11   58   0.460  -0.265   0.157
    1UNL    H12   59   0.326  -0.437   0.298
    1UNL    H13   60   0.148  -0.299   0.180
    1UNL    H14   61   0.347  -0.177   0.358
    1UNL    H15   62   0.136  -0.063   0.154
    1UNL    H16   63   0.183   0.120   0.086
    1UNL    H17   64   0.477   0.161  -0.205
    1UNL    H18   65   0.679   0.092  -0.061
    1UNL    H19   66   0.568   0.069   0.073
    1UNL    H20   67   0.468  -0.089  -0.066
    1UNL    H21   68   0.599   0.310   0.006
    1UNL    H22   69   0.429   0.467  -0.139
    1UNL    H23   70   0.436   0.443   0.133
    1UNL    H24   71   0.225   0.354  -0.044
    1UNL    H25   72   0.302   0.264   0.248
    1UNL    H26   73   0.469   0.123   0.269
    1UNL    H27   74  -0.070   0.057  -0.352
    1UNL    H28   75  -0.511   0.204  -0.350
    1UNL    H29   76  -0.625   0.103  -0.274
    1UNL    H30   77  -0.664   0.320  -0.180
    1UNL    H31   78  -0.500   0.340  -0.148
    1UNL    H32   79  -0.502  -0.037   0.193
    1UNL    H33   80  -0.656   0.046   0.396
    1UNL    H34   81  -0.780   0.249   0.478
    1UNL    H35   82  -0.831   0.441   0.321
    1UNL    H36   83  -0.727   0.427   0.076
    1UNL    H37   84  -0.511  -0.102  -0.123
    1UNL    H38   85  -0.344  -0.138   0.053
    1UNL    H39   86  -0.268   0.010   0.005
    1UNL    H40   87  -0.325  -0.215  -0.196
   0.00000   0.00000   0.00000   0.00000   0.00000   0.00000   0.00000   0.00000   0.00000
Generated with MDTraj, t= 63.0
 87
    1UNL     C1    1  -0.020  -0.388  -0.263
    1UNL     C2    2  -0.130  -0.361  -0.195
    1UNL     C3    3  -0.144  -0.245  -0.101
    1UNL     C4    4  -0.019  -0.159  -0.093
    1UNL     O1    5   0.094  -0.231  -0.057
    1UNL     C5    6   0.207  -0.147  -0.048
    1UNL     O2    7   0.332  -0.208  -0.079
    1UNL     C6    8   0.342  -0.328  -0.014
    1UNL     C7    9   0.458  -0.400  -0.072
    1UNL     O3   10   0.579  -0.333  -0.050
    1UNL     C8   11   0.350  -0.312   0.143
    1UNL     O4   12   0.350  -0.437   0.205
    1UNL     C9   13   0.243  -0.220   0.191
    1UNL     O5   14   0.277  -0.168   0.320
    1UNL    C10   15   0.228  -0.097   0.096
    1UNL     O6   16   0.346  -0.018   0.111
    1UNL    C11   17   0.318   0.113   0.065
    1UNL     O7   18   0.351   0.146  -0.068
    1UNL    C12   19   0.485   0.177  -0.099
    1UNL    C13   20   0.582   0.060  -0.068
    1UNL     O8   21   0.551  -0.049  -0.149
    1UNL    C14   22   0.521   0.311  -0.033
    1UNL     O9   23   0.496   0.412  -0.129
    1UNL    C15   24   0.433   0.348   0.100
    1UNL    O10   25   0.331   0.421   0.056
    1UNL    C16   26   0.374   0.221   0.169
    1UNL    O11   27   0.470   0.163   0.257
    1UNL    O12   28   0.014  -0.089  -0.213
    1UNL    C17   29  -0.097  -0.033  -0.276
    1UNL    C18   30  -0.225  -0.047  -0.243
    1UNL    C19   31  -0.322   0.050  -0.288
    1UNL    O13   32  -0.315   0.101  -0.400
    1UNL     N1   33  -0.422   0.084  -0.198
    1UNL    C20   34  -0.533   0.173  -0.237
    1UNL    C21   35  -0.565   0.270  -0.121
    1UNL    C22   36  -0.574   0.194   0.004
    1UNL    C23   37  -0.535   0.062   0.027
    1UNL     N2   38  -0.576   0.025   0.148
    1UNL    C24   39  -0.632   0.133   0.212
    1UNL    C25   40  -0.682   0.148   0.339
    1UNL    C26   41  -0.749   0.266   0.367
    1UNL    C27   42  -0.770   0.376   0.268
    1UNL    C28   43  -0.709   0.360   0.144
    1UNL    C29   44  -0.641   0.239   0.120
    1UNL    C30   45  -0.465  -0.012  -0.081
    1UNL    C31   46  -0.342  -0.089  -0.035
    1UNL    C32   47  -0.262  -0.156  -0.151
    1UNL     H1   48   0.075  -0.343  -0.227
    1UNL     H2   49  -0.017  -0.441  -0.353
    1UNL     H3   50  -0.221  -0.400  -0.223
    1UNL     H4   51  -0.161  -0.279   0.007
    1UNL     H5   52  -0.033  -0.080  -0.013
    1UNL     H6   53   0.193  -0.059  -0.116
    1UNL     H7   54   0.248  -0.386  -0.036
    1UNL     H8   55   0.431  -0.412  -0.174
    1UNL     H9   56   0.459  -0.501  -0.034
    1UNL    H10   57   0.573  -0.245  -0.084
    1UNL    H11   58   0.455  -0.268   0.151
    1UNL    H12   59   0.265  -0.462   0.245
    1UNL    H13   60   0.138  -0.271   0.194
    1UNL    H14   61   0.359  -0.119   0.326
    1UNL    H15   62   0.143  -0.042   0.137
    1UNL    H16   63   0.211   0.133   0.077
    1UNL    H17   64   0.487   0.188  -0.213
    1UNL    H18   65   0.688   0.090  -0.074
    1UNL    H19   66   0.564   0.031   0.036
    1UNL    H20   67   0.459  -0.081  -0.132
    1UNL    H21   68   0.627   0.318  -0.006
    1UNL    H22   69   0.539   0.499  -0.102
    1UNL    H23   70   0.489   0.419   0.164
    1UNL    H24   71   0.297   0.371  -0.025
    1UNL    H25   72   0.285   0.268   0.224
    1UNL    H26   73   0.429   0.076   0.289
    1UNL    H27   74  -0.062   0.036  -0.351
    1UNL    H28   75  -0.491   0.229  -0.324
    1UNL    H29   76  -0.604   0.109  -0.279
    1UNL    H30   77  -0.651   0.340  -0.142
    1UNL    H31   78  -0.486   0.335  -0.113
    1UNL    H32   79  -0.566  -0.073   0.183
    1UNL    H33   80  -0.666   0.073   0.404
    1UNL    H34   81  -0.774   0.284   0.474
    1UNL    H35   82  -0.810   0.477   0.288
    1UNL    H36   83  -0.719   0.430   0.063
    1UNL    H37   84  -0.538  -0.082  -0.123
    1UNL    H38   85  -0.377  -0.163   0.037
    1UNL    H39   86  -0.287  -0.014   0.019
    1UNL    H40   87  -0.317  -0.225  -0.214
   0.00000   0.00000   0.00000   0.00000   0.00000   0.00000   0.00000   0.00000   0.00000
Generated with MDTraj, t= 64.0
 87
    1UNL     C1    1  -0.009  -0.401  -0.235
    1UNL     C2    2  -0.128  -0.353  -0.212
    1UNL     C3    3  -0.151  -0.242  -0.113
    1UNL     C4    4  -0.024  -0.159  -0.101
    1UNL     O1    5   0.088  -0.233  -0.058
    1UNL     C5    6   0.206  -0.152  -0.045
    1UNL     O2    7   0.328  -0.217  -0.083
    1UNL     C6    8   0.354  -0.340  -0.013
    1UNL     C7    9   0.486  -0.400  -0.056
    1UNL     O3   10   0.599  -0.311  -0.019
    1UNL     C8   11   0.368  -0.312   0.147
    1UNL     O4   12   0.380  -0.435   0.213
    1UNL     C9   13   0.252  -0.220   0.193
    1UNL     O5   14   0.276  -0.171   0.327
    1UNL    C10   15   0.226  -0.102   0.094
    1UNL     O6   16   0.337  -0.016   0.095
    1UNL    C11   17   0.315   0.128   0.070
    1UNL     O7   18   0.343   0.167  -0.063
    1UNL    C12   19   0.480   0.186  -0.089
    1UNL    C13   20   0.564   0.060  -0.071
    1UNL     O8   21   0.525  -0.038  -0.169
    1UNL    C14   22   0.538   0.312  -0.018
    1UNL     O9   23   0.561   0.411  -0.106
    1UNL    C15   24   0.450   0.355   0.103
    1UNL    O10   25   0.351   0.444   0.082
    1UNL    C16   26   0.400   0.216   0.166
    1UNL    O11   27   0.511   0.139   0.218
    1UNL    O12   28   0.003  -0.097  -0.229
    1UNL    C17   29  -0.109  -0.028  -0.278
    1UNL    C18   30  -0.240  -0.051  -0.253
    1UNL    C19   31  -0.348   0.040  -0.297
    1UNL    O13   32  -0.332   0.105  -0.400
    1UNL     N1   33  -0.465   0.059  -0.216
    1UNL    C20   34  -0.561   0.159  -0.239
    1UNL    C21   35  -0.552   0.271  -0.134
    1UNL    C22   36  -0.568   0.205   0.002
    1UNL    C23   37  -0.540   0.071   0.016
    1UNL     N2   38  -0.596   0.023   0.137
    1UNL    C24   39  -0.645   0.137   0.209
    1UNL    C25   40  -0.715   0.149   0.336
    1UNL    C26   41  -0.771   0.274   0.375
    1UNL    C27   42  -0.755   0.381   0.283
    1UNL    C28   43  -0.691   0.368   0.160
    1UNL    C29   44  -0.632   0.248   0.125
    1UNL    C30   45  -0.489  -0.023  -0.090
    1UNL    C31   46  -0.360  -0.102  -0.041
    1UNL    C32   47  -0.274  -0.156  -0.154
    1UNL     H1   48   0.073  -0.348  -0.192
    1UNL     H2   49   0.011  -0.490  -0.291
    1UNL     H3   50  -0.222  -0.408  -0.244
    1UNL     H4   51  -0.169  -0.281  -0.008
    1UNL     H5   52  -0.042  -0.077  -0.027
    1UNL     H6   53   0.191  -0.064  -0.117
    1UNL     H7   54   0.262  -0.407  -0.018
    1UNL     H8   55   0.478  -0.426  -0.160
    1UNL     H9   56   0.493  -0.495  -0.002
    1UNL    H10   57   0.584  -0.230  -0.080
    1UNL    H11   58   0.467  -0.264   0.156
    1UNL    H12   59   0.291  -0.461   0.244
    1UNL    H13   60   0.160  -0.294   0.194
    1UNL    H14   61   0.338  -0.232   0.371
    1UNL    H15   62   0.138  -0.059   0.140
    1UNL    H16   63   0.213   0.160   0.087
    1UNL    H17   64   0.490   0.211  -0.199
    1UNL    H18   65   0.672   0.081  -0.086
    1UNL    H19   66   0.557   0.025   0.032
    1UNL    H20   67   0.437  -0.076  -0.148
    1UNL    H21   68   0.636   0.285   0.032
    1UNL    H22   69   0.477   0.452  -0.134
    1UNL    H23   70   0.508   0.402   0.182
    1UNL    H24   71   0.300   0.406   0.007
    1UNL    H25   72   0.339   0.243   0.254
    1UNL    H26   73   0.484   0.051   0.243
    1UNL    H27   74  -0.086   0.035  -0.364
    1UNL    H28   75  -0.546   0.188  -0.346
    1UNL    H29   76  -0.654   0.108  -0.234
    1UNL    H30   77  -0.633   0.348  -0.148
    1UNL    H31   78  -0.462   0.323  -0.134
    1UNL    H32   79  -0.580  -0.074   0.169
    1UNL    H33   80  -0.701   0.057   0.401
    1UNL    H34   81  -0.806   0.286   0.472
    1UNL    H35   82  -0.797   0.475   0.306
    1UNL    H36   83  -0.684   0.447   0.089
    1UNL    H37   84  -0.578  -0.087  -0.112
    1UNL    H38   85  -0.391  -0.185   0.031
    1UNL    H39   86  -0.303  -0.037   0.020
    1UNL    H40   87  -0.334  -0.227  -0.212
   0.00000   0.00000   0.00000   0.00000   0.00000   0.00000   0.00000   0.00000   0.00000
Generated with MDTraj, t= 65.0
 87
    1UNL     C1    1  -0.029  -0.401  -0.241
    1UNL     C2    2  -0.143  -0.362  -0.190
    1UNL     C3    3  -0.156  -0.238  -0.107
    1UNL     C4    4  -0.031  -0.148  -0.108
    1UNL     O1    5   0.074  -0.218  -0.042
    1UNL     C5    6   0.193  -0.142  -0.044
    1UNL     O2    7   0.307  -0.211  -0.090
    1UNL     C6    8   0.350  -0.327  -0.014
    1UNL     C7    9   0.481  -0.385  -0.059
    1UNL     O3   10   0.584  -0.294  -0.060
    1UNL     C8   11   0.361  -0.286   0.139
    1UNL     O4   12   0.413  -0.380   0.228
    1UNL     C9   13   0.237  -0.213   0.188
    1UNL     O5   14   0.246  -0.179   0.327
    1UNL    C10   15   0.222  -0.087   0.099
    1UNL     O6   16   0.348  -0.017   0.110
    1UNL    C11   17   0.339   0.122   0.086
    1UNL     O7   18   0.357   0.155  -0.055
    1UNL    C12   19   0.488   0.186  -0.090
    1UNL    C13   20   0.573   0.062  -0.097
    1UNL     O8   21   0.499  -0.040  -0.164
    1UNL    C14   22   0.554   0.300  -0.005
    1UNL     O9   23   0.585   0.409  -0.089
    1UNL    C15   24   0.463   0.339   0.113
    1UNL    O10   25   0.351   0.412   0.063
    1UNL    C16   26   0.426   0.201   0.182
    1UNL    O11   27   0.534   0.134   0.231
    1UNL    O12   28  -0.004  -0.092  -0.238
    1UNL    C17   29  -0.118  -0.036  -0.286
    1UNL    C18   30  -0.247  -0.055  -0.248
    1UNL    C19   31  -0.344   0.040  -0.291
    1UNL    O13   32  -0.311   0.134  -0.367
    1UNL     N1   33  -0.472   0.045  -0.218
    1UNL    C20   34  -0.560   0.148  -0.251
    1UNL    C21   35  -0.557   0.251  -0.141
    1UNL    C22   36  -0.584   0.182  -0.011
    1UNL    C23   37  -0.550   0.052   0.017
    1UNL     N2   38  -0.593   0.014   0.145
    1UNL    C24   39  -0.657   0.125   0.201
    1UNL    C25   40  -0.720   0.146   0.326
    1UNL    C26   41  -0.751   0.273   0.358
    1UNL    C27   42  -0.731   0.384   0.274
    1UNL    C28   43  -0.675   0.360   0.150
    1UNL    C29   44  -0.641   0.234   0.112
    1UNL    C30   45  -0.491  -0.034  -0.090
    1UNL    C31   46  -0.360  -0.091  -0.037
    1UNL    C32   47  -0.286  -0.161  -0.149
    1UNL     H1   48   0.054  -0.342  -0.222
    1UNL     H2   49  -0.009  -0.493  -0.299
    1UNL     H3   50  -0.229  -0.414  -0.211
    1UNL     H4   51  -0.174  -0.267   0.002
    1UNL     H5   52  -0.059  -0.057  -0.049
    1UNL     H6   53   0.170  -0.053  -0.112
    1UNL     H7   54   0.268  -0.408  -0.012
    1UNL     H8   55   0.463  -0.428  -0.159
    1UNL     H9   56   0.508  -0.466   0.013
    1UNL    H10   57   0.552  -0.215  -0.102
    1UNL    H11   58   0.438  -0.208   0.144
    1UNL    H12   59   0.335  -0.426   0.270
    1UNL    H13   60   0.146  -0.287   0.166
    1UNL    H14   61   0.343  -0.161   0.347
    1UNL    H15   62   0.133  -0.032   0.127
    1UNL    H16   63   0.235   0.153   0.101
    1UNL    H17   64   0.484   0.231  -0.190
    1UNL    H18   65   0.667   0.070  -0.154
    1UNL    H19   66   0.602   0.023   0.001
    1UNL    H20   67   0.404  -0.034  -0.136
    1UNL    H21   68   0.656   0.266   0.034
    1UNL    H22   69   0.514   0.474  -0.102
    1UNL    H23   70   0.517   0.408   0.176
    1UNL    H24   71   0.301   0.363  -0.006
    1UNL    H25   72   0.358   0.207   0.267
    1UNL    H26   73   0.515   0.031   0.238
    1UNL    H27   74  -0.110   0.048  -0.358
    1UNL    H28   75  -0.531   0.191  -0.351
    1UNL    H29   76  -0.659   0.112  -0.257
    1UNL    H30   77  -0.631   0.331  -0.155
    1UNL    H31   78  -0.458   0.297  -0.129
    1UNL    H32   79  -0.601  -0.076   0.193
    1UNL    H33   80  -0.721   0.063   0.397
    1UNL    H34   81  -0.791   0.293   0.460
    1UNL    H35   82  -0.778   0.480   0.298
    1UNL    H36   83  -0.663   0.445   0.081
    1UNL    H37   84  -0.569  -0.105  -0.130
    1UNL    H38   85  -0.370  -0.166   0.052
    1UNL    H39   86  -0.297  -0.020   0.007
    1UNL    H40   87  -0.354  -0.232  -0.196
   0.00000   0.00000   0.00000   0.00000   0.00000   0.00000   0.00000   0.00000   0.00000
Generated with MDTraj, t= 66.0
 87
    1UNL     C1    1  -0.025  -0.398  -0.253
    1UNL     C2    2  -0.126  -0.378  -0.172
    1UNL     C3    3  -0.153  -0.248  -0.097
    1UNL     C4    4  -0.032  -0.149  -0.098
    1UNL     O1    5   0.080  -0.210  -0.038
    1UNL     C5    6   0.197  -0.130  -0.034
    1UNL     O2    7   0.313  -0.197  -0.081
    1UNL     C6    8   0.338  -0.320  -0.009
    1UNL     C7    9   0.458  -0.399  -0.072
    1UNL     O3   10   0.569  -0.322  -0.092
    1UNL     C8   11   0.363  -0.277   0.143
    1UNL     O4   12   0.402  -0.393   0.214
    1UNL     C9   13   0.239  -0.211   0.200
    1UNL     O5   14   0.263  -0.170   0.334
    1UNL    C10   15   0.217  -0.085   0.119
    1UNL     O6   16   0.334  -0.000   0.134
    1UNL    C11   17   0.318   0.139   0.089
    1UNL     O7   18   0.352   0.168  -0.055
    1UNL    C12   19   0.488   0.188  -0.091
    1UNL    C13   20   0.563   0.057  -0.099
    1UNL     O8   21   0.525  -0.031  -0.195
    1UNL    C14   22   0.565   0.292  -0.008
    1UNL     O9   23   0.594   0.410  -0.086
    1UNL    C15   24   0.477   0.337   0.114
    1UNL    O10   25   0.372   0.415   0.058
    1UNL    C16   26   0.418   0.210   0.188
    1UNL    O11   27   0.525   0.118   0.214
    1UNL    O12   28  -0.008  -0.098  -0.228
    1UNL    C17   29  -0.111  -0.022  -0.267
    1UNL    C18   30  -0.236  -0.037  -0.221
    1UNL    C19   31  -0.332   0.043  -0.274
    1UNL    O13   32  -0.302   0.131  -0.352
    1UNL     N1   33  -0.462   0.042  -0.220
    1UNL    C20   34  -0.553   0.153  -0.264
    1UNL    C21   35  -0.586   0.254  -0.149
    1UNL    C22   36  -0.603   0.181  -0.020
    1UNL    C23   37  -0.569   0.049   0.001
    1UNL     N2   38  -0.594   0.019   0.136
    1UNL    C24   39  -0.644   0.128   0.195
    1UNL    C25   40  -0.689   0.145   0.327
    1UNL    C26   41  -0.732   0.266   0.359
    1UNL    C27   42  -0.732   0.375   0.274
    1UNL    C28   43  -0.697   0.361   0.142
    1UNL    C29   44  -0.660   0.230   0.101
    1UNL    C30   45  -0.501  -0.039  -0.101
    1UNL    C31   46  -0.382  -0.117  -0.046
    1UNL    C32   47  -0.276  -0.164  -0.146
    1UNL     H1   48   0.045  -0.318  -0.268
    1UNL     H2   49  -0.007  -0.485  -0.314
    1UNL     H3   50  -0.203  -0.458  -0.165
    1UNL     H4   51  -0.163  -0.271   0.014
    1UNL     H5   52  -0.055  -0.061  -0.037
    1UNL     H6   53   0.175  -0.037  -0.093
    1UNL     H7   54   0.245  -0.383  -0.025
    1UNL     H8   55   0.420  -0.438  -0.171
    1UNL     H9   56   0.485  -0.492  -0.011
    1UNL    H10   57   0.543  -0.229  -0.117
    1UNL    H11   58   0.442  -0.206   0.145
    1UNL    H12   59   0.348  -0.393   0.297
    1UNL    H13   60   0.144  -0.283   0.202
    1UNL    H14   61   0.344  -0.115   0.344
    1UNL    H15   62   0.131  -0.032   0.164
    1UNL    H16   63   0.222   0.185   0.113
    1UNL    H17   64   0.475   0.229  -0.190
    1UNL    H18   65   0.672   0.070  -0.112
    1UNL    H19   66   0.548  -0.006  -0.010
    1UNL    H20   67   0.434  -0.063  -0.175
    1UNL    H21   68   0.654   0.236   0.037
    1UNL    H22   69   0.527   0.481  -0.062
    1UNL    H23   70   0.552   0.395   0.168
    1UNL    H24   71   0.320   0.362  -0.008
    1UNL    H25   72   0.377   0.226   0.285
    1UNL    H26   73   0.505   0.029   0.231
    1UNL    H27   74  -0.087   0.055  -0.340
    1UNL    H28   75  -0.512   0.217  -0.348
    1UNL    H29   76  -0.648   0.119  -0.296
    1UNL    H30   77  -0.673   0.317  -0.159
    1UNL    H31   78  -0.495   0.322  -0.138
    1UNL    H32   79  -0.574  -0.065   0.186
    1UNL    H33   80  -0.677   0.070   0.395
    1UNL    H34   81  -0.768   0.276   0.458
    1UNL    H35   82  -0.769   0.467   0.313
    1UNL    H36   83  -0.713   0.444   0.079
    1UNL    H37   84  -0.582  -0.104  -0.141
    1UNL    H38   85  -0.415  -0.210   0.015
    1UNL    H39   86  -0.329  -0.065   0.031
    1UNL    H40   87  -0.322  -0.226  -0.224
   0.00000   0.00000   0.00000   0.00000   0.00000   0.00000   0.00000   0.00000   0.00000
Generated with MDTraj, t= 67.0
 87
    1UNL     C1    1  -0.026  -0.374  -0.251
    1UNL     C2    2  -0.120  -0.361  -0.161
    1UNL     C3    3  -0.152  -0.233  -0.098
    1UNL     C4    4  -0.027  -0.135  -0.080
    1UNL     O1    5   0.079  -0.199  -0.014
    1UNL     C5    6   0.202  -0.129  -0.023
    1UNL     O2    7   0.303  -0.213  -0.088
    1UNL     C6    8   0.325  -0.339  -0.017
    1UNL     C7    9   0.447  -0.404  -0.088
    1UNL     O3   10   0.558  -0.321  -0.079
    1UNL     C8   11   0.361  -0.311   0.135
    1UNL     O4   12   0.373  -0.441   0.202
    1UNL     C9   13   0.263  -0.215   0.204
    1UNL     O5   14   0.286  -0.170   0.340
    1UNL    C10   15   0.249  -0.088   0.117
    1UNL     O6   16   0.364  -0.000   0.126
    1UNL    C11   17   0.333   0.140   0.103
    1UNL     O7   18   0.335   0.173  -0.046
    1UNL    C12   19   0.474   0.177  -0.097
    1UNL    C13   20   0.551   0.042  -0.085
    1UNL     O8   21   0.489  -0.057  -0.165
    1UNL    C14   22   0.566   0.292  -0.023
    1UNL     O9   23   0.589   0.403  -0.116
    1UNL    C15   24   0.483   0.345   0.098
    1UNL    O10   25   0.374   0.428   0.062
    1UNL    C16   26   0.428   0.231   0.185
    1UNL    O11   27   0.539   0.163   0.242
    1UNL    O12   28   0.004  -0.079  -0.205
    1UNL    C17   29  -0.102  -0.005  -0.249
    1UNL    C18   30  -0.234  -0.026  -0.227
    1UNL    C19   31  -0.342   0.057  -0.279
    1UNL    O13   32  -0.312   0.149  -0.354
    1UNL     N1   33  -0.470   0.042  -0.234
    1UNL    C20   34  -0.566   0.148  -0.276
    1UNL    C21   35  -0.614   0.240  -0.163
    1UNL    C22   36  -0.608   0.173  -0.028
    1UNL    C23   37  -0.568   0.040  -0.013
    1UNL     N2   38  -0.574   0.011   0.123
    1UNL    C24   39  -0.622   0.123   0.192
    1UNL    C25   40  -0.662   0.152   0.328
    1UNL    C26   41  -0.723   0.264   0.368
    1UNL    C27   42  -0.752   0.359   0.274
    1UNL    C28   43  -0.715   0.347   0.141
    1UNL    C29   44  -0.654   0.225   0.098
    1UNL    C30   45  -0.494  -0.045  -0.119
    1UNL    C31   46  -0.373  -0.113  -0.049
    1UNL    C32   47  -0.276  -0.152  -0.154
    1UNL     H1   48   0.026  -0.288  -0.297
    1UNL     H2   49  -0.009  -0.469  -0.290
    1UNL     H3   50  -0.162  -0.450  -0.122
    1UNL     H4   51  -0.172  -0.247   0.013
    1UNL     H5   52  -0.055  -0.049  -0.020
    1UNL     H6   53   0.189  -0.051  -0.099
    1UNL     H7   54   0.241  -0.407  -0.039
    1UNL     H8   55   0.432  -0.431  -0.198
    1UNL     H9   56   0.464  -0.504  -0.036
    1UNL    H10   57   0.526  -0.227  -0.097
    1UNL    H11   58   0.462  -0.279   0.139
    1UNL    H12   59   0.293  -0.463   0.254
    1UNL    H13   60   0.155  -0.264   0.209
    1UNL    H14   61   0.367  -0.118   0.345
    1UNL    H15   62   0.165  -0.027   0.158
    1UNL    H16   63   0.228   0.158   0.129
    1UNL    H17   64   0.462   0.216  -0.195
    1UNL    H18   65   0.653   0.055  -0.122
    1UNL    H19   66   0.555   0.016   0.021
    1UNL    H20   67   0.401  -0.083  -0.129
    1UNL    H21   68   0.664   0.252   0.016
    1UNL    H22   69   0.519   0.471  -0.119
    1UNL    H23   70   0.549   0.411   0.158
    1UNL    H24   71   0.318   0.390  -0.005
    1UNL    H25   72   0.363   0.265   0.265
    1UNL    H26   73   0.521   0.067   0.281
    1UNL    H27   74  -0.068   0.060  -0.327
    1UNL    H28   75  -0.528   0.215  -0.361
    1UNL    H29   76  -0.657   0.103  -0.310
    1UNL    H30   77  -0.715   0.265  -0.185
    1UNL    H31   78  -0.554   0.340  -0.159
    1UNL    H32   79  -0.541  -0.073   0.164
    1UNL    H33   80  -0.649   0.072   0.412
    1UNL    H34   81  -0.739   0.293   0.473
    1UNL    H35   82  -0.813   0.437   0.317
    1UNL    H36   83  -0.750   0.429   0.077
    1UNL    H37   84  -0.567  -0.123  -0.147
    1UNL    H38   85  -0.409  -0.197   0.021
    1UNL    H39   86  -0.331  -0.046   0.029
    1UNL    H40   87  -0.328  -0.209  -0.232
   0.00000   0.00000   0.00000   0.00000   0.00000   0.00000   0.00000   0.00000   0.00000
Generated with MDTraj, t= 68.0
 87
    1UNL     C1    1  -0.011  -0.317  -0.256
    1UNL     C2    2  -0.102  -0.331  -0.164
    1UNL     C3    3  -0.147  -0.215  -0.085
    1UNL     C4    4  -0.022  -0.118  -0.061
    1UNL     O1    5   0.080  -0.191   0.007
    1UNL     C5    6   0.197  -0.118  -0.001
    1UNL     O2    7   0.295  -0.196  -0.068
    1UNL     C6    8   0.307  -0.331  -0.006
    1UNL     C7    9   0.409  -0.401  -0.093
    1UNL     O3   10   0.538  -0.340  -0.087
    1UNL     C8   11   0.355  -0.322   0.138
    1UNL     O4   12   0.369  -0.458   0.193
    1UNL     C9   13   0.276  -0.222   0.223
    1UNL     O5   14   0.335  -0.202   0.354
    1UNL    C10   15   0.251  -0.084   0.138
    1UNL     O6   16   0.367  -0.004   0.137
    1UNL    C11   17   0.342   0.127   0.093
    1UNL     O7   18   0.354   0.139  -0.055
    1UNL    C12   19   0.484   0.165  -0.102
    1UNL    C13   20   0.575   0.042  -0.089
    1UNL     O8   21   0.509  -0.068  -0.165
    1UNL    C14   22   0.555   0.293  -0.030
    1UNL     O9   23   0.566   0.393  -0.123
    1UNL    C15   24   0.465   0.351   0.084
    1UNL    O10   25   0.346   0.417   0.053
    1UNL    C16   26   0.423   0.231   0.175
    1UNL    O11   27   0.541   0.165   0.229
    1UNL    O12   28   0.010  -0.047  -0.185
    1UNL    C17   29  -0.093   0.013  -0.248
    1UNL    C18   30  -0.221  -0.021  -0.237
    1UNL    C19   31  -0.334   0.063  -0.288
    1UNL    O13   32  -0.314   0.162  -0.359
    1UNL     N1   33  -0.465   0.042  -0.239
    1UNL    C20   34  -0.571   0.133  -0.283
    1UNL    C21   35  -0.629   0.216  -0.169
    1UNL    C22   36  -0.620   0.158  -0.026
    1UNL    C23   37  -0.560   0.041  -0.000
    1UNL     N2   38  -0.572   0.015   0.133
    1UNL    C24   39  -0.628   0.119   0.198
    1UNL    C25   40  -0.658   0.145   0.336
    1UNL    C26   41  -0.709   0.268   0.355
    1UNL    C27   42  -0.754   0.355   0.256
    1UNL    C28   43  -0.730   0.331   0.127
    1UNL    C29   44  -0.670   0.209   0.094
    1UNL    C30   45  -0.504  -0.040  -0.118
    1UNL    C31   46  -0.381  -0.107  -0.062
    1UNL    C32   47  -0.265  -0.133  -0.158
    1UNL     H1   48   0.055  -0.233  -0.260
    1UNL     H2   49  -0.010  -0.395  -0.332
    1UNL     H3   50  -0.167  -0.417  -0.167
    1UNL     H4   51  -0.182  -0.248   0.016
    1UNL     H5   52  -0.058  -0.034  -0.002
    1UNL     H6   53   0.195  -0.028  -0.059
    1UNL     H7   54   0.207  -0.373  -0.011
    1UNL     H8   55   0.361  -0.401  -0.196
    1UNL     H9   56   0.426  -0.509  -0.064
    1UNL    H10   57   0.528  -0.251  -0.118
    1UNL    H11   58   0.456  -0.287   0.148
    1UNL    H12   59   0.309  -0.465   0.270
    1UNL    H13   60   0.165  -0.256   0.248
    1UNL    H14   61   0.409  -0.143   0.338
    1UNL    H15   62   0.177  -0.015   0.189
    1UNL    H16   63   0.236   0.161   0.103
    1UNL    H17   64   0.470   0.186  -0.207
    1UNL    H18   65   0.670   0.076  -0.132
    1UNL    H19   66   0.593   0.020   0.016
    1UNL    H20   67   0.417  -0.055  -0.188
    1UNL    H21   68   0.647   0.255   0.017
    1UNL    H22   69   0.479   0.436  -0.134
    1UNL    H23   70   0.524   0.423   0.146
    1UNL    H24   71   0.289   0.346   0.008
    1UNL    H25   72   0.359   0.267   0.257
    1UNL    H26   73   0.535   0.077   0.259
    1UNL    H27   74  -0.067   0.095  -0.314
    1UNL    H28   75  -0.523   0.198  -0.363
    1UNL    H29   76  -0.648   0.075  -0.330
    1UNL    H30   77  -0.732   0.234  -0.190
    1UNL    H31   78  -0.580   0.322  -0.173
    1UNL    H32   79  -0.546  -0.072   0.174
    1UNL    H33   80  -0.630   0.085   0.419
    1UNL    H34   81  -0.714   0.313   0.454
    1UNL    H35   82  -0.809   0.445   0.280
    1UNL    H36   83  -0.772   0.404   0.060
    1UNL    H37   84  -0.569  -0.125  -0.144
    1UNL    H38   85  -0.414  -0.203  -0.012
    1UNL    H39   86  -0.350  -0.050   0.034
    1UNL    H40   87  -0.305  -0.202  -0.235
   0.00000   0.00000   0.00000   0.00000   0.00000   0.00000   0.00000   0.00000   0.00000
Generated with MDTraj, t= 69.0
 87
    1UNL     C1    1   0.035  -0.277  -0.265
    1UNL     C2    2  -0.079  -0.302  -0.203
    1UNL     C3    3  -0.138  -0.215  -0.097
    1UNL     C4    4  -0.030  -0.115  -0.040
    1UNL     O1    5   0.074  -0.186   0.019
    1UNL     C5    6   0.197  -0.114   0.014
    1UNL     O2    7   0.289  -0.193  -0.066
    1UNL     C6    8   0.301  -0.333  -0.010
    1UNL     C7    9   0.379  -0.421  -0.107
    1UNL     O3   10   0.514  -0.381  -0.123
    1UNL     C8   11   0.368  -0.310   0.124
    1UNL     O4   12   0.393  -0.433   0.186
    1UNL     C9   13   0.286  -0.226   0.223
    1UNL     O5   14   0.349  -0.209   0.346
    1UNL    C10   15   0.253  -0.087   0.155
    1UNL     O6   16   0.364  -0.004   0.165
    1UNL    C11   17   0.352   0.123   0.102
    1UNL     O7   18   0.360   0.129  -0.041
    1UNL    C12   19   0.483   0.162  -0.093
    1UNL    C13   20   0.587   0.046  -0.075
    1UNL     O8   21   0.536  -0.073  -0.142
    1UNL    C14   22   0.537   0.298  -0.038
    1UNL     O9   23   0.546   0.388  -0.147
    1UNL    C15   24   0.447   0.344   0.077
    1UNL    O10   25   0.321   0.375   0.023
    1UNL    C16   26   0.441   0.230   0.175
    1UNL    O11   27   0.569   0.169   0.207
    1UNL    O12   28   0.010  -0.028  -0.141
    1UNL    C17   29  -0.094   0.028  -0.208
    1UNL    C18   30  -0.226  -0.012  -0.214
    1UNL    C19   31  -0.337   0.068  -0.270
    1UNL    O13   32  -0.311   0.162  -0.345
    1UNL     N1   33  -0.464   0.041  -0.234
    1UNL    C20   34  -0.575   0.124  -0.291
    1UNL    C21   35  -0.633   0.217  -0.182
    1UNL    C22   36  -0.629   0.157  -0.041
    1UNL    C23   37  -0.565   0.040  -0.011
    1UNL     N2   38  -0.587   0.018   0.121
    1UNL    C24   39  -0.642   0.125   0.187
    1UNL    C25   40  -0.672   0.154   0.326
    1UNL    C26   41  -0.726   0.277   0.356
    1UNL    C27   42  -0.755   0.367   0.257
    1UNL    C28   43  -0.741   0.331   0.128
    1UNL    C29   44  -0.687   0.208   0.085
    1UNL    C30   45  -0.494  -0.047  -0.117
    1UNL    C31   46  -0.378  -0.127  -0.053
    1UNL    C32   47  -0.258  -0.140  -0.154
    1UNL     H1   48   0.089  -0.190  -0.245
    1UNL     H2   49   0.070  -0.361  -0.328
    1UNL     H3   50  -0.141  -0.390  -0.228
    1UNL     H4   51  -0.164  -0.278  -0.008
    1UNL     H5   52  -0.062  -0.044   0.039
    1UNL     H6   53   0.187  -0.020  -0.032
    1UNL     H7   54   0.199  -0.362   0.001
    1UNL     H8   55   0.331  -0.439  -0.205
    1UNL     H9   56   0.374  -0.517  -0.052
    1UNL    H10   57   0.520  -0.286  -0.161
    1UNL    H11   58   0.469  -0.271   0.118
    1UNL    H12   59   0.310  -0.465   0.229
    1UNL    H13   60   0.186  -0.286   0.239
    1UNL    H14   61   0.431  -0.158   0.320
    1UNL    H15   62   0.175  -0.026   0.210
    1UNL    H16   63   0.253   0.174   0.117
    1UNL    H17   64   0.458   0.179  -0.198
    1UNL    H18   65   0.686   0.071  -0.115
    1UNL    H19   66   0.598   0.030   0.032
    1UNL    H20   67   0.442  -0.080  -0.110
    1UNL    H21   68   0.636   0.273  -0.002
    1UNL    H22   69   0.456   0.413  -0.182
    1UNL    H23   70   0.495   0.439   0.111
    1UNL    H24   71   0.300   0.305  -0.038
    1UNL    H25   72   0.378   0.245   0.267
    1UNL    H26   73   0.555   0.083   0.264
    1UNL    H27   74  -0.072   0.129  -0.247
    1UNL    H28   75  -0.521   0.182  -0.370
    1UNL    H29   76  -0.637   0.053  -0.347
    1UNL    H30   77  -0.735   0.245  -0.212
    1UNL    H31   78  -0.584   0.321  -0.184
    1UNL    H32   79  -0.539  -0.060   0.162
    1UNL    H33   80  -0.631   0.095   0.401
    1UNL    H34   81  -0.737   0.308   0.455
    1UNL    H35   82  -0.802   0.458   0.286
    1UNL    H36   83  -0.774   0.400   0.052
    1UNL    H37   84  -0.560  -0.128  -0.146
    1UNL    H38   85  -0.403  -0.219   0.008
    1UNL    H39   86  -0.336  -0.056   0.031
    1UNL    H40   87  -0.293  -0.205  -0.237
   0.00000   0.00000   0.00000   0.00000   0.00000   0.00000   0.00000   0.00000   0.00000
Generated with MDTraj, t= 70.0
 87
    1UNL     C1    1   0.074  -0.262  -0.259
    1UNL     C2    2  -0.055  -0.272  -0.227
    1UNL     C3    3  -0.125  -0.208  -0.108
    1UNL     C4    4  -0.035  -0.104  -0.032
    1UNL     O1    5   0.058  -0.169   0.058
    1UNL     C5    6   0.194  -0.125   0.033
    1UNL     O2    7   0.278  -0.200  -0.062
    1UNL     C6    8   0.310  -0.337  -0.010
    1UNL     C7    9   0.378  -0.425  -0.115
    1UNL     O3   10   0.497  -0.375  -0.158
    1UNL     C8   11   0.383  -0.317   0.121
    1UNL     O4   12   0.415  -0.446   0.170
    1UNL     C9   13   0.303  -0.241   0.227
    1UNL     O5   14   0.376  -0.233   0.349
    1UNL    C10   15   0.270  -0.099   0.165
    1UNL     O6   16   0.385  -0.019   0.148
    1UNL    C11   17   0.344   0.115   0.097
    1UNL     O7   18   0.343   0.123  -0.046
    1UNL    C12   19   0.470   0.140  -0.103
    1UNL    C13   20   0.576   0.037  -0.052
    1UNL     O8   21   0.533  -0.090  -0.061
    1UNL    C14   22   0.519   0.284  -0.075
    1UNL     O9   23   0.494   0.374  -0.186
    1UNL    C15   24   0.458   0.338   0.061
    1UNL    O10   25   0.337   0.399   0.017
    1UNL    C16   26   0.439   0.224   0.158
    1UNL    O11   27   0.559   0.172   0.209
    1UNL    O12   28   0.005   0.005  -0.117
    1UNL    C17   29  -0.102   0.068  -0.180
    1UNL    C18   30  -0.228   0.011  -0.197
    1UNL    C19   31  -0.339   0.081  -0.256
    1UNL    O13   32  -0.321   0.184  -0.323
    1UNL     N1   33  -0.465   0.028  -0.235
    1UNL    C20   34  -0.571   0.120  -0.284
    1UNL    C21   35  -0.621   0.212  -0.174
    1UNL    C22   36  -0.621   0.154  -0.039
    1UNL    C23   37  -0.568   0.030  -0.010
    1UNL     N2   38  -0.577   0.009   0.125
    1UNL    C24   39  -0.643   0.123   0.183
    1UNL    C25   40  -0.690   0.150   0.309
    1UNL    C26   41  -0.756   0.268   0.329
    1UNL    C27   42  -0.776   0.363   0.227
    1UNL    C28   43  -0.727   0.348   0.097
    1UNL    C29   44  -0.668   0.219   0.078
    1UNL    C30   45  -0.503  -0.060  -0.109
    1UNL    C31   46  -0.373  -0.118  -0.045
    1UNL    C32   47  -0.251  -0.129  -0.152
    1UNL     H1   48   0.141  -0.207  -0.197
    1UNL     H2   49   0.103  -0.308  -0.351
    1UNL     H3   50  -0.116  -0.336  -0.283
    1UNL     H4   51  -0.163  -0.283  -0.036
    1UNL     H5   52  -0.095  -0.042   0.040
    1UNL     H6   53   0.178  -0.035  -0.024
    1UNL     H7   54   0.208  -0.371  -0.002
    1UNL     H8   55   0.308  -0.440  -0.197
    1UNL     H9   56   0.400  -0.522  -0.074
    1UNL    H10   57   0.496  -0.278  -0.154
    1UNL    H11   58   0.484  -0.273   0.117
    1UNL    H12   59   0.435  -0.434   0.267
    1UNL    H13   60   0.212  -0.313   0.253
    1UNL    H14   61   0.410  -0.141   0.355
    1UNL    H15   62   0.200  -0.045   0.235
    1UNL    H16   63   0.246   0.159   0.126
    1UNL    H17   64   0.461   0.133  -0.215
    1UNL    H18   65   0.665   0.041  -0.116
    1UNL    H19   66   0.608   0.057   0.051
    1UNL    H20   67   0.432  -0.088  -0.051
    1UNL    H21   68   0.624   0.277  -0.060
    1UNL    H22   69   0.409   0.418  -0.174
    1UNL    H23   70   0.514   0.422   0.110
    1UNL    H24   71   0.271   0.328  -0.016
    1UNL    H25   72   0.384   0.253   0.253
    1UNL    H26   73   0.559   0.082   0.262
    1UNL    H27   74  -0.077   0.165  -0.220
    1UNL    H28   75  -0.520   0.175  -0.365
    1UNL    H29   76  -0.649   0.056  -0.330
    1UNL    H30   77  -0.723   0.256  -0.196
    1UNL    H31   78  -0.556   0.302  -0.165
    1UNL    H32   79  -0.540  -0.077   0.165
    1UNL    H33   80  -0.648   0.088   0.398
    1UNL    H34   81  -0.784   0.299   0.435
    1UNL    H35   82  -0.852   0.441   0.247
    1UNL    H36   83  -0.753   0.416   0.014
    1UNL    H37   84  -0.574  -0.140  -0.130
    1UNL    H38   85  -0.386  -0.222  -0.006
    1UNL    H39   86  -0.329  -0.062   0.049
    1UNL    H40   87  -0.300  -0.186  -0.234
   0.00000   0.00000   0.00000   0.00000   0.00000   0.00000   0.00000   0.00000   0.00000
Generated with MDTraj, t= 71.0
 87
    1UNL     C1    1   0.079  -0.226  -0.257
    1UNL     C2    2  -0.045  -0.258  -0.223
    1UNL     C3    3  -0.118  -0.205  -0.105
    1UNL     C4    4  -0.031  -0.108  -0.029
    1UNL     O1    5   0.066  -0.178   0.045
    1UNL     C5    6   0.192  -0.123   0.035
    1UNL     O2    7   0.269  -0.195  -0.053
    1UNL     C6    8   0.296  -0.329   0.002
    1UNL     C7    9   0.362  -0.417  -0.116
    1UNL     O3   10   0.474  -0.361  -0.176
    1UNL     C8   11   0.389  -0.322   0.123
    1UNL     O4   12   0.438  -0.453   0.168
    1UNL     C9   13   0.323  -0.244   0.233
    1UNL     O5   14   0.420  -0.213   0.335
    1UNL    C10   15   0.266  -0.105   0.175
    1UNL     O6   16   0.383  -0.025   0.168
    1UNL    C11   17   0.344   0.101   0.110
    1UNL     O7   18   0.343   0.090  -0.034
    1UNL    C12   19   0.469   0.125  -0.097
    1UNL    C13   20   0.575   0.019  -0.064
    1UNL     O8   21   0.515  -0.102  -0.065
    1UNL    C14   22   0.510   0.268  -0.086
    1UNL     O9   23   0.473   0.343  -0.199
    1UNL    C15   24   0.445   0.339   0.040
    1UNL    O10   25   0.325   0.400   0.011
    1UNL    C16   26   0.427   0.234   0.153
    1UNL    O11   27   0.555   0.198   0.200
    1UNL    O12   28   0.013   0.003  -0.102
    1UNL    C17   29  -0.089   0.072  -0.163
    1UNL    C18   30  -0.214   0.016  -0.178
    1UNL    C19   31  -0.333   0.091  -0.238
    1UNL    O13   32  -0.315   0.205  -0.288
    1UNL     N1   33  -0.457   0.035  -0.232
    1UNL    C20   34  -0.563   0.114  -0.291
    1UNL    C21   35  -0.608   0.216  -0.190
    1UNL    C22   36  -0.611   0.162  -0.050
    1UNL    C23   37  -0.557   0.041  -0.015
    1UNL     N2   38  -0.578   0.019   0.124
    1UNL    C24   39  -0.657   0.125   0.173
    1UNL    C25   40  -0.708   0.141   0.300
    1UNL    C26   41  -0.775   0.262   0.327
    1UNL    C27   42  -0.787   0.362   0.223
    1UNL    C28   43  -0.743   0.337   0.095
    1UNL    C29   44  -0.681   0.210   0.069
    1UNL    C30   45  -0.490  -0.049  -0.114
    1UNL    C31   46  -0.364  -0.118  -0.044
    1UNL    C32   47  -0.242  -0.129  -0.148
    1UNL     H1   48   0.142  -0.160  -0.194
    1UNL     H2   49   0.133  -0.272  -0.338
    1UNL     H3   50  -0.085  -0.338  -0.291
    1UNL     H4   51  -0.150  -0.287  -0.037
    1UNL     H5   52  -0.087  -0.058   0.055
    1UNL     H6   53   0.178  -0.034  -0.029
    1UNL     H7   54   0.201  -0.380   0.029
    1UNL     H8   55   0.298  -0.423  -0.202
    1UNL     H9   56   0.374  -0.518  -0.089
    1UNL    H10   57   0.476  -0.263  -0.148
    1UNL    H11   58   0.491  -0.278   0.108
    1UNL    H12   59   0.352  -0.498   0.183
    1UNL    H13   60   0.241  -0.307   0.286
    1UNL    H14   61   0.447  -0.293   0.382
    1UNL    H15   62   0.191  -0.066   0.245
    1UNL    H16   63   0.241   0.132   0.135
    1UNL    H17   64   0.452   0.113  -0.208
    1UNL    H18   65   0.659   0.015  -0.136
    1UNL    H19   66   0.615   0.036   0.036
    1UNL    H20   67   0.432  -0.088  -0.008
    1UNL    H21   68   0.617   0.273  -0.077
    1UNL    H22   69   0.376   0.363  -0.194
    1UNL    H23   70   0.504   0.424   0.082
    1UNL    H24   71   0.261   0.330   0.003
    1UNL    H25   72   0.371   0.265   0.247
    1UNL    H26   73   0.564   0.121   0.257
    1UNL    H27   74  -0.061   0.166  -0.204
    1UNL    H28   75  -0.514   0.166  -0.375
    1UNL    H29   76  -0.647   0.047  -0.322
    1UNL    H30   77  -0.712   0.260  -0.219
    1UNL    H31   78  -0.538   0.299  -0.191
    1UNL    H32   79  -0.553  -0.060   0.186
    1UNL    H33   80  -0.684   0.081   0.380
    1UNL    H34   81  -0.803   0.275   0.425
    1UNL    H35   82  -0.842   0.450   0.237
    1UNL    H36   83  -0.766   0.394   0.010
    1UNL    H37   84  -0.562  -0.116  -0.162
    1UNL    H38   85  -0.381  -0.221   0.000
    1UNL    H39   86  -0.314  -0.059   0.038
    1UNL    H40   87  -0.287  -0.178  -0.238
   0.00000   0.00000   0.00000   0.00000   0.00000   0.00000   0.00000   0.00000   0.00000
Generated with MDTraj, t= 72.0
 87
    1UNL     C1    1   0.040  -0.204  -0.276
    1UNL     C2    2  -0.041  -0.264  -0.188
    1UNL     C3    3  -0.122  -0.198  -0.082
    1UNL     C4    4  -0.028  -0.101  -0.002
    1UNL     O1    5   0.068  -0.171   0.079
    1UNL     C5    6   0.199  -0.131   0.041
    1UNL     O2    7   0.266  -0.205  -0.052
    1UNL     C6    8   0.291  -0.338  -0.002
    1UNL     C7    9   0.340  -0.431  -0.116
    1UNL     O3   10   0.451  -0.376  -0.179
    1UNL     C8   11   0.390  -0.333   0.121
    1UNL     O4   12   0.431  -0.463   0.172
    1UNL     C9   13   0.332  -0.253   0.230
    1UNL     O5   14   0.426  -0.225   0.334
    1UNL    C10   15   0.286  -0.115   0.173
    1UNL     O6   16   0.395  -0.023   0.160
    1UNL    C11   17   0.348   0.103   0.107
    1UNL     O7   18   0.334   0.100  -0.037
    1UNL    C12   19   0.462   0.137  -0.106
    1UNL    C13   20   0.566   0.038  -0.060
    1UNL     O8   21   0.524  -0.094  -0.081
    1UNL    C14   22   0.509   0.282  -0.090
    1UNL     O9   23   0.481   0.358  -0.203
    1UNL    C15   24   0.419   0.338   0.033
    1UNL    O10   25   0.293   0.369  -0.019
    1UNL    C16   26   0.425   0.236   0.152
    1UNL    O11   27   0.558   0.196   0.177
    1UNL    O12   28   0.021   0.011  -0.078
    1UNL    C17   29  -0.076   0.069  -0.148
    1UNL    C18   30  -0.196   0.014  -0.168
    1UNL    C19   31  -0.299   0.097  -0.232
    1UNL    O13   32  -0.268   0.210  -0.277
    1UNL     N1   33  -0.429   0.054  -0.221
    1UNL    C20   34  -0.530   0.142  -0.292
    1UNL    C21   35  -0.607   0.228  -0.188
    1UNL    C22   36  -0.621   0.164  -0.054
    1UNL    C23   37  -0.558   0.042  -0.025
    1UNL     N2   38  -0.586   0.011   0.110
    1UNL    C24   39  -0.659   0.111   0.172
    1UNL    C25   40  -0.718   0.136   0.296
    1UNL    C26   41  -0.782   0.260   0.323
    1UNL    C27   42  -0.804   0.352   0.216
    1UNL    C28   43  -0.762   0.316   0.092
    1UNL    C29   44  -0.689   0.199   0.067
    1UNL    C30   45  -0.484  -0.038  -0.118
    1UNL    C31   46  -0.370  -0.126  -0.057
    1UNL    C32   47  -0.236  -0.123  -0.143
    1UNL     H1   48   0.063  -0.098  -0.273
    1UNL     H2   49   0.097  -0.249  -0.349
    1UNL     H3   50  -0.048  -0.365  -0.212
    1UNL     H4   51  -0.161  -0.273  -0.010
    1UNL     H5   52  -0.092  -0.055   0.078
    1UNL     H6   53   0.194  -0.036  -0.016
    1UNL     H7   54   0.189  -0.376   0.022
    1UNL     H8   55   0.262  -0.463  -0.181
    1UNL     H9   56   0.375  -0.523  -0.081
    1UNL    H10   57   0.471  -0.294  -0.130
    1UNL    H11   58   0.493  -0.296   0.091
    1UNL    H12   59   0.380  -0.476   0.254
    1UNL    H13   60   0.236  -0.306   0.264
    1UNL    H14   61   0.381  -0.160   0.389
    1UNL    H15   62   0.216  -0.073   0.244
    1UNL    H16   63   0.246   0.128   0.144
    1UNL    H17   64   0.450   0.111  -0.216
    1UNL    H18   65   0.667   0.057  -0.099
    1UNL    H19   66   0.569   0.046   0.049
    1UNL    H20   67   0.424  -0.095  -0.070
    1UNL    H21   68   0.617   0.296  -0.083
    1UNL    H22   69   0.384   0.366  -0.208
    1UNL    H23   70   0.449   0.441   0.057
    1UNL    H24   71   0.260   0.280  -0.052
    1UNL    H25   72   0.377   0.263   0.249
    1UNL    H26   73   0.577   0.140   0.262
    1UNL    H27   74  -0.055   0.169  -0.187
    1UNL    H28   75  -0.466   0.195  -0.363
    1UNL    H29   76  -0.610   0.076  -0.337
    1UNL    H30   77  -0.718   0.241  -0.226
    1UNL    H31   78  -0.562   0.325  -0.172
    1UNL    H32   79  -0.554  -0.072   0.166
    1UNL    H33   80  -0.710   0.056   0.368
    1UNL    H34   81  -0.804   0.294   0.428
    1UNL    H35   82  -0.868   0.442   0.226
    1UNL    H36   83  -0.790   0.367  -0.002
    1UNL    H37   84  -0.565  -0.093  -0.170
    1UNL    H38   85  -0.397  -0.237  -0.042
    1UNL    H39   86  -0.336  -0.086   0.038
    1UNL    H40   87  -0.262  -0.173  -0.240
   0.00000   0.00000   0.00000   0.00000   0.00000   0.00000   0.00000   0.00000   0.00000
Generated with MDTraj, t= 73.0
 87
    1UNL     C1    1   0.023  -0.222  -0.257
    1UNL     C2    2  -0.035  -0.265  -0.145
    1UNL     C3    3  -0.118  -0.185  -0.059
    1UNL     C4    4  -0.032  -0.088   0.032
    1UNL     O1    5   0.069  -0.162   0.106
    1UNL     C5    6   0.199  -0.128   0.055
    1UNL     O2    7   0.260  -0.216  -0.044
    1UNL     C6    8   0.296  -0.346   0.011
    1UNL     C7    9   0.334  -0.440  -0.107
    1UNL     O3   10   0.459  -0.404  -0.164
    1UNL     C8   11   0.399  -0.336   0.119
    1UNL     O4   12   0.421  -0.463   0.168
    1UNL     C9   13   0.343  -0.250   0.228
    1UNL     O5   14   0.443  -0.229   0.329
    1UNL    C10   15   0.296  -0.111   0.176
    1UNL     O6   16   0.400  -0.029   0.146
    1UNL    C11   17   0.343   0.096   0.096
    1UNL     O7   18   0.332   0.095  -0.050
    1UNL    C12   19   0.451   0.139  -0.120
    1UNL    C13   20   0.558   0.039  -0.104
    1UNL     O8   21   0.518  -0.098  -0.121
    1UNL    C14   22   0.496   0.282  -0.098
    1UNL     O9   23   0.474   0.370  -0.202
    1UNL    C15   24   0.412   0.328   0.029
    1UNL    O10   25   0.287   0.367  -0.029
    1UNL    C16   26   0.421   0.223   0.147
    1UNL    O11   27   0.545   0.186   0.200
    1UNL    O12   28   0.020   0.032  -0.033
    1UNL    C17   29  -0.069   0.080  -0.123
    1UNL    C18   30  -0.188   0.033  -0.171
    1UNL    C19   31  -0.288   0.117  -0.246
    1UNL    O13   32  -0.248   0.227  -0.293
    1UNL     N1   33  -0.419   0.074  -0.234
    1UNL    C20   34  -0.525   0.158  -0.294
    1UNL    C21   35  -0.606   0.236  -0.188
    1UNL    C22   36  -0.615   0.163  -0.056
    1UNL    C23   37  -0.570   0.034  -0.031
    1UNL     N2   38  -0.597  -0.003   0.097
    1UNL    C24   39  -0.661   0.109   0.155
    1UNL    C25   40  -0.722   0.111   0.279
    1UNL    C26   41  -0.790   0.220   0.323
    1UNL    C27   42  -0.818   0.321   0.218
    1UNL    C28   43  -0.769   0.325   0.090
    1UNL    C29   44  -0.684   0.210   0.058
    1UNL    C30   45  -0.473  -0.028  -0.134
    1UNL    C31   46  -0.363  -0.093  -0.056
    1UNL    C32   47  -0.231  -0.103  -0.134
    1UNL     H1   48   0.016  -0.125  -0.302
    1UNL     H2   49   0.079  -0.288  -0.330
    1UNL     H3   50  -0.019  -0.373  -0.118
    1UNL     H4   51  -0.175  -0.255   0.005
    1UNL     H5   52  -0.110  -0.055   0.102
    1UNL     H6   53   0.204  -0.033   0.001
    1UNL     H7   54   0.200  -0.377   0.060
    1UNL     H8   55   0.261  -0.447  -0.185
    1UNL     H9   56   0.334  -0.537  -0.066
    1UNL    H10   57   0.462  -0.307  -0.176
    1UNL    H11   58   0.494  -0.280   0.088
    1UNL    H12   59   0.507  -0.465   0.216
    1UNL    H13   60   0.260  -0.299   0.289
    1UNL    H14   61   0.531  -0.205   0.289
    1UNL    H15   62   0.258  -0.055   0.261
    1UNL    H16   63   0.242   0.124   0.134
    1UNL    H17   64   0.425   0.123  -0.229
    1UNL    H18   65   0.640   0.055  -0.176
    1UNL    H19   66   0.602   0.044  -0.003
    1UNL    H20   67   0.428  -0.114  -0.084
    1UNL    H21   68   0.605   0.291  -0.078
    1UNL    H22   69   0.377   0.382  -0.202
    1UNL    H23   70   0.443   0.423   0.072
    1UNL    H24   71   0.245   0.280  -0.041
    1UNL    H25   72   0.370   0.258   0.237
    1UNL    H26   73   0.542   0.103   0.248
    1UNL    H27   74  -0.025   0.172  -0.167
    1UNL    H28   75  -0.465   0.228  -0.353
    1UNL    H29   76  -0.588   0.085  -0.353
    1UNL    H30   77  -0.714   0.248  -0.227
    1UNL    H31   78  -0.559   0.332  -0.169
    1UNL    H32   79  -0.605  -0.099   0.139
    1UNL    H33   80  -0.703   0.022   0.347
    1UNL    H34   81  -0.813   0.237   0.424
    1UNL    H35   82  -0.891   0.394   0.246
    1UNL    H36   83  -0.788   0.391   0.009
    1UNL    H37   84  -0.539  -0.097  -0.191
    1UNL    H38   85  -0.396  -0.196  -0.015
    1UNL    H39   86  -0.340  -0.026   0.023
    1UNL    H40   87  -0.253  -0.167  -0.223
   0.00000   0.00000   0.00000   0.00000   0.00000   0.00000   0.00000   0.00000   0.00000
Generated with MDTraj, t= 74.0
 87
    1UNL     C1    1   0.042  -0.213  -0.238
    1UNL     C2    2  -0.034  -0.261  -0.139
    1UNL     C3    3  -0.117  -0.182  -0.041
    1UNL     C4    4  -0.035  -0.086   0.046
    1UNL     O1    5   0.069  -0.165   0.113
    1UNL     C5    6   0.195  -0.135   0.064
    1UNL     O2    7   0.250  -0.226  -0.036
    1UNL     C6    8   0.289  -0.358   0.014
    1UNL     C7    9   0.336  -0.456  -0.097
    1UNL     O3   10   0.460  -0.410  -0.141
    1UNL     C8   11   0.402  -0.340   0.115
    1UNL     O4   12   0.439  -0.463   0.177
    1UNL     C9   13   0.366  -0.240   0.230
    1UNL     O5   14   0.480  -0.201   0.306
    1UNL    C10   15   0.303  -0.109   0.173
    1UNL     O6   16   0.405  -0.013   0.144
    1UNL    C11   17   0.347   0.106   0.097
    1UNL     O7   18   0.323   0.101  -0.040
    1UNL    C12   19   0.434   0.124  -0.117
    1UNL    C13   20   0.529   0.000  -0.111
    1UNL     O8   21   0.471  -0.111  -0.173
    1UNL    C14   22   0.492   0.267  -0.093
    1UNL     O9   23   0.472   0.355  -0.201
    1UNL    C15   24   0.426   0.339   0.030
    1UNL    O10   25   0.297   0.384  -0.001
    1UNL    C16   26   0.432   0.234   0.139
    1UNL    O11   27   0.562   0.193   0.166
    1UNL    O12   28   0.020   0.019  -0.032
    1UNL    C17   29  -0.065   0.094  -0.104
    1UNL    C18   30  -0.188   0.048  -0.145
    1UNL    C19   31  -0.278   0.123  -0.229
    1UNL    O13   32  -0.237   0.218  -0.296
    1UNL     N1   33  -0.410   0.094  -0.228
    1UNL    C20   34  -0.518   0.180  -0.288
    1UNL    C21   35  -0.590   0.263  -0.184
    1UNL    C22   36  -0.622   0.173  -0.060
    1UNL    C23   37  -0.570   0.046  -0.049
    1UNL     N2   38  -0.612  -0.006   0.069
    1UNL    C24   39  -0.684   0.083   0.141
    1UNL    C25   40  -0.755   0.090   0.260
    1UNL    C26   41  -0.818   0.206   0.307
    1UNL    C27   42  -0.824   0.322   0.225
    1UNL    C28   43  -0.767   0.311   0.100
    1UNL    C29   44  -0.702   0.194   0.055
    1UNL    C30   45  -0.466  -0.019  -0.141
    1UNL    C31   46  -0.361  -0.101  -0.070
    1UNL    C32   47  -0.223  -0.093  -0.122
    1UNL     H1   48   0.039  -0.115  -0.274
    1UNL     H2   49   0.106  -0.278  -0.293
    1UNL     H3   50  -0.018  -0.360  -0.109
    1UNL     H4   51  -0.162  -0.256   0.024
    1UNL     H5   52  -0.094  -0.043   0.126
    1UNL     H6   53   0.187  -0.037   0.014
    1UNL     H7   54   0.195  -0.392   0.066
    1UNL     H8   55   0.256  -0.460  -0.174
    1UNL     H9   56   0.350  -0.558  -0.064
    1UNL    H10   57   0.456  -0.320  -0.188
    1UNL    H11   58   0.500  -0.306   0.065
    1UNL    H12   59   0.457  -0.546   0.125
    1UNL    H13   60   0.283  -0.295   0.280
    1UNL    H14   61   0.522  -0.133   0.246
    1UNL    H15   62   0.257  -0.053   0.256
    1UNL    H16   63   0.251   0.130   0.147
    1UNL    H17   64   0.398   0.138  -0.220
    1UNL    H18   65   0.633   0.012  -0.148
    1UNL    H19   66   0.539  -0.030  -0.006
    1UNL    H20   67   0.389  -0.134  -0.125
    1UNL    H21   68   0.607   0.270  -0.087
    1UNL    H22   69   0.374   0.365  -0.217
    1UNL    H23   70   0.471   0.431   0.065
    1UNL    H24   71   0.243   0.306  -0.031
    1UNL    H25   72   0.395   0.264   0.235
    1UNL    H26   73   0.563   0.099   0.202
    1UNL    H27   74  -0.026   0.186  -0.146
    1UNL    H28   75  -0.473   0.241  -0.365
    1UNL    H29   76  -0.587   0.102  -0.329
    1UNL    H30   77  -0.680   0.311  -0.228
    1UNL    H31   78  -0.520   0.340  -0.148
    1UNL    H32   79  -0.571  -0.097   0.102
    1UNL    H33   80  -0.745   0.015   0.327
    1UNL    H34   81  -0.863   0.199   0.407
    1UNL    H35   82  -0.876   0.409   0.263
    1UNL    H36   83  -0.773   0.396   0.032
    1UNL    H37   84  -0.519  -0.085  -0.214
    1UNL    H38   85  -0.392  -0.211  -0.070
    1UNL    H39   86  -0.354  -0.070   0.032
    1UNL    H40   87  -0.212  -0.149  -0.221
   0.00000   0.00000   0.00000   0.00000   0.00000   0.00000   0.00000   0.00000   0.00000
Generated with MDTraj, t= 75.0
 87
    1UNL     C1    1   0.070  -0.193  -0.224
    1UNL     C2    2  -0.018  -0.260  -0.156
    1UNL     C3    3  -0.109  -0.190  -0.054
    1UNL     C4    4  -0.027  -0.100   0.038
    1UNL     O1    5   0.072  -0.167   0.119
    1UNL     C5    6   0.199  -0.135   0.069
    1UNL     O2    7   0.252  -0.227  -0.024
    1UNL     C6    8   0.291  -0.348   0.037
    1UNL     C7    9   0.327  -0.446  -0.074
    1UNL     O3   10   0.431  -0.405  -0.152
    1UNL     C8   11   0.419  -0.333   0.124
    1UNL     O4   12   0.468  -0.455   0.180
    1UNL     C9   13   0.374  -0.236   0.237
    1UNL     O5   14   0.489  -0.212   0.319
    1UNL    C10   15   0.306  -0.109   0.181
    1UNL     O6   16   0.410  -0.006   0.153
    1UNL    C11   17   0.348   0.109   0.105
    1UNL     O7   18   0.308   0.106  -0.033
    1UNL    C12   19   0.399   0.125  -0.136
    1UNL    C13   20   0.496  -0.002  -0.138
    1UNL     O8   21   0.431  -0.117  -0.182
    1UNL    C14   22   0.481   0.258  -0.118
    1UNL     O9   23   0.477   0.345  -0.228
    1UNL    C15   24   0.453   0.333   0.016
    1UNL    O10   25   0.331   0.398   0.014
    1UNL    C16   26   0.455   0.227   0.132
    1UNL    O11   27   0.586   0.175   0.141
    1UNL    O12   28   0.021   0.013  -0.024
    1UNL    C17   29  -0.061   0.076  -0.107
    1UNL    C18   30  -0.186   0.037  -0.148
    1UNL    C19   31  -0.276   0.133  -0.214
    1UNL    O13   32  -0.237   0.249  -0.244
    1UNL     N1   33  -0.414   0.098  -0.228
    1UNL    C20   34  -0.509   0.201  -0.277
    1UNL    C21   35  -0.567   0.275  -0.162
    1UNL    C22   36  -0.617   0.174  -0.058
    1UNL    C23   37  -0.570   0.046  -0.045
    1UNL     N2   38  -0.625  -0.012   0.064
    1UNL    C24   39  -0.713   0.077   0.123
    1UNL    C25   40  -0.788   0.065   0.239
    1UNL    C26   41  -0.853   0.183   0.271
    1UNL    C27   42  -0.833   0.305   0.209
    1UNL    C28   43  -0.756   0.314   0.094
    1UNL    C29   44  -0.705   0.194   0.052
    1UNL    C30   45  -0.466  -0.014  -0.139
    1UNL    C31   46  -0.363  -0.093  -0.059
    1UNL    C32   47  -0.230  -0.101  -0.130
    1UNL     H1   48   0.086  -0.086  -0.194
    1UNL     H2   49   0.115  -0.242  -0.308
    1UNL     H3   50  -0.051  -0.363  -0.181
    1UNL     H4   51  -0.149  -0.269   0.007
    1UNL     H5   52  -0.091  -0.058   0.115
    1UNL     H6   53   0.186  -0.046   0.007
    1UNL     H7   54   0.208  -0.382   0.102
    1UNL     H8   55   0.243  -0.467  -0.150
    1UNL     H9   56   0.356  -0.539  -0.025
    1UNL    H10   57   0.418  -0.312  -0.171
    1UNL    H11   58   0.508  -0.285   0.074
    1UNL    H12   59   0.402  -0.500   0.236
    1UNL    H13   60   0.298  -0.285   0.299
    1UNL    H14   61   0.524  -0.123   0.302
    1UNL    H15   62   0.260  -0.066   0.275
    1UNL    H16   63   0.263   0.136   0.170
    1UNL    H17   64   0.346   0.129  -0.230
    1UNL    H18   65   0.577   0.016  -0.211
    1UNL    H19   66   0.541  -0.020  -0.041
    1UNL    H20   67   0.333  -0.109  -0.165
    1UNL    H21   68   0.587   0.218  -0.103
    1UNL    H22   69   0.385   0.376  -0.238
    1UNL    H23   70   0.522   0.415   0.033
    1UNL    H24   71   0.257   0.335   0.004
    1UNL    H25   72   0.437   0.267   0.229
    1UNL    H26   73   0.583   0.079   0.172
    1UNL    H27   74  -0.032   0.174  -0.135
    1UNL    H28   75  -0.449   0.262  -0.342
    1UNL    H29   76  -0.590   0.147  -0.333
    1UNL    H30   77  -0.648   0.333  -0.195
    1UNL    H31   78  -0.488   0.342  -0.119
    1UNL    H32   79  -0.603  -0.107   0.102
    1UNL    H33   80  -0.786  -0.027   0.305
    1UNL    H34   81  -0.912   0.184   0.360
    1UNL    H35   82  -0.892   0.390   0.238
    1UNL    H36   83  -0.748   0.411   0.049
    1UNL    H37   84  -0.528  -0.087  -0.197
    1UNL    H38   85  -0.394  -0.191  -0.028
    1UNL    H39   86  -0.348  -0.041   0.036
    1UNL    H40   87  -0.250  -0.143  -0.233
   0.00000   0.00000   0.00000   0.00000   0.00000   0.00000   0.00000   0.00000   0.00000
Generated with MDTraj, t= 76.0
 87
    1UNL     C1    1   0.072  -0.185  -0.239
    1UNL     C2    2  -0.014  -0.244  -0.161
    1UNL     C3    3  -0.099  -0.175  -0.055
    1UNL     C4    4  -0.017  -0.085   0.043
    1UNL     O1    5   0.080  -0.142   0.135
    1UNL     C5    6   0.203  -0.131   0.071
    1UNL     O2    7   0.248  -0.237  -0.021
    1UNL     C6    8   0.295  -0.355   0.046
    1UNL     C7    9   0.325  -0.458  -0.066
    1UNL     O3   10   0.404  -0.401  -0.158
    1UNL     C8   11   0.416  -0.324   0.141
    1UNL     O4   12   0.476  -0.430   0.198
    1UNL     C9   13   0.359  -0.234   0.246
    1UNL     O5   14   0.449  -0.223   0.351
    1UNL    C10   15   0.301  -0.106   0.188
    1UNL     O6   16   0.408  -0.019   0.149
    1UNL    C11   17   0.367   0.108   0.096
    1UNL     O7   18   0.305   0.116  -0.038
    1UNL    C12   19   0.390   0.129  -0.152
    1UNL    C13   20   0.491   0.004  -0.170
    1UNL     O8   21   0.411  -0.104  -0.214
    1UNL    C14   22   0.488   0.256  -0.140
    1UNL     O9   23   0.447   0.364  -0.234
    1UNL    C15   24   0.476   0.311   0.000
    1UNL    O10   25   0.349   0.364   0.013
    1UNL    C16   26   0.492   0.204   0.111
    1UNL    O11   27   0.614   0.137   0.126
    1UNL    O12   28   0.036   0.032  -0.021
    1UNL    C17   29  -0.054   0.099  -0.095
    1UNL    C18   30  -0.175   0.053  -0.135
    1UNL    C19   31  -0.271   0.144  -0.194
    1UNL    O13   32  -0.234   0.260  -0.222
    1UNL     N1   33  -0.404   0.099  -0.211
    1UNL    C20   34  -0.500   0.192  -0.269
    1UNL    C21   35  -0.554   0.273  -0.150
    1UNL    C22   36  -0.602   0.173  -0.041
    1UNL    C23   37  -0.555   0.043  -0.036
    1UNL     N2   38  -0.634  -0.029   0.053
    1UNL    C24   39  -0.727   0.065   0.106
    1UNL    C25   40  -0.819   0.054   0.218
    1UNL    C26   41  -0.891   0.165   0.253
    1UNL    C27   42  -0.868   0.286   0.192
    1UNL    C28   43  -0.769   0.308   0.101
    1UNL    C29   44  -0.706   0.198   0.050
    1UNL    C30   45  -0.458  -0.015  -0.132
    1UNL    C31   46  -0.354  -0.102  -0.054
    1UNL    C32   47  -0.218  -0.085  -0.116
    1UNL     H1   48   0.085  -0.080  -0.227
    1UNL     H2   49   0.131  -0.253  -0.294
    1UNL     H3   50  -0.037  -0.347  -0.160
    1UNL     H4   51  -0.151  -0.250   0.001
    1UNL     H5   52  -0.085  -0.042   0.116
    1UNL     H6   53   0.202  -0.048  -0.001
    1UNL     H7   54   0.205  -0.388   0.098
    1UNL     H8   55   0.223  -0.485  -0.115
    1UNL     H9   56   0.375  -0.553  -0.035
    1UNL    H10   57   0.374  -0.306  -0.177
    1UNL    H11   58   0.488  -0.273   0.074
    1UNL    H12   59   0.464  -0.431   0.295
    1UNL    H13   60   0.271  -0.281   0.288
    1UNL    H14   61   0.509  -0.149   0.326
    1UNL    H15   62   0.253  -0.064   0.281
    1UNL    H16   63   0.295   0.151   0.167
    1UNL    H17   64   0.326   0.138  -0.237
    1UNL    H18   65   0.566   0.032  -0.245
    1UNL    H19   66   0.547  -0.008  -0.078
    1UNL    H20   67   0.351  -0.127  -0.139
    1UNL    H21   68   0.598   0.228  -0.154
    1UNL    H22   69   0.361   0.400  -0.205
    1UNL    H23   70   0.546   0.395   0.003
    1UNL    H24   71   0.285   0.295  -0.007
    1UNL    H25   72   0.483   0.258   0.203
    1UNL    H26   73   0.595   0.048   0.157
    1UNL    H27   74  -0.021   0.200  -0.120
    1UNL    H28   75  -0.443   0.250  -0.338
    1UNL    H29   76  -0.580   0.136  -0.326
    1UNL    H30   77  -0.632   0.332  -0.182
    1UNL    H31   78  -0.478   0.344  -0.103
    1UNL    H32   79  -0.632  -0.130   0.073
    1UNL    H33   80  -0.824  -0.039   0.276
    1UNL    H34   81  -0.963   0.163   0.334
    1UNL    H35   82  -0.927   0.373   0.221
    1UNL    H36   83  -0.763   0.411   0.064
    1UNL    H37   84  -0.516  -0.077  -0.205
    1UNL    H38   85  -0.378  -0.202  -0.047
    1UNL    H39   86  -0.351  -0.075   0.054
    1UNL    H40   87  -0.245  -0.116  -0.221
   0.00000   0.00000   0.00000   0.00000   0.00000   0.00000   0.00000   0.00000   0.00000
Generated with MDTraj, t= 77.0
 87
    1UNL     C1    1   0.064  -0.156  -0.232
    1UNL     C2    2  -0.002  -0.214  -0.137
    1UNL     C3    3  -0.101  -0.157  -0.045
    1UNL     C4    4  -0.029  -0.070   0.060
    1UNL     O1    5   0.072  -0.150   0.128
    1UNL     C5    6   0.204  -0.129   0.079
    1UNL     O2    7   0.254  -0.227  -0.012
    1UNL     C6    8   0.285  -0.351   0.045
    1UNL     C7    9   0.324  -0.460  -0.063
    1UNL     O3   10   0.439  -0.412  -0.128
    1UNL     C8   11   0.406  -0.340   0.142
    1UNL     O4   12   0.441  -0.460   0.204
    1UNL     C9   13   0.354  -0.238   0.255
    1UNL     O5   14   0.446  -0.204   0.358
    1UNL    C10   15   0.308  -0.100   0.190
    1UNL     O6   16   0.433  -0.032   0.149
    1UNL    C11   17   0.400   0.096   0.087
    1UNL     O7   18   0.330   0.096  -0.041
    1UNL    C12   19   0.402   0.121  -0.156
    1UNL    C13   20   0.492  -0.001  -0.188
    1UNL     O8   21   0.409  -0.114  -0.223
    1UNL    C14   22   0.490   0.255  -0.141
    1UNL     O9   23   0.430   0.359  -0.227
    1UNL    C15   24   0.495   0.315   0.000
    1UNL    O10   25   0.369   0.379   0.033
    1UNL    C16   26   0.526   0.187   0.095
    1UNL    O11   27   0.639   0.127   0.035
    1UNL    O12   28   0.026   0.048   0.003
    1UNL    C17   29  -0.060   0.114  -0.081
    1UNL    C18   30  -0.175   0.070  -0.132
    1UNL    C19   31  -0.267   0.159  -0.196
    1UNL    O13   32  -0.243   0.274  -0.229
    1UNL     N1   33  -0.394   0.112  -0.214
    1UNL    C20   34  -0.504   0.196  -0.262
    1UNL    C21   35  -0.566   0.276  -0.140
    1UNL    C22   36  -0.604   0.177  -0.040
    1UNL    C23   37  -0.562   0.050  -0.042
    1UNL     N2   38  -0.637  -0.019   0.045
    1UNL    C24   39  -0.727   0.058   0.118
    1UNL    C25   40  -0.835   0.031   0.216
    1UNL    C26   41  -0.919   0.133   0.236
    1UNL    C27   42  -0.909   0.259   0.175
    1UNL    C28   43  -0.808   0.285   0.092
    1UNL    C29   44  -0.716   0.184   0.057
    1UNL    C30   45  -0.458   0.002  -0.134
    1UNL    C31   46  -0.353  -0.085  -0.056
    1UNL    C32   47  -0.213  -0.076  -0.114
    1UNL     H1   48   0.047  -0.054  -0.255
    1UNL     H2   49   0.117  -0.227  -0.301
    1UNL     H3   50   0.020  -0.319  -0.111
    1UNL     H4   51  -0.152  -0.237   0.004
    1UNL     H5   52  -0.095  -0.037   0.143
    1UNL     H6   53   0.200  -0.039   0.015
    1UNL     H7   54   0.204  -0.386   0.108
    1UNL     H8   55   0.237  -0.485  -0.138
    1UNL     H9   56   0.348  -0.560  -0.016
    1UNL    H10   57   0.434  -0.314  -0.138
    1UNL    H11   58   0.494  -0.308   0.086
    1UNL    H12   59   0.443  -0.436   0.298
    1UNL    H13   60   0.268  -0.277   0.305
    1UNL    H14   61   0.499  -0.123   0.332
    1UNL    H15   62   0.258  -0.041   0.271
    1UNL    H16   63   0.318   0.135   0.151
    1UNL    H17   64   0.328   0.133  -0.236
    1UNL    H18   65   0.569   0.031  -0.259
    1UNL    H19   66   0.551  -0.022  -0.100
    1UNL    H20   67   0.338  -0.114  -0.157
    1UNL    H21   68   0.593   0.221  -0.165
    1UNL    H22   69   0.354   0.401  -0.180
    1UNL    H23   70   0.578   0.388   0.006
    1UNL    H24   71   0.298   0.308   0.043
    1UNL    H25   72   0.551   0.215   0.197
    1UNL    H26   73   0.656   0.031   0.071
    1UNL    H27   74  -0.012   0.212  -0.097
    1UNL    H28   75  -0.474   0.257  -0.343
    1UNL    H29   76  -0.583   0.128  -0.306
    1UNL    H30   77  -0.647   0.338  -0.158
    1UNL    H31   78  -0.483   0.343  -0.101
    1UNL    H32   79  -0.619  -0.116   0.067
    1UNL    H33   80  -0.841  -0.059   0.260
    1UNL    H34   81  -1.001   0.121   0.305
    1UNL    H35   82  -0.980   0.329   0.210
    1UNL    H36   83  -0.809   0.379   0.043
    1UNL    H37   84  -0.502  -0.055  -0.219
    1UNL    H38   85  -0.382  -0.182  -0.043
    1UNL    H39   86  -0.345  -0.059   0.051
    1UNL    H40   87  -0.214  -0.118  -0.217
   0.00000   0.00000   0.00000   0.00000   0.00000   0.00000   0.00000   0.00000   0.00000
Generated with MDTraj, t= 78.0
 87
    1UNL     C1    1   0.060  -0.125  -0.233
    1UNL     C2    2  -0.007  -0.198  -0.148
    1UNL     C3    3  -0.096  -0.146  -0.041
    1UNL     C4    4  -0.018  -0.068   0.070
    1UNL     O1    5   0.086  -0.147   0.134
    1UNL     C5    6   0.210  -0.119   0.077
    1UNL     O2    7   0.256  -0.210  -0.013
    1UNL     C6    8   0.280  -0.332   0.050
    1UNL     C7    9   0.333  -0.428  -0.055
    1UNL     O3   10   0.461  -0.392  -0.103
    1UNL     C8   11   0.380  -0.347   0.163
    1UNL     O4   12   0.362  -0.477   0.223
    1UNL     C9   13   0.357  -0.226   0.257
    1UNL     O5   14   0.472  -0.201   0.334
    1UNL    C10   15   0.327  -0.092   0.172
    1UNL     O6   16   0.444  -0.046   0.114
    1UNL    C11   17   0.414   0.091   0.080
    1UNL     O7   18   0.332   0.083  -0.039
    1UNL    C12   19   0.407   0.105  -0.156
    1UNL    C13   20   0.497  -0.012  -0.193
    1UNL     O8   21   0.413  -0.128  -0.200
    1UNL    C14   22   0.488   0.243  -0.157
    1UNL     O9   23   0.395   0.339  -0.223
    1UNL    C15   24   0.521   0.295  -0.023
    1UNL    O10   25   0.421   0.383   0.029
    1UNL    C16   26   0.550   0.171   0.070
    1UNL    O11   27   0.655   0.093   0.019
    1UNL    O12   28   0.024   0.065   0.025
    1UNL    C17   29  -0.060   0.129  -0.058
    1UNL    C18   30  -0.175   0.090  -0.113
    1UNL    C19   31  -0.265   0.176  -0.186
    1UNL    O13   32  -0.215   0.279  -0.229
    1UNL     N1   33  -0.398   0.141  -0.191
    1UNL    C20   34  -0.494   0.230  -0.255
    1UNL    C21   35  -0.600   0.269  -0.152
    1UNL    C22   36  -0.638   0.162  -0.056
    1UNL    C23   37  -0.575   0.038  -0.045
    1UNL     N2   38  -0.639  -0.034   0.063
    1UNL    C24   39  -0.741   0.042   0.115
    1UNL    C25   40  -0.844   0.013   0.201
    1UNL    C26   41  -0.925   0.108   0.231
    1UNL    C27   42  -0.932   0.232   0.171
    1UNL    C28   43  -0.844   0.263   0.068
    1UNL    C29   44  -0.742   0.166   0.041
    1UNL    C30   45  -0.451   0.016  -0.124
    1UNL    C31   46  -0.345  -0.073  -0.044
    1UNL    C32   47  -0.208  -0.057  -0.105
    1UNL     H1   48   0.046  -0.019  -0.236
    1UNL     H2   49   0.120  -0.160  -0.313
    1UNL     H3   50   0.014  -0.303  -0.153
    1UNL     H4   51  -0.156  -0.219   0.006
    1UNL     H5   52  -0.091  -0.047   0.153
    1UNL     H6   53   0.195  -0.017   0.034
    1UNL     H7   54   0.185  -0.363   0.095
    1UNL     H8   55   0.258  -0.420  -0.143
    1UNL     H9   56   0.340  -0.535  -0.024
    1UNL    H10   57   0.452  -0.302  -0.137
    1UNL    H11   58   0.480  -0.345   0.123
    1UNL    H12   59   0.391  -0.473   0.318
    1UNL    H13   60   0.272  -0.244   0.319
    1UNL    H14   61   0.532  -0.137   0.293
    1UNL    H15   62   0.288  -0.015   0.239
    1UNL    H16   63   0.346   0.130   0.158
    1UNL    H17   64   0.321   0.113  -0.228
    1UNL    H18   65   0.552   0.006  -0.286
    1UNL    H19   66   0.580  -0.021  -0.122
    1UNL    H20   67   0.375  -0.129  -0.108
    1UNL    H21   68   0.581   0.230  -0.213
    1UNL    H22   69   0.382   0.424  -0.175
    1UNL    H23   70   0.616   0.354  -0.034
    1UNL    H24   71   0.339   0.335   0.048
    1UNL    H25   72   0.574   0.205   0.173
    1UNL    H26   73   0.673   0.023   0.079
    1UNL    H27   74  -0.025   0.229  -0.075
    1UNL    H28   75  -0.451   0.315  -0.301
    1UNL    H29   76  -0.544   0.174  -0.339
    1UNL    H30   77  -0.685   0.321  -0.191
    1UNL    H31   78  -0.554   0.343  -0.084
    1UNL    H32   79  -0.618  -0.129   0.083
    1UNL    H33   80  -0.851  -0.096   0.243
    1UNL    H34   81  -0.994   0.084   0.311
    1UNL    H35   82  -1.019   0.293   0.198
    1UNL    H36   83  -0.846   0.359   0.019
    1UNL    H37   84  -0.487  -0.040  -0.212
    1UNL    H38   85  -0.376  -0.173  -0.042
    1UNL    H39   86  -0.351  -0.056   0.063
    1UNL    H40   87  -0.216  -0.090  -0.212
   0.00000   0.00000   0.00000   0.00000   0.00000   0.00000   0.00000   0.00000   0.00000
Generated with MDTraj, t= 79.0
 87
    1UNL     C1    1   0.077  -0.101  -0.220
    1UNL     C2    2   0.012  -0.178  -0.136
    1UNL     C3    3  -0.092  -0.130  -0.038
    1UNL     C4    4  -0.017  -0.049   0.071
    1UNL     O1    5   0.083  -0.118   0.139
    1UNL     C5    6   0.214  -0.109   0.070
    1UNL     O2    7   0.257  -0.224  -0.016
    1UNL     C6    8   0.262  -0.354   0.046
    1UNL     C7    9   0.314  -0.459  -0.052
    1UNL     O3   10   0.434  -0.417  -0.103
    1UNL     C8   11   0.364  -0.349   0.169
    1UNL     O4   12   0.361  -0.467   0.246
    1UNL     C9   13   0.339  -0.229   0.260
    1UNL     O5   14   0.445  -0.223   0.353
    1UNL    C10   15   0.327  -0.088   0.180
    1UNL     O6   16   0.445  -0.042   0.128
    1UNL    C11   17   0.426   0.094   0.075
    1UNL     O7   18   0.347   0.092  -0.047
    1UNL    C12   19   0.410   0.112  -0.176
    1UNL    C13   20   0.510  -0.000  -0.208
    1UNL     O8   21   0.436  -0.118  -0.236
    1UNL    C14   22   0.494   0.241  -0.184
    1UNL     O9   23   0.402   0.341  -0.226
    1UNL    C15   24   0.546   0.283  -0.049
    1UNL    O10   25   0.469   0.390  -0.003
    1UNL    C16   26   0.558   0.161   0.055
    1UNL    O11   27   0.654   0.065   0.019
    1UNL    O12   28   0.032   0.078   0.031
    1UNL    C17   29  -0.053   0.148  -0.040
    1UNL    C18   30  -0.170   0.104  -0.088
    1UNL    C19   31  -0.264   0.191  -0.154
    1UNL    O13   32  -0.230   0.305  -0.185
    1UNL     N1   33  -0.399   0.146  -0.169
    1UNL    C20   34  -0.491   0.230  -0.240
    1UNL    C21   35  -0.613   0.271  -0.157
    1UNL    C22   36  -0.655   0.156  -0.071
    1UNL    C23   37  -0.576   0.045  -0.052
    1UNL     N2   38  -0.621  -0.031   0.053
    1UNL    C24   39  -0.745   0.026   0.094
    1UNL    C25   40  -0.840  -0.008   0.190
    1UNL    C26   41  -0.938   0.079   0.231
    1UNL    C27   42  -0.952   0.198   0.160
    1UNL    C28   43  -0.877   0.232   0.051
    1UNL    C29   44  -0.771   0.140   0.019
    1UNL    C30   45  -0.447   0.013  -0.117
    1UNL    C31   46  -0.346  -0.052  -0.019
    1UNL    C32   47  -0.206  -0.041  -0.091
    1UNL     H1   48   0.069   0.010  -0.219
    1UNL     H2   49   0.152  -0.129  -0.290
    1UNL     H3   50   0.030  -0.283  -0.155
    1UNL     H4   51  -0.137  -0.207   0.019
    1UNL     H5   52  -0.096  -0.029   0.148
    1UNL     H6   53   0.207  -0.009   0.017
    1UNL     H7   54   0.162  -0.380   0.086
    1UNL     H8   55   0.242  -0.483  -0.137
    1UNL     H9   56   0.336  -0.550   0.003
    1UNL    H10   57   0.422  -0.320  -0.130
    1UNL    H11   58   0.460  -0.338   0.124
    1UNL    H12   59   0.395  -0.464   0.339
    1UNL    H13   60   0.248  -0.243   0.314
    1UNL    H14   61   0.532  -0.193   0.320
    1UNL    H15   62   0.295  -0.013   0.249
    1UNL    H16   63   0.358   0.149   0.144
    1UNL    H17   64   0.320   0.111  -0.244
    1UNL    H18   65   0.571   0.025  -0.296
    1UNL    H19   66   0.588  -0.027  -0.136
    1UNL    H20   67   0.376  -0.134  -0.159
    1UNL    H21   68   0.574   0.239  -0.255
    1UNL    H22   69   0.444   0.431  -0.215
    1UNL    H23   70   0.648   0.327  -0.067
    1UNL    H24   71   0.377   0.365  -0.009
    1UNL    H25   72   0.585   0.212   0.154
    1UNL    H26   73   0.641  -0.017   0.065
    1UNL    H27   74  -0.037   0.251  -0.058
    1UNL    H28   75  -0.438   0.316  -0.270
    1UNL    H29   76  -0.531   0.185  -0.334
    1UNL    H30   77  -0.696   0.301  -0.222
    1UNL    H31   78  -0.587   0.361  -0.106
    1UNL    H32   79  -0.596  -0.122   0.083
    1UNL    H33   80  -0.831  -0.097   0.249
    1UNL    H34   81  -1.012   0.048   0.304
    1UNL    H35   82  -1.030   0.264   0.189
    1UNL    H36   83  -0.896   0.326  -0.003
    1UNL    H37   84  -0.466  -0.050  -0.204
    1UNL    H38   85  -0.377  -0.152   0.002
    1UNL    H39   86  -0.351  -0.009   0.079
    1UNL    H40   87  -0.215  -0.061  -0.201
   0.00000   0.00000   0.00000   0.00000   0.00000   0.00000   0.00000   0.00000   0.00000
Generated with MDTraj, t= 80.0
 87
    1UNL     C1    1   0.084  -0.087  -0.220
    1UNL     C2    2   0.002  -0.163  -0.150
    1UNL     C3    3  -0.093  -0.110  -0.043
    1UNL     C4    4  -0.008  -0.037   0.067
    1UNL     O1    5   0.084  -0.114   0.137
    1UNL     C5    6   0.215  -0.100   0.081
    1UNL     O2    7   0.246  -0.207  -0.009
    1UNL     C6    8   0.260  -0.336   0.055
    1UNL     C7    9   0.276  -0.460  -0.035
    1UNL     O3   10   0.384  -0.451  -0.125
    1UNL     C8   11   0.378  -0.321   0.162
    1UNL     O4   12   0.400  -0.436   0.243
    1UNL     C9   13   0.336  -0.212   0.262
    1UNL     O5   14   0.437  -0.195   0.358
    1UNL    C10   15   0.322  -0.081   0.188
    1UNL     O6   16   0.446  -0.044   0.134
    1UNL    C11   17   0.439   0.078   0.056
    1UNL     O7   18   0.358   0.075  -0.064
    1UNL    C12   19   0.436   0.099  -0.184
    1UNL    C13   20   0.501  -0.040  -0.214
    1UNL     O8   21   0.405  -0.140  -0.217
    1UNL    C14   22   0.519   0.226  -0.186
    1UNL     O9   23   0.435   0.330  -0.235
    1UNL    C15   24   0.572   0.271  -0.046
    1UNL    O10   25   0.493   0.371   0.001
    1UNL    C16   26   0.575   0.143   0.051
    1UNL    O11   27   0.685   0.063   0.006
    1UNL    O12   28   0.035   0.090   0.029
    1UNL    C17   29  -0.058   0.173  -0.023
    1UNL    C18   30  -0.179   0.128  -0.066
    1UNL    C19   31  -0.281   0.218  -0.118
    1UNL    O13   32  -0.265   0.338  -0.136
    1UNL     N1   33  -0.405   0.159  -0.161
    1UNL    C20   34  -0.496   0.239  -0.234
    1UNL    C21   35  -0.618   0.267  -0.152
    1UNL    C22   36  -0.654   0.148  -0.060
    1UNL    C23   37  -0.572   0.037  -0.047
    1UNL     N2   38  -0.628  -0.040   0.051
    1UNL    C24   39  -0.744   0.014   0.095
    1UNL    C25   40  -0.840  -0.034   0.185
    1UNL    C26   41  -0.959   0.042   0.200
    1UNL    C27   42  -0.973   0.159   0.129
    1UNL    C28   43  -0.879   0.208   0.043
    1UNL    C29   44  -0.764   0.135   0.028
    1UNL    C30   45  -0.454   0.016  -0.126
    1UNL    C31   46  -0.346  -0.052  -0.045
    1UNL    C32   47  -0.199  -0.017  -0.099
    1UNL     H1   48   0.079   0.019  -0.216
    1UNL     H2   49   0.175  -0.119  -0.267
    1UNL     H3   50   0.022  -0.270  -0.145
    1UNL     H4   51  -0.135  -0.193   0.007
    1UNL     H5   52  -0.088  -0.011   0.139
    1UNL     H6   53   0.210  -0.009   0.014
    1UNL     H7   54   0.167  -0.346   0.115
    1UNL     H8   55   0.187  -0.466  -0.100
    1UNL     H9   56   0.285  -0.548   0.023
    1UNL    H10   57   0.407  -0.358  -0.145
    1UNL    H11   58   0.468  -0.284   0.116
    1UNL    H12   59   0.441  -0.409   0.327
    1UNL    H13   60   0.246  -0.243   0.308
    1UNL    H14   61   0.522  -0.161   0.319
    1UNL    H15   62   0.295  -0.008   0.262
    1UNL    H16   63   0.367   0.141   0.112
    1UNL    H17   64   0.350   0.105  -0.256
    1UNL    H18   65   0.554  -0.048  -0.310
    1UNL    H19   66   0.572  -0.066  -0.135
    1UNL    H20   67   0.361  -0.144  -0.131
    1UNL    H21   68   0.596   0.213  -0.259
    1UNL    H22   69   0.469   0.414  -0.199
    1UNL    H23   70   0.676   0.309  -0.057
    1UNL    H24   71   0.398   0.344  -0.005
    1UNL    H25   72   0.603   0.182   0.155
    1UNL    H26   73   0.700  -0.030   0.051
    1UNL    H27   74  -0.036   0.278  -0.038
    1UNL    H28   75  -0.445   0.327  -0.264
    1UNL    H29   76  -0.521   0.195  -0.334
    1UNL    H30   77  -0.698   0.292  -0.226
    1UNL    H31   78  -0.615   0.356  -0.101
    1UNL    H32   79  -0.594  -0.120   0.098
    1UNL    H33   80  -0.827  -0.121   0.235
    1UNL    H34   81  -1.040   0.015   0.267
    1UNL    H35   82  -1.067   0.215   0.127
    1UNL    H36   83  -0.890   0.291  -0.020
    1UNL    H37   84  -0.473  -0.030  -0.222
    1UNL    H38   85  -0.360  -0.158  -0.023
    1UNL    H39   86  -0.359  -0.015   0.052
    1UNL    H40   87  -0.187  -0.015  -0.209
   0.00000   0.00000   0.00000   0.00000   0.00000   0.00000   0.00000   0.00000   0.00000
Generated with MDTraj, t= 81.0
 87
    1UNL     C1    1   0.076  -0.038  -0.224
    1UNL     C2    2   0.016  -0.133  -0.153
    1UNL     C3    3  -0.086  -0.100  -0.039
    1UNL     C4    4  -0.012  -0.021   0.080
    1UNL     O1    5   0.080  -0.100   0.147
    1UNL     C5    6   0.210  -0.094   0.087
    1UNL     O2    7   0.236  -0.204   0.005
    1UNL     C6    8   0.252  -0.323   0.078
    1UNL     C7    9   0.253  -0.439  -0.011
    1UNL     O3   10   0.360  -0.436  -0.107
    1UNL     C8   11   0.382  -0.315   0.164
    1UNL     O4   12   0.411  -0.441   0.225
    1UNL     C9   13   0.357  -0.207   0.276
    1UNL     O5   14   0.476  -0.188   0.350
    1UNL    C10   15   0.327  -0.077   0.188
    1UNL     O6   16   0.450  -0.048   0.123
    1UNL    C11   17   0.453   0.085   0.065
    1UNL     O7   18   0.365   0.095  -0.059
    1UNL    C12   19   0.441   0.084  -0.184
    1UNL    C13   20   0.495  -0.058  -0.195
    1UNL     O8   21   0.395  -0.147  -0.204
    1UNL    C14   22   0.543   0.194  -0.196
    1UNL     O9   23   0.500   0.303  -0.282
    1UNL    C15   24   0.590   0.251  -0.058
    1UNL    O10   25   0.505   0.350  -0.017
    1UNL    C16   26   0.597   0.132   0.042
    1UNL    O11   27   0.684   0.030   0.002
    1UNL    O12   28   0.041   0.109   0.039
    1UNL    C17   29  -0.063   0.182  -0.021
    1UNL    C18   30  -0.179   0.139  -0.078
    1UNL    C19   31  -0.290   0.229  -0.114
    1UNL    O13   32  -0.291   0.348  -0.091
    1UNL     N1   33  -0.407   0.174  -0.168
    1UNL    C20   34  -0.506   0.265  -0.224
    1UNL    C21   35  -0.630   0.276  -0.137
    1UNL    C22   36  -0.664   0.151  -0.054
    1UNL    C23   37  -0.583   0.037  -0.046
    1UNL     N2   38  -0.643  -0.057   0.031
    1UNL    C24   39  -0.763  -0.007   0.080
    1UNL    C25   40  -0.857  -0.064   0.159
    1UNL    C26   41  -0.972   0.000   0.184
    1UNL    C27   42  -0.996   0.132   0.128
    1UNL    C28   43  -0.900   0.193   0.053
    1UNL    C29   44  -0.780   0.122   0.029
    1UNL    C30   45  -0.454   0.034  -0.132
    1UNL    C31   46  -0.344  -0.053  -0.065
    1UNL    C32   47  -0.194  -0.009  -0.106
    1UNL     H1   48   0.056   0.064  -0.213
    1UNL     H2   49   0.153  -0.065  -0.299
    1UNL     H3   50   0.046  -0.235  -0.150
    1UNL     H4   51  -0.125  -0.193  -0.007
    1UNL     H5   52  -0.097   0.015   0.137
    1UNL     H6   53   0.208  -0.014   0.007
    1UNL     H7   54   0.164  -0.329   0.147
    1UNL     H8   55   0.162  -0.430  -0.068
    1UNL     H9   56   0.252  -0.528   0.042
    1UNL    H10   57   0.383  -0.344  -0.139
    1UNL    H11   58   0.465  -0.285   0.100
    1UNL    H12   59   0.485  -0.416   0.286
    1UNL    H13   60   0.277  -0.250   0.328
    1UNL    H14   61   0.543  -0.152   0.289
    1UNL    H15   62   0.307   0.000   0.261
    1UNL    H16   63   0.404   0.150   0.140
    1UNL    H17   64   0.365   0.101  -0.263
    1UNL    H18   65   0.546  -0.062  -0.294
    1UNL    H19   66   0.561  -0.086  -0.111
    1UNL    H20   67   0.352  -0.149  -0.114
    1UNL    H21   68   0.625   0.156  -0.259
    1UNL    H22   69   0.505   0.387  -0.231
    1UNL    H23   70   0.691   0.294  -0.062
    1UNL    H24   71   0.411   0.319  -0.025
    1UNL    H25   72   0.627   0.169   0.144
    1UNL    H26   73   0.718  -0.015   0.079
    1UNL    H27   74  -0.037   0.288  -0.037
    1UNL    H28   75  -0.456   0.358  -0.240
    1UNL    H29   76  -0.521   0.234  -0.329
    1UNL    H30   77  -0.718   0.323  -0.187
    1UNL    H31   78  -0.608   0.355  -0.075
    1UNL    H32   79  -0.613  -0.151   0.044
    1UNL    H33   80  -0.828  -0.168   0.205
    1UNL    H34   81  -1.038  -0.032   0.264
    1UNL    H35   82  -1.086   0.187   0.140
    1UNL    H36   83  -0.912   0.286  -0.005
    1UNL    H37   84  -0.495  -0.021  -0.218
    1UNL    H38   85  -0.368  -0.159  -0.087
    1UNL    H39   86  -0.359  -0.053   0.037
    1UNL    H40   87  -0.188  -0.017  -0.215
   0.00000   0.00000   0.00000   0.00000   0.00000   0.00000   0.00000   0.00000   0.00000
Generated with MDTraj, t= 82.0
 87
    1UNL     C1    1   0.063  -0.001  -0.219
    1UNL     C2    2   0.014  -0.095  -0.142
    1UNL     C3    3  -0.076  -0.071  -0.022
    1UNL     C4    4  -0.008  -0.002   0.098
    1UNL     O1    5   0.096  -0.076   0.153
    1UNL     C5    6   0.215  -0.091   0.078
    1UNL     O2    7   0.212  -0.216   0.006
    1UNL     C6    8   0.222  -0.335   0.085
    1UNL     C7    9   0.239  -0.456  -0.006
    1UNL     O3   10   0.348  -0.422  -0.095
    1UNL     C8   11   0.353  -0.326   0.173
    1UNL     O4   12   0.370  -0.445   0.246
    1UNL     C9   13   0.365  -0.203   0.257
    1UNL     O5   14   0.485  -0.197   0.328
    1UNL    C10   15   0.335  -0.074   0.172
    1UNL     O6   16   0.453  -0.035   0.111
    1UNL    C11   17   0.453   0.095   0.061
    1UNL     O7   18   0.378   0.105  -0.061
    1UNL    C12   19   0.460   0.077  -0.181
    1UNL    C13   20   0.485  -0.067  -0.210
    1UNL     O8   21   0.377  -0.151  -0.219
    1UNL    C14   22   0.578   0.165  -0.203
    1UNL     O9   23   0.564   0.249  -0.318
    1UNL    C15   24   0.611   0.251  -0.075
    1UNL    O10   25   0.513   0.347  -0.068
    1UNL    C16   26   0.601   0.149   0.050
    1UNL    O11   27   0.687   0.039   0.042
    1UNL    O12   28   0.026   0.140   0.062
    1UNL    C17   29  -0.080   0.209   0.003
    1UNL    C18   30  -0.183   0.155  -0.058
    1UNL    C19   31  -0.286   0.242  -0.114
    1UNL    O13   32  -0.283   0.363  -0.099
    1UNL     N1   33  -0.402   0.177  -0.157
    1UNL    C20   34  -0.512   0.272  -0.193
    1UNL    C21   35  -0.634   0.286  -0.101
    1UNL    C22   36  -0.664   0.143  -0.049
    1UNL    C23   37  -0.581   0.036  -0.062
    1UNL     N2   38  -0.645  -0.077  -0.013
    1UNL    C24   39  -0.769  -0.045   0.043
    1UNL    C25   40  -0.874  -0.103   0.120
    1UNL    C26   41  -0.984  -0.034   0.169
    1UNL    C27   42  -0.991   0.109   0.146
    1UNL    C28   43  -0.895   0.173   0.069
    1UNL    C29   44  -0.786   0.095   0.011
    1UNL    C30   45  -0.443   0.034  -0.121
    1UNL    C31   46  -0.331  -0.048  -0.041
    1UNL    C32   47  -0.191   0.009  -0.081
    1UNL     H1   48   0.070   0.104  -0.197
    1UNL     H2   49   0.103  -0.036  -0.311
    1UNL     H3   50   0.005  -0.201  -0.176
    1UNL     H4   51  -0.089  -0.172   0.014
    1UNL     H5   52  -0.085   0.019   0.172
    1UNL     H6   53   0.221  -0.016  -0.004
    1UNL     H7   54   0.131  -0.347   0.146
    1UNL     H8   55   0.153  -0.478  -0.065
    1UNL     H9   56   0.263  -0.541   0.047
    1UNL    H10   57   0.359  -0.322  -0.117
    1UNL    H11   58   0.440  -0.324   0.102
    1UNL    H12   59   0.442  -0.434   0.311
    1UNL    H13   60   0.295  -0.200   0.334
    1UNL    H14   61   0.552  -0.164   0.265
    1UNL    H15   62   0.315   0.006   0.246
    1UNL    H16   63   0.410   0.167   0.134
    1UNL    H17   64   0.384   0.112  -0.251
    1UNL    H18   65   0.541  -0.082  -0.305
    1UNL    H19   66   0.536  -0.104  -0.119
    1UNL    H20   67   0.304  -0.097  -0.188
    1UNL    H21   68   0.659   0.093  -0.229
    1UNL    H22   69   0.561   0.343  -0.287
    1UNL    H23   70   0.708   0.301  -0.065
    1UNL    H24   71   0.424   0.309  -0.059
    1UNL    H25   72   0.629   0.207   0.139
    1UNL    H26   73   0.668  -0.022   0.116
    1UNL    H27   74  -0.068   0.317   0.005
    1UNL    H28   75  -0.466   0.368  -0.201
    1UNL    H29   76  -0.530   0.254  -0.302
    1UNL    H30   77  -0.718   0.337  -0.151
    1UNL    H31   78  -0.619   0.351  -0.020
    1UNL    H32   79  -0.589  -0.158  -0.031
    1UNL    H33   80  -0.859  -0.207   0.151
    1UNL    H34   81  -1.053  -0.093   0.227
    1UNL    H35   82  -1.066   0.161   0.206
    1UNL    H36   83  -0.890   0.275   0.044
    1UNL    H37   84  -0.452  -0.010  -0.222
    1UNL    H38   85  -0.341  -0.158  -0.056
    1UNL    H39   86  -0.350  -0.033   0.059
    1UNL    H40   87  -0.183  -0.004  -0.189
   0.00000   0.00000   0.00000   0.00000   0.00000   0.00000   0.00000   0.00000   0.00000
Generated with MDTraj, t= 83.0
 87
    1UNL     C1    1   0.071   0.029  -0.202
    1UNL     C2    2   0.020  -0.078  -0.142
    1UNL     C3    3  -0.072  -0.065  -0.023
    1UNL     C4    4  -0.005  -0.000   0.102
    1UNL     O1    5   0.086  -0.079   0.169
    1UNL     C5    6   0.204  -0.075   0.094
    1UNL     O2    7   0.211  -0.188   0.003
    1UNL     C6    8   0.219  -0.312   0.072
    1UNL     C7    9   0.209  -0.425  -0.022
    1UNL     O3   10   0.324  -0.442  -0.108
    1UNL     C8   11   0.340  -0.315   0.174
    1UNL     O4   12   0.319  -0.431   0.255
    1UNL     C9   13   0.358  -0.194   0.260
    1UNL     O5   14   0.470  -0.196   0.343
    1UNL    C10   15   0.337  -0.058   0.177
    1UNL     O6   16   0.454  -0.031   0.091
    1UNL    C11   17   0.444   0.095   0.036
    1UNL     O7   18   0.390   0.106  -0.099
    1UNL    C12   19   0.481   0.051  -0.204
    1UNL    C13   20   0.492  -0.100  -0.199
    1UNL     O8   21   0.365  -0.160  -0.210
    1UNL    C14   22   0.610   0.131  -0.206
    1UNL     O9   23   0.616   0.199  -0.327
    1UNL    C15   24   0.613   0.246  -0.089
    1UNL    O10   25   0.523   0.343  -0.101
    1UNL    C16   26   0.588   0.162   0.043
    1UNL    O11   27   0.683   0.060   0.062
    1UNL    O12   28   0.030   0.140   0.069
    1UNL    C17   29  -0.072   0.216   0.014
    1UNL    C18   30  -0.181   0.167  -0.047
    1UNL    C19   31  -0.282   0.257  -0.101
    1UNL    O13   32  -0.275   0.378  -0.105
    1UNL     N1   33  -0.409   0.203  -0.134
    1UNL    C20   34  -0.520   0.294  -0.173
    1UNL    C21   35  -0.632   0.277  -0.068
    1UNL    C22   36  -0.658   0.135  -0.031
    1UNL    C23   37  -0.575   0.026  -0.050
    1UNL     N2   38  -0.642  -0.090  -0.028
    1UNL    C24   39  -0.768  -0.049   0.021
    1UNL    C25   40  -0.860  -0.135   0.074
    1UNL    C26   41  -0.970  -0.085   0.133
    1UNL    C27   42  -0.989   0.057   0.139
    1UNL    C28   43  -0.891   0.143   0.090
    1UNL    C29   44  -0.778   0.086   0.028
    1UNL    C30   45  -0.441   0.051  -0.110
    1UNL    C31   46  -0.331  -0.019  -0.014
    1UNL    C32   47  -0.197   0.024  -0.069
    1UNL     H1   48   0.055   0.132  -0.168
    1UNL     H2   49   0.143   0.028  -0.279
    1UNL     H3   50   0.036  -0.173  -0.181
    1UNL     H4   51  -0.100  -0.164   0.008
    1UNL     H5   52  -0.091   0.015   0.169
    1UNL     H6   53   0.197   0.015   0.030
    1UNL     H7   54   0.125  -0.316   0.127
    1UNL     H8   55   0.124  -0.413  -0.087
    1UNL     H9   56   0.198  -0.517   0.027
    1UNL    H10   57   0.325  -0.377  -0.179
    1UNL    H11   58   0.435  -0.340   0.118
    1UNL    H12   59   0.376  -0.437   0.334
    1UNL    H13   60   0.288  -0.189   0.336
    1UNL    H14   61   0.548  -0.152   0.301
    1UNL    H15   62   0.328   0.030   0.247
    1UNL    H16   63   0.384   0.166   0.094
    1UNL    H17   64   0.433   0.069  -0.300
    1UNL    H18   65   0.555  -0.136  -0.282
    1UNL    H19   66   0.529  -0.125  -0.098
    1UNL    H20   67   0.311  -0.107  -0.146
    1UNL    H21   68   0.695   0.058  -0.219
    1UNL    H22   69   0.585   0.290  -0.319
    1UNL    H23   70   0.711   0.291  -0.080
    1UNL    H24   71   0.432   0.302  -0.120
    1UNL    H25   72   0.588   0.227   0.128
    1UNL    H26   73   0.634  -0.017   0.108
    1UNL    H27   74  -0.058   0.320   0.017
    1UNL    H28   75  -0.471   0.390  -0.180
    1UNL    H29   76  -0.555   0.277  -0.277
    1UNL    H30   77  -0.727   0.314  -0.106
    1UNL    H31   78  -0.607   0.341   0.016
    1UNL    H32   79  -0.603  -0.182  -0.011
    1UNL    H33   80  -0.842  -0.233   0.064
    1UNL    H34   81  -1.048  -0.150   0.171
    1UNL    H35   82  -1.086   0.098   0.158
    1UNL    H36   83  -0.892   0.252   0.107
    1UNL    H37   84  -0.433   0.017  -0.215
    1UNL    H38   85  -0.337  -0.128   0.004
    1UNL    H39   86  -0.339   0.036   0.077
    1UNL    H40   87  -0.207   0.004  -0.175
   0.00000   0.00000   0.00000   0.00000   0.00000   0.00000   0.00000   0.00000   0.00000
Generated with MDTraj, t= 84.0
 87
    1UNL     C1    1   0.107   0.024  -0.201
    1UNL     C2    2   0.033  -0.066  -0.137
    1UNL     C3    3  -0.075  -0.047  -0.040
    1UNL     C4    4  -0.015   0.024   0.088
    1UNL     O1    5   0.078  -0.049   0.166
    1UNL     C5    6   0.204  -0.063   0.095
    1UNL     O2    7   0.201  -0.173   0.009
    1UNL     C6    8   0.187  -0.295   0.079
    1UNL     C7    9   0.176  -0.409  -0.014
    1UNL     O3   10   0.297  -0.417  -0.095
    1UNL     C8   11   0.317  -0.299   0.166
    1UNL     O4   12   0.318  -0.420   0.240
    1UNL     C9   13   0.338  -0.180   0.264
    1UNL     O5   14   0.456  -0.186   0.340
    1UNL    C10   15   0.327  -0.053   0.184
    1UNL     O6   16   0.446  -0.031   0.105
    1UNL    C11   17   0.444   0.089   0.027
    1UNL     O7   18   0.402   0.073  -0.117
    1UNL    C12   19   0.507   0.024  -0.209
    1UNL    C13   20   0.519  -0.130  -0.203
    1UNL     O8   21   0.398  -0.207  -0.223
    1UNL    C14   22   0.631   0.110  -0.206
    1UNL     O9   23   0.651   0.159  -0.335
    1UNL    C15   24   0.620   0.233  -0.100
    1UNL    O10   25   0.524   0.323  -0.131
    1UNL    C16   26   0.588   0.164   0.037
    1UNL    O11   27   0.696   0.083   0.079
    1UNL    O12   28   0.035   0.151   0.053
    1UNL    C17   29  -0.065   0.235   0.022
    1UNL    C18   30  -0.177   0.186  -0.044
    1UNL    C19   31  -0.288   0.273  -0.080
    1UNL    O13   32  -0.281   0.395  -0.082
    1UNL     N1   33  -0.415   0.214  -0.106
    1UNL    C20   34  -0.530   0.306  -0.113
    1UNL    C21   35  -0.638   0.286  -0.004
    1UNL    C22   36  -0.665   0.133  -0.004
    1UNL    C23   37  -0.571   0.043  -0.052
    1UNL     N2   38  -0.630  -0.084  -0.026
    1UNL    C24   39  -0.759  -0.077   0.031
    1UNL    C25   40  -0.852  -0.174   0.068
    1UNL    C26   41  -0.976  -0.122   0.106
    1UNL    C27   42  -1.007   0.016   0.104
    1UNL    C28   43  -0.909   0.108   0.080
    1UNL    C29   44  -0.785   0.063   0.041
    1UNL    C30   45  -0.445   0.075  -0.115
    1UNL    C31   46  -0.327  -0.008  -0.053
    1UNL    C32   47  -0.191   0.047  -0.098
    1UNL     H1   48   0.082   0.127  -0.195
    1UNL     H2   49   0.184   0.007  -0.274
    1UNL     H3   50   0.068  -0.172  -0.156
    1UNL     H4   51  -0.114  -0.139   0.001
    1UNL     H5   52  -0.102   0.027   0.160
    1UNL     H6   53   0.207   0.026   0.031
    1UNL     H7   54   0.093  -0.286   0.131
    1UNL     H8   55   0.093  -0.406  -0.088
    1UNL     H9   56   0.167  -0.501   0.040
    1UNL    H10   57   0.289  -0.370  -0.182
    1UNL    H11   58   0.408  -0.309   0.098
    1UNL    H12   59   0.393  -0.412   0.302
    1UNL    H13   60   0.265  -0.189   0.336
    1UNL    H14   61   0.531  -0.136   0.303
    1UNL    H15   62   0.306   0.033   0.253
    1UNL    H16   63   0.374   0.165   0.062
    1UNL    H17   64   0.465   0.035  -0.308
    1UNL    H18   65   0.582  -0.156  -0.289
    1UNL    H19   66   0.567  -0.149  -0.107
    1UNL    H20   67   0.337  -0.175  -0.156
    1UNL    H21   68   0.718   0.041  -0.185
    1UNL    H22   69   0.631   0.256  -0.332
    1UNL    H23   70   0.713   0.286  -0.081
    1UNL    H24   71   0.434   0.284  -0.129
    1UNL    H25   72   0.572   0.242   0.107
    1UNL    H26   73   0.661   0.011   0.129
    1UNL    H27   74  -0.048   0.342   0.033
    1UNL    H28   75  -0.495   0.408  -0.107
    1UNL    H29   76  -0.574   0.298  -0.214
    1UNL    H30   77  -0.721   0.348  -0.028
    1UNL    H31   78  -0.597   0.311   0.098
    1UNL    H32   79  -0.596  -0.178  -0.050
    1UNL    H33   80  -0.817  -0.284   0.059
    1UNL    H34   81  -1.055  -0.191   0.125
    1UNL    H35   82  -1.106   0.059   0.123
    1UNL    H36   83  -0.930   0.213   0.094
    1UNL    H37   84  -0.460   0.051  -0.222
    1UNL    H38   85  -0.342  -0.110  -0.089
    1UNL    H39   86  -0.329   0.002   0.059
    1UNL    H40   87  -0.197   0.049  -0.204
   0.00000   0.00000   0.00000   0.00000   0.00000   0.00000   0.00000   0.00000   0.00000
Generated with MDTraj, t= 85.0
 87
    1UNL     C1    1   0.095   0.053  -0.221
    1UNL     C2    2   0.017  -0.038  -0.170
    1UNL     C3    3  -0.078  -0.012  -0.061
    1UNL     C4    4   0.003   0.060   0.053
    1UNL     O1    5   0.092  -0.027   0.128
    1UNL     C5    6   0.219  -0.057   0.061
    1UNL     O2    7   0.212  -0.186  -0.008
    1UNL     C6    8   0.198  -0.295   0.083
    1UNL     C7    9   0.173  -0.421   0.008
    1UNL     O3   10   0.263  -0.455  -0.097
    1UNL     C8   11   0.326  -0.302   0.172
    1UNL     O4   12   0.320  -0.421   0.257
    1UNL     C9   13   0.336  -0.175   0.264
    1UNL     O5   14   0.457  -0.188   0.339
    1UNL    C10   15   0.331  -0.050   0.167
    1UNL     O6   16   0.456  -0.024   0.101
    1UNL    C11   17   0.453   0.097   0.028
    1UNL     O7   18   0.410   0.068  -0.105
    1UNL    C12   19   0.508   0.006  -0.196
    1UNL    C13   20   0.541  -0.140  -0.157
    1UNL     O8   21   0.432  -0.225  -0.166
    1UNL    C14   22   0.635   0.084  -0.201
    1UNL     O9   23   0.679   0.135  -0.331
    1UNL    C15   24   0.626   0.212  -0.108
    1UNL    O10   25   0.525   0.292  -0.165
    1UNL    C16   26   0.593   0.162   0.034
    1UNL    O11   27   0.689   0.067   0.078
    1UNL    O12   28   0.044   0.194   0.022
    1UNL    C17   29  -0.071   0.263  -0.002
    1UNL    C18   30  -0.188   0.214  -0.056
    1UNL    C19   31  -0.309   0.291  -0.055
    1UNL    O13   32  -0.303   0.409  -0.034
    1UNL     N1   33  -0.437   0.239  -0.073
    1UNL    C20   34  -0.548   0.330  -0.081
    1UNL    C21   35  -0.666   0.283   0.014
    1UNL    C22   36  -0.674   0.127   0.010
    1UNL    C23   37  -0.581   0.045  -0.047
    1UNL     N2   38  -0.619  -0.084  -0.030
    1UNL    C24   39  -0.750  -0.083   0.021
    1UNL    C25   40  -0.847  -0.186   0.030
    1UNL    C26   41  -0.975  -0.159   0.070
    1UNL    C27   42  -1.010  -0.031   0.112
    1UNL    C28   43  -0.923   0.077   0.096
    1UNL    C29   44  -0.792   0.046   0.047
    1UNL    C30   45  -0.452   0.091  -0.101
    1UNL    C31   46  -0.330   0.012  -0.050
    1UNL    C32   47  -0.201   0.075  -0.104
    1UNL     H1   48   0.077   0.152  -0.195
    1UNL     H2   49   0.178   0.032  -0.290
    1UNL     H3   50   0.037  -0.136  -0.201
    1UNL     H4   51  -0.103  -0.107  -0.012
    1UNL     H5   52  -0.073   0.066   0.137
    1UNL     H6   53   0.240   0.019  -0.014
    1UNL     H7   54   0.111  -0.266   0.139
    1UNL     H8   55   0.073  -0.406  -0.042
    1UNL     H9   56   0.171  -0.505   0.081
    1UNL    H10   57   0.266  -0.385  -0.163
    1UNL    H11   58   0.422  -0.316   0.115
    1UNL    H12   59   0.398  -0.414   0.317
    1UNL    H13   60   0.258  -0.183   0.330
    1UNL    H14   61   0.524  -0.139   0.288
    1UNL    H15   62   0.302   0.035   0.233
    1UNL    H16   63   0.383   0.173   0.065
    1UNL    H17   64   0.456   0.011  -0.293
    1UNL    H18   65   0.624  -0.173  -0.219
    1UNL    H19   66   0.572  -0.134  -0.053
    1UNL    H20   67   0.352  -0.187  -0.115
    1UNL    H21   68   0.721   0.018  -0.173
    1UNL    H22   69   0.663   0.232  -0.329
    1UNL    H23   70   0.719   0.268  -0.098
    1UNL    H24   71   0.438   0.248  -0.191
    1UNL    H25   72   0.591   0.248   0.097
    1UNL    H26   73   0.660   0.005   0.156
    1UNL    H27   74  -0.055   0.370   0.024
    1UNL    H28   75  -0.518   0.434  -0.069
    1UNL    H29   76  -0.599   0.322  -0.177
    1UNL    H30   77  -0.759   0.324  -0.012
    1UNL    H31   78  -0.624   0.315   0.116
    1UNL    H32   79  -0.589  -0.170  -0.079
    1UNL    H33   80  -0.815  -0.289   0.007
    1UNL    H34   81  -1.047  -0.244   0.071
    1UNL    H35   82  -1.098  -0.029   0.176
    1UNL    H36   83  -0.953   0.178   0.116
    1UNL    H37   84  -0.451   0.074  -0.211
    1UNL    H38   85  -0.334  -0.092  -0.083
    1UNL    H39   86  -0.323   0.024   0.066
    1UNL    H40   87  -0.213   0.073  -0.210
   0.00000   0.00000   0.00000   0.00000   0.00000   0.00000   0.00000   0.00000   0.00000
Generated with MDTraj, t= 86.0
 87
    1UNL     C1    1   0.057   0.088  -0.245
    1UNL     C2    2   0.005  -0.019  -0.191
    1UNL     C3    3  -0.077   0.002  -0.069
    1UNL     C4    4  -0.008   0.073   0.042
    1UNL     O1    5   0.077  -0.021   0.117
    1UNL     C5    6   0.203  -0.049   0.054
    1UNL     O2    7   0.194  -0.178  -0.013
    1UNL     C6    8   0.173  -0.287   0.080
    1UNL     C7    9   0.148  -0.421   0.014
    1UNL     O3   10   0.250  -0.467  -0.070
    1UNL     C8   11   0.305  -0.295   0.172
    1UNL     O4   12   0.313  -0.411   0.257
    1UNL     C9   13   0.327  -0.166   0.253
    1UNL     O5   14   0.453  -0.182   0.326
    1UNL    C10   15   0.319  -0.044   0.156
    1UNL     O6   16   0.450  -0.031   0.104
    1UNL    C11   17   0.458   0.081   0.010
    1UNL     O7   18   0.425   0.043  -0.125
    1UNL    C12   19   0.539  -0.014  -0.187
    1UNL    C13   20   0.573  -0.146  -0.113
    1UNL     O8   21   0.469  -0.237  -0.101
    1UNL    C14   22   0.661   0.076  -0.210
    1UNL     O9   23   0.648   0.118  -0.353
    1UNL    C15   24   0.658   0.200  -0.121
    1UNL    O10   25   0.571   0.292  -0.182
    1UNL    C16   26   0.601   0.154   0.013
    1UNL    O11   27   0.693   0.075   0.090
    1UNL    O12   28   0.035   0.209   0.019
    1UNL    C17   29  -0.074   0.284  -0.012
    1UNL    C18   30  -0.187   0.227  -0.055
    1UNL    C19   31  -0.309   0.306  -0.034
    1UNL    O13   32  -0.296   0.422   0.002
    1UNL     N1   33  -0.434   0.241  -0.043
    1UNL    C20   34  -0.552   0.324  -0.042
    1UNL    C21   35  -0.667   0.270   0.039
    1UNL    C22   36  -0.687   0.121   0.003
    1UNL    C23   37  -0.584   0.042  -0.047
    1UNL     N2   38  -0.630  -0.085  -0.058
    1UNL    C24   39  -0.755  -0.095  -0.014
    1UNL    C25   40  -0.839  -0.201  -0.005
    1UNL    C26   41  -0.948  -0.182   0.066
    1UNL    C27   42  -0.987  -0.058   0.121
    1UNL    C28   43  -0.915   0.061   0.107
    1UNL    C29   44  -0.789   0.033   0.042
    1UNL    C30   45  -0.455   0.100  -0.094
    1UNL    C31   46  -0.334   0.022  -0.049
    1UNL    C32   47  -0.199   0.088  -0.100
    1UNL     H1   48   0.045   0.181  -0.190
    1UNL     H2   49   0.104   0.086  -0.340
    1UNL     H3   50   0.008  -0.120  -0.241
    1UNL     H4   51  -0.109  -0.098  -0.036
    1UNL     H5   52  -0.088   0.091   0.118
    1UNL     H6   53   0.230   0.020  -0.025
    1UNL     H7   54   0.088  -0.247   0.137
    1UNL     H8   55   0.054  -0.410  -0.051
    1UNL     H9   56   0.136  -0.488   0.105
    1UNL    H10   57   0.300  -0.388  -0.106
    1UNL    H11   58   0.396  -0.310   0.110
    1UNL    H12   59   0.396  -0.419   0.310
    1UNL    H13   60   0.259  -0.149   0.328
    1UNL    H14   61   0.521  -0.162   0.256
    1UNL    H15   62   0.302   0.043   0.219
    1UNL    H16   63   0.379   0.150   0.044
    1UNL    H17   64   0.488  -0.041  -0.284
    1UNL    H18   65   0.659  -0.196  -0.160
    1UNL    H19   66   0.605  -0.129  -0.010
    1UNL    H20   67   0.389  -0.190  -0.079
    1UNL    H21   68   0.754   0.017  -0.206
    1UNL    H22   69   0.603   0.204  -0.360
    1UNL    H23   70   0.761   0.236  -0.104
    1UNL    H24   71   0.482   0.261  -0.171
    1UNL    H25   72   0.576   0.239   0.074
    1UNL    H26   73   0.656   0.037   0.167
    1UNL    H27   74  -0.068   0.384   0.032
    1UNL    H28   75  -0.540   0.426   0.000
    1UNL    H29   76  -0.580   0.345  -0.145
    1UNL    H30   77  -0.756   0.320   0.014
    1UNL    H31   78  -0.641   0.270   0.151
    1UNL    H32   79  -0.566  -0.165  -0.081
    1UNL    H33   80  -0.825  -0.286  -0.056
    1UNL    H34   81  -1.003  -0.268   0.085
    1UNL    H35   82  -1.086  -0.059   0.162
    1UNL    H36   83  -0.964   0.156   0.129
    1UNL    H37   84  -0.446   0.110  -0.205
    1UNL    H38   85  -0.337  -0.087  -0.068
    1UNL    H39   86  -0.329   0.051   0.065
    1UNL    H40   87  -0.218   0.085  -0.205
   0.00000   0.00000   0.00000   0.00000   0.00000   0.00000   0.00000   0.00000   0.00000
Generated with MDTraj, t= 87.0
 87
    1UNL     C1    1   0.054   0.094  -0.257
    1UNL     C2    2   0.023  -0.006  -0.173
    1UNL     C3    3  -0.085   0.007  -0.066
    1UNL     C4    4  -0.017   0.066   0.061
    1UNL     O1    5   0.077  -0.024   0.125
    1UNL     C5    6   0.201  -0.033   0.059
    1UNL     O2    7   0.212  -0.157  -0.016
    1UNL     C6    8   0.172  -0.263   0.068
    1UNL     C7    9   0.151  -0.388  -0.013
    1UNL     O3   10   0.269  -0.436  -0.072
    1UNL     C8   11   0.287  -0.277   0.178
    1UNL     O4   12   0.250  -0.372   0.268
    1UNL     C9   13   0.317  -0.149   0.259
    1UNL     O5   14   0.439  -0.158   0.326
    1UNL    C10   15   0.317  -0.028   0.163
    1UNL     O6   16   0.449  -0.037   0.097
    1UNL    C11   17   0.466   0.069   0.007
    1UNL     O7   18   0.437   0.029  -0.133
    1UNL    C12   19   0.541  -0.046  -0.195
    1UNL    C13   20   0.587  -0.161  -0.106
    1UNL     O8   21   0.472  -0.237  -0.084
    1UNL    C14   22   0.657   0.053  -0.219
    1UNL     O9   23   0.655   0.081  -0.359
    1UNL    C15   24   0.647   0.183  -0.133
    1UNL    O10   25   0.581   0.289  -0.200
    1UNL    C16   26   0.599   0.144   0.011
    1UNL    O11   27   0.703   0.059   0.064
    1UNL    O12   28   0.033   0.202   0.047
    1UNL    C17   29  -0.080   0.271   0.019
    1UNL    C18   30  -0.194   0.223  -0.041
    1UNL    C19   31  -0.313   0.308  -0.022
    1UNL    O13   32  -0.297   0.425   0.016
    1UNL     N1   33  -0.437   0.244  -0.042
    1UNL    C20   34  -0.559   0.326  -0.016
    1UNL    C21   35  -0.657   0.259   0.079
    1UNL    C22   36  -0.675   0.115   0.019
    1UNL    C23   37  -0.582   0.062  -0.071
    1UNL     N2   38  -0.631  -0.062  -0.094
    1UNL    C24   39  -0.748  -0.094  -0.020
    1UNL    C25   40  -0.833  -0.207  -0.008
    1UNL    C26   41  -0.950  -0.205   0.059
    1UNL    C27   42  -0.992  -0.089   0.119
    1UNL    C28   43  -0.910   0.019   0.110
    1UNL    C29   44  -0.784   0.018   0.045
    1UNL    C30   45  -0.449   0.119  -0.117
    1UNL    C31   46  -0.333   0.026  -0.073
    1UNL    C32   47  -0.197   0.094  -0.110
    1UNL     H1   48   0.002   0.191  -0.254
    1UNL     H2   49   0.145   0.087  -0.309
    1UNL     H3   50   0.084  -0.089  -0.161
    1UNL     H4   51  -0.125  -0.093  -0.044
    1UNL     H5   52  -0.091   0.084   0.140
    1UNL     H6   53   0.214   0.047  -0.013
    1UNL     H7   54   0.076  -0.222   0.110
    1UNL     H8   55   0.080  -0.356  -0.098
    1UNL     H9   56   0.109  -0.467   0.056
    1UNL    H10   57   0.342  -0.371  -0.060
    1UNL    H11   58   0.379  -0.316   0.131
    1UNL    H12   59   0.325  -0.403   0.324
    1UNL    H13   60   0.248  -0.135   0.333
    1UNL    H14   61   0.506  -0.160   0.256
    1UNL    H15   62   0.305   0.065   0.213
    1UNL    H16   63   0.383   0.137   0.032
    1UNL    H17   64   0.495  -0.088  -0.290
    1UNL    H18   65   0.662  -0.229  -0.151
    1UNL    H19   66   0.633  -0.135  -0.010
    1UNL    H20   67   0.412  -0.168  -0.054
    1UNL    H21   68   0.750   0.000  -0.202
    1UNL    H22   69   0.674   0.178  -0.373
    1UNL    H23   70   0.748   0.224  -0.112
    1UNL    H24   71   0.489   0.252  -0.224
    1UNL    H25   72   0.584   0.239   0.069
    1UNL    H26   73   0.679  -0.004   0.142
    1UNL    H27   74  -0.085   0.365   0.070
    1UNL    H28   75  -0.518   0.424   0.022
    1UNL    H29   76  -0.617   0.364  -0.100
    1UNL    H30   77  -0.754   0.302   0.082
    1UNL    H31   78  -0.612   0.245   0.183
    1UNL    H32   79  -0.581  -0.127  -0.161
    1UNL    H33   80  -0.799  -0.308  -0.053
    1UNL    H34   81  -1.018  -0.294   0.055
    1UNL    H35   82  -1.089  -0.095   0.168
    1UNL    H36   83  -0.947   0.109   0.152
    1UNL    H37   84  -0.455   0.116  -0.228
    1UNL    H38   85  -0.341  -0.075  -0.126
    1UNL    H39   86  -0.341   0.015   0.042
    1UNL    H40   87  -0.201   0.104  -0.216
   0.00000   0.00000   0.00000   0.00000   0.00000   0.00000   0.00000   0.00000   0.00000
Generated with MDTraj, t= 88.0
 87
    1UNL     C1    1   0.083   0.098  -0.219
    1UNL     C2    2   0.022  -0.003  -0.158
    1UNL     C3    3  -0.081   0.014  -0.055
    1UNL     C4    4  -0.010   0.073   0.066
    1UNL     O1    5   0.085  -0.015   0.123
    1UNL     C5    6   0.206  -0.029   0.052
    1UNL     O2    7   0.216  -0.149  -0.021
    1UNL     C6    8   0.181  -0.253   0.063
    1UNL     C7    9   0.154  -0.384  -0.010
    1UNL     O3   10   0.268  -0.432  -0.077
    1UNL     C8   11   0.276  -0.268   0.189
    1UNL     O4   12   0.212  -0.361   0.274
    1UNL     C9   13   0.298  -0.137   0.260
    1UNL     O5   14   0.400  -0.148   0.351
    1UNL    C10   15   0.315  -0.021   0.160
    1UNL     O6   16   0.447  -0.022   0.099
    1UNL    C11   17   0.472   0.077   0.002
    1UNL     O7   18   0.430   0.024  -0.130
    1UNL    C12   19   0.542  -0.040  -0.196
    1UNL    C13   20   0.588  -0.166  -0.121
    1UNL     O8   21   0.473  -0.247  -0.103
    1UNL    C14   22   0.668   0.046  -0.234
    1UNL     O9   23   0.682   0.061  -0.377
    1UNL    C15   24   0.662   0.172  -0.151
    1UNL    O10   25   0.560   0.250  -0.214
    1UNL    C16   26   0.621   0.136  -0.002
    1UNL    O11   27   0.710   0.045   0.060
    1UNL    O12   28   0.025   0.207   0.048
    1UNL    C17   29  -0.088   0.284   0.054
    1UNL    C18   30  -0.200   0.243  -0.020
    1UNL    C19   31  -0.329   0.314  -0.010
    1UNL    O13   32  -0.323   0.431   0.030
    1UNL     N1   33  -0.449   0.254  -0.053
    1UNL    C20   34  -0.566   0.328  -0.024
    1UNL    C21   35  -0.651   0.249   0.073
    1UNL    C22   36  -0.663   0.096   0.029
    1UNL    C23   37  -0.584   0.046  -0.072
    1UNL     N2   38  -0.632  -0.071  -0.116
    1UNL    C24   39  -0.738  -0.102  -0.035
    1UNL    C25   40  -0.828  -0.209  -0.052
    1UNL    C26   41  -0.940  -0.200   0.032
    1UNL    C27   42  -0.959  -0.097   0.124
    1UNL    C28   43  -0.877   0.005   0.142
    1UNL    C29   44  -0.766   0.004   0.058
    1UNL    C30   45  -0.465   0.119  -0.110
    1UNL    C31   46  -0.339   0.032  -0.071
    1UNL    C32   47  -0.200   0.109  -0.087
    1UNL     H1   48   0.070   0.197  -0.181
    1UNL     H2   49   0.144   0.093  -0.308
    1UNL     H3   50   0.052  -0.108  -0.182
    1UNL     H4   51  -0.118  -0.087  -0.024
    1UNL     H5   52  -0.077   0.085   0.154
    1UNL     H6   53   0.215   0.058  -0.012
    1UNL     H7   54   0.078  -0.214   0.097
    1UNL     H8   55   0.080  -0.367  -0.095
    1UNL     H9   56   0.117  -0.461   0.063
    1UNL    H10   57   0.340  -0.361  -0.087
    1UNL    H11   58   0.370  -0.316   0.167
    1UNL    H12   59   0.283  -0.389   0.334
    1UNL    H13   60   0.219  -0.128   0.326
    1UNL    H14   61   0.491  -0.151   0.310
    1UNL    H15   62   0.297   0.074   0.204
    1UNL    H16   63   0.400   0.158   0.028
    1UNL    H17   64   0.499  -0.070  -0.294
    1UNL    H18   65   0.669  -0.214  -0.182
    1UNL    H19   66   0.639  -0.139  -0.027
    1UNL    H20   67   0.407  -0.181  -0.077
    1UNL    H21   68   0.763   0.001  -0.208
    1UNL    H22   69   0.605   0.111  -0.408
    1UNL    H23   70   0.754   0.234  -0.146
    1UNL    H24   71   0.484   0.194  -0.197
    1UNL    H25   72   0.611   0.238   0.049
    1UNL    H26   73   0.678   0.012   0.146
    1UNL    H27   74  -0.089   0.372   0.116
    1UNL    H28   75  -0.541   0.430   0.016
    1UNL    H29   76  -0.613   0.356  -0.119
    1UNL    H30   77  -0.756   0.287   0.077
    1UNL    H31   78  -0.608   0.248   0.176
    1UNL    H32   79  -0.612  -0.116  -0.209
    1UNL    H33   80  -0.800  -0.297  -0.110
    1UNL    H34   81  -1.022  -0.265   0.025
    1UNL    H35   82  -1.039  -0.110   0.194
    1UNL    H36   83  -0.886   0.076   0.225
    1UNL    H37   84  -0.468   0.140  -0.218
    1UNL    H38   85  -0.347  -0.069  -0.130
    1UNL    H39   86  -0.353   0.009   0.039
    1UNL    H40   87  -0.179   0.124  -0.191
   0.00000   0.00000   0.00000   0.00000   0.00000   0.00000   0.00000   0.00000   0.00000
Generated with MDTraj, t= 89.0
 87
    1UNL     C1    1   0.098   0.125  -0.212
    1UNL     C2    2   0.021   0.025  -0.172
    1UNL     C3    3  -0.074   0.032  -0.060
    1UNL     C4    4  -0.009   0.093   0.068
    1UNL     O1    5   0.084   0.011   0.138
    1UNL     C5    6   0.203  -0.014   0.058
    1UNL     O2    7   0.187  -0.141  -0.010
    1UNL     C6    8   0.167  -0.252   0.079
    1UNL     C7    9   0.127  -0.378   0.009
    1UNL     O3   10   0.241  -0.453  -0.045
    1UNL     C8   11   0.287  -0.270   0.180
    1UNL     O4   12   0.258  -0.373   0.278
    1UNL     C9   13   0.303  -0.138   0.257
    1UNL     O5   14   0.405  -0.156   0.353
    1UNL    C10   15   0.324  -0.016   0.154
    1UNL     O6   16   0.457  -0.028   0.097
    1UNL    C11   17   0.473   0.065  -0.013
    1UNL     O7   18   0.444   0.017  -0.147
    1UNL    C12   19   0.547  -0.059  -0.207
    1UNL    C13   20   0.577  -0.187  -0.130
    1UNL     O8   21   0.454  -0.249  -0.099
    1UNL    C14   22   0.671   0.036  -0.235
    1UNL     O9   23   0.679   0.083  -0.371
    1UNL    C15   24   0.660   0.160  -0.147
    1UNL    O10   25   0.566   0.252  -0.210
    1UNL    C16   26   0.616   0.131  -0.005
    1UNL    O11   27   0.704   0.040   0.058
    1UNL    O12   28   0.023   0.228   0.046
    1UNL    C17   29  -0.099   0.290   0.033
    1UNL    C18   30  -0.206   0.244  -0.033
    1UNL    C19   31  -0.332   0.311  -0.008
    1UNL    O13   32  -0.336   0.414   0.057
    1UNL     N1   33  -0.447   0.260  -0.066
    1UNL    C20   34  -0.571   0.322  -0.012
    1UNL    C21   35  -0.644   0.236   0.088
    1UNL    C22   36  -0.666   0.106   0.020
    1UNL    C23   37  -0.577   0.051  -0.072
    1UNL     N2   38  -0.627  -0.063  -0.109
    1UNL    C24   39  -0.755  -0.097  -0.060
    1UNL    C25   40  -0.838  -0.212  -0.061
    1UNL    C26   41  -0.928  -0.225   0.039
    1UNL    C27   42  -0.951  -0.119   0.129
    1UNL    C28   43  -0.878  -0.004   0.126
    1UNL    C29   44  -0.774   0.010   0.032
    1UNL    C30   45  -0.448   0.112  -0.109
    1UNL    C31   46  -0.317   0.033  -0.066
    1UNL    C32   47  -0.198   0.118  -0.100
    1UNL     H1   48   0.099   0.223  -0.171
    1UNL     H2   49   0.174   0.105  -0.290
    1UNL     H3   50   0.037  -0.067  -0.222
    1UNL     H4   51  -0.115  -0.070  -0.036
    1UNL     H5   52  -0.094   0.092   0.140
    1UNL     H6   53   0.218   0.068  -0.011
    1UNL     H7   54   0.076  -0.213   0.136
    1UNL     H8   55   0.057  -0.364  -0.076
    1UNL     H9   56   0.081  -0.447   0.082
    1UNL    H10   57   0.320  -0.397  -0.054
    1UNL    H11   58   0.372  -0.311   0.128
    1UNL    H12   59   0.342  -0.393   0.325
    1UNL    H13   60   0.222  -0.131   0.322
    1UNL    H14   61   0.491  -0.165   0.304
    1UNL    H15   62   0.321   0.079   0.205
    1UNL    H16   63   0.402   0.143   0.022
    1UNL    H17   64   0.505  -0.104  -0.298
    1UNL    H18   65   0.642  -0.254  -0.190
    1UNL    H19   66   0.633  -0.159  -0.039
    1UNL    H20   67   0.380  -0.187  -0.085
    1UNL    H21   68   0.756  -0.029  -0.220
    1UNL    H22   69   0.630   0.167  -0.376
    1UNL    H23   70   0.760   0.207  -0.149
    1UNL    H24   71   0.478   0.202  -0.219
    1UNL    H25   72   0.603   0.227   0.057
    1UNL    H26   73   0.685   0.027   0.151
    1UNL    H27   74  -0.104   0.390   0.080
    1UNL    H28   75  -0.533   0.420   0.030
    1UNL    H29   76  -0.638   0.354  -0.091
    1UNL    H30   77  -0.739   0.280   0.138
    1UNL    H31   78  -0.571   0.209   0.166
    1UNL    H32   79  -0.571  -0.129  -0.168
    1UNL    H33   80  -0.832  -0.285  -0.130
    1UNL    H34   81  -0.978  -0.322   0.054
    1UNL    H35   82  -1.031  -0.124   0.203
    1UNL    H36   83  -0.882   0.066   0.206
    1UNL    H37   84  -0.459   0.120  -0.218
    1UNL    H38   85  -0.318  -0.072  -0.123
    1UNL    H39   86  -0.318   0.015   0.044
    1UNL    H40   87  -0.185   0.126  -0.207
   0.00000   0.00000   0.00000   0.00000   0.00000   0.00000   0.00000   0.00000   0.00000
Generated with MDTraj, t= 90.0
 87
    1UNL     C1    1   0.068   0.159  -0.227
    1UNL     C2    2   0.037   0.039  -0.178
    1UNL     C3    3  -0.063   0.030  -0.067
    1UNL     C4    4  -0.006   0.095   0.063
    1UNL     O1    5   0.088   0.027   0.147
    1UNL     C5    6   0.206  -0.020   0.073
    1UNL     O2    7   0.181  -0.150   0.009
    1UNL     C6    8   0.160  -0.259   0.104
    1UNL     C7    9   0.116  -0.387   0.039
    1UNL     O3   10   0.215  -0.438  -0.049
    1UNL     C8   11   0.294  -0.277   0.185
    1UNL     O4   12   0.282  -0.374   0.287
    1UNL     C9   13   0.334  -0.150   0.251
    1UNL     O5   14   0.454  -0.154   0.329
    1UNL    C10   15   0.331  -0.026   0.153
    1UNL     O6   16   0.451  -0.037   0.086
    1UNL    C11   17   0.468   0.068  -0.015
    1UNL     O7   18   0.423   0.034  -0.144
    1UNL    C12   19   0.515  -0.052  -0.206
    1UNL    C13   20   0.531  -0.184  -0.130
    1UNL     O8   21   0.417  -0.256  -0.106
    1UNL    C14   22   0.655   0.030  -0.223
    1UNL     O9   23   0.673   0.068  -0.360
    1UNL    C15   24   0.663   0.158  -0.138
    1UNL    O10   25   0.589   0.264  -0.198
    1UNL    C16   26   0.617   0.125  -0.003
    1UNL    O11   27   0.696   0.022   0.049
    1UNL    O12   28   0.031   0.232   0.044
    1UNL    C17   29  -0.081   0.310   0.019
    1UNL    C18   30  -0.193   0.253  -0.035
    1UNL    C19   31  -0.322   0.322  -0.012
    1UNL    O13   32  -0.323   0.431   0.048
    1UNL     N1   33  -0.445   0.258  -0.045
    1UNL    C20   34  -0.563   0.325   0.001
    1UNL    C21   35  -0.664   0.232   0.071
    1UNL    C22   36  -0.666   0.092   0.017
    1UNL    C23   37  -0.571   0.045  -0.069
    1UNL     N2   38  -0.616  -0.084  -0.112
    1UNL    C24   39  -0.732  -0.118  -0.046
    1UNL    C25   40  -0.812  -0.227  -0.041
    1UNL    C26   41  -0.935  -0.225   0.022
    1UNL    C27   42  -0.966  -0.124   0.111
    1UNL    C28   43  -0.883  -0.014   0.119
    1UNL    C29   44  -0.771  -0.007   0.029
    1UNL    C30   45  -0.456   0.130  -0.118
    1UNL    C31   46  -0.329   0.045  -0.087
    1UNL    C32   47  -0.195   0.119  -0.100
    1UNL     H1   48   0.025   0.254  -0.200
    1UNL     H2   49   0.138   0.164  -0.305
    1UNL     H3   50   0.083  -0.051  -0.222
    1UNL     H4   51  -0.087  -0.078  -0.045
    1UNL     H5   52  -0.100   0.093   0.126
    1UNL     H6   53   0.229   0.047  -0.009
    1UNL     H7   54   0.077  -0.222   0.172
    1UNL     H8   55   0.032  -0.369  -0.028
    1UNL     H9   56   0.094  -0.467   0.107
    1UNL    H10   57   0.285  -0.374  -0.082
    1UNL    H11   58   0.368  -0.316   0.120
    1UNL    H12   59   0.372  -0.397   0.318
    1UNL    H13   60   0.267  -0.114   0.323
    1UNL    H14   61   0.521  -0.155   0.259
    1UNL    H15   62   0.331   0.065   0.214
    1UNL    H16   63   0.407   0.153   0.024
    1UNL    H17   64   0.489  -0.071  -0.310
    1UNL    H18   65   0.609  -0.247  -0.178
    1UNL    H19   66   0.570  -0.159  -0.030
    1UNL    H20   67   0.346  -0.196  -0.081
    1UNL    H21   68   0.736  -0.040  -0.201
    1UNL    H22   69   0.674   0.168  -0.361
    1UNL    H23   70   0.770   0.188  -0.130
    1UNL    H24   71   0.498   0.233  -0.200
    1UNL    H25   72   0.621   0.211   0.073
    1UNL    H26   73   0.677  -0.003   0.147
    1UNL    H27   74  -0.079   0.410   0.064
    1UNL    H28   75  -0.524   0.395   0.084
    1UNL    H29   76  -0.597   0.387  -0.081
    1UNL    H30   77  -0.773   0.272   0.053
    1UNL    H31   78  -0.644   0.230   0.177
    1UNL    H32   79  -0.549  -0.143  -0.164
    1UNL    H33   80  -0.791  -0.308  -0.122
    1UNL    H34   81  -1.001  -0.305  -0.003
    1UNL    H35   82  -1.054  -0.142   0.168
    1UNL    H36   83  -0.905   0.077   0.175
    1UNL    H37   84  -0.483   0.152  -0.222
    1UNL    H38   85  -0.327  -0.049  -0.157
    1UNL    H39   86  -0.349   0.008   0.016
    1UNL    H40   87  -0.182   0.138  -0.206
   0.00000   0.00000   0.00000   0.00000   0.00000   0.00000   0.00000   0.00000   0.00000
Generated with MDTraj, t= 91.0
 87
    1UNL     C1    1   0.091   0.139  -0.238
    1UNL     C2    2   0.045   0.033  -0.172
    1UNL     C3    3  -0.058   0.034  -0.063
    1UNL     C4    4   0.005   0.086   0.070
    1UNL     O1    5   0.089   0.008   0.149
    1UNL     C5    6   0.200  -0.035   0.070
    1UNL     O2    7   0.166  -0.167   0.020
    1UNL     C6    8   0.146  -0.257   0.126
    1UNL     C7    9   0.103  -0.384   0.062
    1UNL     O3   10   0.192  -0.419  -0.044
    1UNL     C8   11   0.285  -0.278   0.194
    1UNL     O4   12   0.264  -0.385   0.290
    1UNL     C9   13   0.323  -0.148   0.261
    1UNL     O5   14   0.444  -0.161   0.328
    1UNL    C10   15   0.328  -0.032   0.154
    1UNL     O6   16   0.455  -0.032   0.083
    1UNL    C11   17   0.471   0.082  -0.001
    1UNL     O7   18   0.419   0.059  -0.131
    1UNL    C12   19   0.499  -0.028  -0.215
    1UNL    C13   20   0.505  -0.173  -0.171
    1UNL     O8   21   0.380  -0.227  -0.151
    1UNL    C14   22   0.644   0.033  -0.243
    1UNL     O9   23   0.669   0.062  -0.376
    1UNL    C15   24   0.670   0.155  -0.151
    1UNL    O10   25   0.594   0.261  -0.203
    1UNL    C16   26   0.630   0.122  -0.004
    1UNL    O11   27   0.719   0.024   0.059
    1UNL    O12   28   0.040   0.223   0.062
    1UNL    C17   29  -0.071   0.305   0.035
    1UNL    C18   30  -0.192   0.263  -0.016
    1UNL    C19   31  -0.316   0.336  -0.013
    1UNL    O13   32  -0.327   0.457   0.006
    1UNL     N1   33  -0.439   0.256  -0.029
    1UNL    C20   34  -0.572   0.321  -0.027
    1UNL    C21   35  -0.666   0.240   0.066
    1UNL    C22   36  -0.667   0.095   0.023
    1UNL    C23   37  -0.562   0.043  -0.052
    1UNL     N2   38  -0.595  -0.085  -0.090
    1UNL    C24   39  -0.720  -0.118  -0.039
    1UNL    C25   40  -0.786  -0.238  -0.039
    1UNL    C26   41  -0.912  -0.253   0.010
    1UNL    C27   42  -0.970  -0.131   0.062
    1UNL    C28   43  -0.898  -0.014   0.088
    1UNL    C29   44  -0.766  -0.010   0.035
    1UNL    C30   45  -0.435   0.112  -0.087
    1UNL    C31   46  -0.307   0.043  -0.042
    1UNL    C32   47  -0.187   0.131  -0.088
    1UNL     H1   48   0.029   0.230  -0.224
    1UNL     H2   49   0.167   0.141  -0.312
    1UNL     H3   50   0.091  -0.063  -0.185
    1UNL     H4   51  -0.079  -0.076  -0.045
    1UNL     H5   52  -0.081   0.097   0.140
    1UNL     H6   53   0.219   0.024  -0.020
    1UNL     H7   54   0.072  -0.219   0.198
    1UNL     H8   55   0.006  -0.376   0.017
    1UNL     H9   56   0.111  -0.466   0.129
    1UNL    H10   57   0.241  -0.348  -0.094
    1UNL    H11   58   0.357  -0.319   0.127
    1UNL    H12   59   0.352  -0.417   0.319
    1UNL    H13   60   0.251  -0.128   0.338
    1UNL    H14   61   0.515  -0.162   0.258
    1UNL    H15   62   0.329   0.064   0.213
    1UNL    H16   63   0.408   0.164   0.041
    1UNL    H17   64   0.459  -0.024  -0.316
    1UNL    H18   65   0.544  -0.242  -0.247
    1UNL    H19   66   0.572  -0.184  -0.085
    1UNL    H20   67   0.322  -0.156  -0.111
    1UNL    H21   68   0.720  -0.040  -0.210
    1UNL    H22   69   0.655   0.159  -0.380
    1UNL    H23   70   0.773   0.194  -0.161
    1UNL    H24   71   0.501   0.223  -0.204
    1UNL    H25   72   0.630   0.217   0.056
    1UNL    H26   73   0.677  -0.025   0.128
    1UNL    H27   74  -0.054   0.405   0.072
    1UNL    H28   75  -0.561   0.428   0.010
    1UNL    H29   76  -0.618   0.323  -0.124
    1UNL    H30   77  -0.769   0.293   0.050
    1UNL    H31   78  -0.641   0.255   0.171
    1UNL    H32   79  -0.566  -0.133  -0.176
    1UNL    H33   80  -0.744  -0.329  -0.084
    1UNL    H34   81  -0.972  -0.345   0.013
    1UNL    H35   82  -1.077  -0.127   0.088
    1UNL    H36   83  -0.942   0.078   0.123
    1UNL    H37   84  -0.434   0.121  -0.196
    1UNL    H38   85  -0.298  -0.060  -0.082
    1UNL    H39   86  -0.291   0.029   0.070
    1UNL    H40   87  -0.192   0.153  -0.193
   0.00000   0.00000   0.00000   0.00000   0.00000   0.00000   0.00000   0.00000   0.00000
Generated with MDTraj, t= 92.0
 87
    1UNL     C1    1   0.105   0.138  -0.178
    1UNL     C2    2   0.042   0.031  -0.125
    1UNL     C3    3  -0.049   0.025  -0.006
    1UNL     C4    4   0.009   0.109   0.107
    1UNL     O1    5   0.113   0.048   0.173
    1UNL     C5    6   0.213  -0.014   0.088
    1UNL     O2    7   0.179  -0.129   0.019
    1UNL     C6    8   0.155  -0.244   0.107
    1UNL     C7    9   0.096  -0.364   0.036
    1UNL     O3   10   0.190  -0.436  -0.039
    1UNL     C8   11   0.282  -0.277   0.191
    1UNL     O4   12   0.249  -0.378   0.294
    1UNL     C9   13   0.335  -0.153   0.262
    1UNL     O5   14   0.444  -0.181   0.346
    1UNL    C10   15   0.347  -0.034   0.163
    1UNL     O6   16   0.453  -0.043   0.070
    1UNL    C11   17   0.464   0.070  -0.010
    1UNL     O7   18   0.413   0.062  -0.139
    1UNL    C12   19   0.485  -0.023  -0.239
    1UNL    C13   20   0.476  -0.170  -0.204
    1UNL     O8   21   0.340  -0.211  -0.204
    1UNL    C14   22   0.632   0.030  -0.248
    1UNL     O9   23   0.649   0.071  -0.376
    1UNL    C15   24   0.660   0.150  -0.147
    1UNL    O10   25   0.594   0.265  -0.194
    1UNL    C16   26   0.614   0.118  -0.007
    1UNL    O11   27   0.686   0.014   0.055
    1UNL    O12   28   0.042   0.238   0.057
    1UNL    C17   29  -0.074   0.305   0.021
    1UNL    C18   30  -0.186   0.243  -0.022
    1UNL    C19   31  -0.310   0.315  -0.025
    1UNL    O13   32  -0.331   0.435  -0.005
    1UNL     N1   33  -0.428   0.240  -0.044
    1UNL    C20   34  -0.556   0.313  -0.031
    1UNL    C21   35  -0.669   0.240   0.036
    1UNL    C22   36  -0.664   0.094  -0.004
    1UNL    C23   37  -0.548   0.037  -0.055
    1UNL     N2   38  -0.572  -0.100  -0.078
    1UNL    C24   39  -0.698  -0.127  -0.032
    1UNL    C25   40  -0.776  -0.246  -0.032
    1UNL    C26   41  -0.912  -0.234   0.010
    1UNL    C27   42  -0.970  -0.112   0.060
    1UNL    C28   43  -0.897   0.004   0.052
    1UNL    C29   44  -0.760  -0.008   0.016
    1UNL    C30   45  -0.422   0.101  -0.080
    1UNL    C31   46  -0.308   0.021  -0.020
    1UNL    C32   47  -0.180   0.099  -0.063
    1UNL     H1   48   0.097   0.234  -0.137
    1UNL     H2   49   0.169   0.123  -0.264
    1UNL     H3   50   0.052  -0.068  -0.169
    1UNL     H4   51  -0.066  -0.082   0.031
    1UNL     H5   52  -0.068   0.136   0.182
    1UNL     H6   53   0.233   0.055   0.005
    1UNL     H7   54   0.080  -0.202   0.171
    1UNL     H8   55   0.019  -0.343  -0.036
    1UNL     H9   56   0.064  -0.432   0.110
    1UNL    H10   57   0.242  -0.386  -0.104
    1UNL    H11   58   0.359  -0.313   0.126
    1UNL    H12   59   0.337  -0.404   0.327
    1UNL    H13   60   0.250  -0.133   0.327
    1UNL    H14   61   0.486  -0.103   0.391
    1UNL    H15   62   0.351   0.062   0.223
    1UNL    H16   63   0.407   0.152   0.040
    1UNL    H17   64   0.443  -0.017  -0.340
    1UNL    H18   65   0.532  -0.234  -0.271
    1UNL    H19   66   0.515  -0.193  -0.106
    1UNL    H20   67   0.296  -0.156  -0.132
    1UNL    H21   68   0.706  -0.053  -0.234
    1UNL    H22   69   0.633   0.170  -0.380
    1UNL    H23   70   0.766   0.180  -0.153
    1UNL    H24   71   0.496   0.242  -0.180
    1UNL    H25   72   0.618   0.208   0.055
    1UNL    H26   73   0.642  -0.027   0.139
    1UNL    H27   74  -0.069   0.410   0.030
    1UNL    H28   75  -0.537   0.410   0.027
    1UNL    H29   76  -0.588   0.349  -0.127
    1UNL    H30   77  -0.771   0.288   0.016
    1UNL    H31   78  -0.655   0.269   0.143
    1UNL    H32   79  -0.499  -0.170  -0.074
    1UNL    H33   80  -0.733  -0.333  -0.051
    1UNL    H34   81  -0.970  -0.324   0.019
    1UNL    H35   82  -1.067  -0.101   0.100
    1UNL    H36   83  -0.936   0.098   0.084
    1UNL    H37   84  -0.412   0.108  -0.190
    1UNL    H38   85  -0.300  -0.080  -0.051
    1UNL    H39   86  -0.316   0.007   0.094
    1UNL    H40   87  -0.179   0.089  -0.171
   0.00000   0.00000   0.00000   0.00000   0.00000   0.00000   0.00000   0.00000   0.00000
Generated with MDTraj, t= 93.0
 87
    1UNL     C1    1   0.119   0.113  -0.200
    1UNL     C2    2   0.039   0.028  -0.137
    1UNL     C3    3  -0.036   0.034  -0.011
    1UNL     C4    4   0.017   0.103   0.116
    1UNL     O1    5   0.117   0.035   0.195
    1UNL     C5    6   0.224  -0.006   0.106
    1UNL     O2    7   0.181  -0.121   0.029
    1UNL     C6    8   0.152  -0.234   0.117
    1UNL     C7    9   0.102  -0.350   0.035
    1UNL     O3   10   0.210  -0.398  -0.048
    1UNL     C8   11   0.281  -0.272   0.191
    1UNL     O4   12   0.262  -0.379   0.287
    1UNL     C9   13   0.341  -0.156   0.272
    1UNL     O5   14   0.467  -0.189   0.321
    1UNL    C10   15   0.360  -0.030   0.184
    1UNL     O6   16   0.459  -0.046   0.093
    1UNL    C11   17   0.473   0.070   0.011
    1UNL     O7   18   0.412   0.059  -0.120
    1UNL    C12   19   0.481  -0.014  -0.219
    1UNL    C13   20   0.446  -0.158  -0.216
    1UNL     O8   21   0.305  -0.170  -0.197
    1UNL    C14   22   0.625   0.030  -0.250
    1UNL     O9   23   0.634   0.061  -0.388
    1UNL    C15   24   0.667   0.145  -0.155
    1UNL    O10   25   0.593   0.261  -0.188
    1UNL    C16   26   0.631   0.104  -0.012
    1UNL    O11   27   0.711  -0.008   0.021
    1UNL    O12   28   0.032   0.250   0.090
    1UNL    C17   29  -0.088   0.309   0.061
    1UNL    C18   30  -0.184   0.249  -0.008
    1UNL    C19   31  -0.312   0.314  -0.029
    1UNL    O13   32  -0.327   0.434  -0.006
    1UNL     N1   33  -0.422   0.238  -0.063
    1UNL    C20   34  -0.546   0.310  -0.080
    1UNL    C21   35  -0.666   0.237  -0.011
    1UNL    C22   36  -0.665   0.089  -0.023
    1UNL    C23   37  -0.552   0.012  -0.048
    1UNL     N2   38  -0.590  -0.121  -0.040
    1UNL    C24   39  -0.728  -0.130  -0.030
    1UNL    C25   40  -0.801  -0.244  -0.031
    1UNL    C26   41  -0.927  -0.238   0.019
    1UNL    C27   42  -0.977  -0.112   0.064
    1UNL    C28   43  -0.905   0.006   0.043
    1UNL    C29   44  -0.777  -0.003  -0.006
    1UNL    C30   45  -0.421   0.089  -0.091
    1UNL    C31   46  -0.300   0.028  -0.017
    1UNL    C32   47  -0.174   0.112  -0.052
    1UNL     H1   48   0.166   0.200  -0.162
    1UNL     H2   49   0.163   0.071  -0.294
    1UNL     H3   50   0.016  -0.064  -0.191
    1UNL     H4   51  -0.056  -0.073   0.025
    1UNL     H5   52  -0.068   0.105   0.185
    1UNL     H6   53   0.244   0.066   0.026
    1UNL     H7   54   0.081  -0.197   0.186
    1UNL     H8   55   0.020  -0.317  -0.030
    1UNL     H9   56   0.082  -0.439   0.092
    1UNL    H10   57   0.244  -0.325  -0.108
    1UNL    H11   58   0.355  -0.303   0.116
    1UNL    H12   59   0.344  -0.392   0.339
    1UNL    H13   60   0.275  -0.128   0.357
    1UNL    H14   61   0.525  -0.211   0.247
    1UNL    H15   62   0.388   0.058   0.248
    1UNL    H16   63   0.431   0.154   0.070
    1UNL    H17   64   0.425   0.018  -0.311
    1UNL    H18   65   0.469  -0.211  -0.308
    1UNL    H19   66   0.500  -0.207  -0.138
    1UNL    H20   67   0.266  -0.121  -0.125
    1UNL    H21   68   0.694  -0.058  -0.241
    1UNL    H22   69   0.615   0.154  -0.409
    1UNL    H23   70   0.776   0.160  -0.160
    1UNL    H24   71   0.501   0.238  -0.185
    1UNL    H25   72   0.663   0.173   0.062
    1UNL    H26   73   0.667  -0.091   0.019
    1UNL    H27   74  -0.101   0.415   0.084
    1UNL    H28   75  -0.531   0.421  -0.057
    1UNL    H29   76  -0.569   0.318  -0.183
    1UNL    H30   77  -0.760   0.297  -0.031
    1UNL    H31   78  -0.667   0.257   0.101
    1UNL    H32   79  -0.526  -0.192  -0.074
    1UNL    H33   80  -0.738  -0.339  -0.048
    1UNL    H34   81  -0.993  -0.322   0.019
    1UNL    H35   82  -1.071  -0.111   0.122
    1UNL    H36   83  -0.929   0.106   0.082
    1UNL    H37   84  -0.417   0.076  -0.200
    1UNL    H38   85  -0.285  -0.075  -0.032
    1UNL    H39   86  -0.313   0.027   0.095
    1UNL    H40   87  -0.175   0.118  -0.162
   0.00000   0.00000   0.00000   0.00000   0.00000   0.00000   0.00000   0.00000   0.00000
Generated with MDTraj, t= 94.0
 87
    1UNL     C1    1   0.096   0.160  -0.155
    1UNL     C2    2   0.047   0.046  -0.112
    1UNL     C3    3  -0.053   0.031  -0.004
    1UNL     C4    4   0.012   0.104   0.121
    1UNL     O1    5   0.122   0.036   0.184
    1UNL     C5    6   0.225  -0.023   0.105
    1UNL     O2    7   0.196  -0.145   0.036
    1UNL     C6    8   0.174  -0.252   0.127
    1UNL     C7    9   0.103  -0.367   0.060
    1UNL     O3   10   0.178  -0.405  -0.055
    1UNL     C8   11   0.303  -0.275   0.200
    1UNL     O4   12   0.284  -0.387   0.292
    1UNL     C9   13   0.356  -0.153   0.273
    1UNL     O5   14   0.485  -0.179   0.325
    1UNL    C10   15   0.363  -0.029   0.177
    1UNL     O6   16   0.474  -0.046   0.091
    1UNL    C11   17   0.506   0.066   0.017
    1UNL     O7   18   0.425   0.085  -0.096
    1UNL    C12   19   0.465   0.010  -0.212
    1UNL    C13   20   0.438  -0.138  -0.206
    1UNL     O8   21   0.301  -0.154  -0.221
    1UNL    C14   22   0.609   0.037  -0.256
    1UNL     O9   23   0.623   0.067  -0.396
    1UNL    C15   24   0.679   0.136  -0.159
    1UNL    O10   25   0.626   0.271  -0.180
    1UNL    C16   26   0.660   0.084  -0.020
    1UNL    O11   27   0.727  -0.036  -0.008
    1UNL    O12   28   0.029   0.240   0.091
    1UNL    C17   29  -0.093   0.294   0.052
    1UNL    C18   30  -0.201   0.232  -0.005
    1UNL    C19   31  -0.327   0.304  -0.033
    1UNL    O13   32  -0.346   0.419   0.006
    1UNL     N1   33  -0.429   0.236  -0.094
    1UNL    C20   34  -0.558   0.301  -0.119
    1UNL    C21   35  -0.668   0.251  -0.026
    1UNL    C22   36  -0.669   0.098  -0.027
    1UNL    C23   37  -0.566   0.020  -0.067
    1UNL     N2   38  -0.591  -0.115  -0.055
    1UNL    C24   39  -0.716  -0.128   0.001
    1UNL    C25   40  -0.805  -0.239   0.011
    1UNL    C26   41  -0.937  -0.228   0.031
    1UNL    C27   42  -0.998  -0.097   0.027
    1UNL    C28   43  -0.914   0.014   0.034
    1UNL    C29   44  -0.771   0.004   0.021
    1UNL    C30   45  -0.435   0.078  -0.105
    1UNL    C31   46  -0.317   0.011  -0.030
    1UNL    C32   47  -0.189   0.097  -0.058
    1UNL     H1   48   0.084   0.249  -0.098
    1UNL     H2   49   0.153   0.166  -0.242
    1UNL     H3   50   0.069  -0.037  -0.176
    1UNL     H4   51  -0.073  -0.077   0.029
    1UNL     H5   52  -0.062   0.095   0.204
    1UNL     H6   53   0.244   0.037   0.013
    1UNL     H7   54   0.107  -0.224   0.204
    1UNL     H8   55   0.001  -0.342   0.020
    1UNL     H9   56   0.109  -0.454   0.125
    1UNL    H10   57   0.212  -0.322  -0.092
    1UNL    H11   58   0.377  -0.307   0.124
    1UNL    H12   59   0.366  -0.430   0.328
    1UNL    H13   60   0.294  -0.125   0.362
    1UNL    H14   61   0.549  -0.176   0.250
    1UNL    H15   62   0.384   0.062   0.236
    1UNL    H16   63   0.487   0.150   0.085
    1UNL    H17   64   0.403   0.051  -0.296
    1UNL    H18   65   0.494  -0.201  -0.277
    1UNL    H19   66   0.455  -0.175  -0.104
    1UNL    H20   67   0.248  -0.133  -0.136
    1UNL    H21   68   0.664  -0.060  -0.240
    1UNL    H22   69   0.633   0.162  -0.410
    1UNL    H23   70   0.787   0.143  -0.177
    1UNL    H24   71   0.526   0.278  -0.161
    1UNL    H25   72   0.697   0.158   0.046
    1UNL    H26   73   0.689  -0.091   0.067
    1UNL    H27   74  -0.103   0.401   0.076
    1UNL    H28   75  -0.538   0.412  -0.106
    1UNL    H29   76  -0.582   0.300  -0.222
    1UNL    H30   77  -0.771   0.281  -0.053
    1UNL    H31   78  -0.670   0.309   0.075
    1UNL    H32   79  -0.530  -0.182  -0.100
    1UNL    H33   80  -0.763  -0.334  -0.029
    1UNL    H34   81  -1.000  -0.318   0.030
    1UNL    H35   82  -1.102  -0.077   0.015
    1UNL    H36   83  -0.952   0.114   0.041
    1UNL    H37   84  -0.424   0.063  -0.214
    1UNL    H38   85  -0.307  -0.096  -0.032
    1UNL    H39   86  -0.336   0.020   0.075
    1UNL    H40   87  -0.168   0.106  -0.167
   0.00000   0.00000   0.00000   0.00000   0.00000   0.00000   0.00000   0.00000   0.00000
Generated with MDTraj, t= 95.0
 87
    1UNL     C1    1   0.125   0.162  -0.173
    1UNL     C2    2   0.070   0.048  -0.140
    1UNL     C3    3  -0.033   0.023  -0.032
    1UNL     C4    4   0.011   0.090   0.113
    1UNL     O1    5   0.120   0.035   0.178
    1UNL     C5    6   0.216  -0.014   0.090
    1UNL     O2    7   0.178  -0.138   0.029
    1UNL     C6    8   0.168  -0.236   0.135
    1UNL     C7    9   0.112  -0.365   0.075
    1UNL     O3   10   0.189  -0.416  -0.038
    1UNL     C8   11   0.299  -0.266   0.202
    1UNL     O4   12   0.314  -0.389   0.283
    1UNL     C9   13   0.349  -0.142   0.271
    1UNL     O5   14   0.476  -0.157   0.328
    1UNL    C10   15   0.356  -0.021   0.169
    1UNL     O6   16   0.463  -0.052   0.078
    1UNL    C11   17   0.492   0.058   0.003
    1UNL     O7   18   0.414   0.085  -0.118
    1UNL    C12   19   0.461   0.017  -0.233
    1UNL    C13   20   0.446  -0.127  -0.211
    1UNL     O8   21   0.315  -0.166  -0.185
    1UNL    C14   22   0.611   0.052  -0.275
    1UNL     O9   23   0.614   0.138  -0.388
    1UNL    C15   24   0.685   0.123  -0.161
    1UNL    O10   25   0.647   0.259  -0.162
    1UNL    C16   26   0.653   0.057  -0.023
    1UNL    O11   27   0.707  -0.074   0.009
    1UNL    O12   28   0.009   0.233   0.113
    1UNL    C17   29  -0.114   0.292   0.093
    1UNL    C18   30  -0.201   0.225   0.013
    1UNL    C19   31  -0.325   0.292  -0.017
    1UNL    O13   32  -0.339   0.413   0.001
    1UNL     N1   33  -0.434   0.221  -0.064
    1UNL    C20   34  -0.548   0.286  -0.124
    1UNL    C21   35  -0.674   0.238  -0.059
    1UNL    C22   36  -0.667   0.093  -0.024
    1UNL    C23   37  -0.560   0.011  -0.049
    1UNL     N2   38  -0.597  -0.126  -0.058
    1UNL    C24   39  -0.728  -0.131  -0.016
    1UNL    C25   40  -0.819  -0.234   0.027
    1UNL    C26   41  -0.948  -0.199   0.056
    1UNL    C27   42  -0.991  -0.065   0.049
    1UNL    C28   43  -0.912   0.034   0.004
    1UNL    C29   44  -0.780  -0.000  -0.018
    1UNL    C30   45  -0.430   0.070  -0.091
    1UNL    C31   46  -0.302   0.003  -0.025
    1UNL    C32   47  -0.174   0.096  -0.057
    1UNL     H1   48   0.084   0.256  -0.127
    1UNL     H2   49   0.199   0.166  -0.249
    1UNL     H3   50   0.106  -0.040  -0.194
    1UNL     H4   51  -0.061  -0.087  -0.020
    1UNL     H5   52  -0.068   0.058   0.185
    1UNL     H6   53   0.225   0.062   0.009
    1UNL     H7   54   0.092  -0.205   0.203
    1UNL     H8   55   0.005  -0.341   0.043
    1UNL     H9   56   0.122  -0.447   0.149
    1UNL    H10   57   0.203  -0.343  -0.105
    1UNL    H11   58   0.366  -0.271   0.110
    1UNL    H12   59   0.410  -0.404   0.294
    1UNL    H13   60   0.278  -0.119   0.357
    1UNL    H14   61   0.545  -0.157   0.255
    1UNL    H15   62   0.371   0.073   0.221
    1UNL    H16   63   0.469   0.145   0.064
    1UNL    H17   64   0.402   0.059  -0.318
    1UNL    H18   65   0.459  -0.184  -0.307
    1UNL    H19   66   0.511  -0.166  -0.130
    1UNL    H20   67   0.284  -0.132  -0.100
    1UNL    H21   68   0.678  -0.036  -0.294
    1UNL    H22   69   0.679   0.211  -0.373
    1UNL    H23   70   0.793   0.111  -0.177
    1UNL    H24   71   0.555   0.259  -0.138
    1UNL    H25   72   0.696   0.129   0.043
    1UNL    H26   73   0.640  -0.131   0.056
    1UNL    H27   74  -0.132   0.392   0.132
    1UNL    H28   75  -0.530   0.396  -0.119
    1UNL    H29   76  -0.538   0.266  -0.228
    1UNL    H30   77  -0.760   0.266  -0.122
    1UNL    H31   78  -0.715   0.297   0.034
    1UNL    H32   79  -0.541  -0.207  -0.047
    1UNL    H33   80  -0.793  -0.329   0.012
    1UNL    H34   81  -1.020  -0.268   0.086
    1UNL    H35   82  -1.092  -0.042   0.084
    1UNL    H36   83  -0.947   0.137   0.004
    1UNL    H37   84  -0.425   0.061  -0.201
    1UNL    H38   85  -0.286  -0.096  -0.063
    1UNL    H39   86  -0.313  -0.019   0.073
    1UNL    H40   87  -0.174   0.113  -0.168
   0.00000   0.00000   0.00000   0.00000   0.00000   0.00000   0.00000   0.00000   0.00000
Generated with MDTraj, t= 96.0
 87
    1UNL     C1    1   0.098   0.171  -0.142
    1UNL     C2    2   0.049   0.053  -0.113
    1UNL     C3    3  -0.051   0.026  -0.010
    1UNL     C4    4  -0.008   0.091   0.129
    1UNL     O1    5   0.107   0.034   0.193
    1UNL     C5    6   0.215  -0.014   0.110
    1UNL     O2    7   0.181  -0.132   0.044
    1UNL     C6    8   0.168  -0.248   0.131
    1UNL     C7    9   0.131  -0.377   0.045
    1UNL     O3   10   0.226  -0.413  -0.056
    1UNL     C8   11   0.294  -0.271   0.210
    1UNL     O4   12   0.298  -0.379   0.304
    1UNL     C9   13   0.342  -0.143   0.275
    1UNL     O5   14   0.467  -0.165   0.337
    1UNL    C10   15   0.351  -0.023   0.179
    1UNL     O6   16   0.457  -0.051   0.087
    1UNL    C11   17   0.490   0.048  -0.007
    1UNL     O7   18   0.417   0.060  -0.131
    1UNL    C12   19   0.470   0.005  -0.250
    1UNL    C13   20   0.480  -0.149  -0.238
    1UNL     O8   21   0.380  -0.197  -0.148
    1UNL    C14   22   0.610   0.075  -0.288
    1UNL     O9   23   0.597   0.185  -0.377
    1UNL    C15   24   0.683   0.128  -0.162
    1UNL    O10   25   0.669   0.267  -0.142
    1UNL    C16   26   0.648   0.043  -0.034
    1UNL    O11   27   0.677  -0.090  -0.061
    1UNL    O12   28   0.008   0.230   0.115
    1UNL    C17   29  -0.102   0.285   0.060
    1UNL    C18   30  -0.203   0.221  -0.002
    1UNL    C19   31  -0.329   0.291  -0.024
    1UNL    O13   32  -0.345   0.408   0.017
    1UNL     N1   33  -0.435   0.224  -0.098
    1UNL    C20   34  -0.553   0.291  -0.152
    1UNL    C21   35  -0.681   0.241  -0.083
    1UNL    C22   36  -0.672   0.099  -0.046
    1UNL    C23   37  -0.555   0.027  -0.050
    1UNL     N2   38  -0.589  -0.107  -0.018
    1UNL    C24   39  -0.729  -0.118  -0.009
    1UNL    C25   40  -0.804  -0.224   0.032
    1UNL    C26   41  -0.933  -0.201   0.064
    1UNL    C27   42  -0.995  -0.081   0.046
    1UNL    C28   43  -0.919   0.032   0.015
    1UNL    C29   44  -0.784   0.013  -0.012
    1UNL    C30   45  -0.425   0.077  -0.100
    1UNL    C31   46  -0.311   0.008  -0.020
    1UNL    C32   47  -0.181   0.088  -0.062
    1UNL     H1   48   0.046   0.259  -0.115
    1UNL     H2   49   0.180   0.172  -0.210
    1UNL     H3   50   0.092  -0.035  -0.153
    1UNL     H4   51  -0.064  -0.084   0.016
    1UNL     H5   52  -0.079   0.087   0.217
    1UNL     H6   53   0.229   0.062   0.028
    1UNL     H7   54   0.085  -0.238   0.201
    1UNL     H8   55   0.030  -0.361  -0.006
    1UNL     H9   56   0.136  -0.458   0.120
    1UNL    H10   57   0.275  -0.334  -0.094
    1UNL    H11   58   0.370  -0.301   0.130
    1UNL    H12   59   0.306  -0.342   0.394
    1UNL    H13   60   0.272  -0.126   0.363
    1UNL    H14   61   0.538  -0.174   0.271
    1UNL    H15   62   0.371   0.065   0.238
    1UNL    H16   63   0.465   0.146   0.032
    1UNL    H17   64   0.401   0.027  -0.334
    1UNL    H18   65   0.452  -0.198  -0.335
    1UNL    H19   66   0.576  -0.186  -0.194
    1UNL    H20   67   0.351  -0.131  -0.083
    1UNL    H21   68   0.673   0.001  -0.340
    1UNL    H22   69   0.648   0.268  -0.355
    1UNL    H23   70   0.787   0.103  -0.183
    1UNL    H24   71   0.576   0.298  -0.154
    1UNL    H25   72   0.707   0.083   0.050
    1UNL    H26   73   0.645  -0.146   0.013
    1UNL    H27   74  -0.102   0.391   0.066
    1UNL    H28   75  -0.531   0.401  -0.140
    1UNL    H29   76  -0.554   0.268  -0.255
    1UNL    H30   77  -0.780   0.257  -0.127
    1UNL    H31   78  -0.688   0.305   0.016
    1UNL    H32   79  -0.538  -0.186  -0.048
    1UNL    H33   80  -0.758  -0.326   0.060
    1UNL    H34   81  -0.996  -0.281   0.111
    1UNL    H35   82  -1.096  -0.066   0.078
    1UNL    H36   83  -0.964   0.129   0.004
    1UNL    H37   84  -0.422   0.044  -0.206
    1UNL    H38   85  -0.310  -0.097  -0.039
    1UNL    H39   86  -0.321   0.010   0.082
    1UNL    H40   87  -0.187   0.095  -0.175
   0.00000   0.00000   0.00000   0.00000   0.00000   0.00000   0.00000   0.00000   0.00000
Generated with MDTraj, t= 97.0
 87
    1UNL     C1    1   0.095   0.139  -0.190
    1UNL     C2    2   0.036   0.034  -0.139
    1UNL     C3    3  -0.057   0.035  -0.019
    1UNL     C4    4   0.003   0.085   0.118
    1UNL     O1    5   0.125   0.021   0.177
    1UNL     C5    6   0.235  -0.019   0.085
    1UNL     O2    7   0.209  -0.142   0.017
    1UNL     C6    8   0.176  -0.244   0.111
    1UNL     C7    9   0.134  -0.369   0.034
    1UNL     O3   10   0.245  -0.425  -0.030
    1UNL     C8   11   0.294  -0.270   0.209
    1UNL     O4   12   0.253  -0.370   0.301
    1UNL     C9   13   0.334  -0.136   0.282
    1UNL     O5   14   0.457  -0.158   0.355
    1UNL    C10   15   0.365  -0.028   0.173
    1UNL     O6   16   0.472  -0.071   0.089
    1UNL    C11   17   0.510   0.039   0.006
    1UNL     O7   18   0.418   0.058  -0.100
    1UNL    C12   19   0.463   0.010  -0.227
    1UNL    C13   20   0.478  -0.148  -0.248
    1UNL     O8   21   0.392  -0.216  -0.151
    1UNL    C14   22   0.591   0.093  -0.278
    1UNL     O9   23   0.547   0.207  -0.358
    1UNL    C15   24   0.679   0.132  -0.159
    1UNL    O10   25   0.643   0.264  -0.121
    1UNL    C16   26   0.663   0.034  -0.037
    1UNL    O11   27   0.698  -0.091  -0.070
    1UNL    O12   28   0.003   0.229   0.132
    1UNL    C17   29  -0.109   0.298   0.091
    1UNL    C18   30  -0.205   0.244   0.014
    1UNL    C19   31  -0.326   0.305  -0.036
    1UNL    O13   32  -0.346   0.427  -0.018
    1UNL     N1   33  -0.429   0.223  -0.109
    1UNL    C20   34  -0.552   0.290  -0.151
    1UNL    C21   35  -0.673   0.235  -0.066
    1UNL    C22   36  -0.673   0.090  -0.054
    1UNL    C23   37  -0.561   0.015  -0.068
    1UNL     N2   38  -0.586  -0.109  -0.016
    1UNL    C24   39  -0.722  -0.121   0.017
    1UNL    C25   40  -0.803  -0.225   0.060
    1UNL    C26   41  -0.939  -0.196   0.062
    1UNL    C27   42  -0.988  -0.070   0.054
    1UNL    C28   43  -0.916   0.036   0.020
    1UNL    C29   44  -0.777   0.008   0.002
    1UNL    C30   45  -0.433   0.073  -0.121
    1UNL    C31   46  -0.313   0.011  -0.052
    1UNL    C32   47  -0.185   0.110  -0.047
    1UNL     H1   48   0.074   0.234  -0.148
    1UNL     H2   49   0.142   0.124  -0.291
    1UNL     H3   50   0.034  -0.060  -0.197
    1UNL     H4   51  -0.092  -0.070   0.007
    1UNL     H5   52  -0.066   0.067   0.203
    1UNL     H6   53   0.248   0.061   0.007
    1UNL     H7   54   0.093  -0.205   0.175
    1UNL     H8   55   0.055  -0.335  -0.042
    1UNL     H9   56   0.112  -0.449   0.106
    1UNL    H10   57   0.295  -0.351  -0.067
    1UNL    H11   58   0.384  -0.302   0.145
    1UNL    H12   59   0.275  -0.333   0.389
    1UNL    H13   60   0.248  -0.103   0.353
    1UNL    H14   61   0.526  -0.135   0.291
    1UNL    H15   62   0.386   0.065   0.225
    1UNL    H16   63   0.496   0.132   0.059
    1UNL    H17   64   0.378   0.037  -0.292
    1UNL    H18   65   0.444  -0.182  -0.349
    1UNL    H19   66   0.579  -0.187  -0.222
    1UNL    H20   67   0.394  -0.162  -0.071
    1UNL    H21   68   0.651   0.032  -0.343
    1UNL    H22   69   0.502   0.275  -0.305
    1UNL    H23   70   0.783   0.121  -0.195
    1UNL    H24   71   0.553   0.270  -0.074
    1UNL    H25   72   0.724   0.074   0.049
    1UNL    H26   73   0.672  -0.146   0.009
    1UNL    H27   74  -0.109   0.397   0.137
    1UNL    H28   75  -0.541   0.401  -0.133
    1UNL    H29   76  -0.573   0.270  -0.252
    1UNL    H30   77  -0.764   0.281  -0.108
    1UNL    H31   78  -0.667   0.274   0.043
    1UNL    H32   79  -0.507  -0.166   0.008
    1UNL    H33   80  -0.773  -0.323   0.089
    1UNL    H34   81  -1.003  -0.278   0.082
    1UNL    H35   82  -1.095  -0.051   0.063
    1UNL    H36   83  -0.962   0.131   0.001
    1UNL    H37   84  -0.435   0.065  -0.232
    1UNL    H38   85  -0.287  -0.086  -0.080
    1UNL    H39   86  -0.346   0.005   0.049
    1UNL    H40   87  -0.171   0.138  -0.157
   0.00000   0.00000   0.00000   0.00000   0.00000   0.00000   0.00000   0.00000   0.00000
Generated with MDTraj, t= 98.0
 87
    1UNL     C1    1   0.105   0.154  -0.201
    1UNL     C2    2   0.076   0.039  -0.145
    1UNL     C3    3  -0.033   0.016  -0.038
    1UNL     C4    4   0.018   0.086   0.096
    1UNL     O1    5   0.116   0.010   0.175
    1UNL     C5    6   0.226  -0.026   0.091
    1UNL     O2    7   0.195  -0.141   0.022
    1UNL     C6    8   0.160  -0.244   0.117
    1UNL     C7    9   0.129  -0.374   0.041
    1UNL     O3   10   0.239  -0.411  -0.032
    1UNL     C8   11   0.276  -0.276   0.219
    1UNL     O4   12   0.242  -0.387   0.307
    1UNL     C9   13   0.323  -0.142   0.286
    1UNL     O5   14   0.435  -0.165   0.375
    1UNL    C10   15   0.355  -0.040   0.180
    1UNL     O6   16   0.467  -0.073   0.101
    1UNL    C11   17   0.502   0.041   0.012
    1UNL     O7   18   0.418   0.074  -0.100
    1UNL    C12   19   0.448   0.018  -0.226
    1UNL    C13   20   0.481  -0.132  -0.236
    1UNL     O8   21   0.384  -0.201  -0.155
    1UNL    C14   22   0.569   0.102  -0.276
    1UNL     O9   23   0.524   0.220  -0.343
    1UNL    C15   24   0.665   0.148  -0.160
    1UNL    O10   25   0.625   0.279  -0.118
    1UNL    C16   26   0.654   0.049  -0.035
    1UNL    O11   27   0.707  -0.077  -0.056
    1UNL    O12   28   0.054   0.219   0.068
    1UNL    C17   29  -0.063   0.276   0.016
    1UNL    C18   30  -0.182   0.216  -0.028
    1UNL    C19   31  -0.311   0.284  -0.038
    1UNL    O13   32  -0.320   0.402  -0.004
    1UNL     N1   33  -0.428   0.223  -0.094
    1UNL    C20   34  -0.543   0.310  -0.123
    1UNL    C21   35  -0.676   0.252  -0.070
    1UNL    C22   36  -0.677   0.100  -0.052
    1UNL    C23   37  -0.558   0.022  -0.067
    1UNL     N2   38  -0.595  -0.104  -0.035
    1UNL    C24   39  -0.731  -0.115   0.007
    1UNL    C25   40  -0.811  -0.222   0.050
    1UNL    C26   41  -0.939  -0.204   0.087
    1UNL    C27   42  -0.987  -0.074   0.093
    1UNL    C28   43  -0.919   0.033   0.045
    1UNL    C29   44  -0.783   0.018   0.001
    1UNL    C30   45  -0.426   0.071  -0.112
    1UNL    C31   46  -0.306  -0.002  -0.036
    1UNL    C32   47  -0.171   0.072  -0.071
    1UNL     H1   48   0.045   0.239  -0.178
    1UNL     H2   49   0.186   0.162  -0.267
    1UNL     H3   50   0.135  -0.046  -0.166
    1UNL     H4   51  -0.064  -0.092  -0.018
    1UNL     H5   52  -0.069   0.096   0.161
    1UNL     H6   53   0.249   0.058   0.020
    1UNL     H7   54   0.077  -0.207   0.188
    1UNL     H8   55   0.054  -0.353  -0.041
    1UNL     H9   56   0.112  -0.455   0.111
    1UNL    H10   57   0.271  -0.328  -0.081
    1UNL    H11   58   0.358  -0.316   0.152
    1UNL    H12   59   0.181  -0.357   0.379
    1UNL    H13   60   0.231  -0.101   0.344
    1UNL    H14   61   0.514  -0.146   0.321
    1UNL    H15   62   0.379   0.053   0.235
    1UNL    H16   63   0.492   0.128   0.078
    1UNL    H17   64   0.358   0.041  -0.284
    1UNL    H18   65   0.456  -0.177  -0.334
    1UNL    H19   66   0.582  -0.158  -0.198
    1UNL    H20   67   0.392  -0.152  -0.070
    1UNL    H21   68   0.631   0.051  -0.349
    1UNL    H22   69   0.596   0.284  -0.367
    1UNL    H23   70   0.770   0.144  -0.194
    1UNL    H24   71   0.526   0.283  -0.097
    1UNL    H25   72   0.719   0.105   0.040
    1UNL    H26   73   0.676  -0.137   0.010
    1UNL    H27   74  -0.046   0.384   0.038
    1UNL    H28   75  -0.532   0.409  -0.075
    1UNL    H29   76  -0.551   0.322  -0.227
    1UNL    H30   77  -0.762   0.279  -0.136
    1UNL    H31   78  -0.693   0.312   0.025
    1UNL    H32   79  -0.525  -0.175  -0.026
    1UNL    H33   80  -0.777  -0.322   0.047
    1UNL    H34   81  -1.013  -0.282   0.107
    1UNL    H35   82  -1.090  -0.068   0.122
    1UNL    H36   83  -0.959   0.133   0.047
    1UNL    H37   84  -0.418   0.055  -0.221
    1UNL    H38   85  -0.308  -0.100  -0.061
    1UNL    H39   86  -0.309   0.009   0.073
    1UNL    H40   87  -0.162   0.071  -0.185
   0.00000   0.00000   0.00000   0.00000   0.00000   0.00000   0.00000   0.00000   0.00000
Generated with MDTraj, t= 99.0
 87
    1UNL     C1    1   0.108   0.100  -0.237
    1UNL     C2    2   0.062  -0.000  -0.165
    1UNL     C3    3  -0.035   0.007  -0.053
    1UNL     C4    4   0.014   0.088   0.072
    1UNL     O1    5   0.099   0.010   0.156
    1UNL     C5    6   0.208  -0.038   0.085
    1UNL     O2    7   0.191  -0.164   0.024
    1UNL     C6    8   0.155  -0.258   0.117
    1UNL     C7    9   0.123  -0.394   0.042
    1UNL     O3   10   0.206  -0.426  -0.064
    1UNL     C8   11   0.274  -0.286   0.217
    1UNL     O4   12   0.259  -0.382   0.321
    1UNL     C9   13   0.321  -0.154   0.284
    1UNL     O5   14   0.442  -0.189   0.358
    1UNL    C10   15   0.333  -0.033   0.186
    1UNL     O6   16   0.452  -0.038   0.109
    1UNL    C11   17   0.470   0.072   0.023
    1UNL     O7   18   0.388   0.064  -0.095
    1UNL    C12   19   0.450   0.021  -0.222
    1UNL    C13   20   0.462  -0.134  -0.230
    1UNL     O8   21   0.376  -0.204  -0.144
    1UNL    C14   22   0.580   0.112  -0.254
    1UNL     O9   23   0.541   0.214  -0.345
    1UNL    C15   24   0.655   0.171  -0.132
    1UNL    O10   25   0.620   0.303  -0.106
    1UNL    C16   26   0.623   0.076  -0.011
    1UNL    O11   27   0.667  -0.056  -0.043
    1UNL    O12   28   0.045   0.216   0.031
    1UNL    C17   29  -0.064   0.288   0.006
    1UNL    C18   30  -0.177   0.224  -0.034
    1UNL    C19   31  -0.308   0.295  -0.047
    1UNL    O13   32  -0.327   0.418  -0.033
    1UNL     N1   33  -0.417   0.221  -0.093
    1UNL    C20   34  -0.539   0.297  -0.109
    1UNL    C21   35  -0.647   0.248  -0.013
    1UNL    C22   36  -0.644   0.096  -0.009
    1UNL    C23   37  -0.538   0.021  -0.045
    1UNL     N2   38  -0.575  -0.114  -0.037
    1UNL    C24   39  -0.708  -0.124   0.003
    1UNL    C25   40  -0.796  -0.227   0.032
    1UNL    C26   41  -0.911  -0.179   0.089
    1UNL    C27   42  -0.960  -0.045   0.086
    1UNL    C28   43  -0.883   0.055   0.057
    1UNL    C29   44  -0.748   0.010   0.016
    1UNL    C30   45  -0.415   0.072  -0.110
    1UNL    C31   46  -0.296  -0.002  -0.048
    1UNL    C32   47  -0.169   0.074  -0.088
    1UNL     H1   48   0.076   0.202  -0.202
    1UNL     H2   49   0.162   0.095  -0.328
    1UNL     H3   50   0.096  -0.100  -0.192
    1UNL     H4   51  -0.059  -0.095  -0.008
    1UNL     H5   52  -0.072   0.098   0.138
    1UNL     H6   53   0.232   0.039   0.006
    1UNL     H7   54   0.068  -0.217   0.183
    1UNL     H8   55   0.022  -0.383  -0.002
    1UNL     H9   56   0.140  -0.475   0.107
    1UNL    H10   57   0.268  -0.350  -0.089
    1UNL    H11   58   0.360  -0.315   0.151
    1UNL    H12   59   0.325  -0.360   0.391
    1UNL    H13   60   0.245  -0.122   0.368
    1UNL    H14   61   0.521  -0.142   0.320
    1UNL    H15   62   0.336   0.061   0.247
    1UNL    H16   63   0.438   0.159   0.085
    1UNL    H17   64   0.373   0.053  -0.292
    1UNL    H18   65   0.449  -0.173  -0.330
    1UNL    H19   66   0.557  -0.168  -0.185
    1UNL    H20   67   0.376  -0.165  -0.048
    1UNL    H21   68   0.653   0.053  -0.309
    1UNL    H22   69   0.578   0.301  -0.319
    1UNL    H23   70   0.765   0.166  -0.144
    1UNL    H24   71   0.537   0.310  -0.057
    1UNL    H25   72   0.680   0.120   0.077
    1UNL    H26   73   0.617  -0.122   0.018
    1UNL    H27   74  -0.062   0.396   0.013
    1UNL    H28   75  -0.519   0.406  -0.100
    1UNL    H29   76  -0.571   0.288  -0.210
    1UNL    H30   77  -0.747   0.297  -0.040
    1UNL    H31   78  -0.630   0.280   0.090
    1UNL    H32   79  -0.537  -0.187  -0.096
    1UNL    H33   80  -0.772  -0.338   0.014
    1UNL    H34   81  -0.984  -0.249   0.122
    1UNL    H35   82  -1.059  -0.029   0.132
    1UNL    H36   83  -0.910   0.159   0.072
    1UNL    H37   84  -0.430   0.040  -0.215
    1UNL    H38   85  -0.287  -0.094  -0.094
    1UNL    H39   86  -0.308  -0.017   0.060
    1UNL    H40   87  -0.155   0.073  -0.202
   0.00000   0.00000   0.00000   0.00000   0.00000   0.00000   0.00000   0.00000   0.00000
