1TPCN05970
33
    1res  C1    1   -0.253  -0.491  -0.346
    1res  C2    2   -0.223  -0.440  -0.059
    1res  C3    3   -0.040  -0.341  -0.251
    1res  C4    4   -0.105  -0.157  -0.006
    1res  C5    5   -0.231   0.104  -0.006
    1res  C6    6   -0.367   0.167   0.163
    1res  C7    7   -0.626   0.229   0.295
    1res  C8    8   -0.785   0.029   0.312
    1res  C9    9   -0.769   0.259   0.501
    1res  C10   10   -0.667   0.444   0.453
    1res  C11   11   -0.466   0.433   0.373
    1res  C12   12   -0.291   0.342  -0.116
    1res  C13   13   -0.432   0.163  -0.206
    1res  C14   14   -0.589  -0.015  -0.227
    1res  C15   15   -0.653  -0.334  -0.243
    1res  C16   16   -0.727  -0.139   0.013
    1res  C17   17   -0.891  -0.012  -0.129
    1res  C18   18   -0.754   0.204  -0.146
    1res  C19   19   -0.255   0.043  -0.293
    1res  C20   20    0.170  -0.339   0.055
    1res  C21   21    0.275  -0.406  -0.190
    1res  C22   22    0.136  -0.033  -0.205
    1res  C23   23    0.419  -0.175  -0.300
    1res  C24   24    0.470   0.151  -0.180
    1res  C25   25    0.456   0.066   0.112
    1res  C26   26    0.658   0.216   0.096
    1res  C27   27    0.912   0.304   0.215
    1res  C28   28    1.020   0.288   0.470
    1res  C29   29    0.785   0.263   0.522
    1res  C30   30    0.722   0.435   0.349
    1res  C31   31    0.736   0.241  -0.153
    1res  C32   32    0.894   0.005  -0.008
    1res  C33   33    0.586  -0.194  -0.078
  10.00000  10.00000  10.00000
