1TPCN05463
32
    1res  C1    1    0.815   0.256   0.202
    1res  C2    2    0.827  -0.039   0.241
    1res  C3    3    0.613   0.080   0.103
    1res  C4    4    0.784  -0.036  -0.119
    1res  C5    5    1.006   0.060  -0.216
    1res  C6    6    1.204   0.202  -0.325
    1res  C7    7    1.209   0.051  -0.014
    1res  C8    8    1.268  -0.148  -0.147
    1res  C9    9    1.107  -0.179  -0.329
    1res  C10   10    0.603  -0.299   0.056
    1res  C11   11    0.408  -0.162  -0.110
    1res  C12   12    0.282   0.108  -0.057
    1res  C13   13    0.244  -0.134   0.193
    1res  C14   14   -0.026  -0.055   0.153
    1res  C15   15   -0.132   0.124  -0.017
    1res  C16   16   -0.321  -0.031   0.075
    1res  C17   17   -0.592  -0.121   0.203
    1res  C18   18   -0.727   0.003   0.356
    1res  C19   19   -0.788   0.088   0.131
    1res  C20   20   -1.062   0.092   0.146
    1res  C21   21   -1.255   0.037   0.367
    1res  C22   22   -1.330  -0.027   0.072
    1res  C23   23   -1.169  -0.118  -0.096
    1res  C24   24   -1.070   0.083  -0.123
    1res  C25   25   -0.601   0.130   0.048
    1res  C26   26   -0.536   0.145  -0.208
    1res  C27   27   -0.462  -0.017  -0.443
    1res  C28   28   -0.661   0.248  -0.470
    1res  C29   29   -0.795   0.299  -0.271
    1res  C30   30   -0.627   0.382  -0.103
    1res  C31   31   -0.259  -0.251  -0.007
    1res  C32   32    0.096  -0.315   0.035
  10.00000  10.00000  10.00000
