1TPCN05980
28
    1res  C1    1    0.918   0.131  -0.176
    1res  C2    2    0.593   0.012  -0.057
    1res  C3    3    0.664  -0.184  -0.249
    1res  C4    4    0.508  -0.280  -0.083
    1res  C5    5    0.417  -0.072   0.048
    1res  C6    6    0.200   0.125   0.198
    1res  C7    7    0.039   0.047  -0.055
    1res  C8    8   -0.220   0.252  -0.051
    1res  C9    9   -0.370   0.063   0.108
    1res  C10   10   -0.602  -0.039  -0.113
    1res  C11   11   -0.580   0.243  -0.276
    1res  C12   12   -0.821   0.247  -0.111
    1res  C13   13   -0.654   0.404  -0.042
    1res  C14   14   -0.702   0.433   0.203
    1res  C15   15   -0.343  -0.052  -0.218
    1res  C16   16   -0.182  -0.157  -0.030
    1res  C17   17   -0.013  -0.265   0.064
    1res  C18   18    0.043  -0.566   0.082
    1res  C19   19    0.188  -0.677  -0.090
    1res  C20   20   -0.067  -0.807   0.001
    1res  C21   21   -0.196  -0.705   0.196
    1res  C22   22   -0.256  -0.505   0.076
    1res  C23   23   -0.001  -0.095   0.186
    1res  C24   24    0.203  -0.202   0.273
    1res  C25   25    0.698   0.352  -0.068
    1res  C26   26    0.627   0.595   0.001
    1res  C27   27    0.437   0.528  -0.152
    1res  C28   28    0.377   0.322  -0.047
  10.00000  10.00000  10.00000
