[ moleculetype ]
; name        nrexcl
res           1

[ atoms ]
;    nr  type  resnr resid  atom  cgnr     charge       mass
      1 SC4       1 res   C1        1      0.000     54.000
      2 TN4a      1 res   C2        2      0.000     36.000
      3 TN6a      1 res   C3        3      0.000     36.000
      4 SN6       1 res   C4        4      0.000     54.000
      5 SN3r      1 res   C5        5      0.000     54.000
      6 SN4a      1 res   C6        6      0.000     54.000
      7 N4a       1 res   C7        7      0.000     72.000
      8 TC5       1 res   C8        8      0.000     36.000
      9 TC5       1 res   C9        9      0.000     36.000
     10 SN6       1 res   C10      10      0.000     54.000
     11 SN6       1 res   C11      11      0.000     54.000
     12 SP4       1 res   C12      12      0.000     54.000
     13 TN6       1 res   C13      13      0.000     36.000

[ constraints ]
;  ai    aj   funct      b0(nm)
    1     2     1      0.31489
   10    11     1      0.32975
    2     3     1      0.26942
    6    12     1      0.28990
    4     5     1      0.35459
    9    11     1      0.34003
    3     4     1      0.30603
    7     8     1      0.33236
    5     6     1      0.25042
    9    10     1      0.29643
   12    13     1      0.28223
    6     7     1      0.31302
    2     4     1      0.21811
    8     9     1      0.22792

[ bonds ]
;  ai    aj   funct      b0(nm)          k(kJ/mol/nm^2)
    6    13     1      0.26886          18047.2

[ angles ]
;  ai    aj    ak  funct     th0(deg)        k(kJ/mol/rad^2)
    1     2     3     1     98.46930            93.45
    1     2     4     1    109.23470            72.62
    2     3     4     1     43.93499          2215.30
    2     4     3     1     59.11169           992.42
    2     4     5     1    108.58614           723.11
    3     2     4     1     76.95293           902.94
    3     4     5     1     52.91714          2056.96
    4     5     6     1    108.12917           268.98
    5     6     7     1    105.84345           303.59
    5     6    12     1    142.89702           377.63
    5     6    13     1    116.91098           682.94
    6     7     8     1    129.75770           395.47
    6    12    13     1     56.04408          1161.23
    6    13    12     1     63.45533          1491.00
    7     6    12     1     75.56098           921.30
    7     6    13     1    133.75413           537.41
    7     8     9     1    148.34768           342.01
    8     9    10     1    157.51401           725.25
    8     9    11     1     96.73368          1130.78
    9    10    11     1     65.53003          8065.92
    9    11    10     1     52.50549         12974.87
   10     9    11     1     61.96447          7809.77
   12     6    13     1     60.50102          1869.76

[ dihedrals ]
;  ai    aj    ak    al  funct   phi0(deg)        k(kJ/mol)   mult
    1     2     3     4     1    -70.06305       17.810      1
    1     2     4     3     1     81.68776       17.610      1
    1     2     4     5     1     98.58643       23.342      1
    2     3     4     5     1     18.92635       17.059      1
    2     4     5     6     1   -137.91032       19.073      1
    3     2     4     5     1   -165.82620       15.048      1
    3     4     5     6     1   -121.22200       11.441      1
    4     5     6     7     1     80.00081       10.793      1
    4     5     6    12     1     -7.95874       15.091      1
    4     5     6    13     1    -83.08905       12.946      1
    5     6     7     8     1    108.92560       17.097      1
    5     6    12    13     1     84.10890       10.779      1
    5     6    13    12     1    -42.00341       10.724      1
    6     7     8     9     1     39.85962       25.276      1
    7     6    12    13     1    -15.88823       12.206      1
    7     6    13    12     1    160.07032       13.644      1
    7     8     9    10     1      7.91057       29.372      1
    7     8     9    11     1      7.60611       22.099      1
    8     7     6    12     1   -108.90240       17.170      1
    8     7     6    13     1    -92.27789       19.159      1
    8     9    10    11     1    178.29967       23.279      1
    8     9    11    10     1     -1.36377       12.917      1
