[ moleculetype ]
; name        nrexcl
res           1

[ atoms ]
;    nr  type resnr resid  atom  cgnr     charge       mass
      1 C4        1 res   C1        1      0.000     72.000
      2 C1        1 res   C2        2      0.000     72.000
      3 SC2       1 res   C3        3      0.000     54.000
      4 C1        1 res   C4        4      0.000     72.000
      5 C4        1 res   C5        5      0.000     72.000
      6 SN4a      1 res   C6        6      0.000     54.000
      7 C1        1 res   C7        7      0.000     72.000

[ bonds ]
;  ai    aj   funct      b0(nm)        k
    1     2     1      0.38785    20000
    2     3     1      0.32774    20000
    3     4     1      0.46386    20000
    3     6     1      0.36126    20000
    4     5     1      0.45687    20000
    6     7     1      0.35506    20000
