[ moleculetype ]
; name        nrexcl
res           1

[ atoms ]
;    nr  type  resnr resid  atom  cgnr     charge       mass
      1 TX2       1 res   C1        1      0.000     36.000
      2 TX2       1 res   C2        2      0.000     36.000
      3 TX2       1 res   C3        3      0.000     36.000
      4 TX2       1 res   C4        4      0.000     36.000
      5 TX2       1 res   C5        5      0.000     36.000
      6 SN2a      1 res   C6        6      0.000     54.000

[ bonds ]
;  ai    aj   funct      b0(nm)          k(kJ/mol/nm^2)
    1     2     1      0.23337         108651.9
    1     6     1      0.28755           3344.6
    2     3     1      0.23414          43003.9
    3     4     1      0.23376          58278.4
    4     5     1      0.23393          75635.6
    5     6     1      0.29546           3259.8

[ angles ]
;  ai    aj    ak  funct     th0(deg)        k(kJ/mol/rad^2)
    1     2     3     1    119.22192          3685.13
    1     6     5     1     86.21275          1924.16
    2     1     6     1    131.82788           184.75
    2     3     4     1    119.20967          1468.41
    3     4     5     1    119.31545          1488.14
    4     5     6     1    130.22972           275.13

[ dihedrals ]
;  ai    aj    ak    al  funct   phi0(deg)        k(kJ/mol)   mult
    1     2     3     4     1    179.86797       21.709      1
    1     2     3     4     1    179.80777       18.777      2
    1     2     3     4     1    179.93145       14.438      3
    1     6     5     4     1    147.87285       19.100      1
    1     6     5     4     1    115.72652       17.201      2
    1     6     5     4     1     83.53213       14.290      3
    2     1     6     5     1   -147.11944       15.763      1
    2     1     6     5     1   -114.15781       14.603      2
    2     1     6     5     1    -81.01295       12.800      3
    2     3     4     5     1   -178.22015       19.159      1
    2     3     4     5     1   -176.38884       17.193      2
    2     3     4     5     1   -174.43488       14.195      3
    3     2     1     6     1    156.06417       20.342      1
    3     2     1     6     1    132.10755       17.670      2
    3     2     1     6     1    108.09064       13.744      3
    3     4     5     6     1   -158.03795       19.034      1
    3     4     5     6     1   -135.97282       16.838      2
    3     4     5     6     1   -113.66160       13.578      3
