[ moleculetype ]
; name        nrexcl
res           1

[ atoms ]
;    nr  type  resnr resid  atom  cgnr     charge       mass
      1 TC3       1 res   C1        1      0.000     36.000
      2 TC3       1 res   C2        2      0.000     36.000
      3 TN1       1 res   C3        3      0.000     36.000
      4 TC4       1 res   C4        4      0.000     36.000
      5 SC4       1 res   C5        5      0.000     54.000
      6 TN6d      1 res   C6        6      0.000     36.000
      7 TC5       1 res   C7        7      0.000     36.000
      8 TC5       1 res   C8        8      0.000     36.000
      9 TC5       1 res   C9        9      0.000     36.000
     10 TC3       1 res   C10      10      0.000     36.000
     11 TC5       1 res   C11      11      0.000     36.000
     12 TC5       1 res   C12      12      0.000     36.000
     13 TC5       1 res   C13      13      0.000     36.000
     14 TN6d      1 res   C14      14      0.000     36.000
     15 TC5       1 res   C15      15      0.000     36.000
     16 TC3       1 res   C16      16      0.000     36.000
     17 TN6d      1 res   C17      17      0.000     36.000
     18 TC3       1 res   C18      18      0.000     36.000
     19 TC3       1 res   C19      19      0.000     36.000
     20 TC3       1 res   C20      20      0.000     36.000
     21 TC5       1 res   C21      21      0.000     36.000
     22 N4a       1 res   C22      22      0.000     72.000
     23 TC3       1 res   C23      23      0.000     36.000
     24 N4a       1 res   C24      24      0.000     72.000

[ constraints ]
;  ai    aj   funct      b0(nm)
   17    21     1      0.28616
    4     5     1      0.23912
   19    21     1      0.26697
    5    10     1      0.30984
   17    18     1      0.25687
    5     7     1      0.26131
   13    14     1      0.21785
   23    24     1      0.33828
    4    23     1      0.25972
   18    19     1      0.27399
   11    13     1      0.22249
   14    15     1      0.21709
    7     9     1      0.25039
   19    20     1      0.25635
    5     6     1      0.35311
    6     7     1      0.21674
   15    16     1      0.25368
    1     2     1      0.25385
    2     3     1      0.27037
   11    12     1      0.30190
   18    21     1      0.29277
   10    23     1      0.25393
    7     8     1      0.24997
   16    17     1      0.26722
   13    15     1      0.18420
   21    22     1      0.33497
   15    21     1      0.24266
    3     4     1      0.23939
   12    13     1      0.24974
    8     9     1      0.29151
    2    23     1      0.29080

[ bonds ]
;  ai    aj   funct      b0(nm)          k(kJ/mol/nm^2)
   10    11     1      0.25034           5914.7

[ angles ]
;  ai    aj    ak  funct     th0(deg)        k(kJ/mol/rad^2)
    1     2     3     1    142.37406           176.26
    1     2    23     1    103.21755           749.34
    2     3     4     1     77.70853          1506.48
    2    23     4     1     70.99421          3404.47
    2    23    10     1     76.71887           737.84
    2    23    24     1    102.84528           318.14
    3     2    23     1     89.05701          1052.91
    3     4     5     1    116.76385           727.47
    3     4    23     1    104.21435           410.57
    4     5     6     1    131.93918           348.22
    4     5     7     1    123.84419           244.35
    4     5    10     1     97.19548          1569.76
    4    23    10     1    107.61160           880.86
    4    23    24     1     73.39772           242.02
    5     4    23     1     82.06280          1480.74
    5     6     7     1     47.50943          3691.63
    5     7     6     1     94.79212          2264.32
    5     7     8     1    166.41881          1114.49
    5     7     9     1     96.82988          1675.38
    5    10    11     1    114.67424           140.61
    5    10    23     1     70.30476          1562.16
    6     5     7     1     37.69842          9672.34
    6     5    10     1     64.81773          2111.79
    6     7     8     1     96.87713          1545.77
    6     7     9     1    166.97381          1302.25
    7     5    10     1    101.75897          1864.89
    7     8     9     1     54.43736          5708.18
    7     9     8     1     54.29450          9962.06
    8     7     9     1     71.26814          6177.95
   10    11    12     1     83.25339           100.96
   10    11    13     1    132.31671           118.93
   10    23    24     1    172.88789           426.63
   11    10    23     1    167.10400           165.36
   11    12    13     1     46.38630         11606.38
   11    13    12     1     79.25169          5908.38
   11    13    14     1    173.56497          1106.16
   11    13    15     1    118.89205          1735.66
   12    11    13     1     54.36203          7641.07
   12    13    14     1     96.84699          1730.39
   12    13    15     1    161.07386          1574.27
   13    14    15     1     50.11369          7273.40
   13    15    14     1     65.15565          5335.68
   13    15    16     1    118.17510          1404.48
   13    15    21     1    147.18197           258.68
   14    13    15     1     64.73066          4941.10
   14    15    16     1    167.19823           263.73
   14    15    21     1     92.70845           558.85
   15    16    17     1     91.62422           580.20
   15    21    17     1     89.49430           702.95
   15    21    18     1     80.32522          1398.74
   15    21    19     1    138.48675          1068.04
   15    21    22     1     97.51427           511.19
   16    15    21     1     78.77410          2476.35
   16    17    18     1    104.21352           291.31
   16    17    21     1     69.32861          1924.62
   17    18    19     1     71.47578          3127.35
   17    18    21     1     62.34684          4966.36
   17    21    18     1     52.65958          4991.66
   17    21    19     1     68.16246          3809.86
   17    21    22     1    144.41734           403.25
   18    17    21     1     64.99360          4849.80
   18    19    20     1    149.21058           307.68
   18    19    21     1     65.51990          5047.74
   18    21    19     1     58.39301          5524.87
   18    21    22     1     94.33410           557.87
   19    18    21     1     56.08708          5332.96
   19    21    22     1     84.48154           300.17
   20    19    21     1     94.76062           959.20

[ dihedrals ]
;  ai    aj    ak    al  funct   phi0(deg)        k(kJ/mol)   mult
    1     2     3     4     1     34.79557       14.291      1
    1     2    23     4     1     -7.96271       13.619      1
    1     2    23    10     1    108.91077       12.950      1
    1     2    23    24     1    -77.48475       15.645      1
    2     3     4     5     1    126.50073       11.497      1
    2     3     4    23     1   -147.84248        9.304      1
    2    23     4     3     1    148.89607        8.530      1
    2    23     4     5     1    -96.99982        5.563      1
    2    23    10     5     1    104.01208        6.289      1
    2    23    10    11     1    -81.04752       12.735      1
    3     2    23     4     1   -152.94062        8.573      1
    3     2    23    10     1    -38.39814       10.725      1
    3     2    23    24     1    139.73961       13.620      1
    3     4     5     6     1   -150.93715       12.836      1
    3     4     5     7     1    160.06217       12.186      1
    3     4     5    10     1    -91.00870       11.403      1
    3     4    23    10     1     79.18675       11.473      1
    3     4    23    24     1   -103.12288       12.897      1
    4     3     2    23     1    151.00876        8.575      1
    4     5     6     7     1     83.04224       14.340      1
    4     5     7     6     1    -64.91664       12.834      1
    4     5     7     8     1    101.24540       29.451      1
    4     5     7     9     1    116.83935       12.886      1
    4     5    10    11     1      7.19007       18.535      1
    4     5    10    23     1   -169.10226        8.569      1
    4    23    10     5     1    169.15351        8.532      1
    4    23    10    11     1     -3.03102       11.994      1
    5     4    23    10     1   -165.33274       10.007      1
    5     4    23    24     1     11.23341       11.469      1
    5     6     7     8     1      5.06781       11.475      1
    5     6     7     9     1      2.32537       26.063      1
    5     7     8     9     1   -162.78245       27.371      1
    5     7     9     8     1      5.07602       11.453      1
    5    10    11    12     1    131.74647       25.485      1
    5    10    11    13     1    109.92766       25.123      1
    5    10    23    24     1     -4.00117        1.235      1
    6     5     4    23     1    108.76614       10.016      1
    6     5     7     8     1    -14.73874       27.266      1
    6     5     7     9     1      0.27717       10.784      1
    6     5    10    11     1    142.01280       20.425      1
    6     5    10    23     1    -34.83573       12.908      1
    6     7     5    10     1   -172.26463       12.139      1
    6     7     8     9     1      1.01229       11.458      1
    6     7     9     8     1   -176.42474       28.570      1
    7     5     4    23     1     61.04428       10.015      1
    7     5    10    11     1    135.91425       22.895      1
    7     5    10    23     1    -39.74413       13.542      1
    7     6     5    10     1      9.07853       12.110      1
    8     7     5    10     1     -8.89670       26.699      1
    9     7     5    10     1      8.07313       13.601      1
   10     5     4    23     1    170.10045        7.820      1
   10    11    12    13     1     22.11268       13.656      1
   10    11    13    12     1   -148.13764       17.793      1
   10    11    13    14     1   -150.71143       27.495      1
   10    11    13    15     1     28.88864       19.775      1
   11    10    23    24     1    177.12660        8.627      1
   11    12    13    14     1      1.80742       10.710      1
   11    12    13    15     1      0.67089       22.306      1
   11    13    14    15     1      0.88130       26.580      1
   11    13    15    14     1      2.18059       10.745      1
   11    13    15    16     1    167.83888       14.992      1
   11    13    15    21     1     50.09760       16.426      1
   12    11    10    23     1    -52.64383       19.814      1
   12    11    13    14     1    179.60451       25.826      1
   12    11    13    15     1      0.20415       10.755      1
   12    13    14    15     1      0.25643        9.260      1
   12    13    15    14     1    179.49724       19.630      1
   12    13    15    16     1    -13.42420       22.649      1
   12    13    15    21     1   -131.23046       21.594      1
   13    11    10    23     1    -67.01051       16.386      1
   13    14    15    16     1     45.64090       23.375      1
   13    14    15    21     1     25.91231       10.778      1
   13    15    16    17     1    -14.22722       16.389      1
   13    15    21    17     1    -13.52245       16.412      1
   13    15    21    18     1     40.20206       16.434      1
   13    15    21    19     1     44.08033       15.014      1
   13    15    21    22     1    132.02159       19.596      1
   14    13    15    16     1    -11.44135       14.320      1
   14    13    15    21     1   -129.61014       14.981      1
   14    15    16    17     1    110.72007       21.110      1
   14    15    21    17     1     31.07600       17.098      1
   14    15    21    18     1     84.17554       16.395      1
   14    15    21    19     1     86.61203       14.313      1
   14    15    21    22     1    176.72348       18.315      1
   15    16    17    18     1    165.20075       12.849      1
   15    16    17    21     1   -141.06408        8.478      1
   15    21    17    16     1    137.95525        7.788      1
   15    21    17    18     1   -100.86852        7.057      1
   15    21    18    17     1     85.05893        8.525      1
   15    21    18    19     1     -1.08519        8.556      1
   15    21    19    18     1    176.19081       10.785      1
   15    21    19    20     1     20.31244       10.781      1
   16    15    21    17     1   -138.54990        8.492      1
   16    15    21    18     1    -85.78589        9.227      1
   16    15    21    19     1    -83.85716        7.826      1
   16    15    21    22     1      7.13820       12.869      1
   16    17    18    19     1    -62.48684        7.821      1
   16    17    18    21     1   -124.17877        9.208      1
   16    17    21    18     1     58.18792       12.158      1
   16    17    21    19     1     -6.35908       12.147      1
   16    17    21    22     1     38.03445       13.678      1
   17    16    15    21     1    135.80349        7.795      1
   17    18    19    20     1    156.13937       18.274      1
   17    18    19    21     1    111.95684        4.683      1
   17    18    21    19     1    -94.04045        4.737      1
   17    18    21    22     1    -13.06305       11.447      1
   17    21    18    19     1     94.04045        4.737      1
   17    21    19    18     1   -121.01757        4.000      1
   17    21    19    20     1     79.90806       13.593      1
   18    17    21    19     1    113.08377        3.980      1
   18    17    21    22     1    158.02740       14.976      1
   18    19    21    22     1     82.92454        7.076      1
   18    21    19    20     1     21.88596       13.585      1
   19    18    17    21     1   -119.96245        3.248      1
   19    18    21    22     1    -97.12535       10.007      1
   20    19    18    21     1   -134.23611       16.939      1
   20    19    21    22     1    -75.96582       13.620      1
