1TPCN01126
11
    1res  C1    1    0.028   0.178  -0.145
    1res  C2    2   -0.185   0.170  -0.270
    1res  C3    3   -0.127  -0.084  -0.181
    1res  C4    4    0.194   0.090   0.064
    1res  C5    5    0.540   0.282  -0.001
    1res  C6    6    0.221  -0.156   0.136
    1res  C7    7    0.031  -0.291   0.143
    1res  C8    8    0.211  -0.317  -0.065
    1res  C9    9   -0.290  -0.311   0.058
    1res  C10   10   -0.243   0.019   0.040
    1res  C11   11   -0.486   0.250   0.061
  10.00000  10.00000  10.00000
