[ moleculetype ]
; name        nrexcl
res           1

[ atoms ]
;    nr  type resnr resid  atom  cgnr     charge       mass
      1 SC4       1 res   C1        1      0.000     54.000
      2 SC5       1 res   C2        2      0.000     54.000
      3 SC4       1 res   C3        3      0.000     54.000
      4 TC3       1 res   C4        4      0.000     36.000
      5 SC4       1 res   C5        5      0.000     54.000
      6 SC4       1 res   C6        6      0.000     54.000
      7 TC3       1 res   C7        7      0.000     36.000
      8 TN6       1 res   C8        8      0.000     36.000
      9 SC4       1 res   C9        9      0.000     54.000
     10 TC3       1 res   C10      10      0.000     36.000
     11 TC3       1 res   C11      11      0.000     36.000
     12 TN3r      1 res   C12      12      0.000     36.000
     13 SN4a      1 res   C13      13      0.000     54.000
     14 TP1       1 res   C14      14      0.000     36.000
     15 TN6       1 res   C15      15      0.000     36.000
     16 TN6       1 res   C16      16      0.000     36.000
     17 TN6       1 res   C17      17      0.000     36.000
     18 TN6       1 res   C18      18      0.000     36.000
     19 TN6       1 res   C19      19      0.000     36.000

[ bonds ]
;  ai    aj   funct      b0(nm)        k
    1     2     1      0.27830    20000
    1    19     1      0.25264    20000
    2     3     1      0.37185    20000
    2    11     1      0.33637    20000
    2    12     1      0.33241    20000
    2    18     1      0.31147    20000
    3     4     1      0.30286    20000
    3     5     1      0.28807    20000
    3    11     1      0.26500    20000
    4     5     1      0.34163    20000
    5     6     1      0.40344    20000
    5    10     1      0.30992    20000
    6     7     1      0.30079    20000
    6     9     1      0.33296    20000
    6    10     1      0.37771    20000
    7     8     1      0.26450    20000
    8     9     1      0.28085    20000
   12    13     1      0.32322    20000
   13    14     1      0.25376    20000
   13    15     1      0.27228    20000
   13    17     1      0.29825    20000
   15    16     1      0.24397    20000
   16    17     1      0.24161    20000
   18    19     1      0.25635    20000
