1TPCN04833
24
    1res  C1    1   -0.497  -0.186  -0.356
    1res  C2    2   -0.583   0.068  -0.236
    1res  C3    3   -0.330  -0.025  -0.198
    1res  C4    4   -0.484   0.166   0.052
    1res  C5    5   -0.725   0.085   0.198
    1res  C6    6   -0.995   0.133   0.065
    1res  C7    7   -0.921  -0.137   0.225
    1res  C8    8   -0.697  -0.254   0.209
    1res  C9    9   -0.545  -0.070   0.320
    1res  C10   10   -0.254   0.293  -0.135
    1res  C11   11   -0.056   0.121  -0.200
    1res  C12   12   -0.021  -0.143  -0.042
    1res  C13   13   -0.023   0.133   0.148
    1res  C14   14    0.284   0.076   0.190
    1res  C15   15    0.386  -0.188   0.142
    1res  C16   16    0.580  -0.044   0.033
    1res  C17   17    0.849  -0.009   0.061
    1res  C18   18    0.875   0.074   0.295
    1res  C19   19    1.076  -0.057  -0.020
    1res  C20   20    0.993  -0.279   0.101
    1res  C21   21    0.848  -0.264  -0.091
    1res  C22   22    0.531   0.140  -0.129
    1res  C23   23    0.382  -0.073  -0.212
    1res  C24   24    0.190   0.260  -0.045
  10.00000  10.00000  10.00000
