[ moleculetype ]
; name        nrexcl
res           1

[ atoms ]
;    nr  type resnr resid  atom  cgnr     charge       mass
      1 N4a       1 res   C1        1      0.000     72.000
      2 TN4a      1 res   C2        2      0.000     36.000
      3 TN6       1 res   C3        3      0.000     36.000
      4 SN6       1 res   C4        4      0.000     54.000
      5 SC4       1 res   C5        5      0.000     54.000
      6 TC3       1 res   C6        6      0.000     36.000
      7 SC4       1 res   C7        7      0.000     54.000
      8 TC3       1 res   C8        8      0.000     36.000
      9 SC4       1 res   C9        9      0.000     54.000
     10 SC5       1 res   C10      10      0.000     54.000
     11 SC4       1 res   C11      11      0.000     54.000
     12 TC3       1 res   C12      12      0.000     36.000
     13 SP2       1 res   C13      13      0.000     54.000
     14 TC3       1 res   C14      14      0.000     36.000
     15 SC4       1 res   C15      15      0.000     54.000
     16 TN6       1 res   C16      16      0.000     36.000
     17 TN6       1 res   C17      17      0.000     36.000
     18 SN4a      1 res   C18      18      0.000     54.000
     19 TP1       1 res   C19      19      0.000     36.000
     20 TN6       1 res   C20      20      0.000     36.000
     21 TN6       1 res   C21      21      0.000     36.000
     22 TN6       1 res   C22      22      0.000     36.000
     23 TN6       1 res   C23      23      0.000     36.000

[ bonds ]
;  ai    aj   funct      b0(nm)        k
    1     2     1      0.32319    20000
    2     3     1      0.26286    20000
    2    23     1      0.23242    20000
    3     4     1      0.32632    20000
    3    16     1      0.21099    20000
    4     5     1      0.28763    20000
    4    15     1      0.34038    20000
    5     6     1      0.33907    20000
    5     7     1      0.29525    20000
    5    15     1      0.38858    20000
    6     7     1      0.28821    20000
    7     8     1      0.26936    20000
    7     9     1      0.26679    20000
    8     9     1      0.39285    20000
    9    10     1      0.33572    20000
    9    14     1      0.30203    20000
   10    11     1      0.27715    20000
   10    12     1      0.27904    20000
   10    13     1      0.36070    20000
   10    14     1      0.36046    20000
   11    12     1      0.30059    20000
   16    17     1      0.22138    20000
   17    18     1      0.28658    20000
   17    23     1      0.20528    20000
   18    19     1      0.30642    20000
   18    20     1      0.26993    20000
   18    22     1      0.29887    20000
   20    21     1      0.24469    20000
   21    22     1      0.25400    20000
