1TPCN04875
23
    1res  C1    1    0.251  -0.452  -0.089
    1res  C2    2    0.470  -0.294   0.088
    1res  C3    3    0.367  -0.075  -0.014
    1res  C4    4    0.063  -0.129   0.093
    1res  C5    5   -0.051  -0.114  -0.171
    1res  C6    6   -0.190   0.195  -0.175
    1res  C7    7   -0.336  -0.050  -0.213
    1res  C8    8   -0.402  -0.219  -0.014
    1res  C9    9   -0.561   0.092  -0.193
    1res  C10   10   -0.724  -0.064   0.056
    1res  C11   11   -0.971  -0.151   0.147
    1res  C12   12   -0.832   0.089   0.263
    1res  C13   13   -0.825   0.275  -0.013
    1res  C14   14   -0.484   0.205   0.076
    1res  C15   15    0.129   0.189  -0.008
    1res  C16   16    0.551   0.012  -0.069
    1res  C17   17    0.702  -0.107   0.039
    1res  C18   18    0.808   0.159   0.042
    1res  C19   19    0.791   0.439  -0.081
    1res  C20   20    1.024   0.297   0.128
    1res  C21   21    1.081   0.162  -0.068
    1res  C22   22    1.020  -0.051   0.056
    1res  C23   23    0.676  -0.302  -0.020
  10.00000  10.00000  10.00000
