1TPCN00081
14
    1res  C1    1    0.412  -0.182  -0.119
    1res  C2    2    0.125  -0.162  -0.031
    1res  C3    3   -0.003   0.061  -0.152
    1res  C4    4   -0.169  -0.144  -0.227
    1res  C5    5   -0.201   0.029  -0.059
    1res  C6    6   -0.182   0.215   0.055
    1res  C7    7   -0.346   0.074   0.030
    1res  C8    8   -0.501   0.201   0.180
    1res  C9    9   -0.582  -0.020   0.069
    1res  C10   10   -0.628  -0.237  -0.053
    1res  C11   11    0.145   0.112  -0.008
    1res  C12   12    0.439   0.144   0.061
    1res  C13   13    0.591   0.216  -0.162
    1res  C14   14    0.242   0.020   0.359
  10.00000  10.00000  10.00000
