[ moleculetype ]
; name        nrexcl
res           1

[ atoms ]
;    nr  type  resnr resid  atom  cgnr     charge       mass
      1 TC5       1 res   C1        1      0.000     36.000
      2 TC3       1 res   C2        2      0.000     36.000
      3 TN6d      1 res   C3        3      0.000     36.000
      4 TC3       1 res   C4        4      0.000     36.000
      5 TC5       1 res   C5        5      0.000     36.000
      6 TN6d      1 res   C6        6      0.000     36.000
      7 TC5       1 res   C7        7      0.000     36.000
      8 TC5       1 res   C8        8      0.000     36.000
      9 TC5       1 res   C9        9      0.000     36.000
     10 TN2a      1 res   C10      10      0.000     36.000
     11 TC3       1 res   C11      11      0.000     36.000
     12 TC5       1 res   C12      12      0.000     36.000
     13 TP1d      1 res   C13      13      0.000     36.000
     14 N4a       1 res   C14      14      0.000     72.000

[ constraints ]
;  ai    aj   funct      b0(nm)
    1     2     1      0.27208
    3     5     1      0.21498
    2     3     1      0.28800
   11    12     1      0.28021
    4     5     1      0.24887
   12    14     1      0.39951
    3    11     1      0.21760
    5     7     1      0.18364
    7     9     1      0.25700
    3     4     1      0.26539
    7     8     1      0.24949
    5     6     1      0.21817
    9    10     1      0.23825
   12    13     1      0.26445
    6     7     1      0.21780
    2    11     1      0.29112
    8     9     1      0.25919

[ bonds ]
;  ai    aj   funct      b0(nm)          k(kJ/mol/nm^2)

[ angles ]
;  ai    aj    ak  funct     th0(deg)        k(kJ/mol/rad^2)
    1     2     3     1     98.19224           460.70
    1     2    11     1     74.06278          1249.90
    2     3     4     1     80.72574          1405.71
    2     3     5     1     92.08425           625.13
    2     3    11     1     68.69271          3927.83
    2    11     3     1     67.17675          4037.21
    2    11    12     1     85.49727           178.79
    3     2    11     1     44.13054          8306.56
    3     4     5     1     49.28787          6979.09
    3     5     4     1     69.35658          3275.48
    3     5     6     1     96.10143          1507.47
    3     5     7     1    160.47704          1232.45
    3    11    12     1    136.73436           760.10
    4     3     5     1     61.35549          3480.37
    4     3    11     1    148.86233           973.60
    4     5     6     1    164.70647          1222.81
    4     5     7     1    129.31128          1713.59
    5     3    11     1    113.43933          1406.05
    5     6     7     1     49.81805          8238.88
    5     7     6     1     65.19886          3415.07
    5     7     8     1    161.63091          1927.13
    5     7     9     1    136.30384          1699.84
    6     5     7     1     64.98307          3854.87
    6     7     8     1     96.76613          1670.62
    6     7     9     1    157.72837          1569.91
    7     8     9     1     60.65446          8650.00
    7     9     8     1     57.80473          7199.53
    7     9    10     1    114.83040          1085.65
    8     7     9     1     61.54079          7236.66
    8     9    10     1    170.07400           418.43
   11    12    13     1    164.64622           135.42
   11    12    14     1     62.11907           731.55
   13    12    14     1    114.38384           743.96

[ dihedrals ]
;  ai    aj    ak    al  funct   phi0(deg)        k(kJ/mol)   mult
    1     2     3     4     1    -60.11959        9.296      1
    1     2     3     5     1   -121.99870        7.851      1
    1     2     3    11     1    123.05040        8.512      1
    1     2    11     3     1    -59.01015       10.045      1
    1     2    11    12     1     88.12794       13.612      1
    2     3     4     5     1     82.04264        9.188      1
    2     3     5     4     1   -101.05271        5.558      1
    2     3     5     6     1     77.96763       10.791      1
    2     3     5     7     1     77.78581       21.557      1
    2     3    11    12     1    123.48347       19.672      1
    2    11     3     4     1    172.48763       12.145      1
    2    11     3     5     1     96.84426        8.538      1
    2    11    12    13     1     -5.93514       24.141      1
    2    11    12    14     1    -62.99882       18.549      1
    3     2    11    12     1    -32.97071       12.935      1
    3     4     5     6     1    177.95198       25.265      1
    3     4     5     7     1      2.92742       12.891      1
    3     5     6     7     1      1.91390        9.311      1
    3     5     7     6     1   -176.69682       20.374      1
    3     5     7     8     1   -177.47224       25.711      1
    3     5     7     9     1      1.17386       20.842      1
    3    11    12    13     1     45.31797       26.777      1
    3    11    12    14     1    -14.22222       13.618      1
    4     3     2    11     1     -2.73428        7.023      1
    4     3     5     6     1     -1.90232        9.317      1
    4     3     5     7     1     -2.43117       22.138      1
    4     3    11    12     1    117.30432       23.300      1
    4     5     3    11     1    -33.05845        7.032      1
    4     5     6     7     1      4.08190       26.353      1
    4     5     7     6     1     -1.27512       11.459      1
    4     5     7     8     1      1.49782       20.333      1
    4     5     7     9     1    177.61930       13.544      1
    5     3     2    11     1    -65.06234        5.540      1
    5     3    11    12     1     43.40712       19.615      1
    5     4     3    11     1     89.81513       10.706      1
    5     6     7     8     1      0.02738        7.781      1
    5     6     7     9     1      0.92438       19.799      1
    5     7     8     9     1     -1.00387       19.698      1
    5     7     9     8     1      0.04363       10.777      1
    5     7     9    10     1   -177.72552       17.053      1
    6     5     3    11     1    144.29697       12.191      1
    6     5     7     8     1   -178.96395       17.041      1
    6     5     7     9     1      0.89648       12.954      1
    6     7     8     9     1      0.13314        9.319      1
    6     7     9     8     1    179.79021       21.666      1
    6     7     9    10     1      0.24911       22.873      1
    7     5     3    11     1    143.08936       23.420      1
    7     8     9    10     1   -176.57439       32.806      1
    8     7     9    10     1      0.00429       15.054      1
