Generated with MDTraj, t= 0.0
 76
    1UNL     C1    1  -0.895  -0.224   0.127
    1UNL     O1    2  -0.813  -0.115   0.097
    1UNL     C2    3  -0.704  -0.159   0.027
    1UNL     O2    4  -0.687  -0.275  -0.006
    1UNL     C3    5  -0.606  -0.058  -0.010
    1UNL     C4    6  -0.497  -0.094  -0.083
    1UNL     O3    7  -0.393  -0.014  -0.120
    1UNL     C5    8  -0.383   0.103  -0.038
    1UNL     O4    9  -0.330   0.078   0.091
    1UNL     C6   10  -0.203   0.015   0.084
    1UNL     O5   11  -0.115   0.047   0.192
    1UNL     C7   12   0.023   0.009   0.168
    1UNL     C8   13   0.099   0.121   0.098
    1UNL     O6   14   0.234   0.090   0.079
    1UNL     C9   15   0.293   0.181  -0.003
    1UNL     O7   16   0.233   0.276  -0.053
    1UNL    C10   17   0.434   0.161  -0.030
    1UNL    C11   18   0.499   0.055   0.020
    1UNL    C12   19   0.639   0.024   0.002
    1UNL    C13   20   0.724   0.106  -0.072
    1UNL    C14   21   0.858   0.076  -0.088
    1UNL     O8   22   0.949   0.155  -0.160
    1UNL    C15   23   0.894   0.271  -0.219
    1UNL    C16   24   0.909  -0.040  -0.027
    1UNL     O9   25   1.042  -0.074  -0.040
    1UNL    C17   26   0.825  -0.125   0.047
    1UNL    O10   27   0.886  -0.238   0.103
    1UNL    C18   28   0.801  -0.319   0.179
    1UNL    C19   29   0.691  -0.091   0.061
    1UNL    C20   30   0.035  -0.126   0.090
    1UNL    O11   31   0.150  -0.200   0.126
    1UNL    C21   32  -0.090  -0.214   0.115
    1UNL    O12   33  -0.075  -0.338   0.050
    1UNL    C22   34  -0.220  -0.140   0.073
    1UNL    O13   35  -0.326  -0.184   0.155
    1UNL    C23   36  -0.517   0.179  -0.026
    1UNL    C24   37  -0.569   0.236  -0.157
    1UNL    C25   38  -0.480   0.284  -0.267
    1UNL    O14   39  -0.429   0.177  -0.342
    1UNL    C26   40  -0.700   0.215  -0.169
    1UNL    C27   41  -0.755   0.140  -0.052
    1UNL    C28   42  -0.631   0.086   0.025
    1UNL     H1   43  -0.983  -0.189   0.181
    1UNL     H2   44  -0.839  -0.295   0.187
    1UNL     H3   45  -0.926  -0.272   0.033
    1UNL     H4   46  -0.490  -0.197  -0.116
    1UNL     H5   47  -0.310   0.168  -0.089
    1UNL     H6   48  -0.153   0.053  -0.007
    1UNL     H7   49   0.068  -0.008   0.267
    1UNL     H8   50   0.055   0.142  -0.001
    1UNL     H9   51   0.093   0.214   0.155
    1UNL    H10   52   0.484   0.234  -0.090
    1UNL    H11   53   0.440  -0.014   0.079
    1UNL    H12   54   0.684   0.195  -0.117
    1UNL    H13   55   0.816   0.243  -0.290
    1UNL    H14   56   0.974   0.322  -0.272
    1UNL    H15   57   0.855   0.336  -0.142
    1UNL    H16   58   1.057  -0.159   0.009
    1UNL    H17   59   0.859  -0.403   0.218
    1UNL    H18   60   0.760  -0.262   0.263
    1UNL    H19   61   0.721  -0.358   0.117
    1UNL    H20   62   0.626  -0.154   0.117
    1UNL    H21   63   0.043  -0.105  -0.018
    1UNL    H22   64   0.138  -0.292   0.094
    1UNL    H23   65  -0.096  -0.234   0.223
    1UNL    H24   66  -0.158  -0.389   0.059
    1UNL    H25   67  -0.245  -0.169  -0.030
    1UNL    H26   68  -0.394  -0.114   0.158
    1UNL    H27   69  -0.503   0.262   0.045
    1UNL    H28   70  -0.397   0.342  -0.227
    1UNL    H29   71  -0.535   0.350  -0.335
    1UNL    H30   72  -0.411   0.101  -0.281
    1UNL    H31   73  -0.755   0.237  -0.259
    1UNL    H32   74  -0.819   0.058  -0.083
    1UNL    H33   75  -0.815   0.207   0.011
    1UNL    H34   76  -0.644   0.095   0.134
   0.00000   0.00000   0.00000   0.00000   0.00000   0.00000   0.00000   0.00000   0.00000
Generated with MDTraj, t= 1.0
 76
    1UNL     C1    1  -0.895  -0.240   0.126
    1UNL     O1    2  -0.797  -0.137   0.104
    1UNL     C2    3  -0.706  -0.173   0.009
    1UNL     O2    4  -0.708  -0.281  -0.050
    1UNL     C3    5  -0.600  -0.073  -0.013
    1UNL     C4    6  -0.489  -0.101  -0.082
    1UNL     O3    7  -0.389  -0.013  -0.109
    1UNL     C5    8  -0.387   0.102  -0.030
    1UNL     O4    9  -0.329   0.080   0.098
    1UNL     C6   10  -0.196   0.019   0.087
    1UNL     O5   11  -0.109   0.056   0.197
    1UNL     C7   12   0.029   0.021   0.170
    1UNL     C8   13   0.094   0.130   0.090
    1UNL     O6   14   0.234   0.109   0.089
    1UNL     C9   15   0.287   0.198   0.009
    1UNL     O7   16   0.227   0.289  -0.046
    1UNL    C10   17   0.427   0.169  -0.032
    1UNL    C11   18   0.487   0.053   0.007
    1UNL    C12   19   0.628   0.020   0.002
    1UNL    C13   20   0.709   0.111  -0.065
    1UNL    C14   21   0.839   0.076  -0.092
    1UNL     O8   22   0.927   0.168  -0.146
    1UNL    C15   23   0.903   0.192  -0.284
    1UNL    C16   24   0.891  -0.033  -0.024
    1UNL     O9   25   1.026  -0.076  -0.044
    1UNL    C17   26   0.811  -0.116   0.056
    1UNL    O10   27   0.885  -0.221   0.109
    1UNL    C18   28   0.813  -0.329   0.168
    1UNL    C19   29   0.676  -0.100   0.058
    1UNL    C20   30   0.036  -0.122   0.099
    1UNL    O11   31   0.151  -0.205   0.115
    1UNL    C21   32  -0.090  -0.207   0.131
    1UNL    O12   33  -0.075  -0.338   0.083
    1UNL    C22   34  -0.210  -0.138   0.078
    1UNL    O13   35  -0.335  -0.178   0.143
    1UNL    C23   36  -0.521   0.175  -0.021
    1UNL    C24   37  -0.557   0.237  -0.151
    1UNL    C25   38  -0.454   0.309  -0.232
    1UNL    O14   39  -0.374   0.225  -0.319
    1UNL    C26   40  -0.687   0.206  -0.174
    1UNL    C27   41  -0.746   0.119  -0.077
    1UNL    C28   42  -0.633   0.065   0.013
    1UNL     H1   43  -0.964  -0.203   0.210
    1UNL     H2   44  -0.827  -0.314   0.184
    1UNL     H3   45  -0.963  -0.276   0.040
    1UNL     H4   46  -0.452  -0.201  -0.115
    1UNL     H5   47  -0.318   0.163  -0.090
    1UNL     H6   48  -0.146   0.063   0.003
    1UNL     H7   49   0.072   0.002   0.272
    1UNL     H8   50   0.052   0.128  -0.014
    1UNL     H9   51   0.077   0.235   0.122
    1UNL    H10   52   0.468   0.255  -0.091
    1UNL    H11   53   0.426  -0.014   0.058
    1UNL    H12   54   0.663   0.203  -0.101
    1UNL    H13   55   0.997   0.202  -0.337
    1UNL    H14   56   0.844   0.285  -0.289
    1UNL    H15   57   0.850   0.115  -0.330
    1UNL    H16   58   1.028  -0.172  -0.021
    1UNL    H17   59   0.769  -0.276   0.251
    1UNL    H18   60   0.740  -0.373   0.102
    1UNL    H19   61   0.874  -0.413   0.196
    1UNL    H20   62   0.612  -0.175   0.101
    1UNL    H21   63   0.037  -0.109  -0.013
    1UNL    H22   64   0.137  -0.275   0.186
    1UNL    H23   65  -0.113  -0.218   0.237
    1UNL    H24   66  -0.163  -0.379   0.072
    1UNL    H25   67  -0.230  -0.164  -0.024
    1UNL    H26   68  -0.395  -0.104   0.169
    1UNL    H27   69  -0.529   0.256   0.053
    1UNL    H28   70  -0.368   0.363  -0.183
    1UNL    H29   71  -0.497   0.372  -0.314
    1UNL    H30   72  -0.390   0.132  -0.293
    1UNL    H31   73  -0.743   0.258  -0.251
    1UNL    H32   74  -0.792   0.038  -0.137
    1UNL    H33   75  -0.825   0.163  -0.020
    1UNL    H34   76  -0.665   0.059   0.119
   0.00000   0.00000   0.00000   0.00000   0.00000   0.00000   0.00000   0.00000   0.00000
Generated with MDTraj, t= 2.0
 76
    1UNL     C1    1  -0.878  -0.271   0.104
    1UNL     O1    2  -0.798  -0.152   0.079
    1UNL     C2    3  -0.690  -0.176  -0.003
    1UNL     O2    4  -0.678  -0.289  -0.054
    1UNL     C3    5  -0.604  -0.061  -0.029
    1UNL     C4    6  -0.488  -0.083  -0.094
    1UNL     O3    7  -0.396   0.006  -0.123
    1UNL     C5    8  -0.390   0.105  -0.024
    1UNL     O4    9  -0.352   0.058   0.106
    1UNL     C6   10  -0.215   0.010   0.103
    1UNL     O5   11  -0.131   0.052   0.209
    1UNL     C7   12   0.011   0.017   0.183
    1UNL     C8   13   0.085   0.124   0.110
    1UNL     O6   14   0.213   0.091   0.066
    1UNL     C9   15   0.273   0.201   0.002
    1UNL     O7   16   0.226   0.306  -0.043
    1UNL    C10   17   0.416   0.174  -0.020
    1UNL    C11   18   0.491   0.075   0.026
    1UNL    C12   19   0.632   0.039   0.009
    1UNL    C13   20   0.716   0.123  -0.070
    1UNL    C14   21   0.848   0.088  -0.097
    1UNL     O8   22   0.922   0.167  -0.198
    1UNL    C15   23   0.945   0.088  -0.319
    1UNL    C16   24   0.901  -0.021  -0.025
    1UNL     O9   25   1.033  -0.058  -0.029
    1UNL    C17   26   0.819  -0.111   0.048
    1UNL    O10   27   0.867  -0.233   0.088
    1UNL    C18   28   0.781  -0.327   0.149
    1UNL    C19   29   0.682  -0.084   0.064
    1UNL    C20   30   0.035  -0.127   0.119
    1UNL    O11   31   0.166  -0.169   0.160
    1UNL    C21   32  -0.088  -0.216   0.147
    1UNL    O12   33  -0.066  -0.339   0.084
    1UNL    C22   34  -0.216  -0.151   0.097
    1UNL    O13   35  -0.322  -0.205   0.178
    1UNL    C23   36  -0.527   0.177  -0.017
    1UNL    C24   37  -0.555   0.250  -0.146
    1UNL    C25   38  -0.451   0.323  -0.215
    1UNL    O14   39  -0.359   0.243  -0.296
    1UNL    C26   40  -0.683   0.228  -0.185
    1UNL    C27   41  -0.754   0.131  -0.103
    1UNL    C28   42  -0.648   0.074   0.002
    1UNL     H1   43  -0.919  -0.248   0.208
    1UNL     H2   44  -0.796  -0.347   0.129
    1UNL     H3   45  -0.962  -0.301   0.032
    1UNL     H4   46  -0.464  -0.181  -0.142
    1UNL     H5   47  -0.311   0.174  -0.062
    1UNL     H6   48  -0.163   0.036   0.016
    1UNL     H7   49   0.060   0.022   0.285
    1UNL     H8   50   0.043   0.174   0.015
    1UNL     H9   51   0.098   0.215   0.173
    1UNL    H10   52   0.456   0.238  -0.090
    1UNL    H11   53   0.435   0.001   0.096
    1UNL    H12   54   0.679   0.213  -0.115
    1UNL    H13   55   0.913   0.146  -0.406
    1UNL    H14   56   0.880  -0.001  -0.317
    1UNL    H15   57   1.043   0.070  -0.339
    1UNL    H16   58   1.036  -0.131   0.040
    1UNL    H17   59   0.685  -0.282   0.151
    1UNL    H18   60   0.779  -0.427   0.106
    1UNL    H19   61   0.812  -0.347   0.251
    1UNL    H20   62   0.618  -0.140   0.134
    1UNL    H21   63   0.044  -0.091   0.010
    1UNL    H22   64   0.195  -0.250   0.106
    1UNL    H23   65  -0.093  -0.232   0.254
    1UNL    H24   66  -0.150  -0.388   0.090
    1UNL    H25   67  -0.232  -0.181  -0.004
    1UNL    H26   68  -0.385  -0.142   0.225
    1UNL    H27   69  -0.528   0.248   0.064
    1UNL    H28   70  -0.377   0.370  -0.143
    1UNL    H29   71  -0.492   0.391  -0.296
    1UNL    H30   72  -0.356   0.153  -0.255
    1UNL    H31   73  -0.734   0.276  -0.268
    1UNL    H32   74  -0.795   0.045  -0.160
    1UNL    H33   75  -0.843   0.176  -0.068
    1UNL    H34   76  -0.675   0.078   0.110
   0.00000   0.00000   0.00000   0.00000   0.00000   0.00000   0.00000   0.00000   0.00000
Generated with MDTraj, t= 3.0
 76
    1UNL     C1    1  -0.859  -0.277   0.071
    1UNL     O1    2  -0.801  -0.159   0.036
    1UNL     C2    3  -0.677  -0.178  -0.018
    1UNL     O2    4  -0.636  -0.290  -0.048
    1UNL     C3    5  -0.588  -0.062  -0.045
    1UNL     C4    6  -0.473  -0.086  -0.114
    1UNL     O3    7  -0.382   0.007  -0.126
    1UNL     C5    8  -0.384   0.110  -0.020
    1UNL     O4    9  -0.353   0.047   0.107
    1UNL     C6   10  -0.222  -0.002   0.102
    1UNL     O5   11  -0.140   0.049   0.204
    1UNL     C7   12   0.009   0.025   0.184
    1UNL     C8   13   0.075   0.125   0.096
    1UNL     O6   14   0.212   0.113   0.095
    1UNL     C9   15   0.264   0.210   0.013
    1UNL     O7   16   0.207   0.311  -0.032
    1UNL    C10   17   0.408   0.185  -0.015
    1UNL    C11   18   0.477   0.085   0.038
    1UNL    C12   19   0.619   0.047  -0.002
    1UNL    C13   20   0.698   0.110  -0.102
    1UNL    C14   21   0.836   0.070  -0.124
    1UNL     O8   22   0.904   0.125  -0.229
    1UNL    C15   23   1.015   0.071  -0.300
    1UNL    C16   24   0.885  -0.036  -0.047
    1UNL     O9   25   1.013  -0.093  -0.060
    1UNL    C17   26   0.800  -0.101   0.045
    1UNL    O10   27   0.860  -0.194   0.125
    1UNL    C18   28   0.795  -0.316   0.126
    1UNL    C19   29   0.674  -0.057   0.068
    1UNL    C20   30   0.039  -0.121   0.133
    1UNL    O11   31   0.154  -0.168   0.197
    1UNL    C21   32  -0.083  -0.222   0.158
    1UNL    O12   33  -0.066  -0.352   0.092
    1UNL    C22   34  -0.219  -0.162   0.114
    1UNL    O13   35  -0.318  -0.198   0.206
    1UNL    C23   36  -0.529   0.173  -0.012
    1UNL    C24   37  -0.559   0.261  -0.131
    1UNL    C25   38  -0.446   0.345  -0.193
    1UNL    O14   39  -0.369   0.265  -0.290
    1UNL    C26   40  -0.683   0.231  -0.180
    1UNL    C27   41  -0.750   0.129  -0.093
    1UNL    C28   42  -0.637   0.070  -0.001
    1UNL     H1   43  -0.949  -0.244   0.123
    1UNL     H2   44  -0.791  -0.345   0.125
    1UNL     H3   45  -0.878  -0.324  -0.023
    1UNL     H4   46  -0.462  -0.184  -0.152
    1UNL     H5   47  -0.306   0.191  -0.036
    1UNL     H6   48  -0.175   0.019   0.012
    1UNL     H7   49   0.047   0.018   0.290
    1UNL     H8   50   0.031   0.122  -0.010
    1UNL     H9   51   0.061   0.233   0.121
    1UNL    H10   52   0.455   0.257  -0.086
    1UNL    H11   53   0.425   0.022   0.096
    1UNL    H12   54   0.652   0.191  -0.153
    1UNL    H13   55   0.978   0.015  -0.389
    1UNL    H14   56   1.063  -0.004  -0.234
    1UNL    H15   57   1.070   0.148  -0.338
    1UNL    H16   58   1.020  -0.166   0.001
    1UNL    H17   59   0.777  -0.343   0.021
    1UNL    H18   60   0.842  -0.394   0.189
    1UNL    H19   61   0.696  -0.308   0.172
    1UNL    H20   62   0.631  -0.107   0.151
    1UNL    H21   63   0.053  -0.131   0.019
    1UNL    H22   64   0.170  -0.254   0.158
    1UNL    H23   65  -0.076  -0.258   0.262
    1UNL    H24   66  -0.140  -0.412   0.116
    1UNL    H25   67  -0.251  -0.190   0.016
    1UNL    H26   68  -0.393  -0.141   0.199
    1UNL    H27   69  -0.531   0.228   0.080
    1UNL    H28   70  -0.375   0.367  -0.105
    1UNL    H29   71  -0.492   0.431  -0.251
    1UNL    H30   72  -0.380   0.171  -0.259
    1UNL    H31   73  -0.717   0.282  -0.269
    1UNL    H32   74  -0.814   0.059  -0.152
    1UNL    H33   75  -0.829   0.174  -0.039
    1UNL    H34   76  -0.679   0.076   0.102
   0.00000   0.00000   0.00000   0.00000   0.00000   0.00000   0.00000   0.00000   0.00000
Generated with MDTraj, t= 4.0
 76
    1UNL     C1    1  -0.858  -0.284   0.020
    1UNL     O1    2  -0.787  -0.167   0.014
    1UNL     C2    3  -0.658  -0.185  -0.038
    1UNL     O2    4  -0.615  -0.298  -0.070
    1UNL     C3    5  -0.572  -0.061  -0.049
    1UNL     C4    6  -0.454  -0.080  -0.111
    1UNL     O3    7  -0.365   0.018  -0.120
    1UNL     C5    8  -0.370   0.115  -0.018
    1UNL     O4    9  -0.343   0.053   0.108
    1UNL     C6   10  -0.213   0.001   0.109
    1UNL     O5   11  -0.121   0.059   0.203
    1UNL     C7   12   0.018   0.022   0.192
    1UNL     C8   13   0.079   0.133   0.107
    1UNL     O6   14   0.212   0.116   0.090
    1UNL     C9   15   0.271   0.207   0.013
    1UNL     O7   16   0.206   0.302  -0.029
    1UNL    C10   17   0.412   0.195  -0.024
    1UNL    C11   18   0.469   0.082   0.019
    1UNL    C12   19   0.603   0.036  -0.005
    1UNL    C13   20   0.666   0.084  -0.117
    1UNL    C14   21   0.796   0.050  -0.142
    1UNL     O8   22   0.874   0.087  -0.260
    1UNL    C15   23   1.013   0.079  -0.256
    1UNL    C16   24   0.858  -0.044  -0.058
    1UNL     O9   25   0.982  -0.088  -0.080
    1UNL    C17   26   0.789  -0.089   0.054
    1UNL    O10   27   0.865  -0.183   0.124
    1UNL    C18   28   0.805  -0.307   0.129
    1UNL    C19   29   0.665  -0.045   0.084
    1UNL    C20   30   0.037  -0.127   0.138
    1UNL    O11   31   0.157  -0.182   0.187
    1UNL    C21   32  -0.084  -0.219   0.180
    1UNL    O12   33  -0.059  -0.355   0.140
    1UNL    C22   34  -0.219  -0.156   0.124
    1UNL    O13   35  -0.326  -0.192   0.209
    1UNL    C23   36  -0.516   0.174  -0.007
    1UNL    C24   37  -0.557   0.262  -0.118
    1UNL    C25   38  -0.464   0.363  -0.187
    1UNL    O14   39  -0.392   0.289  -0.282
    1UNL    C26   40  -0.679   0.228  -0.169
    1UNL    C27   41  -0.736   0.113  -0.089
    1UNL    C28   42  -0.623   0.065   0.001
    1UNL     H1   43  -0.946  -0.254  -0.030
    1UNL     H2   44  -0.871  -0.338   0.111
    1UNL     H3   45  -0.797  -0.343  -0.039
    1UNL     H4   46  -0.431  -0.178  -0.144
    1UNL     H5   47  -0.298   0.205  -0.030
    1UNL     H6   48  -0.165   0.031   0.022
    1UNL     H7   49   0.070   0.026   0.291
    1UNL     H8   50   0.037   0.138   0.001
    1UNL     H9   51   0.053   0.232   0.146
    1UNL    H10   52   0.458   0.278  -0.072
    1UNL    H11   53   0.400   0.007   0.073
    1UNL    H12   54   0.626   0.153  -0.192
    1UNL    H13   55   1.048  -0.027  -0.240
    1UNL    H14   56   1.045   0.140  -0.167
    1UNL    H15   57   1.042   0.111  -0.351
    1UNL    H16   58   1.000  -0.159  -0.012
    1UNL    H17   59   0.880  -0.389   0.126
    1UNL    H18   60   0.729  -0.314   0.210
    1UNL    H19   61   0.744  -0.322   0.037
    1UNL    H20   62   0.614  -0.076   0.176
    1UNL    H21   63   0.056  -0.117   0.025
    1UNL    H22   64   0.153  -0.187   0.282
    1UNL    H23   65  -0.089  -0.212   0.292
    1UNL    H24   66  -0.128  -0.407   0.188
    1UNL    H25   67  -0.247  -0.191   0.024
    1UNL    H26   68  -0.420  -0.148   0.193
    1UNL    H27   69  -0.517   0.239   0.076
    1UNL    H28   70  -0.390   0.388  -0.105
    1UNL    H29   71  -0.530   0.441  -0.233
    1UNL    H30   72  -0.355   0.208  -0.237
    1UNL    H31   73  -0.723   0.281  -0.253
    1UNL    H32   74  -0.788   0.033  -0.146
    1UNL    H33   75  -0.817   0.145  -0.031
    1UNL    H34   76  -0.649   0.058   0.110
   0.00000   0.00000   0.00000   0.00000   0.00000   0.00000   0.00000   0.00000   0.00000
Generated with MDTraj, t= 5.0
 76
    1UNL     C1    1  -0.840  -0.303  -0.028
    1UNL     O1    2  -0.778  -0.182  -0.020
    1UNL     C2    3  -0.642  -0.187  -0.060
    1UNL     O2    4  -0.598  -0.291  -0.111
    1UNL     C3    5  -0.557  -0.064  -0.054
    1UNL     C4    6  -0.436  -0.057  -0.116
    1UNL     O3    7  -0.348   0.048  -0.106
    1UNL     C5    8  -0.375   0.119   0.007
    1UNL     O4    9  -0.355   0.057   0.135
    1UNL     C6   10  -0.219   0.013   0.132
    1UNL     O5   11  -0.129   0.065   0.234
    1UNL     C7   12   0.007   0.036   0.198
    1UNL     C8   13   0.081   0.143   0.109
    1UNL     O6   14   0.207   0.103   0.073
    1UNL     C9   15   0.265   0.202  -0.005
    1UNL     O7   16   0.206   0.306  -0.037
    1UNL    C10   17   0.401   0.177  -0.045
    1UNL    C11   18   0.466   0.079   0.014
    1UNL    C12   19   0.598   0.032  -0.011
    1UNL    C13   20   0.671   0.067  -0.125
    1UNL    C14   21   0.798   0.019  -0.162
    1UNL     O8   22   0.854   0.086  -0.280
    1UNL    C15   23   0.989   0.122  -0.282
    1UNL    C16   24   0.860  -0.062  -0.062
    1UNL     O9   25   0.982  -0.101  -0.097
    1UNL    C17   26   0.794  -0.096   0.063
    1UNL    O10   27   0.862  -0.193   0.154
    1UNL    C18   28   0.813  -0.326   0.159
    1UNL    C19   29   0.663  -0.052   0.076
    1UNL    C20   30   0.030  -0.109   0.152
    1UNL    O11   31   0.152  -0.172   0.197
    1UNL    C21   32  -0.083  -0.201   0.207
    1UNL    O12   33  -0.053  -0.333   0.174
    1UNL    C22   34  -0.218  -0.147   0.135
    1UNL    O13   35  -0.333  -0.201   0.193
    1UNL    C23   36  -0.522   0.182   0.010
    1UNL    C24   37  -0.560   0.263  -0.108
    1UNL    C25   38  -0.477   0.349  -0.189
    1UNL    O14   39  -0.384   0.287  -0.271
    1UNL    C26   40  -0.676   0.219  -0.161
    1UNL    C27   41  -0.736   0.113  -0.075
    1UNL    C28   42  -0.620   0.054   0.007
    1UNL     H1   43  -0.942  -0.275  -0.047
    1UNL     H2   44  -0.827  -0.367   0.058
    1UNL     H3   45  -0.793  -0.347  -0.110
    1UNL     H4   46  -0.401  -0.122  -0.200
    1UNL     H5   47  -0.303   0.211   0.008
    1UNL     H6   48  -0.167   0.044   0.048
    1UNL     H7   49   0.062   0.035   0.294
    1UNL     H8   50   0.023   0.160   0.017
    1UNL     H9   51   0.087   0.238   0.155
    1UNL    H10   52   0.444   0.233  -0.125
    1UNL    H11   53   0.419   0.031   0.099
    1UNL    H12   54   0.627   0.123  -0.203
    1UNL    H13   55   1.054   0.034  -0.308
    1UNL    H14   56   1.018   0.168  -0.181
    1UNL    H15   57   0.993   0.194  -0.362
    1UNL    H16   58   1.036  -0.123  -0.017
    1UNL    H17   59   0.810  -0.366   0.262
    1UNL    H18   60   0.717  -0.327   0.107
    1UNL    H19   61   0.874  -0.396   0.100
    1UNL    H20   62   0.610  -0.088   0.160
    1UNL    H21   63   0.014  -0.124   0.040
    1UNL    H22   64   0.142  -0.266   0.166
    1UNL    H23   65  -0.086  -0.198   0.321
    1UNL    H24   66  -0.125  -0.387   0.215
    1UNL    H25   67  -0.214  -0.193   0.032
    1UNL    H26   68  -0.387  -0.143   0.242
    1UNL    H27   69  -0.552   0.224   0.101
    1UNL    H28   70  -0.421   0.414  -0.117
    1UNL    H29   71  -0.549   0.392  -0.260
    1UNL    H30   72  -0.382   0.195  -0.237
    1UNL    H31   73  -0.714   0.258  -0.253
    1UNL    H32   74  -0.791   0.033  -0.128
    1UNL    H33   75  -0.813   0.156  -0.017
    1UNL    H34   76  -0.652   0.021   0.110
   0.00000   0.00000   0.00000   0.00000   0.00000   0.00000   0.00000   0.00000   0.00000
Generated with MDTraj, t= 6.0
 76
    1UNL     C1    1  -0.811  -0.328  -0.084
    1UNL     O1    2  -0.760  -0.204  -0.042
    1UNL     C2    3  -0.628  -0.186  -0.095
    1UNL     O2    4  -0.570  -0.276  -0.161
    1UNL     C3    5  -0.557  -0.063  -0.057
    1UNL     C4    6  -0.436  -0.044  -0.108
    1UNL     O3    7  -0.353   0.059  -0.088
    1UNL     C5    8  -0.383   0.131   0.028
    1UNL     O4    9  -0.352   0.065   0.145
    1UNL     C6   10  -0.218   0.025   0.136
    1UNL     O5   11  -0.134   0.073   0.243
    1UNL     C7   12   0.003   0.048   0.211
    1UNL     C8   13   0.063   0.138   0.103
    1UNL     O6   14   0.202   0.109   0.091
    1UNL     C9   15   0.259   0.191  -0.005
    1UNL     O7   16   0.190   0.280  -0.053
    1UNL    C10   17   0.397   0.155  -0.039
    1UNL    C11   18   0.458   0.050   0.013
    1UNL    C12   19   0.597   0.014  -0.017
    1UNL    C13   20   0.657   0.050  -0.143
    1UNL    C14   21   0.791   0.022  -0.174
    1UNL     O8   22   0.857   0.069  -0.283
    1UNL    C15   23   0.996   0.110  -0.283
    1UNL    C16   24   0.859  -0.060  -0.079
    1UNL     O9   25   0.993  -0.091  -0.105
    1UNL    C17   26   0.802  -0.106   0.044
    1UNL    O10   27   0.873  -0.188   0.133
    1UNL    C18   28   0.811  -0.312   0.171
    1UNL    C19   29   0.673  -0.060   0.071
    1UNL    C20   30   0.033  -0.096   0.162
    1UNL    O11   31   0.153  -0.144   0.234
    1UNL    C21   32  -0.088  -0.186   0.207
    1UNL    O12   33  -0.072  -0.322   0.183
    1UNL    C22   34  -0.219  -0.136   0.150
    1UNL    O13   35  -0.328  -0.181   0.216
    1UNL    C23   36  -0.534   0.183   0.025
    1UNL    C24   37  -0.572   0.267  -0.099
    1UNL    C25   38  -0.473   0.352  -0.172
    1UNL    O14   39  -0.388   0.269  -0.254
    1UNL    C26   40  -0.684   0.218  -0.152
    1UNL    C27   41  -0.739   0.105  -0.074
    1UNL    C28   42  -0.626   0.050   0.007
    1UNL     H1   43  -0.880  -0.367  -0.005
    1UNL     H2   44  -0.721  -0.399  -0.096
    1UNL     H3   45  -0.865  -0.318  -0.180
    1UNL     H4   46  -0.385  -0.130  -0.161
    1UNL     H5   47  -0.312   0.225   0.024
    1UNL     H6   48  -0.172   0.040   0.043
    1UNL     H7   49   0.053   0.068   0.306
    1UNL     H8   50   0.013   0.124   0.007
    1UNL     H9   51   0.051   0.237   0.132
    1UNL    H10   52   0.451   0.214  -0.114
    1UNL    H11   53   0.410   0.004   0.093
    1UNL    H12   54   0.589   0.094  -0.218
    1UNL    H13   55   1.058   0.023  -0.261
    1UNL    H14   56   1.011   0.189  -0.202
    1UNL    H15   57   1.025   0.151  -0.382
    1UNL    H16   58   1.015  -0.160  -0.040
    1UNL    H17   59   0.713  -0.295   0.214
    1UNL    H18   60   0.813  -0.380   0.086
    1UNL    H19   61   0.871  -0.361   0.247
    1UNL    H20   62   0.624  -0.085   0.166
    1UNL    H21   63   0.055  -0.082   0.056
    1UNL    H22   64   0.163  -0.239   0.270
    1UNL    H23   65  -0.080  -0.174   0.321
    1UNL    H24   66  -0.149  -0.373   0.213
    1UNL    H25   67  -0.231  -0.160   0.040
    1UNL    H26   68  -0.381  -0.094   0.239
    1UNL    H27   69  -0.568   0.228   0.111
    1UNL    H28   70  -0.418   0.408  -0.097
    1UNL    H29   71  -0.522   0.407  -0.249
    1UNL    H30   72  -0.315   0.236  -0.197
    1UNL    H31   73  -0.733   0.251  -0.243
    1UNL    H32   74  -0.760   0.027  -0.148
    1UNL    H33   75  -0.831   0.117  -0.019
    1UNL    H34   76  -0.661   0.016   0.109
   0.00000   0.00000   0.00000   0.00000   0.00000   0.00000   0.00000   0.00000   0.00000
Generated with MDTraj, t= 7.0
 76
    1UNL     C1    1  -0.789  -0.331  -0.121
    1UNL     O1    2  -0.736  -0.218  -0.064
    1UNL     C2    3  -0.613  -0.190  -0.121
    1UNL     O2    4  -0.557  -0.263  -0.205
    1UNL     C3    5  -0.545  -0.066  -0.071
    1UNL     C4    6  -0.414  -0.051  -0.100
    1UNL     O3    7  -0.340   0.053  -0.084
    1UNL     C5    8  -0.387   0.131   0.033
    1UNL     O4    9  -0.354   0.069   0.158
    1UNL     C6   10  -0.218   0.031   0.149
    1UNL     O5   11  -0.120   0.078   0.249
    1UNL     C7   12   0.017   0.056   0.233
    1UNL     C8   13   0.081   0.156   0.136
    1UNL     O6   14   0.211   0.109   0.091
    1UNL     C9   15   0.256   0.175  -0.019
    1UNL     O7   16   0.195   0.257  -0.084
    1UNL    C10   17   0.389   0.135  -0.058
    1UNL    C11   18   0.462   0.045   0.008
    1UNL    C12   19   0.597   0.010  -0.023
    1UNL    C13   20   0.658   0.059  -0.141
    1UNL    C14   21   0.793   0.031  -0.164
    1UNL     O8   22   0.849   0.069  -0.293
    1UNL    C15   23   0.994   0.080  -0.294
    1UNL    C16   24   0.861  -0.059  -0.086
    1UNL     O9   25   0.995  -0.083  -0.109
    1UNL    C17   26   0.795  -0.115   0.025
    1UNL    O10   27   0.873  -0.191   0.109
    1UNL    C18   28   0.809  -0.295   0.184
    1UNL    C19   29   0.667  -0.074   0.064
    1UNL    C20   30   0.035  -0.094   0.196
    1UNL    O11   31   0.140  -0.145   0.280
    1UNL    C21   32  -0.096  -0.180   0.227
    1UNL    O12   33  -0.084  -0.315   0.204
    1UNL    C22   34  -0.228  -0.129   0.161
    1UNL    O13   35  -0.336  -0.167   0.253
    1UNL    C23   36  -0.541   0.165   0.018
    1UNL    C24   37  -0.582   0.253  -0.100
    1UNL    C25   38  -0.502   0.372  -0.148
    1UNL    O14   39  -0.412   0.334  -0.260
    1UNL    C26   40  -0.695   0.212  -0.152
    1UNL    C27   41  -0.747   0.088  -0.083
    1UNL    C28   42  -0.625   0.033   0.005
    1UNL     H1   43  -0.864  -0.376  -0.046
    1UNL     H2   44  -0.703  -0.411  -0.114
    1UNL     H3   45  -0.835  -0.322  -0.224
    1UNL     H4   46  -0.377  -0.134  -0.158
    1UNL     H5   47  -0.326   0.230   0.032
    1UNL     H6   48  -0.178   0.057   0.055
    1UNL     H7   49   0.051   0.071   0.334
    1UNL     H8   50   0.016   0.170   0.051
    1UNL     H9   51   0.098   0.248   0.183
    1UNL    H10   52   0.426   0.191  -0.137
    1UNL    H11   53   0.410  -0.003   0.100
    1UNL    H12   54   0.615   0.123  -0.214
    1UNL    H13   55   1.032  -0.016  -0.319
    1UNL    H14   56   1.030   0.108  -0.192
    1UNL    H15   57   1.035   0.158  -0.367
    1UNL    H16   58   1.020  -0.167  -0.059
    1UNL    H17   59   0.735  -0.351   0.126
    1UNL    H18   60   0.887  -0.351   0.234
    1UNL    H19   61   0.757  -0.250   0.268
    1UNL    H20   62   0.617  -0.123   0.146
    1UNL    H21   63   0.051  -0.112   0.092
    1UNL    H22   64   0.134  -0.240   0.286
    1UNL    H23   65  -0.124  -0.181   0.335
    1UNL    H24   66  -0.169  -0.363   0.212
    1UNL    H25   67  -0.253  -0.182   0.065
    1UNL    H26   68  -0.396  -0.096   0.285
    1UNL    H27   69  -0.575   0.221   0.098
    1UNL    H28   70  -0.429   0.406  -0.077
    1UNL    H29   71  -0.565   0.447  -0.184
    1UNL    H30   72  -0.410   0.237  -0.261
    1UNL    H31   73  -0.748   0.267  -0.228
    1UNL    H32   74  -0.769   0.017  -0.161
    1UNL    H33   75  -0.840   0.098  -0.026
    1UNL    H34   76  -0.661  -0.007   0.104
   0.00000   0.00000   0.00000   0.00000   0.00000   0.00000   0.00000   0.00000   0.00000
Generated with MDTraj, t= 8.0
 76
    1UNL     C1    1  -0.774  -0.331  -0.147
    1UNL     O1    2  -0.722  -0.222  -0.093
    1UNL     C2    3  -0.593  -0.201  -0.138
    1UNL     O2    4  -0.532  -0.272  -0.219
    1UNL     C3    5  -0.524  -0.078  -0.087
    1UNL     C4    6  -0.394  -0.050  -0.123
    1UNL     O3    7  -0.327   0.062  -0.094
    1UNL     C5    8  -0.379   0.134   0.015
    1UNL     O4    9  -0.342   0.092   0.149
    1UNL     C6   10  -0.213   0.034   0.163
    1UNL     O5   11  -0.129   0.089   0.262
    1UNL     C7   12   0.011   0.062   0.247
    1UNL     C8   13   0.079   0.133   0.130
    1UNL     O6   14   0.213   0.091   0.104
    1UNL     C9   15   0.241   0.150  -0.016
    1UNL     O7   16   0.167   0.218  -0.085
    1UNL    C10   17   0.377   0.127  -0.068
    1UNL    C11   18   0.460   0.048   0.002
    1UNL    C12   19   0.598   0.006  -0.039
    1UNL    C13   20   0.666   0.068  -0.143
    1UNL    C14   21   0.796   0.032  -0.174
    1UNL     O8   22   0.854   0.099  -0.285
    1UNL    C15   23   0.982   0.058  -0.325
    1UNL    C16   24   0.860  -0.064  -0.088
    1UNL     O9   25   0.986  -0.110  -0.118
    1UNL    C17   26   0.795  -0.117   0.027
    1UNL    O10   27   0.883  -0.194   0.111
    1UNL    C18   28   0.808  -0.281   0.195
    1UNL    C19   29   0.660  -0.089   0.050
    1UNL    C20   30   0.028  -0.090   0.221
    1UNL    O11   31   0.140  -0.151   0.279
    1UNL    C21   32  -0.098  -0.163   0.274
    1UNL    O12   33  -0.072  -0.295   0.248
    1UNL    C22   34  -0.224  -0.112   0.190
    1UNL    O13   35  -0.355  -0.139   0.248
    1UNL    C23   36  -0.537   0.146   0.016
    1UNL    C24   37  -0.591   0.247  -0.091
    1UNL    C25   38  -0.533   0.384  -0.116
    1UNL    O14   39  -0.444   0.391  -0.227
    1UNL    C26   40  -0.703   0.207  -0.144
    1UNL    C27   41  -0.740   0.072  -0.097
    1UNL    C28   42  -0.616   0.017  -0.010
    1UNL     H1   43  -0.885  -0.328  -0.147
    1UNL     H2   44  -0.753  -0.411  -0.068
    1UNL     H3   45  -0.737  -0.351  -0.249
    1UNL     H4   46  -0.348  -0.121  -0.186
    1UNL     H5   47  -0.327   0.237   0.005
    1UNL     H6   48  -0.163   0.068   0.078
    1UNL     H7   49   0.065   0.098   0.332
    1UNL     H8   50   0.032   0.117   0.031
    1UNL     H9   51   0.087   0.237   0.146
    1UNL    H10   52   0.386   0.172  -0.169
    1UNL    H11   53   0.419   0.015   0.088
    1UNL    H12   54   0.615   0.136  -0.210
    1UNL    H13   55   0.972  -0.042  -0.352
    1UNL    H14   56   1.060   0.074  -0.250
    1UNL    H15   57   1.018   0.112  -0.419
    1UNL    H16   58   1.032  -0.131  -0.036
    1UNL    H17   59   0.857  -0.377   0.176
    1UNL    H18   60   0.797  -0.255   0.301
    1UNL    H19   61   0.711  -0.296   0.148
    1UNL    H20   62   0.603  -0.137   0.127
    1UNL    H21   63   0.050  -0.113   0.119
    1UNL    H22   64   0.139  -0.250   0.265
    1UNL    H23   65  -0.113  -0.137   0.379
    1UNL    H24   66  -0.152  -0.347   0.225
    1UNL    H25   67  -0.217  -0.163   0.093
    1UNL    H26   68  -0.410  -0.059   0.274
    1UNL    H27   69  -0.557   0.171   0.113
    1UNL    H28   70  -0.466   0.411  -0.035
    1UNL    H29   71  -0.608   0.455  -0.138
    1UNL    H30   72  -0.440   0.306  -0.273
    1UNL    H31   73  -0.758   0.265  -0.217
    1UNL    H32   74  -0.773   0.001  -0.168
    1UNL    H33   75  -0.827   0.099  -0.034
    1UNL    H34   76  -0.644  -0.029   0.090
   0.00000   0.00000   0.00000   0.00000   0.00000   0.00000   0.00000   0.00000   0.00000
Generated with MDTraj, t= 9.0
 76
    1UNL     C1    1  -0.738  -0.351  -0.185
    1UNL     O1    2  -0.713  -0.223  -0.142
    1UNL     C2    3  -0.575  -0.204  -0.152
    1UNL     O2    4  -0.493  -0.286  -0.198
    1UNL     C3    5  -0.525  -0.084  -0.089
    1UNL     C4    6  -0.393  -0.057  -0.110
    1UNL     O3    7  -0.331   0.067  -0.088
    1UNL     C5    8  -0.382   0.142   0.025
    1UNL     O4    9  -0.347   0.089   0.147
    1UNL     C6   10  -0.215   0.043   0.156
    1UNL     O5   11  -0.131   0.105   0.255
    1UNL     C7   12   0.016   0.065   0.234
    1UNL     C8   13   0.076   0.140   0.112
    1UNL     O6   14   0.213   0.110   0.098
    1UNL     C9   15   0.241   0.143  -0.032
    1UNL     O7   16   0.160   0.199  -0.103
    1UNL    C10   17   0.380   0.108  -0.083
    1UNL    C11   18   0.466   0.050  -0.001
    1UNL    C12   19   0.598   0.011  -0.026
    1UNL    C13   20   0.664   0.060  -0.139
    1UNL    C14   21   0.792   0.029  -0.175
    1UNL     O8   22   0.841   0.092  -0.287
    1UNL    C15   23   0.957   0.039  -0.341
    1UNL    C16   24   0.862  -0.058  -0.091
    1UNL     O9   25   0.994  -0.100  -0.114
    1UNL    C17   26   0.799  -0.113   0.032
    1UNL    O10   27   0.874  -0.219   0.087
    1UNL    C18   28   0.817  -0.293   0.191
    1UNL    C19   29   0.669  -0.075   0.061
    1UNL    C20   30   0.027  -0.090   0.223
    1UNL    O11   31   0.131  -0.136   0.307
    1UNL    C21   32  -0.114  -0.154   0.281
    1UNL    O12   33  -0.095  -0.289   0.277
    1UNL    C22   34  -0.235  -0.110   0.193
    1UNL    O13   35  -0.358  -0.137   0.264
    1UNL    C23   36  -0.540   0.143   0.019
    1UNL    C24   37  -0.593   0.251  -0.070
    1UNL    C25   38  -0.540   0.393  -0.075
    1UNL    O14   39  -0.466   0.421  -0.188
    1UNL    C26   40  -0.690   0.208  -0.143
    1UNL    C27   41  -0.717   0.067  -0.115
    1UNL    C28   42  -0.612   0.017  -0.020
    1UNL     H1   43  -0.841  -0.380  -0.186
    1UNL     H2   44  -0.686  -0.419  -0.120
    1UNL     H3   45  -0.705  -0.356  -0.284
    1UNL     H4   46  -0.326  -0.129  -0.160
    1UNL     H5   47  -0.347   0.248   0.015
    1UNL     H6   48  -0.167   0.040   0.063
    1UNL     H7   49   0.064   0.110   0.320
    1UNL     H8   50   0.019   0.118   0.018
    1UNL     H9   51   0.075   0.247   0.131
    1UNL    H10   52   0.404   0.118  -0.185
    1UNL    H11   53   0.427   0.035   0.103
    1UNL    H12   54   0.611   0.125  -0.209
    1UNL    H13   55   0.955  -0.062  -0.324
    1UNL    H14   56   1.046   0.086  -0.305
    1UNL    H15   57   0.957   0.046  -0.455
    1UNL    H16   58   1.013  -0.180  -0.056
    1UNL    H17   59   0.848  -0.240   0.283
    1UNL    H18   60   0.710  -0.313   0.178
    1UNL    H19   61   0.873  -0.388   0.189
    1UNL    H20   62   0.632  -0.102   0.161
    1UNL    H21   63   0.047  -0.140   0.130
    1UNL    H22   64   0.130  -0.236   0.296
    1UNL    H23   65  -0.139  -0.109   0.375
    1UNL    H24   66  -0.181  -0.339   0.277
    1UNL    H25   67  -0.226  -0.167   0.102
    1UNL    H26   68  -0.411  -0.056   0.250
    1UNL    H27   69  -0.576   0.167   0.112
    1UNL    H28   70  -0.478   0.417   0.013
    1UNL    H29   71  -0.624   0.458  -0.090
    1UNL    H30   72  -0.461   0.338  -0.243
    1UNL    H31   73  -0.750   0.272  -0.206
    1UNL    H32   74  -0.725   0.010  -0.202
    1UNL    H33   75  -0.814   0.055  -0.060
    1UNL    H34   76  -0.654  -0.031   0.074
   0.00000   0.00000   0.00000   0.00000   0.00000   0.00000   0.00000   0.00000   0.00000
Generated with MDTraj, t= 10.0
 76
    1UNL     C1    1  -0.709  -0.359  -0.228
    1UNL     O1    2  -0.686  -0.241  -0.151
    1UNL     C2    3  -0.554  -0.212  -0.144
    1UNL     O2    4  -0.468  -0.294  -0.171
    1UNL     C3    5  -0.512  -0.081  -0.102
    1UNL     C4    6  -0.384  -0.042  -0.107
    1UNL     O3    7  -0.331   0.080  -0.068
    1UNL     C5    8  -0.405   0.131   0.046
    1UNL     O4    9  -0.371   0.089   0.175
    1UNL     C6   10  -0.232   0.042   0.174
    1UNL     O5   11  -0.131   0.114   0.253
    1UNL     C7   12   0.009   0.073   0.229
    1UNL     C8   13   0.062   0.129   0.094
    1UNL     O6   14   0.198   0.092   0.081
    1UNL     C9   15   0.247   0.130  -0.046
    1UNL     O7   16   0.174   0.175  -0.133
    1UNL    C10   17   0.390   0.117  -0.064
    1UNL    C11   18   0.470   0.038   0.007
    1UNL    C12   19   0.599   0.008  -0.028
    1UNL    C13   20   0.661   0.068  -0.137
    1UNL    C14   21   0.791   0.032  -0.173
    1UNL     O8   22   0.836   0.077  -0.297
    1UNL    C15   23   0.950   0.012  -0.348
    1UNL    C16   24   0.867  -0.057  -0.094
    1UNL     O9   25   0.989  -0.105  -0.122
    1UNL    C17   26   0.802  -0.119   0.015
    1UNL    O10   27   0.880  -0.207   0.095
    1UNL    C18   28   0.819  -0.291   0.191
    1UNL    C19   29   0.666  -0.090   0.039
    1UNL    C20   30   0.026  -0.076   0.231
    1UNL    O11   31   0.124  -0.106   0.321
    1UNL    C21   32  -0.109  -0.148   0.276
    1UNL    O12   33  -0.097  -0.280   0.300
    1UNL    C22   34  -0.234  -0.111   0.193
    1UNL    O13   35  -0.342  -0.158   0.276
    1UNL    C23   36  -0.560   0.147   0.022
    1UNL    C24   37  -0.612   0.261  -0.066
    1UNL    C25   38  -0.574   0.407  -0.053
    1UNL    O14   39  -0.471   0.447  -0.145
    1UNL    C26   40  -0.690   0.224  -0.165
    1UNL    C27   41  -0.714   0.073  -0.157
    1UNL    C28   42  -0.610   0.019  -0.047
    1UNL     H1   43  -0.808  -0.389  -0.234
    1UNL     H2   44  -0.646  -0.437  -0.193
    1UNL     H3   45  -0.679  -0.339  -0.324
    1UNL     H4   46  -0.303  -0.096  -0.164
    1UNL     H5   47  -0.361   0.233   0.061
    1UNL     H6   48  -0.194   0.066   0.080
    1UNL     H7   49   0.065   0.127   0.306
    1UNL     H8   50   0.003   0.089   0.006
    1UNL     H9   51   0.058   0.239   0.089
    1UNL    H10   52   0.433   0.178  -0.140
    1UNL    H11   53   0.424  -0.030   0.082
    1UNL    H12   54   0.605   0.140  -0.188
    1UNL    H13   55   0.919  -0.082  -0.382
    1UNL    H14   56   1.030   0.012  -0.280
    1UNL    H15   57   0.992   0.063  -0.440
    1UNL    H16   58   0.994  -0.179  -0.059
    1UNL    H17   59   0.737  -0.244   0.247
    1UNL    H18   60   0.793  -0.385   0.142
    1UNL    H19   61   0.894  -0.309   0.270
    1UNL    H20   62   0.614  -0.134   0.119
    1UNL    H21   63   0.074  -0.119   0.140
    1UNL    H22   64   0.108  -0.186   0.370
    1UNL    H23   65  -0.129  -0.099   0.369
    1UNL    H24   66  -0.182  -0.320   0.328
    1UNL    H25   67  -0.234  -0.165   0.100
    1UNL    H26   68  -0.404  -0.083   0.276
    1UNL    H27   69  -0.604   0.159   0.115
    1UNL    H28   70  -0.520   0.420   0.044
    1UNL    H29   71  -0.665   0.469  -0.059
    1UNL    H30   72  -0.447   0.364  -0.195
    1UNL    H31   73  -0.734   0.291  -0.236
    1UNL    H32   74  -0.687   0.027  -0.248
    1UNL    H33   75  -0.820   0.044  -0.141
    1UNL    H34   76  -0.669  -0.047   0.022
   0.00000   0.00000   0.00000   0.00000   0.00000   0.00000   0.00000   0.00000   0.00000
Generated with MDTraj, t= 11.0
 76
    1UNL     C1    1  -0.677  -0.369  -0.220
    1UNL     O1    2  -0.658  -0.237  -0.167
    1UNL     C2    3  -0.530  -0.207  -0.151
    1UNL     O2    4  -0.443  -0.288  -0.178
    1UNL     C3    5  -0.501  -0.078  -0.093
    1UNL     C4    6  -0.381  -0.017  -0.112
    1UNL     O3    7  -0.334   0.109  -0.076
    1UNL     C5    8  -0.409   0.144   0.044
    1UNL     O4    9  -0.382   0.062   0.152
    1UNL     C6   10  -0.241   0.023   0.158
    1UNL     O5   11  -0.156   0.115   0.228
    1UNL     C7   12  -0.018   0.082   0.218
    1UNL     C8   13   0.047   0.122   0.081
    1UNL     O6   14   0.188   0.093   0.078
    1UNL     C9   15   0.234   0.131  -0.044
    1UNL     O7   16   0.167   0.191  -0.126
    1UNL    C10   17   0.361   0.085  -0.086
    1UNL    C11   18   0.459   0.041  -0.002
    1UNL    C12   19   0.594  -0.012  -0.048
    1UNL    C13   20   0.658   0.033  -0.164
    1UNL    C14   21   0.796   0.020  -0.180
    1UNL     O8   22   0.862   0.087  -0.289
    1UNL    C15   23   0.944   0.005  -0.361
    1UNL    C16   24   0.865  -0.064  -0.094
    1UNL     O9   25   0.992  -0.120  -0.128
    1UNL    C17   26   0.800  -0.120   0.017
    1UNL    O10   27   0.884  -0.200   0.104
    1UNL    C18   28   0.810  -0.280   0.198
    1UNL    C19   29   0.672  -0.085   0.040
    1UNL    C20   30   0.011  -0.064   0.239
    1UNL    O11   31   0.114  -0.086   0.332
    1UNL    C21   32  -0.110  -0.136   0.299
    1UNL    O12   33  -0.082  -0.271   0.333
    1UNL    C22   34  -0.230  -0.122   0.204
    1UNL    O13   35  -0.352  -0.159   0.273
    1UNL    C23   36  -0.567   0.146   0.027
    1UNL    C24   37  -0.614   0.262  -0.054
    1UNL    C25   38  -0.593   0.404  -0.022
    1UNL    O14   39  -0.469   0.457  -0.078
    1UNL    C26   40  -0.660   0.218  -0.169
    1UNL    C27   41  -0.677   0.066  -0.175
    1UNL    C28   42  -0.612   0.012  -0.046
    1UNL     H1   43  -0.777  -0.390  -0.254
    1UNL     H2   44  -0.638  -0.446  -0.151
    1UNL     H3   45  -0.607  -0.381  -0.301
    1UNL     H4   46  -0.311  -0.074  -0.171
    1UNL     H5   47  -0.367   0.240   0.080
    1UNL     H6   48  -0.201   0.039   0.063
    1UNL     H7   49   0.025   0.146   0.299
    1UNL     H8   50   0.003   0.053   0.002
    1UNL     H9   51   0.023   0.225   0.046
    1UNL    H10   52   0.385   0.095  -0.192
    1UNL    H11   53   0.431   0.037   0.095
    1UNL    H12   54   0.613   0.114  -0.228
    1UNL    H13   55   0.894  -0.088  -0.377
    1UNL    H14   56   1.033  -0.001  -0.305
    1UNL    H15   57   0.970   0.045  -0.463
    1UNL    H16   58   1.027  -0.158  -0.043
    1UNL    H17   59   0.849  -0.280   0.301
    1UNL    H18   60   0.702  -0.282   0.181
    1UNL    H19   61   0.842  -0.379   0.163
    1UNL    H20   62   0.628  -0.107   0.137
    1UNL    H21   63   0.038  -0.119   0.145
    1UNL    H22   64   0.095  -0.158   0.402
    1UNL    H23   65  -0.148  -0.085   0.387
    1UNL    H24   66  -0.160  -0.330   0.324
    1UNL    H25   67  -0.229  -0.206   0.136
    1UNL    H26   68  -0.410  -0.077   0.279
    1UNL    H27   69  -0.602   0.163   0.123
    1UNL    H28   70  -0.593   0.412   0.093
    1UNL    H29   71  -0.669   0.467  -0.074
    1UNL    H30   72  -0.450   0.412  -0.164
    1UNL    H31   73  -0.695   0.273  -0.255
    1UNL    H32   74  -0.628   0.022  -0.260
    1UNL    H33   75  -0.783   0.040  -0.184
    1UNL    H34   76  -0.683  -0.043   0.019
   0.00000   0.00000   0.00000   0.00000   0.00000   0.00000   0.00000   0.00000   0.00000
Generated with MDTraj, t= 12.0
 76
    1UNL     C1    1  -0.636  -0.380  -0.190
    1UNL     O1    2  -0.633  -0.246  -0.158
    1UNL     C2    3  -0.509  -0.196  -0.166
    1UNL     O2    4  -0.408  -0.260  -0.191
    1UNL     C3    5  -0.488  -0.058  -0.130
    1UNL     C4    6  -0.362   0.000  -0.148
    1UNL     O3    7  -0.331   0.118  -0.077
    1UNL     C5    8  -0.409   0.127   0.044
    1UNL     O4    9  -0.381   0.027   0.126
    1UNL     C6   10  -0.241   0.001   0.142
    1UNL     O5   11  -0.169   0.110   0.205
    1UNL     C7   12  -0.027   0.081   0.209
    1UNL     C8   13   0.046   0.127   0.075
    1UNL     O6   14   0.170   0.061   0.045
    1UNL     C9   15   0.223   0.122  -0.067
    1UNL     O7   16   0.154   0.191  -0.139
    1UNL    C10   17   0.366   0.102  -0.105
    1UNL    C11   18   0.447   0.035  -0.018
    1UNL    C12   19   0.588   0.004  -0.036
    1UNL    C13   20   0.648   0.039  -0.153
    1UNL    C14   21   0.781   0.007  -0.183
    1UNL     O8   22   0.818   0.041  -0.312
    1UNL    C15   23   0.942  -0.007  -0.343
    1UNL    C16   24   0.854  -0.062  -0.086
    1UNL     O9   25   0.981  -0.096  -0.111
    1UNL    C17   26   0.789  -0.110   0.031
    1UNL    O10   27   0.877  -0.205   0.092
    1UNL    C18   28   0.803  -0.290   0.184
    1UNL    C19   29   0.658  -0.078   0.057
    1UNL    C20   30   0.010  -0.064   0.261
    1UNL    O11   31   0.130  -0.067   0.349
    1UNL    C21   32  -0.113  -0.127   0.338
    1UNL    O12   33  -0.060  -0.262   0.376
    1UNL    C22   34  -0.227  -0.132   0.226
    1UNL    O13   35  -0.344  -0.168   0.291
    1UNL    C23   36  -0.557   0.139   0.010
    1UNL    C24   37  -0.607   0.267  -0.057
    1UNL    C25   38  -0.591   0.399   0.006
    1UNL    O14   39  -0.466   0.460  -0.027
    1UNL    C26   40  -0.685   0.239  -0.161
    1UNL    C27   41  -0.686   0.096  -0.195
    1UNL    C28   42  -0.608   0.023  -0.082
    1UNL     H1   43  -0.742  -0.415  -0.208
    1UNL     H2   44  -0.578  -0.444  -0.115
    1UNL     H3   45  -0.570  -0.400  -0.281
    1UNL     H4   46  -0.295  -0.058  -0.204
    1UNL     H5   47  -0.381   0.223   0.089
    1UNL     H6   48  -0.193  -0.011   0.052
    1UNL     H7   49   0.012   0.145   0.294
    1UNL     H8   50  -0.021   0.128  -0.015
    1UNL     H9   51   0.076   0.232   0.086
    1UNL    H10   52   0.401   0.139  -0.197
    1UNL    H11   53   0.398   0.003   0.083
    1UNL    H12   54   0.602   0.098  -0.226
    1UNL    H13   55   0.943  -0.116  -0.333
    1UNL    H14   56   1.006   0.044  -0.275
    1UNL    H15   57   0.979   0.019  -0.446
    1UNL    H16   58   0.991  -0.177  -0.058
    1UNL    H17   59   0.826  -0.260   0.286
    1UNL    H18   60   0.695  -0.298   0.166
    1UNL    H19   61   0.844  -0.390   0.171
    1UNL    H20   62   0.616  -0.091   0.155
    1UNL    H21   63   0.036  -0.134   0.176
    1UNL    H22   64   0.106  -0.117   0.431
    1UNL    H23   65  -0.130  -0.050   0.416
    1UNL    H24   66  -0.133  -0.328   0.370
    1UNL    H25   67  -0.195  -0.216   0.161
    1UNL    H26   68  -0.406  -0.138   0.221
    1UNL    H27   69  -0.592   0.130   0.108
    1UNL    H28   70  -0.593   0.406   0.120
    1UNL    H29   71  -0.661   0.472  -0.044
    1UNL    H30   72  -0.394   0.394  -0.029
    1UNL    H31   73  -0.741   0.314  -0.213
    1UNL    H32   74  -0.640   0.094  -0.294
    1UNL    H33   75  -0.788   0.058  -0.197
    1UNL    H34   76  -0.687  -0.039  -0.035
   0.00000   0.00000   0.00000   0.00000   0.00000   0.00000   0.00000   0.00000   0.00000
Generated with MDTraj, t= 13.0
 76
    1UNL     C1    1  -0.593  -0.390  -0.168
    1UNL     O1    2  -0.604  -0.253  -0.157
    1UNL     C2    3  -0.488  -0.186  -0.193
    1UNL     O2    4  -0.392  -0.237  -0.250
    1UNL     C3    5  -0.477  -0.050  -0.153
    1UNL     C4    6  -0.355   0.006  -0.154
    1UNL     O3    7  -0.329   0.120  -0.073
    1UNL     C5    8  -0.409   0.113   0.053
    1UNL     O4    9  -0.383  -0.006   0.125
    1UNL     C6   10  -0.247  -0.020   0.142
    1UNL     O5   11  -0.182   0.098   0.181
    1UNL     C7   12  -0.041   0.086   0.194
    1UNL     C8   13   0.026   0.091   0.053
    1UNL     O6   14   0.167   0.108   0.062
    1UNL     C9   15   0.216   0.135  -0.066
    1UNL     O7   16   0.148   0.175  -0.159
    1UNL    C10   17   0.354   0.103  -0.096
    1UNL    C11   18   0.426   0.025  -0.014
    1UNL    C12   19   0.553  -0.015  -0.050
    1UNL    C13   20   0.621   0.023  -0.166
    1UNL    C14   21   0.753  -0.012  -0.188
    1UNL     O8   22   0.801   0.021  -0.314
    1UNL    C15   23   0.938   0.007  -0.338
    1UNL    C16   24   0.838  -0.064  -0.088
    1UNL     O9   25   0.964  -0.117  -0.111
    1UNL    C17   26   0.772  -0.103   0.035
    1UNL    O10   27   0.847  -0.164   0.134
    1UNL    C18   28   0.797  -0.291   0.172
    1UNL    C19   29   0.632  -0.085   0.043
    1UNL    C20   30   0.012  -0.046   0.257
    1UNL    O11   31   0.132  -0.021   0.326
    1UNL    C21   32  -0.095  -0.120   0.339
    1UNL    O12   33  -0.066  -0.245   0.408
    1UNL    C22   34  -0.216  -0.135   0.237
    1UNL    O13   35  -0.333  -0.178   0.307
    1UNL    C23   36  -0.552   0.129   0.021
    1UNL    C24   37  -0.588   0.264  -0.035
    1UNL    C25   38  -0.554   0.385   0.045
    1UNL    O14   39  -0.441   0.458   0.002
    1UNL    C26   40  -0.655   0.254  -0.150
    1UNL    C27   41  -0.665   0.111  -0.201
    1UNL    C28   42  -0.591   0.025  -0.095
    1UNL     H1   43  -0.690  -0.433  -0.125
    1UNL     H2   44  -0.496  -0.433  -0.124
    1UNL     H3   45  -0.584  -0.427  -0.277
    1UNL     H4   46  -0.284  -0.033  -0.225
    1UNL     H5   47  -0.374   0.191   0.118
    1UNL     H6   48  -0.201  -0.048   0.054
    1UNL     H7   49  -0.004   0.169   0.263
    1UNL     H8   50   0.010   0.007  -0.017
    1UNL     H9   51  -0.007   0.176  -0.005
    1UNL    H10   52   0.387   0.115  -0.200
    1UNL    H11   53   0.389  -0.004   0.079
    1UNL    H12   54   0.570   0.063  -0.252
    1UNL    H13   55   0.963  -0.104  -0.346
    1UNL    H14   56   0.992   0.060  -0.258
    1UNL    H15   57   0.974   0.054  -0.431
    1UNL    H16   58   0.994  -0.136  -0.017
    1UNL    H17   59   0.689  -0.280   0.184
    1UNL    H18   60   0.819  -0.375   0.106
    1UNL    H19   61   0.832  -0.314   0.272
    1UNL    H20   62   0.590  -0.119   0.135
    1UNL    H21   63   0.026  -0.121   0.173
    1UNL    H22   64   0.139  -0.069   0.408
    1UNL    H23   65  -0.134  -0.038   0.408
    1UNL    H24   66  -0.158  -0.283   0.405
    1UNL    H25   67  -0.198  -0.233   0.183
    1UNL    H26   68  -0.401  -0.109   0.291
    1UNL    H27   69  -0.590   0.106   0.116
    1UNL    H28   70  -0.512   0.354   0.146
    1UNL    H29   71  -0.642   0.454   0.056
    1UNL    H30   72  -0.460   0.471  -0.092
    1UNL    H31   73  -0.683   0.341  -0.209
    1UNL    H32   74  -0.607   0.093  -0.294
    1UNL    H33   75  -0.770   0.089  -0.212
    1UNL    H34   76  -0.658  -0.053  -0.057
   0.00000   0.00000   0.00000   0.00000   0.00000   0.00000   0.00000   0.00000   0.00000
Generated with MDTraj, t= 14.0
 76
    1UNL     C1    1  -0.578  -0.396  -0.208
    1UNL     O1    2  -0.579  -0.261  -0.160
    1UNL     C2    3  -0.476  -0.182  -0.210
    1UNL     O2    4  -0.401  -0.221  -0.301
    1UNL     C3    5  -0.470  -0.053  -0.147
    1UNL     C4    6  -0.348   0.006  -0.145
    1UNL     O3    7  -0.311   0.117  -0.065
    1UNL     C5    8  -0.397   0.106   0.050
    1UNL     O4    9  -0.378  -0.016   0.120
    1UNL     C6   10  -0.239  -0.033   0.147
    1UNL     O5   11  -0.184   0.092   0.203
    1UNL     C7   12  -0.041   0.092   0.201
    1UNL     C8   13   0.001   0.129   0.052
    1UNL     O6   14   0.135   0.088   0.019
    1UNL     C9   15   0.186   0.135  -0.099
    1UNL     O7   16   0.120   0.184  -0.189
    1UNL    C10   17   0.329   0.102  -0.119
    1UNL    C11   18   0.408   0.043  -0.029
    1UNL    C12   19   0.546  -0.012  -0.051
    1UNL    C13   20   0.612   0.005  -0.178
    1UNL    C14   21   0.745  -0.022  -0.195
    1UNL     O8   22   0.806  -0.007  -0.320
    1UNL    C15   23   0.942   0.005  -0.314
    1UNL    C16   24   0.817  -0.080  -0.091
    1UNL     O9   25   0.950  -0.125  -0.092
    1UNL    C17   26   0.750  -0.099   0.036
    1UNL    O10   27   0.824  -0.151   0.148
    1UNL    C18   28   0.806  -0.287   0.165
    1UNL    C19   29   0.616  -0.067   0.055
    1UNL    C20   30   0.019  -0.037   0.269
    1UNL    O11   31   0.129  -0.000   0.344
    1UNL    C21   32  -0.092  -0.116   0.347
    1UNL    O12   33  -0.042  -0.227   0.427
    1UNL    C22   34  -0.203  -0.152   0.245
    1UNL    O13   35  -0.316  -0.169   0.338
    1UNL    C23   36  -0.547   0.120   0.025
    1UNL    C24   37  -0.588   0.261  -0.011
    1UNL    C25   38  -0.551   0.381   0.063
    1UNL    O14   39  -0.421   0.436   0.029
    1UNL    C26   40  -0.632   0.264  -0.141
    1UNL    C27   41  -0.637   0.122  -0.213
    1UNL    C28   42  -0.588   0.026  -0.098
    1UNL     H1   43  -0.665  -0.448  -0.165
    1UNL     H2   44  -0.481  -0.448  -0.193
    1UNL     H3   45  -0.585  -0.403  -0.320
    1UNL     H4   46  -0.266  -0.025  -0.214
    1UNL     H5   47  -0.375   0.186   0.114
    1UNL     H6   48  -0.191  -0.039   0.056
    1UNL     H7   49   0.001   0.170   0.273
    1UNL     H8   50  -0.057   0.070  -0.017
    1UNL     H9   51  -0.016   0.229   0.017
    1UNL    H10   52   0.364   0.115  -0.218
    1UNL    H11   53   0.352   0.022   0.063
    1UNL    H12   54   0.547   0.044  -0.258
    1UNL    H13   55   0.985  -0.098  -0.280
    1UNL    H14   56   0.956   0.089  -0.242
    1UNL    H15   57   0.991   0.033  -0.407
    1UNL    H16   58   0.956  -0.187  -0.017
    1UNL    H17   59   0.712  -0.315   0.119
    1UNL    H18   60   0.887  -0.353   0.132
    1UNL    H19   61   0.797  -0.308   0.271
    1UNL    H20   62   0.569  -0.100   0.148
    1UNL    H21   63   0.052  -0.114   0.193
    1UNL    H22   64   0.122  -0.045   0.433
    1UNL    H23   65  -0.109  -0.024   0.415
    1UNL    H24   66  -0.112  -0.271   0.478
    1UNL    H25   67  -0.191  -0.252   0.193
    1UNL    H26   68  -0.399  -0.152   0.288
    1UNL    H27   69  -0.596   0.092   0.113
    1UNL    H28   70  -0.557   0.355   0.171
    1UNL    H29   71  -0.610   0.471   0.034
    1UNL    H30   72  -0.368   0.363  -0.014
    1UNL    H31   73  -0.638   0.351  -0.205
    1UNL    H32   74  -0.557   0.124  -0.292
    1UNL    H33   75  -0.728   0.086  -0.255
    1UNL    H34   76  -0.665  -0.051  -0.081
   0.00000   0.00000   0.00000   0.00000   0.00000   0.00000   0.00000   0.00000   0.00000
Generated with MDTraj, t= 15.0
 76
    1UNL     C1    1  -0.589  -0.377  -0.277
    1UNL     O1    2  -0.581  -0.253  -0.209
    1UNL     C2    3  -0.472  -0.179  -0.239
    1UNL     O2    4  -0.382  -0.211  -0.315
    1UNL     C3    5  -0.455  -0.060  -0.158
    1UNL     C4    6  -0.331  -0.011  -0.140
    1UNL     O3    7  -0.304   0.089  -0.053
    1UNL     C5    8  -0.393   0.092   0.060
    1UNL     O4    9  -0.374  -0.008   0.157
    1UNL     C6   10  -0.238  -0.022   0.168
    1UNL     O5   11  -0.183   0.108   0.204
    1UNL     C7   12  -0.037   0.108   0.197
    1UNL     C8   13   0.010   0.135   0.062
    1UNL     O6   14   0.131   0.064   0.029
    1UNL     C9   15   0.167   0.104  -0.097
    1UNL     O7   16   0.100   0.179  -0.167
    1UNL    C10   17   0.304   0.062  -0.137
    1UNL    C11   18   0.391   0.033  -0.046
    1UNL    C12   19   0.530  -0.000  -0.063
    1UNL    C13   20   0.598   0.001  -0.187
    1UNL    C14   21   0.732  -0.030  -0.188
    1UNL     O8   22   0.792  -0.021  -0.321
    1UNL    C15   23   0.934  -0.009  -0.318
    1UNL    C16   24   0.800  -0.082  -0.073
    1UNL     O9   25   0.932  -0.121  -0.078
    1UNL    C17   26   0.727  -0.083   0.048
    1UNL    O10   27   0.789  -0.145   0.165
    1UNL    C18   28   0.779  -0.278   0.155
    1UNL    C19   29   0.598  -0.037   0.056
    1UNL    C20   30   0.033  -0.016   0.260
    1UNL    O11   31   0.148   0.006   0.336
    1UNL    C21   32  -0.069  -0.093   0.351
    1UNL    O12   33   0.011  -0.208   0.400
    1UNL    C22   34  -0.191  -0.131   0.272
    1UNL    O13   35  -0.296  -0.148   0.358
    1UNL    C23   36  -0.542   0.115   0.023
    1UNL    C24   37  -0.564   0.255  -0.025
    1UNL    C25   38  -0.544   0.369   0.065
    1UNL    O14   39  -0.407   0.413   0.063
    1UNL    C26   40  -0.613   0.251  -0.150
    1UNL    C27   41  -0.647   0.111  -0.194
    1UNL    C28   42  -0.581   0.018  -0.099
    1UNL     H1   43  -0.677  -0.423  -0.240
    1UNL     H2   44  -0.502  -0.434  -0.269
    1UNL     H3   45  -0.596  -0.366  -0.383
    1UNL     H4   46  -0.247  -0.066  -0.189
    1UNL     H5   47  -0.361   0.182   0.108
    1UNL     H6   48  -0.191  -0.034   0.076
    1UNL     H7   49   0.003   0.183   0.270
    1UNL     H8   50  -0.067   0.116  -0.011
    1UNL     H9   51   0.034   0.240   0.052
    1UNL    H10   52   0.320   0.065  -0.242
    1UNL    H11   53   0.355   0.048   0.058
    1UNL    H12   54   0.549   0.023  -0.277
    1UNL    H13   55   0.974  -0.113  -0.280
    1UNL    H14   56   0.944   0.067  -0.239
    1UNL    H15   57   0.993   0.024  -0.401
    1UNL    H16   58   0.955  -0.143   0.015
    1UNL    H17   59   0.692  -0.314   0.099
    1UNL    H18   60   0.874  -0.323   0.119
    1UNL    H19   61   0.778  -0.322   0.255
    1UNL    H20   62   0.545  -0.048   0.148
    1UNL    H21   63   0.053  -0.084   0.175
    1UNL    H22   64   0.151  -0.053   0.418
    1UNL    H23   65  -0.118  -0.028   0.432
    1UNL    H24   66  -0.054  -0.251   0.459
    1UNL    H25   67  -0.188  -0.235   0.223
    1UNL    H26   68  -0.385  -0.152   0.315
    1UNL    H27   69  -0.586   0.080   0.113
    1UNL    H28   70  -0.552   0.334   0.168
    1UNL    H29   71  -0.609   0.451   0.038
    1UNL    H30   72  -0.367   0.409  -0.029
    1UNL    H31   73  -0.629   0.340  -0.210
    1UNL    H32   74  -0.607   0.097  -0.298
    1UNL    H33   75  -0.753   0.097  -0.187
    1UNL    H34   76  -0.655  -0.057  -0.075
   0.00000   0.00000   0.00000   0.00000   0.00000   0.00000   0.00000   0.00000   0.00000
Generated with MDTraj, t= 16.0
 76
    1UNL     C1    1  -0.606  -0.315  -0.368
    1UNL     O1    2  -0.595  -0.213  -0.272
    1UNL     C2    3  -0.467  -0.177  -0.252
    1UNL     O2    4  -0.366  -0.226  -0.298
    1UNL     C3    5  -0.443  -0.072  -0.157
    1UNL     C4    6  -0.323  -0.017  -0.137
    1UNL     O3    7  -0.290   0.083  -0.055
    1UNL     C5    8  -0.379   0.090   0.065
    1UNL     O4    9  -0.356  -0.013   0.156
    1UNL     C6   10  -0.223  -0.021   0.193
    1UNL     O5   11  -0.173   0.110   0.227
    1UNL     C7   12  -0.026   0.118   0.204
    1UNL     C8   13  -0.004   0.143   0.053
    1UNL     O6   14   0.135   0.127   0.025
    1UNL     C9   15   0.158   0.117  -0.109
    1UNL     O7   16   0.073   0.141  -0.193
    1UNL    C10   17   0.295   0.080  -0.145
    1UNL    C11   18   0.368   0.021  -0.054
    1UNL    C12   19   0.507  -0.012  -0.060
    1UNL    C13   20   0.580   0.008  -0.174
    1UNL    C14   21   0.715  -0.032  -0.185
    1UNL     O8   22   0.770  -0.018  -0.306
    1UNL    C15   23   0.907  -0.043  -0.324
    1UNL    C16   24   0.782  -0.077  -0.074
    1UNL     O9   25   0.920  -0.101  -0.072
    1UNL    C17   26   0.711  -0.096   0.052
    1UNL    O10   27   0.794  -0.145   0.161
    1UNL    C18   28   0.778  -0.280   0.200
    1UNL    C19   29   0.571  -0.064   0.056
    1UNL    C20   30   0.051  -0.012   0.257
    1UNL    O11   31   0.171   0.012   0.318
    1UNL    C21   32  -0.041  -0.089   0.354
    1UNL    O12   33   0.035  -0.206   0.403
    1UNL    C22   34  -0.183  -0.121   0.307
    1UNL    O13   35  -0.281  -0.132   0.404
    1UNL    C23   36  -0.530   0.097   0.031
    1UNL    C24   37  -0.572   0.233  -0.015
    1UNL    C25   38  -0.545   0.361   0.063
    1UNL    O14   39  -0.405   0.383   0.042
    1UNL    C26   40  -0.633   0.232  -0.136
    1UNL    C27   41  -0.629   0.090  -0.190
    1UNL    C28   42  -0.567  -0.002  -0.090
    1UNL     H1   43  -0.709  -0.333  -0.383
    1UNL     H2   44  -0.554  -0.399  -0.338
    1UNL     H3   45  -0.555  -0.292  -0.458
    1UNL     H4   46  -0.247  -0.063  -0.197
    1UNL     H5   47  -0.353   0.178   0.115
    1UNL     H6   48  -0.155  -0.042   0.114
    1UNL     H7   49   0.010   0.200   0.266
    1UNL     H8   50  -0.059   0.072  -0.006
    1UNL     H9   51  -0.037   0.243   0.020
    1UNL    H10   52   0.328   0.112  -0.244
    1UNL    H11   53   0.325   0.020   0.041
    1UNL    H12   54   0.537   0.026  -0.273
    1UNL    H13   55   0.920  -0.154  -0.301
    1UNL    H14   56   0.955   0.025  -0.252
    1UNL    H15   57   0.943  -0.017  -0.419
    1UNL    H16   58   0.952  -0.072   0.019
    1UNL    H17   59   0.676  -0.302   0.232
    1UNL    H18   60   0.788  -0.339   0.107
    1UNL    H19   61   0.853  -0.324   0.268
    1UNL    H20   62   0.516  -0.070   0.149
    1UNL    H21   63   0.067  -0.068   0.166
    1UNL    H22   64   0.197  -0.052   0.385
    1UNL    H23   65  -0.031  -0.032   0.449
    1UNL    H24   66  -0.034  -0.264   0.443
    1UNL    H25   67  -0.169  -0.221   0.262
    1UNL    H26   68  -0.296  -0.049   0.450
    1UNL    H27   69  -0.579   0.080   0.125
    1UNL    H28   70  -0.565   0.349   0.167
    1UNL    H29   71  -0.590   0.444   0.013
    1UNL    H30   72  -0.348   0.309   0.009
    1UNL    H31   73  -0.667   0.322  -0.185
    1UNL    H32   74  -0.569   0.075  -0.285
    1UNL    H33   75  -0.732   0.066  -0.205
    1UNL    H34   76  -0.639  -0.070  -0.050
   0.00000   0.00000   0.00000   0.00000   0.00000   0.00000   0.00000   0.00000   0.00000
Generated with MDTraj, t= 17.0
 76
    1UNL     C1    1  -0.585  -0.247  -0.440
    1UNL     O1    2  -0.584  -0.155  -0.328
    1UNL     C2    3  -0.465  -0.167  -0.262
    1UNL     O2    4  -0.369  -0.237  -0.295
    1UNL     C3    5  -0.445  -0.082  -0.145
    1UNL     C4    6  -0.319  -0.029  -0.122
    1UNL     O3    7  -0.277   0.055  -0.023
    1UNL     C5    8  -0.375   0.066   0.079
    1UNL     O4    9  -0.351  -0.039   0.165
    1UNL     C6   10  -0.212  -0.030   0.199
    1UNL     O5   11  -0.167   0.108   0.226
    1UNL     C7   12  -0.026   0.128   0.211
    1UNL     C8   13  -0.004   0.186   0.066
    1UNL     O6   14   0.133   0.161   0.028
    1UNL     C9   15   0.146   0.110  -0.104
    1UNL     O7   16   0.052   0.110  -0.184
    1UNL    C10   17   0.282   0.057  -0.135
    1UNL    C11   18   0.366   0.023  -0.034
    1UNL    C12   19   0.503  -0.021  -0.053
    1UNL    C13   20   0.567  -0.005  -0.175
    1UNL    C14   21   0.705  -0.035  -0.193
    1UNL     O8   22   0.772  -0.001  -0.307
    1UNL    C15   23   0.888  -0.076  -0.332
    1UNL    C16   24   0.772  -0.083  -0.076
    1UNL     O9   25   0.909  -0.095  -0.073
    1UNL    C17   26   0.711  -0.096   0.049
    1UNL    O10   27   0.783  -0.142   0.158
    1UNL    C18   28   0.732  -0.257   0.215
    1UNL    C19   29   0.575  -0.058   0.059
    1UNL    C20   30   0.055  -0.008   0.244
    1UNL    O11   31   0.187   0.026   0.263
    1UNL    C21   32  -0.026  -0.083   0.358
    1UNL    O12   33   0.046  -0.195   0.403
    1UNL    C22   34  -0.168  -0.121   0.325
    1UNL    O13   35  -0.261  -0.089   0.438
    1UNL    C23   36  -0.527   0.072   0.038
    1UNL    C24   37  -0.568   0.210  -0.008
    1UNL    C25   38  -0.526   0.343   0.050
    1UNL    O14   39  -0.395   0.390   0.015
    1UNL    C26   40  -0.622   0.206  -0.130
    1UNL    C27   41  -0.651   0.059  -0.172
    1UNL    C28   42  -0.566  -0.028  -0.068
    1UNL     H1   43  -0.673  -0.245  -0.505
    1UNL     H2   44  -0.576  -0.346  -0.401
    1UNL     H3   45  -0.490  -0.236  -0.494
    1UNL     H4   46  -0.237  -0.029  -0.188
    1UNL     H5   47  -0.359   0.155   0.129
    1UNL     H6   48  -0.158  -0.063   0.109
    1UNL     H7   49   0.003   0.195   0.289
    1UNL     H8   50  -0.068   0.136  -0.005
    1UNL     H9   51  -0.027   0.295   0.059
    1UNL    H10   52   0.318   0.071  -0.232
    1UNL    H11   53   0.316   0.012   0.068
    1UNL    H12   54   0.519   0.032  -0.266
    1UNL    H13   55   0.856  -0.177  -0.294
    1UNL    H14   56   0.960  -0.031  -0.263
    1UNL    H15   57   0.928  -0.079  -0.428
    1UNL    H16   58   0.933  -0.143   0.006
    1UNL    H17   59   0.688  -0.238   0.313
    1UNL    H18   60   0.651  -0.302   0.157
    1UNL    H19   61   0.815  -0.328   0.222
    1UNL    H20   62   0.536  -0.065   0.158
    1UNL    H21   63   0.043  -0.070   0.158
    1UNL    H22   64   0.223  -0.049   0.314
    1UNL    H23   65  -0.031  -0.019   0.446
    1UNL    H24   66  -0.020  -0.250   0.451
    1UNL    H25   67  -0.202  -0.221   0.297
    1UNL    H26   68  -0.355  -0.116   0.413
    1UNL    H27   69  -0.590   0.044   0.121
    1UNL    H28   70  -0.512   0.318   0.153
    1UNL    H29   71  -0.599   0.421   0.033
    1UNL    H30   72  -0.402   0.400  -0.081
    1UNL    H31   73  -0.637   0.297  -0.187
    1UNL    H32   74  -0.616   0.048  -0.278
    1UNL    H33   75  -0.754   0.025  -0.170
    1UNL    H34   76  -0.626  -0.107  -0.029
   0.00000   0.00000   0.00000   0.00000   0.00000   0.00000   0.00000   0.00000   0.00000
Generated with MDTraj, t= 18.0
 76
    1UNL     C1    1  -0.559  -0.196  -0.483
    1UNL     O1    2  -0.574  -0.150  -0.352
    1UNL     C2    3  -0.455  -0.157  -0.284
    1UNL     O2    4  -0.364  -0.235  -0.315
    1UNL     C3    5  -0.446  -0.072  -0.168
    1UNL     C4    6  -0.320  -0.031  -0.132
    1UNL     O3    7  -0.277   0.041  -0.016
    1UNL     C5    8  -0.371   0.064   0.089
    1UNL     O4    9  -0.351  -0.020   0.204
    1UNL     C6   10  -0.214  -0.012   0.231
    1UNL     O5   11  -0.159   0.115   0.255
    1UNL     C7   12  -0.020   0.126   0.217
    1UNL     C8   13  -0.004   0.165   0.071
    1UNL     O6   14   0.131   0.155   0.022
    1UNL     C9   15   0.140   0.091  -0.094
    1UNL     O7   16   0.055   0.058  -0.175
    1UNL    C10   17   0.277   0.059  -0.117
    1UNL    C11   18   0.364   0.060  -0.015
    1UNL    C12   19   0.502   0.015  -0.040
    1UNL    C13   20   0.563   0.016  -0.169
    1UNL    C14   21   0.693  -0.032  -0.191
    1UNL     O8   22   0.751  -0.020  -0.324
    1UNL    C15   23   0.872  -0.087  -0.338
    1UNL    C16   24   0.766  -0.090  -0.087
    1UNL     O9   25   0.901  -0.114  -0.081
    1UNL    C17   26   0.698  -0.100   0.038
    1UNL    O10   27   0.766  -0.159   0.150
    1UNL    C18   28   0.686  -0.220   0.253
    1UNL    C19   29   0.566  -0.056   0.055
    1UNL    C20   30   0.065  -0.006   0.235
    1UNL    O11   31   0.199   0.032   0.255
    1UNL    C21   32  -0.008  -0.073   0.362
    1UNL    O12   33   0.064  -0.189   0.399
    1UNL    C22   34  -0.157  -0.113   0.325
    1UNL    O13   35  -0.227  -0.087   0.445
    1UNL    C23   36  -0.525   0.059   0.039
    1UNL    C24   37  -0.568   0.195  -0.013
    1UNL    C25   38  -0.516   0.323   0.047
    1UNL    O14   39  -0.395   0.368  -0.015
    1UNL    C26   40  -0.659   0.190  -0.112
    1UNL    C27   41  -0.663   0.053  -0.163
    1UNL    C28   42  -0.561  -0.031  -0.081
    1UNL     H1   43  -0.658  -0.175  -0.535
    1UNL     H2   44  -0.545  -0.306  -0.484
    1UNL     H3   45  -0.469  -0.144  -0.531
    1UNL     H4   46  -0.230  -0.050  -0.190
    1UNL     H5   47  -0.355   0.161   0.123
    1UNL     H6   48  -0.163  -0.047   0.136
    1UNL     H7   49   0.032   0.193   0.282
    1UNL     H8   50  -0.069   0.114   0.000
    1UNL     H9   51  -0.032   0.275   0.066
    1UNL    H10   52   0.309   0.034  -0.218
    1UNL    H11   53   0.324   0.074   0.078
    1UNL    H12   54   0.530   0.084  -0.243
    1UNL    H13   55   0.845  -0.183  -0.289
    1UNL    H14   56   0.946  -0.032  -0.282
    1UNL    H15   57   0.901  -0.099  -0.437
    1UNL    H16   58   0.932  -0.110   0.015
    1UNL    H17   59   0.629  -0.145   0.304
    1UNL    H18   60   0.618  -0.297   0.215
    1UNL    H19   61   0.756  -0.266   0.323
    1UNL    H20   62   0.509  -0.089   0.143
    1UNL    H21   63   0.061  -0.053   0.139
    1UNL    H22   64   0.234  -0.048   0.302
    1UNL    H23   65   0.010  -0.007   0.444
    1UNL    H24   66   0.003  -0.246   0.452
    1UNL    H25   67  -0.161  -0.219   0.306
    1UNL    H26   68  -0.237   0.008   0.472
    1UNL    H27   69  -0.588   0.026   0.121
    1UNL    H28   70  -0.499   0.323   0.153
    1UNL    H29   71  -0.582   0.405   0.019
    1UNL    H30   72  -0.315   0.328   0.028
    1UNL    H31   73  -0.696   0.275  -0.167
    1UNL    H32   74  -0.634   0.037  -0.268
    1UNL    H33   75  -0.766   0.017  -0.150
    1UNL    H34   76  -0.597  -0.120  -0.037
   0.00000   0.00000   0.00000   0.00000   0.00000   0.00000   0.00000   0.00000   0.00000
Generated with MDTraj, t= 19.0
 76
    1UNL     C1    1  -0.564  -0.193  -0.477
    1UNL     O1    2  -0.564  -0.131  -0.349
    1UNL     C2    3  -0.440  -0.129  -0.294
    1UNL     O2    4  -0.336  -0.169  -0.348
    1UNL     C3    5  -0.422  -0.078  -0.154
    1UNL     C4    6  -0.299  -0.026  -0.122
    1UNL     O3    7  -0.276   0.051  -0.015
    1UNL     C5    8  -0.369   0.059   0.092
    1UNL     O4    9  -0.344  -0.032   0.197
    1UNL     C6   10  -0.209  -0.027   0.224
    1UNL     O5   11  -0.155   0.109   0.249
    1UNL     C7   12  -0.022   0.136   0.211
    1UNL     C8   13  -0.029   0.176   0.061
    1UNL     O6   14   0.105   0.174   0.004
    1UNL     C9   15   0.128   0.080  -0.094
    1UNL     O7   16   0.036   0.021  -0.154
    1UNL    C10   17   0.269   0.060  -0.131
    1UNL    C11   18   0.363   0.056  -0.040
    1UNL    C12   19   0.504   0.025  -0.054
    1UNL    C13   20   0.579   0.029  -0.175
    1UNL    C14   21   0.696  -0.037  -0.191
    1UNL     O8   22   0.758  -0.015  -0.313
    1UNL    C15   23   0.871  -0.091  -0.343
    1UNL    C16   24   0.751  -0.107  -0.080
    1UNL     O9   25   0.867  -0.176  -0.088
    1UNL    C17   26   0.683  -0.104   0.042
    1UNL    O10   27   0.761  -0.169   0.146
    1UNL    C18   28   0.698  -0.162   0.270
    1UNL    C19   29   0.570  -0.029   0.057
    1UNL    C20   30   0.065   0.001   0.238
    1UNL    O11   31   0.194   0.036   0.289
    1UNL    C21   32  -0.007  -0.076   0.366
    1UNL    O12   33   0.074  -0.192   0.385
    1UNL    C22   34  -0.157  -0.119   0.339
    1UNL    O13   35  -0.236  -0.072   0.453
    1UNL    C23   36  -0.517   0.054   0.043
    1UNL    C24   37  -0.566   0.187  -0.007
    1UNL    C25   38  -0.519   0.319   0.044
    1UNL    O14   39  -0.391   0.360  -0.017
    1UNL    C26   40  -0.648   0.166  -0.107
    1UNL    C27   41  -0.655   0.028  -0.148
    1UNL    C28   42  -0.547  -0.056  -0.071
    1UNL     H1   43  -0.676  -0.198  -0.505
    1UNL     H2   44  -0.529  -0.300  -0.476
    1UNL     H3   45  -0.506  -0.129  -0.554
    1UNL     H4   46  -0.213  -0.048  -0.190
    1UNL     H5   47  -0.354   0.155   0.130
    1UNL     H6   48  -0.173  -0.086   0.130
    1UNL     H7   49   0.020   0.208   0.277
    1UNL     H8   50  -0.090   0.107   0.004
    1UNL     H9   51  -0.074   0.279   0.050
    1UNL    H10   52   0.285   0.033  -0.232
    1UNL    H11   53   0.333   0.090   0.067
    1UNL    H12   54   0.538   0.093  -0.255
    1UNL    H13   55   0.824  -0.190  -0.336
    1UNL    H14   56   0.945  -0.079  -0.264
    1UNL    H15   57   0.910  -0.069  -0.440
    1UNL    H16   58   0.891  -0.203   0.001
    1UNL    H17   59   0.731  -0.070   0.314
    1UNL    H18   60   0.588  -0.166   0.265
    1UNL    H19   61   0.736  -0.249   0.323
    1UNL    H20   62   0.522  -0.013   0.148
    1UNL    H21   63   0.071  -0.061   0.151
    1UNL    H22   64   0.213  -0.033   0.354
    1UNL    H23   65  -0.005  -0.019   0.455
    1UNL    H24   66   0.017  -0.254   0.434
    1UNL    H25   67  -0.184  -0.223   0.324
    1UNL    H26   68  -0.322  -0.106   0.433
    1UNL    H27   69  -0.576   0.034   0.133
    1UNL    H28   70  -0.483   0.321   0.147
    1UNL    H29   71  -0.583   0.407   0.023
    1UNL    H30   72  -0.388   0.369  -0.116
    1UNL    H31   73  -0.699   0.248  -0.153
    1UNL    H32   74  -0.645   0.018  -0.254
    1UNL    H33   75  -0.758  -0.010  -0.124
    1UNL    H34   76  -0.592  -0.142  -0.033
   0.00000   0.00000   0.00000   0.00000   0.00000   0.00000   0.00000   0.00000   0.00000
Generated with MDTraj, t= 20.0
 76
    1UNL     C1    1  -0.555  -0.220  -0.469
    1UNL     O1    2  -0.549  -0.178  -0.330
    1UNL     C2    3  -0.433  -0.112  -0.301
    1UNL     O2    4  -0.341  -0.096  -0.381
    1UNL     C3    5  -0.415  -0.059  -0.160
    1UNL     C4    6  -0.300  -0.001  -0.123
    1UNL     O3    7  -0.278   0.081  -0.025
    1UNL     C5    8  -0.367   0.066   0.085
    1UNL     O4    9  -0.338  -0.047   0.166
    1UNL     C6   10  -0.209  -0.026   0.225
    1UNL     O5   11  -0.170   0.110   0.242
    1UNL     C7   12  -0.035   0.133   0.212
    1UNL     C8   13  -0.016   0.181   0.064
    1UNL     O6   14   0.122   0.156   0.027
    1UNL     C9   15   0.134   0.078  -0.089
    1UNL     O7   16   0.034   0.032  -0.147
    1UNL    C10   17   0.271   0.039  -0.130
    1UNL    C11   18   0.366   0.073  -0.045
    1UNL    C12   19   0.500   0.026  -0.055
    1UNL    C13   20   0.569   0.024  -0.178
    1UNL    C14   21   0.686  -0.048  -0.193
    1UNL     O8   22   0.741  -0.040  -0.320
    1UNL    C15   23   0.871  -0.089  -0.340
    1UNL    C16   24   0.740  -0.124  -0.086
    1UNL     O9   25   0.859  -0.195  -0.083
    1UNL    C17   26   0.677  -0.114   0.041
    1UNL    O10   27   0.747  -0.171   0.150
    1UNL    C18   28   0.720  -0.112   0.274
    1UNL    C19   29   0.558  -0.045   0.051
    1UNL    C20   30   0.061   0.011   0.248
    1UNL    O11   31   0.193   0.043   0.289
    1UNL    C21   32  -0.007  -0.069   0.357
    1UNL    O12   33   0.084  -0.170   0.392
    1UNL    C22   34  -0.150  -0.120   0.335
    1UNL    O13   35  -0.229  -0.122   0.465
    1UNL    C23   36  -0.520   0.054   0.042
    1UNL    C24   37  -0.577   0.188  -0.003
    1UNL    C25   38  -0.529   0.316   0.051
    1UNL    O14   39  -0.397   0.350   0.010
    1UNL    C26   40  -0.648   0.166  -0.114
    1UNL    C27   41  -0.658   0.020  -0.157
    1UNL    C28   42  -0.537  -0.050  -0.075
    1UNL     H1   43  -0.656  -0.264  -0.483
    1UNL     H2   44  -0.497  -0.309  -0.491
    1UNL     H3   45  -0.533  -0.135  -0.536
    1UNL     H4   46  -0.224  -0.005  -0.206
    1UNL     H5   47  -0.356   0.150   0.146
    1UNL     H6   48  -0.150  -0.063   0.132
    1UNL     H7   49  -0.016   0.214   0.280
    1UNL     H8   50  -0.088   0.136  -0.006
    1UNL     H9   51  -0.033   0.294   0.059
    1UNL    H10   52   0.289  -0.028  -0.214
    1UNL    H11   53   0.342   0.123   0.040
    1UNL    H12   54   0.519   0.065  -0.262
    1UNL    H13   55   0.866  -0.188  -0.293
    1UNL    H14   56   0.945  -0.025  -0.286
    1UNL    H15   57   0.897  -0.096  -0.446
    1UNL    H16   58   0.874  -0.228   0.011
    1UNL    H17   59   0.674  -0.016   0.253
    1UNL    H18   60   0.660  -0.179   0.338
    1UNL    H19   61   0.823  -0.097   0.309
    1UNL    H20   62   0.514  -0.017   0.149
    1UNL    H21   63   0.064  -0.048   0.156
    1UNL    H22   64   0.221  -0.024   0.355
    1UNL    H23   65   0.002  -0.008   0.444
    1UNL    H24   66   0.039  -0.238   0.446
    1UNL    H25   67  -0.138  -0.226   0.308
    1UNL    H26   68  -0.264  -0.031   0.471
    1UNL    H27   69  -0.570   0.020   0.134
    1UNL    H28   70  -0.533   0.325   0.163
    1UNL    H29   71  -0.589   0.393  -0.007
    1UNL    H30   72  -0.334   0.274   0.005
    1UNL    H31   73  -0.694   0.240  -0.177
    1UNL    H32   74  -0.646   0.016  -0.263
    1UNL    H33   75  -0.757  -0.032  -0.150
    1UNL    H34   76  -0.564  -0.140  -0.027
   0.00000   0.00000   0.00000   0.00000   0.00000   0.00000   0.00000   0.00000   0.00000
Generated with MDTraj, t= 21.0
 76
    1UNL     C1    1  -0.514  -0.260  -0.445
    1UNL     O1    2  -0.516  -0.206  -0.314
    1UNL     C2    3  -0.430  -0.096  -0.303
    1UNL     O2    4  -0.349  -0.061  -0.391
    1UNL     C3    5  -0.417  -0.036  -0.168
    1UNL     C4    6  -0.308   0.031  -0.136
    1UNL     O3    7  -0.285   0.089  -0.017
    1UNL     C5    8  -0.376   0.063   0.089
    1UNL     O4    9  -0.335  -0.053   0.164
    1UNL     C6   10  -0.198  -0.030   0.196
    1UNL     O5   11  -0.164   0.111   0.231
    1UNL     C7   12  -0.019   0.139   0.219
    1UNL     C8   13  -0.002   0.183   0.072
    1UNL     O6   14   0.129   0.176   0.025
    1UNL     C9   15   0.123   0.104  -0.089
    1UNL     O7   16   0.021   0.065  -0.141
    1UNL    C10   17   0.254   0.057  -0.122
    1UNL    C11   18   0.358   0.051  -0.031
    1UNL    C12   19   0.487  -0.006  -0.055
    1UNL    C13   20   0.545  -0.030  -0.182
    1UNL    C14   21   0.675  -0.084  -0.200
    1UNL     O8   22   0.726  -0.092  -0.329
    1UNL    C15   23   0.867  -0.089  -0.324
    1UNL    C16   24   0.744  -0.124  -0.086
    1UNL     O9   25   0.873  -0.180  -0.080
    1UNL    C17   26   0.683  -0.108   0.041
    1UNL    O10   27   0.762  -0.160   0.146
    1UNL    C18   28   0.761  -0.088   0.271
    1UNL    C19   29   0.555  -0.046   0.059
    1UNL    C20   30   0.070   0.009   0.253
    1UNL    O11   31   0.200   0.062   0.302
    1UNL    C21   32  -0.013  -0.070   0.356
    1UNL    O12   33   0.076  -0.170   0.411
    1UNL    C22   34  -0.144  -0.132   0.296
    1UNL    O13   35  -0.238  -0.154   0.401
    1UNL    C23   36  -0.529   0.052   0.044
    1UNL    C24   37  -0.584   0.183  -0.000
    1UNL    C25   38  -0.546   0.311   0.068
    1UNL    O14   39  -0.421   0.351   0.022
    1UNL    C26   40  -0.655   0.169  -0.110
    1UNL    C27   41  -0.664   0.030  -0.147
    1UNL    C28   42  -0.536  -0.030  -0.086
    1UNL     H1   43  -0.557  -0.356  -0.428
    1UNL     H2   44  -0.418  -0.288  -0.475
    1UNL     H3   45  -0.568  -0.201  -0.514
    1UNL     H4   46  -0.222   0.037  -0.202
    1UNL     H5   47  -0.373   0.134   0.165
    1UNL     H6   48  -0.150  -0.041   0.095
    1UNL     H7   49   0.008   0.218   0.290
    1UNL     H8   50  -0.081   0.138   0.012
    1UNL     H9   51  -0.027   0.293   0.071
    1UNL    H10   52   0.267   0.024  -0.222
    1UNL    H11   53   0.322   0.065   0.075
    1UNL    H12   54   0.492  -0.010  -0.274
    1UNL    H13   55   0.903  -0.183  -0.290
    1UNL    H14   56   0.899  -0.009  -0.250
    1UNL    H15   57   0.911  -0.058  -0.423
    1UNL    H16   58   0.901  -0.179   0.012
    1UNL    H17   59   0.797   0.012   0.245
    1UNL    H18   60   0.660  -0.086   0.316
    1UNL    H19   61   0.835  -0.142   0.332
    1UNL    H20   62   0.513  -0.031   0.155
    1UNL    H21   63   0.086  -0.051   0.161
    1UNL    H22   64   0.232   0.001   0.375
    1UNL    H23   65  -0.047   0.001   0.429
    1UNL    H24   66   0.021  -0.223   0.472
    1UNL    H25   67  -0.131  -0.236   0.255
    1UNL    H26   68  -0.277  -0.061   0.414
    1UNL    H27   69  -0.591   0.001   0.122
    1UNL    H28   70  -0.539   0.282   0.175
    1UNL    H29   71  -0.621   0.394   0.048
    1UNL    H30   72  -0.372   0.273  -0.014
    1UNL    H31   73  -0.702   0.252  -0.158
    1UNL    H32   74  -0.667   0.009  -0.250
    1UNL    H33   75  -0.760  -0.013  -0.109
    1UNL    H34   76  -0.550  -0.132  -0.063
   0.00000   0.00000   0.00000   0.00000   0.00000   0.00000   0.00000   0.00000   0.00000
Generated with MDTraj, t= 22.0
 76
    1UNL     C1    1  -0.473  -0.277  -0.428
    1UNL     O1    2  -0.494  -0.218  -0.306
    1UNL     C2    3  -0.411  -0.105  -0.291
    1UNL     O2    4  -0.328  -0.077  -0.380
    1UNL     C3    5  -0.419  -0.027  -0.162
    1UNL     C4    6  -0.314   0.058  -0.139
    1UNL     O3    7  -0.296   0.123  -0.023
    1UNL     C5    8  -0.370   0.083   0.087
    1UNL     O4    9  -0.320  -0.042   0.139
    1UNL     C6   10  -0.185  -0.025   0.180
    1UNL     O5   11  -0.165   0.101   0.238
    1UNL     C7   12  -0.030   0.142   0.213
    1UNL     C8   13  -0.012   0.188   0.077
    1UNL     O6   14   0.126   0.164   0.050
    1UNL     C9   15   0.129   0.111  -0.079
    1UNL     O7   16   0.040   0.119  -0.161
    1UNL    C10   17   0.258   0.045  -0.109
    1UNL    C11   18   0.347  -0.000  -0.014
    1UNL    C12   19   0.483  -0.047  -0.043
    1UNL    C13   20   0.533  -0.062  -0.170
    1UNL    C14   21   0.667  -0.100  -0.197
    1UNL     O8   22   0.706  -0.118  -0.332
    1UNL    C15   23   0.846  -0.101  -0.354
    1UNL    C16   24   0.748  -0.128  -0.081
    1UNL     O9   25   0.879  -0.178  -0.088
    1UNL    C17   26   0.699  -0.113   0.048
    1UNL    O10   27   0.790  -0.133   0.156
    1UNL    C18   28   0.763  -0.039   0.264
    1UNL    C19   29   0.567  -0.070   0.064
    1UNL    C20   30   0.067   0.025   0.261
    1UNL    O11   31   0.191   0.082   0.311
    1UNL    C21   32  -0.007  -0.071   0.353
    1UNL    O12   33   0.070  -0.189   0.397
    1UNL    C22   34  -0.131  -0.137   0.266
    1UNL    O13   35  -0.239  -0.185   0.336
    1UNL    C23   36  -0.524   0.063   0.049
    1UNL    C24   37  -0.608   0.182   0.024
    1UNL    C25   38  -0.572   0.317   0.088
    1UNL    O14   39  -0.462   0.377   0.021
    1UNL    C26   40  -0.676   0.172  -0.090
    1UNL    C27   41  -0.666   0.039  -0.152
    1UNL    C28   42  -0.545  -0.029  -0.077
    1UNL     H1   43  -0.525  -0.369  -0.423
    1UNL     H2   44  -0.373  -0.309  -0.428
    1UNL     H3   45  -0.501  -0.216  -0.510
    1UNL     H4   46  -0.240   0.091  -0.207
    1UNL     H5   47  -0.366   0.154   0.160
    1UNL     H6   48  -0.128  -0.022   0.088
    1UNL     H7   49  -0.001   0.225   0.283
    1UNL     H8   50  -0.069   0.125   0.010
    1UNL     H9   51  -0.055   0.288   0.053
    1UNL    H10   52   0.279   0.021  -0.212
    1UNL    H11   53   0.312   0.017   0.084
    1UNL    H12   54   0.484  -0.026  -0.261
    1UNL    H13   55   0.907  -0.173  -0.308
    1UNL    H14   56   0.870  -0.003  -0.302
    1UNL    H15   57   0.876  -0.081  -0.463
    1UNL    H16   58   0.900  -0.223  -0.003
    1UNL    H17   59   0.807   0.060   0.249
    1UNL    H18   60   0.656  -0.043   0.290
    1UNL    H19   61   0.811  -0.098   0.344
    1UNL    H20   62   0.527  -0.074   0.164
    1UNL    H21   63   0.113  -0.043   0.182
    1UNL    H22   64   0.181   0.085   0.408
    1UNL    H23   65  -0.036  -0.008   0.440
    1UNL    H24   66   0.011  -0.246   0.451
    1UNL    H25   67  -0.089  -0.225   0.209
    1UNL    H26   68  -0.299  -0.227   0.272
    1UNL    H27   69  -0.579   0.010   0.131
    1UNL    H28   70  -0.557   0.311   0.197
    1UNL    H29   71  -0.662   0.381   0.069
    1UNL    H30   72  -0.390   0.311   0.026
    1UNL    H31   73  -0.724   0.257  -0.136
    1UNL    H32   74  -0.668   0.024  -0.259
    1UNL    H33   75  -0.758  -0.017  -0.127
    1UNL    H34   76  -0.566  -0.131  -0.058
   0.00000   0.00000   0.00000   0.00000   0.00000   0.00000   0.00000   0.00000   0.00000
Generated with MDTraj, t= 23.0
 76
    1UNL     C1    1  -0.458  -0.291  -0.394
    1UNL     O1    2  -0.493  -0.199  -0.300
    1UNL     C2    3  -0.394  -0.104  -0.275
    1UNL     O2    4  -0.292  -0.103  -0.343
    1UNL     C3    5  -0.412  -0.018  -0.156
    1UNL     C4    6  -0.317   0.075  -0.121
    1UNL     O3    7  -0.324   0.153  -0.013
    1UNL     C5    8  -0.393   0.089   0.100
    1UNL     O4    9  -0.330  -0.032   0.134
    1UNL     C6   10  -0.188  -0.015   0.146
    1UNL     O5   11  -0.162   0.119   0.205
    1UNL     C7   12  -0.017   0.152   0.228
    1UNL     C8   13   0.029   0.217   0.094
    1UNL     O6   14   0.145   0.149   0.051
    1UNL     C9   15   0.139   0.108  -0.079
    1UNL     O7   16   0.053   0.147  -0.152
    1UNL    C10   17   0.262   0.044  -0.118
    1UNL    C11   18   0.352   0.010  -0.028
    1UNL    C12   19   0.480  -0.052  -0.043
    1UNL    C13   20   0.524  -0.092  -0.168
    1UNL    C14   21   0.659  -0.124  -0.190
    1UNL     O8   22   0.694  -0.147  -0.318
    1UNL    C15   23   0.826  -0.137  -0.357
    1UNL    C16   24   0.747  -0.128  -0.083
    1UNL     O9   25   0.879  -0.159  -0.090
    1UNL    C17   26   0.697  -0.098   0.050
    1UNL    O10   27   0.790  -0.128   0.155
    1UNL    C18   28   0.794  -0.017   0.247
    1UNL    C19   29   0.564  -0.067   0.069
    1UNL    C20   30   0.071   0.028   0.278
    1UNL    O11   31   0.160   0.078   0.372
    1UNL    C21   32  -0.008  -0.087   0.327
    1UNL    O12   33   0.059  -0.206   0.354
    1UNL    C22   34  -0.123  -0.133   0.229
    1UNL    O13   35  -0.212  -0.225   0.298
    1UNL    C23   36  -0.538   0.055   0.050
    1UNL    C24   37  -0.613   0.182   0.013
    1UNL    C25   38  -0.609   0.309   0.087
    1UNL    O14   39  -0.498   0.383   0.041
    1UNL    C26   40  -0.680   0.166  -0.100
    1UNL    C27   41  -0.651   0.039  -0.171
    1UNL    C28   42  -0.545  -0.030  -0.085
    1UNL     H1   43  -0.544  -0.357  -0.417
    1UNL     H2   44  -0.385  -0.354  -0.343
    1UNL     H3   45  -0.419  -0.243  -0.485
    1UNL     H4   46  -0.242   0.100  -0.191
    1UNL     H5   47  -0.387   0.161   0.171
    1UNL     H6   48  -0.148  -0.019   0.047
    1UNL     H7   49  -0.020   0.236   0.305
    1UNL     H8   50  -0.041   0.220   0.013
    1UNL     H9   51   0.053   0.323   0.106
    1UNL    H10   52   0.270   0.018  -0.222
    1UNL    H11   53   0.329   0.045   0.072
    1UNL    H12   54   0.461  -0.087  -0.254
    1UNL    H13   55   0.889  -0.214  -0.327
    1UNL    H14   56   0.866  -0.043  -0.313
    1UNL    H15   57   0.825  -0.117  -0.469
    1UNL    H16   58   0.921  -0.147  -0.001
    1UNL    H17   59   0.700   0.036   0.259
    1UNL    H18   60   0.829  -0.071   0.336
    1UNL    H19   61   0.875   0.051   0.216
    1UNL    H20   62   0.517  -0.045   0.164
    1UNL    H21   63   0.129  -0.010   0.188
    1UNL    H22   64   0.205  -0.003   0.402
    1UNL    H23   65  -0.060  -0.042   0.417
    1UNL    H24   66  -0.011  -0.273   0.372
    1UNL    H25   67  -0.077  -0.204   0.151
    1UNL    H26   68  -0.270  -0.172   0.353
    1UNL    H27   69  -0.594  -0.003   0.129
    1UNL    H28   70  -0.601   0.290   0.193
    1UNL    H29   71  -0.709   0.357   0.077
    1UNL    H30   72  -0.438   0.303   0.018
    1UNL    H31   73  -0.752   0.237  -0.134
    1UNL    H32   74  -0.624   0.050  -0.276
    1UNL    H33   75  -0.731  -0.035  -0.188
    1UNL    H34   76  -0.562  -0.127  -0.045
   0.00000   0.00000   0.00000   0.00000   0.00000   0.00000   0.00000   0.00000   0.00000
Generated with MDTraj, t= 24.0
 76
    1UNL     C1    1  -0.441  -0.287  -0.402
    1UNL     O1    2  -0.477  -0.205  -0.296
    1UNL     C2    3  -0.376  -0.121  -0.255
    1UNL     O2    4  -0.262  -0.137  -0.292
    1UNL     C3    5  -0.396  -0.018  -0.149
    1UNL     C4    6  -0.311   0.086  -0.127
    1UNL     O3    7  -0.328   0.170  -0.026
    1UNL     C5    8  -0.396   0.104   0.086
    1UNL     O4    9  -0.327  -0.008   0.136
    1UNL     C6   10  -0.193   0.008   0.158
    1UNL     O5   11  -0.176   0.127   0.246
    1UNL     C7   12  -0.037   0.162   0.249
    1UNL     C8   13   0.008   0.220   0.113
    1UNL     O6   14   0.129   0.160   0.069
    1UNL     C9   15   0.138   0.125  -0.065
    1UNL     O7   16   0.050   0.134  -0.147
    1UNL    C10   17   0.271   0.068  -0.104
    1UNL    C11   18   0.362   0.025  -0.020
    1UNL    C12   19   0.482  -0.047  -0.045
    1UNL    C13   20   0.537  -0.082  -0.175
    1UNL    C14   21   0.660  -0.138  -0.197
    1UNL     O8   22   0.702  -0.176  -0.328
    1UNL    C15   23   0.842  -0.189  -0.350
    1UNL    C16   24   0.753  -0.144  -0.090
    1UNL     O9   25   0.883  -0.191  -0.100
    1UNL    C17   26   0.707  -0.099   0.034
    1UNL    O10   27   0.802  -0.102   0.137
    1UNL    C18   28   0.798   0.013   0.220
    1UNL    C19   29   0.577  -0.060   0.055
    1UNL    C20   30   0.044   0.034   0.293
    1UNL    O11   31   0.141   0.056   0.403
    1UNL    C21   32  -0.033  -0.101   0.309
    1UNL    O12   33   0.054  -0.213   0.331
    1UNL    C22   34  -0.122  -0.122   0.194
    1UNL    O13   35  -0.208  -0.237   0.222
    1UNL    C23   36  -0.540   0.064   0.044
    1UNL    C24   37  -0.622   0.180   0.003
    1UNL    C25   38  -0.624   0.307   0.095
    1UNL    O14   39  -0.521   0.401   0.076
    1UNL    C26   40  -0.692   0.154  -0.108
    1UNL    C27   41  -0.653   0.023  -0.167
    1UNL    C28   42  -0.532  -0.022  -0.082
    1UNL     H1   43  -0.526  -0.343  -0.457
    1UNL     H2   44  -0.365  -0.361  -0.358
    1UNL     H3   45  -0.389  -0.221  -0.476
    1UNL     H4   46  -0.223   0.089  -0.194
    1UNL     H5   47  -0.385   0.176   0.156
    1UNL     H6   48  -0.158   0.025   0.057
    1UNL     H7   49  -0.026   0.241   0.331
    1UNL     H8   50  -0.071   0.202   0.042
    1UNL     H9   51   0.018   0.331   0.114
    1UNL    H10   52   0.285   0.058  -0.208
    1UNL    H11   53   0.332   0.022   0.085
    1UNL    H12   54   0.468  -0.084  -0.256
    1UNL    H13   55   0.888  -0.252  -0.283
    1UNL    H14   56   0.888  -0.092  -0.335
    1UNL    H15   57   0.867  -0.217  -0.455
    1UNL    H16   58   0.913  -0.205  -0.008
    1UNL    H17   59   0.809  -0.018   0.323
    1UNL    H18   60   0.895   0.055   0.188
    1UNL    H19   61   0.716   0.086   0.212
    1UNL    H20   62   0.538  -0.030   0.150
    1UNL    H21   63   0.120   0.004   0.214
    1UNL    H22   64   0.141   0.148   0.432
    1UNL    H23   65  -0.101  -0.088   0.399
    1UNL    H24   66   0.008  -0.299   0.338
    1UNL    H25   67  -0.051  -0.154   0.112
    1UNL    H26   68  -0.301  -0.201   0.238
    1UNL    H27   69  -0.592  -0.004   0.117
    1UNL    H28   70  -0.632   0.274   0.196
    1UNL    H29   71  -0.716   0.366   0.083
    1UNL    H30   72  -0.463   0.348   0.019
    1UNL    H31   73  -0.762   0.232  -0.136
    1UNL    H32   74  -0.618   0.024  -0.270
    1UNL    H33   75  -0.736  -0.046  -0.187
    1UNL    H34   76  -0.554  -0.122  -0.054
   0.00000   0.00000   0.00000   0.00000   0.00000   0.00000   0.00000   0.00000   0.00000
Generated with MDTraj, t= 25.0
 76
    1UNL     C1    1  -0.412  -0.293  -0.388
    1UNL     O1    2  -0.469  -0.204  -0.302
    1UNL     C2    3  -0.374  -0.121  -0.252
    1UNL     O2    4  -0.254  -0.129  -0.273
    1UNL     C3    5  -0.415  -0.025  -0.151
    1UNL     C4    6  -0.325   0.067  -0.107
    1UNL     O3    7  -0.346   0.164  -0.006
    1UNL     C5    8  -0.408   0.100   0.098
    1UNL     O4    9  -0.334  -0.009   0.143
    1UNL     C6   10  -0.194   0.016   0.143
    1UNL     O5   11  -0.163   0.127   0.238
    1UNL     C7   12  -0.023   0.151   0.247
    1UNL     C8   13   0.045   0.224   0.123
    1UNL     O6   14   0.159   0.160   0.082
    1UNL     C9   15   0.148   0.117  -0.050
    1UNL     O7   16   0.055   0.135  -0.129
    1UNL    C10   17   0.264   0.041  -0.095
    1UNL    C11   18   0.373   0.038  -0.014
    1UNL    C12   19   0.502  -0.011  -0.048
    1UNL    C13   20   0.531  -0.066  -0.177
    1UNL    C14   21   0.656  -0.123  -0.203
    1UNL     O8   22   0.674  -0.174  -0.333
    1UNL    C15   23   0.791  -0.247  -0.352
    1UNL    C16   24   0.744  -0.135  -0.094
    1UNL     O9   25   0.856  -0.213  -0.102
    1UNL    C17   26   0.717  -0.082   0.035
    1UNL    O10   27   0.809  -0.098   0.145
    1UNL    C18   28   0.837   0.024   0.203
    1UNL    C19   29   0.596  -0.016   0.051
    1UNL    C20   30   0.054   0.028   0.303
    1UNL    O11   31   0.097   0.043   0.440
    1UNL    C21   32  -0.032  -0.098   0.314
    1UNL    O12   33   0.051  -0.215   0.331
    1UNL    C22   34  -0.107  -0.109   0.180
    1UNL    O13   35  -0.203  -0.225   0.174
    1UNL    C23   36  -0.557   0.059   0.043
    1UNL    C24   37  -0.631   0.177   0.001
    1UNL    C25   38  -0.635   0.304   0.081
    1UNL    O14   39  -0.526   0.387   0.059
    1UNL    C26   40  -0.690   0.163  -0.120
    1UNL    C27   41  -0.646   0.044  -0.192
    1UNL    C28   42  -0.551  -0.031  -0.093
    1UNL     H1   43  -0.475  -0.374  -0.437
    1UNL     H2   44  -0.319  -0.331  -0.333
    1UNL     H3   45  -0.379  -0.226  -0.472
    1UNL     H4   46  -0.226   0.083  -0.159
    1UNL     H5   47  -0.412   0.165   0.176
    1UNL     H6   48  -0.166   0.052   0.045
    1UNL     H7   49  -0.009   0.233   0.326
    1UNL     H8   50  -0.029   0.239   0.046
    1UNL     H9   51   0.076   0.326   0.157
    1UNL    H10   52   0.265   0.004  -0.199
    1UNL    H11   53   0.360   0.082   0.081
    1UNL    H12   54   0.448  -0.069  -0.253
    1UNL    H13   55   0.779  -0.346  -0.314
    1UNL    H14   56   0.873  -0.203  -0.300
    1UNL    H15   57   0.815  -0.243  -0.458
    1UNL    H16   58   0.897  -0.215  -0.010
    1UNL    H17   59   0.943   0.043   0.191
    1UNL    H18   60   0.789   0.099   0.139
    1UNL    H19   61   0.814   0.041   0.309
    1UNL    H20   62   0.571   0.018   0.149
    1UNL    H21   63   0.145  -0.004   0.241
    1UNL    H22   64   0.187   0.004   0.457
    1UNL    H23   65  -0.114  -0.089   0.393
    1UNL    H24   66   0.003  -0.301   0.325
    1UNL    H25   67  -0.024  -0.124   0.109
    1UNL    H26   68  -0.234  -0.231   0.083
    1UNL    H27   69  -0.624   0.016   0.121
    1UNL    H28   70  -0.640   0.278   0.184
    1UNL    H29   71  -0.729   0.353   0.057
    1UNL    H30   72  -0.440   0.334   0.065
    1UNL    H31   73  -0.748   0.239  -0.169
    1UNL    H32   74  -0.597   0.063  -0.288
    1UNL    H33   75  -0.721  -0.022  -0.237
    1UNL    H34   76  -0.571  -0.132  -0.067
   0.00000   0.00000   0.00000   0.00000   0.00000   0.00000   0.00000   0.00000   0.00000
Generated with MDTraj, t= 26.0
 76
    1UNL     C1    1  -0.404  -0.309  -0.376
    1UNL     O1    2  -0.456  -0.219  -0.287
    1UNL     C2    3  -0.361  -0.120  -0.255
    1UNL     O2    4  -0.249  -0.111  -0.304
    1UNL     C3    5  -0.395  -0.021  -0.154
    1UNL     C4    6  -0.306   0.085  -0.128
    1UNL     O3    7  -0.332   0.176  -0.021
    1UNL     C5    8  -0.396   0.101   0.078
    1UNL     O4    9  -0.325  -0.014   0.108
    1UNL     C6   10  -0.199   0.023   0.144
    1UNL     O5   11  -0.184   0.119   0.250
    1UNL     C7   12  -0.046   0.150   0.281
    1UNL     C8   13   0.017   0.219   0.153
    1UNL     O6   14   0.137   0.158   0.112
    1UNL     C9   15   0.139   0.116  -0.018
    1UNL     O7   16   0.032   0.109  -0.080
    1UNL    C10   17   0.265   0.072  -0.074
    1UNL    C11   18   0.382   0.069  -0.006
    1UNL    C12   19   0.511   0.004  -0.046
    1UNL    C13   20   0.529  -0.054  -0.170
    1UNL    C14   21   0.646  -0.127  -0.201
    1UNL     O8   22   0.651  -0.194  -0.324
    1UNL    C15   23   0.743  -0.296  -0.332
    1UNL    C16   24   0.747  -0.137  -0.101
    1UNL     O9   25   0.864  -0.209  -0.126
    1UNL    C17   26   0.728  -0.080   0.026
    1UNL    O10   27   0.827  -0.095   0.119
    1UNL    C18   28   0.884   0.019   0.179
    1UNL    C19   29   0.614  -0.006   0.051
    1UNL    C20   30   0.035   0.022   0.316
    1UNL    O11   31   0.084   0.048   0.441
    1UNL    C21   32  -0.043  -0.103   0.296
    1UNL    O12   33   0.029  -0.216   0.328
    1UNL    C22   34  -0.102  -0.097   0.153
    1UNL    O13   35  -0.170  -0.220   0.134
    1UNL    C23   36  -0.542   0.056   0.035
    1UNL    C24   37  -0.624   0.175   0.004
    1UNL    C25   38  -0.629   0.304   0.088
    1UNL    O14   39  -0.533   0.397   0.039
    1UNL    C26   40  -0.692   0.153  -0.109
    1UNL    C27   41  -0.652   0.030  -0.173
    1UNL    C28   42  -0.530  -0.031  -0.089
    1UNL     H1   43  -0.475  -0.371  -0.429
    1UNL     H2   44  -0.319  -0.359  -0.325
    1UNL     H3   45  -0.367  -0.245  -0.452
    1UNL     H4   46  -0.228   0.118  -0.199
    1UNL     H5   47  -0.402   0.149   0.167
    1UNL     H6   48  -0.164   0.079   0.059
    1UNL     H7   49  -0.046   0.233   0.355
    1UNL     H8   50  -0.060   0.221   0.077
    1UNL     H9   51   0.040   0.328   0.175
    1UNL    H10   52   0.262   0.022  -0.167
    1UNL    H11   53   0.379   0.137   0.083
    1UNL    H12   54   0.469  -0.035  -0.250
    1UNL    H13   55   0.754  -0.336  -0.233
    1UNL    H14   56   0.838  -0.261  -0.366
    1UNL    H15   57   0.708  -0.370  -0.404
    1UNL    H16   58   0.911  -0.210  -0.042
    1UNL    H17   59   0.870   0.107   0.117
    1UNL    H18   60   0.837   0.042   0.275
    1UNL    H19   61   0.991   0.001   0.202
    1UNL    H20   62   0.604   0.026   0.154
    1UNL    H21   63   0.126   0.018   0.250
    1UNL    H22   64   0.016   0.097   0.496
    1UNL    H23   65  -0.135  -0.096   0.362
    1UNL    H24   66   0.015  -0.287   0.261
    1UNL    H25   67  -0.015  -0.083   0.092
    1UNL    H26   68  -0.259  -0.203   0.174
    1UNL    H27   69  -0.577  -0.006   0.119
    1UNL    H28   70  -0.611   0.288   0.193
    1UNL    H29   71  -0.730   0.346   0.082
    1UNL    H30   72  -0.463   0.355  -0.015
    1UNL    H31   73  -0.751   0.233  -0.152
    1UNL    H32   74  -0.636   0.048  -0.279
    1UNL    H33   75  -0.732  -0.041  -0.189
    1UNL    H34   76  -0.543  -0.133  -0.062
   0.00000   0.00000   0.00000   0.00000   0.00000   0.00000   0.00000   0.00000   0.00000
Generated with MDTraj, t= 27.0
 76
    1UNL     C1    1  -0.391  -0.322  -0.364
    1UNL     O1    2  -0.439  -0.229  -0.277
    1UNL     C2    3  -0.370  -0.109  -0.288
    1UNL     O2    4  -0.273  -0.090  -0.361
    1UNL     C3    5  -0.406  -0.011  -0.178
    1UNL     C4    6  -0.324   0.095  -0.153
    1UNL     O3    7  -0.330   0.178  -0.045
    1UNL     C5    8  -0.388   0.102   0.073
    1UNL     O4    9  -0.312  -0.011   0.096
    1UNL     C6   10  -0.178   0.025   0.134
    1UNL     O5   11  -0.171   0.118   0.239
    1UNL     C7   12  -0.033   0.159   0.273
    1UNL     C8   13   0.054   0.255   0.178
    1UNL     O6   14   0.174   0.192   0.139
    1UNL     C9   15   0.151   0.117   0.024
    1UNL     O7   16   0.032   0.090  -0.005
    1UNL    C10   17   0.263   0.056  -0.044
    1UNL    C11   18   0.381   0.070   0.017
    1UNL    C12   19   0.496  -0.007  -0.025
    1UNL    C13   20   0.498  -0.068  -0.144
    1UNL    C14   21   0.613  -0.134  -0.185
    1UNL     O8   22   0.611  -0.193  -0.314
    1UNL    C15   23   0.681  -0.319  -0.323
    1UNL    C16   24   0.734  -0.136  -0.110
    1UNL     O9   25   0.848  -0.201  -0.150
    1UNL    C17   26   0.728  -0.071   0.016
    1UNL    O10   27   0.852  -0.074   0.087
    1UNL    C18   28   0.903   0.041   0.159
    1UNL    C19   29   0.608  -0.016   0.060
    1UNL    C20   30   0.039   0.030   0.330
    1UNL    O11   31   0.036   0.027   0.473
    1UNL    C21   32  -0.026  -0.104   0.294
    1UNL    O12   33   0.039  -0.223   0.326
    1UNL    C22   34  -0.076  -0.101   0.148
    1UNL    O13   35  -0.148  -0.220   0.128
    1UNL    C23   36  -0.536   0.060   0.033
    1UNL    C24   37  -0.633   0.171  -0.005
    1UNL    C25   38  -0.630   0.298   0.068
    1UNL    O14   39  -0.526   0.385   0.023
    1UNL    C26   40  -0.693   0.146  -0.121
    1UNL    C27   41  -0.657   0.015  -0.171
    1UNL    C28   42  -0.526  -0.031  -0.090
    1UNL     H1   43  -0.451  -0.408  -0.363
    1UNL     H2   44  -0.286  -0.338  -0.345
    1UNL     H3   45  -0.410  -0.283  -0.458
    1UNL     H4   46  -0.251   0.104  -0.229
    1UNL     H5   47  -0.394   0.158   0.157
    1UNL     H6   48  -0.136   0.074   0.050
    1UNL     H7   49  -0.058   0.212   0.366
    1UNL     H8   50  -0.000   0.289   0.090
    1UNL     H9   51   0.083   0.344   0.243
    1UNL    H10   52   0.246   0.006  -0.138
    1UNL    H11   53   0.381   0.133   0.098
    1UNL    H12   54   0.409  -0.069  -0.213
    1UNL    H13   55   0.639  -0.383  -0.242
    1UNL    H14   56   0.787  -0.313  -0.308
    1UNL    H15   57   0.662  -0.359  -0.422
    1UNL    H16   58   0.920  -0.176  -0.082
    1UNL    H17   59   0.829   0.073   0.232
    1UNL    H18   60   1.002   0.044   0.208
    1UNL    H19   61   0.911   0.125   0.087
    1UNL    H20   62   0.613   0.029   0.158
    1UNL    H21   63   0.145   0.020   0.301
    1UNL    H22   64   0.118  -0.005   0.518
    1UNL    H23   65  -0.119  -0.110   0.353
    1UNL    H24   66   0.041  -0.284   0.250
    1UNL    H25   67   0.005  -0.103   0.080
    1UNL    H26   68  -0.233  -0.205   0.180
    1UNL    H27   69  -0.575   0.008   0.120
    1UNL    H28   70  -0.617   0.276   0.174
    1UNL    H29   71  -0.720   0.363   0.062
    1UNL    H30   72  -0.453   0.323  -0.002
    1UNL    H31   73  -0.725   0.228  -0.184
    1UNL    H32   74  -0.633   0.018  -0.278
    1UNL    H33   75  -0.745  -0.047  -0.188
    1UNL    H34   76  -0.530  -0.134  -0.059
   0.00000   0.00000   0.00000   0.00000   0.00000   0.00000   0.00000   0.00000   0.00000
Generated with MDTraj, t= 28.0
 76
    1UNL     C1    1  -0.383  -0.324  -0.396
    1UNL     O1    2  -0.425  -0.243  -0.289
    1UNL     C2    3  -0.378  -0.113  -0.306
    1UNL     O2    4  -0.312  -0.075  -0.404
    1UNL     C3    5  -0.396  -0.026  -0.184
    1UNL     C4    6  -0.316   0.079  -0.163
    1UNL     O3    7  -0.322   0.162  -0.060
    1UNL     C5    8  -0.381   0.098   0.058
    1UNL     O4    9  -0.307  -0.004   0.098
    1UNL     C6   10  -0.179   0.044   0.137
    1UNL     O5   11  -0.182   0.139   0.246
    1UNL     C7   12  -0.050   0.164   0.304
    1UNL     C8   13   0.040   0.250   0.214
    1UNL     O6   14   0.168   0.180   0.191
    1UNL     C9   15   0.161   0.122   0.070
    1UNL     O7   16   0.066   0.141  -0.008
    1UNL    C10   17   0.262   0.026   0.020
    1UNL    C11   18   0.386   0.037   0.065
    1UNL    C12   19   0.502  -0.025   0.002
    1UNL    C13   20   0.492  -0.083  -0.126
    1UNL    C14   21   0.598  -0.139  -0.188
    1UNL     O8   22   0.563  -0.215  -0.308
    1UNL    C15   23   0.646  -0.328  -0.319
    1UNL    C16   24   0.724  -0.135  -0.119
    1UNL     O9   25   0.828  -0.204  -0.175
    1UNL    C17   26   0.742  -0.062   0.004
    1UNL    O10   27   0.875  -0.051   0.055
    1UNL    C18   28   0.895   0.064   0.132
    1UNL    C19   29   0.628  -0.012   0.062
    1UNL    C20   30   0.035   0.029   0.339
    1UNL    O11   31   0.065   0.031   0.479
    1UNL    C21   32  -0.038  -0.097   0.301
    1UNL    O12   33   0.049  -0.201   0.316
    1UNL    C22   34  -0.078  -0.085   0.149
    1UNL    O13   35  -0.137  -0.201   0.105
    1UNL    C23   36  -0.530   0.058   0.030
    1UNL    C24   37  -0.624   0.170  -0.004
    1UNL    C25   38  -0.621   0.299   0.061
    1UNL    O14   39  -0.518   0.369   0.000
    1UNL    C26   40  -0.692   0.138  -0.114
    1UNL    C27   41  -0.652   0.004  -0.166
    1UNL    C28   42  -0.519  -0.045  -0.096
    1UNL     H1   43  -0.418  -0.424  -0.383
    1UNL     H2   44  -0.274  -0.319  -0.411
    1UNL     H3   45  -0.437  -0.291  -0.479
    1UNL     H4   46  -0.248   0.103  -0.240
    1UNL     H5   47  -0.376   0.167   0.134
    1UNL     H6   48  -0.136   0.095   0.056
    1UNL     H7   49  -0.067   0.210   0.400
    1UNL     H8   50  -0.016   0.268   0.123
    1UNL     H9   51   0.075   0.349   0.252
    1UNL    H10   52   0.228  -0.034  -0.065
    1UNL    H11   53   0.405   0.108   0.151
    1UNL    H12   54   0.389  -0.095  -0.164
    1UNL    H13   55   0.621  -0.395  -0.228
    1UNL    H14   56   0.752  -0.305  -0.319
    1UNL    H15   57   0.620  -0.372  -0.415
    1UNL    H16   58   0.902  -0.192  -0.115
    1UNL    H17   59   0.896   0.049   0.240
    1UNL    H18   60   0.981   0.126   0.099
    1UNL    H19   61   0.814   0.133   0.106
    1UNL    H20   62   0.643   0.052   0.145
    1UNL    H21   63   0.133   0.017   0.289
    1UNL    H22   64  -0.006   0.065   0.536
    1UNL    H23   65  -0.126  -0.107   0.364
    1UNL    H24   66   0.025  -0.283   0.269
    1UNL    H25   67   0.004  -0.076   0.082
    1UNL    H26   68  -0.145  -0.193   0.009
    1UNL    H27   69  -0.560   0.013   0.123
    1UNL    H28   70  -0.594   0.307   0.168
    1UNL    H29   71  -0.713   0.361   0.045
    1UNL    H30   72  -0.443   0.303  -0.014
    1UNL    H31   73  -0.747   0.206  -0.177
    1UNL    H32   74  -0.657  -0.003  -0.276
    1UNL    H33   75  -0.730  -0.069  -0.150
    1UNL    H34   76  -0.517  -0.148  -0.063
   0.00000   0.00000   0.00000   0.00000   0.00000   0.00000   0.00000   0.00000   0.00000
Generated with MDTraj, t= 29.0
 76
    1UNL     C1    1  -0.408  -0.309  -0.427
    1UNL     O1    2  -0.438  -0.238  -0.309
    1UNL     C2    3  -0.380  -0.112  -0.308
    1UNL     O2    4  -0.317  -0.069  -0.403
    1UNL     C3    5  -0.396  -0.029  -0.189
    1UNL     C4    6  -0.310   0.077  -0.174
    1UNL     O3    7  -0.316   0.165  -0.068
    1UNL     C5    8  -0.372   0.103   0.048
    1UNL     O4    9  -0.291   0.007   0.102
    1UNL     C6   10  -0.159   0.048   0.138
    1UNL     O5   11  -0.160   0.136   0.248
    1UNL     C7   12  -0.041   0.160   0.324
    1UNL     C8   13   0.050   0.253   0.248
    1UNL     O6   14   0.177   0.209   0.187
    1UNL     C9   15   0.162   0.150   0.065
    1UNL     O7   16   0.056   0.155   0.005
    1UNL    C10   17   0.281   0.091   0.000
    1UNL    C11   18   0.384   0.049   0.075
    1UNL    C12   19   0.499  -0.027   0.015
    1UNL    C13   20   0.473  -0.126  -0.084
    1UNL    C14   21   0.576  -0.172  -0.160
    1UNL     O8   22   0.541  -0.250  -0.274
    1UNL    C15   23   0.645  -0.327  -0.315
    1UNL    C16   24   0.710  -0.133  -0.128
    1UNL     O9   25   0.813  -0.183  -0.207
    1UNL    C17   26   0.742  -0.058  -0.012
    1UNL    O10   27   0.876  -0.046   0.022
    1UNL    C18   28   0.915   0.061   0.102
    1UNL    C19   29   0.633  -0.002   0.054
    1UNL    C20   30   0.019   0.025   0.376
    1UNL    O11   31   0.020  -0.005   0.515
    1UNL    C21   32  -0.043  -0.096   0.310
    1UNL    O12   33   0.032  -0.215   0.331
    1UNL    C22   34  -0.061  -0.077   0.160
    1UNL    O13   35  -0.110  -0.190   0.110
    1UNL    C23   36  -0.521   0.046   0.023
    1UNL    C24   37  -0.614   0.154  -0.010
    1UNL    C25   38  -0.622   0.294   0.041
    1UNL    O14   39  -0.519   0.371  -0.026
    1UNL    C26   40  -0.676   0.117  -0.121
    1UNL    C27   41  -0.652  -0.024  -0.159
    1UNL    C28   42  -0.516  -0.055  -0.100
    1UNL     H1   43  -0.460  -0.407  -0.426
    1UNL     H2   44  -0.295  -0.321  -0.441
    1UNL     H3   45  -0.456  -0.258  -0.512
    1UNL     H4   46  -0.244   0.114  -0.256
    1UNL     H5   47  -0.380   0.176   0.122
    1UNL     H6   48  -0.120   0.115   0.066
    1UNL     H7   49  -0.070   0.217   0.412
    1UNL     H8   50   0.002   0.301   0.165
    1UNL     H9   51   0.071   0.344   0.306
    1UNL    H10   52   0.268   0.063  -0.100
    1UNL    H11   53   0.385   0.065   0.178
    1UNL    H12   54   0.376  -0.148  -0.106
    1UNL    H13   55   0.703  -0.364  -0.218
    1UNL    H14   56   0.711  -0.274  -0.384
    1UNL    H15   57   0.592  -0.405  -0.371
    1UNL    H16   58   0.896  -0.156  -0.155
    1UNL    H17   59   0.859   0.071   0.194
    1UNL    H18   60   1.023   0.061   0.118
    1UNL    H19   61   0.897   0.152   0.043
    1UNL    H20   62   0.652   0.051   0.147
    1UNL    H21   63   0.118   0.022   0.330
    1UNL    H22   64   0.095  -0.062   0.536
    1UNL    H23   65  -0.140  -0.105   0.356
    1UNL    H24   66   0.016  -0.291   0.267
    1UNL    H25   67   0.034  -0.059   0.117
    1UNL    H26   68  -0.140  -0.171   0.018
    1UNL    H27   69  -0.545  -0.012   0.109
    1UNL    H28   70  -0.610   0.306   0.151
    1UNL    H29   71  -0.718   0.345   0.008
    1UNL    H30   72  -0.441   0.321  -0.052
    1UNL    H31   73  -0.728   0.187  -0.185
    1UNL    H32   74  -0.646  -0.029  -0.268
    1UNL    H33   75  -0.721  -0.102  -0.135
    1UNL    H34   76  -0.510  -0.161  -0.081
   0.00000   0.00000   0.00000   0.00000   0.00000   0.00000   0.00000   0.00000   0.00000
Generated with MDTraj, t= 30.0
 76
    1UNL     C1    1  -0.452  -0.276  -0.439
    1UNL     O1    2  -0.466  -0.199  -0.325
    1UNL     C2    3  -0.374  -0.097  -0.312
    1UNL     O2    4  -0.279  -0.084  -0.386
    1UNL     C3    5  -0.390  -0.017  -0.195
    1UNL     C4    6  -0.298   0.078  -0.173
    1UNL     O3    7  -0.307   0.162  -0.061
    1UNL     C5    8  -0.351   0.095   0.056
    1UNL     O4    9  -0.270  -0.009   0.087
    1UNL     C6   10  -0.146   0.049   0.128
    1UNL     O5   11  -0.160   0.142   0.237
    1UNL     C7   12  -0.050   0.158   0.330
    1UNL     C8   13   0.061   0.235   0.272
    1UNL     O6   14   0.172   0.168   0.217
    1UNL     C9   15   0.158   0.157   0.082
    1UNL     O7   16   0.069   0.209   0.021
    1UNL    C10   17   0.264   0.078   0.012
    1UNL    C11   18   0.388   0.072   0.061
    1UNL    C12   19   0.493  -0.012   0.010
    1UNL    C13   20   0.467  -0.100  -0.088
    1UNL    C14   21   0.573  -0.179  -0.149
    1UNL     O8   22   0.527  -0.289  -0.224
    1UNL    C15   23   0.619  -0.326  -0.327
    1UNL    C16   24   0.708  -0.153  -0.127
    1UNL     O9   25   0.807  -0.217  -0.202
    1UNL    C17   26   0.734  -0.048  -0.035
    1UNL    O10   27   0.869  -0.021  -0.009
    1UNL    C18   28   0.895   0.080   0.091
    1UNL    C19   29   0.628   0.013   0.029
    1UNL    C20   30   0.008   0.021   0.393
    1UNL    O11   31  -0.002   0.019   0.538
    1UNL    C21   32  -0.051  -0.099   0.316
    1UNL    O12   33   0.027  -0.224   0.329
    1UNL    C22   34  -0.047  -0.072   0.158
    1UNL    O13   35  -0.082  -0.185   0.090
    1UNL    C23   36  -0.500   0.036   0.030
    1UNL    C24   37  -0.594   0.137  -0.021
    1UNL    C25   38  -0.617   0.279   0.018
    1UNL    O14   39  -0.521   0.365  -0.050
    1UNL    C26   40  -0.678   0.090  -0.112
    1UNL    C27   41  -0.639  -0.052  -0.160
    1UNL    C28   42  -0.494  -0.057  -0.093
    1UNL     H1   43  -0.534  -0.354  -0.441
    1UNL     H2   44  -0.349  -0.327  -0.440
    1UNL     H3   45  -0.468  -0.212  -0.531
    1UNL     H4   46  -0.211   0.088  -0.244
    1UNL     H5   47  -0.355   0.168   0.135
    1UNL     H6   48  -0.104   0.111   0.052
    1UNL     H7   49  -0.099   0.217   0.411
    1UNL     H8   50   0.027   0.314   0.208
    1UNL     H9   51   0.118   0.289   0.348
    1UNL    H10   52   0.239   0.029  -0.082
    1UNL    H11   53   0.406   0.115   0.160
    1UNL    H12   54   0.364  -0.115  -0.133
    1UNL    H13   55   0.709  -0.386  -0.283
    1UNL    H14   56   0.653  -0.239  -0.382
    1UNL    H15   57   0.560  -0.383  -0.398
    1UNL    H16   58   0.889  -0.175  -0.177
    1UNL    H17   59   0.845   0.053   0.182
    1UNL    H18   60   1.000   0.106   0.103
    1UNL    H19   61   0.847   0.173   0.057
    1UNL    H20   62   0.653   0.066   0.117
    1UNL    H21   63   0.113   0.012   0.370
    1UNL    H22   64  -0.088   0.049   0.578
    1UNL    H23   65  -0.152  -0.112   0.346
    1UNL    H24   66   0.027  -0.260   0.241
    1UNL    H25   67   0.054  -0.052   0.134
    1UNL    H26   68  -0.165  -0.227   0.127
    1UNL    H27   69  -0.530  -0.015   0.118
    1UNL    H28   70  -0.601   0.290   0.127
    1UNL    H29   71  -0.714   0.325  -0.015
    1UNL    H30   72  -0.440   0.311  -0.080
    1UNL    H31   73  -0.737   0.156  -0.171
    1UNL    H32   74  -0.618  -0.067  -0.267
    1UNL    H33   75  -0.711  -0.126  -0.137
    1UNL    H34   76  -0.469  -0.157  -0.060
   0.00000   0.00000   0.00000   0.00000   0.00000   0.00000   0.00000   0.00000   0.00000
Generated with MDTraj, t= 31.0
 76
    1UNL     C1    1  -0.454  -0.232  -0.486
    1UNL     O1    2  -0.474  -0.191  -0.353
    1UNL     C2    3  -0.365  -0.119  -0.311
    1UNL     O2    4  -0.262  -0.102  -0.372
    1UNL     C3    5  -0.371  -0.039  -0.189
    1UNL     C4    6  -0.290   0.071  -0.177
    1UNL     O3    7  -0.292   0.153  -0.072
    1UNL     C5    8  -0.338   0.093   0.049
    1UNL     O4    9  -0.246  -0.001   0.088
    1UNL     C6   10  -0.131   0.060   0.146
    1UNL     O5   11  -0.166   0.135   0.257
    1UNL     C7   12  -0.048   0.155   0.349
    1UNL     C8   13   0.061   0.238   0.271
    1UNL     O6   14   0.154   0.153   0.216
    1UNL     C9   15   0.158   0.169   0.080
    1UNL     O7   16   0.079   0.234   0.019
    1UNL    C10   17   0.259   0.092   0.013
    1UNL    C11   18   0.380   0.063   0.063
    1UNL    C12   19   0.490  -0.001  -0.014
    1UNL    C13   20   0.457  -0.110  -0.089
    1UNL    C14   21   0.555  -0.193  -0.149
    1UNL     O8   22   0.517  -0.299  -0.230
    1UNL    C15   23   0.622  -0.322  -0.321
    1UNL    C16   24   0.691  -0.155  -0.118
    1UNL     O9   25   0.792  -0.241  -0.148
    1UNL    C17   26   0.722  -0.035  -0.059
    1UNL    O10   27   0.855  -0.011  -0.050
    1UNL    C18   28   0.884   0.081   0.055
    1UNL    C19   29   0.621   0.040  -0.003
    1UNL    C20   30  -0.016   0.013   0.413
    1UNL    O11   31  -0.070   0.009   0.544
    1UNL    C21   32  -0.056  -0.100   0.323
    1UNL    O12   33   0.023  -0.214   0.357
    1UNL    C22   34  -0.034  -0.063   0.171
    1UNL    O13   35  -0.053  -0.168   0.082
    1UNL    C23   36  -0.482   0.033   0.022
    1UNL    C24   37  -0.587   0.135  -0.009
    1UNL    C25   38  -0.590   0.283   0.032
    1UNL    O14   39  -0.517   0.365  -0.057
    1UNL    C26   40  -0.671   0.078  -0.093
    1UNL    C27   41  -0.626  -0.062  -0.147
    1UNL    C28   42  -0.479  -0.071  -0.091
    1UNL     H1   43  -0.543  -0.278  -0.533
    1UNL     H2   44  -0.371  -0.308  -0.483
    1UNL     H3   45  -0.419  -0.148  -0.547
    1UNL     H4   46  -0.235   0.104  -0.264
    1UNL     H5   47  -0.342   0.174   0.124
    1UNL     H6   48  -0.097   0.119   0.062
    1UNL     H7   49  -0.097   0.206   0.436
    1UNL     H8   50   0.020   0.298   0.189
    1UNL     H9   51   0.113   0.314   0.332
    1UNL    H10   52   0.248   0.083  -0.093
    1UNL    H11   53   0.394   0.072   0.170
    1UNL    H12   54   0.361  -0.157  -0.090
    1UNL    H13   55   0.718  -0.352  -0.267
    1UNL    H14   56   0.635  -0.234  -0.382
    1UNL    H15   57   0.587  -0.398  -0.387
    1UNL    H16   58   0.876  -0.207  -0.106
    1UNL    H17   59   0.834   0.039   0.141
    1UNL    H18   60   0.993   0.088   0.064
    1UNL    H19   61   0.845   0.183   0.039
    1UNL    H20   62   0.642   0.130   0.055
    1UNL    H21   63   0.089   0.002   0.425
    1UNL    H22   64  -0.019  -0.040   0.615
    1UNL    H23   65  -0.160  -0.123   0.345
    1UNL    H24   66   0.008  -0.275   0.279
    1UNL    H25   67   0.063  -0.026   0.153
    1UNL    H26   68  -0.132  -0.154   0.026
    1UNL    H27   69  -0.493  -0.018   0.114
    1UNL    H28   70  -0.543   0.308   0.128
    1UNL    H29   71  -0.695   0.317   0.026
    1UNL    H30   72  -0.445   0.305  -0.082
    1UNL    H31   73  -0.735   0.139  -0.157
    1UNL    H32   74  -0.644  -0.077  -0.256
    1UNL    H33   75  -0.673  -0.138  -0.092
    1UNL    H34   76  -0.472  -0.172  -0.049
   0.00000   0.00000   0.00000   0.00000   0.00000   0.00000   0.00000   0.00000   0.00000
Generated with MDTraj, t= 32.0
 76
    1UNL     C1    1  -0.447  -0.236  -0.492
    1UNL     O1    2  -0.471  -0.176  -0.369
    1UNL     C2    3  -0.361  -0.111  -0.327
    1UNL     O2    4  -0.259  -0.112  -0.393
    1UNL     C3    5  -0.373  -0.038  -0.199
    1UNL     C4    6  -0.291   0.068  -0.175
    1UNL     O3    7  -0.280   0.149  -0.066
    1UNL     C5    8  -0.326   0.084   0.058
    1UNL     O4    9  -0.242  -0.016   0.097
    1UNL     C6   10  -0.122   0.044   0.150
    1UNL     O5   11  -0.147   0.144   0.250
    1UNL     C7   12  -0.044   0.161   0.349
    1UNL     C8   13   0.073   0.243   0.293
    1UNL     O6   14   0.164   0.166   0.223
    1UNL     C9   15   0.147   0.190   0.086
    1UNL     O7   16   0.060   0.260   0.039
    1UNL    C10   17   0.245   0.122  -0.006
    1UNL    C11   18   0.359   0.072   0.046
    1UNL    C12   19   0.478  -0.000  -0.020
    1UNL    C13   20   0.448  -0.121  -0.095
    1UNL    C14   21   0.550  -0.198  -0.146
    1UNL     O8   22   0.508  -0.315  -0.211
    1UNL    C15   23   0.587  -0.360  -0.316
    1UNL    C16   24   0.685  -0.155  -0.131
    1UNL     O9   25   0.797  -0.217  -0.177
    1UNL    C17   26   0.715  -0.043  -0.049
    1UNL    O10   27   0.851  -0.019  -0.032
    1UNL    C18   28   0.876   0.105   0.033
    1UNL    C19   29   0.610   0.034  -0.000
    1UNL    C20   30  -0.021   0.023   0.425
    1UNL    O11   31  -0.097   0.002   0.538
    1UNL    C21   32  -0.058  -0.102   0.334
    1UNL    O12   33   0.028  -0.205   0.383
    1UNL    C22   34  -0.022  -0.075   0.187
    1UNL    O13   35  -0.033  -0.176   0.090
    1UNL    C23   36  -0.471   0.027   0.017
    1UNL    C24   37  -0.576   0.123  -0.018
    1UNL    C25   38  -0.575   0.261   0.040
    1UNL    O14   39  -0.490   0.344  -0.031
    1UNL    C26   40  -0.665   0.078  -0.104
    1UNL    C27   41  -0.617  -0.044  -0.169
    1UNL    C28   42  -0.483  -0.068  -0.105
    1UNL     H1   43  -0.531  -0.300  -0.509
    1UNL     H2   44  -0.362  -0.299  -0.483
    1UNL     H3   45  -0.430  -0.166  -0.570
    1UNL     H4   46  -0.228   0.104  -0.250
    1UNL     H5   47  -0.350   0.163   0.136
    1UNL     H6   48  -0.090   0.098   0.057
    1UNL     H7   49  -0.097   0.233   0.417
    1UNL     H8   50   0.033   0.325   0.228
    1UNL     H9   51   0.134   0.295   0.372
    1UNL    H10   52   0.221   0.106  -0.109
    1UNL    H11   53   0.376   0.098   0.149
    1UNL    H12   54   0.350  -0.161  -0.093
    1UNL    H13   55   0.585  -0.470  -0.312
    1UNL    H14   56   0.689  -0.322  -0.321
    1UNL    H15   57   0.536  -0.321  -0.400
    1UNL    H16   58   0.879  -0.164  -0.160
    1UNL    H17   59   0.838   0.081   0.132
    1UNL    H18   60   0.984   0.123   0.028
    1UNL    H19   61   0.822   0.193  -0.005
    1UNL    H20   62   0.630   0.135   0.030
    1UNL    H21   63   0.085   0.020   0.451
    1UNL    H22   64  -0.179   0.055   0.530
    1UNL    H23   65  -0.163  -0.131   0.355
    1UNL    H24   66   0.011  -0.292   0.342
    1UNL    H25   67   0.070  -0.024   0.181
    1UNL    H26   68  -0.125  -0.169   0.052
    1UNL    H27   69  -0.498  -0.016   0.109
    1UNL    H28   70  -0.540   0.252   0.141
    1UNL    H29   71  -0.677   0.302   0.028
    1UNL    H30   72  -0.406   0.292  -0.058
    1UNL    H31   73  -0.728   0.146  -0.157
    1UNL    H32   74  -0.595  -0.025  -0.277
    1UNL    H33   75  -0.689  -0.122  -0.160
    1UNL    H34   76  -0.483  -0.171  -0.067
   0.00000   0.00000   0.00000   0.00000   0.00000   0.00000   0.00000   0.00000   0.00000
Generated with MDTraj, t= 33.0
 76
    1UNL     C1    1  -0.431  -0.255  -0.497
    1UNL     O1    2  -0.450  -0.196  -0.364
    1UNL     C2    3  -0.352  -0.108  -0.334
    1UNL     O2    4  -0.274  -0.081  -0.422
    1UNL     C3    5  -0.342  -0.046  -0.202
    1UNL     C4    6  -0.266   0.066  -0.186
    1UNL     O3    7  -0.257   0.134  -0.065
    1UNL     C5    8  -0.322   0.072   0.043
    1UNL     O4    9  -0.242  -0.023   0.094
    1UNL     C6   10  -0.119   0.036   0.133
    1UNL     O5   11  -0.152   0.150   0.226
    1UNL     C7   12  -0.068   0.170   0.334
    1UNL     C8   13   0.063   0.237   0.288
    1UNL     O6   14   0.153   0.150   0.225
    1UNL     C9   15   0.149   0.174   0.092
    1UNL     O7   16   0.071   0.255   0.041
    1UNL    C10   17   0.246   0.104   0.010
    1UNL    C11   18   0.361   0.070   0.067
    1UNL    C12   19   0.462  -0.003   0.002
    1UNL    C13   20   0.430  -0.121  -0.073
    1UNL    C14   21   0.526  -0.189  -0.141
    1UNL     O8   22   0.478  -0.291  -0.222
    1UNL    C15   23   0.573  -0.370  -0.296
    1UNL    C16   24   0.663  -0.154  -0.129
    1UNL     O9   25   0.768  -0.211  -0.196
    1UNL    C17   26   0.691  -0.048  -0.047
    1UNL    O10   27   0.825  -0.003  -0.056
    1UNL    C18   28   0.858   0.116   0.010
    1UNL    C19   29   0.597   0.024   0.023
    1UNL    C20   30  -0.028   0.037   0.416
    1UNL    O11   31  -0.094   0.031   0.542
    1UNL    C21   32  -0.046  -0.096   0.332
    1UNL    O12   33   0.051  -0.191   0.387
    1UNL    C22   34  -0.019  -0.077   0.184
    1UNL    O13   35  -0.025  -0.200   0.120
    1UNL    C23   36  -0.470   0.019   0.011
    1UNL    C24   37  -0.567   0.132  -0.018
    1UNL    C25   38  -0.564   0.255   0.068
    1UNL    O14   39  -0.468   0.348   0.019
    1UNL    C26   40  -0.646   0.098  -0.117
    1UNL    C27   41  -0.604  -0.033  -0.182
    1UNL    C28   42  -0.459  -0.070  -0.115
    1UNL     H1   43  -0.513  -0.320  -0.512
    1UNL     H2   44  -0.349  -0.320  -0.495
    1UNL     H3   45  -0.410  -0.185  -0.574
    1UNL     H4   46  -0.206   0.116  -0.261
    1UNL     H5   47  -0.347   0.155   0.120
    1UNL     H6   48  -0.083   0.080   0.034
    1UNL     H7   49  -0.115   0.233   0.411
    1UNL     H8   50   0.041   0.315   0.210
    1UNL     H9   51   0.111   0.289   0.375
    1UNL    H10   52   0.209   0.066  -0.086
    1UNL    H11   53   0.397   0.126   0.154
    1UNL    H12   54   0.322  -0.137  -0.098
    1UNL    H13   55   0.528  -0.388  -0.392
    1UNL    H14   56   0.597  -0.467  -0.250
    1UNL    H15   57   0.665  -0.317  -0.305
    1UNL    H16   58   0.850  -0.165  -0.177
    1UNL    H17   59   0.833   0.088   0.113
    1UNL    H18   60   0.964   0.137  -0.002
    1UNL    H19   61   0.796   0.202  -0.022
    1UNL    H20   62   0.622   0.111   0.079
    1UNL    H21   63   0.077   0.055   0.445
    1UNL    H22   64  -0.186   0.057   0.532
    1UNL    H23   65  -0.141  -0.156   0.337
    1UNL    H24   66   0.055  -0.268   0.330
    1UNL    H25   67   0.081  -0.043   0.177
    1UNL    H26   68  -0.115  -0.234   0.105
    1UNL    H27   69  -0.504  -0.042   0.089
    1UNL    H28   70  -0.541   0.222   0.167
    1UNL    H29   71  -0.662   0.301   0.060
    1UNL    H30   72  -0.386   0.304  -0.002
    1UNL    H31   73  -0.713   0.171  -0.164
    1UNL    H32   74  -0.586  -0.016  -0.289
    1UNL    H33   75  -0.682  -0.106  -0.172
    1UNL    H34   76  -0.452  -0.176  -0.089
   0.00000   0.00000   0.00000   0.00000   0.00000   0.00000   0.00000   0.00000   0.00000
Generated with MDTraj, t= 34.0
 76
    1UNL     C1    1  -0.397  -0.272  -0.499
    1UNL     O1    2  -0.405  -0.223  -0.361
    1UNL     C2    3  -0.341  -0.102  -0.351
    1UNL     O2    4  -0.272  -0.064  -0.443
    1UNL     C3    5  -0.358  -0.026  -0.226
    1UNL     C4    6  -0.270   0.072  -0.195
    1UNL     O3    7  -0.268   0.146  -0.076
    1UNL     C5    8  -0.316   0.069   0.033
    1UNL     O4    9  -0.235  -0.032   0.081
    1UNL     C6   10  -0.122   0.031   0.148
    1UNL     O5   11  -0.180   0.108   0.259
    1UNL     C7   12  -0.085   0.162   0.341
    1UNL     C8   13   0.026   0.255   0.274
    1UNL     O6   14   0.147   0.192   0.231
    1UNL     C9   15   0.157   0.183   0.097
    1UNL     O7   16   0.066   0.221   0.023
    1UNL    C10   17   0.255   0.104   0.027
    1UNL    C11   18   0.362   0.052   0.087
    1UNL    C12   19   0.456  -0.016   0.008
    1UNL    C13   20   0.416  -0.111  -0.083
    1UNL    C14   21   0.507  -0.183  -0.159
    1UNL     O8   22   0.466  -0.281  -0.250
    1UNL    C15   23   0.564  -0.380  -0.277
    1UNL    C16   24   0.643  -0.149  -0.145
    1UNL     O9   25   0.744  -0.217  -0.208
    1UNL    C17   26   0.686  -0.044  -0.060
    1UNL    O10   27   0.822  -0.018  -0.056
    1UNL    C18   28   0.861   0.107  -0.006
    1UNL    C19   29   0.594   0.025   0.015
    1UNL    C20   30  -0.026   0.050   0.433
    1UNL    O11   31  -0.104   0.044   0.549
    1UNL    C21   32  -0.031  -0.082   0.355
    1UNL    O12   33   0.049  -0.195   0.393
    1UNL    C22   34  -0.008  -0.061   0.209
    1UNL    O13   35  -0.010  -0.184   0.150
    1UNL    C23   36  -0.460   0.015   0.001
    1UNL    C24   37  -0.550   0.129  -0.009
    1UNL    C25   38  -0.548   0.243   0.087
    1UNL    O14   39  -0.450   0.334   0.040
    1UNL    C26   40  -0.630   0.108  -0.112
    1UNL    C27   41  -0.597  -0.013  -0.196
    1UNL    C28   42  -0.463  -0.064  -0.135
    1UNL     H1   43  -0.435  -0.375  -0.492
    1UNL     H2   44  -0.296  -0.282  -0.533
    1UNL     H3   45  -0.445  -0.208  -0.573
    1UNL     H4   46  -0.202   0.111  -0.275
    1UNL     H5   47  -0.328   0.147   0.121
    1UNL     H6   48  -0.074   0.091   0.061
    1UNL     H7   49  -0.145   0.223   0.410
    1UNL     H8   50  -0.032   0.291   0.185
    1UNL     H9   51   0.058   0.344   0.331
    1UNL    H10   52   0.252   0.104  -0.079
    1UNL    H11   53   0.378   0.070   0.189
    1UNL    H12   54   0.315  -0.126  -0.097
    1UNL    H13   55   0.518  -0.474  -0.289
    1UNL    H14   56   0.634  -0.384  -0.191
    1UNL    H15   57   0.631  -0.356  -0.360
    1UNL    H16   58   0.837  -0.182  -0.183
    1UNL    H17   59   0.865   0.097   0.103
    1UNL    H18   60   0.955   0.135  -0.054
    1UNL    H19   61   0.780   0.179  -0.030
    1UNL    H20   62   0.611   0.101   0.092
    1UNL    H21   63   0.073   0.094   0.467
    1UNL    H22   64  -0.124  -0.051   0.558
    1UNL    H23   65  -0.136  -0.128   0.369
    1UNL    H24   66   0.061  -0.259   0.316
    1UNL    H25   67   0.090  -0.020   0.206
    1UNL    H26   68  -0.093  -0.200   0.100
    1UNL    H27   69  -0.489  -0.048   0.079
    1UNL    H28   70  -0.512   0.212   0.184
    1UNL    H29   71  -0.643   0.293   0.106
    1UNL    H30   72  -0.385   0.274  -0.008
    1UNL    H31   73  -0.704   0.177  -0.149
    1UNL    H32   74  -0.584   0.021  -0.299
    1UNL    H33   75  -0.669  -0.095  -0.197
    1UNL    H34   76  -0.456  -0.173  -0.111
   0.00000   0.00000   0.00000   0.00000   0.00000   0.00000   0.00000   0.00000   0.00000
Generated with MDTraj, t= 35.0
 76
    1UNL     C1    1  -0.345  -0.285  -0.484
    1UNL     O1    2  -0.400  -0.210  -0.381
    1UNL     C2    3  -0.332  -0.092  -0.362
    1UNL     O2    4  -0.252  -0.051  -0.443
    1UNL     C3    5  -0.344  -0.018  -0.233
    1UNL     C4    6  -0.249   0.072  -0.194
    1UNL     O3    7  -0.257   0.139  -0.075
    1UNL     C5    8  -0.317   0.057   0.029
    1UNL     O4    9  -0.232  -0.040   0.078
    1UNL     C6   10  -0.122   0.029   0.141
    1UNL     O5   11  -0.177   0.124   0.239
    1UNL     C7   12  -0.089   0.164   0.345
    1UNL     C8   13   0.028   0.248   0.287
    1UNL     O6   14   0.131   0.171   0.231
    1UNL     C9   15   0.131   0.191   0.093
    1UNL     O7   16   0.051   0.265   0.038
    1UNL    C10   17   0.224   0.112   0.020
    1UNL    C11   18   0.347   0.070   0.069
    1UNL    C12   19   0.449  -0.012  -0.001
    1UNL    C13   20   0.410  -0.109  -0.089
    1UNL    C14   21   0.502  -0.185  -0.158
    1UNL     O8   22   0.451  -0.287  -0.245
    1UNL    C15   23   0.539  -0.388  -0.276
    1UNL    C16   24   0.639  -0.145  -0.146
    1UNL     O9   25   0.729  -0.196  -0.241
    1UNL    C17   26   0.689  -0.053  -0.049
    1UNL    O10   27   0.832  -0.040  -0.043
    1UNL    C18   28   0.875   0.089  -0.016
    1UNL    C19   29   0.589   0.011   0.028
    1UNL    C20   30  -0.019   0.053   0.432
    1UNL    O11   31  -0.055   0.059   0.569
    1UNL    C21   32  -0.040  -0.081   0.361
    1UNL    O12   33   0.043  -0.178   0.423
    1UNL    C22   34  -0.014  -0.068   0.208
    1UNL    O13   35  -0.024  -0.198   0.157
    1UNL    C23   36  -0.455   0.007  -0.006
    1UNL    C24   37  -0.559   0.109   0.000
    1UNL    C25   38  -0.551   0.228   0.098
    1UNL    O14   39  -0.468   0.329   0.041
    1UNL    C26   40  -0.635   0.103  -0.113
    1UNL    C27   41  -0.593  -0.009  -0.198
    1UNL    C28   42  -0.459  -0.058  -0.143
    1UNL     H1   43  -0.360  -0.392  -0.448
    1UNL     H2   44  -0.235  -0.270  -0.497
    1UNL     H3   45  -0.388  -0.259  -0.587
    1UNL     H4   46  -0.171   0.088  -0.271
    1UNL     H5   47  -0.310   0.128   0.124
    1UNL     H6   48  -0.066   0.084   0.055
    1UNL     H7   49  -0.159   0.218   0.409
    1UNL     H8   50   0.001   0.325   0.214
    1UNL     H9   51   0.065   0.297   0.375
    1UNL    H10   52   0.207   0.101  -0.089
    1UNL    H11   53   0.362   0.105   0.175
    1UNL    H12   54   0.303  -0.137  -0.088
    1UNL    H13   55   0.490  -0.456  -0.336
    1UNL    H14   56   0.562  -0.433  -0.177
    1UNL    H15   57   0.638  -0.362  -0.318
    1UNL    H16   58   0.816  -0.156  -0.232
    1UNL    H17   59   0.844   0.126   0.082
    1UNL    H18   60   0.981   0.095  -0.038
    1UNL    H19   61   0.825   0.146  -0.097
    1UNL    H20   62   0.620   0.082   0.102
    1UNL    H21   63   0.092   0.076   0.432
    1UNL    H22   64  -0.043  -0.040   0.585
    1UNL    H23   65  -0.146  -0.119   0.377
    1UNL    H24   66   0.067  -0.254   0.363
    1UNL    H25   67   0.076  -0.019   0.185
    1UNL    H26   68  -0.085  -0.197   0.079
    1UNL    H27   69  -0.482  -0.059   0.071
    1UNL    H28   70  -0.521   0.206   0.201
    1UNL    H29   71  -0.644   0.287   0.110
    1UNL    H30   72  -0.414   0.287  -0.028
    1UNL    H31   73  -0.684   0.189  -0.158
    1UNL    H32   74  -0.577   0.009  -0.303
    1UNL    H33   75  -0.674  -0.086  -0.193
    1UNL    H34   76  -0.470  -0.169  -0.135
   0.00000   0.00000   0.00000   0.00000   0.00000   0.00000   0.00000   0.00000   0.00000
Generated with MDTraj, t= 36.0
 76
    1UNL     C1    1  -0.339  -0.254  -0.505
    1UNL     O1    2  -0.367  -0.214  -0.374
    1UNL     C2    3  -0.291  -0.100  -0.346
    1UNL     O2    4  -0.211  -0.055  -0.425
    1UNL     C3    5  -0.313  -0.033  -0.216
    1UNL     C4    6  -0.247   0.081  -0.180
    1UNL     O3    7  -0.264   0.151  -0.062
    1UNL     C5    8  -0.320   0.069   0.041
    1UNL     O4    9  -0.227  -0.026   0.082
    1UNL     C6   10  -0.123   0.027   0.147
    1UNL     O5   11  -0.158   0.121   0.248
    1UNL     C7   12  -0.059   0.170   0.346
    1UNL     C8   13   0.042   0.268   0.282
    1UNL     O6   14   0.144   0.197   0.214
    1UNL     C9   15   0.133   0.207   0.075
    1UNL     O7   16   0.065   0.293   0.020
    1UNL    C10   17   0.230   0.123  -0.002
    1UNL    C11   18   0.345   0.078   0.064
    1UNL    C12   19   0.439  -0.002  -0.010
    1UNL    C13   20   0.401  -0.089  -0.111
    1UNL    C14   21   0.492  -0.173  -0.169
    1UNL     O8   22   0.435  -0.269  -0.263
    1UNL    C15   23   0.513  -0.379  -0.294
    1UNL    C16   24   0.631  -0.167  -0.137
    1UNL     O9   25   0.720  -0.242  -0.210
    1UNL    C17   26   0.670  -0.065  -0.048
    1UNL    O10   27   0.814  -0.038  -0.038
    1UNL    C18   28   0.853   0.098  -0.015
    1UNL    C19   29   0.573   0.008   0.025
    1UNL    C20   30   0.002   0.045   0.434
    1UNL    O11   31  -0.032   0.041   0.572
    1UNL    C21   32  -0.047  -0.085   0.374
    1UNL    O12   33   0.027  -0.195   0.443
    1UNL    C22   34  -0.027  -0.080   0.211
    1UNL    O13   35  -0.065  -0.210   0.158
    1UNL    C23   36  -0.455   0.000   0.000
    1UNL    C24   37  -0.566   0.101  -0.011
    1UNL    C25   38  -0.581   0.219   0.074
    1UNL    O14   39  -0.489   0.322   0.045
    1UNL    C26   40  -0.636   0.087  -0.126
    1UNL    C27   41  -0.582  -0.031  -0.202
    1UNL    C28   42  -0.440  -0.073  -0.135
    1UNL     H1   43  -0.434  -0.304  -0.545
    1UNL     H2   44  -0.259  -0.331  -0.512
    1UNL     H3   45  -0.301  -0.161  -0.561
    1UNL     H4   46  -0.175   0.123  -0.245
    1UNL     H5   47  -0.325   0.136   0.139
    1UNL     H6   48  -0.048   0.084   0.080
    1UNL     H7   49  -0.131   0.224   0.409
    1UNL     H8   50  -0.014   0.336   0.218
    1UNL     H9   51   0.088   0.324   0.359
    1UNL    H10   52   0.222   0.104  -0.107
    1UNL    H11   53   0.356   0.104   0.165
    1UNL    H12   54   0.297  -0.087  -0.144
    1UNL    H13   55   0.451  -0.460  -0.306
    1UNL    H14   56   0.582  -0.397  -0.207
    1UNL    H15   57   0.584  -0.371  -0.381
    1UNL    H16   58   0.812  -0.220  -0.179
    1UNL    H17   59   0.832   0.139   0.083
    1UNL    H18   60   0.953   0.110  -0.052
    1UNL    H19   61   0.795   0.151  -0.093
    1UNL    H20   62   0.612   0.077   0.098
    1UNL    H21   63   0.112   0.073   0.441
    1UNL    H22   64  -0.018  -0.053   0.604
    1UNL    H23   65  -0.158  -0.100   0.392
    1UNL    H24   66   0.051  -0.263   0.380
    1UNL    H25   67   0.072  -0.053   0.180
    1UNL    H26   68  -0.159  -0.205   0.134
    1UNL    H27   69  -0.481  -0.069   0.073
    1UNL    H28   70  -0.554   0.183   0.175
    1UNL    H29   71  -0.688   0.253   0.084
    1UNL    H30   72  -0.410   0.291  -0.005
    1UNL    H31   73  -0.689   0.170  -0.171
    1UNL    H32   74  -0.585  -0.010  -0.307
    1UNL    H33   75  -0.650  -0.119  -0.186
    1UNL    H34   76  -0.442  -0.183  -0.117
   0.00000   0.00000   0.00000   0.00000   0.00000   0.00000   0.00000   0.00000   0.00000
Generated with MDTraj, t= 37.0
 76
    1UNL     C1    1  -0.317  -0.224  -0.493
    1UNL     O1    2  -0.366  -0.172  -0.372
    1UNL     C2    3  -0.265  -0.085  -0.331
    1UNL     O2    4  -0.158  -0.066  -0.389
    1UNL     C3    5  -0.304  -0.024  -0.202
    1UNL     C4    6  -0.238   0.085  -0.152
    1UNL     O3    7  -0.273   0.152  -0.034
    1UNL     C5    8  -0.323   0.067   0.066
    1UNL     O4    9  -0.233  -0.033   0.098
    1UNL     C6   10  -0.124   0.026   0.159
    1UNL     O5   11  -0.165   0.125   0.262
    1UNL     C7   12  -0.056   0.170   0.356
    1UNL     C8   13   0.039   0.260   0.273
    1UNL     O6   14   0.138   0.190   0.205
    1UNL     C9   15   0.131   0.208   0.073
    1UNL     O7   16   0.055   0.290   0.019
    1UNL    C10   17   0.233   0.149  -0.009
    1UNL    C11   18   0.331   0.080   0.050
    1UNL    C12   19   0.426   0.008  -0.034
    1UNL    C13   20   0.387  -0.087  -0.130
    1UNL    C14   21   0.479  -0.171  -0.184
    1UNL     O8   22   0.435  -0.267  -0.281
    1UNL    C15   23   0.515  -0.374  -0.313
    1UNL    C16   24   0.612  -0.165  -0.144
    1UNL     O9   25   0.698  -0.261  -0.189
    1UNL    C17   26   0.658  -0.066  -0.050
    1UNL    O10   27   0.791  -0.062  -0.014
    1UNL    C18   28   0.850   0.072  -0.007
    1UNL    C19   29   0.567   0.026  -0.007
    1UNL    C20   30   0.015   0.051   0.428
    1UNL    O11   31   0.011   0.075   0.568
    1UNL    C21   32  -0.047  -0.079   0.374
    1UNL    O12   33   0.015  -0.203   0.427
    1UNL    C22   34  -0.034  -0.084   0.217
    1UNL    O13   35  -0.061  -0.209   0.148
    1UNL    C23   36  -0.457  -0.003   0.011
    1UNL    C24   37  -0.569   0.097  -0.035
    1UNL    C25   38  -0.606   0.213   0.049
    1UNL    O14   39  -0.510   0.312   0.023
    1UNL    C26   40  -0.621   0.059  -0.154
    1UNL    C27   41  -0.553  -0.067  -0.200
    1UNL    C28   42  -0.420  -0.078  -0.119
    1UNL     H1   43  -0.397  -0.282  -0.544
    1UNL     H2   44  -0.232  -0.289  -0.487
    1UNL     H3   45  -0.283  -0.133  -0.546
    1UNL     H4   46  -0.162   0.134  -0.206
    1UNL     H5   47  -0.351   0.123   0.163
    1UNL     H6   48  -0.064   0.090   0.081
    1UNL     H7   49  -0.111   0.220   0.437
    1UNL     H8   50  -0.021   0.314   0.198
    1UNL     H9   51   0.078   0.335   0.338
    1UNL    H10   52   0.226   0.155  -0.116
    1UNL    H11   53   0.341   0.063   0.159
    1UNL    H12   54   0.288  -0.091  -0.158
    1UNL    H13   55   0.461  -0.456  -0.346
    1UNL    H14   56   0.579  -0.398  -0.224
    1UNL    H15   57   0.588  -0.345  -0.394
    1UNL    H16   58   0.790  -0.226  -0.170
    1UNL    H17   59   0.857   0.110   0.095
    1UNL    H18   60   0.942   0.072  -0.063
    1UNL    H19   61   0.789   0.143  -0.064
    1UNL    H20   62   0.591   0.096   0.071
    1UNL    H21   63   0.124   0.048   0.409
    1UNL    H22   64   0.033  -0.010   0.606
    1UNL    H23   65  -0.150  -0.092   0.408
    1UNL    H24   66   0.017  -0.278   0.362
    1UNL    H25   67   0.072  -0.068   0.195
    1UNL    H26   68  -0.151  -0.208   0.105
    1UNL    H27   69  -0.504  -0.069   0.076
    1UNL    H28   70  -0.616   0.187   0.158
    1UNL    H29   71  -0.707   0.255   0.021
    1UNL    H30   72  -0.417   0.276   0.007
    1UNL    H31   73  -0.695   0.118  -0.208
    1UNL    H32   74  -0.522  -0.053  -0.303
    1UNL    H33   75  -0.618  -0.158  -0.196
    1UNL    H34   76  -0.377  -0.177  -0.089
   0.00000   0.00000   0.00000   0.00000   0.00000   0.00000   0.00000   0.00000   0.00000
Generated with MDTraj, t= 38.0
 76
    1UNL     C1    1  -0.251  -0.198  -0.499
    1UNL     O1    2  -0.325  -0.165  -0.386
    1UNL     C2    3  -0.247  -0.078  -0.315
    1UNL     O2    4  -0.134  -0.046  -0.349
    1UNL     C3    5  -0.298  -0.022  -0.185
    1UNL     C4    6  -0.237   0.088  -0.125
    1UNL     O3    7  -0.278   0.152  -0.011
    1UNL     C5    8  -0.340   0.055   0.072
    1UNL     O4    9  -0.250  -0.036   0.130
    1UNL     C6   10  -0.124   0.031   0.178
    1UNL     O5   11  -0.162   0.128   0.289
    1UNL     C7   12  -0.055   0.179   0.366
    1UNL     C8   13   0.034   0.263   0.273
    1UNL     O6   14   0.114   0.179   0.192
    1UNL     C9   15   0.106   0.212   0.056
    1UNL     O7   16   0.026   0.294   0.012
    1UNL    C10   17   0.197   0.132  -0.030
    1UNL    C11   18   0.323   0.108   0.009
    1UNL    C12   19   0.423   0.008  -0.040
    1UNL    C13   20   0.392  -0.087  -0.137
    1UNL    C14   21   0.479  -0.181  -0.194
    1UNL     O8   22   0.430  -0.259  -0.300
    1UNL    C15   23   0.504  -0.371  -0.338
    1UNL    C16   24   0.611  -0.176  -0.142
    1UNL     O9   25   0.701  -0.243  -0.217
    1UNL    C17   26   0.649  -0.090  -0.039
    1UNL    O10   27   0.782  -0.091   0.005
    1UNL    C18   28   0.844   0.033  -0.005
    1UNL    C19   29   0.557  -0.003   0.011
    1UNL    C20   30   0.013   0.063   0.437
    1UNL    O11   31   0.014   0.070   0.580
    1UNL    C21   32  -0.025  -0.074   0.374
    1UNL    O12   33   0.071  -0.177   0.409
    1UNL    C22   34  -0.027  -0.074   0.226
    1UNL    O13   35  -0.056  -0.195   0.165
    1UNL    C23   36  -0.471  -0.013   0.008
    1UNL    C24   37  -0.587   0.080  -0.033
    1UNL    C25   38  -0.614   0.216   0.025
    1UNL    O14   39  -0.526   0.322  -0.016
    1UNL    C26   40  -0.621   0.046  -0.156
    1UNL    C27   41  -0.552  -0.073  -0.211
    1UNL    C28   42  -0.429  -0.089  -0.123
    1UNL     H1   43  -0.286  -0.287  -0.543
    1UNL     H2   44  -0.148  -0.204  -0.487
    1UNL     H3   45  -0.265  -0.111  -0.561
    1UNL     H4   46  -0.146   0.128  -0.174
    1UNL     H5   47  -0.371   0.111   0.164
    1UNL     H6   48  -0.107   0.088   0.081
    1UNL     H7   49  -0.101   0.252   0.435
    1UNL     H8   50  -0.036   0.330   0.216
    1UNL     H9   51   0.104   0.330   0.322
    1UNL    H10   52   0.159   0.080  -0.118
    1UNL    H11   53   0.359   0.134   0.105
    1UNL    H12   54   0.284  -0.086  -0.170
    1UNL    H13   55   0.465  -0.412  -0.427
    1UNL    H14   56   0.511  -0.449  -0.260
    1UNL    H15   57   0.609  -0.332  -0.357
    1UNL    H16   58   0.780  -0.242  -0.162
    1UNL    H17   59   0.818   0.081   0.090
    1UNL    H18   60   0.951   0.027  -0.023
    1UNL    H19   61   0.807   0.093  -0.090
    1UNL    H20   62   0.591   0.062   0.090
    1UNL    H21   63   0.116   0.085   0.409
    1UNL    H22   64   0.067  -0.008   0.610
    1UNL    H23   65  -0.122  -0.100   0.411
    1UNL    H24   66   0.083  -0.246   0.340
    1UNL    H25   67   0.074  -0.056   0.181
    1UNL    H26   68  -0.152  -0.208   0.161
    1UNL    H27   69  -0.518  -0.083   0.071
    1UNL    H28   70  -0.605   0.220   0.137
    1UNL    H29   71  -0.718   0.258   0.013
    1UNL    H30   72  -0.442   0.275  -0.029
    1UNL    H31   73  -0.696   0.108  -0.203
    1UNL    H32   74  -0.519  -0.060  -0.315
    1UNL    H33   75  -0.624  -0.159  -0.215
    1UNL    H34   76  -0.412  -0.199  -0.106
   0.00000   0.00000   0.00000   0.00000   0.00000   0.00000   0.00000   0.00000   0.00000
Generated with MDTraj, t= 39.0
 76
    1UNL     C1    1  -0.202  -0.185  -0.474
    1UNL     O1    2  -0.273  -0.172  -0.355
    1UNL     C2    3  -0.217  -0.061  -0.293
    1UNL     O2    4  -0.116  -0.007  -0.333
    1UNL     C3    5  -0.284  -0.013  -0.172
    1UNL     C4    6  -0.243   0.098  -0.104
    1UNL     O3    7  -0.294   0.157   0.007
    1UNL     C5    8  -0.353   0.052   0.090
    1UNL     O4    9  -0.260  -0.032   0.142
    1UNL     C6   10  -0.147   0.040   0.186
    1UNL     O5   11  -0.178   0.125   0.300
    1UNL     C7   12  -0.065   0.187   0.360
    1UNL     C8   13   0.005   0.270   0.253
    1UNL     O6   14   0.111   0.197   0.187
    1UNL     C9   15   0.091   0.196   0.045
    1UNL     O7   16  -0.000   0.244  -0.014
    1UNL    C10   17   0.193   0.118  -0.024
    1UNL    C11   18   0.295   0.053   0.035
    1UNL    C12   19   0.414  -0.010  -0.042
    1UNL    C13   20   0.387  -0.067  -0.165
    1UNL    C14   21   0.473  -0.161  -0.217
    1UNL     O8   22   0.426  -0.237  -0.328
    1UNL    C15   23   0.489  -0.361  -0.356
    1UNL    C16   24   0.595  -0.175  -0.162
    1UNL     O9   25   0.687  -0.266  -0.206
    1UNL    C17   26   0.634  -0.093  -0.054
    1UNL    O10   27   0.772  -0.108  -0.012
    1UNL    C18   28   0.837   0.009   0.029
    1UNL    C19   29   0.536  -0.020   0.012
    1UNL    C20   30   0.027   0.082   0.431
    1UNL    O11   31   0.008   0.071   0.572
    1UNL    C21   32   0.001  -0.058   0.371
    1UNL    O12   33   0.118  -0.138   0.398
    1UNL    C22   34  -0.035  -0.066   0.216
    1UNL    O13   35  -0.058  -0.199   0.183
    1UNL    C23   36  -0.460  -0.026   0.014
    1UNL    C24   37  -0.562   0.076  -0.047
    1UNL    C25   38  -0.613   0.202   0.015
    1UNL    O14   39  -0.532   0.308  -0.020
    1UNL    C26   40  -0.609   0.042  -0.168
    1UNL    C27   41  -0.524  -0.065  -0.221
    1UNL    C28   42  -0.409  -0.091  -0.120
    1UNL     H1   43  -0.263  -0.230  -0.550
    1UNL     H2   44  -0.111  -0.235  -0.467
    1UNL     H3   45  -0.181  -0.082  -0.500
    1UNL     H4   46  -0.151   0.145  -0.149
    1UNL     H5   47  -0.387   0.110   0.178
    1UNL     H6   48  -0.133   0.101   0.096
    1UNL     H7   49  -0.111   0.248   0.441
    1UNL     H8   50  -0.065   0.310   0.171
    1UNL     H9   51   0.046   0.356   0.309
    1UNL    H10   52   0.193   0.114  -0.130
    1UNL    H11   53   0.293   0.032   0.143
    1UNL    H12   54   0.294  -0.061  -0.208
    1UNL    H13   55   0.420  -0.410  -0.424
    1UNL    H14   56   0.519  -0.420  -0.268
    1UNL    H15   57   0.577  -0.336  -0.423
    1UNL    H16   58   0.772  -0.242  -0.154
    1UNL    H17   59   0.754   0.065   0.074
    1UNL    H18   60   0.921  -0.002   0.097
    1UNL    H19   61   0.876   0.063  -0.060
    1UNL    H20   62   0.564   0.037   0.097
    1UNL    H21   63   0.131   0.106   0.416
    1UNL    H22   64   0.065  -0.005   0.604
    1UNL    H23   65  -0.082  -0.101   0.421
    1UNL    H24   66   0.093  -0.216   0.347
    1UNL    H25   67   0.070  -0.045   0.173
    1UNL    H26   68  -0.131  -0.199   0.113
    1UNL    H27   69  -0.513  -0.095   0.073
    1UNL    H28   70  -0.630   0.206   0.125
    1UNL    H29   71  -0.711   0.221  -0.033
    1UNL    H30   72  -0.436   0.275  -0.022
    1UNL    H31   73  -0.704   0.070  -0.212
    1UNL    H32   74  -0.502  -0.047  -0.329
    1UNL    H33   75  -0.579  -0.162  -0.225
    1UNL    H34   76  -0.396  -0.199  -0.092
   0.00000   0.00000   0.00000   0.00000   0.00000   0.00000   0.00000   0.00000   0.00000
Generated with MDTraj, t= 40.0
 76
    1UNL     C1    1  -0.144  -0.197  -0.424
    1UNL     O1    2  -0.243  -0.159  -0.338
    1UNL     C2    3  -0.193  -0.044  -0.276
    1UNL     O2    4  -0.093   0.016  -0.308
    1UNL     C3    5  -0.268   0.005  -0.161
    1UNL     C4    6  -0.239   0.124  -0.098
    1UNL     O3    7  -0.302   0.167   0.018
    1UNL     C5    8  -0.358   0.052   0.093
    1UNL     O4    9  -0.258  -0.042   0.142
    1UNL     C6   10  -0.147   0.030   0.187
    1UNL     O5   11  -0.185   0.108   0.292
    1UNL     C7   12  -0.075   0.190   0.342
    1UNL     C8   13   0.004   0.275   0.235
    1UNL     O6   14   0.116   0.197   0.179
    1UNL     C9   15   0.092   0.183   0.048
    1UNL     O7   16   0.004   0.233  -0.015
    1UNL    C10   17   0.178   0.097  -0.027
    1UNL    C11   18   0.301   0.077   0.018
    1UNL    C12   19   0.397  -0.017  -0.046
    1UNL    C13   20   0.363  -0.085  -0.161
    1UNL    C14   21   0.456  -0.166  -0.226
    1UNL     O8   22   0.417  -0.218  -0.351
    1UNL    C15   23   0.475  -0.345  -0.389
    1UNL    C16   24   0.585  -0.176  -0.169
    1UNL     O9   25   0.688  -0.239  -0.238
    1UNL    C17   26   0.605  -0.122  -0.042
    1UNL    O10   27   0.731  -0.136   0.008
    1UNL    C18   28   0.792  -0.022   0.055
    1UNL    C19   29   0.515  -0.037   0.016
    1UNL    C20   30   0.027   0.093   0.415
    1UNL    O11   31   0.027   0.117   0.551
    1UNL    C21   32   0.005  -0.057   0.375
    1UNL    O12   33   0.129  -0.123   0.398
    1UNL    C22   34  -0.030  -0.068   0.221
    1UNL    O13   35  -0.046  -0.206   0.188
    1UNL    C23   36  -0.457  -0.021   0.002
    1UNL    C24   37  -0.573   0.058  -0.062
    1UNL    C25   38  -0.636   0.185   0.003
    1UNL    O14   39  -0.558   0.307   0.026
    1UNL    C26   40  -0.582   0.030  -0.191
    1UNL    C27   41  -0.491  -0.082  -0.231
    1UNL    C28   42  -0.382  -0.082  -0.117
    1UNL     H1   43  -0.155  -0.300  -0.463
    1UNL     H2   44  -0.045  -0.189  -0.378
    1UNL     H3   45  -0.149  -0.120  -0.507
    1UNL     H4   46  -0.163   0.192  -0.136
    1UNL     H5   47  -0.412   0.090   0.178
    1UNL     H6   48  -0.137   0.085   0.095
    1UNL     H7   49  -0.131   0.248   0.417
    1UNL     H8   50  -0.070   0.304   0.151
    1UNL     H9   51   0.053   0.364   0.276
    1UNL    H10   52   0.138   0.046  -0.115
    1UNL    H11   53   0.337   0.119   0.107
    1UNL    H12   54   0.268  -0.071  -0.211
    1UNL    H13   55   0.462  -0.355  -0.499
    1UNL    H14   56   0.431  -0.425  -0.333
    1UNL    H15   57   0.586  -0.343  -0.373
    1UNL    H16   58   0.765  -0.230  -0.180
    1UNL    H17   59   0.753  -0.008   0.158
    1UNL    H18   60   0.899  -0.042   0.056
    1UNL    H19   61   0.774   0.067  -0.007
    1UNL    H20   62   0.552   0.018   0.104
    1UNL    H21   63   0.128   0.112   0.383
    1UNL    H22   64   0.093   0.062   0.600
    1UNL    H23   65  -0.073  -0.095   0.438
    1UNL    H24   66   0.115  -0.219   0.372
    1UNL    H25   67   0.066  -0.034   0.164
    1UNL    H26   68  -0.140  -0.216   0.203
    1UNL    H27   69  -0.502  -0.105   0.047
    1UNL    H28   70  -0.655   0.147   0.104
    1UNL    H29   71  -0.733   0.216  -0.035
    1UNL    H30   72  -0.466   0.281   0.036
    1UNL    H31   73  -0.654   0.079  -0.255
    1UNL    H32   74  -0.437  -0.068  -0.329
    1UNL    H33   75  -0.555  -0.171  -0.243
    1UNL    H34   76  -0.335  -0.182  -0.095
   0.00000   0.00000   0.00000   0.00000   0.00000   0.00000   0.00000   0.00000   0.00000
Generated with MDTraj, t= 41.0
 76
    1UNL     C1    1  -0.065  -0.177  -0.407
    1UNL     O1    2  -0.168  -0.171  -0.315
    1UNL     C2    3  -0.155  -0.048  -0.255
    1UNL     O2    4  -0.059   0.025  -0.276
    1UNL     C3    5  -0.260  -0.009  -0.164
    1UNL     C4    6  -0.238   0.111  -0.102
    1UNL     O3    7  -0.310   0.162   0.003
    1UNL     C5    8  -0.353   0.056   0.085
    1UNL     O4    9  -0.257  -0.036   0.131
    1UNL     C6   10  -0.155   0.041   0.194
    1UNL     O5   11  -0.179   0.135   0.299
    1UNL     C7   12  -0.054   0.198   0.342
    1UNL     C8   13   0.012   0.283   0.233
    1UNL     O6   14   0.101   0.204   0.157
    1UNL     C9   15   0.080   0.211   0.024
    1UNL     O7   16  -0.008   0.278  -0.027
    1UNL    C10   17   0.169   0.125  -0.055
    1UNL    C11   18   0.262   0.050  -0.001
    1UNL    C12   19   0.366  -0.029  -0.060
    1UNL    C13   20   0.342  -0.086  -0.182
    1UNL    C14   21   0.443  -0.153  -0.250
    1UNL     O8   22   0.420  -0.202  -0.378
    1UNL    C15   23   0.488  -0.324  -0.409
    1UNL    C16   24   0.564  -0.180  -0.183
    1UNL     O9   25   0.668  -0.253  -0.230
    1UNL    C17   26   0.591  -0.129  -0.051
    1UNL    O10   27   0.725  -0.155  -0.013
    1UNL    C18   28   0.769  -0.079   0.102
    1UNL    C19   29   0.492  -0.056   0.015
    1UNL    C20   30   0.048   0.103   0.413
    1UNL    O11   31   0.050   0.123   0.547
    1UNL    C21   32   0.003  -0.042   0.381
    1UNL    O12   33   0.094  -0.137   0.430
    1UNL    C22   34  -0.037  -0.053   0.232
    1UNL    O13   35  -0.064  -0.194   0.214
    1UNL    C23   36  -0.451  -0.035   0.002
    1UNL    C24   37  -0.575   0.039  -0.050
    1UNL    C25   38  -0.639   0.139   0.043
    1UNL    O14   39  -0.574   0.270   0.038
    1UNL    C26   40  -0.592   0.025  -0.182
    1UNL    C27   41  -0.481  -0.054  -0.243
    1UNL    C28   42  -0.378  -0.085  -0.131
    1UNL     H1   43  -0.072  -0.269  -0.472
    1UNL     H2   44   0.035  -0.181  -0.355
    1UNL     H3   45  -0.072  -0.083  -0.474
    1UNL     H4   46  -0.153   0.170  -0.119
    1UNL     H5   47  -0.405   0.089   0.171
    1UNL     H6   48  -0.139   0.105   0.108
    1UNL     H7   49  -0.083   0.276   0.416
    1UNL     H8   50  -0.064   0.320   0.160
    1UNL     H9   51   0.063   0.373   0.269
    1UNL    H10   52   0.159   0.129  -0.161
    1UNL    H11   53   0.290   0.057   0.106
    1UNL    H12   54   0.249  -0.060  -0.239
    1UNL    H13   55   0.401  -0.393  -0.428
    1UNL    H14   56   0.546  -0.356  -0.327
    1UNL    H15   57   0.541  -0.317  -0.504
    1UNL    H16   58   0.740  -0.252  -0.167
    1UNL    H17   59   0.771  -0.138   0.194
    1UNL    H18   60   0.860  -0.025   0.080
    1UNL    H19   61   0.697   0.001   0.123
    1UNL    H20   62   0.510  -0.010   0.107
    1UNL    H21   63   0.145   0.120   0.370
    1UNL    H22   64   0.113   0.071   0.600
    1UNL    H23   65  -0.090  -0.053   0.435
    1UNL    H24   66   0.070  -0.225   0.393
    1UNL    H25   67   0.051  -0.033   0.156
    1UNL    H26   68  -0.134  -0.199   0.142
    1UNL    H27   69  -0.484  -0.116   0.063
    1UNL    H28   70  -0.651   0.104   0.145
    1UNL    H29   71  -0.736   0.152   0.002
    1UNL    H30   72  -0.476   0.247   0.041
    1UNL    H31   73  -0.673   0.059  -0.243
    1UNL    H32   74  -0.435   0.013  -0.323
    1UNL    H33   75  -0.524  -0.145  -0.290
    1UNL    H34   76  -0.337  -0.189  -0.127
   0.00000   0.00000   0.00000   0.00000   0.00000   0.00000   0.00000   0.00000   0.00000
Generated with MDTraj, t= 42.0
 76
    1UNL     C1    1  -0.021  -0.196  -0.366
    1UNL     O1    2  -0.142  -0.153  -0.316
    1UNL     C2    3  -0.119  -0.043  -0.237
    1UNL     O2    4  -0.012   0.012  -0.244
    1UNL     C3    5  -0.226   0.007  -0.152
    1UNL     C4    6  -0.218   0.126  -0.093
    1UNL     O3    7  -0.289   0.158   0.017
    1UNL     C5    8  -0.342   0.041   0.077
    1UNL     O4    9  -0.249  -0.044   0.144
    1UNL     C6   10  -0.142   0.037   0.187
    1UNL     O5   11  -0.180   0.144   0.284
    1UNL     C7   12  -0.064   0.218   0.330
    1UNL     C8   13   0.018   0.290   0.226
    1UNL     O6   14   0.087   0.198   0.152
    1UNL     C9   15   0.088   0.230   0.018
    1UNL     O7   16   0.020   0.326  -0.026
    1UNL    C10   17   0.161   0.133  -0.067
    1UNL    C11   18   0.259   0.057  -0.010
    1UNL    C12   19   0.355  -0.026  -0.082
    1UNL    C13   20   0.343  -0.060  -0.214
    1UNL    C14   21   0.437  -0.144  -0.271
    1UNL     O8   22   0.394  -0.194  -0.400
    1UNL    C15   23   0.461  -0.308  -0.443
    1UNL    C16   24   0.560  -0.186  -0.201
    1UNL     O9   25   0.663  -0.269  -0.252
    1UNL    C17   26   0.575  -0.137  -0.071
    1UNL    O10   27   0.688  -0.161   0.004
    1UNL    C18   28   0.676  -0.126   0.141
    1UNL    C19   29   0.471  -0.065  -0.013
    1UNL    C20   30   0.039   0.122   0.406
    1UNL    O11   31   0.052   0.138   0.542
    1UNL    C21   32  -0.007  -0.031   0.392
    1UNL    O12   33   0.067  -0.128   0.462
    1UNL    C22   34  -0.036  -0.057   0.251
    1UNL    O13   35  -0.063  -0.190   0.233
    1UNL    C23   36  -0.433  -0.044  -0.016
    1UNL    C24   37  -0.568   0.017  -0.051
    1UNL    C25   38  -0.648   0.095   0.049
    1UNL    O14   39  -0.613   0.230   0.059
    1UNL    C26   40  -0.579   0.019  -0.183
    1UNL    C27   41  -0.458  -0.047  -0.247
    1UNL    C28   42  -0.351  -0.075  -0.144
    1UNL     H1   43  -0.037  -0.291  -0.420
    1UNL     H2   44   0.043  -0.219  -0.279
    1UNL     H3   45   0.024  -0.120  -0.437
    1UNL     H4   46  -0.133   0.188  -0.119
    1UNL     H5   47  -0.396   0.079   0.158
    1UNL     H6   48  -0.092   0.087   0.105
    1UNL     H7   49  -0.096   0.292   0.407
    1UNL     H8   50  -0.038   0.359   0.164
    1UNL     H9   51   0.095   0.351   0.267
    1UNL    H10   52   0.136   0.131  -0.173
    1UNL    H11   53   0.279   0.072   0.093
    1UNL    H12   54   0.258  -0.031  -0.259
    1UNL    H13   55   0.417  -0.388  -0.375
    1UNL    H14   56   0.562  -0.296  -0.420
    1UNL    H15   57   0.439  -0.337  -0.545
    1UNL    H16   58   0.742  -0.274  -0.188
    1UNL    H17   59   0.575  -0.149   0.176
    1UNL    H18   60   0.755  -0.179   0.192
    1UNL    H19   61   0.694  -0.020   0.158
    1UNL    H20   62   0.481  -0.020   0.086
    1UNL    H21   63   0.139   0.116   0.359
    1UNL    H22   64   0.108   0.071   0.583
    1UNL    H23   65  -0.105  -0.039   0.442
    1UNL    H24   66   0.047  -0.213   0.416
    1UNL    H25   67   0.074  -0.051   0.211
    1UNL    H26   68  -0.158  -0.207   0.220
    1UNL    H27   69  -0.448  -0.130   0.045
    1UNL    H28   70  -0.620   0.053   0.144
    1UNL    H29   71  -0.750   0.077   0.026
    1UNL    H30   72  -0.518   0.245   0.069
    1UNL    H31   73  -0.668   0.046  -0.239
    1UNL    H32   74  -0.432   0.030  -0.329
    1UNL    H33   75  -0.496  -0.141  -0.294
    1UNL    H34   76  -0.330  -0.184  -0.147
   0.00000   0.00000   0.00000   0.00000   0.00000   0.00000   0.00000   0.00000   0.00000
Generated with MDTraj, t= 43.0
 76
    1UNL     C1    1  -0.009  -0.210  -0.353
    1UNL     O1    2  -0.117  -0.159  -0.287
    1UNL     C2    3  -0.090  -0.041  -0.230
    1UNL     O2    4   0.018   0.013  -0.244
    1UNL     C3    5  -0.211   0.009  -0.155
    1UNL     C4    6  -0.207   0.122  -0.084
    1UNL     O3    7  -0.281   0.148   0.022
    1UNL     C5    8  -0.334   0.029   0.081
    1UNL     O4    9  -0.223  -0.046   0.131
    1UNL     C6   10  -0.127   0.033   0.193
    1UNL     O5   11  -0.176   0.133   0.284
    1UNL     C7   12  -0.071   0.212   0.336
    1UNL     C8   13   0.002   0.289   0.229
    1UNL     O6   14   0.075   0.212   0.137
    1UNL     C9   15   0.084   0.264   0.011
    1UNL     O7   16   0.009   0.355  -0.030
    1UNL    C10   17   0.175   0.193  -0.078
    1UNL    C11   18   0.268   0.107  -0.024
    1UNL    C12   19   0.348  -0.000  -0.090
    1UNL    C13   20   0.329  -0.052  -0.219
    1UNL    C14   21   0.416  -0.139  -0.278
    1UNL     O8   22   0.394  -0.179  -0.414
    1UNL    C15   23   0.447  -0.297  -0.450
    1UNL    C16   24   0.532  -0.182  -0.213
    1UNL     O9   25   0.639  -0.264  -0.269
    1UNL    C17   26   0.540  -0.151  -0.076
    1UNL    O10   27   0.643  -0.227  -0.012
    1UNL    C18   28   0.655  -0.228   0.128
    1UNL    C19   29   0.451  -0.054  -0.014
    1UNL    C20   30   0.024   0.127   0.426
    1UNL    O11   31   0.019   0.179   0.551
    1UNL    C21   32  -0.005  -0.024   0.421
    1UNL    O12   33   0.090  -0.096   0.494
    1UNL    C22   34  -0.024  -0.062   0.273
    1UNL    O13   35  -0.062  -0.198   0.277
    1UNL    C23   36  -0.415  -0.052  -0.024
    1UNL    C24   37  -0.550   0.007  -0.071
    1UNL    C25   38  -0.659   0.062   0.023
    1UNL    O14   39  -0.628   0.188   0.077
    1UNL    C26   40  -0.550   0.029  -0.204
    1UNL    C27   41  -0.422  -0.039  -0.262
    1UNL    C28   42  -0.330  -0.079  -0.147
    1UNL     H1   43  -0.037  -0.289  -0.418
    1UNL     H2   44   0.052  -0.249  -0.274
    1UNL     H3   45   0.040  -0.137  -0.416
    1UNL     H4   46  -0.117   0.183  -0.113
    1UNL     H5   47  -0.390   0.062   0.161
    1UNL     H6   48  -0.070   0.091   0.123
    1UNL     H7   49  -0.110   0.282   0.412
    1UNL     H8   50  -0.068   0.343   0.171
    1UNL     H9   51   0.068   0.368   0.264
    1UNL    H10   52   0.162   0.194  -0.184
    1UNL    H11   53   0.266   0.109   0.086
    1UNL    H12   54   0.227  -0.028  -0.265
    1UNL    H13   55   0.481  -0.356  -0.361
    1UNL    H14   56   0.530  -0.271  -0.505
    1UNL    H15   57   0.368  -0.353  -0.497
    1UNL    H16   58   0.708  -0.293  -0.211
    1UNL    H17   59   0.553  -0.250   0.162
    1UNL    H18   60   0.736  -0.296   0.153
    1UNL    H19   61   0.682  -0.129   0.162
    1UNL    H20   62   0.466  -0.030   0.089
    1UNL    H21   63   0.129   0.142   0.390
    1UNL    H22   64   0.076   0.133   0.616
    1UNL    H23   65  -0.108  -0.023   0.471
    1UNL    H24   66   0.061  -0.191   0.481
    1UNL    H25   67   0.073  -0.046   0.212
    1UNL    H26   68  -0.083  -0.220   0.181
    1UNL    H27   69  -0.435  -0.145   0.023
    1UNL    H28   70  -0.681  -0.011   0.101
    1UNL    H29   71  -0.748   0.090  -0.032
    1UNL    H30   72  -0.536   0.219   0.059
    1UNL    H31   73  -0.634   0.063  -0.261
    1UNL    H32   74  -0.360   0.034  -0.326
    1UNL    H33   75  -0.464  -0.123  -0.324
    1UNL    H34   76  -0.306  -0.186  -0.161
   0.00000   0.00000   0.00000   0.00000   0.00000   0.00000   0.00000   0.00000   0.00000
Generated with MDTraj, t= 44.0
 76
    1UNL     C1    1   0.049  -0.198  -0.373
    1UNL     O1    2  -0.062  -0.175  -0.294
    1UNL     C2    3  -0.062  -0.051  -0.237
    1UNL     O2    4   0.031   0.025  -0.260
    1UNL     C3    5  -0.183  -0.018  -0.163
    1UNL     C4    6  -0.170   0.096  -0.089
    1UNL     O3    7  -0.269   0.134   0.001
    1UNL     C5    8  -0.317   0.022   0.077
    1UNL     O4    9  -0.222  -0.061   0.144
    1UNL     C6   10  -0.140   0.023   0.205
    1UNL     O5   11  -0.198   0.122   0.286
    1UNL     C7   12  -0.102   0.226   0.331
    1UNL     C8   13  -0.036   0.297   0.213
    1UNL     O6   14   0.077   0.225   0.163
    1UNL     C9   15   0.094   0.248   0.032
    1UNL     O7   16   0.047   0.345  -0.026
    1UNL    C10   17   0.179   0.170  -0.046
    1UNL    C11   18   0.266   0.083   0.006
    1UNL    C12   19   0.340  -0.003  -0.075
    1UNL    C13   20   0.317  -0.024  -0.209
    1UNL    C14   21   0.397  -0.111  -0.288
    1UNL     O8   22   0.358  -0.125  -0.424
    1UNL    C15   23   0.392  -0.250  -0.485
    1UNL    C16   24   0.497  -0.185  -0.215
    1UNL     O9   25   0.560  -0.287  -0.271
    1UNL    C17   26   0.532  -0.157  -0.084
    1UNL    O10   27   0.631  -0.234  -0.021
    1UNL    C18   28   0.590  -0.271   0.108
    1UNL    C19   29   0.446  -0.070  -0.010
    1UNL    C20   30   0.012   0.160   0.417
    1UNL    O11   31   0.010   0.219   0.540
    1UNL    C21   32  -0.008   0.007   0.433
    1UNL    O12   33   0.104  -0.056   0.498
    1UNL    C22   34  -0.025  -0.052   0.286
    1UNL    O13   35  -0.070  -0.192   0.299
    1UNL    C23   36  -0.387  -0.071  -0.022
    1UNL    C24   37  -0.520  -0.009  -0.061
    1UNL    C25   38  -0.628   0.040   0.019
    1UNL    O14   39  -0.600   0.174   0.072
    1UNL    C26   40  -0.525   0.029  -0.189
    1UNL    C27   41  -0.407  -0.034  -0.263
    1UNL    C28   42  -0.309  -0.092  -0.156
    1UNL     H1   43   0.060  -0.299  -0.392
    1UNL     H2   44   0.130  -0.165  -0.313
    1UNL     H3   45   0.037  -0.154  -0.469
    1UNL     H4   46  -0.076   0.154  -0.083
    1UNL     H5   47  -0.383   0.058   0.148
    1UNL     H6   48  -0.083   0.080   0.134
    1UNL     H7   49  -0.165   0.286   0.397
    1UNL     H8   50  -0.107   0.318   0.136
    1UNL     H9   51  -0.004   0.399   0.242
    1UNL    H10   52   0.173   0.170  -0.155
    1UNL    H11   53   0.280   0.075   0.113
    1UNL    H12   54   0.236   0.027  -0.254
    1UNL    H13   55   0.343  -0.339  -0.434
    1UNL    H14   56   0.496  -0.258  -0.465
    1UNL    H15   57   0.366  -0.260  -0.587
    1UNL    H16   58   0.626  -0.332  -0.207
    1UNL    H17   59   0.480  -0.281   0.100
    1UNL    H18   60   0.650  -0.359   0.130
    1UNL    H19   61   0.615  -0.187   0.172
    1UNL    H20   62   0.460  -0.050   0.095
    1UNL    H21   63   0.111   0.162   0.361
    1UNL    H22   64   0.059   0.164   0.606
    1UNL    H23   65  -0.107   0.001   0.492
    1UNL    H24   66   0.090  -0.151   0.513
    1UNL    H25   67   0.073  -0.056   0.228
    1UNL    H26   68  -0.167  -0.188   0.314
    1UNL    H27   69  -0.399  -0.167   0.021
    1UNL    H28   70  -0.629  -0.017   0.115
    1UNL    H29   71  -0.728   0.039  -0.025
    1UNL    H30   72  -0.508   0.207   0.051
    1UNL    H31   73  -0.609   0.076  -0.241
    1UNL    H32   74  -0.362   0.046  -0.328
    1UNL    H33   75  -0.438  -0.126  -0.323
    1UNL    H34   76  -0.279  -0.198  -0.168
   0.00000   0.00000   0.00000   0.00000   0.00000   0.00000   0.00000   0.00000   0.00000
Generated with MDTraj, t= 45.0
 76
    1UNL     C1    1   0.047  -0.190  -0.401
    1UNL     O1    2  -0.057  -0.177  -0.315
    1UNL     C2    3  -0.051  -0.050  -0.251
    1UNL     O2    4   0.032   0.034  -0.280
    1UNL     C3    5  -0.159  -0.015  -0.171
    1UNL     C4    6  -0.150   0.096  -0.093
    1UNL     O3    7  -0.249   0.121   0.002
    1UNL     C5    8  -0.289  -0.001   0.066
    1UNL     O4    9  -0.189  -0.068   0.149
    1UNL     C6   10  -0.122   0.023   0.224
    1UNL     O5   11  -0.199   0.122   0.291
    1UNL     C7   12  -0.124   0.238   0.343
    1UNL     C8   13  -0.053   0.309   0.224
    1UNL     O6   14   0.048   0.228   0.162
    1UNL     C9   15   0.083   0.271   0.031
    1UNL     O7   16   0.030   0.370  -0.019
    1UNL    C10   17   0.191   0.197  -0.036
    1UNL    C11   18   0.265   0.101   0.023
    1UNL    C12   19   0.336  -0.000  -0.059
    1UNL    C13   20   0.318  -0.001  -0.199
    1UNL    C14   21   0.370  -0.098  -0.286
    1UNL     O8   22   0.318  -0.114  -0.411
    1UNL    C15   23   0.392  -0.200  -0.494
    1UNL    C16   24   0.461  -0.180  -0.219
    1UNL     O9   25   0.518  -0.283  -0.289
    1UNL    C17   26   0.486  -0.186  -0.078
    1UNL    O10   27   0.587  -0.286  -0.045
    1UNL    C18   28   0.584  -0.342   0.084
    1UNL    C19   29   0.427  -0.095  -0.000
    1UNL    C20   30  -0.007   0.178   0.432
    1UNL    O11   31   0.015   0.246   0.557
    1UNL    C21   32  -0.005   0.027   0.451
    1UNL    O12   33   0.108  -0.016   0.537
    1UNL    C22   34  -0.018  -0.050   0.317
    1UNL    O13   35  -0.066  -0.182   0.352
    1UNL    C23   36  -0.361  -0.095  -0.039
    1UNL    C24   37  -0.499  -0.044  -0.075
    1UNL    C25   38  -0.593   0.035   0.015
    1UNL    O14   39  -0.552   0.176   0.041
    1UNL    C26   40  -0.511  -0.023  -0.207
    1UNL    C27   41  -0.388  -0.069  -0.281
    1UNL    C28   42  -0.282  -0.100  -0.174
    1UNL     H1   43   0.059  -0.292  -0.429
    1UNL     H2   44   0.131  -0.156  -0.339
    1UNL     H3   45   0.026  -0.140  -0.495
    1UNL     H4   46  -0.069   0.162  -0.085
    1UNL     H5   47  -0.353   0.028   0.142
    1UNL     H6   48  -0.063   0.083   0.154
    1UNL     H7   49  -0.197   0.295   0.401
    1UNL     H8   50  -0.130   0.340   0.153
    1UNL     H9   51  -0.013   0.410   0.258
    1UNL    H10   52   0.211   0.213  -0.138
    1UNL    H11   53   0.259   0.080   0.129
    1UNL    H12   54   0.243   0.053  -0.247
    1UNL    H13   55   0.395  -0.307  -0.454
    1UNL    H14   56   0.494  -0.163  -0.489
    1UNL    H15   57   0.344  -0.209  -0.589
    1UNL    H16   58   0.571  -0.341  -0.234
    1UNL    H17   59   0.490  -0.403   0.082
    1UNL    H18   60   0.679  -0.394   0.095
    1UNL    H19   61   0.576  -0.259   0.154
    1UNL    H20   62   0.426  -0.100   0.107
    1UNL    H21   63   0.086   0.201   0.371
    1UNL    H22   64   0.063   0.195   0.626
    1UNL    H23   65  -0.105   0.007   0.505
    1UNL    H24   66   0.101  -0.110   0.553
    1UNL    H25   67   0.083  -0.068   0.273
    1UNL    H26   68  -0.149  -0.201   0.301
    1UNL    H27   69  -0.357  -0.194  -0.001
    1UNL    H28   70  -0.622  -0.015   0.112
    1UNL    H29   71  -0.691   0.050  -0.034
    1UNL    H30   72  -0.455   0.176   0.031
    1UNL    H31   73  -0.594   0.029  -0.250
    1UNL    H32   74  -0.349   0.008  -0.352
    1UNL    H33   75  -0.417  -0.164  -0.338
    1UNL    H34   76  -0.242  -0.201  -0.195
   0.00000   0.00000   0.00000   0.00000   0.00000   0.00000   0.00000   0.00000   0.00000
Generated with MDTraj, t= 46.0
 76
    1UNL     C1    1   0.018  -0.159  -0.448
    1UNL     O1    2  -0.080  -0.150  -0.353
    1UNL     C2    3  -0.059  -0.037  -0.282
    1UNL     O2    4   0.021   0.052  -0.302
    1UNL     C3    5  -0.153  -0.027  -0.167
    1UNL     C4    6  -0.150   0.077  -0.085
    1UNL     O3    7  -0.219   0.109   0.020
    1UNL     C5    8  -0.269  -0.008   0.083
    1UNL     O4    9  -0.167  -0.077   0.145
    1UNL     C6   10  -0.097   0.017   0.223
    1UNL     O5   11  -0.184   0.122   0.285
    1UNL     C7   12  -0.107   0.232   0.336
    1UNL     C8   13  -0.040   0.313   0.227
    1UNL     O6   14   0.069   0.248   0.180
    1UNL     C9   15   0.098   0.288   0.047
    1UNL     O7   16   0.047   0.379  -0.010
    1UNL    C10   17   0.194   0.209  -0.025
    1UNL    C11   18   0.234   0.089   0.021
    1UNL    C12   19   0.299  -0.014  -0.067
    1UNL    C13   20   0.276  -0.024  -0.209
    1UNL    C14   21   0.360  -0.101  -0.287
    1UNL     O8   22   0.330  -0.081  -0.422
    1UNL    C15   23   0.413  -0.144  -0.517
    1UNL    C16   24   0.447  -0.197  -0.232
    1UNL     O9   25   0.498  -0.295  -0.308
    1UNL    C17   26   0.459  -0.194  -0.091
    1UNL    O10   27   0.539  -0.297  -0.031
    1UNL    C18   28   0.503  -0.333   0.106
    1UNL    C19   29   0.392  -0.100  -0.016
    1UNL    C20   30  -0.002   0.185   0.435
    1UNL    O11   31  -0.019   0.269   0.553
    1UNL    C21   32  -0.022   0.042   0.472
    1UNL    O12   33   0.080  -0.005   0.563
    1UNL    C22   34  -0.024  -0.049   0.351
    1UNL    O13   35  -0.060  -0.182   0.377
    1UNL    C23   36  -0.337  -0.107  -0.016
    1UNL    C24   37  -0.455  -0.041  -0.075
    1UNL    C25   38  -0.560   0.050  -0.015
    1UNL    O14   39  -0.523   0.184   0.010
    1UNL    C26   40  -0.457  -0.072  -0.206
    1UNL    C27   41  -0.344  -0.159  -0.246
    1UNL    C28   42  -0.243  -0.147  -0.134
    1UNL     H1   43   0.023  -0.257  -0.498
    1UNL     H2   44   0.112  -0.140  -0.388
    1UNL     H3   45   0.000  -0.087  -0.531
    1UNL     H4   46  -0.070   0.145  -0.105
    1UNL     H5   47  -0.335   0.026   0.154
    1UNL     H6   48  -0.041   0.080   0.155
    1UNL     H7   49  -0.180   0.291   0.394
    1UNL     H8   50  -0.118   0.344   0.153
    1UNL     H9   51  -0.015   0.417   0.270
    1UNL    H10   52   0.228   0.242  -0.123
    1UNL    H11   53   0.213   0.059   0.122
    1UNL    H12   54   0.186   0.023  -0.258
    1UNL    H13   55   0.391  -0.255  -0.528
    1UNL    H14   56   0.518  -0.134  -0.481
    1UNL    H15   57   0.389  -0.104  -0.613
    1UNL    H16   58   0.542  -0.360  -0.246
    1UNL    H17   59   0.393  -0.323   0.118
    1UNL    H18   60   0.539  -0.435   0.117
    1UNL    H19   61   0.560  -0.265   0.169
    1UNL    H20   62   0.401  -0.091   0.091
    1UNL    H21   63   0.105   0.196   0.403
    1UNL    H22   64   0.039   0.231   0.621
    1UNL    H23   65  -0.122   0.027   0.523
    1UNL    H24   66   0.071  -0.103   0.560
    1UNL    H25   67   0.083  -0.046   0.325
    1UNL    H26   68  -0.134  -0.201   0.312
    1UNL    H27   69  -0.375  -0.191   0.037
    1UNL    H28   70  -0.592   0.007   0.084
    1UNL    H29   71  -0.651   0.056  -0.078
    1UNL    H30   72  -0.426   0.186   0.037
    1UNL    H31   73  -0.542  -0.058  -0.272
    1UNL    H32   74  -0.296  -0.126  -0.342
    1UNL    H33   75  -0.385  -0.265  -0.266
    1UNL    H34   76  -0.186  -0.239  -0.123
   0.00000   0.00000   0.00000   0.00000   0.00000   0.00000   0.00000   0.00000   0.00000
Generated with MDTraj, t= 47.0
 76
    1UNL     C1    1  -0.004  -0.104  -0.495
    1UNL     O1    2  -0.065  -0.141  -0.376
    1UNL     C2    3  -0.058  -0.035  -0.294
    1UNL     O2    4  -0.016   0.075  -0.326
    1UNL     C3    5  -0.130  -0.045  -0.161
    1UNL     C4    6  -0.145   0.074  -0.102
    1UNL     O3    7  -0.200   0.105   0.012
    1UNL     C5    8  -0.246  -0.016   0.083
    1UNL     O4    9  -0.165  -0.074   0.186
    1UNL     C6   10  -0.098   0.029   0.257
    1UNL     O5   11  -0.178   0.140   0.310
    1UNL     C7   12  -0.094   0.248   0.359
    1UNL     C8   13  -0.017   0.319   0.240
    1UNL     O6   14   0.067   0.238   0.169
    1UNL     C9   15   0.090   0.301   0.044
    1UNL     O7   16   0.060   0.413   0.023
    1UNL    C10   17   0.146   0.214  -0.051
    1UNL    C11   18   0.217   0.106  -0.011
    1UNL    C12   19   0.273  -0.008  -0.086
    1UNL    C13   20   0.277  -0.006  -0.231
    1UNL    C14   21   0.352  -0.097  -0.298
    1UNL     O8   22   0.344  -0.099  -0.441
    1UNL    C15   23   0.467  -0.131  -0.510
    1UNL    C16   24   0.423  -0.199  -0.233
    1UNL     O9   25   0.492  -0.296  -0.305
    1UNL    C17   26   0.414  -0.208  -0.094
    1UNL    O10   27   0.473  -0.324  -0.042
    1UNL    C18   28   0.468  -0.351   0.099
    1UNL    C19   29   0.338  -0.113  -0.025
    1UNL    C20   30   0.001   0.193   0.464
    1UNL    O11   31  -0.014   0.275   0.584
    1UNL    C21   32  -0.024   0.049   0.491
    1UNL    O12   33   0.047   0.001   0.605
    1UNL    C22   34  -0.013  -0.038   0.368
    1UNL    O13   35  -0.050  -0.174   0.394
    1UNL    C23   36  -0.316  -0.126  -0.012
    1UNL    C24   37  -0.442  -0.069  -0.082
    1UNL    C25   38  -0.523   0.045  -0.029
    1UNL    O14   39  -0.467   0.170  -0.057
    1UNL    C26   40  -0.453  -0.133  -0.200
    1UNL    C27   41  -0.326  -0.204  -0.228
    1UNL    C28   42  -0.218  -0.166  -0.122
    1UNL     H1   43  -0.016  -0.182  -0.575
    1UNL     H2   44   0.109  -0.094  -0.470
    1UNL     H3   45  -0.049  -0.010  -0.539
    1UNL     H4   46  -0.097   0.158  -0.158
    1UNL     H5   47  -0.323   0.026   0.137
    1UNL     H6   48  -0.036   0.080   0.180
    1UNL     H7   49  -0.165   0.323   0.400
    1UNL     H8   50  -0.093   0.373   0.182
    1UNL     H9   51   0.035   0.413   0.282
    1UNL    H10   52   0.123   0.231  -0.155
    1UNL    H11   53   0.241   0.097   0.094
    1UNL    H12   54   0.222   0.066  -0.285
    1UNL    H13   55   0.499  -0.236  -0.492
    1UNL    H14   56   0.549  -0.066  -0.465
    1UNL    H15   57   0.453  -0.124  -0.617
    1UNL    H16   58   0.517  -0.365  -0.240
    1UNL    H17   59   0.368  -0.385   0.130
    1UNL    H18   60   0.545  -0.427   0.114
    1UNL    H19   61   0.504  -0.262   0.149
    1UNL    H20   62   0.345  -0.116   0.082
    1UNL    H21   63   0.102   0.217   0.427
    1UNL    H22   64   0.025   0.214   0.651
    1UNL    H23   65  -0.131   0.036   0.522
    1UNL    H24   66   0.051  -0.100   0.613
    1UNL    H25   67   0.095  -0.043   0.348
    1UNL    H26   68  -0.139  -0.192   0.359
    1UNL    H27   69  -0.337  -0.211   0.048
    1UNL    H28   70  -0.539   0.041   0.083
    1UNL    H29   71  -0.624   0.043  -0.073
    1UNL    H30   72  -0.374   0.173  -0.028
    1UNL    H31   73  -0.540  -0.133  -0.264
    1UNL    H32   74  -0.301  -0.177  -0.334
    1UNL    H33   75  -0.338  -0.318  -0.229
    1UNL    H34   76  -0.153  -0.243  -0.080
   0.00000   0.00000   0.00000   0.00000   0.00000   0.00000   0.00000   0.00000   0.00000
Generated with MDTraj, t= 48.0
 76
    1UNL     C1    1  -0.000  -0.122  -0.489
    1UNL     O1    2  -0.090  -0.126  -0.386
    1UNL     C2    3  -0.056  -0.018  -0.298
    1UNL     O2    4   0.011   0.078  -0.338
    1UNL     C3    5  -0.119  -0.033  -0.168
    1UNL     C4    6  -0.129   0.082  -0.100
    1UNL     O3    7  -0.180   0.112   0.025
    1UNL     C5    8  -0.235  -0.001   0.089
    1UNL     O4    9  -0.158  -0.060   0.191
    1UNL     C6   10  -0.094   0.033   0.271
    1UNL     O5   11  -0.174   0.143   0.319
    1UNL     C7   12  -0.093   0.261   0.360
    1UNL     C8   13  -0.014   0.330   0.244
    1UNL     O6   14   0.069   0.243   0.182
    1UNL     C9   15   0.094   0.297   0.057
    1UNL     O7   16   0.042   0.400   0.021
    1UNL    C10   17   0.176   0.206  -0.034
    1UNL    C11   18   0.172   0.074  -0.022
    1UNL    C12   19   0.254  -0.014  -0.104
    1UNL    C13   20   0.276   0.005  -0.237
    1UNL    C14   21   0.344  -0.088  -0.318
    1UNL     O8   22   0.366  -0.074  -0.451
    1UNL    C15   23   0.488  -0.120  -0.502
    1UNL    C16   24   0.395  -0.198  -0.246
    1UNL     O9   25   0.452  -0.302  -0.319
    1UNL    C17   26   0.371  -0.222  -0.106
    1UNL    O10   27   0.419  -0.337  -0.046
    1UNL    C18   28   0.414  -0.320   0.095
    1UNL    C19   29   0.297  -0.131  -0.038
    1UNL    C20   30   0.002   0.203   0.476
    1UNL    O11   31  -0.002   0.277   0.603
    1UNL    C21   32  -0.027   0.058   0.510
    1UNL    O12   33   0.048   0.014   0.622
    1UNL    C22   34  -0.004  -0.033   0.382
    1UNL    O13   35  -0.047  -0.174   0.410
    1UNL    C23   36  -0.286  -0.120  -0.009
    1UNL    C24   37  -0.418  -0.100  -0.082
    1UNL    C25   38  -0.517   0.007  -0.049
    1UNL    O14   39  -0.469   0.135  -0.100
    1UNL    C26   40  -0.415  -0.163  -0.200
    1UNL    C27   41  -0.282  -0.210  -0.230
    1UNL    C28   42  -0.186  -0.156  -0.116
    1UNL     H1   43  -0.016  -0.212  -0.547
    1UNL     H2   44   0.104  -0.126  -0.443
    1UNL     H3   45  -0.018  -0.036  -0.555
    1UNL     H4   46  -0.085   0.176  -0.142
    1UNL     H5   47  -0.321   0.034   0.135
    1UNL     H6   48  -0.027   0.081   0.197
    1UNL     H7   49  -0.169   0.333   0.403
    1UNL     H8   50  -0.086   0.385   0.186
    1UNL     H9   51   0.040   0.416   0.291
    1UNL    H10   52   0.228   0.250  -0.114
    1UNL    H11   53   0.113   0.029   0.057
    1UNL    H12   54   0.240   0.100  -0.274
    1UNL    H13   55   0.474  -0.220  -0.541
    1UNL    H14   56   0.568  -0.124  -0.419
    1UNL    H15   57   0.515  -0.062  -0.589
    1UNL    H16   58   0.462  -0.376  -0.255
    1UNL    H17   59   0.311  -0.304   0.129
    1UNL    H18   60   0.460  -0.403   0.147
    1UNL    H19   61   0.476  -0.235   0.116
    1UNL    H20   62   0.265  -0.147   0.065
    1UNL    H21   63   0.104   0.225   0.447
    1UNL    H22   64   0.024   0.206   0.667
    1UNL    H23   65  -0.129   0.036   0.537
    1UNL    H24   66   0.055  -0.081   0.640
    1UNL    H25   67   0.096  -0.043   0.346
    1UNL    H26   68  -0.095  -0.210   0.330
    1UNL    H27   69  -0.287  -0.205   0.053
    1UNL    H28   70  -0.527   0.013   0.062
    1UNL    H29   71  -0.618  -0.004  -0.089
    1UNL    H30   72  -0.378   0.149  -0.058
    1UNL    H31   73  -0.504  -0.162  -0.260
    1UNL    H32   74  -0.250  -0.166  -0.328
    1UNL    H33   75  -0.287  -0.323  -0.252
    1UNL    H34   76  -0.106  -0.221  -0.080
   0.00000   0.00000   0.00000   0.00000   0.00000   0.00000   0.00000   0.00000   0.00000
Generated with MDTraj, t= 49.0
 76
    1UNL     C1    1   0.044  -0.106  -0.488
    1UNL     O1    2  -0.017  -0.146  -0.370
    1UNL     C2    3  -0.031  -0.029  -0.290
    1UNL     O2    4   0.012   0.081  -0.322
    1UNL     C3    5  -0.110  -0.036  -0.168
    1UNL     C4    6  -0.142   0.083  -0.111
    1UNL     O3    7  -0.196   0.111   0.012
    1UNL     C5    8  -0.227  -0.008   0.088
    1UNL     O4    9  -0.124  -0.053   0.168
    1UNL     C6   10  -0.079   0.043   0.257
    1UNL     O5   11  -0.172   0.140   0.298
    1UNL     C7   12  -0.099   0.256   0.363
    1UNL     C8   13  -0.039   0.339   0.255
    1UNL     O6   14   0.064   0.268   0.192
    1UNL     C9   15   0.092   0.315   0.068
    1UNL     O7   16   0.049   0.418   0.017
    1UNL    C10   17   0.155   0.216  -0.023
    1UNL    C11   18   0.171   0.086  -0.002
    1UNL    C12   19   0.236  -0.013  -0.089
    1UNL    C13   20   0.268   0.013  -0.215
    1UNL    C14   21   0.335  -0.081  -0.299
    1UNL     O8   22   0.391  -0.038  -0.428
    1UNL    C15   23   0.469  -0.125  -0.500
    1UNL    C16   24   0.367  -0.207  -0.252
    1UNL     O9   25   0.434  -0.302  -0.328
    1UNL    C17   26   0.329  -0.241  -0.119
    1UNL    O10   27   0.374  -0.364  -0.076
    1UNL    C18   28   0.392  -0.370   0.057
    1UNL    C19   29   0.258  -0.150  -0.041
    1UNL    C20   30   0.010   0.205   0.469
    1UNL    O11   31  -0.011   0.297   0.579
    1UNL    C21   32  -0.024   0.063   0.507
    1UNL    O12   33   0.078   0.022   0.590
    1UNL    C22   34  -0.013  -0.033   0.378
    1UNL    O13   35  -0.068  -0.159   0.415
    1UNL    C23   36  -0.273  -0.129  -0.005
    1UNL    C24   37  -0.400  -0.106  -0.077
    1UNL    C25   38  -0.514  -0.014  -0.044
    1UNL    O14   39  -0.487   0.127  -0.052
    1UNL    C26   40  -0.392  -0.161  -0.199
    1UNL    C27   41  -0.258  -0.219  -0.220
    1UNL    C28   42  -0.164  -0.159  -0.110
    1UNL     H1   43   0.036  -0.185  -0.557
    1UNL     H2   44   0.151  -0.088  -0.475
    1UNL     H3   45  -0.008  -0.023  -0.526
    1UNL     H4   46  -0.110   0.173  -0.156
    1UNL     H5   47  -0.301   0.022   0.159
    1UNL     H6   48   0.008   0.094   0.202
    1UNL     H7   49  -0.181   0.300   0.423
    1UNL     H8   50  -0.117   0.375   0.191
    1UNL     H9   51  -0.004   0.431   0.303
    1UNL    H10   52   0.157   0.263  -0.124
    1UNL    H11   53   0.148   0.053   0.094
    1UNL    H12   54   0.263   0.116  -0.251
    1UNL    H13   55   0.409  -0.208  -0.531
    1UNL    H14   56   0.561  -0.162  -0.439
    1UNL    H15   57   0.496  -0.076  -0.591
    1UNL    H16   58   0.443  -0.381  -0.267
    1UNL    H17   59   0.294  -0.393   0.104
    1UNL    H18   60   0.465  -0.448   0.076
    1UNL    H19   61   0.434  -0.279   0.097
    1UNL    H20   62   0.232  -0.181   0.058
    1UNL    H21   63   0.110   0.229   0.439
    1UNL    H22   64   0.030   0.246   0.650
    1UNL    H23   65  -0.114   0.047   0.562
    1UNL    H24   66   0.080  -0.072   0.606
    1UNL    H25   67   0.089  -0.038   0.354
    1UNL    H26   68  -0.113  -0.201   0.340
    1UNL    H27   69  -0.287  -0.211   0.060
    1UNL    H28   70  -0.556  -0.032   0.056
    1UNL    H29   71  -0.592  -0.034  -0.115
    1UNL    H30   72  -0.395   0.140  -0.028
    1UNL    H31   73  -0.461  -0.165  -0.282
    1UNL    H32   74  -0.215  -0.216  -0.326
    1UNL    H33   75  -0.262  -0.329  -0.192
    1UNL    H34   76  -0.078  -0.223  -0.088
   0.00000   0.00000   0.00000   0.00000   0.00000   0.00000   0.00000   0.00000   0.00000
Generated with MDTraj, t= 50.0
 76
    1UNL     C1    1   0.103  -0.124  -0.446
    1UNL     O1    2   0.023  -0.145  -0.333
    1UNL     C2    3  -0.015  -0.023  -0.278
    1UNL     O2    4   0.018   0.084  -0.320
    1UNL     C3    5  -0.113  -0.016  -0.164
    1UNL     C4    6  -0.137   0.098  -0.097
    1UNL     O3    7  -0.207   0.097   0.018
    1UNL     C5    8  -0.223  -0.033   0.085
    1UNL     O4    9  -0.126  -0.076   0.170
    1UNL     C6   10  -0.077   0.034   0.252
    1UNL     O5   11  -0.173   0.131   0.292
    1UNL     C7   12  -0.107   0.256   0.339
    1UNL     C8   13  -0.043   0.336   0.228
    1UNL     O6   14   0.058   0.259   0.177
    1UNL     C9   15   0.091   0.311   0.054
    1UNL     O7   16   0.041   0.416   0.012
    1UNL    C10   17   0.168   0.223  -0.027
    1UNL    C11   18   0.206   0.102   0.014
    1UNL    C12   19   0.274   0.002  -0.066
    1UNL    C13   20   0.317   0.027  -0.193
    1UNL    C14   21   0.351  -0.070  -0.281
    1UNL     O8   22   0.383  -0.019  -0.412
    1UNL    C15   23   0.435  -0.101  -0.508
    1UNL    C16   24   0.357  -0.204  -0.243
    1UNL     O9   25   0.414  -0.304  -0.321
    1UNL    C17   26   0.302  -0.233  -0.117
    1UNL    O10   27   0.274  -0.370  -0.089
    1UNL    C18   28   0.352  -0.427   0.015
    1UNL    C19   29   0.260  -0.128  -0.027
    1UNL    C20   30   0.003   0.222   0.452
    1UNL    O11   31  -0.013   0.309   0.568
    1UNL    C21   32  -0.003   0.076   0.495
    1UNL    O12   33   0.099   0.038   0.578
    1UNL    C22   34  -0.004  -0.028   0.372
    1UNL    O13   35  -0.066  -0.142   0.412
    1UNL    C23   36  -0.265  -0.146  -0.013
    1UNL    C24   37  -0.401  -0.130  -0.077
    1UNL    C25   38  -0.517  -0.051  -0.025
    1UNL    O14   39  -0.500   0.089  -0.014
    1UNL    C26   40  -0.395  -0.147  -0.209
    1UNL    C27   41  -0.261  -0.190  -0.249
    1UNL    C28   42  -0.171  -0.149  -0.130
    1UNL     H1   43   0.165  -0.209  -0.458
    1UNL     H2   44   0.168  -0.038  -0.443
    1UNL     H3   45   0.037  -0.111  -0.525
    1UNL     H4   46  -0.098   0.187  -0.137
    1UNL     H5   47  -0.300  -0.006   0.160
    1UNL     H6   48  -0.002   0.085   0.182
    1UNL     H7   49  -0.193   0.312   0.380
    1UNL     H8   50  -0.116   0.368   0.154
    1UNL     H9   51  -0.007   0.432   0.265
    1UNL    H10   52   0.164   0.253  -0.128
    1UNL    H11   53   0.169   0.076   0.115
    1UNL    H12   54   0.309   0.128  -0.217
    1UNL    H13   55   0.363  -0.167  -0.545
    1UNL    H14   56   0.531  -0.157  -0.474
    1UNL    H15   57   0.458  -0.040  -0.592
    1UNL    H16   58   0.409  -0.382  -0.267
    1UNL    H17   59   0.340  -0.369   0.109
    1UNL    H18   60   0.326  -0.531   0.038
    1UNL    H19   61   0.458  -0.425  -0.006
    1UNL    H20   62   0.231  -0.166   0.069
    1UNL    H21   63   0.091   0.254   0.398
    1UNL    H22   64   0.024   0.250   0.639
    1UNL    H23   65  -0.093   0.048   0.542
    1UNL    H24   66   0.087  -0.056   0.599
    1UNL    H25   67   0.091  -0.046   0.336
    1UNL    H26   68  -0.115  -0.188   0.337
    1UNL    H27   69  -0.258  -0.229   0.052
    1UNL    H28   70  -0.539  -0.089   0.074
    1UNL    H29   71  -0.604  -0.061  -0.086
    1UNL    H30   72  -0.400   0.105  -0.007
    1UNL    H31   73  -0.468  -0.127  -0.286
    1UNL    H32   74  -0.230  -0.138  -0.346
    1UNL    H33   75  -0.252  -0.302  -0.265
    1UNL    H34   76  -0.094  -0.226  -0.116
   0.00000   0.00000   0.00000   0.00000   0.00000   0.00000   0.00000   0.00000   0.00000
Generated with MDTraj, t= 51.0
 76
    1UNL     C1    1   0.112  -0.117  -0.426
    1UNL     O1    2   0.030  -0.135  -0.316
    1UNL     C2    3   0.005  -0.017  -0.255
    1UNL     O2    4   0.065   0.083  -0.285
    1UNL     C3    5  -0.103  -0.022  -0.159
    1UNL     C4    6  -0.134   0.084  -0.084
    1UNL     O3    7  -0.204   0.096   0.034
    1UNL     C5    8  -0.228  -0.034   0.097
    1UNL     O4    9  -0.129  -0.083   0.172
    1UNL     C6   10  -0.078   0.030   0.247
    1UNL     O5   11  -0.185   0.117   0.299
    1UNL     C7   12  -0.129   0.244   0.329
    1UNL     C8   13  -0.074   0.311   0.206
    1UNL     O6   14   0.051   0.267   0.173
    1UNL     C9   15   0.093   0.311   0.046
    1UNL     O7   16   0.037   0.411  -0.010
    1UNL    C10   17   0.202   0.236  -0.025
    1UNL    C11   18   0.241   0.116   0.021
    1UNL    C12   19   0.291   0.007  -0.067
    1UNL    C13   20   0.359   0.035  -0.187
    1UNL    C14   21   0.387  -0.060  -0.281
    1UNL     O8   22   0.456  -0.025  -0.402
    1UNL    C15   23   0.481  -0.135  -0.487
    1UNL    C16   24   0.330  -0.187  -0.254
    1UNL     O9   25   0.332  -0.292  -0.342
    1UNL    C17   26   0.270  -0.225  -0.133
    1UNL    O10   27   0.240  -0.357  -0.108
    1UNL    C18   28   0.323  -0.415  -0.008
    1UNL    C19   29   0.255  -0.126  -0.038
    1UNL    C20   30  -0.011   0.221   0.435
    1UNL    O11   31  -0.001   0.314   0.547
    1UNL    C21   32  -0.002   0.080   0.480
    1UNL    O12   33   0.093   0.070   0.580
    1UNL    C22   34   0.010  -0.026   0.364
    1UNL    O13   35  -0.034  -0.154   0.402
    1UNL    C23   36  -0.273  -0.141  -0.014
    1UNL    C24   37  -0.414  -0.128  -0.071
    1UNL    C25   38  -0.539  -0.085   0.004
    1UNL    O14   39  -0.537   0.055   0.005
    1UNL    C26   40  -0.411  -0.144  -0.202
    1UNL    C27   41  -0.272  -0.166  -0.259
    1UNL    C28   42  -0.178  -0.149  -0.136
    1UNL     H1   43   0.159  -0.210  -0.457
    1UNL     H2   44   0.193  -0.041  -0.409
    1UNL     H3   45   0.049  -0.074  -0.500
    1UNL     H4   46  -0.080   0.175  -0.120
    1UNL     H5   47  -0.322  -0.010   0.155
    1UNL     H6   48  -0.022   0.096   0.173
    1UNL     H7   49  -0.204   0.292   0.391
    1UNL     H8   50  -0.149   0.283   0.129
    1UNL     H9   51  -0.081   0.419   0.211
    1UNL    H10   52   0.228   0.271  -0.127
    1UNL    H11   53   0.198   0.091   0.112
    1UNL    H12   54   0.386   0.140  -0.201
    1UNL    H13   55   0.392  -0.174  -0.522
    1UNL    H14   56   0.538  -0.215  -0.428
    1UNL    H15   57   0.539  -0.114  -0.574
    1UNL    H16   58   0.275  -0.367  -0.303
    1UNL    H17   59   0.370  -0.344   0.063
    1UNL    H18   60   0.262  -0.481   0.055
    1UNL    H19   61   0.408  -0.471  -0.046
    1UNL    H20   62   0.221  -0.161   0.060
    1UNL    H21   63   0.079   0.245   0.376
    1UNL    H22   64   0.055   0.263   0.611
    1UNL    H23   65  -0.086   0.050   0.540
    1UNL    H24   66   0.121  -0.016   0.628
    1UNL    H25   67   0.108  -0.034   0.335
    1UNL    H26   68  -0.083  -0.198   0.331
    1UNL    H27   69  -0.265  -0.233   0.038
    1UNL    H28   70  -0.543  -0.129   0.103
    1UNL    H29   71  -0.626  -0.111  -0.052
    1UNL    H30   72  -0.446   0.083   0.014
    1UNL    H31   73  -0.509  -0.153  -0.249
    1UNL    H32   74  -0.246  -0.082  -0.330
    1UNL    H33   75  -0.270  -0.265  -0.315
    1UNL    H34   76  -0.113  -0.236  -0.127
   0.00000   0.00000   0.00000   0.00000   0.00000   0.00000   0.00000   0.00000   0.00000
Generated with MDTraj, t= 52.0
 76
    1UNL     C1    1   0.074  -0.071  -0.457
    1UNL     O1    2  -0.015  -0.106  -0.350
    1UNL     C2    3   0.003  -0.026  -0.240
    1UNL     O2    4   0.085   0.061  -0.248
    1UNL     C3    5  -0.092  -0.044  -0.134
    1UNL     C4    6  -0.142   0.071  -0.072
    1UNL     O3    7  -0.226   0.075   0.035
    1UNL     C5    8  -0.240  -0.057   0.098
    1UNL     O4    9  -0.139  -0.089   0.186
    1UNL     C6   10  -0.083   0.026   0.240
    1UNL     O5   11  -0.173   0.133   0.287
    1UNL     C7   12  -0.114   0.256   0.328
    1UNL     C8   13  -0.048   0.332   0.205
    1UNL     O6   14   0.053   0.254   0.144
    1UNL     C9   15   0.085   0.308   0.024
    1UNL     O7   16   0.051   0.422  -0.014
    1UNL    C10   17   0.180   0.232  -0.055
    1UNL    C11   18   0.247   0.132   0.004
    1UNL    C12   19   0.295   0.022  -0.076
    1UNL    C13   20   0.379   0.041  -0.187
    1UNL    C14   21   0.411  -0.065  -0.272
    1UNL     O8   22   0.498  -0.039  -0.371
    1UNL    C15   23   0.554  -0.153  -0.433
    1UNL    C16   24   0.342  -0.187  -0.253
    1UNL     O9   25   0.350  -0.288  -0.340
    1UNL    C17   26   0.261  -0.213  -0.141
    1UNL    O10   27   0.211  -0.347  -0.128
    1UNL    C18   28   0.279  -0.422  -0.028
    1UNL    C19   29   0.242  -0.113  -0.049
    1UNL    C20   30  -0.001   0.227   0.435
    1UNL    O11   31  -0.031   0.314   0.547
    1UNL    C21   32  -0.009   0.083   0.485
    1UNL    O12   33   0.103   0.056   0.566
    1UNL    C22   34   0.011  -0.010   0.362
    1UNL    O13   35   0.008  -0.146   0.392
    1UNL    C23   36  -0.287  -0.164  -0.009
    1UNL    C24   37  -0.423  -0.136  -0.067
    1UNL    C25   38  -0.546  -0.103   0.018
    1UNL    O14   39  -0.555   0.041   0.039
    1UNL    C26   40  -0.418  -0.126  -0.199
    1UNL    C27   41  -0.278  -0.160  -0.252
    1UNL    C28   42  -0.183  -0.164  -0.131
    1UNL     H1   43   0.086  -0.154  -0.536
    1UNL     H2   44   0.178  -0.046  -0.418
    1UNL     H3   45   0.034   0.024  -0.496
    1UNL     H4   46  -0.102   0.173  -0.095
    1UNL     H5   47  -0.334  -0.035   0.164
    1UNL     H6   48  -0.023   0.069   0.155
    1UNL     H7   49  -0.189   0.318   0.374
    1UNL     H8   50  -0.130   0.358   0.132
    1UNL     H9   51  -0.019   0.432   0.238
    1UNL    H10   52   0.187   0.251  -0.159
    1UNL    H11   53   0.225   0.114   0.111
    1UNL    H12   54   0.426   0.132  -0.219
    1UNL    H13   55   0.488  -0.198  -0.500
    1UNL    H14   56   0.595  -0.226  -0.358
    1UNL    H15   57   0.640  -0.119  -0.489
    1UNL    H16   58   0.299  -0.364  -0.309
    1UNL    H17   59   0.285  -0.371   0.070
    1UNL    H18   60   0.219  -0.512  -0.004
    1UNL    H19   61   0.382  -0.446  -0.051
    1UNL    H20   62   0.180  -0.122   0.035
    1UNL    H21   63   0.091   0.257   0.377
    1UNL    H22   64   0.036   0.289   0.612
    1UNL    H23   65  -0.102   0.045   0.531
    1UNL    H24   66   0.127  -0.039   0.561
    1UNL    H25   67   0.109   0.009   0.336
    1UNL    H26   68  -0.042  -0.196   0.321
    1UNL    H27   69  -0.286  -0.257   0.041
    1UNL    H28   70  -0.538  -0.141   0.122
    1UNL    H29   71  -0.628  -0.150  -0.033
    1UNL    H30   72  -0.465   0.073   0.057
    1UNL    H31   73  -0.500  -0.095  -0.261
    1UNL    H32   74  -0.245  -0.083  -0.327
    1UNL    H33   75  -0.272  -0.263  -0.301
    1UNL    H34   76  -0.117  -0.250  -0.121
   0.00000   0.00000   0.00000   0.00000   0.00000   0.00000   0.00000   0.00000   0.00000
Generated with MDTraj, t= 53.0
 76
    1UNL     C1    1   0.047  -0.069  -0.465
    1UNL     O1    2  -0.053  -0.082  -0.373
    1UNL     C2    3  -0.031  -0.007  -0.263
    1UNL     O2    4   0.048   0.085  -0.265
    1UNL     C3    5  -0.126  -0.032  -0.154
    1UNL     C4    6  -0.156   0.082  -0.085
    1UNL     O3    7  -0.236   0.082   0.028
    1UNL     C5    8  -0.242  -0.046   0.093
    1UNL     O4    9  -0.123  -0.077   0.162
    1UNL     C6   10  -0.080   0.035   0.228
    1UNL     O5   11  -0.168   0.133   0.278
    1UNL     C7   12  -0.119   0.256   0.329
    1UNL     C8   13  -0.051   0.334   0.209
    1UNL     O6   14   0.062   0.267   0.163
    1UNL     C9   15   0.098   0.319   0.039
    1UNL     O7   16   0.054   0.422  -0.008
    1UNL    C10   17   0.199   0.252  -0.032
    1UNL    C11   18   0.230   0.123   0.001
    1UNL    C12   19   0.283   0.018  -0.083
    1UNL    C13   20   0.387   0.031  -0.179
    1UNL    C14   21   0.431  -0.077  -0.261
    1UNL     O8   22   0.529  -0.046  -0.353
    1UNL    C15   23   0.624  -0.150  -0.391
    1UNL    C16   24   0.369  -0.203  -0.243
    1UNL     O9   25   0.411  -0.313  -0.313
    1UNL    C17   26   0.268  -0.214  -0.148
    1UNL    O10   27   0.200  -0.341  -0.149
    1UNL    C18   28   0.220  -0.428  -0.045
    1UNL    C19   29   0.226  -0.103  -0.075
    1UNL    C20   30  -0.011   0.228   0.438
    1UNL    O11   31  -0.036   0.307   0.555
    1UNL    C21   32   0.007   0.077   0.472
    1UNL    O12   33   0.115   0.050   0.568
    1UNL    C22   34   0.035  -0.002   0.337
    1UNL    O13   35   0.036  -0.144   0.371
    1UNL    C23   36  -0.292  -0.156   0.002
    1UNL    C24   37  -0.428  -0.147  -0.054
    1UNL    C25   38  -0.542  -0.101   0.032
    1UNL    O14   39  -0.539   0.040   0.059
    1UNL    C26   40  -0.439  -0.187  -0.180
    1UNL    C27   41  -0.302  -0.197  -0.234
    1UNL    C28   42  -0.203  -0.162  -0.123
    1UNL     H1   43   0.008  -0.107  -0.567
    1UNL     H2   44   0.134  -0.136  -0.437
    1UNL     H3   45   0.082   0.036  -0.459
    1UNL     H4   46  -0.128   0.179  -0.113
    1UNL     H5   47  -0.317  -0.023   0.180
    1UNL     H6   48  -0.029   0.078   0.136
    1UNL     H7   49  -0.209   0.305   0.368
    1UNL     H8   50  -0.131   0.344   0.129
    1UNL     H9   51  -0.030   0.437   0.236
    1UNL    H10   52   0.232   0.291  -0.127
    1UNL    H11   53   0.183   0.095   0.092
    1UNL    H12   54   0.435   0.125  -0.197
    1UNL    H13   55   0.580  -0.220  -0.458
    1UNL    H14   56   0.668  -0.196  -0.301
    1UNL    H15   57   0.708  -0.103  -0.444
    1UNL    H16   58   0.363  -0.395  -0.280
    1UNL    H17   59   0.138  -0.422   0.027
    1UNL    H18   60   0.205  -0.529  -0.086
    1UNL    H19   61   0.314  -0.413   0.005
    1UNL    H20   62   0.132  -0.110  -0.018
    1UNL    H21   63   0.086   0.272   0.398
    1UNL    H22   64   0.038   0.268   0.611
    1UNL    H23   65  -0.088   0.043   0.526
    1UNL    H24   66   0.137  -0.042   0.560
    1UNL    H25   67   0.128   0.034   0.310
    1UNL    H26   68  -0.055  -0.172   0.356
    1UNL    H27   69  -0.283  -0.245   0.059
    1UNL    H28   70  -0.536  -0.167   0.124
    1UNL    H29   71  -0.638  -0.112  -0.020
    1UNL    H30   72  -0.450   0.075   0.032
    1UNL    H31   73  -0.522  -0.186  -0.251
    1UNL    H32   74  -0.279  -0.122  -0.316
    1UNL    H33   75  -0.277  -0.296  -0.283
    1UNL    H34   76  -0.122  -0.237  -0.121
   0.00000   0.00000   0.00000   0.00000   0.00000   0.00000   0.00000   0.00000   0.00000
Generated with MDTraj, t= 54.0
 76
    1UNL     C1    1   0.023  -0.086  -0.468
    1UNL     O1    2  -0.070  -0.109  -0.368
    1UNL     C2    3  -0.070   0.000  -0.284
    1UNL     O2    4  -0.021   0.109  -0.306
    1UNL     C3    5  -0.149  -0.020  -0.166
    1UNL     C4    6  -0.189   0.087  -0.100
    1UNL     O3    7  -0.249   0.095   0.025
    1UNL     C5    8  -0.239  -0.032   0.089
    1UNL     O4    9  -0.109  -0.058   0.142
    1UNL     C6   10  -0.063   0.051   0.218
    1UNL     O5   11  -0.160   0.129   0.278
    1UNL     C7   12  -0.111   0.256   0.337
    1UNL     C8   13  -0.047   0.340   0.219
    1UNL     O6   14   0.061   0.276   0.171
    1UNL     C9   15   0.110   0.324   0.045
    1UNL     O7   16   0.086   0.437   0.006
    1UNL    C10   17   0.182   0.225  -0.032
    1UNL    C11   18   0.184   0.089  -0.014
    1UNL    C12   19   0.247  -0.006  -0.101
    1UNL    C13   20   0.372   0.026  -0.163
    1UNL    C14   21   0.447  -0.065  -0.239
    1UNL     O8   22   0.578  -0.035  -0.290
    1UNL    C15   23   0.650  -0.147  -0.337
    1UNL    C16   24   0.389  -0.196  -0.240
    1UNL     O9   25   0.440  -0.303  -0.310
    1UNL    C17   26   0.273  -0.231  -0.166
    1UNL    O10   27   0.233  -0.368  -0.162
    1UNL    C18   28   0.175  -0.397  -0.038
    1UNL    C19   29   0.201  -0.129  -0.108
    1UNL    C20   30   0.006   0.230   0.442
    1UNL    O11   31  -0.031   0.281   0.571
    1UNL    C21   32   0.025   0.078   0.459
    1UNL    O12   33   0.122   0.046   0.566
    1UNL    C22   34   0.049   0.008   0.323
    1UNL    O13   35   0.049  -0.137   0.339
    1UNL    C23   36  -0.276  -0.151  -0.000
    1UNL    C24   37  -0.422  -0.159  -0.033
    1UNL    C25   38  -0.528  -0.098   0.052
    1UNL    O14   39  -0.534   0.040   0.051
    1UNL    C26   40  -0.440  -0.186  -0.161
    1UNL    C27   41  -0.307  -0.212  -0.232
    1UNL    C28   42  -0.199  -0.156  -0.133
    1UNL     H1   43   0.022  -0.177  -0.535
    1UNL     H2   44   0.122  -0.079  -0.422
    1UNL     H3   45   0.002   0.011  -0.509
    1UNL     H4   46  -0.169   0.181  -0.143
    1UNL     H5   47  -0.310  -0.020   0.181
    1UNL     H6   48  -0.031   0.115   0.130
    1UNL     H7   49  -0.199   0.297   0.388
    1UNL     H8   50  -0.121   0.353   0.135
    1UNL     H9   51  -0.021   0.439   0.252
    1UNL    H10   52   0.212   0.257  -0.133
    1UNL    H11   53   0.157   0.054   0.083
    1UNL    H12   54   0.409   0.129  -0.159
    1UNL    H13   55   0.613  -0.171  -0.438
    1UNL    H14   56   0.642  -0.226  -0.263
    1UNL    H15   57   0.758  -0.118  -0.345
    1UNL    H16   58   0.372  -0.371  -0.317
    1UNL    H17   59   0.083  -0.342  -0.018
    1UNL    H18   60   0.142  -0.501  -0.040
    1UNL    H19   61   0.248  -0.379   0.040
    1UNL    H20   62   0.105  -0.136  -0.063
    1UNL    H21   63   0.102   0.287   0.417
    1UNL    H22   64   0.020   0.233   0.641
    1UNL    H23   65  -0.073   0.036   0.504
    1UNL    H24   66   0.124  -0.050   0.566
    1UNL    H25   67   0.143   0.024   0.282
    1UNL    H26   68  -0.000  -0.167   0.261
    1UNL    H27   69  -0.249  -0.236   0.056
    1UNL    H28   70  -0.508  -0.132   0.159
    1UNL    H29   71  -0.630  -0.132   0.024
    1UNL    H30   72  -0.447   0.078   0.027
    1UNL    H31   73  -0.529  -0.171  -0.219
    1UNL    H32   74  -0.298  -0.171  -0.337
    1UNL    H33   75  -0.290  -0.323  -0.249
    1UNL    H34   76  -0.114  -0.226  -0.142
   0.00000   0.00000   0.00000   0.00000   0.00000   0.00000   0.00000   0.00000   0.00000
Generated with MDTraj, t= 55.0
 76
    1UNL     C1    1   0.008  -0.103  -0.489
    1UNL     O1    2  -0.032  -0.128  -0.356
    1UNL     C2    3  -0.092  -0.010  -0.304
    1UNL     O2    4  -0.091   0.099  -0.355
    1UNL     C3    5  -0.156  -0.022  -0.174
    1UNL     C4    6  -0.174   0.089  -0.102
    1UNL     O3    7  -0.240   0.095   0.016
    1UNL     C5    8  -0.249  -0.031   0.096
    1UNL     O4    9  -0.139  -0.067   0.180
    1UNL     C6   10  -0.068   0.053   0.223
    1UNL     O5   11  -0.151   0.147   0.290
    1UNL     C7   12  -0.074   0.258   0.341
    1UNL     C8   13  -0.010   0.336   0.225
    1UNL     O6   14   0.066   0.260   0.150
    1UNL     C9   15   0.111   0.324   0.041
    1UNL     O7   16   0.088   0.438   0.018
    1UNL    C10   17   0.186   0.229  -0.046
    1UNL    C11   18   0.156   0.102  -0.059
    1UNL    C12   19   0.244   0.005  -0.110
    1UNL    C13   20   0.369   0.039  -0.164
    1UNL    C14   21   0.452  -0.063  -0.211
    1UNL     O8   22   0.581  -0.025  -0.255
    1UNL    C15   23   0.664  -0.126  -0.294
    1UNL    C16   24   0.404  -0.201  -0.208
    1UNL     O9   25   0.468  -0.300  -0.278
    1UNL    C17   26   0.276  -0.232  -0.154
    1UNL    O10   27   0.248  -0.368  -0.173
    1UNL    C18   28   0.141  -0.410  -0.088
    1UNL    C19   29   0.200  -0.130  -0.107
    1UNL    C20   30   0.020   0.218   0.456
    1UNL    O11   31  -0.040   0.270   0.575
    1UNL    C21   32   0.033   0.064   0.455
    1UNL    O12   33   0.137   0.031   0.545
    1UNL    C22   34   0.055   0.022   0.314
    1UNL    O13   35   0.083  -0.118   0.315
    1UNL    C23   36  -0.281  -0.150   0.005
    1UNL    C24   37  -0.434  -0.151  -0.032
    1UNL    C25   38  -0.541  -0.101   0.061
    1UNL    O14   39  -0.552   0.039   0.054
    1UNL    C26   40  -0.452  -0.173  -0.161
    1UNL    C27   41  -0.321  -0.203  -0.230
    1UNL    C28   42  -0.207  -0.152  -0.136
    1UNL     H1   43   0.084  -0.177  -0.510
    1UNL     H2   44   0.045  -0.005  -0.497
    1UNL     H3   45  -0.079  -0.105  -0.548
    1UNL     H4   46  -0.117   0.178  -0.137
    1UNL     H5   47  -0.338  -0.026   0.167
    1UNL     H6   48  -0.046   0.111   0.134
    1UNL     H7   49  -0.161   0.319   0.379
    1UNL     H8   50  -0.092   0.386   0.170
    1UNL     H9   51   0.050   0.414   0.265
    1UNL    H10   52   0.273   0.267  -0.091
    1UNL    H11   53   0.070   0.057  -0.004
    1UNL    H12   54   0.407   0.137  -0.174
    1UNL    H13   55   0.619  -0.171  -0.386
    1UNL    H14   56   0.675  -0.194  -0.213
    1UNL    H15   57   0.763  -0.076  -0.317
    1UNL    H16   58   0.419  -0.382  -0.269
    1UNL    H17   59   0.048  -0.419  -0.144
    1UNL    H18   60   0.165  -0.514  -0.067
    1UNL    H19   61   0.135  -0.348   0.002
    1UNL    H20   62   0.094  -0.143  -0.089
    1UNL    H21   63   0.118   0.269   0.440
    1UNL    H22   64  -0.005   0.231   0.656
    1UNL    H23   65  -0.063   0.020   0.501
    1UNL    H24   66   0.158  -0.066   0.531
    1UNL    H25   67   0.151   0.054   0.283
    1UNL    H26   68  -0.003  -0.166   0.301
    1UNL    H27   69  -0.255  -0.229   0.071
    1UNL    H28   70  -0.529  -0.118   0.174
    1UNL    H29   71  -0.634  -0.156   0.035
    1UNL    H30   72  -0.465   0.080   0.035
    1UNL    H31   73  -0.549  -0.153  -0.207
    1UNL    H32   74  -0.327  -0.158  -0.333
    1UNL    H33   75  -0.311  -0.314  -0.246
    1UNL    H34   76  -0.126  -0.226  -0.127
   0.00000   0.00000   0.00000   0.00000   0.00000   0.00000   0.00000   0.00000   0.00000
Generated with MDTraj, t= 56.0
 76
    1UNL     C1    1   0.011  -0.117  -0.469
    1UNL     O1    2  -0.051  -0.135  -0.341
    1UNL     C2    3  -0.107  -0.021  -0.301
    1UNL     O2    4  -0.108   0.078  -0.370
    1UNL     C3    5  -0.171  -0.029  -0.163
    1UNL     C4    6  -0.182   0.087  -0.085
    1UNL     O3    7  -0.259   0.097   0.024
    1UNL     C5    8  -0.256  -0.024   0.100
    1UNL     O4    9  -0.134  -0.054   0.163
    1UNL     C6   10  -0.075   0.061   0.221
    1UNL     O5   11  -0.170   0.137   0.301
    1UNL     C7   12  -0.100   0.255   0.349
    1UNL     C8   13  -0.032   0.339   0.237
    1UNL     O6   14   0.066   0.270   0.173
    1UNL     C9   15   0.118   0.326   0.053
    1UNL     O7   16   0.089   0.434   0.014
    1UNL    C10   17   0.193   0.237  -0.043
    1UNL    C11   18   0.165   0.109  -0.067
    1UNL    C12   19   0.248   0.013  -0.141
    1UNL    C13   20   0.376   0.032  -0.186
    1UNL    C14   21   0.472  -0.069  -0.208
    1UNL     O8   22   0.597  -0.022  -0.259
    1UNL    C15   23   0.696  -0.118  -0.275
    1UNL    C16   24   0.433  -0.207  -0.199
    1UNL     O9   25   0.524  -0.317  -0.199
    1UNL    C17   26   0.290  -0.229  -0.175
    1UNL    O10   27   0.250  -0.361  -0.183
    1UNL    C18   28   0.108  -0.385  -0.153
    1UNL    C19   29   0.205  -0.124  -0.143
    1UNL    C20   30   0.013   0.216   0.453
    1UNL    O11   31  -0.016   0.256   0.589
    1UNL    C21   32   0.045   0.057   0.441
    1UNL    O12   33   0.161   0.022   0.511
    1UNL    C22   34   0.051   0.025   0.297
    1UNL    O13   35   0.082  -0.117   0.288
    1UNL    C23   36  -0.305  -0.147   0.021
    1UNL    C24   37  -0.452  -0.140  -0.030
    1UNL    C25   38  -0.556  -0.083   0.049
    1UNL    O14   39  -0.544   0.063   0.060
    1UNL    C26   40  -0.460  -0.184  -0.153
    1UNL    C27   41  -0.328  -0.216  -0.209
    1UNL    C28   42  -0.219  -0.163  -0.113
    1UNL     H1   43   0.077  -0.203  -0.481
    1UNL     H2   44   0.064  -0.026  -0.472
    1UNL     H3   45  -0.065  -0.107  -0.541
    1UNL     H4   46  -0.147   0.184  -0.131
    1UNL     H5   47  -0.333  -0.017   0.181
    1UNL     H6   48  -0.058   0.132   0.141
    1UNL     H7   49  -0.184   0.314   0.397
    1UNL     H8   50  -0.106   0.365   0.159
    1UNL     H9   51   0.003   0.430   0.277
    1UNL    H10   52   0.268   0.299  -0.097
    1UNL    H11   53   0.090   0.063  -0.009
    1UNL    H12   54   0.405   0.138  -0.188
    1UNL    H13   55   0.679  -0.164  -0.377
    1UNL    H14   56   0.686  -0.187  -0.197
    1UNL    H15   57   0.798  -0.069  -0.271
    1UNL    H16   58   0.474  -0.404  -0.203
    1UNL    H17   59   0.042  -0.353  -0.233
    1UNL    H18   60   0.101  -0.495  -0.161
    1UNL    H19   61   0.079  -0.346  -0.054
    1UNL    H20   62   0.102  -0.147  -0.112
    1UNL    H21   63   0.109   0.261   0.426
    1UNL    H22   64   0.051   0.215   0.644
    1UNL    H23   65  -0.047   0.013   0.490
    1UNL    H24   66   0.178  -0.071   0.486
    1UNL    H25   67   0.133   0.074   0.247
    1UNL    H26   68   0.027  -0.148   0.217
    1UNL    H27   69  -0.295  -0.229   0.089
    1UNL    H28   70  -0.568  -0.131   0.150
    1UNL    H29   71  -0.657  -0.101   0.010
    1UNL    H30   72  -0.451   0.094   0.039
    1UNL    H31   73  -0.553  -0.178  -0.205
    1UNL    H32   74  -0.322  -0.151  -0.301
    1UNL    H33   75  -0.332  -0.324  -0.244
    1UNL    H34   76  -0.135  -0.233  -0.105
   0.00000   0.00000   0.00000   0.00000   0.00000   0.00000   0.00000   0.00000   0.00000
Generated with MDTraj, t= 57.0
 76
    1UNL     C1    1   0.012  -0.141  -0.440
    1UNL     O1    2  -0.079  -0.161  -0.331
    1UNL     C2    3  -0.105  -0.038  -0.281
    1UNL     O2    4  -0.060   0.066  -0.325
    1UNL     C3    5  -0.187  -0.042  -0.157
    1UNL     C4    6  -0.224   0.075  -0.094
    1UNL     O3    7  -0.278   0.092   0.034
    1UNL     C5    8  -0.273  -0.026   0.102
    1UNL     O4    9  -0.140  -0.059   0.152
    1UNL     C6   10  -0.075   0.049   0.202
    1UNL     O5   11  -0.161   0.134   0.286
    1UNL     C7   12  -0.096   0.248   0.333
    1UNL     C8   13  -0.031   0.333   0.222
    1UNL     O6   14   0.068   0.265   0.155
    1UNL     C9   15   0.112   0.331   0.040
    1UNL     O7   16   0.078   0.438   0.005
    1UNL    C10   17   0.211   0.258  -0.046
    1UNL    C11   18   0.188   0.131  -0.073
    1UNL    C12   19   0.271   0.024  -0.121
    1UNL    C13   20   0.402   0.043  -0.146
    1UNL    C14   21   0.480  -0.059  -0.182
    1UNL     O8   22   0.611  -0.019  -0.218
    1UNL    C15   23   0.697  -0.127  -0.246
    1UNL    C16   24   0.431  -0.187  -0.189
    1UNL     O9   25   0.503  -0.292  -0.245
    1UNL    C17   26   0.299  -0.216  -0.163
    1UNL    O10   27   0.264  -0.352  -0.162
    1UNL    C18   28   0.139  -0.370  -0.230
    1UNL    C19   29   0.212  -0.105  -0.125
    1UNL    C20   30   0.027   0.206   0.434
    1UNL    O11   31  -0.001   0.238   0.568
    1UNL    C21   32   0.065   0.054   0.423
    1UNL    O12   33   0.179   0.023   0.495
    1UNL    C22   34   0.065   0.009   0.271
    1UNL    O13   35   0.096  -0.139   0.273
    1UNL    C23   36  -0.334  -0.149   0.031
    1UNL    C24   37  -0.478  -0.125  -0.018
    1UNL    C25   38  -0.588  -0.050   0.050
    1UNL    O14   39  -0.568   0.089   0.040
    1UNL    C26   40  -0.484  -0.177  -0.143
    1UNL    C27   41  -0.350  -0.241  -0.182
    1UNL    C28   42  -0.239  -0.170  -0.100
    1UNL     H1   43   0.013  -0.234  -0.504
    1UNL     H2   44   0.110  -0.112  -0.404
    1UNL     H3   45  -0.025  -0.052  -0.493
    1UNL     H4   46  -0.205   0.169  -0.141
    1UNL     H5   47  -0.329  -0.003   0.193
    1UNL     H6   48  -0.055   0.113   0.120
    1UNL     H7   49  -0.172   0.305   0.394
    1UNL     H8   50  -0.105   0.365   0.146
    1UNL     H9   51   0.007   0.426   0.260
    1UNL    H10   52   0.303   0.305  -0.059
    1UNL    H11   53   0.088   0.099  -0.043
    1UNL    H12   54   0.435   0.143  -0.154
    1UNL    H13   55   0.650  -0.191  -0.327
    1UNL    H14   56   0.720  -0.178  -0.160
    1UNL    H15   57   0.788  -0.080  -0.291
    1UNL    H16   58   0.450  -0.368  -0.227
    1UNL    H17   59   0.097  -0.275  -0.261
    1UNL    H18   60   0.162  -0.421  -0.326
    1UNL    H19   61   0.066  -0.421  -0.165
    1UNL    H20   62   0.117  -0.129  -0.091
    1UNL    H21   63   0.116   0.261   0.408
    1UNL    H22   64   0.071   0.215   0.630
    1UNL    H23   65  -0.023   0.007   0.472
    1UNL    H24   66   0.199  -0.062   0.452
    1UNL    H25   67   0.155   0.054   0.228
    1UNL    H26   68   0.012  -0.185   0.305
    1UNL    H27   69  -0.333  -0.238   0.089
    1UNL    H28   70  -0.593  -0.074   0.158
    1UNL    H29   71  -0.692  -0.070   0.024
    1UNL    H30   72  -0.474   0.113   0.043
    1UNL    H31   73  -0.564  -0.173  -0.215
    1UNL    H32   74  -0.331  -0.228  -0.292
    1UNL    H33   75  -0.349  -0.351  -0.164
    1UNL    H34   76  -0.154  -0.238  -0.080
   0.00000   0.00000   0.00000   0.00000   0.00000   0.00000   0.00000   0.00000   0.00000
Generated with MDTraj, t= 58.0
 76
    1UNL     C1    1  -0.044  -0.155  -0.450
    1UNL     O1    2  -0.100  -0.186  -0.325
    1UNL     C2    3  -0.089  -0.070  -0.247
    1UNL     O2    4  -0.003   0.014  -0.263
    1UNL     C3    5  -0.183  -0.061  -0.135
    1UNL     C4    6  -0.200   0.060  -0.077
    1UNL     O3    7  -0.286   0.079   0.035
    1UNL     C5    8  -0.294  -0.042   0.117
    1UNL     O4    9  -0.165  -0.075   0.174
    1UNL     C6   10  -0.093   0.041   0.203
    1UNL     O5   11  -0.156   0.144   0.286
    1UNL     C7   12  -0.077   0.254   0.322
    1UNL     C8   13  -0.029   0.346   0.209
    1UNL     O6   14   0.058   0.267   0.136
    1UNL     C9   15   0.112   0.336   0.031
    1UNL     O7   16   0.086   0.449   0.007
    1UNL    C10   17   0.205   0.268  -0.053
    1UNL    C11   18   0.202   0.138  -0.034
    1UNL    C12   19   0.279   0.033  -0.104
    1UNL    C13   20   0.413   0.055  -0.125
    1UNL    C14   21   0.492  -0.049  -0.170
    1UNL     O8   22   0.626  -0.014  -0.193
    1UNL    C15   23   0.702  -0.128  -0.236
    1UNL    C16   24   0.441  -0.175  -0.190
    1UNL     O9   25   0.509  -0.273  -0.256
    1UNL    C17   26   0.313  -0.207  -0.149
    1UNL    O10   27   0.266  -0.338  -0.170
    1UNL    C18   28   0.163  -0.349  -0.264
    1UNL    C19   29   0.229  -0.101  -0.114
    1UNL    C20   30   0.049   0.205   0.410
    1UNL    O11   31   0.025   0.236   0.545
    1UNL    C21   32   0.065   0.051   0.404
    1UNL    O12   33   0.184   0.014   0.456
    1UNL    C22   34   0.047   0.006   0.258
    1UNL    O13   35   0.075  -0.138   0.242
    1UNL    C23   36  -0.349  -0.157   0.037
    1UNL    C24   37  -0.488  -0.133  -0.007
    1UNL    C25   38  -0.589  -0.041   0.057
    1UNL    O14   39  -0.570   0.088   0.014
    1UNL    C26   40  -0.514  -0.155  -0.140
    1UNL    C27   41  -0.382  -0.199  -0.200
    1UNL    C28   42  -0.270  -0.176  -0.097
    1UNL     H1   43  -0.038  -0.248  -0.517
    1UNL     H2   44   0.055  -0.102  -0.438
    1UNL     H3   45  -0.113  -0.078  -0.497
    1UNL     H4   46  -0.143   0.144  -0.105
    1UNL     H5   47  -0.347  -0.010   0.204
    1UNL     H6   48  -0.079   0.087   0.109
    1UNL     H7   49  -0.141   0.309   0.393
    1UNL     H8   50  -0.113   0.379   0.142
    1UNL     H9   51   0.017   0.442   0.236
    1UNL    H10   52   0.267   0.324  -0.125
    1UNL    H11   53   0.128   0.105   0.038
    1UNL    H12   54   0.442   0.157  -0.106
    1UNL    H13   55   0.685  -0.145  -0.346
    1UNL    H14   56   0.680  -0.212  -0.180
    1UNL    H15   57   0.807  -0.102  -0.217
    1UNL    H16   58   0.447  -0.353  -0.255
    1UNL    H17   59   0.063  -0.344  -0.222
    1UNL    H18   60   0.178  -0.270  -0.340
    1UNL    H19   61   0.181  -0.450  -0.303
    1UNL    H20   62   0.129  -0.136  -0.073
    1UNL    H21   63   0.141   0.237   0.365
    1UNL    H22   64   0.097   0.221   0.613
    1UNL    H23   65  -0.013   0.018   0.473
    1UNL    H24   66   0.206  -0.081   0.428
    1UNL    H25   67   0.128   0.061   0.203
    1UNL    H26   68   0.007  -0.165   0.180
    1UNL    H27   69  -0.346  -0.251   0.087
    1UNL    H28   70  -0.596  -0.036   0.165
    1UNL    H29   71  -0.690  -0.066   0.035
    1UNL    H30   72  -0.474   0.109   0.033
    1UNL    H31   73  -0.595  -0.113  -0.199
    1UNL    H32   74  -0.358  -0.139  -0.291
    1UNL    H33   75  -0.377  -0.304  -0.237
    1UNL    H34   76  -0.215  -0.271  -0.082
   0.00000   0.00000   0.00000   0.00000   0.00000   0.00000   0.00000   0.00000   0.00000
Generated with MDTraj, t= 59.0
 76
    1UNL     C1    1  -0.084  -0.165  -0.446
    1UNL     O1    2  -0.125  -0.212  -0.323
    1UNL     C2    3  -0.090  -0.109  -0.237
    1UNL     O2    4   0.001  -0.033  -0.260
    1UNL     C3    5  -0.189  -0.073  -0.132
    1UNL     C4    6  -0.190   0.057  -0.082
    1UNL     O3    7  -0.275   0.093   0.015
    1UNL     C5    8  -0.294  -0.015   0.108
    1UNL     O4    9  -0.176  -0.056   0.163
    1UNL     C6   10  -0.101   0.054   0.212
    1UNL     O5   11  -0.164   0.137   0.314
    1UNL     C7   12  -0.083   0.250   0.334
    1UNL     C8   13  -0.060   0.335   0.210
    1UNL     O6   14   0.013   0.261   0.116
    1UNL     C9   15   0.104   0.335   0.042
    1UNL     O7   16   0.099   0.459   0.043
    1UNL    C10   17   0.208   0.253  -0.025
    1UNL    C11   18   0.193   0.121  -0.050
    1UNL    C12   19   0.296   0.028  -0.109
    1UNL    C13   20   0.429   0.047  -0.145
    1UNL    C14   21   0.520  -0.049  -0.174
    1UNL     O8   22   0.645   0.001  -0.210
    1UNL    C15   23   0.742  -0.100  -0.224
    1UNL    C16   24   0.473  -0.181  -0.176
    1UNL     O9   25   0.551  -0.284  -0.230
    1UNL    C17   26   0.332  -0.210  -0.154
    1UNL    O10   27   0.274  -0.333  -0.198
    1UNL    C18   28   0.168  -0.319  -0.291
    1UNL    C19   29   0.250  -0.106  -0.125
    1UNL    C20   30   0.055   0.207   0.398
    1UNL    O11   31   0.060   0.251   0.537
    1UNL    C21   32   0.066   0.049   0.394
    1UNL    O12   33   0.177   0.001   0.453
    1UNL    C22   34   0.040   0.008   0.253
    1UNL    O13   35   0.061  -0.134   0.243
    1UNL    C23   36  -0.365  -0.133   0.038
    1UNL    C24   37  -0.502  -0.108  -0.022
    1UNL    C25   38  -0.614  -0.034   0.049
    1UNL    O14   39  -0.595   0.107   0.063
    1UNL    C26   40  -0.514  -0.146  -0.151
    1UNL    C27   41  -0.385  -0.212  -0.195
    1UNL    C28   42  -0.282  -0.184  -0.085
    1UNL     H1   43  -0.090  -0.251  -0.518
    1UNL     H2   44   0.019  -0.121  -0.444
    1UNL     H3   45  -0.151  -0.079  -0.479
    1UNL     H4   46  -0.144   0.142  -0.135
    1UNL     H5   47  -0.357   0.024   0.181
    1UNL     H6   48  -0.091   0.118   0.129
    1UNL     H7   49  -0.126   0.308   0.416
    1UNL     H8   50  -0.158   0.356   0.159
    1UNL     H9   51  -0.023   0.439   0.228
    1UNL    H10   52   0.307   0.291  -0.046
    1UNL    H11   53   0.098   0.077  -0.042
    1UNL    H12   54   0.473   0.144  -0.126
    1UNL    H13   55   0.717  -0.174  -0.303
    1UNL    H14   56   0.757  -0.144  -0.130
    1UNL    H15   57   0.832  -0.048  -0.251
    1UNL    H16   58   0.482  -0.350  -0.249
    1UNL    H17   59   0.122  -0.223  -0.284
    1UNL    H18   60   0.220  -0.324  -0.388
    1UNL    H19   61   0.096  -0.399  -0.275
    1UNL    H20   62   0.147  -0.124  -0.125
    1UNL    H21   63   0.135   0.237   0.332
    1UNL    H22   64   0.137   0.233   0.599
    1UNL    H23   65  -0.019   0.013   0.447
    1UNL    H24   66   0.197  -0.089   0.424
    1UNL    H25   67   0.116   0.051   0.183
    1UNL    H26   68  -0.033  -0.163   0.223
    1UNL    H27   69  -0.373  -0.217   0.102
    1UNL    H28   70  -0.621  -0.080   0.146
    1UNL    H29   71  -0.710  -0.058   0.010
    1UNL    H30   72  -0.500   0.122   0.057
    1UNL    H31   73  -0.599  -0.108  -0.206
    1UNL    H32   74  -0.346  -0.178  -0.293
    1UNL    H33   75  -0.410  -0.319  -0.209
    1UNL    H34   76  -0.232  -0.278  -0.056
   0.00000   0.00000   0.00000   0.00000   0.00000   0.00000   0.00000   0.00000   0.00000
Generated with MDTraj, t= 60.0
 76
    1UNL     C1    1  -0.095  -0.223  -0.447
    1UNL     O1    2  -0.183  -0.206  -0.341
    1UNL     C2    3  -0.128  -0.110  -0.264
    1UNL     O2    4  -0.022  -0.056  -0.286
    1UNL     C3    5  -0.212  -0.076  -0.147
    1UNL     C4    6  -0.206   0.047  -0.086
    1UNL     O3    7  -0.271   0.091   0.019
    1UNL     C5    8  -0.307  -0.013   0.108
    1UNL     O4    9  -0.199  -0.065   0.180
    1UNL     C6   10  -0.117   0.043   0.217
    1UNL     O5   11  -0.174   0.141   0.307
    1UNL     C7   12  -0.086   0.252   0.319
    1UNL     C8   13  -0.047   0.331   0.192
    1UNL     O6   14   0.029   0.253   0.104
    1UNL     C9   15   0.145   0.321   0.068
    1UNL     O7   16   0.165   0.441   0.098
    1UNL    C10   17   0.239   0.248  -0.009
    1UNL    C11   18   0.197   0.126  -0.053
    1UNL    C12   19   0.287   0.034  -0.119
    1UNL    C13   20   0.419   0.068  -0.131
    1UNL    C14   21   0.518  -0.024  -0.169
    1UNL     O8   22   0.650   0.025  -0.188
    1UNL    C15   23   0.754  -0.077  -0.205
    1UNL    C16   24   0.489  -0.162  -0.186
    1UNL     O9   25   0.574  -0.253  -0.236
    1UNL    C17   26   0.347  -0.195  -0.183
    1UNL    O10   27   0.322  -0.332  -0.216
    1UNL    C18   28   0.193  -0.365  -0.269
    1UNL    C19   29   0.255  -0.096  -0.151
    1UNL    C20   30   0.045   0.209   0.387
    1UNL    O11   31   0.063   0.267   0.515
    1UNL    C21   32   0.069   0.051   0.403
    1UNL    O12   33   0.195   0.017   0.436
    1UNL    C22   34   0.024  -0.013   0.268
    1UNL    O13   35   0.025  -0.158   0.270
    1UNL    C23   36  -0.376  -0.135   0.029
    1UNL    C24   37  -0.512  -0.085  -0.027
    1UNL    C25   38  -0.617  -0.005   0.043
    1UNL    O14   39  -0.563   0.118   0.096
    1UNL    C26   40  -0.531  -0.149  -0.143
    1UNL    C27   41  -0.409  -0.228  -0.191
    1UNL    C28   42  -0.298  -0.187  -0.100
    1UNL     H1   43  -0.093  -0.328  -0.468
    1UNL     H2   44   0.010  -0.192  -0.430
    1UNL     H3   45  -0.128  -0.169  -0.540
    1UNL     H4   46  -0.137   0.125  -0.129
    1UNL     H5   47  -0.372   0.027   0.177
    1UNL     H6   48  -0.097   0.102   0.133
    1UNL     H7   49  -0.133   0.314   0.394
    1UNL     H8   50  -0.142   0.371   0.149
    1UNL     H9   51   0.004   0.428   0.214
    1UNL    H10   52   0.334   0.287  -0.036
    1UNL    H11   53   0.094   0.088  -0.032
    1UNL    H12   54   0.450   0.167  -0.106
    1UNL    H13   55   0.737  -0.142  -0.294
    1UNL    H14   56   0.762  -0.139  -0.118
    1UNL    H15   57   0.847  -0.025  -0.215
    1UNL    H16   58   0.511  -0.324  -0.263
    1UNL    H17   59   0.128  -0.279  -0.267
    1UNL    H18   60   0.212  -0.392  -0.373
    1UNL    H19   61   0.146  -0.445  -0.214
    1UNL    H20   62   0.149  -0.115  -0.161
    1UNL    H21   63   0.125   0.236   0.317
    1UNL    H22   64   0.141   0.237   0.563
    1UNL    H23   65  -0.001   0.025   0.476
    1UNL    H24   66   0.209  -0.079   0.419
    1UNL    H25   67   0.117   0.012   0.208
    1UNL    H26   68  -0.052  -0.180   0.326
    1UNL    H27   69  -0.381  -0.214   0.099
    1UNL    H28   70  -0.665  -0.069   0.116
    1UNL    H29   71  -0.694   0.008  -0.030
    1UNL    H30   72  -0.512   0.168   0.029
    1UNL    H31   73  -0.624  -0.136  -0.198
    1UNL    H32   74  -0.391  -0.214  -0.299
    1UNL    H33   75  -0.438  -0.334  -0.178
    1UNL    H34   76  -0.234  -0.271  -0.064
   0.00000   0.00000   0.00000   0.00000   0.00000   0.00000   0.00000   0.00000   0.00000
Generated with MDTraj, t= 61.0
 76
    1UNL     C1    1  -0.118  -0.251  -0.461
    1UNL     O1    2  -0.187  -0.252  -0.336
    1UNL     C2    3  -0.153  -0.132  -0.274
    1UNL     O2    4  -0.068  -0.060  -0.324
    1UNL     C3    5  -0.222  -0.097  -0.150
    1UNL     C4    6  -0.218   0.033  -0.115
    1UNL     O3    7  -0.283   0.080  -0.008
    1UNL     C5    8  -0.302  -0.015   0.092
    1UNL     O4    9  -0.176  -0.064   0.143
    1UNL     C6   10  -0.102   0.039   0.207
    1UNL     O5   11  -0.166   0.140   0.279
    1UNL     C7   12  -0.080   0.251   0.316
    1UNL     C8   13  -0.060   0.335   0.186
    1UNL     O6   14   0.011   0.262   0.081
    1UNL     C9   15   0.140   0.297   0.087
    1UNL     O7   16   0.180   0.382   0.165
    1UNL    C10   17   0.242   0.233   0.009
    1UNL    C11   18   0.215   0.120  -0.064
    1UNL    C12   19   0.310   0.033  -0.128
    1UNL    C13   20   0.445   0.077  -0.138
    1UNL    C14   21   0.543  -0.018  -0.160
    1UNL     O8   22   0.671   0.032  -0.169
    1UNL    C15   23   0.773  -0.056  -0.199
    1UNL    C16   24   0.497  -0.145  -0.201
    1UNL     O9   25   0.599  -0.223  -0.263
    1UNL    C17   26   0.365  -0.185  -0.195
    1UNL    O10   27   0.348  -0.318  -0.229
    1UNL    C18   28   0.213  -0.356  -0.215
    1UNL    C19   29   0.270  -0.091  -0.164
    1UNL    C20   30   0.054   0.209   0.380
    1UNL    O11   31   0.073   0.273   0.501
    1UNL    C21   32   0.069   0.052   0.413
    1UNL    O12   33   0.198   0.035   0.442
    1UNL    C22   34   0.016  -0.028   0.287
    1UNL    O13   35  -0.019  -0.158   0.332
    1UNL    C23   36  -0.395  -0.130   0.030
    1UNL    C24   37  -0.522  -0.070  -0.012
    1UNL    C25   38  -0.614   0.028   0.053
    1UNL    O14   39  -0.560   0.139   0.116
    1UNL    C26   40  -0.560  -0.126  -0.126
    1UNL    C27   41  -0.449  -0.217  -0.184
    1UNL    C28   42  -0.329  -0.186  -0.093
    1UNL     H1   43  -0.130  -0.346  -0.499
    1UNL     H2   44  -0.015  -0.229  -0.458
    1UNL     H3   45  -0.167  -0.184  -0.532
    1UNL     H4   46  -0.135   0.097  -0.149
    1UNL     H5   47  -0.349   0.026   0.175
    1UNL     H6   48  -0.069   0.098   0.126
    1UNL     H7   49  -0.133   0.304   0.394
    1UNL     H8   50  -0.158   0.368   0.148
    1UNL     H9   51  -0.022   0.435   0.214
    1UNL    H10   52   0.346   0.269   0.002
    1UNL    H11   53   0.120   0.077  -0.056
    1UNL    H12   54   0.478   0.182  -0.126
    1UNL    H13   55   0.755  -0.100  -0.300
    1UNL    H14   56   0.774  -0.135  -0.121
    1UNL    H15   57   0.863  -0.001  -0.197
    1UNL    H16   58   0.561  -0.307  -0.297
    1UNL    H17   59   0.172  -0.336  -0.116
    1UNL    H18   60   0.149  -0.327  -0.299
    1UNL    H19   61   0.215  -0.464  -0.220
    1UNL    H20   62   0.173  -0.135  -0.134
    1UNL    H21   63   0.138   0.235   0.312
    1UNL    H22   64   0.152   0.236   0.543
    1UNL    H23   65  -0.004   0.038   0.489
    1UNL    H24   66   0.217  -0.062   0.463
    1UNL    H25   67   0.112  -0.042   0.227
    1UNL    H26   68  -0.063  -0.199   0.255
    1UNL    H27   69  -0.416  -0.202   0.105
    1UNL    H28   70  -0.674  -0.027   0.127
    1UNL    H29   71  -0.693   0.055  -0.018
    1UNL    H30   72  -0.492   0.178   0.056
    1UNL    H31   73  -0.659  -0.110  -0.162
    1UNL    H32   74  -0.433  -0.177  -0.285
    1UNL    H33   75  -0.477  -0.322  -0.203
    1UNL    H34   76  -0.283  -0.285  -0.073
   0.00000   0.00000   0.00000   0.00000   0.00000   0.00000   0.00000   0.00000   0.00000
Generated with MDTraj, t= 62.0
 76
    1UNL     C1    1  -0.139  -0.315  -0.426
    1UNL     O1    2  -0.210  -0.268  -0.315
    1UNL     C2    3  -0.168  -0.139  -0.283
    1UNL     O2    4  -0.102  -0.073  -0.361
    1UNL     C3    5  -0.238  -0.085  -0.167
    1UNL     C4    6  -0.197   0.033  -0.119
    1UNL     O3    7  -0.260   0.086  -0.010
    1UNL     C5    8  -0.291  -0.006   0.087
    1UNL     O4    9  -0.175  -0.075   0.139
    1UNL     C6   10  -0.097   0.022   0.197
    1UNL     O5   11  -0.175   0.126   0.263
    1UNL     C7   12  -0.097   0.243   0.287
    1UNL     C8   13  -0.068   0.321   0.162
    1UNL     O6   14   0.018   0.260   0.074
    1UNL     C9   15   0.145   0.297   0.110
    1UNL     O7   16   0.166   0.383   0.196
    1UNL    C10   17   0.252   0.228   0.052
    1UNL    C11   18   0.237   0.136  -0.044
    1UNL    C12   19   0.325   0.040  -0.115
    1UNL    C13   20   0.458   0.077  -0.120
    1UNL    C14   21   0.558  -0.007  -0.171
    1UNL     O8   22   0.693   0.044  -0.187
    1UNL    C15   23   0.798  -0.044  -0.193
    1UNL    C16   24   0.515  -0.138  -0.213
    1UNL     O9   25   0.604  -0.226  -0.269
    1UNL    C17   26   0.375  -0.171  -0.224
    1UNL    O10   27   0.341  -0.295  -0.278
    1UNL    C18   28   0.251  -0.377  -0.197
    1UNL    C19   29   0.281  -0.079  -0.171
    1UNL    C20   30   0.035   0.202   0.365
    1UNL    O11   31   0.058   0.283   0.475
    1UNL    C21   32   0.040   0.049   0.416
    1UNL    O12   33   0.164   0.015   0.469
    1UNL    C22   34   0.009  -0.042   0.292
    1UNL    O13   35  -0.029  -0.172   0.337
    1UNL    C23   36  -0.388  -0.122   0.034
    1UNL    C24   37  -0.523  -0.065   0.007
    1UNL    C25   38  -0.592   0.040   0.099
    1UNL    O14   39  -0.541   0.170   0.109
    1UNL    C26   40  -0.567  -0.111  -0.111
    1UNL    C27   41  -0.466  -0.193  -0.185
    1UNL    C28   42  -0.336  -0.174  -0.100
    1UNL     H1   43  -0.202  -0.386  -0.467
    1UNL     H2   44  -0.052  -0.368  -0.396
    1UNL     H3   45  -0.119  -0.235  -0.498
    1UNL     H4   46  -0.149   0.107  -0.175
    1UNL     H5   47  -0.335   0.047   0.168
    1UNL     H6   48  -0.056   0.071   0.113
    1UNL     H7   49  -0.157   0.303   0.355
    1UNL     H8   50  -0.159   0.357   0.121
    1UNL     H9   51  -0.024   0.417   0.194
    1UNL    H10   52   0.347   0.244   0.093
    1UNL    H11   53   0.133   0.128  -0.081
    1UNL    H12   54   0.477   0.181  -0.106
    1UNL    H13   55   0.773  -0.113  -0.277
    1UNL    H14   56   0.805  -0.105  -0.096
    1UNL    H15   57   0.886   0.013  -0.208
    1UNL    H16   58   0.553  -0.297  -0.310
    1UNL    H17   59   0.266  -0.366  -0.089
    1UNL    H18   60   0.147  -0.364  -0.225
    1UNL    H19   61   0.281  -0.480  -0.216
    1UNL    H20   62   0.176  -0.086  -0.167
    1UNL    H21   63   0.127   0.211   0.305
    1UNL    H22   64   0.150   0.320   0.486
    1UNL    H23   65  -0.037   0.032   0.490
    1UNL    H24   66   0.171  -0.083   0.492
    1UNL    H25   67   0.112  -0.051   0.240
    1UNL    H26   68  -0.128  -0.164   0.349
    1UNL    H27   69  -0.392  -0.196   0.110
    1UNL    H28   70  -0.607  -0.004   0.200
    1UNL    H29   71  -0.700   0.049   0.072
    1UNL    H30   72  -0.547   0.203   0.019
    1UNL    H31   73  -0.658  -0.083  -0.164
    1UNL    H32   74  -0.451  -0.165  -0.290
    1UNL    H33   75  -0.498  -0.298  -0.195
    1UNL    H34   76  -0.285  -0.274  -0.092
   0.00000   0.00000   0.00000   0.00000   0.00000   0.00000   0.00000   0.00000   0.00000
Generated with MDTraj, t= 63.0
 76
    1UNL     C1    1  -0.142  -0.343  -0.420
    1UNL     O1    2  -0.229  -0.300  -0.325
    1UNL     C2    3  -0.188  -0.173  -0.297
    1UNL     O2    4  -0.098  -0.117  -0.355
    1UNL     C3    5  -0.259  -0.104  -0.186
    1UNL     C4    6  -0.210   0.011  -0.137
    1UNL     O3    7  -0.254   0.067  -0.021
    1UNL     C5    8  -0.295  -0.022   0.080
    1UNL     O4    9  -0.179  -0.079   0.142
    1UNL     C6   10  -0.105   0.022   0.204
    1UNL     O5   11  -0.181   0.132   0.268
    1UNL     C7   12  -0.092   0.247   0.307
    1UNL     C8   13  -0.044   0.317   0.181
    1UNL     O6   14   0.043   0.239   0.109
    1UNL     C9   15   0.164   0.310   0.101
    1UNL     O7   16   0.185   0.419   0.156
    1UNL    C10   17   0.263   0.235   0.016
    1UNL    C11   18   0.248   0.115  -0.032
    1UNL    C12   19   0.340   0.047  -0.110
    1UNL    C13   20   0.473   0.080  -0.116
    1UNL    C14   21   0.566   0.003  -0.185
    1UNL     O8   22   0.706   0.038  -0.173
    1UNL    C15   23   0.805  -0.055  -0.188
    1UNL    C16   24   0.522  -0.114  -0.249
    1UNL     O9   25   0.611  -0.199  -0.317
    1UNL    C17   26   0.390  -0.155  -0.229
    1UNL    O10   27   0.341  -0.281  -0.285
    1UNL    C18   28   0.283  -0.370  -0.195
    1UNL    C19   29   0.299  -0.074  -0.171
    1UNL    C20   30   0.030   0.205   0.392
    1UNL    O11   31   0.031   0.275   0.509
    1UNL    C21   32   0.025   0.056   0.428
    1UNL    O12   33   0.126   0.021   0.516
    1UNL    C22   34   0.004  -0.033   0.303
    1UNL    O13   35  -0.012  -0.169   0.347
    1UNL    C23   36  -0.401  -0.119   0.023
    1UNL    C24   37  -0.531  -0.053   0.017
    1UNL    C25   38  -0.588   0.043   0.114
    1UNL    O14   39  -0.531   0.172   0.089
    1UNL    C26   40  -0.583  -0.069  -0.102
    1UNL    C27   41  -0.506  -0.149  -0.197
    1UNL    C28   42  -0.372  -0.177  -0.121
    1UNL     H1   43  -0.157  -0.447  -0.429
    1UNL     H2   44  -0.039  -0.328  -0.384
    1UNL     H3   45  -0.162  -0.286  -0.517
    1UNL     H4   46  -0.126   0.066  -0.178
    1UNL     H5   47  -0.343   0.039   0.158
    1UNL     H6   48  -0.056   0.065   0.121
    1UNL     H7   49  -0.151   0.319   0.368
    1UNL     H8   50  -0.124   0.342   0.118
    1UNL     H9   51  -0.008   0.418   0.210
    1UNL    H10   52   0.343   0.301  -0.018
    1UNL    H11   53   0.161   0.056  -0.015
    1UNL    H12   54   0.515   0.149  -0.043
    1UNL    H13   55   0.802  -0.093  -0.288
    1UNL    H14   56   0.793  -0.144  -0.115
    1UNL    H15   57   0.896  -0.002  -0.169
    1UNL    H16   58   0.562  -0.281  -0.350
    1UNL    H17   59   0.302  -0.346  -0.090
    1UNL    H18   60   0.176  -0.377  -0.217
    1UNL    H19   61   0.323  -0.470  -0.214
    1UNL    H20   62   0.191  -0.101  -0.174
    1UNL    H21   63   0.126   0.228   0.342
    1UNL    H22   64   0.117   0.259   0.559
    1UNL    H23   65  -0.062   0.031   0.494
    1UNL    H24   66   0.136  -0.077   0.523
    1UNL    H25   67   0.104  -0.026   0.243
    1UNL    H26   68  -0.077  -0.204   0.286
    1UNL    H27   69  -0.395  -0.200   0.092
    1UNL    H28   70  -0.559   0.017   0.219
    1UNL    H29   71  -0.700   0.046   0.124
    1UNL    H30   72  -0.467   0.170   0.011
    1UNL    H31   73  -0.672  -0.024  -0.139
    1UNL    H32   74  -0.496  -0.104  -0.296
    1UNL    H33   75  -0.560  -0.242  -0.214
    1UNL    H34   76  -0.342  -0.284  -0.118
   0.00000   0.00000   0.00000   0.00000   0.00000   0.00000   0.00000   0.00000   0.00000
Generated with MDTraj, t= 64.0
 76
    1UNL     C1    1  -0.169  -0.358  -0.441
    1UNL     O1    2  -0.240  -0.327  -0.326
    1UNL     C2    3  -0.185  -0.208  -0.278
    1UNL     O2    4  -0.085  -0.166  -0.332
    1UNL     C3    5  -0.239  -0.134  -0.162
    1UNL     C4    6  -0.183  -0.010  -0.140
    1UNL     O3    7  -0.224   0.071  -0.042
    1UNL     C5    8  -0.289   0.000   0.074
    1UNL     O4    9  -0.189  -0.067   0.153
    1UNL     C6   10  -0.107   0.033   0.206
    1UNL     O5   11  -0.181   0.142   0.274
    1UNL     C7   12  -0.096   0.253   0.315
    1UNL     C8   13  -0.034   0.322   0.192
    1UNL     O6   14   0.060   0.239   0.133
    1UNL     C9   15   0.165   0.317   0.087
    1UNL     O7   16   0.175   0.436   0.099
    1UNL    C10   17   0.271   0.241   0.017
    1UNL    C11   18   0.251   0.121  -0.038
    1UNL    C12   19   0.356   0.039  -0.101
    1UNL    C13   20   0.490   0.084  -0.112
    1UNL    C14   21   0.582   0.013  -0.192
    1UNL     O8   22   0.719   0.039  -0.187
    1UNL    C15   23   0.813  -0.067  -0.206
    1UNL    C16   24   0.532  -0.104  -0.256
    1UNL     O9   25   0.612  -0.177  -0.336
    1UNL    C17   26   0.401  -0.155  -0.237
    1UNL    O10   27   0.375  -0.278  -0.296
    1UNL    C18   28   0.286  -0.372  -0.238
    1UNL    C19   29   0.309  -0.074  -0.164
    1UNL    C20   30   0.005   0.193   0.413
    1UNL    O11   31  -0.024   0.247   0.536
    1UNL    C21   32  -0.006   0.045   0.434
    1UNL    O12   33   0.088  -0.002   0.527
    1UNL    C22   34   0.002  -0.030   0.302
    1UNL    O13   35  -0.017  -0.172   0.320
    1UNL    C23   36  -0.396  -0.102   0.039
    1UNL    C24   37  -0.525  -0.033   0.021
    1UNL    C25   38  -0.595   0.063   0.121
    1UNL    O14   39  -0.565   0.199   0.097
    1UNL    C26   40  -0.580  -0.044  -0.098
    1UNL    C27   41  -0.501  -0.144  -0.174
    1UNL    C28   42  -0.365  -0.174  -0.092
    1UNL     H1   43  -0.178  -0.465  -0.461
    1UNL     H2   44  -0.060  -0.340  -0.412
    1UNL     H3   45  -0.204  -0.290  -0.529
    1UNL     H4   46  -0.089   0.004  -0.200
    1UNL     H5   47  -0.345   0.083   0.125
    1UNL     H6   48  -0.055   0.072   0.122
    1UNL     H7   49  -0.162   0.332   0.362
    1UNL     H8   50  -0.113   0.362   0.131
    1UNL     H9   51   0.015   0.417   0.227
    1UNL    H10   52   0.360   0.301   0.009
    1UNL    H11   53   0.148   0.084  -0.030
    1UNL    H12   54   0.520   0.160  -0.041
    1UNL    H13   55   0.838  -0.071  -0.310
    1UNL    H14   56   0.767  -0.172  -0.186
    1UNL    H15   57   0.902  -0.055  -0.145
    1UNL    H16   58   0.571  -0.259  -0.365
    1UNL    H17   59   0.324  -0.409  -0.141
    1UNL    H18   60   0.190  -0.322  -0.224
    1UNL    H19   61   0.275  -0.459  -0.305
    1UNL    H20   62   0.206  -0.088  -0.170
    1UNL    H21   63   0.105   0.232   0.379
    1UNL    H22   64   0.038   0.214   0.605
    1UNL    H23   65  -0.104   0.018   0.485
    1UNL    H24   66   0.093  -0.098   0.522
    1UNL    H25   67   0.107  -0.010   0.257
    1UNL    H26   68  -0.109  -0.201   0.287
    1UNL    H27   69  -0.398  -0.171   0.120
    1UNL    H28   70  -0.587   0.038   0.230
    1UNL    H29   71  -0.707   0.059   0.107
    1UNL    H30   72  -0.574   0.232   0.004
    1UNL    H31   73  -0.658   0.022  -0.136
    1UNL    H32   74  -0.480  -0.109  -0.274
    1UNL    H33   75  -0.559  -0.236  -0.186
    1UNL    H34   76  -0.355  -0.281  -0.064
   0.00000   0.00000   0.00000   0.00000   0.00000   0.00000   0.00000   0.00000   0.00000
Generated with MDTraj, t= 65.0
 76
    1UNL     C1    1  -0.235  -0.390  -0.398
    1UNL     O1    2  -0.275  -0.315  -0.290
    1UNL     C2    3  -0.171  -0.228  -0.260
    1UNL     O2    4  -0.059  -0.236  -0.305
    1UNL     C3    5  -0.227  -0.127  -0.169
    1UNL     C4    6  -0.167  -0.013  -0.126
    1UNL     O3    7  -0.223   0.079  -0.042
    1UNL     C5    8  -0.292   0.014   0.068
    1UNL     O4    9  -0.197  -0.047   0.162
    1UNL     C6   10  -0.111   0.051   0.212
    1UNL     O5   11  -0.179   0.162   0.273
    1UNL     C7   12  -0.088   0.261   0.332
    1UNL     C8   13   0.011   0.331   0.240
    1UNL     O6   14   0.096   0.243   0.169
    1UNL     C9   15   0.171   0.310   0.078
    1UNL     O7   16   0.170   0.426   0.057
    1UNL    C10   17   0.258   0.235  -0.010
    1UNL    C11   18   0.260   0.104  -0.024
    1UNL    C12   19   0.362   0.031  -0.100
    1UNL    C13   20   0.501   0.069  -0.106
    1UNL    C14   21   0.589   0.005  -0.186
    1UNL     O8   22   0.721   0.064  -0.192
    1UNL    C15   23   0.830  -0.020  -0.232
    1UNL    C16   24   0.541  -0.109  -0.257
    1UNL     O9   25   0.627  -0.192  -0.322
    1UNL    C17   26   0.408  -0.153  -0.256
    1UNL    O10   27   0.374  -0.272  -0.320
    1UNL    C18   28   0.240  -0.321  -0.292
    1UNL    C19   29   0.319  -0.081  -0.173
    1UNL    C20   30  -0.012   0.185   0.439
    1UNL    O11   31  -0.051   0.252   0.566
    1UNL    C21   32  -0.031   0.036   0.442
    1UNL    O12   33   0.061  -0.031   0.532
    1UNL    C22   34  -0.003  -0.020   0.306
    1UNL    O13   35   0.003  -0.165   0.298
    1UNL    C23   36  -0.400  -0.094   0.028
    1UNL    C24   37  -0.533  -0.034  -0.002
    1UNL    C25   38  -0.617   0.059   0.088
    1UNL    O14   39  -0.563   0.186   0.105
    1UNL    C26   40  -0.568  -0.053  -0.127
    1UNL    C27   41  -0.472  -0.139  -0.202
    1UNL    C28   42  -0.356  -0.166  -0.101
    1UNL     H1   43  -0.319  -0.421  -0.462
    1UNL     H2   44  -0.186  -0.477  -0.345
    1UNL     H3   45  -0.160  -0.326  -0.457
    1UNL     H4   46  -0.077   0.015  -0.184
    1UNL     H5   47  -0.356   0.104   0.107
    1UNL     H6   48  -0.058   0.089   0.126
    1UNL     H7   49  -0.152   0.333   0.393
    1UNL     H8   50  -0.040   0.395   0.169
    1UNL     H9   51   0.063   0.408   0.307
    1UNL    H10   52   0.327   0.293  -0.064
    1UNL    H11   53   0.177   0.056   0.024
    1UNL    H12   54   0.551   0.152  -0.061
    1UNL    H13   55   0.802  -0.076  -0.318
    1UNL    H14   56   0.852  -0.100  -0.152
    1UNL    H15   57   0.920   0.039  -0.246
    1UNL    H16   58   0.585  -0.274  -0.363
    1UNL    H17   59   0.217  -0.318  -0.184
    1UNL    H18   60   0.172  -0.256  -0.347
    1UNL    H19   61   0.232  -0.426  -0.323
    1UNL    H20   62   0.217  -0.125  -0.164
    1UNL    H21   63   0.099   0.204   0.434
    1UNL    H22   64   0.004   0.213   0.633
    1UNL    H23   65  -0.137   0.010   0.478
    1UNL    H24   66   0.053  -0.127   0.512
    1UNL    H25   67   0.095   0.023   0.267
    1UNL    H26   68  -0.074  -0.209   0.262
    1UNL    H27   69  -0.401  -0.166   0.105
    1UNL    H28   70  -0.610   0.019   0.191
    1UNL    H29   71  -0.726   0.050   0.064
    1UNL    H30   72  -0.547   0.221   0.015
    1UNL    H31   73  -0.653  -0.006  -0.172
    1UNL    H32   74  -0.434  -0.078  -0.284
    1UNL    H33   75  -0.519  -0.228  -0.242
    1UNL    H34   76  -0.355  -0.273  -0.071
   0.00000   0.00000   0.00000   0.00000   0.00000   0.00000   0.00000   0.00000   0.00000
Generated with MDTraj, t= 66.0
 76
    1UNL     C1    1  -0.187  -0.433  -0.368
    1UNL     O1    2  -0.263  -0.338  -0.305
    1UNL     C2    3  -0.171  -0.260  -0.243
    1UNL     O2    4  -0.051  -0.261  -0.265
    1UNL     C3    5  -0.222  -0.157  -0.147
    1UNL     C4    6  -0.154  -0.046  -0.117
    1UNL     O3    7  -0.213   0.060  -0.053
    1UNL     C5    8  -0.287   0.018   0.058
    1UNL     O4    9  -0.203  -0.031   0.164
    1UNL     C6   10  -0.114   0.073   0.203
    1UNL     O5   11  -0.174   0.186   0.272
    1UNL     C7   12  -0.074   0.271   0.346
    1UNL     C8   13   0.033   0.338   0.267
    1UNL     O6   14   0.113   0.246   0.190
    1UNL     C9   15   0.175   0.309   0.076
    1UNL     O7   16   0.143   0.425   0.055
    1UNL    C10   17   0.267   0.233  -0.007
    1UNL    C11   18   0.258   0.101  -0.016
    1UNL    C12   19   0.357   0.029  -0.094
    1UNL    C13   20   0.485   0.082  -0.124
    1UNL    C14   21   0.586   0.001  -0.183
    1UNL     O8   22   0.710   0.057  -0.190
    1UNL    C15   23   0.800  -0.012  -0.279
    1UNL    C16   24   0.540  -0.116  -0.252
    1UNL     O9   25   0.615  -0.196  -0.325
    1UNL    C17   26   0.407  -0.159  -0.235
    1UNL    O10   27   0.373  -0.269  -0.318
    1UNL    C18   28   0.245  -0.266  -0.381
    1UNL    C19   29   0.324  -0.098  -0.144
    1UNL    C20   30  -0.014   0.180   0.457
    1UNL    O11   31  -0.068   0.225   0.591
    1UNL    C21   32  -0.039   0.034   0.432
    1UNL    O12   33   0.033  -0.041   0.535
    1UNL    C22   34  -0.001  -0.006   0.292
    1UNL    O13   35   0.003  -0.149   0.281
    1UNL    C23   36  -0.403  -0.082   0.020
    1UNL    C24   37  -0.527  -0.005  -0.017
    1UNL    C25   38  -0.615   0.079   0.080
    1UNL    O14   39  -0.552   0.199   0.117
    1UNL    C26   40  -0.567  -0.032  -0.140
    1UNL    C27   41  -0.474  -0.125  -0.212
    1UNL    C28   42  -0.370  -0.172  -0.107
    1UNL     H1   43  -0.246  -0.494  -0.437
    1UNL     H2   44  -0.145  -0.490  -0.283
    1UNL     H3   45  -0.110  -0.374  -0.421
    1UNL     H4   46  -0.060  -0.012  -0.156
    1UNL     H5   47  -0.340   0.115   0.100
    1UNL     H6   48  -0.074   0.109   0.107
    1UNL     H7   49  -0.138   0.353   0.388
    1UNL     H8   50  -0.007   0.426   0.211
    1UNL     H9   51   0.113   0.391   0.331
    1UNL    H10   52   0.342   0.296  -0.060
    1UNL    H11   53   0.171   0.053   0.028
    1UNL    H12   54   0.505   0.187  -0.099
    1UNL    H13   55   0.777   0.008  -0.381
    1UNL    H14   56   0.785  -0.123  -0.270
    1UNL    H15   57   0.905   0.009  -0.253
    1UNL    H16   58   0.579  -0.285  -0.336
    1UNL    H17   59   0.174  -0.294  -0.301
    1UNL    H18   60   0.233  -0.164  -0.413
    1UNL    H19   61   0.240  -0.339  -0.462
    1UNL    H20   62   0.235  -0.144  -0.107
    1UNL    H21   63   0.098   0.191   0.455
    1UNL    H22   64  -0.045   0.153   0.653
    1UNL    H23   65  -0.153   0.021   0.447
    1UNL    H24   66   0.022  -0.135   0.512
    1UNL    H25   67   0.097   0.042   0.263
    1UNL    H26   68  -0.077  -0.199   0.243
    1UNL    H27   69  -0.416  -0.145   0.105
    1UNL    H28   70  -0.655   0.018   0.161
    1UNL    H29   71  -0.706   0.110   0.027
    1UNL    H30   72  -0.549   0.260   0.041
    1UNL    H31   73  -0.662  -0.006  -0.184
    1UNL    H32   74  -0.429  -0.070  -0.294
    1UNL    H33   75  -0.534  -0.206  -0.251
    1UNL    H34   76  -0.385  -0.279  -0.083
   0.00000   0.00000   0.00000   0.00000   0.00000   0.00000   0.00000   0.00000   0.00000
Generated with MDTraj, t= 67.0
 76
    1UNL     C1    1  -0.140  -0.448  -0.331
    1UNL     O1    2  -0.225  -0.379  -0.245
    1UNL     C2    3  -0.152  -0.266  -0.218
    1UNL     O2    4  -0.033  -0.255  -0.244
    1UNL     C3    5  -0.217  -0.161  -0.143
    1UNL     C4    6  -0.145  -0.046  -0.128
    1UNL     O3    7  -0.192   0.063  -0.064
    1UNL     C5    8  -0.276   0.030   0.047
    1UNL     O4    9  -0.204  -0.029   0.149
    1UNL     C6   10  -0.118   0.074   0.194
    1UNL     O5   11  -0.185   0.172   0.267
    1UNL     C7   12  -0.093   0.260   0.347
    1UNL     C8   13   0.014   0.330   0.261
    1UNL     O6   14   0.096   0.238   0.188
    1UNL     C9   15   0.166   0.308   0.095
    1UNL     O7   16   0.156   0.427   0.072
    1UNL    C10   17   0.267   0.237   0.017
    1UNL    C11   18   0.256   0.106   0.002
    1UNL    C12   19   0.351   0.030  -0.077
    1UNL    C13   20   0.487   0.063  -0.094
    1UNL    C14   21   0.571  -0.006  -0.180
    1UNL     O8   22   0.701   0.048  -0.196
    1UNL    C15   23   0.765  -0.000  -0.313
    1UNL    C16   24   0.520  -0.117  -0.250
    1UNL     O9   25   0.593  -0.197  -0.344
    1UNL    C17   26   0.386  -0.153  -0.242
    1UNL    O10   27   0.343  -0.274  -0.322
    1UNL    C18   28   0.245  -0.257  -0.416
    1UNL    C19   29   0.309  -0.084  -0.152
    1UNL    C20   30  -0.024   0.176   0.456
    1UNL    O11   31  -0.085   0.195   0.585
    1UNL    C21   32  -0.043   0.035   0.427
    1UNL    O12   33   0.028  -0.050   0.516
    1UNL    C22   34  -0.009   0.001   0.285
    1UNL    O13   35  -0.007  -0.139   0.262
    1UNL    C23   36  -0.391  -0.068   0.015
    1UNL    C24   37  -0.517   0.007  -0.018
    1UNL    C25   38  -0.581   0.099   0.081
    1UNL    O14   39  -0.517   0.224   0.107
    1UNL    C26   40  -0.558  -0.018  -0.141
    1UNL    C27   41  -0.460  -0.114  -0.211
    1UNL    C28   42  -0.365  -0.168  -0.109
    1UNL     H1   43  -0.172  -0.549  -0.342
    1UNL     H2   44  -0.041  -0.439  -0.291
    1UNL     H3   45  -0.150  -0.398  -0.424
    1UNL     H4   46  -0.039  -0.045  -0.135
    1UNL     H5   47  -0.332   0.123   0.094
    1UNL     H6   48  -0.075   0.120   0.098
    1UNL     H7   49  -0.154   0.337   0.397
    1UNL     H8   50  -0.017   0.406   0.187
    1UNL     H9   51   0.072   0.402   0.328
    1UNL    H10   52   0.345   0.292  -0.024
    1UNL    H11   53   0.169   0.058   0.042
    1UNL    H12   54   0.531   0.150  -0.054
    1UNL    H13   55   0.692  -0.021  -0.386
    1UNL    H14   56   0.814  -0.094  -0.287
    1UNL    H15   57   0.844   0.074  -0.343
    1UNL    H16   58   0.530  -0.250  -0.396
    1UNL    H17   59   0.169  -0.212  -0.350
    1UNL    H18   60   0.289  -0.188  -0.487
    1UNL    H19   61   0.210  -0.351  -0.458
    1UNL    H20   62   0.206  -0.109  -0.140
    1UNL    H21   63   0.085   0.197   0.456
    1UNL    H22   64  -0.067   0.109   0.633
    1UNL    H23   65  -0.154   0.017   0.452
    1UNL    H24   66   0.019  -0.139   0.475
    1UNL    H25   67   0.090   0.046   0.266
    1UNL    H26   68  -0.091  -0.181   0.246
    1UNL    H27   69  -0.411  -0.118   0.107
    1UNL    H28   70  -0.588   0.055   0.179
    1UNL    H29   71  -0.686   0.117   0.059
    1UNL    H30   72  -0.550   0.308   0.064
    1UNL    H31   73  -0.643   0.020  -0.195
    1UNL    H32   74  -0.404  -0.063  -0.288
    1UNL    H33   75  -0.520  -0.186  -0.262
    1UNL    H34   76  -0.389  -0.276  -0.095
   0.00000   0.00000   0.00000   0.00000   0.00000   0.00000   0.00000   0.00000   0.00000
Generated with MDTraj, t= 68.0
 76
    1UNL     C1    1  -0.120  -0.463  -0.233
    1UNL     O1    2  -0.209  -0.360  -0.194
    1UNL     C2    3  -0.140  -0.242  -0.205
    1UNL     O2    4  -0.033  -0.237  -0.259
    1UNL     C3    5  -0.206  -0.127  -0.159
    1UNL     C4    6  -0.158   0.001  -0.144
    1UNL     O3    7  -0.213   0.086  -0.057
    1UNL     C5    8  -0.275   0.009   0.047
    1UNL     O4    9  -0.182  -0.059   0.129
    1UNL     C6   10  -0.110   0.051   0.191
    1UNL     O5   11  -0.183   0.147   0.260
    1UNL     C7   12  -0.104   0.243   0.342
    1UNL     C8   13  -0.002   0.323   0.264
    1UNL     O6   14   0.094   0.238   0.200
    1UNL     C9   15   0.172   0.305   0.115
    1UNL     O7   16   0.196   0.424   0.126
    1UNL    C10   17   0.256   0.222   0.027
    1UNL    C11   18   0.239   0.090  -0.006
    1UNL    C12   19   0.328   0.021  -0.096
    1UNL    C13   20   0.466   0.062  -0.109
    1UNL    C14   21   0.557  -0.011  -0.190
    1UNL     O8   22   0.684   0.057  -0.198
    1UNL    C15   23   0.742   0.022  -0.318
    1UNL    C16   24   0.505  -0.125  -0.260
    1UNL     O9   25   0.579  -0.193  -0.351
    1UNL    C17   26   0.373  -0.167  -0.239
    1UNL    O10   27   0.329  -0.266  -0.329
    1UNL    C18   28   0.200  -0.247  -0.382
    1UNL    C19   29   0.281  -0.090  -0.159
    1UNL    C20   30  -0.031   0.169   0.459
    1UNL    O11   31  -0.093   0.212   0.581
    1UNL    C21   32  -0.031   0.020   0.433
    1UNL    O12   33   0.055  -0.049   0.522
    1UNL    C22   34   0.003  -0.007   0.290
    1UNL    O13   35   0.029  -0.142   0.276
    1UNL    C23   36  -0.392  -0.085   0.009
    1UNL    C24   37  -0.517   0.001  -0.037
    1UNL    C25   38  -0.572   0.110   0.044
    1UNL    O14   39  -0.504   0.234   0.039
    1UNL    C26   40  -0.542  -0.013  -0.168
    1UNL    C27   41  -0.436  -0.114  -0.227
    1UNL    C28   42  -0.344  -0.156  -0.119
    1UNL     H1   43  -0.181  -0.552  -0.247
    1UNL     H2   44  -0.042  -0.472  -0.161
    1UNL     H3   45  -0.080  -0.439  -0.326
    1UNL     H4   46  -0.066   0.025  -0.202
    1UNL     H5   47  -0.321   0.086   0.119
    1UNL     H6   48  -0.061   0.107   0.100
    1UNL     H7   49  -0.181   0.303   0.390
    1UNL     H8   50  -0.055   0.397   0.204
    1UNL     H9   51   0.064   0.390   0.322
    1UNL    H10   52   0.347   0.271  -0.014
    1UNL    H11   53   0.156   0.032   0.030
    1UNL    H12   54   0.502   0.143  -0.043
    1UNL    H13   55   0.676   0.051  -0.398
    1UNL    H14   56   0.742  -0.084  -0.318
    1UNL    H15   57   0.850   0.059  -0.324
    1UNL    H16   58   0.515  -0.255  -0.399
    1UNL    H17   59   0.146  -0.307  -0.307
    1UNL    H18   60   0.177  -0.141  -0.380
    1UNL    H19   61   0.186  -0.295  -0.479
    1UNL    H20   62   0.173  -0.113  -0.149
    1UNL    H21   63   0.073   0.198   0.475
    1UNL    H22   64  -0.079   0.150   0.657
    1UNL    H23   65  -0.124  -0.040   0.452
    1UNL    H24   66   0.070  -0.141   0.483
    1UNL    H25   67   0.093   0.050   0.271
    1UNL    H26   68  -0.056  -0.186   0.240
    1UNL    H27   69  -0.404  -0.152   0.092
    1UNL    H28   70  -0.586   0.079   0.145
    1UNL    H29   71  -0.677   0.122   0.016
    1UNL    H30   72  -0.411   0.220   0.004
    1UNL    H31   73  -0.601   0.057  -0.224
    1UNL    H32   74  -0.388  -0.060  -0.307
    1UNL    H33   75  -0.480  -0.195  -0.280
    1UNL    H34   76  -0.355  -0.265  -0.107
   0.00000   0.00000   0.00000   0.00000   0.00000   0.00000   0.00000   0.00000   0.00000
Generated with MDTraj, t= 69.0
 76
    1UNL     C1    1  -0.060  -0.446  -0.174
    1UNL     O1    2  -0.176  -0.365  -0.178
    1UNL     C2    3  -0.127  -0.243  -0.195
    1UNL     O2    4  -0.020  -0.220  -0.250
    1UNL     C3    5  -0.218  -0.134  -0.149
    1UNL     C4    6  -0.169  -0.010  -0.141
    1UNL     O3    7  -0.209   0.083  -0.048
    1UNL     C5    8  -0.281   0.021   0.059
    1UNL     O4    9  -0.205  -0.064   0.148
    1UNL     C6   10  -0.117   0.034   0.206
    1UNL     O5   11  -0.188   0.132   0.269
    1UNL     C7   12  -0.105   0.237   0.337
    1UNL     C8   13  -0.013   0.317   0.252
    1UNL     O6   14   0.063   0.234   0.168
    1UNL     C9   15   0.185   0.290   0.130
    1UNL     O7   16   0.213   0.407   0.162
    1UNL    C10   17   0.278   0.216   0.052
    1UNL    C11   18   0.242   0.102  -0.007
    1UNL    C12   19   0.319   0.036  -0.111
    1UNL    C13   20   0.455   0.070  -0.109
    1UNL    C14   21   0.546   0.005  -0.194
    1UNL     O8   22   0.681   0.044  -0.202
    1UNL    C15   23   0.739   0.025  -0.323
    1UNL    C16   24   0.504  -0.112  -0.267
    1UNL     O9   25   0.582  -0.181  -0.369
    1UNL    C17   26   0.367  -0.153  -0.260
    1UNL    O10   27   0.339  -0.267  -0.337
    1UNL    C18   28   0.208  -0.292  -0.387
    1UNL    C19   29   0.276  -0.070  -0.196
    1UNL    C20   30  -0.029   0.168   0.456
    1UNL    O11   31  -0.102   0.190   0.574
    1UNL    C21   32  -0.016   0.005   0.439
    1UNL    O12   33   0.078  -0.053   0.528
    1UNL    C22   34   0.000  -0.031   0.293
    1UNL    O13   35   0.012  -0.172   0.265
    1UNL    C23   36  -0.404  -0.055   0.014
    1UNL    C24   37  -0.517   0.032  -0.040
    1UNL    C25   38  -0.569   0.157   0.013
    1UNL    O14   39  -0.517   0.274  -0.047
    1UNL    C26   40  -0.547  -0.007  -0.162
    1UNL    C27   41  -0.458  -0.132  -0.203
    1UNL    C28   42  -0.358  -0.161  -0.096
    1UNL     H1   43  -0.081  -0.534  -0.105
    1UNL     H2   44   0.028  -0.390  -0.141
    1UNL     H3   45  -0.039  -0.485  -0.270
    1UNL     H4   46  -0.089   0.017  -0.216
    1UNL     H5   47  -0.311   0.115   0.116
    1UNL     H6   48  -0.076   0.088   0.110
    1UNL     H7   49  -0.169   0.311   0.382
    1UNL     H8   50  -0.066   0.378   0.180
    1UNL     H9   51   0.043   0.390   0.308
    1UNL    H10   52   0.373   0.256   0.026
    1UNL    H11   53   0.146   0.055   0.014
    1UNL    H12   54   0.496   0.148  -0.048
    1UNL    H13   55   0.660   0.042  -0.395
    1UNL    H14   56   0.765  -0.075  -0.330
    1UNL    H15   57   0.831   0.093  -0.335
    1UNL    H16   58   0.536  -0.258  -0.403
    1UNL    H17   59   0.161  -0.337  -0.297
    1UNL    H18   60   0.160  -0.198  -0.415
    1UNL    H19   61   0.198  -0.367  -0.468
    1UNL    H20   62   0.175  -0.096  -0.208
    1UNL    H21   63   0.066   0.218   0.476
    1UNL    H22   64  -0.071   0.135   0.648
    1UNL    H23   65  -0.109  -0.044   0.468
    1UNL    H24   66   0.095  -0.149   0.516
    1UNL    H25   67   0.091   0.015   0.264
    1UNL    H26   68  -0.067  -0.188   0.213
    1UNL    H27   69  -0.440  -0.107   0.101
    1UNL    H28   70  -0.560   0.145   0.120
    1UNL    H29   71  -0.678   0.160   0.002
    1UNL    H30   72  -0.421   0.263  -0.035
    1UNL    H31   73  -0.623   0.048  -0.218
    1UNL    H32   74  -0.403  -0.106  -0.292
    1UNL    H33   75  -0.519  -0.214  -0.232
    1UNL    H34   76  -0.357  -0.264  -0.057
   0.00000   0.00000   0.00000   0.00000   0.00000   0.00000   0.00000   0.00000   0.00000
Generated with MDTraj, t= 70.0
 76
    1UNL     C1    1  -0.065  -0.443  -0.179
    1UNL     O1    2  -0.155  -0.359  -0.115
    1UNL     C2    3  -0.120  -0.233  -0.153
    1UNL     O2    4  -0.017  -0.210  -0.210
    1UNL     C3    5  -0.221  -0.133  -0.124
    1UNL     C4    6  -0.187  -0.003  -0.135
    1UNL     O3    7  -0.246   0.093  -0.048
    1UNL     C5    8  -0.312   0.040   0.069
    1UNL     O4    9  -0.236  -0.032   0.158
    1UNL     C6   10  -0.137   0.055   0.209
    1UNL     O5   11  -0.194   0.155   0.292
    1UNL     C7   12  -0.098   0.237   0.362
    1UNL     C8   13  -0.015   0.309   0.259
    1UNL     O6   14   0.057   0.224   0.170
    1UNL     C9   15   0.183   0.271   0.144
    1UNL     O7   16   0.226   0.374   0.201
    1UNL    C10   17   0.264   0.214   0.039
    1UNL    C11   18   0.248   0.101  -0.029
    1UNL    C12   19   0.341   0.037  -0.126
    1UNL    C13   20   0.466   0.083  -0.142
    1UNL    C14   21   0.555   0.005  -0.215
    1UNL     O8   22   0.687   0.057  -0.220
    1UNL    C15   23   0.765   0.020  -0.326
    1UNL    C16   24   0.511  -0.114  -0.286
    1UNL     O9   25   0.594  -0.178  -0.366
    1UNL    C17   26   0.375  -0.145  -0.275
    1UNL    O10   27   0.341  -0.255  -0.358
    1UNL    C18   28   0.205  -0.267  -0.392
    1UNL    C19   29   0.294  -0.078  -0.190
    1UNL    C20   30  -0.012   0.151   0.463
    1UNL    O11   31  -0.050   0.175   0.594
    1UNL    C21   32  -0.014  -0.004   0.432
    1UNL    O12   33   0.076  -0.061   0.514
    1UNL    C22   34  -0.022  -0.035   0.277
    1UNL    O13   35  -0.047  -0.173   0.261
    1UNL    C23   36  -0.421  -0.049   0.023
    1UNL    C24   37  -0.528   0.023  -0.065
    1UNL    C25   38  -0.574   0.167  -0.038
    1UNL    O14   39  -0.482   0.252  -0.107
    1UNL    C26   40  -0.539  -0.037  -0.188
    1UNL    C27   41  -0.453  -0.161  -0.192
    1UNL    C28   42  -0.363  -0.165  -0.074
    1UNL     H1   43  -0.117  -0.546  -0.194
    1UNL     H2   44   0.031  -0.457  -0.121
    1UNL     H3   45  -0.038  -0.406  -0.278
    1UNL     H4   46  -0.094   0.032  -0.175
    1UNL     H5   47  -0.357   0.126   0.122
    1UNL     H6   48  -0.103   0.107   0.110
    1UNL     H7   49  -0.156   0.314   0.414
    1UNL     H8   50  -0.078   0.385   0.210
    1UNL     H9   51   0.058   0.368   0.310
    1UNL    H10   52   0.355   0.265   0.019
    1UNL    H11   53   0.160   0.047  -0.006
    1UNL    H12   54   0.501   0.176  -0.106
    1UNL    H13   55   0.705   0.036  -0.416
    1UNL    H14   56   0.783  -0.082  -0.321
    1UNL    H15   57   0.865   0.075  -0.326
    1UNL    H16   58   0.544  -0.223  -0.442
    1UNL    H17   59   0.151  -0.201  -0.323
    1UNL    H18   60   0.187  -0.238  -0.497
    1UNL    H19   61   0.157  -0.365  -0.371
    1UNL    H20   62   0.185  -0.094  -0.172
    1UNL    H21   63   0.091   0.181   0.451
    1UNL    H22   64  -0.000   0.109   0.645
    1UNL    H23   65  -0.107  -0.046   0.463
    1UNL    H24   66   0.080  -0.157   0.502
    1UNL    H25   67   0.077  -0.017   0.245
    1UNL    H26   68  -0.144  -0.185   0.231
    1UNL    H27   69  -0.471  -0.098   0.103
    1UNL    H28   70  -0.574   0.200   0.067
    1UNL    H29   71  -0.680   0.184  -0.069
    1UNL    H30   72  -0.392   0.211  -0.111
    1UNL    H31   73  -0.597  -0.005  -0.273
    1UNL    H32   74  -0.391  -0.160  -0.280
    1UNL    H33   75  -0.514  -0.248  -0.196
    1UNL    H34   76  -0.361  -0.267  -0.033
   0.00000   0.00000   0.00000   0.00000   0.00000   0.00000   0.00000   0.00000   0.00000
Generated with MDTraj, t= 71.0
 76
    1UNL     C1    1  -0.085  -0.436  -0.149
    1UNL     O1    2  -0.190  -0.345  -0.147
    1UNL     C2    3  -0.133  -0.220  -0.141
    1UNL     O2    4  -0.019  -0.201  -0.173
    1UNL     C3    5  -0.217  -0.126  -0.086
    1UNL     C4    6  -0.177   0.008  -0.076
    1UNL     O3    7  -0.248   0.105  -0.012
    1UNL     C5    8  -0.351   0.051   0.080
    1UNL     O4    9  -0.278  -0.011   0.193
    1UNL     C6   10  -0.158   0.056   0.218
    1UNL     O5   11  -0.184   0.167   0.307
    1UNL     C7   12  -0.077   0.241   0.364
    1UNL     C8   13   0.008   0.306   0.259
    1UNL     O6   14   0.084   0.213   0.182
    1UNL     C9   15   0.204   0.268   0.164
    1UNL     O7   16   0.247   0.373   0.210
    1UNL    C10   17   0.296   0.205   0.071
    1UNL    C11   18   0.253   0.114  -0.023
    1UNL    C12   19   0.337   0.037  -0.118
    1UNL    C13   20   0.469   0.077  -0.137
    1UNL    C14   21   0.557   0.013  -0.220
    1UNL     O8   22   0.674   0.085  -0.255
    1UNL    C15   23   0.770   0.003  -0.310
    1UNL    C16   24   0.506  -0.095  -0.292
    1UNL     O9   25   0.582  -0.157  -0.386
    1UNL    C17   26   0.374  -0.140  -0.279
    1UNL    O10   27   0.335  -0.255  -0.351
    1UNL    C18   28   0.215  -0.245  -0.417
    1UNL    C19   29   0.290  -0.077  -0.191
    1UNL    C20   30   0.014   0.142   0.446
    1UNL    O11   31   0.030   0.184   0.581
    1UNL    C21   32  -0.029  -0.002   0.430
    1UNL    O12   33   0.052  -0.099   0.485
    1UNL    C22   34  -0.049  -0.033   0.279
    1UNL    O13   35  -0.074  -0.170   0.255
    1UNL    C23   36  -0.443  -0.047   0.010
    1UNL    C24   37  -0.519   0.002  -0.119
    1UNL    C25   38  -0.579   0.135  -0.145
    1UNL    O14   39  -0.490   0.249  -0.144
    1UNL    C26   40  -0.515  -0.091  -0.217
    1UNL    C27   41  -0.439  -0.211  -0.173
    1UNL    C28   42  -0.360  -0.167  -0.047
    1UNL     H1   43  -0.112  -0.519  -0.073
    1UNL     H2   44   0.015  -0.395  -0.118
    1UNL     H3   45  -0.069  -0.481  -0.248
    1UNL     H4   46  -0.080   0.037  -0.106
    1UNL     H5   47  -0.409   0.127   0.129
    1UNL     H6   48  -0.129   0.097   0.114
    1UNL     H7   49  -0.117   0.305   0.445
    1UNL     H8   50  -0.055   0.371   0.194
    1UNL     H9   51   0.077   0.368   0.316
    1UNL    H10   52   0.400   0.244   0.063
    1UNL    H11   53   0.153   0.072  -0.016
    1UNL    H12   54   0.507   0.174  -0.098
    1UNL    H13   55   0.746  -0.011  -0.417
    1UNL    H14   56   0.764  -0.093  -0.268
    1UNL    H15   57   0.875   0.043  -0.295
    1UNL    H16   58   0.543  -0.238  -0.418
    1UNL    H17   59   0.140  -0.270  -0.342
    1UNL    H18   60   0.203  -0.146  -0.465
    1UNL    H19   61   0.196  -0.323  -0.495
    1UNL    H20   62   0.196  -0.125  -0.178
    1UNL    H21   63   0.115   0.152   0.406
    1UNL    H22   64   0.072   0.121   0.642
    1UNL    H23   65  -0.124  -0.004   0.475
    1UNL    H24   66   0.041  -0.187   0.435
    1UNL    H25   67   0.045  -0.012   0.234
    1UNL    H26   68  -0.149  -0.180   0.197
    1UNL    H27   69  -0.517  -0.083   0.078
    1UNL    H28   70  -0.659   0.156  -0.071
    1UNL    H29   71  -0.635   0.141  -0.242
    1UNL    H30   72  -0.399   0.213  -0.128
    1UNL    H31   73  -0.560  -0.074  -0.315
    1UNL    H32   74  -0.379  -0.257  -0.250
    1UNL    H33   75  -0.513  -0.280  -0.139
    1UNL    H34   76  -0.359  -0.248   0.028
   0.00000   0.00000   0.00000   0.00000   0.00000   0.00000   0.00000   0.00000   0.00000
Generated with MDTraj, t= 72.0
 76
    1UNL     C1    1  -0.069  -0.420  -0.185
    1UNL     O1    2  -0.168  -0.349  -0.111
    1UNL     C2    3  -0.113  -0.228  -0.107
    1UNL     O2    4  -0.001  -0.193  -0.140
    1UNL     C3    5  -0.213  -0.126  -0.072
    1UNL     C4    6  -0.174   0.004  -0.069
    1UNL     O3    7  -0.246   0.110  -0.036
    1UNL     C5    8  -0.348   0.071   0.050
    1UNL     O4    9  -0.292   0.022   0.174
    1UNL     C6   10  -0.171   0.079   0.219
    1UNL     O5   11  -0.185   0.187   0.323
    1UNL     C7   12  -0.055   0.242   0.379
    1UNL     C8   13   0.018   0.311   0.269
    1UNL     O6   14   0.076   0.233   0.167
    1UNL     C9   15   0.208   0.273   0.163
    1UNL     O7   16   0.255   0.362   0.228
    1UNL    C10   17   0.299   0.197   0.079
    1UNL    C11   18   0.259   0.092  -0.001
    1UNL    C12   19   0.348   0.033  -0.103
    1UNL    C13   20   0.471   0.087  -0.141
    1UNL    C14   21   0.544   0.028  -0.239
    1UNL     O8   22   0.668   0.076  -0.266
    1UNL    C15   23   0.769  -0.017  -0.309
    1UNL    C16   24   0.498  -0.083  -0.307
    1UNL     O9   25   0.572  -0.137  -0.406
    1UNL    C17   26   0.371  -0.135  -0.283
    1UNL    O10   27   0.313  -0.242  -0.350
    1UNL    C18   28   0.181  -0.223  -0.385
    1UNL    C19   29   0.298  -0.076  -0.173
    1UNL    C20   30   0.032   0.132   0.439
    1UNL    O11   31   0.071   0.156   0.579
    1UNL    C21   32  -0.042  -0.006   0.425
    1UNL    O12   33   0.039  -0.121   0.462
    1UNL    C22   34  -0.081  -0.032   0.275
    1UNL    O13   35  -0.144  -0.164   0.273
    1UNL    C23   36  -0.434  -0.043   0.003
    1UNL    C24   37  -0.513  -0.014  -0.123
    1UNL    C25   38  -0.569   0.118  -0.157
    1UNL    O14   39  -0.476   0.218  -0.185
    1UNL    C26   40  -0.514  -0.118  -0.211
    1UNL    C27   41  -0.430  -0.232  -0.161
    1UNL    C28   42  -0.352  -0.169  -0.035
    1UNL     H1   43  -0.078  -0.532  -0.181
    1UNL     H2   44   0.029  -0.405  -0.140
    1UNL     H3   45  -0.059  -0.383  -0.287
    1UNL     H4   46  -0.073   0.020  -0.107
    1UNL     H5   47  -0.407   0.157   0.065
    1UNL     H6   48  -0.129   0.127   0.123
    1UNL     H7   49  -0.090   0.311   0.459
    1UNL     H8   50  -0.066   0.364   0.214
    1UNL     H9   51   0.093   0.381   0.308
    1UNL    H10   52   0.391   0.242   0.063
    1UNL    H11   53   0.162   0.050   0.006
    1UNL    H12   54   0.497   0.174  -0.091
    1UNL    H13   55   0.758  -0.043  -0.417
    1UNL    H14   56   0.764  -0.110  -0.257
    1UNL    H15   57   0.870   0.026  -0.290
    1UNL    H16   58   0.512  -0.210  -0.443
    1UNL    H17   59   0.118  -0.293  -0.333
    1UNL    H18   60   0.159  -0.118  -0.367
    1UNL    H19   61   0.158  -0.236  -0.493
    1UNL    H20   62   0.208  -0.126  -0.131
    1UNL    H21   63   0.116   0.113   0.370
    1UNL    H22   64   0.135   0.091   0.619
    1UNL    H23   65  -0.132  -0.001   0.481
    1UNL    H24   66   0.011  -0.202   0.418
    1UNL    H25   67   0.005  -0.039   0.210
    1UNL    H26   68  -0.213  -0.169   0.199
    1UNL    H27   69  -0.506  -0.064   0.079
    1UNL    H28   70  -0.640   0.150  -0.077
    1UNL    H29   71  -0.630   0.107  -0.250
    1UNL    H30   72  -0.383   0.195  -0.162
    1UNL    H31   73  -0.580  -0.113  -0.295
    1UNL    H32   74  -0.365  -0.267  -0.237
    1UNL    H33   75  -0.495  -0.312  -0.133
    1UNL    H34   76  -0.348  -0.237   0.052
   0.00000   0.00000   0.00000   0.00000   0.00000   0.00000   0.00000   0.00000   0.00000
Generated with MDTraj, t= 73.0
 76
    1UNL     C1    1  -0.050  -0.439  -0.165
    1UNL     O1    2  -0.155  -0.358  -0.124
    1UNL     C2    3  -0.099  -0.237  -0.103
    1UNL     O2    4   0.016  -0.206  -0.123
    1UNL     C3    5  -0.188  -0.126  -0.061
    1UNL     C4    6  -0.149  -0.001  -0.062
    1UNL     O3    7  -0.239   0.106  -0.043
    1UNL     C5    8  -0.343   0.069   0.048
    1UNL     O4    9  -0.317   0.054   0.193
    1UNL     C6   10  -0.183   0.089   0.231
    1UNL     O5   11  -0.185   0.192   0.337
    1UNL     C7   12  -0.056   0.239   0.383
    1UNL     C8   13   0.012   0.320   0.273
    1UNL     O6   14   0.087   0.247   0.169
    1UNL     C9   15   0.224   0.282   0.167
    1UNL     O7   16   0.269   0.357   0.250
    1UNL    C10   17   0.307   0.212   0.069
    1UNL    C11   18   0.266   0.099   0.014
    1UNL    C12   19   0.337   0.035  -0.096
    1UNL    C13   20   0.466   0.069  -0.133
    1UNL    C14   21   0.538   0.020  -0.237
    1UNL     O8   22   0.679   0.063  -0.240
    1UNL    C15   23   0.766  -0.014  -0.321
    1UNL    C16   24   0.477  -0.074  -0.316
    1UNL     O9   25   0.552  -0.127  -0.420
    1UNL    C17   26   0.345  -0.118  -0.287
    1UNL    O10   27   0.282  -0.203  -0.384
    1UNL    C18   28   0.156  -0.253  -0.363
    1UNL    C19   29   0.273  -0.059  -0.182
    1UNL    C20   30   0.025   0.122   0.425
    1UNL    O11   31   0.072   0.125   0.564
    1UNL    C21   32  -0.048  -0.014   0.417
    1UNL    O12   33   0.052  -0.114   0.448
    1UNL    C22   34  -0.107  -0.035   0.275
    1UNL    O13   35  -0.192  -0.154   0.266
    1UNL    C23   36  -0.428  -0.050   0.005
    1UNL    C24   37  -0.511  -0.015  -0.117
    1UNL    C25   38  -0.551   0.125  -0.150
    1UNL    O14   39  -0.466   0.186  -0.245
    1UNL    C26   40  -0.492  -0.113  -0.206
    1UNL    C27   41  -0.411  -0.222  -0.157
    1UNL    C28   42  -0.333  -0.167  -0.041
    1UNL     H1   43  -0.075  -0.542  -0.143
    1UNL     H2   44   0.033  -0.427  -0.102
    1UNL     H3   45  -0.022  -0.426  -0.268
    1UNL     H4   46  -0.040   0.021  -0.087
    1UNL     H5   47  -0.400   0.155   0.040
    1UNL     H6   48  -0.135   0.136   0.139
    1UNL     H7   49  -0.074   0.309   0.469
    1UNL     H8   50  -0.057   0.389   0.213
    1UNL     H9   51   0.086   0.384   0.323
    1UNL    H10   52   0.407   0.253   0.040
    1UNL    H11   53   0.159   0.072   0.026
    1UNL    H12   54   0.533   0.105  -0.052
    1UNL    H13   55   0.716  -0.058  -0.413
    1UNL    H14   56   0.800  -0.099  -0.263
    1UNL    H15   57   0.853   0.044  -0.350
    1UNL    H16   58   0.496  -0.181  -0.478
    1UNL    H17   59   0.142  -0.274  -0.258
    1UNL    H18   60   0.091  -0.184  -0.414
    1UNL    H19   61   0.143  -0.351  -0.410
    1UNL    H20   62   0.167  -0.079  -0.168
    1UNL    H21   63   0.108   0.113   0.351
    1UNL    H22   64   0.123   0.046   0.592
    1UNL    H23   65  -0.118  -0.005   0.498
    1UNL    H24   66   0.033  -0.192   0.395
    1UNL    H25   67  -0.018  -0.051   0.211
    1UNL    H26   68  -0.284  -0.120   0.267
    1UNL    H27   69  -0.498  -0.076   0.081
    1UNL    H28   70  -0.545   0.188  -0.060
    1UNL    H29   71  -0.658   0.119  -0.180
    1UNL    H30   72  -0.375   0.160  -0.222
    1UNL    H31   73  -0.541  -0.113  -0.303
    1UNL    H32   74  -0.340  -0.252  -0.231
    1UNL    H33   75  -0.471  -0.306  -0.127
    1UNL    H34   76  -0.332  -0.242   0.042
   0.00000   0.00000   0.00000   0.00000   0.00000   0.00000   0.00000   0.00000   0.00000
Generated with MDTraj, t= 74.0
 76
    1UNL     C1    1  -0.058  -0.467  -0.102
    1UNL     O1    2  -0.154  -0.367  -0.104
    1UNL     C2    3  -0.091  -0.241  -0.096
    1UNL     O2    4   0.028  -0.228  -0.119
    1UNL     C3    5  -0.189  -0.137  -0.058
    1UNL     C4    6  -0.149  -0.009  -0.046
    1UNL     O3    7  -0.226   0.104  -0.037
    1UNL     C5    8  -0.342   0.082   0.042
    1UNL     O4    9  -0.323   0.064   0.188
    1UNL     C6   10  -0.195   0.105   0.243
    1UNL     O5   11  -0.185   0.190   0.362
    1UNL     C7   12  -0.051   0.230   0.397
    1UNL     C8   13   0.019   0.324   0.285
    1UNL     O6   14   0.082   0.245   0.185
    1UNL     C9   15   0.216   0.270   0.179
    1UNL     O7   16   0.270   0.355   0.245
    1UNL    C10   17   0.299   0.191   0.090
    1UNL    C11   18   0.244   0.118  -0.005
    1UNL    C12   19   0.331   0.054  -0.110
    1UNL    C13   20   0.466   0.075  -0.119
    1UNL    C14   21   0.536   0.020  -0.228
    1UNL     O8   22   0.678   0.033  -0.231
    1UNL    C15   23   0.758  -0.019  -0.336
    1UNL    C16   24   0.466  -0.063  -0.323
    1UNL     O9   25   0.534  -0.108  -0.426
    1UNL    C17   26   0.327  -0.091  -0.309
    1UNL    O10   27   0.268  -0.177  -0.413
    1UNL    C18   28   0.178  -0.272  -0.353
    1UNL    C19   29   0.262  -0.035  -0.202
    1UNL    C20   30   0.034   0.110   0.431
    1UNL    O11   31   0.101   0.122   0.560
    1UNL    C21   32  -0.039  -0.018   0.413
    1UNL    O12   33   0.052  -0.121   0.430
    1UNL    C22   34  -0.115  -0.022   0.274
    1UNL    O13   35  -0.197  -0.139   0.264
    1UNL    C23   36  -0.429  -0.031  -0.015
    1UNL    C24   37  -0.486  -0.017  -0.161
    1UNL    C25   38  -0.552   0.113  -0.210
    1UNL    O14   39  -0.457   0.214  -0.247
    1UNL    C26   40  -0.474  -0.132  -0.227
    1UNL    C27   41  -0.403  -0.238  -0.148
    1UNL    C28   42  -0.337  -0.165  -0.027
    1UNL     H1   43  -0.098  -0.565  -0.084
    1UNL     H2   44   0.006  -0.448  -0.022
    1UNL     H3   45  -0.005  -0.467  -0.196
    1UNL     H4   46  -0.048   0.022  -0.050
    1UNL     H5   47  -0.395   0.171   0.045
    1UNL     H6   48  -0.149   0.166   0.160
    1UNL     H7   49  -0.056   0.289   0.492
    1UNL     H8   50  -0.054   0.402   0.242
    1UNL     H9   51   0.099   0.388   0.322
    1UNL    H10   52   0.404   0.193   0.107
    1UNL    H11   53   0.146   0.147  -0.033
    1UNL    H12   54   0.517   0.124  -0.039
    1UNL    H13   55   0.728   0.028  -0.435
    1UNL    H14   56   0.732  -0.127  -0.342
    1UNL    H15   57   0.861  -0.010  -0.311
    1UNL    H16   58   0.489  -0.183  -0.474
    1UNL    H17   59   0.232  -0.331  -0.279
    1UNL    H18   60   0.097  -0.210  -0.321
    1UNL    H19   61   0.136  -0.342  -0.425
    1UNL    H20   62   0.160  -0.054  -0.185
    1UNL    H21   63   0.118   0.095   0.358
    1UNL    H22   64   0.158   0.046   0.580
    1UNL    H23   65  -0.115  -0.032   0.491
    1UNL    H24   66  -0.005  -0.203   0.410
    1UNL    H25   67  -0.036  -0.037   0.195
    1UNL    H26   68  -0.268  -0.136   0.332
    1UNL    H27   69  -0.510  -0.046   0.052
    1UNL    H28   70  -0.628   0.150  -0.141
    1UNL    H29   71  -0.599   0.090  -0.306
    1UNL    H30   72  -0.376   0.195  -0.199
    1UNL    H31   73  -0.528  -0.145  -0.319
    1UNL    H32   74  -0.326  -0.289  -0.200
    1UNL    H33   75  -0.470  -0.313  -0.111
    1UNL    H34   76  -0.350  -0.228   0.064
   0.00000   0.00000   0.00000   0.00000   0.00000   0.00000   0.00000   0.00000   0.00000
Generated with MDTraj, t= 75.0
 76
    1UNL     C1    1  -0.065  -0.475  -0.067
    1UNL     O1    2  -0.143  -0.366  -0.028
    1UNL     C2    3  -0.080  -0.245  -0.056
    1UNL     O2    4   0.031  -0.234  -0.107
    1UNL     C3    5  -0.179  -0.137  -0.036
    1UNL     C4    6  -0.136  -0.004  -0.065
    1UNL     O3    7  -0.215   0.102  -0.057
    1UNL     C5    8  -0.328   0.084   0.034
    1UNL     O4    9  -0.298   0.055   0.170
    1UNL     C6   10  -0.173   0.103   0.215
    1UNL     O5   11  -0.189   0.177   0.332
    1UNL     C7   12  -0.054   0.219   0.375
    1UNL     C8   13   0.007   0.324   0.281
    1UNL     O6   14   0.068   0.255   0.177
    1UNL     C9   15   0.201   0.269   0.177
    1UNL     O7   16   0.254   0.325   0.267
    1UNL    C10   17   0.286   0.211   0.072
    1UNL    C11   18   0.236   0.116  -0.008
    1UNL    C12   19   0.311   0.052  -0.111
    1UNL    C13   20   0.449   0.069  -0.123
    1UNL    C14   21   0.528   0.022  -0.225
    1UNL     O8   22   0.670   0.034  -0.226
    1UNL    C15   23   0.738  -0.016  -0.339
    1UNL    C16   24   0.451  -0.046  -0.326
    1UNL     O9   25   0.526  -0.120  -0.421
    1UNL    C17   26   0.308  -0.065  -0.320
    1UNL    O10   27   0.259  -0.154  -0.414
    1UNL    C18   28   0.193  -0.273  -0.360
    1UNL    C19   29   0.236  -0.005  -0.213
    1UNL    C20   30   0.041   0.102   0.415
    1UNL    O11   31   0.083   0.121   0.550
    1UNL    C21   32  -0.043  -0.031   0.395
    1UNL    O12   33   0.030  -0.148   0.419
    1UNL    C22   34  -0.105  -0.038   0.255
    1UNL    O13   35  -0.207  -0.141   0.253
    1UNL    C23   36  -0.414  -0.031  -0.010
    1UNL    C24   37  -0.476  -0.005  -0.152
    1UNL    C25   38  -0.509   0.131  -0.199
    1UNL    O14   39  -0.397   0.216  -0.223
    1UNL    C26   40  -0.464  -0.114  -0.224
    1UNL    C27   41  -0.406  -0.232  -0.138
    1UNL    C28   42  -0.328  -0.162  -0.013
    1UNL     H1   43  -0.116  -0.569  -0.054
    1UNL     H2   44   0.022  -0.474  -0.002
    1UNL     H3   45  -0.034  -0.459  -0.173
    1UNL     H4   46  -0.036   0.022  -0.097
    1UNL     H5   47  -0.389   0.168   0.038
    1UNL     H6   48  -0.123   0.165   0.137
    1UNL     H7   49  -0.059   0.280   0.468
    1UNL     H8   50  -0.071   0.387   0.231
    1UNL     H9   51   0.077   0.390   0.326
    1UNL    H10   52   0.383   0.249   0.056
    1UNL    H11   53   0.129   0.091  -0.006
    1UNL    H12   54   0.499   0.123  -0.046
    1UNL    H13   55   0.673   0.008  -0.427
    1UNL    H14   56   0.735  -0.128  -0.330
    1UNL    H15   57   0.836   0.022  -0.340
    1UNL    H16   58   0.469  -0.163  -0.489
    1UNL    H17   59   0.245  -0.301  -0.268
    1UNL    H18   60   0.088  -0.251  -0.346
    1UNL    H19   61   0.203  -0.356  -0.432
    1UNL    H20   62   0.136  -0.052  -0.198
    1UNL    H21   63   0.138   0.094   0.361
    1UNL    H22   64   0.108   0.034   0.587
    1UNL    H23   65  -0.121  -0.024   0.479
    1UNL    H24   66  -0.034  -0.225   0.426
    1UNL    H25   67  -0.024  -0.064   0.179
    1UNL    H26   68  -0.281  -0.105   0.312
    1UNL    H27   69  -0.497  -0.050   0.054
    1UNL    H28   70  -0.561   0.180  -0.119
    1UNL    H29   71  -0.571   0.130  -0.288
    1UNL    H30   72  -0.317   0.176  -0.178
    1UNL    H31   73  -0.504  -0.133  -0.322
    1UNL    H32   74  -0.334  -0.298  -0.181
    1UNL    H33   75  -0.482  -0.294  -0.097
    1UNL    H34   76  -0.342  -0.225   0.079
   0.00000   0.00000   0.00000   0.00000   0.00000   0.00000   0.00000   0.00000   0.00000
Generated with MDTraj, t= 76.0
 76
    1UNL     C1    1  -0.040  -0.464  -0.001
    1UNL     O1    2  -0.145  -0.384  -0.031
    1UNL     C2    3  -0.097  -0.260  -0.062
    1UNL     O2    4   0.015  -0.233  -0.100
    1UNL     C3    5  -0.193  -0.147  -0.045
    1UNL     C4    6  -0.132  -0.024  -0.039
    1UNL     O3    7  -0.202   0.091  -0.038
    1UNL     C5    8  -0.324   0.081   0.036
    1UNL     O4    9  -0.307   0.056   0.182
    1UNL     C6   10  -0.190   0.097   0.240
    1UNL     O5   11  -0.197   0.179   0.354
    1UNL     C7   12  -0.057   0.226   0.398
    1UNL     C8   13   0.008   0.332   0.305
    1UNL     O6   14   0.066   0.270   0.188
    1UNL     C9   15   0.207   0.269   0.186
    1UNL     O7   16   0.267   0.308   0.285
    1UNL    C10   17   0.282   0.213   0.072
    1UNL    C11   18   0.225   0.141  -0.028
    1UNL    C12   19   0.301   0.064  -0.123
    1UNL    C13   20   0.439   0.084  -0.134
    1UNL    C14   21   0.510   0.020  -0.236
    1UNL     O8   22   0.654   0.045  -0.231
    1UNL    C15   23   0.745   0.004  -0.331
    1UNL    C16   24   0.447  -0.060  -0.333
    1UNL     O9   25   0.515  -0.123  -0.434
    1UNL    C17   26   0.308  -0.085  -0.326
    1UNL    O10   27   0.246  -0.175  -0.414
    1UNL    C18   28   0.147  -0.267  -0.363
    1UNL    C19   29   0.237  -0.017  -0.214
    1UNL    C20   30   0.044   0.105   0.425
    1UNL    O11   31   0.104   0.111   0.555
    1UNL    C21   32  -0.037  -0.032   0.401
    1UNL    O12   33   0.051  -0.138   0.429
    1UNL    C22   34  -0.104  -0.032   0.265
    1UNL    O13   35  -0.181  -0.143   0.253
    1UNL    C23   36  -0.419  -0.029  -0.027
    1UNL    C24   37  -0.473  -0.002  -0.176
    1UNL    C25   38  -0.498   0.140  -0.229
    1UNL    O14   39  -0.373   0.196  -0.267
    1UNL    C26   40  -0.446  -0.100  -0.259
    1UNL    C27   41  -0.392  -0.213  -0.181
    1UNL    C28   42  -0.338  -0.161  -0.048
    1UNL     H1   43  -0.073  -0.528   0.081
    1UNL     H2   44   0.049  -0.403   0.031
    1UNL     H3   45  -0.017  -0.524  -0.098
    1UNL     H4   46  -0.022  -0.028  -0.039
    1UNL     H5   47  -0.366   0.177   0.036
    1UNL     H6   48  -0.137   0.156   0.164
    1UNL     H7   49  -0.080   0.278   0.491
    1UNL     H8   50  -0.052   0.422   0.283
    1UNL     H9   51   0.096   0.359   0.356
    1UNL    H10   52   0.393   0.228   0.072
    1UNL    H11   53   0.122   0.119  -0.036
    1UNL    H12   54   0.490   0.147  -0.059
    1UNL    H13   55   0.701   0.035  -0.428
    1UNL    H14   56   0.759  -0.108  -0.324
    1UNL    H15   57   0.831   0.053  -0.301
    1UNL    H16   58   0.467  -0.203  -0.461
    1UNL    H17   59   0.200  -0.361  -0.342
    1UNL    H18   60   0.102  -0.223  -0.274
    1UNL    H19   61   0.071  -0.279  -0.443
    1UNL    H20   62   0.140  -0.048  -0.189
    1UNL    H21   63   0.128   0.110   0.353
    1UNL    H22   64   0.138   0.020   0.573
    1UNL    H23   65  -0.125  -0.040   0.475
    1UNL    H24   66   0.006  -0.224   0.428
    1UNL    H25   67  -0.029  -0.047   0.177
    1UNL    H26   68  -0.270  -0.123   0.279
    1UNL    H27   69  -0.500  -0.049   0.039
    1UNL    H28   70  -0.540   0.204  -0.155
    1UNL    H29   71  -0.558   0.138  -0.319
    1UNL    H30   72  -0.303   0.171  -0.205
    1UNL    H31   73  -0.459  -0.096  -0.366
    1UNL    H32   74  -0.309  -0.264  -0.227
    1UNL    H33   75  -0.466  -0.286  -0.155
    1UNL    H34   76  -0.372  -0.231   0.036
   0.00000   0.00000   0.00000   0.00000   0.00000   0.00000   0.00000   0.00000   0.00000
Generated with MDTraj, t= 77.0
 76
    1UNL     C1    1  -0.057  -0.470   0.001
    1UNL     O1    2  -0.154  -0.369  -0.001
    1UNL     C2    3  -0.094  -0.256  -0.051
    1UNL     O2    4   0.025  -0.244  -0.073
    1UNL     C3    5  -0.187  -0.144  -0.073
    1UNL     C4    6  -0.130  -0.028  -0.072
    1UNL     O3    7  -0.186   0.094  -0.045
    1UNL     C5    8  -0.306   0.082   0.025
    1UNL     O4    9  -0.298   0.040   0.164
    1UNL     C6   10  -0.183   0.087   0.231
    1UNL     O5   11  -0.190   0.177   0.343
    1UNL     C7   12  -0.055   0.224   0.384
    1UNL     C8   13  -0.003   0.323   0.283
    1UNL     O6   14   0.056   0.256   0.177
    1UNL     C9   15   0.190   0.247   0.189
    1UNL     O7   16   0.259   0.306   0.272
    1UNL    C10   17   0.268   0.175   0.095
    1UNL    C11   18   0.218   0.135  -0.018
    1UNL    C12   19   0.291   0.073  -0.128
    1UNL    C13   20   0.426   0.097  -0.141
    1UNL    C14   21   0.502   0.043  -0.244
    1UNL     O8   22   0.639   0.065  -0.247
    1UNL    C15   23   0.705   0.001  -0.355
    1UNL    C16   24   0.436  -0.053  -0.322
    1UNL     O9   25   0.507  -0.138  -0.409
    1UNL    C17   26   0.302  -0.073  -0.309
    1UNL    O10   27   0.245  -0.177  -0.393
    1UNL    C18   28   0.125  -0.235  -0.342
    1UNL    C19   29   0.227  -0.014  -0.216
    1UNL    C20   30   0.037   0.106   0.425
    1UNL    O11   31   0.075   0.113   0.555
    1UNL    C21   32  -0.029  -0.032   0.410
    1UNL    O12   33   0.072  -0.126   0.429
    1UNL    C22   34  -0.089  -0.045   0.268
    1UNL    O13   35  -0.167  -0.160   0.256
    1UNL    C23   36  -0.403  -0.023  -0.036
    1UNL    C24   37  -0.452   0.009  -0.173
    1UNL    C25   38  -0.463   0.147  -0.223
    1UNL    O14   39  -0.335   0.201  -0.261
    1UNL    C26   40  -0.426  -0.090  -0.252
    1UNL    C27   41  -0.392  -0.213  -0.177
    1UNL    C28   42  -0.329  -0.165  -0.045
    1UNL     H1   43  -0.103  -0.569   0.013
    1UNL     H2   44   0.020  -0.444   0.079
    1UNL     H3   45  -0.008  -0.461  -0.105
    1UNL     H4   46  -0.023  -0.025  -0.075
    1UNL     H5   47  -0.345   0.181   0.026
    1UNL     H6   48  -0.140   0.151   0.156
    1UNL     H7   49  -0.081   0.271   0.477
    1UNL     H8   50  -0.090   0.380   0.243
    1UNL     H9   51   0.070   0.385   0.329
    1UNL    H10   52   0.360   0.146   0.129
    1UNL    H11   53   0.114   0.153  -0.040
    1UNL    H12   54   0.474   0.142  -0.060
    1UNL    H13   55   0.675   0.057  -0.444
    1UNL    H14   56   0.678  -0.109  -0.363
    1UNL    H15   57   0.804   0.012  -0.327
    1UNL    H16   58   0.444  -0.204  -0.453
    1UNL    H17   59   0.089  -0.301  -0.424
    1UNL    H18   60   0.144  -0.297  -0.254
    1UNL    H19   61   0.050  -0.154  -0.332
    1UNL    H20   62   0.121  -0.026  -0.205
    1UNL    H21   63   0.135   0.117   0.374
    1UNL    H22   64   0.115   0.027   0.583
    1UNL    H23   65  -0.111  -0.054   0.488
    1UNL    H24   66   0.037  -0.214   0.429
    1UNL    H25   67   0.001  -0.060   0.195
    1UNL    H26   68  -0.267  -0.138   0.252
    1UNL    H27   69  -0.490  -0.030   0.025
    1UNL    H28   70  -0.505   0.215  -0.152
    1UNL    H29   71  -0.522   0.142  -0.314
    1UNL    H30   72  -0.266   0.183  -0.191
    1UNL    H31   73  -0.442  -0.071  -0.356
    1UNL    H32   74  -0.320  -0.274  -0.230
    1UNL    H33   75  -0.481  -0.269  -0.158
    1UNL    H34   76  -0.360  -0.227   0.047
   0.00000   0.00000   0.00000   0.00000   0.00000   0.00000   0.00000   0.00000   0.00000
Generated with MDTraj, t= 78.0
 76
    1UNL     C1    1  -0.074  -0.489  -0.006
    1UNL     O1    2  -0.169  -0.388  -0.031
    1UNL     C2    3  -0.104  -0.270  -0.035
    1UNL     O2    4   0.016  -0.266  -0.040
    1UNL     C3    5  -0.182  -0.148  -0.040
    1UNL     C4    6  -0.114  -0.034  -0.056
    1UNL     O3    7  -0.168   0.086  -0.041
    1UNL     C5    8  -0.292   0.076   0.030
    1UNL     O4    9  -0.280   0.031   0.170
    1UNL     C6   10  -0.166   0.072   0.231
    1UNL     O5   11  -0.193   0.174   0.329
    1UNL     C7   12  -0.074   0.225   0.387
    1UNL     C8   13  -0.004   0.318   0.280
    1UNL     O6   14   0.056   0.258   0.166
    1UNL     C9   15   0.189   0.259   0.194
    1UNL     O7   16   0.243   0.284   0.303
    1UNL    C10   17   0.262   0.213   0.082
    1UNL    C11   18   0.213   0.144  -0.021
    1UNL    C12   19   0.292   0.075  -0.125
    1UNL    C13   20   0.425   0.100  -0.149
    1UNL    C14   21   0.493   0.036  -0.251
    1UNL     O8   22   0.623   0.081  -0.263
    1UNL    C15   23   0.698   0.004  -0.359
    1UNL    C16   24   0.426  -0.062  -0.330
    1UNL     O9   25   0.483  -0.137  -0.427
    1UNL    C17   26   0.292  -0.094  -0.302
    1UNL    O10   27   0.239  -0.188  -0.390
    1UNL    C18   28   0.106  -0.221  -0.354
    1UNL    C19   29   0.229  -0.020  -0.209
    1UNL    C20   30   0.025   0.117   0.438
    1UNL    O11   31   0.040   0.138   0.575
    1UNL    C21   32  -0.017  -0.028   0.417
    1UNL    O12   33   0.084  -0.122   0.434
    1UNL    C22   34  -0.071  -0.051   0.278
    1UNL    O13   35  -0.133  -0.173   0.262
    1UNL    C23   36  -0.392  -0.017  -0.041
    1UNL    C24   37  -0.427   0.022  -0.191
    1UNL    C25   38  -0.443   0.152  -0.253
    1UNL    O14   39  -0.325   0.230  -0.259
    1UNL    C26   40  -0.412  -0.086  -0.266
    1UNL    C27   41  -0.377  -0.202  -0.186
    1UNL    C28   42  -0.327  -0.152  -0.045
    1UNL     H1   43  -0.125  -0.582  -0.004
    1UNL     H2   44  -0.022  -0.464   0.088
    1UNL     H3   45  -0.002  -0.483  -0.094
    1UNL     H4   46  -0.007  -0.031  -0.063
    1UNL     H5   47  -0.337   0.176   0.026
    1UNL     H6   48  -0.122   0.134   0.155
    1UNL     H7   49  -0.113   0.284   0.469
    1UNL     H8   50  -0.085   0.385   0.241
    1UNL     H9   51   0.071   0.381   0.331
    1UNL    H10   52   0.372   0.205   0.096
    1UNL    H11   53   0.104   0.143  -0.030
    1UNL    H12   54   0.482   0.166  -0.082
    1UNL    H13   55   0.631  -0.031  -0.436
    1UNL    H14   56   0.749  -0.083  -0.308
    1UNL    H15   57   0.769   0.073  -0.395
    1UNL    H16   58   0.419  -0.202  -0.454
    1UNL    H17   59   0.078  -0.304  -0.422
    1UNL    H18   60   0.096  -0.249  -0.250
    1UNL    H19   61   0.048  -0.133  -0.382
    1UNL    H20   62   0.121  -0.029  -0.193
    1UNL    H21   63   0.114   0.142   0.381
    1UNL    H22   64   0.083   0.064   0.620
    1UNL    H23   65  -0.098  -0.065   0.489
    1UNL    H24   66   0.054  -0.213   0.415
    1UNL    H25   67   0.027  -0.050   0.216
    1UNL    H26   68  -0.223  -0.161   0.233
    1UNL    H27   69  -0.489  -0.029   0.005
    1UNL    H28   70  -0.518   0.214  -0.203
    1UNL    H29   71  -0.467   0.134  -0.359
    1UNL    H30   72  -0.267   0.205  -0.183
    1UNL    H31   73  -0.430  -0.098  -0.372
    1UNL    H32   74  -0.296  -0.258  -0.232
    1UNL    H33   75  -0.460  -0.270  -0.178
    1UNL    H34   76  -0.367  -0.215   0.043
   0.00000   0.00000   0.00000   0.00000   0.00000   0.00000   0.00000   0.00000   0.00000
Generated with MDTraj, t= 79.0
 76
    1UNL     C1    1  -0.104  -0.517  -0.032
    1UNL     O1    2  -0.182  -0.407  -0.050
    1UNL     C2    3  -0.107  -0.296  -0.045
    1UNL     O2    4   0.013  -0.308  -0.036
    1UNL     C3    5  -0.185  -0.175  -0.055
    1UNL     C4    6  -0.118  -0.053  -0.052
    1UNL     O3    7  -0.163   0.069  -0.035
    1UNL     C5    8  -0.292   0.064   0.026
    1UNL     O4    9  -0.274   0.022   0.167
    1UNL     C6   10  -0.163   0.086   0.233
    1UNL     O5   11  -0.192   0.188   0.340
    1UNL     C7   12  -0.083   0.249   0.401
    1UNL     C8   13  -0.013   0.331   0.300
    1UNL     O6   14   0.039   0.253   0.195
    1UNL     C9   15   0.179   0.255   0.209
    1UNL     O7   16   0.236   0.298   0.309
    1UNL    C10   17   0.264   0.188   0.100
    1UNL    C11   18   0.211   0.152  -0.025
    1UNL    C12   19   0.277   0.082  -0.135
    1UNL    C13   20   0.411   0.111  -0.173
    1UNL    C14   21   0.486   0.041  -0.268
    1UNL     O8   22   0.620   0.081  -0.271
    1UNL    C15   23   0.697   0.006  -0.363
    1UNL    C16   24   0.423  -0.063  -0.347
    1UNL     O9   25   0.468  -0.131  -0.456
    1UNL    C17   26   0.291  -0.097  -0.311
    1UNL    O10   27   0.236  -0.197  -0.385
    1UNL    C18   28   0.101  -0.224  -0.341
    1UNL    C19   29   0.223  -0.028  -0.205
    1UNL    C20   30   0.019   0.141   0.458
    1UNL    O11   31   0.044   0.164   0.598
    1UNL    C21   32  -0.014  -0.008   0.429
    1UNL    O12   33   0.084  -0.105   0.466
    1UNL    C22   34  -0.055  -0.027   0.285
    1UNL    O13   35  -0.109  -0.155   0.271
    1UNL    C23   36  -0.388  -0.034  -0.050
    1UNL    C24   37  -0.410   0.027  -0.190
    1UNL    C25   38  -0.418   0.169  -0.239
    1UNL    O14   39  -0.293   0.232  -0.244
    1UNL    C26   40  -0.401  -0.073  -0.280
    1UNL    C27   41  -0.349  -0.197  -0.231
    1UNL    C28   42  -0.330  -0.174  -0.074
    1UNL     H1   43  -0.170  -0.597  -0.028
    1UNL     H2   44  -0.046  -0.506   0.057
    1UNL     H3   45  -0.041  -0.525  -0.122
    1UNL     H4   46  -0.006  -0.056  -0.046
    1UNL     H5   47  -0.328   0.169   0.046
    1UNL     H6   48  -0.122   0.140   0.153
    1UNL     H7   49  -0.118   0.312   0.485
    1UNL     H8   50  -0.089   0.402   0.258
    1UNL     H9   51   0.067   0.381   0.360
    1UNL    H10   52   0.369   0.173   0.109
    1UNL    H11   53   0.109   0.175  -0.038
    1UNL    H12   54   0.465   0.198  -0.139
    1UNL    H13   55   0.706   0.061  -0.454
    1UNL    H14   56   0.655  -0.095  -0.385
    1UNL    H15   57   0.793  -0.005  -0.314
    1UNL    H16   58   0.398  -0.203  -0.476
    1UNL    H17   59   0.059  -0.311  -0.390
    1UNL    H18   60   0.087  -0.236  -0.235
    1UNL    H19   61   0.042  -0.141  -0.379
    1UNL    H20   62   0.137  -0.077  -0.168
    1UNL    H21   63   0.110   0.166   0.405
    1UNL    H22   64   0.010   0.094   0.656
    1UNL    H23   65  -0.107  -0.040   0.485
    1UNL    H24   66   0.058  -0.201   0.454
    1UNL    H25   67   0.040  -0.024   0.221
    1UNL    H26   68  -0.146  -0.161   0.178
    1UNL    H27   69  -0.482  -0.046  -0.000
    1UNL    H28   70  -0.485   0.224  -0.171
    1UNL    H29   71  -0.449   0.176  -0.347
    1UNL    H30   72  -0.231   0.201  -0.174
    1UNL    H31   73  -0.418  -0.056  -0.384
    1UNL    H32   74  -0.254  -0.225  -0.278
    1UNL    H33   75  -0.420  -0.278  -0.252
    1UNL    H34   76  -0.376  -0.257  -0.007
   0.00000   0.00000   0.00000   0.00000   0.00000   0.00000   0.00000   0.00000   0.00000
Generated with MDTraj, t= 80.0
 76
    1UNL     C1    1  -0.130  -0.549  -0.071
    1UNL     O1    2  -0.200  -0.429  -0.068
    1UNL     C2    3  -0.107  -0.324  -0.066
    1UNL     O2    4   0.013  -0.346  -0.074
    1UNL     C3    5  -0.165  -0.194  -0.061
    1UNL     C4    6  -0.078  -0.091  -0.042
    1UNL     O3    7  -0.126   0.033  -0.024
    1UNL     C5    8  -0.255   0.048   0.038
    1UNL     O4    9  -0.261   0.014   0.176
    1UNL     C6   10  -0.143   0.083   0.228
    1UNL     O5   11  -0.190   0.188   0.313
    1UNL     C7   12  -0.089   0.262   0.376
    1UNL     C8   13  -0.016   0.343   0.270
    1UNL     O6   14   0.046   0.255   0.181
    1UNL     C9   15   0.182   0.255   0.199
    1UNL     O7   16   0.240   0.302   0.294
    1UNL    C10   17   0.261   0.199   0.091
    1UNL    C11   18   0.202   0.123  -0.008
    1UNL    C12   19   0.271   0.059  -0.119
    1UNL    C13   20   0.402   0.095  -0.147
    1UNL    C14   21   0.464   0.042  -0.260
    1UNL     O8   22   0.583   0.100  -0.285
    1UNL    C15   23   0.671   0.016  -0.353
    1UNL    C16   24   0.401  -0.054  -0.341
    1UNL     O9   25   0.465  -0.121  -0.446
    1UNL    C17   26   0.268  -0.078  -0.318
    1UNL    O10   27   0.216  -0.175  -0.395
    1UNL    C18   28   0.122  -0.248  -0.321
    1UNL    C19   29   0.204  -0.018  -0.210
    1UNL    C20   30   0.016   0.154   0.451
    1UNL    O11   31  -0.007   0.189   0.589
    1UNL    C21   32  -0.027   0.008   0.438
    1UNL    O12   33   0.056  -0.078   0.507
    1UNL    C22   34  -0.047  -0.023   0.288
    1UNL    O13   35  -0.091  -0.158   0.271
    1UNL    C23   36  -0.356  -0.028  -0.042
    1UNL    C24   37  -0.389   0.042  -0.170
    1UNL    C25   38  -0.391   0.192  -0.193
    1UNL    O14   39  -0.262   0.251  -0.232
    1UNL    C26   40  -0.395  -0.053  -0.268
    1UNL    C27   41  -0.354  -0.190  -0.225
    1UNL    C28   42  -0.312  -0.173  -0.077
    1UNL     H1   43  -0.196  -0.629  -0.083
    1UNL     H2   44  -0.076  -0.558   0.020
    1UNL     H3   45  -0.061  -0.546  -0.155
    1UNL     H4   46   0.024  -0.115  -0.034
    1UNL     H5   47  -0.264   0.165   0.033
    1UNL     H6   48  -0.089   0.124   0.147
    1UNL     H7   49  -0.130   0.323   0.462
    1UNL     H8   50  -0.101   0.393   0.220
    1UNL     H9   51   0.062   0.411   0.313
    1UNL    H10   52   0.361   0.238   0.092
    1UNL    H11   53   0.092   0.108   0.001
    1UNL    H12   54   0.440   0.176  -0.090
    1UNL    H13   55   0.631  -0.013  -0.448
    1UNL    H14   56   0.687  -0.076  -0.294
    1UNL    H15   57   0.768   0.072  -0.360
    1UNL    H16   58   0.403  -0.159  -0.511
    1UNL    H17   59   0.096  -0.335  -0.382
    1UNL    H18   60   0.154  -0.282  -0.223
    1UNL    H19   61   0.028  -0.195  -0.315
    1UNL    H20   62   0.097  -0.022  -0.210
    1UNL    H21   63   0.122   0.160   0.428
    1UNL    H22   64   0.051   0.127   0.640
    1UNL    H23   65  -0.125   0.005   0.490
    1UNL    H24   66   0.025  -0.172   0.513
    1UNL    H25   67   0.055  -0.019   0.240
    1UNL    H26   68  -0.182  -0.160   0.234
    1UNL    H27   69  -0.453  -0.028   0.004
    1UNL    H28   70  -0.416   0.254  -0.105
    1UNL    H29   71  -0.456   0.220  -0.279
    1UNL    H30   72  -0.184   0.211  -0.187
    1UNL    H31   73  -0.420  -0.018  -0.368
    1UNL    H32   74  -0.274  -0.226  -0.291
    1UNL    H33   75  -0.443  -0.255  -0.231
    1UNL    H34   76  -0.364  -0.251  -0.007
   0.00000   0.00000   0.00000   0.00000   0.00000   0.00000   0.00000   0.00000   0.00000
Generated with MDTraj, t= 81.0
 76
    1UNL     C1    1  -0.160  -0.567  -0.115
    1UNL     O1    2  -0.227  -0.451  -0.099
    1UNL     C2    3  -0.130  -0.351  -0.093
    1UNL     O2    4  -0.012  -0.375  -0.101
    1UNL     C3    5  -0.173  -0.213  -0.067
    1UNL     C4    6  -0.080  -0.124  -0.054
    1UNL     O3    7  -0.106   0.009  -0.048
    1UNL     C5    8  -0.229   0.036   0.024
    1UNL     O4    9  -0.222  -0.000   0.163
    1UNL     C6   10  -0.127   0.079   0.243
    1UNL     O5   11  -0.183   0.180   0.319
    1UNL     C7   12  -0.095   0.266   0.385
    1UNL     C8   13  -0.013   0.359   0.296
    1UNL     O6   14   0.045   0.287   0.190
    1UNL     C9   15   0.174   0.255   0.209
    1UNL     O7   16   0.246   0.294   0.300
    1UNL    C10   17   0.234   0.193   0.089
    1UNL    C11   18   0.181   0.148  -0.024
    1UNL    C12   19   0.255   0.078  -0.128
    1UNL    C13   20   0.386   0.103  -0.148
    1UNL    C14   21   0.458   0.044  -0.248
    1UNL     O8   22   0.592   0.080  -0.275
    1UNL    C15   23   0.648   0.010  -0.380
    1UNL    C16   24   0.398  -0.044  -0.339
    1UNL     O9   25   0.453  -0.096  -0.457
    1UNL    C17   26   0.267  -0.081  -0.310
    1UNL    O10   27   0.194  -0.162  -0.407
    1UNL    C18   28   0.132  -0.268  -0.343
    1UNL    C19   29   0.196  -0.022  -0.207
    1UNL    C20   30   0.007   0.185   0.485
    1UNL    O11   31  -0.016   0.231   0.618
    1UNL    C21   32  -0.026   0.035   0.480
    1UNL    O12   33   0.057  -0.036   0.567
    1UNL    C22   34  -0.031  -0.010   0.326
    1UNL    O13   35  -0.060  -0.151   0.323
    1UNL    C23   36  -0.345  -0.032  -0.056
    1UNL    C24   37  -0.367   0.037  -0.194
    1UNL    C25   38  -0.368   0.183  -0.215
    1UNL    O14   39  -0.239   0.243  -0.190
    1UNL    C26   40  -0.376  -0.058  -0.293
    1UNL    C27   41  -0.350  -0.197  -0.245
    1UNL    C28   42  -0.315  -0.176  -0.099
    1UNL     H1   43  -0.232  -0.649  -0.104
    1UNL     H2   44  -0.084  -0.576  -0.037
    1UNL     H3   45  -0.115  -0.571  -0.215
    1UNL     H4   46   0.021  -0.156  -0.060
    1UNL     H5   47  -0.224   0.152   0.019
    1UNL     H6   48  -0.071   0.130   0.169
    1UNL     H7   49  -0.152   0.337   0.453
    1UNL     H8   50  -0.088   0.419   0.244
    1UNL     H9   51   0.057   0.418   0.360
    1UNL    H10   52   0.344   0.185   0.102
    1UNL    H11   53   0.078   0.158  -0.029
    1UNL    H12   54   0.444   0.172  -0.084
    1UNL    H13   55   0.611   0.041  -0.476
    1UNL    H14   56   0.637  -0.098  -0.371
    1UNL    H15   57   0.759   0.038  -0.367
    1UNL    H16   58   0.385  -0.156  -0.492
    1UNL    H17   59   0.197  -0.357  -0.342
    1UNL    H18   60   0.118  -0.250  -0.236
    1UNL    H19   61   0.036  -0.294  -0.388
    1UNL    H20   62   0.087  -0.020  -0.193
    1UNL    H21   63   0.112   0.196   0.456
    1UNL    H22   64   0.062   0.201   0.672
    1UNL    H23   65  -0.129   0.032   0.514
    1UNL    H24   66   0.035  -0.129   0.565
    1UNL    H25   67   0.069   0.004   0.283
    1UNL    H26   68  -0.109  -0.174   0.242
    1UNL    H27   69  -0.439  -0.031  -0.004
    1UNL    H28   70  -0.430   0.245  -0.145
    1UNL    H29   71  -0.394   0.207  -0.322
    1UNL    H30   72  -0.173   0.183  -0.151
    1UNL    H31   73  -0.384  -0.024  -0.395
    1UNL    H32   74  -0.260  -0.231  -0.299
    1UNL    H33   75  -0.438  -0.262  -0.266
    1UNL    H34   76  -0.378  -0.246  -0.030
   0.00000   0.00000   0.00000   0.00000   0.00000   0.00000   0.00000   0.00000   0.00000
Generated with MDTraj, t= 82.0
 76
    1UNL     C1    1  -0.203  -0.565  -0.157
    1UNL     O1    2  -0.241  -0.441  -0.127
    1UNL     C2    3  -0.127  -0.364  -0.112
    1UNL     O2    4  -0.016  -0.411  -0.121
    1UNL     C3    5  -0.157  -0.226  -0.063
    1UNL     C4    6  -0.060  -0.136  -0.052
    1UNL     O3    7  -0.065  -0.004  -0.033
    1UNL     C5    8  -0.194   0.028   0.032
    1UNL     O4    9  -0.199  -0.022   0.161
    1UNL     C6   10  -0.120   0.068   0.239
    1UNL     O5   11  -0.192   0.174   0.303
    1UNL     C7   12  -0.105   0.272   0.365
    1UNL     C8   13  -0.033   0.363   0.262
    1UNL     O6   14   0.041   0.299   0.157
    1UNL     C9   15   0.167   0.250   0.208
    1UNL     O7   16   0.209   0.257   0.324
    1UNL    C10   17   0.246   0.200   0.089
    1UNL    C11   18   0.183   0.150  -0.016
    1UNL    C12   19   0.244   0.091  -0.130
    1UNL    C13   20   0.380   0.105  -0.156
    1UNL    C14   21   0.454   0.038  -0.261
    1UNL     O8   22   0.598   0.055  -0.255
    1UNL    C15   23   0.655   0.034  -0.381
    1UNL    C16   24   0.383  -0.047  -0.351
    1UNL     O9   25   0.445  -0.113  -0.458
    1UNL    C17   26   0.241  -0.053  -0.333
    1UNL    O10   27   0.144  -0.130  -0.400
    1UNL    C18   28   0.145  -0.257  -0.345
    1UNL    C19   29   0.179   0.012  -0.226
    1UNL    C20   30  -0.010   0.203   0.475
    1UNL    O11   31  -0.033   0.258   0.603
    1UNL    C21   32  -0.041   0.050   0.486
    1UNL    O12   33   0.036  -0.019   0.585
    1UNL    C22   34  -0.032  -0.013   0.342
    1UNL    O13   35  -0.045  -0.156   0.352
    1UNL    C23   36  -0.318  -0.033  -0.035
    1UNL    C24   37  -0.337   0.040  -0.171
    1UNL    C25   38  -0.325   0.181  -0.182
    1UNL    O14   39  -0.191   0.222  -0.195
    1UNL    C26   40  -0.356  -0.052  -0.267
    1UNL    C27   41  -0.365  -0.197  -0.211
    1UNL    C28   42  -0.306  -0.185  -0.069
    1UNL     H1   43  -0.297  -0.630  -0.164
    1UNL     H2   44  -0.141  -0.603  -0.070
    1UNL     H3   45  -0.144  -0.569  -0.250
    1UNL     H4   46   0.045  -0.171  -0.063
    1UNL     H5   47  -0.197   0.140   0.047
    1UNL     H6   48  -0.057   0.125   0.173
    1UNL     H7   49  -0.179   0.337   0.420
    1UNL     H8   50  -0.118   0.406   0.214
    1UNL     H9   51   0.032   0.441   0.306
    1UNL    H10   52   0.348   0.203   0.099
    1UNL    H11   53   0.072   0.143  -0.003
    1UNL    H12   54   0.430   0.167  -0.088
    1UNL    H13   55   0.587   0.068  -0.458
    1UNL    H14   56   0.675  -0.070  -0.405
    1UNL    H15   57   0.753   0.096  -0.391
    1UNL    H16   58   0.373  -0.148  -0.521
    1UNL    H17   59   0.213  -0.266  -0.255
    1UNL    H18   60   0.047  -0.285  -0.305
    1UNL    H19   61   0.171  -0.322  -0.430
    1UNL    H20   62   0.073  -0.002  -0.224
    1UNL    H21   63   0.095   0.216   0.448
    1UNL    H22   64   0.044   0.243   0.662
    1UNL    H23   65  -0.143   0.039   0.514
    1UNL    H24   66   0.107  -0.062   0.540
    1UNL    H25   67   0.069   0.009   0.316
    1UNL    H26   68  -0.143  -0.178   0.356
    1UNL    H27   69  -0.406  -0.019   0.027
    1UNL    H28   70  -0.364   0.229  -0.089
    1UNL    H29   71  -0.372   0.230  -0.271
    1UNL    H30   72  -0.132   0.155  -0.148
    1UNL    H31   73  -0.351  -0.017  -0.369
    1UNL    H32   74  -0.307  -0.264  -0.277
    1UNL    H33   75  -0.474  -0.223  -0.205
    1UNL    H34   76  -0.355  -0.260   0.006
   0.00000   0.00000   0.00000   0.00000   0.00000   0.00000   0.00000   0.00000   0.00000
Generated with MDTraj, t= 83.0
 76
    1UNL     C1    1  -0.207  -0.571  -0.199
    1UNL     O1    2  -0.247  -0.455  -0.138
    1UNL     C2    3  -0.130  -0.370  -0.130
    1UNL     O2    4  -0.016  -0.405  -0.151
    1UNL     C3    5  -0.155  -0.234  -0.083
    1UNL     C4    6  -0.050  -0.147  -0.064
    1UNL     O3    7  -0.068  -0.018  -0.041
    1UNL     C5    8  -0.174   0.006   0.045
    1UNL     O4    9  -0.161  -0.046   0.178
    1UNL     C6   10  -0.085   0.049   0.255
    1UNL     O5   11  -0.167   0.162   0.292
    1UNL     C7   12  -0.112   0.273   0.364
    1UNL     C8   13  -0.036   0.365   0.267
    1UNL     O6   14   0.039   0.298   0.162
    1UNL     C9   15   0.161   0.254   0.209
    1UNL     O7   16   0.196   0.265   0.324
    1UNL    C10   17   0.226   0.174   0.099
    1UNL    C11   18   0.182   0.183  -0.028
    1UNL    C12   19   0.250   0.108  -0.135
    1UNL    C13   20   0.392   0.101  -0.157
    1UNL    C14   21   0.449   0.029  -0.260
    1UNL     O8   22   0.585   0.037  -0.274
    1UNL    C15   23   0.635   0.033  -0.403
    1UNL    C16   24   0.372  -0.054  -0.346
    1UNL     O9   25   0.440  -0.118  -0.454
    1UNL    C17   26   0.232  -0.051  -0.329
    1UNL    O10   27   0.154  -0.120  -0.416
    1UNL    C18   28   0.135  -0.254  -0.375
    1UNL    C19   29   0.178   0.036  -0.227
    1UNL    C20   30  -0.029   0.220   0.490
    1UNL    O11   31  -0.076   0.281   0.608
    1UNL    C21   32  -0.053   0.066   0.511
    1UNL    O12   33   0.026   0.025   0.622
    1UNL    C22   34  -0.022  -0.016   0.386
    1UNL    O13   35  -0.050  -0.152   0.403
    1UNL    C23   36  -0.303  -0.029  -0.031
    1UNL    C24   37  -0.337   0.048  -0.160
    1UNL    C25   38  -0.287   0.182  -0.186
    1UNL    O14   39  -0.148   0.175  -0.218
    1UNL    C26   40  -0.382  -0.037  -0.256
    1UNL    C27   41  -0.382  -0.184  -0.202
    1UNL    C28   42  -0.302  -0.178  -0.071
    1UNL     H1   43  -0.290  -0.641  -0.241
    1UNL     H2   44  -0.149  -0.627  -0.118
    1UNL     H3   45  -0.133  -0.546  -0.275
    1UNL     H4   46   0.052  -0.183  -0.090
    1UNL     H5   47  -0.185   0.112   0.069
    1UNL     H6   48  -0.008   0.095   0.195
    1UNL     H7   49  -0.204   0.321   0.401
    1UNL     H8   50  -0.102   0.418   0.202
    1UNL     H9   51   0.027   0.434   0.328
    1UNL    H10   52   0.320   0.121   0.130
    1UNL    H11   53   0.082   0.210  -0.035
    1UNL    H12   54   0.460   0.158  -0.092
    1UNL    H13   55   0.579   0.100  -0.467
    1UNL    H14   56   0.629  -0.063  -0.448
    1UNL    H15   57   0.746   0.067  -0.405
    1UNL    H16   58   0.372  -0.142  -0.519
    1UNL    H17   59   0.141  -0.260  -0.264
    1UNL    H18   60   0.032  -0.289  -0.391
    1UNL    H19   61   0.205  -0.313  -0.435
    1UNL    H20   62   0.072   0.032  -0.223
    1UNL    H21   63   0.077   0.246   0.478
    1UNL    H22   64  -0.031   0.255   0.689
    1UNL    H23   65  -0.149   0.038   0.545
    1UNL    H24   66   0.119   0.028   0.597
    1UNL    H25   67   0.083  -0.003   0.384
    1UNL    H26   68  -0.009  -0.191   0.327
    1UNL    H27   69  -0.387  -0.001   0.034
    1UNL    H28   70  -0.301   0.248  -0.099
    1UNL    H29   71  -0.334   0.228  -0.275
    1UNL    H30   72  -0.107   0.111  -0.159
    1UNL    H31   73  -0.374  -0.016  -0.361
    1UNL    H32   74  -0.333  -0.253  -0.273
    1UNL    H33   75  -0.487  -0.215  -0.174
    1UNL    H34   76  -0.347  -0.255   0.005
   0.00000   0.00000   0.00000   0.00000   0.00000   0.00000   0.00000   0.00000   0.00000
Generated with MDTraj, t= 84.0
 76
    1UNL     C1    1  -0.208  -0.576  -0.209
    1UNL     O1    2  -0.240  -0.449  -0.177
    1UNL     C2    3  -0.127  -0.366  -0.169
    1UNL     O2    4  -0.017  -0.402  -0.202
    1UNL     C3    5  -0.151  -0.242  -0.093
    1UNL     C4    6  -0.044  -0.158  -0.063
    1UNL     O3    7  -0.048  -0.018  -0.036
    1UNL     C5    8  -0.157   0.008   0.055
    1UNL     O4    9  -0.134  -0.052   0.184
    1UNL     C6   10  -0.080   0.055   0.262
    1UNL     O5   11  -0.166   0.163   0.292
    1UNL     C7   12  -0.116   0.279   0.359
    1UNL     C8   13  -0.038   0.359   0.264
    1UNL     O6   14   0.031   0.279   0.166
    1UNL     C9   15   0.159   0.247   0.203
    1UNL     O7   16   0.194   0.228   0.316
    1UNL    C10   17   0.245   0.213   0.090
    1UNL    C11   18   0.186   0.162  -0.019
    1UNL    C12   19   0.244   0.096  -0.140
    1UNL    C13   20   0.386   0.085  -0.148
    1UNL    C14   21   0.451   0.013  -0.250
    1UNL     O8   22   0.592   0.034  -0.264
    1UNL    C15   23   0.634   0.031  -0.400
    1UNL    C16   24   0.374  -0.050  -0.349
    1UNL     O9   25   0.424  -0.105  -0.464
    1UNL    C17   26   0.230  -0.050  -0.333
    1UNL    O10   27   0.156  -0.112  -0.439
    1UNL    C18   28   0.115  -0.246  -0.407
    1UNL    C19   29   0.169   0.025  -0.233
    1UNL    C20   30  -0.040   0.233   0.494
    1UNL    O11   31  -0.080   0.319   0.604
    1UNL    C21   32  -0.066   0.081   0.522
    1UNL    O12   33   0.002   0.046   0.640
    1UNL    C22   34  -0.027  -0.006   0.403
    1UNL    O13   35  -0.061  -0.141   0.426
    1UNL    C23   36  -0.294  -0.036  -0.008
    1UNL    C24   37  -0.325   0.039  -0.136
    1UNL    C25   38  -0.281   0.177  -0.172
    1UNL    O14   39  -0.149   0.175  -0.228
    1UNL    C26   40  -0.373  -0.048  -0.226
    1UNL    C27   41  -0.384  -0.186  -0.168
    1UNL    C28   42  -0.290  -0.185  -0.051
    1UNL     H1   43  -0.290  -0.648  -0.178
    1UNL     H2   44  -0.119  -0.597  -0.148
    1UNL     H3   45  -0.182  -0.581  -0.311
    1UNL     H4   46   0.044  -0.201  -0.097
    1UNL     H5   47  -0.162   0.113   0.073
    1UNL     H6   48   0.003   0.093   0.205
    1UNL     H7   49  -0.210   0.329   0.377
    1UNL     H8   50  -0.099   0.428   0.207
    1UNL     H9   51   0.048   0.415   0.309
    1UNL    H10   52   0.348   0.218   0.113
    1UNL    H11   53   0.076   0.151  -0.005
    1UNL    H12   54   0.459   0.126  -0.079
    1UNL    H13   55   0.599  -0.057  -0.452
    1UNL    H14   56   0.739   0.027  -0.411
    1UNL    H15   57   0.597   0.124  -0.453
    1UNL    H16   58   0.350  -0.147  -0.508
    1UNL    H17   59   0.051  -0.231  -0.319
    1UNL    H18   60   0.046  -0.289  -0.478
    1UNL    H19   61   0.202  -0.310  -0.401
    1UNL    H20   62   0.060   0.037  -0.240
    1UNL    H21   63   0.070   0.251   0.486
    1UNL    H22   64  -0.113   0.264   0.679
    1UNL    H23   65  -0.169   0.070   0.539
    1UNL    H24   66   0.098   0.033   0.616
    1UNL    H25   67   0.076  -0.015   0.393
    1UNL    H26   68  -0.155  -0.156   0.413
    1UNL    H27   69  -0.373  -0.022   0.068
    1UNL    H28   70  -0.278   0.243  -0.088
    1UNL    H29   71  -0.355   0.214  -0.244
    1UNL    H30   72  -0.095   0.122  -0.161
    1UNL    H31   73  -0.356  -0.036  -0.332
    1UNL    H32   74  -0.346  -0.262  -0.241
    1UNL    H33   75  -0.488  -0.210  -0.134
    1UNL    H34   76  -0.323  -0.262   0.029
   0.00000   0.00000   0.00000   0.00000   0.00000   0.00000   0.00000   0.00000   0.00000
Generated with MDTraj, t= 85.0
 76
    1UNL     C1    1  -0.219  -0.548  -0.252
    1UNL     O1    2  -0.219  -0.456  -0.149
    1UNL     C2    3  -0.117  -0.366  -0.164
    1UNL     O2    4  -0.019  -0.385  -0.231
    1UNL     C3    5  -0.130  -0.246  -0.081
    1UNL     C4    6  -0.035  -0.154  -0.066
    1UNL     O3    7  -0.044  -0.021  -0.025
    1UNL     C5    8  -0.158  -0.000   0.061
    1UNL     O4    9  -0.136  -0.050   0.192
    1UNL     C6   10  -0.078   0.053   0.268
    1UNL     O5   11  -0.164   0.162   0.273
    1UNL     C7   12  -0.115   0.280   0.345
    1UNL     C8   13  -0.028   0.368   0.251
    1UNL     O6   14   0.037   0.286   0.148
    1UNL     C9   15   0.152   0.234   0.205
    1UNL     O7   16   0.204   0.264   0.315
    1UNL    C10   17   0.221   0.144   0.106
    1UNL    C11   18   0.186   0.129  -0.022
    1UNL    C12   19   0.256   0.075  -0.140
    1UNL    C13   20   0.395   0.060  -0.146
    1UNL    C14   21   0.457   0.013  -0.267
    1UNL     O8   22   0.597   0.012  -0.255
    1UNL    C15   23   0.668   0.034  -0.374
    1UNL    C16   24   0.374  -0.036  -0.372
    1UNL     O9   25   0.427  -0.104  -0.478
    1UNL    C17   26   0.235  -0.026  -0.359
    1UNL    O10   27   0.151  -0.091  -0.461
    1UNL    C18   28   0.131  -0.230  -0.428
    1UNL    C19   29   0.181   0.030  -0.250
    1UNL    C20   30  -0.041   0.241   0.477
    1UNL    O11   31  -0.047   0.338   0.580
    1UNL    C21   32  -0.083   0.099   0.522
    1UNL    O12   33  -0.018   0.068   0.644
    1UNL    C22   34  -0.048  -0.011   0.415
    1UNL    O13   35  -0.100  -0.146   0.440
    1UNL    C23   36  -0.287  -0.055   0.006
    1UNL    C24   37  -0.340   0.021  -0.113
    1UNL    C25   38  -0.309   0.169  -0.145
    1UNL    O14   39  -0.174   0.190  -0.170
    1UNL    C26   40  -0.395  -0.057  -0.201
    1UNL    C27   41  -0.387  -0.200  -0.159
    1UNL    C28   42  -0.277  -0.205  -0.040
    1UNL     H1   43  -0.308  -0.611  -0.259
    1UNL     H2   44  -0.135  -0.608  -0.225
    1UNL     H3   45  -0.197  -0.496  -0.338
    1UNL     H4   46   0.064  -0.186  -0.093
    1UNL     H5   47  -0.159   0.106   0.072
    1UNL     H6   48   0.011   0.084   0.217
    1UNL     H7   49  -0.203   0.334   0.372
    1UNL     H8   50  -0.080   0.433   0.181
    1UNL     H9   51   0.047   0.436   0.302
    1UNL    H10   52   0.299   0.078   0.137
    1UNL    H11   53   0.105   0.193  -0.047
    1UNL    H12   54   0.461   0.105  -0.078
    1UNL    H13   55   0.773   0.014  -0.361
    1UNL    H14   56   0.661   0.132  -0.411
    1UNL    H15   57   0.628  -0.039  -0.448
    1UNL    H16   58   0.357  -0.097  -0.551
    1UNL    H17   59   0.031  -0.228  -0.384
    1UNL    H18   60   0.121  -0.289  -0.517
    1UNL    H19   61   0.214  -0.269  -0.371
    1UNL    H20   62   0.083   0.068  -0.258
    1UNL    H21   63   0.070   0.240   0.461
    1UNL    H22   64  -0.072   0.291   0.664
    1UNL    H23   65  -0.187   0.107   0.542
    1UNL    H24   66  -0.006  -0.033   0.646
    1UNL    H25   67   0.053  -0.033   0.416
    1UNL    H26   68  -0.187  -0.165   0.391
    1UNL    H27   69  -0.354  -0.047   0.096
    1UNL    H28   70  -0.342   0.223  -0.060
    1UNL    H29   71  -0.360   0.202  -0.235
    1UNL    H30   72  -0.123   0.125  -0.119
    1UNL    H31   73  -0.412  -0.022  -0.302
    1UNL    H32   74  -0.358  -0.260  -0.248
    1UNL    H33   75  -0.487  -0.238  -0.125
    1UNL    H34   76  -0.304  -0.278   0.046
   0.00000   0.00000   0.00000   0.00000   0.00000   0.00000   0.00000   0.00000   0.00000
Generated with MDTraj, t= 86.0
 76
    1UNL     C1    1  -0.175  -0.559  -0.256
    1UNL     O1    2  -0.222  -0.446  -0.181
    1UNL     C2    3  -0.126  -0.354  -0.179
    1UNL     O2    4  -0.023  -0.362  -0.239
    1UNL     C3    5  -0.150  -0.239  -0.090
    1UNL     C4    6  -0.054  -0.149  -0.069
    1UNL     O3    7  -0.067  -0.024  -0.021
    1UNL     C5    8  -0.176  -0.022   0.081
    1UNL     O4    9  -0.136  -0.067   0.213
    1UNL     C6   10  -0.077   0.037   0.291
    1UNL     O5   11  -0.158   0.158   0.292
    1UNL     C7   12  -0.099   0.277   0.338
    1UNL     C8   13  -0.028   0.361   0.236
    1UNL     O6   14   0.047   0.283   0.140
    1UNL     C9   15   0.175   0.235   0.177
    1UNL     O7   16   0.218   0.231   0.293
    1UNL    C10   17   0.257   0.189   0.076
    1UNL    C11   18   0.203   0.144  -0.038
    1UNL    C12   19   0.262   0.075  -0.147
    1UNL    C13   20   0.400   0.049  -0.142
    1UNL    C14   21   0.467   0.004  -0.253
    1UNL     O8   22   0.602  -0.014  -0.249
    1UNL    C15   23   0.666   0.011  -0.369
    1UNL    C16   24   0.389  -0.029  -0.364
    1UNL     O9   25   0.451  -0.086  -0.476
    1UNL    C17   26   0.247  -0.030  -0.362
    1UNL    O10   27   0.177  -0.079  -0.471
    1UNL    C18   28   0.138  -0.208  -0.469
    1UNL    C19   29   0.189   0.032  -0.252
    1UNL    C20   30  -0.020   0.243   0.469
    1UNL    O11   31  -0.031   0.349   0.565
    1UNL    C21   32  -0.085   0.112   0.538
    1UNL    O12   33  -0.023   0.095   0.665
    1UNL    C22   34  -0.063  -0.013   0.438
    1UNL    O13   35  -0.153  -0.119   0.458
    1UNL    C23   36  -0.303  -0.074   0.016
    1UNL    C24   37  -0.357   0.010  -0.102
    1UNL    C25   38  -0.351   0.158  -0.108
    1UNL    O14   39  -0.225   0.194  -0.148
    1UNL    C26   40  -0.392  -0.067  -0.202
    1UNL    C27   41  -0.388  -0.209  -0.165
    1UNL    C28   42  -0.293  -0.218  -0.039
    1UNL     H1   43  -0.230  -0.654  -0.253
    1UNL     H2   44  -0.079  -0.580  -0.214
    1UNL     H3   45  -0.161  -0.525  -0.353
    1UNL     H4   46   0.043  -0.156  -0.126
    1UNL     H5   47  -0.195   0.086   0.092
    1UNL     H6   48   0.017   0.066   0.247
    1UNL     H7   49  -0.184   0.338   0.367
    1UNL     H8   50  -0.095   0.418   0.171
    1UNL     H9   51   0.049   0.433   0.271
    1UNL    H10   52   0.368   0.188   0.091
    1UNL    H11   53   0.093   0.138  -0.035
    1UNL    H12   54   0.460   0.090  -0.056
    1UNL    H13   55   0.758   0.067  -0.346
    1UNL    H14   56   0.608   0.072  -0.432
    1UNL    H15   57   0.689  -0.088  -0.412
    1UNL    H16   58   0.377  -0.124  -0.522
    1UNL    H17   59   0.097  -0.224  -0.368
    1UNL    H18   60   0.059  -0.223  -0.542
    1UNL    H19   61   0.225  -0.267  -0.494
    1UNL    H20   62   0.082   0.047  -0.240
    1UNL    H21   63   0.090   0.221   0.461
    1UNL    H22   64  -0.084   0.316   0.639
    1UNL    H23   65  -0.190   0.134   0.559
    1UNL    H24   66   0.031   0.009   0.656
    1UNL    H25   67   0.029  -0.057   0.450
    1UNL    H26   68  -0.199  -0.155   0.378
    1UNL    H27   69  -0.387  -0.054   0.090
    1UNL    H28   70  -0.379   0.198  -0.014
    1UNL    H29   71  -0.422   0.189  -0.184
    1UNL    H30   72  -0.158   0.132  -0.103
    1UNL    H31   73  -0.425  -0.043  -0.302
    1UNL    H32   74  -0.352  -0.275  -0.249
    1UNL    H33   75  -0.492  -0.246  -0.142
    1UNL    H34   76  -0.315  -0.306   0.033
   0.00000   0.00000   0.00000   0.00000   0.00000   0.00000   0.00000   0.00000   0.00000
Generated with MDTraj, t= 87.0
 76
    1UNL     C1    1  -0.133  -0.542  -0.262
    1UNL     O1    2  -0.190  -0.441  -0.190
    1UNL     C2    3  -0.107  -0.333  -0.191
    1UNL     O2    4   0.006  -0.349  -0.231
    1UNL     C3    5  -0.153  -0.220  -0.118
    1UNL     C4    6  -0.060  -0.127  -0.086
    1UNL     O3    7  -0.068  -0.018  -0.001
    1UNL     C5    8  -0.186  -0.024   0.084
    1UNL     O4    9  -0.153  -0.057   0.216
    1UNL     C6   10  -0.103   0.046   0.296
    1UNL     O5   11  -0.182   0.171   0.293
    1UNL     C7   12  -0.104   0.278   0.347
    1UNL     C8   13  -0.030   0.357   0.233
    1UNL     O6   14   0.038   0.268   0.137
    1UNL     C9   15   0.165   0.239   0.171
    1UNL     O7   16   0.224   0.257   0.278
    1UNL    C10   17   0.250   0.159   0.079
    1UNL    C11   18   0.198   0.117  -0.041
    1UNL    C12   19   0.270   0.058  -0.144
    1UNL    C13   20   0.414   0.052  -0.143
    1UNL    C14   21   0.482   0.009  -0.259
    1UNL     O8   22   0.622  -0.008  -0.258
    1UNL    C15   23   0.689  -0.039  -0.380
    1UNL    C16   24   0.409  -0.034  -0.371
    1UNL     O9   25   0.460  -0.100  -0.480
    1UNL    C17   26   0.272  -0.019  -0.376
    1UNL    O10   27   0.207  -0.075  -0.492
    1UNL    C18   28   0.132  -0.192  -0.471
    1UNL    C19   29   0.205   0.026  -0.261
    1UNL    C20   30  -0.012   0.238   0.466
    1UNL    O11   31  -0.004   0.350   0.560
    1UNL    C21   32  -0.076   0.112   0.538
    1UNL    O12   33  -0.007   0.078   0.656
    1UNL    C22   34  -0.093  -0.012   0.438
    1UNL    O13   35  -0.198  -0.101   0.471
    1UNL    C23   36  -0.313  -0.091   0.031
    1UNL    C24   37  -0.399   0.000  -0.068
    1UNL    C25   38  -0.375   0.153  -0.066
    1UNL    O14   39  -0.258   0.187  -0.135
    1UNL    C26   40  -0.449  -0.078  -0.162
    1UNL    C27   41  -0.403  -0.214  -0.159
    1UNL    C28   42  -0.288  -0.213  -0.056
    1UNL     H1   43  -0.211  -0.623  -0.273
    1UNL     H2   44  -0.037  -0.574  -0.215
    1UNL     H3   45  -0.121  -0.500  -0.360
    1UNL     H4   46   0.043  -0.143  -0.120
    1UNL     H5   47  -0.218   0.084   0.085
    1UNL     H6   48  -0.007   0.074   0.254
    1UNL     H7   49  -0.174   0.355   0.385
    1UNL     H8   50  -0.095   0.413   0.166
    1UNL     H9   51   0.040   0.432   0.273
    1UNL    H10   52   0.350   0.148   0.100
    1UNL    H11   53   0.089   0.111  -0.041
    1UNL    H12   54   0.470   0.095  -0.067
    1UNL    H13   55   0.765  -0.119  -0.360
    1UNL    H14   56   0.745   0.049  -0.405
    1UNL    H15   57   0.624  -0.073  -0.454
    1UNL    H16   58   0.389  -0.161  -0.516
    1UNL    H17   59   0.065  -0.181  -0.383
    1UNL    H18   60   0.070  -0.211  -0.560
    1UNL    H19   61   0.201  -0.275  -0.459
    1UNL    H20   62   0.098   0.038  -0.274
    1UNL    H21   63   0.093   0.216   0.435
    1UNL    H22   64  -0.009   0.333   0.658
    1UNL    H23   65  -0.175   0.146   0.576
    1UNL    H24   66   0.075   0.031   0.630
    1UNL    H25   67  -0.015  -0.078   0.442
    1UNL    H26   68  -0.263  -0.114   0.400
    1UNL    H27   69  -0.377  -0.115   0.121
    1UNL    H28   70  -0.370   0.195   0.032
    1UNL    H29   71  -0.470   0.193  -0.105
    1UNL    H30   72  -0.187   0.131  -0.099
    1UNL    H31   73  -0.496  -0.030  -0.247
    1UNL    H32   74  -0.365  -0.245  -0.260
    1UNL    H33   75  -0.488  -0.283  -0.134
    1UNL    H34   76  -0.291  -0.308   0.009
   0.00000   0.00000   0.00000   0.00000   0.00000   0.00000   0.00000   0.00000   0.00000
Generated with MDTraj, t= 88.0
 76
    1UNL     C1    1  -0.103  -0.514  -0.278
    1UNL     O1    2  -0.180  -0.428  -0.195
    1UNL     C2    3  -0.099  -0.316  -0.174
    1UNL     O2    4   0.003  -0.300  -0.236
    1UNL     C3    5  -0.149  -0.216  -0.081
    1UNL     C4    6  -0.072  -0.100  -0.064
    1UNL     O3    7  -0.116   0.019  -0.003
    1UNL     C5    8  -0.211  -0.013   0.095
    1UNL     O4    9  -0.154  -0.074   0.209
    1UNL     C6   10  -0.105   0.030   0.291
    1UNL     O5   11  -0.184   0.155   0.291
    1UNL     C7   12  -0.101   0.265   0.336
    1UNL     C8   13  -0.032   0.335   0.219
    1UNL     O6   14   0.039   0.235   0.146
    1UNL     C9   15   0.173   0.225   0.172
    1UNL     O7   16   0.229   0.272   0.273
    1UNL    C10   17   0.253   0.151   0.069
    1UNL    C11   18   0.203   0.124  -0.052
    1UNL    C12   19   0.286   0.070  -0.159
    1UNL    C13   20   0.423   0.055  -0.156
    1UNL    C14   21   0.490  -0.005  -0.260
    1UNL     O8   22   0.628  -0.021  -0.231
    1UNL    C15   23   0.713  -0.046  -0.343
    1UNL    C16   24   0.418  -0.037  -0.382
    1UNL     O9   25   0.476  -0.107  -0.484
    1UNL    C17   26   0.273  -0.027  -0.382
    1UNL    O10   27   0.202  -0.086  -0.493
    1UNL    C18   28   0.116  -0.198  -0.463
    1UNL    C19   29   0.210   0.021  -0.272
    1UNL    C20   30  -0.008   0.235   0.450
    1UNL    O11   31   0.010   0.348   0.540
    1UNL    C21   32  -0.056   0.107   0.531
    1UNL    O12   33   0.033   0.066   0.633
    1UNL    C22   34  -0.092  -0.013   0.442
    1UNL    O13   35  -0.217  -0.069   0.488
    1UNL    C23   36  -0.326  -0.093   0.032
    1UNL    C24   37  -0.405  -0.012  -0.071
    1UNL    C25   38  -0.426   0.137  -0.068
    1UNL    O14   39  -0.321   0.219  -0.116
    1UNL    C26   40  -0.435  -0.089  -0.171
    1UNL    C27   41  -0.384  -0.229  -0.160
    1UNL    C28   42  -0.283  -0.225  -0.035
    1UNL     H1   43  -0.168  -0.599  -0.319
    1UNL     H2   44  -0.007  -0.546  -0.227
    1UNL     H3   45  -0.081  -0.454  -0.368
    1UNL     H4   46   0.017  -0.101  -0.118
    1UNL     H5   47  -0.248   0.095   0.117
    1UNL     H6   48  -0.006   0.055   0.250
    1UNL     H7   49  -0.180   0.340   0.367
    1UNL     H8   50  -0.112   0.372   0.154
    1UNL     H9   51   0.038   0.417   0.237
    1UNL    H10   52   0.355   0.123   0.103
    1UNL    H11   53   0.100   0.151  -0.068
    1UNL    H12   54   0.484   0.066  -0.064
    1UNL    H13   55   0.654  -0.055  -0.438
    1UNL    H14   56   0.761  -0.143  -0.323
    1UNL    H15   57   0.774   0.035  -0.357
    1UNL    H16   58   0.421  -0.112  -0.563
    1UNL    H17   59   0.046  -0.178  -0.380
    1UNL    H18   60   0.063  -0.233  -0.553
    1UNL    H19   61   0.182  -0.280  -0.434
    1UNL    H20   62   0.106   0.031  -0.268
    1UNL    H21   63   0.092   0.198   0.417
    1UNL    H22   64   0.045   0.323   0.629
    1UNL    H23   65  -0.150   0.144   0.581
    1UNL    H24   66  -0.012   0.053   0.715
    1UNL    H25   67  -0.021  -0.086   0.447
    1UNL    H26   68  -0.278  -0.077   0.407
    1UNL    H27   69  -0.400  -0.109   0.116
    1UNL    H28   70  -0.465   0.166   0.031
    1UNL    H29   71  -0.519   0.157  -0.128
    1UNL    H30   72  -0.233   0.185  -0.082
    1UNL    H31   73  -0.483  -0.036  -0.250
    1UNL    H32   74  -0.337  -0.270  -0.254
    1UNL    H33   75  -0.465  -0.301  -0.131
    1UNL    H34   76  -0.287  -0.311   0.041
   0.00000   0.00000   0.00000   0.00000   0.00000   0.00000   0.00000   0.00000   0.00000
Generated with MDTraj, t= 89.0
 76
    1UNL     C1    1  -0.090  -0.486  -0.278
    1UNL     O1    2  -0.154  -0.408  -0.180
    1UNL     C2    3  -0.080  -0.295  -0.164
    1UNL     O2    4   0.025  -0.273  -0.221
    1UNL     C3    5  -0.144  -0.191  -0.074
    1UNL     C4    6  -0.086  -0.074  -0.042
    1UNL     O3    7  -0.154   0.030   0.018
    1UNL     C5    8  -0.259  -0.006   0.110
    1UNL     O4    9  -0.220  -0.059   0.229
    1UNL     C6   10  -0.130   0.032   0.285
    1UNL     O5   11  -0.181   0.166   0.288
    1UNL     C7   12  -0.090   0.269   0.337
    1UNL     C8   13  -0.030   0.345   0.216
    1UNL     O6   14   0.040   0.248   0.134
    1UNL     C9   15   0.174   0.234   0.160
    1UNL     O7   16   0.218   0.269   0.267
    1UNL    C10   17   0.258   0.181   0.058
    1UNL    C11   18   0.206   0.124  -0.051
    1UNL    C12   19   0.285   0.056  -0.157
    1UNL    C13   20   0.419   0.029  -0.151
    1UNL    C14   21   0.498  -0.021  -0.252
    1UNL     O8   22   0.640  -0.026  -0.224
    1UNL    C15   23   0.734  -0.058  -0.329
    1UNL    C16   24   0.428  -0.062  -0.372
    1UNL     O9   25   0.483  -0.120  -0.487
    1UNL    C17   26   0.283  -0.040  -0.383
    1UNL    O10   27   0.221  -0.078  -0.502
    1UNL    C18   28   0.136  -0.196  -0.489
    1UNL    C19   29   0.216   0.027  -0.279
    1UNL    C20   30   0.013   0.220   0.438
    1UNL    O11   31   0.044   0.318   0.539
    1UNL    C21   32  -0.042   0.099   0.518
    1UNL    O12   33   0.048   0.055   0.615
    1UNL    C22   34  -0.082  -0.014   0.425
    1UNL    O13   35  -0.189  -0.076   0.493
    1UNL    C23   36  -0.350  -0.101   0.030
    1UNL    C24   37  -0.435  -0.029  -0.079
    1UNL    C25   38  -0.464   0.116  -0.079
    1UNL    O14   39  -0.356   0.210  -0.085
    1UNL    C26   40  -0.464  -0.113  -0.180
    1UNL    C27   41  -0.381  -0.233  -0.168
    1UNL    C28   42  -0.286  -0.218  -0.042
    1UNL     H1   43  -0.139  -0.586  -0.273
    1UNL     H2   44   0.023  -0.488  -0.268
    1UNL     H3   45  -0.121  -0.447  -0.378
    1UNL     H4   46   0.014  -0.048  -0.077
    1UNL     H5   47  -0.303   0.101   0.128
    1UNL     H6   48  -0.039   0.036   0.222
    1UNL     H7   49  -0.151   0.345   0.396
    1UNL     H8   50  -0.105   0.380   0.142
    1UNL     H9   51   0.033   0.423   0.258
    1UNL    H10   52   0.357   0.159   0.095
    1UNL    H11   53   0.106   0.159  -0.076
    1UNL    H12   54   0.476   0.052  -0.060
    1UNL    H13   55   0.723   0.013  -0.416
    1UNL    H14   56   0.705  -0.158  -0.361
    1UNL    H15   57   0.831  -0.049  -0.293
    1UNL    H16   58   0.414  -0.158  -0.547
    1UNL    H17   59   0.051  -0.186  -0.417
    1UNL    H18   60   0.104  -0.238  -0.585
    1UNL    H19   61   0.195  -0.273  -0.441
    1UNL    H20   62   0.109   0.059  -0.295
    1UNL    H21   63   0.110   0.185   0.399
    1UNL    H22   64   0.045   0.287   0.631
    1UNL    H23   65  -0.137   0.142   0.565
    1UNL    H24   66   0.136   0.077   0.581
    1UNL    H25   67  -0.001  -0.076   0.420
    1UNL    H26   68  -0.227  -0.140   0.433
    1UNL    H27   69  -0.428  -0.140   0.105
    1UNL    H28   70  -0.536   0.138   0.003
    1UNL    H29   71  -0.536   0.138  -0.166
    1UNL    H30   72  -0.274   0.172  -0.048
    1UNL    H31   73  -0.523  -0.087  -0.267
    1UNL    H32   74  -0.314  -0.257  -0.255
    1UNL    H33   75  -0.438  -0.328  -0.151
    1UNL    H34   76  -0.293  -0.317   0.016
   0.00000   0.00000   0.00000   0.00000   0.00000   0.00000   0.00000   0.00000   0.00000
Generated with MDTraj, t= 90.0
 76
    1UNL     C1    1  -0.025  -0.460  -0.256
    1UNL     O1    2  -0.128  -0.397  -0.184
    1UNL     C2    3  -0.083  -0.270  -0.163
    1UNL     O2    4   0.028  -0.238  -0.203
    1UNL     C3    5  -0.165  -0.181  -0.078
    1UNL     C4    6  -0.121  -0.060  -0.053
    1UNL     O3    7  -0.176   0.044   0.012
    1UNL     C5    8  -0.284   0.009   0.108
    1UNL     O4    9  -0.234  -0.038   0.227
    1UNL     C6   10  -0.136   0.045   0.279
    1UNL     O5   11  -0.190   0.174   0.304
    1UNL     C7   12  -0.089   0.270   0.348
    1UNL     C8   13  -0.031   0.336   0.225
    1UNL     O6   14   0.035   0.237   0.149
    1UNL     C9   15   0.176   0.241   0.153
    1UNL     O7   16   0.231   0.311   0.234
    1UNL    C10   17   0.247   0.157   0.060
    1UNL    C11   18   0.196   0.124  -0.057
    1UNL    C12   19   0.283   0.070  -0.159
    1UNL    C13   20   0.422   0.035  -0.142
    1UNL    C14   21   0.499  -0.024  -0.249
    1UNL     O8   22   0.638  -0.062  -0.224
    1UNL    C15   23   0.732  -0.081  -0.331
    1UNL    C16   24   0.431  -0.068  -0.367
    1UNL     O9   25   0.497  -0.125  -0.471
    1UNL    C17   26   0.295  -0.047  -0.380
    1UNL    O10   27   0.251  -0.097  -0.505
    1UNL    C18   28   0.158  -0.191  -0.482
    1UNL    C19   29   0.220   0.030  -0.279
    1UNL    C20   30   0.020   0.213   0.438
    1UNL    O11   31   0.060   0.308   0.532
    1UNL    C21   32  -0.028   0.083   0.511
    1UNL    O12   33   0.068   0.033   0.600
    1UNL    C22   34  -0.063  -0.022   0.402
    1UNL    O13   35  -0.152  -0.112   0.477
    1UNL    C23   36  -0.380  -0.099   0.039
    1UNL    C24   37  -0.461  -0.033  -0.071
    1UNL    C25   38  -0.503   0.110  -0.065
    1UNL    O14   39  -0.417   0.208  -0.120
    1UNL    C26   40  -0.455  -0.108  -0.183
    1UNL    C27   41  -0.391  -0.237  -0.155
    1UNL    C28   42  -0.304  -0.215  -0.032
    1UNL     H1   43  -0.075  -0.553  -0.276
    1UNL     H2   44   0.069  -0.467  -0.201
    1UNL     H3   45  -0.010  -0.411  -0.354
    1UNL     H4   46  -0.017  -0.026  -0.075
    1UNL     H5   47  -0.323   0.109   0.144
    1UNL     H6   48  -0.065   0.062   0.194
    1UNL     H7   49  -0.144   0.347   0.409
    1UNL     H8   50  -0.116   0.385   0.169
    1UNL     H9   51   0.051   0.402   0.254
    1UNL    H10   52   0.350   0.145   0.079
    1UNL    H11   53   0.096   0.148  -0.079
    1UNL    H12   54   0.462   0.044  -0.047
    1UNL    H13   55   0.692  -0.133  -0.414
    1UNL    H14   56   0.808  -0.148  -0.287
    1UNL    H15   57   0.773   0.015  -0.360
    1UNL    H16   58   0.434  -0.154  -0.546
    1UNL    H17   59   0.108  -0.179  -0.385
    1UNL    H18   60   0.095  -0.190  -0.572
    1UNL    H19   61   0.200  -0.289  -0.477
    1UNL    H20   62   0.119   0.028  -0.299
    1UNL    H21   63   0.112   0.177   0.388
    1UNL    H22   64   0.131   0.279   0.593
    1UNL    H23   65  -0.125   0.108   0.568
    1UNL    H24   66   0.031  -0.053   0.639
    1UNL    H25   67   0.020  -0.077   0.380
    1UNL    H26   68  -0.223  -0.153   0.417
    1UNL    H27   69  -0.438  -0.145   0.127
    1UNL    H28   70  -0.526   0.143   0.041
    1UNL    H29   71  -0.611   0.116  -0.103
    1UNL    H30   72  -0.327   0.174  -0.095
    1UNL    H31   73  -0.506  -0.079  -0.272
    1UNL    H32   74  -0.315  -0.281  -0.227
    1UNL    H33   75  -0.463  -0.320  -0.135
    1UNL    H34   76  -0.311  -0.308   0.036
   0.00000   0.00000   0.00000   0.00000   0.00000   0.00000   0.00000   0.00000   0.00000
Generated with MDTraj, t= 91.0
 76
    1UNL     C1    1  -0.019  -0.437  -0.209
    1UNL     O1    2  -0.127  -0.363  -0.146
    1UNL     C2    3  -0.079  -0.233  -0.142
    1UNL     O2    4   0.027  -0.199  -0.192
    1UNL     C3    5  -0.171  -0.138  -0.080
    1UNL     C4    6  -0.130  -0.009  -0.064
    1UNL     O3    7  -0.206   0.084  -0.001
    1UNL     C5    8  -0.284   0.020   0.096
    1UNL     O4    9  -0.220  -0.050   0.204
    1UNL     C6   10  -0.120   0.030   0.272
    1UNL     O5   11  -0.185   0.148   0.311
    1UNL     C7   12  -0.081   0.253   0.337
    1UNL     C8   13  -0.034   0.315   0.203
    1UNL     O6   14   0.044   0.225   0.133
    1UNL     C9   15   0.175   0.253   0.144
    1UNL     O7   16   0.225   0.320   0.228
    1UNL    C10   17   0.268   0.184   0.043
    1UNL    C11   18   0.209   0.130  -0.061
    1UNL    C12   19   0.283   0.049  -0.158
    1UNL    C13   20   0.421   0.023  -0.143
    1UNL    C14   21   0.505  -0.040  -0.234
    1UNL     O8   22   0.642  -0.068  -0.206
    1UNL    C15   23   0.734  -0.082  -0.314
    1UNL    C16   24   0.436  -0.083  -0.346
    1UNL     O9   25   0.506  -0.143  -0.453
    1UNL    C17   26   0.298  -0.050  -0.370
    1UNL    O10   27   0.252  -0.099  -0.494
    1UNL    C18   28   0.144  -0.185  -0.473
    1UNL    C19   29   0.225   0.019  -0.277
    1UNL    C20   30   0.027   0.202   0.436
    1UNL    O11   31   0.049   0.294   0.536
    1UNL    C21   32  -0.006   0.058   0.500
    1UNL    O12   33   0.090   0.023   0.599
    1UNL    C22   34  -0.040  -0.040   0.387
    1UNL    O13   35  -0.123  -0.147   0.434
    1UNL    C23   36  -0.388  -0.089   0.031
    1UNL    C24   37  -0.491  -0.039  -0.063
    1UNL    C25   38  -0.545   0.098  -0.067
    1UNL    O14   39  -0.453   0.173  -0.136
    1UNL    C26   40  -0.488  -0.115  -0.176
    1UNL    C27   41  -0.398  -0.234  -0.156
    1UNL    C28   42  -0.302  -0.192  -0.033
    1UNL     H1   43  -0.047  -0.536  -0.208
    1UNL     H2   44   0.072  -0.425  -0.156
    1UNL     H3   45   0.001  -0.405  -0.313
    1UNL     H4   46  -0.047   0.028  -0.116
    1UNL     H5   47  -0.342   0.106   0.134
    1UNL     H6   48  -0.056   0.067   0.188
    1UNL     H7   49  -0.126   0.342   0.384
    1UNL     H8   50  -0.124   0.339   0.137
    1UNL     H9   51   0.025   0.405   0.228
    1UNL    H10   52   0.380   0.186   0.051
    1UNL    H11   53   0.099   0.149  -0.073
    1UNL    H12   54   0.458   0.037  -0.038
    1UNL    H13   55   0.771  -0.183  -0.314
    1UNL    H14   56   0.824  -0.019  -0.287
    1UNL    H15   57   0.689  -0.050  -0.410
    1UNL    H16   58   0.458  -0.125  -0.533
    1UNL    H17   59   0.125  -0.188  -0.364
    1UNL    H18   60   0.066  -0.148  -0.540
    1UNL    H19   61   0.157  -0.289  -0.495
    1UNL    H20   62   0.124   0.066  -0.290
    1UNL    H21   63   0.122   0.190   0.382
    1UNL    H22   64   0.083   0.254   0.621
    1UNL    H23   65  -0.102   0.082   0.560
    1UNL    H24   66   0.184   0.012   0.561
    1UNL    H25   67   0.042  -0.085   0.348
    1UNL    H26   68  -0.188  -0.168   0.368
    1UNL    H27   69  -0.448  -0.139   0.117
    1UNL    H28   70  -0.572   0.136   0.035
    1UNL    H29   71  -0.645   0.110  -0.122
    1UNL    H30   72  -0.363   0.154  -0.104
    1UNL    H31   73  -0.571  -0.095  -0.244
    1UNL    H32   74  -0.332  -0.274  -0.237
    1UNL    H33   75  -0.449  -0.327  -0.120
    1UNL    H34   76  -0.288  -0.280   0.039
   0.00000   0.00000   0.00000   0.00000   0.00000   0.00000   0.00000   0.00000   0.00000
Generated with MDTraj, t= 92.0
 76
    1UNL     C1    1   0.003  -0.423  -0.176
    1UNL     O1    2  -0.109  -0.350  -0.124
    1UNL     C2    3  -0.085  -0.217  -0.141
    1UNL     O2    4   0.011  -0.164  -0.195
    1UNL     C3    5  -0.192  -0.135  -0.081
    1UNL     C4    6  -0.163   0.003  -0.066
    1UNL     O3    7  -0.244   0.086   0.006
    1UNL     C5    8  -0.310   0.009   0.106
    1UNL     O4    9  -0.211  -0.050   0.183
    1UNL     C6   10  -0.122   0.045   0.236
    1UNL     O5   11  -0.192   0.159   0.290
    1UNL     C7   12  -0.088   0.252   0.333
    1UNL     C8   13  -0.034   0.330   0.213
    1UNL     O6   14   0.049   0.257   0.129
    1UNL     C9   15   0.183   0.263   0.151
    1UNL     O7   16   0.231   0.333   0.238
    1UNL    C10   17   0.263   0.193   0.055
    1UNL    C11   18   0.218   0.119  -0.048
    1UNL    C12   19   0.299   0.049  -0.150
    1UNL    C13   20   0.438   0.029  -0.138
    1UNL    C14   21   0.520  -0.049  -0.222
    1UNL     O8   22   0.661  -0.060  -0.201
    1UNL    C15   23   0.749  -0.092  -0.312
    1UNL    C16   24   0.447  -0.098  -0.337
    1UNL     O9   25   0.513  -0.171  -0.433
    1UNL    C17   26   0.311  -0.073  -0.360
    1UNL    O10   27   0.258  -0.116  -0.486
    1UNL    C18   28   0.122  -0.146  -0.466
    1UNL    C19   29   0.239  -0.007  -0.265
    1UNL    C20   30   0.029   0.199   0.433
    1UNL    O11   31   0.029   0.273   0.553
    1UNL    C21   32   0.006   0.048   0.462
    1UNL    O12   33   0.116   0.009   0.538
    1UNL    C22   34  -0.028  -0.030   0.336
    1UNL    O13   35  -0.084  -0.160   0.367
    1UNL    C23   36  -0.407  -0.106   0.044
    1UNL    C24   37  -0.496  -0.049  -0.062
    1UNL    C25   38  -0.564   0.088  -0.056
    1UNL    O14   39  -0.478   0.193  -0.100
    1UNL    C26   40  -0.488  -0.125  -0.175
    1UNL    C27   41  -0.417  -0.245  -0.144
    1UNL    C28   42  -0.319  -0.204  -0.029
    1UNL     H1   43   0.001  -0.507  -0.115
    1UNL     H2   44   0.095  -0.374  -0.154
    1UNL     H3   45  -0.001  -0.449  -0.283
    1UNL     H4   46  -0.070   0.037  -0.110
    1UNL     H5   47  -0.369   0.079   0.162
    1UNL     H6   48  -0.060   0.079   0.150
    1UNL     H7   49  -0.139   0.326   0.394
    1UNL     H8   50  -0.125   0.367   0.157
    1UNL     H9   51   0.031   0.412   0.246
    1UNL    H10   52   0.365   0.213   0.068
    1UNL    H11   53   0.119   0.102  -0.077
    1UNL    H12   54   0.478   0.052  -0.044
    1UNL    H13   55   0.703  -0.163  -0.380
    1UNL    H14   56   0.838  -0.148  -0.269
    1UNL    H15   57   0.783   0.005  -0.366
    1UNL    H16   58   0.437  -0.193  -0.496
    1UNL    H17   59   0.117  -0.202  -0.372
    1UNL    H18   60   0.063  -0.053  -0.481
    1UNL    H19   61   0.085  -0.218  -0.538
    1UNL    H20   62   0.140   0.022  -0.278
    1UNL    H21   63   0.125   0.202   0.381
    1UNL    H22   64   0.115   0.268   0.602
    1UNL    H23   65  -0.080   0.045   0.538
    1UNL    H24   66   0.157  -0.077   0.511
    1UNL    H25   67   0.060  -0.051   0.289
    1UNL    H26   68  -0.125  -0.201   0.285
    1UNL    H27   69  -0.463  -0.155   0.133
    1UNL    H28   70  -0.589   0.112   0.049
    1UNL    H29   71  -0.663   0.093  -0.107
    1UNL    H30   72  -0.384   0.172  -0.075
    1UNL    H31   73  -0.550  -0.113  -0.262
    1UNL    H32   74  -0.359  -0.294  -0.227
    1UNL    H33   75  -0.480  -0.328  -0.102
    1UNL    H34   76  -0.295  -0.291   0.042
   0.00000   0.00000   0.00000   0.00000   0.00000   0.00000   0.00000   0.00000   0.00000
Generated with MDTraj, t= 93.0
 76
    1UNL     C1    1   0.041  -0.407  -0.170
    1UNL     O1    2  -0.075  -0.354  -0.112
    1UNL     C2    3  -0.084  -0.224  -0.153
    1UNL     O2    4  -0.006  -0.162  -0.223
    1UNL     C3    5  -0.197  -0.143  -0.092
    1UNL     C4    6  -0.173  -0.010  -0.069
    1UNL     O3    7  -0.259   0.080  -0.010
    1UNL     C5    8  -0.328   0.018   0.104
    1UNL     O4    9  -0.227  -0.032   0.190
    1UNL     C6   10  -0.131   0.063   0.223
    1UNL     O5   11  -0.178   0.170   0.307
    1UNL     C7   12  -0.078   0.267   0.324
    1UNL     C8   13  -0.029   0.330   0.189
    1UNL     O6   14   0.055   0.235   0.124
    1UNL     C9   15   0.188   0.257   0.158
    1UNL     O7   16   0.222   0.334   0.246
    1UNL    C10   17   0.277   0.183   0.073
    1UNL    C11   18   0.226   0.116  -0.036
    1UNL    C12   19   0.304   0.040  -0.131
    1UNL    C13   20   0.447   0.038  -0.123
    1UNL    C14   21   0.519  -0.043  -0.216
    1UNL     O8   22   0.662  -0.054  -0.195
    1UNL    C15   23   0.747  -0.095  -0.298
    1UNL    C16   24   0.458  -0.108  -0.322
    1UNL     O9   25   0.524  -0.172  -0.418
    1UNL    C17   26   0.314  -0.095  -0.331
    1UNL    O10   27   0.257  -0.158  -0.437
    1UNL    C18   28   0.129  -0.104  -0.478
    1UNL    C19   29   0.241  -0.028  -0.235
    1UNL    C20   30   0.032   0.202   0.428
    1UNL    O11   31   0.035   0.253   0.560
    1UNL    C21   32   0.017   0.051   0.436
    1UNL    O12   33   0.124  -0.015   0.500
    1UNL    C22   34  -0.002   0.003   0.289
    1UNL    O13   35  -0.016  -0.138   0.285
    1UNL    C23   36  -0.420  -0.100   0.047
    1UNL    C24   37  -0.528  -0.050  -0.047
    1UNL    C25   38  -0.607   0.079  -0.035
    1UNL    O14   39  -0.536   0.202  -0.071
    1UNL    C26   40  -0.534  -0.133  -0.153
    1UNL    C27   41  -0.430  -0.233  -0.157
    1UNL    C28   42  -0.328  -0.200  -0.039
    1UNL     H1   43   0.028  -0.512  -0.159
    1UNL     H2   44   0.130  -0.385  -0.108
    1UNL     H3   45   0.060  -0.380  -0.281
    1UNL     H4   46  -0.069   0.028  -0.087
    1UNL     H5   47  -0.381   0.089   0.164
    1UNL     H6   48  -0.100   0.097   0.122
    1UNL     H7   49  -0.105   0.345   0.393
    1UNL     H8   50  -0.114   0.345   0.117
    1UNL     H9   51   0.025   0.421   0.207
    1UNL    H10   52   0.383   0.164   0.086
    1UNL    H11   53   0.118   0.117  -0.061
    1UNL    H12   54   0.512   0.108  -0.072
    1UNL    H13   55   0.790  -0.010  -0.351
    1UNL    H14   56   0.701  -0.162  -0.371
    1UNL    H15   57   0.836  -0.151  -0.248
    1UNL    H16   58   0.457  -0.199  -0.482
    1UNL    H17   59   0.049  -0.123  -0.405
    1UNL    H18   60   0.136  -0.003  -0.524
    1UNL    H19   61   0.102  -0.173  -0.557
    1UNL    H20   62   0.134  -0.038  -0.235
    1UNL    H21   63   0.129   0.226   0.387
    1UNL    H22   64   0.106   0.208   0.609
    1UNL    H23   65  -0.075   0.020   0.497
    1UNL    H24   66   0.186  -0.047   0.435
    1UNL    H25   67   0.080   0.033   0.236
    1UNL    H26   68  -0.103  -0.166   0.320
    1UNL    H27   69  -0.459  -0.158   0.141
    1UNL    H28   70  -0.648   0.095   0.063
    1UNL    H29   71  -0.692   0.068  -0.102
    1UNL    H30   72  -0.440   0.184  -0.071
    1UNL    H31   73  -0.612  -0.128  -0.228
    1UNL    H32   74  -0.373  -0.243  -0.251
    1UNL    H33   75  -0.483  -0.332  -0.145
    1UNL    H34   76  -0.311  -0.294   0.023
   0.00000   0.00000   0.00000   0.00000   0.00000   0.00000   0.00000   0.00000   0.00000
Generated with MDTraj, t= 94.0
 76
    1UNL     C1    1   0.018  -0.397  -0.161
    1UNL     O1    2  -0.108  -0.335  -0.124
    1UNL     C2    3  -0.095  -0.198  -0.161
    1UNL     O2    4  -0.024  -0.146  -0.247
    1UNL     C3    5  -0.201  -0.122  -0.090
    1UNL     C4    6  -0.209   0.011  -0.091
    1UNL     O3    7  -0.303   0.080  -0.018
    1UNL     C5    8  -0.326   0.012   0.104
    1UNL     O4    9  -0.214  -0.026   0.174
    1UNL     C6   10  -0.129   0.079   0.200
    1UNL     O5   11  -0.183   0.187   0.279
    1UNL     C7   12  -0.076   0.269   0.338
    1UNL     C8   13  -0.015   0.353   0.226
    1UNL     O6   14   0.063   0.275   0.130
    1UNL     C9   15   0.197   0.273   0.160
    1UNL     O7   16   0.254   0.328   0.252
    1UNL    C10   17   0.281   0.188   0.075
    1UNL    C11   18   0.224   0.097  -0.016
    1UNL    C12   19   0.305   0.021  -0.116
    1UNL    C13   20   0.443   0.011  -0.105
    1UNL    C14   21   0.524  -0.043  -0.203
    1UNL     O8   22   0.660  -0.039  -0.199
    1UNL    C15   23   0.754  -0.097  -0.293
    1UNL    C16   24   0.461  -0.113  -0.309
    1UNL     O9   25   0.537  -0.178  -0.409
    1UNL    C17   26   0.322  -0.117  -0.309
    1UNL    O10   27   0.261  -0.196  -0.410
    1UNL    C18   28   0.187  -0.103  -0.498
    1UNL    C19   29   0.245  -0.052  -0.211
    1UNL    C20   30   0.027   0.196   0.432
    1UNL    O11   31   0.001   0.223   0.568
    1UNL    C21   32   0.023   0.044   0.402
    1UNL    O12   33   0.143  -0.019   0.449
    1UNL    C22   34   0.009   0.025   0.249
    1UNL    O13   35   0.018  -0.109   0.217
    1UNL    C23   36  -0.410  -0.112   0.062
    1UNL    C24   37  -0.536  -0.075  -0.018
    1UNL    C25   38  -0.621   0.043   0.009
    1UNL    O14   39  -0.567   0.166  -0.037
    1UNL    C26   40  -0.539  -0.134  -0.138
    1UNL    C27   41  -0.423  -0.226  -0.158
    1UNL    C28   42  -0.319  -0.193  -0.038
    1UNL     H1   43   0.024  -0.503  -0.135
    1UNL     H2   44   0.101  -0.348  -0.103
    1UNL     H3   45   0.043  -0.385  -0.274
    1UNL     H4   46  -0.153   0.083  -0.151
    1UNL     H5   47  -0.397   0.075   0.159
    1UNL     H6   48  -0.106   0.113   0.099
    1UNL     H7   49  -0.133   0.333   0.404
    1UNL     H8   50  -0.106   0.391   0.177
    1UNL     H9   51   0.045   0.434   0.259
    1UNL    H10   52   0.389   0.182   0.080
    1UNL    H11   53   0.118   0.085  -0.021
    1UNL    H12   54   0.492   0.073  -0.028
    1UNL    H13   55   0.753  -0.050  -0.391
    1UNL    H14   56   0.730  -0.200  -0.313
    1UNL    H15   57   0.859  -0.092  -0.249
    1UNL    H16   58   0.473  -0.208  -0.478
    1UNL    H17   59   0.098  -0.066  -0.444
    1UNL    H18   60   0.253  -0.019  -0.529
    1UNL    H19   61   0.147  -0.157  -0.583
    1UNL    H20   62   0.137  -0.068  -0.216
    1UNL    H21   63   0.126   0.229   0.400
    1UNL    H22   64   0.073   0.189   0.621
    1UNL    H23   65  -0.063  -0.002   0.459
    1UNL    H24   66   0.193  -0.032   0.368
    1UNL    H25   67   0.081   0.084   0.207
    1UNL    H26   68  -0.066  -0.150   0.251
    1UNL    H27   69  -0.457  -0.173   0.150
    1UNL    H28   70  -0.627   0.047   0.114
    1UNL    H29   71  -0.720   0.043  -0.036
    1UNL    H30   72  -0.471   0.157  -0.060
    1UNL    H31   73  -0.619  -0.122  -0.210
    1UNL    H32   74  -0.383  -0.214  -0.261
    1UNL    H33   75  -0.454  -0.333  -0.148
    1UNL    H34   76  -0.289  -0.287   0.019
   0.00000   0.00000   0.00000   0.00000   0.00000   0.00000   0.00000   0.00000   0.00000
Generated with MDTraj, t= 95.0
 76
    1UNL     C1    1   0.001  -0.361  -0.229
    1UNL     O1    2  -0.107  -0.313  -0.159
    1UNL     C2    3  -0.113  -0.182  -0.179
    1UNL     O2    4  -0.033  -0.116  -0.244
    1UNL     C3    5  -0.228  -0.117  -0.111
    1UNL     C4    6  -0.229   0.021  -0.118
    1UNL     O3    7  -0.298   0.107  -0.028
    1UNL     C5    8  -0.334   0.032   0.089
    1UNL     O4    9  -0.212  -0.015   0.155
    1UNL     C6   10  -0.116   0.087   0.179
    1UNL     O5   11  -0.174   0.191   0.261
    1UNL     C7   12  -0.070   0.275   0.325
    1UNL     C8   13   0.000   0.362   0.223
    1UNL     O6   14   0.075   0.287   0.127
    1UNL     C9   15   0.206   0.280   0.160
    1UNL     O7   16   0.256   0.321   0.265
    1UNL    C10   17   0.286   0.193   0.074
    1UNL    C11   18   0.240   0.102  -0.018
    1UNL    C12   19   0.318   0.022  -0.110
    1UNL    C13   20   0.453   0.026  -0.111
    1UNL    C14   21   0.535  -0.043  -0.200
    1UNL     O8   22   0.677  -0.024  -0.177
    1UNL    C15   23   0.766  -0.084  -0.273
    1UNL    C16   24   0.471  -0.123  -0.295
    1UNL     O9   25   0.552  -0.199  -0.374
    1UNL    C17   26   0.327  -0.136  -0.292
    1UNL    O10   27   0.265  -0.223  -0.384
    1UNL    C18   28   0.191  -0.136  -0.464
    1UNL    C19   29   0.251  -0.057  -0.207
    1UNL    C20   30   0.019   0.185   0.424
    1UNL    O11   31  -0.033   0.185   0.558
    1UNL    C21   32   0.032   0.034   0.382
    1UNL    O12   33   0.158  -0.031   0.433
    1UNL    C22   34   0.027   0.023   0.227
    1UNL    O13   35   0.042  -0.102   0.176
    1UNL    C23   36  -0.410  -0.105   0.066
    1UNL    C24   37  -0.545  -0.085   0.012
    1UNL    C25   38  -0.642   0.027   0.052
    1UNL    O14   39  -0.619   0.153  -0.008
    1UNL    C26   40  -0.564  -0.167  -0.091
    1UNL    C27   41  -0.443  -0.251  -0.114
    1UNL    C28   42  -0.330  -0.190  -0.031
    1UNL     H1   43   0.013  -0.465  -0.203
    1UNL     H2   44   0.095  -0.310  -0.199
    1UNL     H3   45  -0.013  -0.348  -0.342
    1UNL     H4   46  -0.175   0.069  -0.193
    1UNL     H5   47  -0.365   0.103   0.172
    1UNL     H6   48  -0.102   0.123   0.079
    1UNL     H7   49  -0.131   0.342   0.388
    1UNL     H8   50  -0.074   0.420   0.165
    1UNL     H9   51   0.066   0.429   0.276
    1UNL    H10   52   0.389   0.195   0.091
    1UNL    H11   53   0.133   0.084  -0.031
    1UNL    H12   54   0.492   0.074  -0.030
    1UNL    H13   55   0.771  -0.027  -0.368
    1UNL    H14   56   0.729  -0.177  -0.303
    1UNL    H15   57   0.866  -0.096  -0.232
    1UNL    H16   58   0.507  -0.286  -0.396
    1UNL    H17   59   0.088  -0.136  -0.431
    1UNL    H18   60   0.234  -0.033  -0.469
    1UNL    H19   61   0.193  -0.189  -0.558
    1UNL    H20   62   0.148  -0.036  -0.229
    1UNL    H21   63   0.117   0.230   0.416
    1UNL    H22   64   0.011   0.127   0.623
    1UNL    H23   65  -0.050  -0.024   0.427
    1UNL    H24   66   0.215  -0.050   0.352
    1UNL    H25   67   0.110   0.089   0.194
    1UNL    H26   68  -0.016  -0.111   0.095
    1UNL    H27   69  -0.407  -0.161   0.169
    1UNL    H28   70  -0.643   0.049   0.155
    1UNL    H29   71  -0.738  -0.006   0.018
    1UNL    H30   72  -0.527   0.158  -0.043
    1UNL    H31   73  -0.653  -0.171  -0.148
    1UNL    H32   74  -0.413  -0.237  -0.220
    1UNL    H33   75  -0.468  -0.358  -0.092
    1UNL    H34   76  -0.278  -0.270   0.032
   0.00000   0.00000   0.00000   0.00000   0.00000   0.00000   0.00000   0.00000   0.00000
Generated with MDTraj, t= 96.0
 76
    1UNL     C1    1  -0.038  -0.345  -0.278
    1UNL     O1    2  -0.140  -0.301  -0.198
    1UNL     C2    3  -0.150  -0.169  -0.202
    1UNL     O2    4  -0.075  -0.097  -0.262
    1UNL     C3    5  -0.255  -0.109  -0.124
    1UNL     C4    6  -0.266   0.029  -0.132
    1UNL     O3    7  -0.326   0.092  -0.027
    1UNL     C5    8  -0.320   0.021   0.090
    1UNL     O4    9  -0.203  -0.014   0.137
    1UNL     C6   10  -0.114   0.095   0.159
    1UNL     O5   11  -0.169   0.193   0.246
    1UNL     C7   12  -0.068   0.271   0.317
    1UNL     C8   13   0.003   0.359   0.221
    1UNL     O6   14   0.088   0.290   0.129
    1UNL     C9   15   0.218   0.279   0.172
    1UNL     O7   16   0.261   0.318   0.282
    1UNL    C10   17   0.302   0.205   0.079
    1UNL    C11   18   0.262   0.157  -0.036
    1UNL    C12   19   0.340   0.068  -0.119
    1UNL    C13   20   0.477   0.051  -0.105
    1UNL    C14   21   0.551  -0.036  -0.179
    1UNL     O8   22   0.692  -0.044  -0.166
    1UNL    C15   23   0.766  -0.087  -0.271
    1UNL    C16   24   0.492  -0.129  -0.264
    1UNL     O9   25   0.560  -0.233  -0.327
    1UNL    C17   26   0.351  -0.124  -0.275
    1UNL    O10   27   0.294  -0.220  -0.363
    1UNL    C18   28   0.180  -0.179  -0.433
    1UNL    C19   29   0.271  -0.023  -0.211
    1UNL    C20   30   0.025   0.179   0.405
    1UNL    O11   31  -0.006   0.188   0.543
    1UNL    C21   32   0.030   0.036   0.357
    1UNL    O12   33   0.128  -0.047   0.417
    1UNL    C22   34   0.025   0.025   0.204
    1UNL    O13   35   0.030  -0.098   0.162
    1UNL    C23   36  -0.404  -0.118   0.080
    1UNL    C24   37  -0.545  -0.099   0.034
    1UNL    C25   38  -0.633   0.007   0.091
    1UNL    O14   39  -0.609   0.127   0.012
    1UNL    C26   40  -0.573  -0.174  -0.069
    1UNL    C27   41  -0.452  -0.257  -0.107
    1UNL    C28   42  -0.334  -0.196  -0.030
    1UNL     H1   43  -0.031  -0.451  -0.272
    1UNL     H2   44   0.056  -0.303  -0.244
    1UNL     H3   45  -0.056  -0.310  -0.381
    1UNL     H4   46  -0.203   0.077  -0.206
    1UNL     H5   47  -0.381   0.079   0.167
    1UNL     H6   48  -0.102   0.145   0.065
    1UNL     H7   49  -0.128   0.325   0.396
    1UNL     H8   50  -0.073   0.416   0.163
    1UNL     H9   51   0.064   0.430   0.279
    1UNL    H10   52   0.397   0.165   0.115
    1UNL    H11   53   0.162   0.171  -0.070
    1UNL    H12   54   0.526   0.112  -0.026
    1UNL    H13   55   0.719  -0.070  -0.368
    1UNL    H14   56   0.785  -0.190  -0.266
    1UNL    H15   57   0.856  -0.031  -0.256
    1UNL    H16   58   0.495  -0.295  -0.358
    1UNL    H17   59   0.115  -0.109  -0.381
    1UNL    H18   60   0.213  -0.130  -0.526
    1UNL    H19   61   0.135  -0.273  -0.456
    1UNL    H20   62   0.160  -0.022  -0.207
    1UNL    H21   63   0.125   0.221   0.392
    1UNL    H22   64   0.037   0.117   0.599
    1UNL    H23   65  -0.063  -0.009   0.389
    1UNL    H24   66   0.218  -0.012   0.390
    1UNL    H25   67   0.116   0.080   0.153
    1UNL    H26   68  -0.032  -0.159   0.203
    1UNL    H27   69  -0.409  -0.180   0.178
    1UNL    H28   70  -0.608   0.035   0.192
    1UNL    H29   71  -0.738  -0.019   0.085
    1UNL    H30   72  -0.516   0.116  -0.017
    1UNL    H31   73  -0.670  -0.177  -0.120
    1UNL    H32   74  -0.434  -0.257  -0.216
    1UNL    H33   75  -0.476  -0.360  -0.075
    1UNL    H34   76  -0.273  -0.277   0.022
   0.00000   0.00000   0.00000   0.00000   0.00000   0.00000   0.00000   0.00000   0.00000
Generated with MDTraj, t= 97.0
 76
    1UNL     C1    1  -0.089  -0.372  -0.308
    1UNL     O1    2  -0.198  -0.312  -0.235
    1UNL     C2    3  -0.186  -0.177  -0.228
    1UNL     O2    4  -0.119  -0.113  -0.305
    1UNL     C3    5  -0.264  -0.113  -0.125
    1UNL     C4    6  -0.257   0.018  -0.113
    1UNL     O3    7  -0.318   0.087  -0.013
    1UNL     C5    8  -0.328   0.006   0.112
    1UNL     O4    9  -0.200  -0.030   0.162
    1UNL     C6   10  -0.108   0.079   0.155
    1UNL     O5   11  -0.157   0.185   0.229
    1UNL     C7   12  -0.057   0.268   0.303
    1UNL     C8   13   0.013   0.366   0.219
    1UNL     O6   14   0.096   0.309   0.121
    1UNL     C9   15   0.227   0.295   0.166
    1UNL     O7   16   0.267   0.322   0.278
    1UNL    C10   17   0.325   0.242   0.067
    1UNL    C11   18   0.282   0.183  -0.046
    1UNL    C12   19   0.355   0.073  -0.112
    1UNL    C13   20   0.492   0.064  -0.110
    1UNL    C14   21   0.567  -0.032  -0.170
    1UNL     O8   22   0.707  -0.035  -0.153
    1UNL    C15   23   0.787  -0.091  -0.256
    1UNL    C16   24   0.498  -0.136  -0.235
    1UNL     O9   25   0.546  -0.257  -0.294
    1UNL    C17   26   0.361  -0.121  -0.250
    1UNL    O10   27   0.300  -0.207  -0.341
    1UNL    C18   28   0.218  -0.142  -0.438
    1UNL    C19   29   0.290  -0.018  -0.188
    1UNL    C20   30   0.037   0.185   0.399
    1UNL    O11   31  -0.000   0.198   0.528
    1UNL    C21   32   0.034   0.038   0.361
    1UNL    O12   33   0.140  -0.041   0.407
    1UNL    C22   34   0.036   0.025   0.205
    1UNL    O13   35   0.055  -0.100   0.159
    1UNL    C23   36  -0.412  -0.122   0.076
    1UNL    C24   37  -0.558  -0.108   0.044
    1UNL    C25   38  -0.661  -0.009   0.099
    1UNL    O14   39  -0.630   0.119   0.043
    1UNL    C26   40  -0.591  -0.176  -0.064
    1UNL    C27   41  -0.469  -0.248  -0.129
    1UNL    C28   42  -0.347  -0.203  -0.041
    1UNL     H1   43  -0.081  -0.477  -0.296
    1UNL     H2   44   0.001  -0.329  -0.275
    1UNL     H3   45  -0.095  -0.343  -0.411
    1UNL     H4   46  -0.200   0.076  -0.192
    1UNL     H5   47  -0.357   0.071   0.202
    1UNL     H6   48  -0.110   0.106   0.051
    1UNL     H7   49  -0.123   0.320   0.379
    1UNL     H8   50  -0.065   0.424   0.163
    1UNL     H9   51   0.074   0.437   0.280
    1UNL    H10   52   0.420   0.223   0.110
    1UNL    H11   53   0.181   0.199  -0.086
    1UNL    H12   54   0.528   0.155  -0.065
    1UNL    H13   55   0.774  -0.020  -0.339
    1UNL    H14   56   0.744  -0.179  -0.295
    1UNL    H15   57   0.887  -0.098  -0.226
    1UNL    H16   58   0.483  -0.303  -0.358
    1UNL    H17   59   0.111  -0.144  -0.417
    1UNL    H18   60   0.245  -0.036  -0.450
    1UNL    H19   61   0.241  -0.199  -0.525
    1UNL    H20   62   0.186  -0.036  -0.175
    1UNL    H21   63   0.141   0.220   0.392
    1UNL    H22   64   0.056   0.130   0.575
    1UNL    H23   65  -0.059   0.011   0.405
    1UNL    H24   66   0.122  -0.136   0.398
    1UNL    H25   67   0.122   0.091   0.162
    1UNL    H26   68  -0.029  -0.153   0.143
    1UNL    H27   69  -0.400  -0.195   0.166
    1UNL    H28   70  -0.650  -0.010   0.208
    1UNL    H29   71  -0.767  -0.026   0.067
    1UNL    H30   72  -0.532   0.127   0.016
    1UNL    H31   73  -0.680  -0.160  -0.119
    1UNL    H32   74  -0.464  -0.234  -0.238
    1UNL    H33   75  -0.478  -0.356  -0.113
    1UNL    H34   76  -0.286  -0.287   0.008
   0.00000   0.00000   0.00000   0.00000   0.00000   0.00000   0.00000   0.00000   0.00000
Generated with MDTraj, t= 98.0
 76
    1UNL     C1    1  -0.160  -0.374  -0.383
    1UNL     O1    2  -0.192  -0.329  -0.257
    1UNL     C2    3  -0.188  -0.192  -0.244
    1UNL     O2    4  -0.129  -0.123  -0.326
    1UNL     C3    5  -0.267  -0.134  -0.136
    1UNL     C4    6  -0.276  -0.002  -0.127
    1UNL     O3    7  -0.320   0.071  -0.022
    1UNL     C5    8  -0.321  -0.005   0.099
    1UNL     O4    9  -0.196  -0.031   0.144
    1UNL     C6   10  -0.120   0.078   0.156
    1UNL     O5   11  -0.167   0.176   0.247
    1UNL     C7   12  -0.069   0.269   0.307
    1UNL     C8   13   0.003   0.355   0.197
    1UNL     O6   14   0.097   0.281   0.126
    1UNL     C9   15   0.223   0.307   0.167
    1UNL     O7   16   0.260   0.392   0.241
    1UNL    C10   17   0.322   0.224   0.092
    1UNL    C11   18   0.288   0.152  -0.016
    1UNL    C12   19   0.374   0.071  -0.101
    1UNL    C13   20   0.509   0.063  -0.088
    1UNL    C14   21   0.576  -0.039  -0.151
    1UNL     O8   22   0.720  -0.038  -0.125
    1UNL    C15   23   0.798  -0.082  -0.234
    1UNL    C16   24   0.503  -0.128  -0.233
    1UNL     O9   25   0.548  -0.242  -0.288
    1UNL    C17   26   0.367  -0.105  -0.268
    1UNL    O10   27   0.303  -0.205  -0.346
    1UNL    C18   28   0.192  -0.149  -0.417
    1UNL    C19   29   0.300  -0.002  -0.195
    1UNL    C20   30   0.036   0.183   0.402
    1UNL    O11   31  -0.008   0.197   0.534
    1UNL    C21   32   0.051   0.035   0.353
    1UNL    O12   33   0.170  -0.019   0.407
    1UNL    C22   34   0.030   0.021   0.192
    1UNL    O13   35   0.048  -0.108   0.152
    1UNL    C23   36  -0.403  -0.126   0.080
    1UNL    C24   37  -0.546  -0.098   0.057
    1UNL    C25   38  -0.631   0.014   0.122
    1UNL    O14   39  -0.605   0.141   0.071
    1UNL    C26   40  -0.591  -0.164  -0.049
    1UNL    C27   41  -0.489  -0.256  -0.107
    1UNL    C28   42  -0.355  -0.211  -0.043
    1UNL     H1   43  -0.191  -0.478  -0.379
    1UNL     H2   44  -0.055  -0.368  -0.398
    1UNL     H3   45  -0.212  -0.316  -0.458
    1UNL     H4   46  -0.245   0.067  -0.207
    1UNL     H5   47  -0.370   0.052   0.181
    1UNL     H6   48  -0.107   0.131   0.060
    1UNL     H7   49  -0.123   0.339   0.376
    1UNL     H8   50  -0.071   0.400   0.128
    1UNL     H9   51   0.062   0.441   0.241
    1UNL    H10   52   0.423   0.252   0.111
    1UNL    H11   53   0.190   0.161  -0.057
    1UNL    H12   54   0.568   0.117  -0.018
    1UNL    H13   55   0.869   0.002  -0.255
    1UNL    H14   56   0.734  -0.093  -0.324
    1UNL    H15   57   0.856  -0.163  -0.204
    1UNL    H16   58   0.473  -0.303  -0.312
    1UNL    H17   59   0.109  -0.111  -0.356
    1UNL    H18   60   0.228  -0.059  -0.471
    1UNL    H19   61   0.160  -0.229  -0.482
    1UNL    H20   62   0.192   0.009  -0.206
    1UNL    H21   63   0.137   0.230   0.400
    1UNL    H22   64   0.048   0.140   0.592
    1UNL    H23   65  -0.030  -0.015   0.395
    1UNL    H24   66   0.253   0.010   0.370
    1UNL    H25   67   0.104   0.082   0.134
    1UNL    H26   68  -0.023  -0.166   0.176
    1UNL    H27   69  -0.395  -0.203   0.167
    1UNL    H28   70  -0.615   0.027   0.232
    1UNL    H29   71  -0.741  -0.008   0.104
    1UNL    H30   72  -0.517   0.144   0.032
    1UNL    H31   73  -0.676  -0.142  -0.114
    1UNL    H32   74  -0.476  -0.238  -0.215
    1UNL    H33   75  -0.521  -0.360  -0.108
    1UNL    H34   76  -0.293  -0.300  -0.009
   0.00000   0.00000   0.00000   0.00000   0.00000   0.00000   0.00000   0.00000   0.00000
Generated with MDTraj, t= 99.0
 76
    1UNL     C1    1  -0.195  -0.384  -0.395
    1UNL     O1    2  -0.274  -0.316  -0.302
    1UNL     C2    3  -0.221  -0.193  -0.269
    1UNL     O2    4  -0.130  -0.145  -0.334
    1UNL     C3    5  -0.271  -0.134  -0.149
    1UNL     C4    6  -0.256   0.002  -0.135
    1UNL     O3    7  -0.295   0.071  -0.022
    1UNL     C5    8  -0.293  -0.012   0.093
    1UNL     O4    9  -0.165  -0.050   0.139
    1UNL     C6   10  -0.097   0.067   0.159
    1UNL     O5   11  -0.160   0.158   0.254
    1UNL     C7   12  -0.082   0.259   0.308
    1UNL     C8   13  -0.026   0.353   0.205
    1UNL     O6   14   0.068   0.294   0.118
    1UNL     C9   15   0.203   0.323   0.140
    1UNL     O7   16   0.235   0.394   0.230
    1UNL    C10   17   0.306   0.246   0.076
    1UNL    C11   18   0.272   0.159  -0.016
    1UNL    C12   19   0.361   0.059  -0.078
    1UNL    C13   20   0.495   0.043  -0.052
    1UNL    C14   21   0.573  -0.054  -0.126
    1UNL     O8   22   0.707  -0.077  -0.097
    1UNL    C15   23   0.793  -0.093  -0.212
    1UNL    C16   24   0.513  -0.115  -0.241
    1UNL     O9   25   0.574  -0.197  -0.334
    1UNL    C17   26   0.377  -0.093  -0.265
    1UNL    O10   27   0.321  -0.160  -0.369
    1UNL    C18   28   0.186  -0.203  -0.347
    1UNL    C19   29   0.299  -0.011  -0.184
    1UNL    C20   30   0.028   0.193   0.401
    1UNL    O11   31  -0.006   0.194   0.534
    1UNL    C21   32   0.064   0.052   0.362
    1UNL    O12   33   0.193   0.005   0.394
    1UNL    C22   34   0.052   0.023   0.208
    1UNL    O13   35   0.080  -0.109   0.166
    1UNL    C23   36  -0.396  -0.127   0.079
    1UNL    C24   37  -0.538  -0.090   0.059
    1UNL    C25   38  -0.602   0.022   0.128
    1UNL    O14   39  -0.577   0.146   0.066
    1UNL    C26   40  -0.590  -0.167  -0.033
    1UNL    C27   41  -0.493  -0.245  -0.108
    1UNL    C28   42  -0.354  -0.210  -0.052
    1UNL     H1   43  -0.235  -0.491  -0.394
    1UNL     H2   44  -0.090  -0.382  -0.365
    1UNL     H3   45  -0.205  -0.333  -0.492
    1UNL     H4   46  -0.214   0.055  -0.214
    1UNL     H5   47  -0.329   0.050   0.173
    1UNL     H6   48  -0.076   0.129   0.068
    1UNL     H7   49  -0.138   0.325   0.376
    1UNL     H8   50  -0.105   0.396   0.144
    1UNL     H9   51   0.028   0.434   0.256
    1UNL    H10   52   0.412   0.273   0.088
    1UNL    H11   53   0.169   0.150  -0.051
    1UNL    H12   54   0.545   0.074   0.044
    1UNL    H13   55   0.900  -0.105  -0.181
    1UNL    H14   56   0.778  -0.002  -0.281
    1UNL    H15   57   0.764  -0.184  -0.256
    1UNL    H16   58   0.508  -0.221  -0.401
    1UNL    H17   59   0.166  -0.258  -0.254
    1UNL    H18   60   0.113  -0.118  -0.342
    1UNL    H19   61   0.167  -0.268  -0.433
    1UNL    H20   62   0.192   0.006  -0.201
    1UNL    H21   63   0.122   0.253   0.390
    1UNL    H22   64   0.068   0.161   0.589
    1UNL    H23   65  -0.006  -0.013   0.405
    1UNL    H24   66   0.220  -0.077   0.339
    1UNL    H25   67   0.127   0.081   0.160
    1UNL    H26   68  -0.008  -0.158   0.150
    1UNL    H27   69  -0.393  -0.199   0.172
    1UNL    H28   70  -0.576   0.033   0.238
    1UNL    H29   71  -0.716   0.011   0.128
    1UNL    H30   72  -0.483   0.141   0.030
    1UNL    H31   73  -0.681  -0.140  -0.083
    1UNL    H32   74  -0.514  -0.230  -0.213
    1UNL    H33   75  -0.516  -0.350  -0.094
    1UNL    H34   76  -0.285  -0.297  -0.026
   0.00000   0.00000   0.00000   0.00000   0.00000   0.00000   0.00000   0.00000   0.00000
