[ moleculetype ]
; name        nrexcl
res           1

[ atoms ]
;    nr  type  resnr resid  atom  cgnr     charge       mass
      1 TC5       1 res   C1        1      0.000     36.000
      2 SP2       1 res   C2        2      0.000     54.000
      3 TC6       1 res   C3        3      0.000     36.000
      4 TC5       1 res   C4        4      0.000     36.000

[ bonds ]
;  ai    aj   funct      b0(nm)          k(kJ/mol/nm^2)
    1     2     1      0.28992          66220.9
    1     3     1      0.25708         279886.3
    1     4     1      0.24972          98484.3
    3     4     1      0.24209         107719.4

[ angles ]
;  ai    aj    ak  funct     th0(deg)        k(kJ/mol/rad^2)
    1     3     4     1     59.94393          4639.57
    1     4     3     1     63.01483          5065.10
    2     1     3     1     75.88076          1318.65
    2     1     4     1    132.59647          1110.85
    3     1     4     1     57.04125          5619.43

[ dihedrals ]
;  ai    aj    ak    al  funct   phi0(deg)        k(kJ/mol)   mult
    2     1     3     4     1     -0.78648       10.075      1
    2     1     3     4     1    178.41322        9.805      2
    2     1     3     4     1     -2.41584        9.366      3
    2     1     4     3     1   -179.97920       13.670      1
    2     1     4     3     1   -179.95786       13.018      2
    2     1     4     3     1   -179.93541       11.972      3
