[ moleculetype ]
; name        nrexcl
res           1

[ atoms ]
;    nr  type  resnr resid  atom  cgnr     charge       mass
      1 N4a       1 res   C1        1      0.000     72.000
      2 TC5       1 res   C2        2      0.000     36.000
      3 TN4a      1 res   C3        3      0.000     36.000
      4 SP4       1 res   C4        4      0.000     54.000
      5 TN4a      1 res   C5        5      0.000     36.000
      6 TP1       1 res   C6        6      0.000     36.000
      7 SP4       1 res   C7        7      0.000     54.000
      8 SC3       1 res   C8        8      0.000     54.000
      9 TC5       1 res   C9        9      0.000     36.000
     10 TN2a      1 res   C10      10      0.000     36.000

[ constraints ]
;  ai    aj   funct      b0(nm)
    1     2     1      0.32673
    2     3     1      0.25702
    3     8     1      0.29994
    5     7     1      0.26552
    2     8     1      0.29443
    5     6     1      0.20633
    9    10     1      0.26090
    8     9     1      0.20500

[ bonds ]
;  ai    aj   funct      b0(nm)          k(kJ/mol/nm^2)
    4     5     1      0.25399           4139.4
    3     4     1      0.29747           1676.9
    4     7     1      0.28035          13699.2

[ angles ]
;  ai    aj    ak  funct     th0(deg)        k(kJ/mol/rad^2)
    1     2     3     1    153.89591           593.60
    1     2     8     1     90.01816           910.01
    2     3     4     1    120.21409            41.72
    2     3     8     1     63.29510          2904.13
    2     8     3     1     51.22761          3398.84
    2     8     9     1    151.65229          1266.20
    3     2     8     1     65.47733          4582.01
    3     4     5     1     81.78626            39.61
    3     4     7     1    132.20827            83.33
    3     8     9     1    103.88249          1443.75
    4     3     8     1    135.30707           206.05
    4     5     6     1    160.66022            49.65
    4     5     7     1     65.54590           190.62
    4     7     5     1     55.53201           157.51
    5     4     7     1     58.91703          2981.06
    6     5     7     1    114.99536           336.21
    8     9    10     1    110.90085           432.14

[ dihedrals ]
;  ai    aj    ak    al  funct   phi0(deg)        k(kJ/mol)   mult
    1     2     3     4     1     36.53137       27.371      1
    1     2     3     8     1    168.94763       24.236      1
    1     2     8     3     1     -2.91929       14.310      1
    1     2     8     9     1     23.75128       20.902      1
    2     3     4     5     1     -3.68370       24.570      1
    2     3     4     7     1    -24.02378       18.314      1
    2     3     8     9     1     16.75916       11.399      1
    2     8     3     4     1    -70.93096       25.013      1
    2     8     9    10     1    173.06344       18.369      1
    3     2     8     9     1   -147.74072       16.344      1
    3     4     5     6     1    150.23794        8.231      1
    3     4     5     7     1      2.21356       20.756      1
    3     4     7     5     1   -176.74566       21.193      1
    3     8     9    10     1   -163.89700       12.208      1
    4     3     2     8     1     46.97783       12.984      1
    4     3     8     9     1    122.50956       25.514      1
    4     7     5     6     1    -12.61843       24.428      1
    5     4     3     8     1    -83.21135       20.985      1
    6     5     4     7     1      4.90584       18.075      1
    7     4     3     8     1    -88.90712       24.032      1
