[ moleculetype ]
; name        nrexcl
res           1

[ atoms ]
;    nr  type  resnr resid  atom  cgnr     charge       mass
      1 TC5       1 res   C1        1      0.000     36.000
      2 SN3r      1 res   C2        2      0.000     54.000
      3 SC2       1 res   C3        3      0.000     54.000
      4 TC3       1 res   C4        4      0.000     36.000
      5 SP2       1 res   C5        5      0.000     54.000
      6 TN4a      1 res   C6        6      0.000     36.000
      7 TC4       1 res   C7        7      0.000     36.000
      8 SN6       1 res   C8        8      0.000     54.000
      9 SN3r      1 res   C9        9      0.000     54.000
     10 TC5       1 res   C10      10      0.000     36.000
     11 SC2       1 res   C11      11      0.000     54.000
     12 TC3       1 res   C12      12      0.000     36.000
     13 SP2       1 res   C13      13      0.000     54.000
     14 TN6       1 res   C14      14      0.000     36.000

[ bonds ]
;  ai    aj   funct      b0(nm)          k(kJ/mol/nm^2)
    2     6     1      0.27477          22703.2
    6     7     1      0.30182          60226.4
    6    14     1      0.23306          42896.5
    7     8     1      0.33106          15292.8
    8     9     1      0.34797           1104.3
    8    14     1      0.26901          22474.8

[ angles ]
;  ai    aj    ak  funct     th0(deg)        k(kJ/mol/rad^2)
    2     6     7     1    103.49933           305.87
    2     6    14     1     95.60904           131.81
    6     7     8     1     56.40721          1721.28
    6    14     8     1     73.16085           534.48
    7     6    14     1    107.50366            42.24
    7     8     9     1     71.76329            34.19
    7     8    14     1     91.52354            73.07
    9     8    14     1    120.13523            78.12
