Generated with MDTraj, t= 0.0
 57
    1UNL     C1    1  -0.620  -0.050   0.345
    1UNL     O1    2  -0.555  -0.146   0.265
    1UNL     C2    3  -0.507  -0.092   0.142
    1UNL     C3    4  -0.391   0.006   0.163
    1UNL     C4    5  -0.299  -0.011   0.039
    1UNL     C5    6  -0.154  -0.047   0.082
    1UNL     C6    7  -0.057  -0.053  -0.037
    1UNL     C7    8  -0.058   0.079  -0.117
    1UNL     C8    9   0.042   0.074  -0.232
    1UNL     O2   10   0.172   0.045  -0.188
    1UNL     C9   11   0.224   0.152  -0.120
    1UNL     O3   12   0.165   0.257  -0.104
    1UNL    C10   13   0.358   0.135  -0.065
    1UNL    C11   14   0.425   0.020  -0.078
    1UNL    C12   15   0.556  -0.008  -0.024
    1UNL    C13   16   0.613  -0.134  -0.045
    1UNL    C14   17   0.738  -0.165   0.005
    1UNL    C15   18   0.810  -0.072   0.079
    1UNL     O4   19   0.934  -0.100   0.131
    1UNL    C16   20   0.754   0.057   0.101
    1UNL     O5   21   0.826   0.149   0.174
    1UNL    C17   22   0.629   0.086   0.049
    1UNL    C18   23  -0.201   0.111  -0.164
    1UNL    C19   24  -0.297   0.122  -0.044
    1UNL     O6   25  -0.263   0.231   0.041
    1UNL    C20   26  -0.367  -0.128  -0.039
    1UNL     O7   27  -0.425  -0.085  -0.162
    1UNL    C21   28  -0.509  -0.184  -0.213
    1UNL     O8   29  -0.463  -0.191   0.047
    1UNL     H1   30  -0.706  -0.010   0.291
    1UNL     H2   31  -0.654  -0.098   0.436
    1UNL     H3   32  -0.551   0.031   0.370
    1UNL     H4   33  -0.592  -0.042   0.093
    1UNL     H5   34  -0.425   0.110   0.172
    1UNL     H6   35  -0.338  -0.019   0.255
    1UNL     H7   36  -0.155  -0.142   0.136
    1UNL     H8   37  -0.119   0.028   0.153
    1UNL     H9   38   0.045  -0.075  -0.005
    1UNL    H10   39  -0.085  -0.135  -0.104
    1UNL    H11   40  -0.027   0.159  -0.049
    1UNL    H12   41   0.046   0.170  -0.286
    1UNL    H13   42   0.014  -0.003  -0.305
    1UNL    H14   43   0.400   0.218  -0.012
    1UNL    H15   44   0.376  -0.059  -0.132
    1UNL    H16   45   0.559  -0.207  -0.102
    1UNL    H17   46   0.780  -0.262  -0.012
    1UNL    H18   47   0.960  -0.192   0.108
    1UNL    H19   48   0.776   0.233   0.181
    1UNL    H20   49   0.587   0.183   0.067
    1UNL    H21   50  -0.202   0.204  -0.222
    1UNL    H22   51  -0.236   0.033  -0.232
    1UNL    H23   52  -0.400   0.140  -0.079
    1UNL    H24   53  -0.249   0.313  -0.012
    1UNL    H25   54  -0.293  -0.205  -0.064
    1UNL    H26   55  -0.451  -0.272  -0.238
    1UNL    H27   56  -0.584  -0.209  -0.138
    1UNL    H28   57  -0.558  -0.146  -0.303
   0.00000   0.00000   0.00000   0.00000   0.00000   0.00000   0.00000   0.00000   0.00000
Generated with MDTraj, t= 1.0
 57
    1UNL     C1    1  -0.613  -0.038   0.345
    1UNL     O1    2  -0.556  -0.140   0.265
    1UNL     C2    3  -0.512  -0.088   0.137
    1UNL     C3    4  -0.398   0.007   0.159
    1UNL     C4    5  -0.305  -0.001   0.031
    1UNL     C5    6  -0.168  -0.036   0.076
    1UNL     C6    7  -0.075  -0.051  -0.040
    1UNL     C7    8  -0.072   0.083  -0.114
    1UNL     C8    9   0.035   0.071  -0.230
    1UNL     O2   10   0.161   0.033  -0.192
    1UNL     C9   11   0.226   0.128  -0.105
    1UNL     O3   12   0.170   0.235  -0.085
    1UNL    C10   13   0.355   0.099  -0.043
    1UNL    C11   14   0.440   0.009  -0.081
    1UNL    C12   15   0.566  -0.018  -0.021
    1UNL    C13   16   0.634  -0.135  -0.053
    1UNL    C14   17   0.768  -0.154  -0.011
    1UNL    C15   18   0.834  -0.061   0.068
    1UNL     O4   19   0.961  -0.081   0.123
    1UNL    C16   20   0.760   0.061   0.096
    1UNL     O5   21   0.828   0.155   0.175
    1UNL    C17   22   0.631   0.079   0.061
    1UNL    C18   23  -0.210   0.126  -0.160
    1UNL    C19   24  -0.306   0.136  -0.045
    1UNL     O6   25  -0.297   0.245   0.040
    1UNL    C20   26  -0.372  -0.118  -0.041
    1UNL     O7   27  -0.442  -0.086  -0.162
    1UNL    C21   28  -0.500  -0.199  -0.222
    1UNL     O8   29  -0.460  -0.188   0.044
    1UNL     H1   30  -0.689   0.011   0.281
    1UNL     H2   31  -0.676  -0.089   0.423
    1UNL     H3   32  -0.539   0.011   0.413
    1UNL     H4   33  -0.607  -0.057   0.085
    1UNL     H5   34  -0.437   0.106   0.168
    1UNL     H6   35  -0.351  -0.021   0.250
    1UNL     H7   36  -0.171  -0.136   0.117
    1UNL     H8   37  -0.129   0.037   0.150
    1UNL     H9   38   0.022  -0.075   0.001
    1UNL    H10   39  -0.109  -0.143  -0.100
    1UNL    H11   40  -0.020   0.161  -0.049
    1UNL    H12   41   0.039   0.169  -0.280
    1UNL    H13   42   0.011  -0.010  -0.303
    1UNL    H14   43   0.393   0.158   0.035
    1UNL    H15   44   0.411  -0.065  -0.164
    1UNL    H16   45   0.591  -0.208  -0.120
    1UNL    H17   46   0.829  -0.244  -0.031
    1UNL    H18   47   0.954  -0.171   0.164
    1UNL    H19   48   0.839   0.128   0.268
    1UNL    H20   49   0.578   0.167   0.088
    1UNL    H21   50  -0.213   0.221  -0.219
    1UNL    H22   51  -0.244   0.056  -0.231
    1UNL    H23   52  -0.409   0.154  -0.088
    1UNL    H24   53  -0.217   0.252   0.099
    1UNL    H25   54  -0.294  -0.190  -0.063
    1UNL    H26   55  -0.442  -0.270  -0.289
    1UNL    H27   56  -0.550  -0.243  -0.134
    1UNL    H28   57  -0.564  -0.168  -0.306
   0.00000   0.00000   0.00000   0.00000   0.00000   0.00000   0.00000   0.00000   0.00000
Generated with MDTraj, t= 2.0
 57
    1UNL     C1    1  -0.636  -0.059   0.360
    1UNL     O1    2  -0.561  -0.137   0.268
    1UNL     C2    3  -0.521  -0.080   0.139
    1UNL     C3    4  -0.410   0.026   0.150
    1UNL     C4    5  -0.315  -0.002   0.033
    1UNL     C5    6  -0.176  -0.034   0.087
    1UNL     C6    7  -0.066  -0.046  -0.025
    1UNL     C7    8  -0.069   0.074  -0.114
    1UNL     C8    9   0.049   0.069  -0.218
    1UNL     O2   10   0.173   0.034  -0.167
    1UNL     C9   11   0.231   0.126  -0.084
    1UNL     O3   12   0.175   0.225  -0.042
    1UNL    C10   13   0.374   0.112  -0.054
    1UNL    C11   14   0.444   0.002  -0.085
    1UNL    C12   15   0.576  -0.027  -0.026
    1UNL    C13   16   0.647  -0.140  -0.065
    1UNL    C14   17   0.771  -0.149  -0.024
    1UNL    C15   18   0.834  -0.055   0.054
    1UNL     O4   19   0.969  -0.061   0.107
    1UNL    C16   20   0.763   0.059   0.097
    1UNL     O5   21   0.819   0.156   0.181
    1UNL    C17   22   0.632   0.071   0.057
    1UNL    C18   23  -0.207   0.095  -0.168
    1UNL    C19   24  -0.308   0.118  -0.058
    1UNL     O6   25  -0.282   0.244   0.007
    1UNL    C20   26  -0.384  -0.122  -0.042
    1UNL     O7   27  -0.436  -0.084  -0.170
    1UNL    C21   28  -0.517  -0.180  -0.229
    1UNL     O8   29  -0.478  -0.180   0.044
    1UNL     H1   30  -0.710   0.001   0.303
    1UNL     H2   31  -0.689  -0.131   0.426
    1UNL     H3   32  -0.568  -0.011   0.433
    1UNL     H4   33  -0.608  -0.023   0.095
    1UNL     H5   34  -0.427   0.129   0.158
    1UNL     H6   35  -0.350   0.005   0.232
    1UNL     H7   36  -0.178  -0.118   0.151
    1UNL     H8   37  -0.148   0.054   0.150
    1UNL     H9   38   0.031  -0.064   0.019
    1UNL    H10   39  -0.087  -0.139  -0.096
    1UNL    H11   40  -0.041   0.165  -0.045
    1UNL    H12   41   0.072   0.170  -0.258
    1UNL    H13   42   0.010   0.001  -0.297
    1UNL    H14   43   0.417   0.192   0.012
    1UNL    H15   44   0.399  -0.070  -0.137
    1UNL    H16   45   0.603  -0.210  -0.134
    1UNL    H17   46   0.829  -0.230  -0.056
    1UNL    H18   47   0.984  -0.150   0.148
    1UNL    H19   48   0.866   0.112   0.257
    1UNL    H20   49   0.566   0.157   0.089
    1UNL    H21   50  -0.200   0.188  -0.230
    1UNL    H22   51  -0.244   0.028  -0.237
    1UNL    H23   52  -0.411   0.113  -0.112
    1UNL    H24   53  -0.341   0.318  -0.022
    1UNL    H25   54  -0.316  -0.206  -0.040
    1UNL    H26   55  -0.476  -0.284  -0.233
    1UNL    H27   56  -0.601  -0.190  -0.160
    1UNL    H28   57  -0.549  -0.145  -0.326
   0.00000   0.00000   0.00000   0.00000   0.00000   0.00000   0.00000   0.00000   0.00000
Generated with MDTraj, t= 3.0
 57
    1UNL     C1    1  -0.634  -0.034   0.343
    1UNL     O1    2  -0.570  -0.130   0.259
    1UNL     C2    3  -0.528  -0.087   0.125
    1UNL     C3    4  -0.431   0.030   0.132
    1UNL     C4    5  -0.317   0.002   0.033
    1UNL     C5    6  -0.184  -0.035   0.091
    1UNL     C6    7  -0.076  -0.060  -0.016
    1UNL     C7    8  -0.063   0.063  -0.110
    1UNL     C8    9   0.049   0.045  -0.212
    1UNL     O2   10   0.177   0.016  -0.158
    1UNL     C9   11   0.217   0.120  -0.085
    1UNL     O3   12   0.154   0.221  -0.061
    1UNL    C10   13   0.353   0.115  -0.019
    1UNL    C11   14   0.439   0.016  -0.056
    1UNL    C12   15   0.576  -0.001  -0.013
    1UNL    C13   16   0.646  -0.110  -0.071
    1UNL    C14   17   0.780  -0.134  -0.046
    1UNL    C15   18   0.848  -0.049   0.045
    1UNL     O4   19   0.974  -0.075   0.084
    1UNL    C16   20   0.780   0.061   0.100
    1UNL     O5   21   0.852   0.136   0.188
    1UNL    C17   22   0.641   0.083   0.070
    1UNL    C18   23  -0.199   0.108  -0.172
    1UNL    C19   24  -0.304   0.129  -0.062
    1UNL     O6   25  -0.276   0.245   0.021
    1UNL    C20   26  -0.376  -0.128  -0.047
    1UNL     O7   27  -0.440  -0.094  -0.173
    1UNL    C21   28  -0.542  -0.180  -0.214
    1UNL     O8   29  -0.462  -0.189   0.046
    1UNL     H1   30  -0.746  -0.046   0.345
    1UNL     H2   31  -0.582  -0.061   0.439
    1UNL     H3   32  -0.624   0.068   0.304
    1UNL     H4   33  -0.623  -0.056   0.072
    1UNL     H5   34  -0.475   0.117   0.102
    1UNL     H6   35  -0.389   0.049   0.225
    1UNL     H7   36  -0.215  -0.126   0.136
    1UNL     H8   37  -0.154   0.026   0.179
    1UNL     H9   38   0.024  -0.078   0.019
    1UNL    H10   39  -0.092  -0.155  -0.083
    1UNL    H11   40  -0.044   0.151  -0.032
    1UNL    H12   41   0.046   0.144  -0.263
    1UNL    H13   42   0.029  -0.036  -0.287
    1UNL    H14   43   0.379   0.187   0.053
    1UNL    H15   44   0.404  -0.069  -0.123
    1UNL    H16   45   0.592  -0.177  -0.134
    1UNL    H17   46   0.838  -0.221  -0.088
    1UNL    H18   47   0.986  -0.172   0.071
    1UNL    H19   48   0.896   0.074   0.254
    1UNL    H20   49   0.596   0.169   0.106
    1UNL    H21   50  -0.196   0.205  -0.232
    1UNL    H22   51  -0.217   0.042  -0.251
    1UNL    H23   52  -0.404   0.144  -0.116
    1UNL    H24   53  -0.230   0.227   0.105
    1UNL    H25   54  -0.298  -0.198  -0.057
    1UNL    H26   55  -0.503  -0.286  -0.204
    1UNL    H27   56  -0.640  -0.188  -0.168
    1UNL    H28   57  -0.566  -0.140  -0.313
   0.00000   0.00000   0.00000   0.00000   0.00000   0.00000   0.00000   0.00000   0.00000
Generated with MDTraj, t= 4.0
 57
    1UNL     C1    1  -0.654  -0.031   0.331
    1UNL     O1    2  -0.582  -0.126   0.255
    1UNL     C2    3  -0.530  -0.072   0.127
    1UNL     C3    4  -0.421   0.034   0.144
    1UNL     C4    5  -0.320  -0.007   0.025
    1UNL     C5    6  -0.180  -0.058   0.090
    1UNL     C6    7  -0.072  -0.077  -0.012
    1UNL     C7    8  -0.054   0.056  -0.097
    1UNL     C8    9   0.063   0.039  -0.192
    1UNL     O2   10   0.184   0.018  -0.118
    1UNL     C9   11   0.230   0.141  -0.070
    1UNL     O3   12   0.164   0.242  -0.063
    1UNL    C10   13   0.361   0.131  -0.019
    1UNL    C11   14   0.435   0.024  -0.054
    1UNL    C12   15   0.574  -0.002  -0.016
    1UNL    C13   16   0.647  -0.105  -0.085
    1UNL    C14   17   0.783  -0.135  -0.056
    1UNL    C15   18   0.849  -0.051   0.032
    1UNL     O4   19   0.985  -0.064   0.063
    1UNL    C16   20   0.777   0.051   0.106
    1UNL     O5   21   0.850   0.136   0.194
    1UNL    C17   22   0.645   0.063   0.081
    1UNL    C18   23  -0.186   0.084  -0.167
    1UNL    C19   24  -0.298   0.116  -0.072
    1UNL     O6   25  -0.285   0.240   0.003
    1UNL    C20   26  -0.395  -0.127  -0.049
    1UNL     O7   27  -0.458  -0.085  -0.168
    1UNL    C21   28  -0.546  -0.185  -0.224
    1UNL     O8   29  -0.479  -0.181   0.052
    1UNL     H1   30  -0.704  -0.088   0.411
    1UNL     H2   31  -0.578   0.031   0.384
    1UNL     H3   32  -0.739   0.006   0.271
    1UNL     H4   33  -0.625  -0.038   0.078
    1UNL     H5   34  -0.457   0.129   0.130
    1UNL     H6   35  -0.382   0.025   0.239
    1UNL     H7   36  -0.194  -0.146   0.147
    1UNL     H8   37  -0.155   0.014   0.169
    1UNL     H9   38   0.027  -0.100   0.024
    1UNL    H10   39  -0.088  -0.160  -0.087
    1UNL    H11   40  -0.045   0.145  -0.018
    1UNL    H12   41   0.084   0.132  -0.248
    1UNL    H13   42   0.043  -0.044  -0.266
    1UNL    H14   43   0.402   0.206   0.045
    1UNL    H15   44   0.390  -0.047  -0.121
    1UNL    H16   45   0.601  -0.165  -0.166
    1UNL    H17   46   0.833  -0.213  -0.102
    1UNL    H18   47   1.025  -0.142   0.021
    1UNL    H19   48   0.931   0.083   0.212
    1UNL    H20   49   0.599   0.144   0.136
    1UNL    H21   50  -0.169   0.155  -0.252
    1UNL    H22   51  -0.208  -0.003  -0.224
    1UNL    H23   52  -0.391   0.124  -0.135
    1UNL    H24   53  -0.273   0.317  -0.055
    1UNL    H25   54  -0.324  -0.198  -0.072
    1UNL    H26   55  -0.484  -0.257  -0.281
    1UNL    H27   56  -0.616  -0.242  -0.165
    1UNL    H28   57  -0.602  -0.124  -0.294
   0.00000   0.00000   0.00000   0.00000   0.00000   0.00000   0.00000   0.00000   0.00000
Generated with MDTraj, t= 5.0
 57
    1UNL     C1    1  -0.660  -0.013   0.323
    1UNL     O1    2  -0.588  -0.118   0.255
    1UNL     C2    3  -0.544  -0.073   0.126
    1UNL     C3    4  -0.435   0.037   0.136
    1UNL     C4    5  -0.331  -0.018   0.027
    1UNL     C5    6  -0.194  -0.056   0.093
    1UNL     C6    7  -0.071  -0.070   0.001
    1UNL     C7    8  -0.061   0.062  -0.093
    1UNL     C8    9   0.058   0.057  -0.197
    1UNL     O2   10   0.180   0.027  -0.134
    1UNL     C9   11   0.235   0.137  -0.070
    1UNL     O3   12   0.169   0.237  -0.054
    1UNL    C10   13   0.370   0.122  -0.027
    1UNL    C11   14   0.441   0.008  -0.045
    1UNL    C12   15   0.592  -0.002  -0.019
    1UNL    C13   16   0.662  -0.102  -0.084
    1UNL    C14   17   0.798  -0.124  -0.060
    1UNL    C15   18   0.868  -0.047   0.029
    1UNL     O4   19   0.999  -0.059   0.053
    1UNL    C16   20   0.789   0.048   0.106
    1UNL     O5   21   0.853   0.125   0.209
    1UNL    C17   22   0.658   0.074   0.082
    1UNL    C18   23  -0.200   0.079  -0.164
    1UNL    C19   24  -0.309   0.110  -0.063
    1UNL     O6   25  -0.284   0.227   0.018
    1UNL    C20   26  -0.398  -0.134  -0.041
    1UNL     O7   27  -0.447  -0.099  -0.178
    1UNL    C21   28  -0.554  -0.185  -0.232
    1UNL     O8   29  -0.505  -0.186   0.051
    1UNL     H1   30  -0.603  -0.007   0.416
    1UNL     H2   31  -0.669   0.081   0.268
    1UNL     H3   32  -0.764  -0.045   0.327
    1UNL     H4   33  -0.628  -0.026   0.072
    1UNL     H5   34  -0.465   0.134   0.113
    1UNL     H6   35  -0.388   0.040   0.227
    1UNL     H7   36  -0.199  -0.141   0.157
    1UNL     H8   37  -0.169   0.031   0.151
    1UNL     H9   38   0.025  -0.090   0.048
    1UNL    H10   39  -0.078  -0.153  -0.069
    1UNL    H11   40  -0.030   0.157  -0.028
    1UNL    H12   41   0.065   0.149  -0.257
    1UNL    H13   42   0.041  -0.033  -0.265
    1UNL    H14   43   0.427   0.214   0.004
    1UNL    H15   44   0.393  -0.070  -0.095
    1UNL    H16   45   0.614  -0.156  -0.159
    1UNL    H17   46   0.834  -0.208  -0.124
    1UNL    H18   47   1.041  -0.128  -0.002
    1UNL    H19   48   0.947   0.100   0.196
    1UNL    H20   49   0.594   0.150   0.126
    1UNL    H21   50  -0.191   0.146  -0.249
    1UNL    H22   51  -0.223  -0.015  -0.214
    1UNL    H23   52  -0.399   0.137  -0.116
    1UNL    H24   53  -0.195   0.267   0.010
    1UNL    H25   54  -0.342  -0.216  -0.062
    1UNL    H26   55  -0.540  -0.226  -0.336
    1UNL    H27   56  -0.584  -0.254  -0.155
    1UNL    H28   57  -0.644  -0.129  -0.255
   0.00000   0.00000   0.00000   0.00000   0.00000   0.00000   0.00000   0.00000   0.00000
Generated with MDTraj, t= 6.0
 57
    1UNL     C1    1  -0.663  -0.004   0.312
    1UNL     O1    2  -0.619  -0.117   0.232
    1UNL     C2    3  -0.541  -0.072   0.121
    1UNL     C3    4  -0.430   0.023   0.153
    1UNL     C4    5  -0.325  -0.002   0.041
    1UNL     C5    6  -0.187  -0.045   0.101
    1UNL     C6    7  -0.085  -0.077  -0.018
    1UNL     C7    8  -0.056   0.053  -0.101
    1UNL     C8    9   0.062   0.042  -0.198
    1UNL     O2   10   0.180   0.004  -0.136
    1UNL     C9   11   0.232   0.105  -0.063
    1UNL     O3   12   0.173   0.211  -0.056
    1UNL    C10   13   0.368   0.095  -0.001
    1UNL    C11   14   0.453   0.012  -0.060
    1UNL    C12   15   0.590  -0.000  -0.030
    1UNL    C13   16   0.670  -0.094  -0.101
    1UNL    C14   17   0.800  -0.115  -0.066
    1UNL    C15   18   0.863  -0.042   0.038
    1UNL     O4   19   0.997  -0.056   0.063
    1UNL    C16   20   0.784   0.055   0.105
    1UNL     O5   21   0.850   0.131   0.206
    1UNL    C17   22   0.655   0.075   0.067
    1UNL    C18   23  -0.187   0.116  -0.158
    1UNL    C19   24  -0.311   0.123  -0.054
    1UNL     O6   25  -0.319   0.242   0.020
    1UNL    C20   26  -0.391  -0.129  -0.038
    1UNL     O7   27  -0.448  -0.097  -0.164
    1UNL    C21   28  -0.532  -0.187  -0.218
    1UNL     O8   29  -0.488  -0.181   0.047
    1UNL     H1   30  -0.569   0.036   0.355
    1UNL     H2   31  -0.735   0.054   0.256
    1UNL     H3   32  -0.730  -0.050   0.380
    1UNL     H4   33  -0.614  -0.030   0.053
    1UNL     H5   34  -0.458   0.124   0.137
    1UNL     H6   35  -0.398   0.003   0.251
    1UNL     H7   36  -0.186  -0.130   0.166
    1UNL     H8   37  -0.136   0.033   0.147
    1UNL     H9   38   0.007  -0.118   0.022
    1UNL    H10   39  -0.116  -0.154  -0.084
    1UNL    H11   40  -0.010   0.121  -0.016
    1UNL    H12   41   0.070   0.133  -0.254
    1UNL    H13   42   0.035  -0.049  -0.260
    1UNL    H14   43   0.403   0.166   0.063
    1UNL    H15   44   0.427  -0.057  -0.149
    1UNL    H16   45   0.627  -0.155  -0.184
    1UNL    H17   46   0.865  -0.183  -0.110
    1UNL    H18   47   1.035  -0.130   0.007
    1UNL    H19   48   0.927   0.171   0.161
    1UNL    H20   49   0.612   0.157   0.119
    1UNL    H21   50  -0.172   0.209  -0.204
    1UNL    H22   51  -0.209   0.046  -0.242
    1UNL    H23   52  -0.399   0.116  -0.114
    1UNL    H24   53  -0.233   0.257   0.066
    1UNL    H25   54  -0.327  -0.203  -0.064
    1UNL    H26   55  -0.531  -0.177  -0.330
    1UNL    H27   56  -0.534  -0.284  -0.167
    1UNL    H28   57  -0.633  -0.145  -0.205
   0.00000   0.00000   0.00000   0.00000   0.00000   0.00000   0.00000   0.00000   0.00000
Generated with MDTraj, t= 7.0
 57
    1UNL     C1    1  -0.695  -0.007   0.300
    1UNL     O1    2  -0.603  -0.103   0.251
    1UNL     C2    3  -0.548  -0.058   0.125
    1UNL     C3    4  -0.423   0.025   0.154
    1UNL     C4    5  -0.321  -0.010   0.045
    1UNL     C5    6  -0.189  -0.047   0.108
    1UNL     C6    7  -0.064  -0.058   0.005
    1UNL     C7    8  -0.061   0.059  -0.095
    1UNL     C8    9   0.048   0.049  -0.197
    1UNL     O2   10   0.175   0.009  -0.148
    1UNL     C9   11   0.226   0.103  -0.059
    1UNL     O3   12   0.165   0.200  -0.011
    1UNL    C10   13   0.376   0.095  -0.027
    1UNL    C11   14   0.453  -0.005  -0.079
    1UNL    C12   15   0.596  -0.009  -0.045
    1UNL    C13   16   0.677  -0.101  -0.111
    1UNL    C14   17   0.804  -0.119  -0.067
    1UNL    C15   18   0.862  -0.041   0.037
    1UNL     O4   19   0.988  -0.034   0.082
    1UNL    C16   20   0.778   0.054   0.098
    1UNL     O5   21   0.830   0.134   0.194
    1UNL    C17   22   0.644   0.066   0.059
    1UNL    C18   23  -0.203   0.085  -0.159
    1UNL    C19   24  -0.310   0.118  -0.049
    1UNL     O6   25  -0.277   0.234   0.026
    1UNL    C20   26  -0.390  -0.135  -0.034
    1UNL     O7   27  -0.421  -0.101  -0.175
    1UNL    C21   28  -0.513  -0.177  -0.239
    1UNL     O8   29  -0.511  -0.172   0.033
    1UNL     H1   30  -0.643   0.090   0.298
    1UNL     H2   31  -0.781  -0.013   0.237
    1UNL     H3   32  -0.711  -0.047   0.398
    1UNL     H4   33  -0.619  -0.003   0.068
    1UNL     H5   34  -0.449   0.129   0.155
    1UNL     H6   35  -0.375   0.003   0.249
    1UNL     H7   36  -0.196  -0.138   0.164
    1UNL     H8   37  -0.156   0.028   0.172
    1UNL     H9   38   0.031  -0.069   0.058
    1UNL    H10   39  -0.075  -0.148  -0.043
    1UNL    H11   40  -0.038   0.145  -0.019
    1UNL    H12   41   0.062   0.149  -0.228
    1UNL    H13   42   0.004  -0.012  -0.281
    1UNL    H14   43   0.420   0.179   0.027
    1UNL    H15   44   0.419  -0.083  -0.134
    1UNL    H16   45   0.623  -0.158  -0.181
    1UNL    H17   46   0.871  -0.199  -0.100
    1UNL    H18   47   1.040  -0.104   0.033
    1UNL    H19   48   0.909   0.184   0.160
    1UNL    H20   49   0.578   0.137   0.108
    1UNL    H21   50  -0.186   0.160  -0.226
    1UNL    H22   51  -0.235  -0.004  -0.221
    1UNL    H23   52  -0.405   0.126  -0.093
    1UNL    H24   53  -0.197   0.219   0.082
    1UNL    H25   54  -0.322  -0.207  -0.044
    1UNL    H26   55  -0.597  -0.116  -0.282
    1UNL    H27   56  -0.466  -0.249  -0.306
    1UNL    H28   57  -0.565  -0.239  -0.165
   0.00000   0.00000   0.00000   0.00000   0.00000   0.00000   0.00000   0.00000   0.00000
Generated with MDTraj, t= 8.0
 57
    1UNL     C1    1  -0.715  -0.009   0.285
    1UNL     O1    2  -0.617  -0.105   0.240
    1UNL     C2    3  -0.545  -0.058   0.127
    1UNL     C3    4  -0.418   0.022   0.167
    1UNL     C4    5  -0.312  -0.004   0.042
    1UNL     C5    6  -0.176  -0.050   0.099
    1UNL     C6    7  -0.086  -0.080  -0.023
    1UNL     C7    8  -0.057   0.045  -0.100
    1UNL     C8    9   0.049   0.035  -0.205
    1UNL     O2   10   0.185   0.010  -0.165
    1UNL     C9   11   0.223   0.099  -0.068
    1UNL     O3   12   0.154   0.186  -0.022
    1UNL    C10   13   0.355   0.094  -0.019
    1UNL    C11   14   0.447   0.006  -0.060
    1UNL    C12   15   0.591  -0.004  -0.037
    1UNL    C13   16   0.670  -0.097  -0.103
    1UNL    C14   17   0.798  -0.121  -0.062
    1UNL    C15   18   0.851  -0.037   0.033
    1UNL     O4   19   0.992  -0.032   0.067
    1UNL    C16   20   0.777   0.059   0.098
    1UNL     O5   21   0.836   0.129   0.198
    1UNL    C17   22   0.647   0.078   0.060
    1UNL    C18   23  -0.193   0.104  -0.146
    1UNL    C19   24  -0.296   0.128  -0.034
    1UNL     O6   25  -0.278   0.250   0.033
    1UNL    C20   26  -0.386  -0.124  -0.033
    1UNL     O7   27  -0.410  -0.094  -0.167
    1UNL    C21   28  -0.494  -0.190  -0.215
    1UNL     O8   29  -0.503  -0.166   0.043
    1UNL     H1   30  -0.664   0.084   0.309
    1UNL     H2   31  -0.773   0.015   0.193
    1UNL     H3   32  -0.756  -0.065   0.369
    1UNL     H4   33  -0.600   0.012   0.067
    1UNL     H5   34  -0.432   0.130   0.188
    1UNL     H6   35  -0.386  -0.018   0.266
    1UNL     H7   36  -0.183  -0.149   0.144
    1UNL     H8   37  -0.132   0.024   0.156
    1UNL     H9   38   0.001  -0.136   0.007
    1UNL    H10   39  -0.135  -0.145  -0.088
    1UNL    H11   40  -0.031   0.117  -0.016
    1UNL    H12   41   0.046   0.122  -0.263
    1UNL    H13   42   0.028  -0.051  -0.273
    1UNL    H14   43   0.390   0.165   0.058
    1UNL    H15   44   0.408  -0.069  -0.133
    1UNL    H16   45   0.628  -0.173  -0.170
    1UNL    H17   46   0.850  -0.209  -0.101
    1UNL    H18   47   1.030  -0.115   0.029
    1UNL    H19   48   0.932   0.131   0.171
    1UNL    H20   49   0.581   0.143   0.115
    1UNL    H21   50  -0.175   0.193  -0.195
    1UNL    H22   51  -0.224   0.030  -0.225
    1UNL    H23   52  -0.391   0.146  -0.080
    1UNL    H24   53  -0.185   0.253   0.068
    1UNL    H25   54  -0.323  -0.204  -0.032
    1UNL    H26   55  -0.600  -0.185  -0.179
    1UNL    H27   56  -0.496  -0.196  -0.323
    1UNL    H28   57  -0.467  -0.287  -0.171
   0.00000   0.00000   0.00000   0.00000   0.00000   0.00000   0.00000   0.00000   0.00000
Generated with MDTraj, t= 9.0
 57
    1UNL     C1    1  -0.702   0.030   0.282
    1UNL     O1    2  -0.621  -0.088   0.243
    1UNL     C2    3  -0.546  -0.066   0.126
    1UNL     C3    4  -0.412   0.002   0.164
    1UNL     C4    5  -0.309  -0.023   0.050
    1UNL     C5    6  -0.175  -0.064   0.099
    1UNL     C6    7  -0.071  -0.065  -0.012
    1UNL     C7    8  -0.059   0.063  -0.095
    1UNL     C8    9   0.054   0.048  -0.198
    1UNL     O2   10   0.182   0.008  -0.144
    1UNL     C9   11   0.227   0.117  -0.069
    1UNL     O3   12   0.166   0.220  -0.056
    1UNL    C10   13   0.351   0.093  -0.007
    1UNL    C11   14   0.440   0.002  -0.051
    1UNL    C12   15   0.583  -0.004  -0.028
    1UNL    C13   16   0.655  -0.090  -0.108
    1UNL    C14   17   0.792  -0.116  -0.065
    1UNL    C15   18   0.854  -0.046   0.035
    1UNL     O4   19   0.991  -0.047   0.055
    1UNL    C16   20   0.778   0.057   0.101
    1UNL     O5   21   0.840   0.145   0.188
    1UNL    C17   22   0.644   0.067   0.072
    1UNL    C18   23  -0.202   0.086  -0.156
    1UNL    C19   24  -0.303   0.103  -0.039
    1UNL     O6   25  -0.271   0.219   0.043
    1UNL    C20   26  -0.388  -0.130  -0.029
    1UNL     O7   27  -0.417  -0.091  -0.160
    1UNL    C21   28  -0.489  -0.187  -0.244
    1UNL     O8   29  -0.503  -0.178   0.042
    1UNL     H1   30  -0.645   0.121   0.274
    1UNL     H2   31  -0.771   0.035   0.191
    1UNL     H3   32  -0.744   0.008   0.382
    1UNL     H4   33  -0.610  -0.004   0.063
    1UNL     H5   34  -0.432   0.109   0.196
    1UNL     H6   35  -0.389  -0.054   0.259
    1UNL     H7   36  -0.179  -0.166   0.135
    1UNL     H8   37  -0.139   0.005   0.169
    1UNL     H9   38   0.027  -0.093   0.020
    1UNL    H10   39  -0.096  -0.147  -0.075
    1UNL    H11   40  -0.041   0.155  -0.034
    1UNL    H12   41   0.065   0.139  -0.249
    1UNL    H13   42   0.018  -0.032  -0.268
    1UNL    H14   43   0.385   0.157   0.066
    1UNL    H15   44   0.398  -0.058  -0.134
    1UNL    H16   45   0.609  -0.149  -0.185
    1UNL    H17   46   0.846  -0.192  -0.111
    1UNL    H18   47   1.015  -0.141   0.044
    1UNL    H19   48   0.920   0.109   0.230
    1UNL    H20   49   0.580   0.126   0.132
    1UNL    H21   50  -0.193   0.175  -0.216
    1UNL    H22   51  -0.236   0.005  -0.223
    1UNL    H23   52  -0.402   0.123  -0.084
    1UNL    H24   53  -0.183   0.211   0.086
    1UNL    H25   54  -0.322  -0.210  -0.042
    1UNL    H26   55  -0.527  -0.275  -0.188
    1UNL    H27   56  -0.579  -0.143  -0.285
    1UNL    H28   57  -0.431  -0.247  -0.315
   0.00000   0.00000   0.00000   0.00000   0.00000   0.00000   0.00000   0.00000   0.00000
Generated with MDTraj, t= 10.0
 57
    1UNL     C1    1  -0.680   0.022   0.298
    1UNL     O1    2  -0.633  -0.091   0.223
    1UNL     C2    3  -0.544  -0.063   0.118
    1UNL     C3    4  -0.412   0.010   0.154
    1UNL     C4    5  -0.315  -0.019   0.046
    1UNL     C5    6  -0.187  -0.075   0.104
    1UNL     C6    7  -0.074  -0.089  -0.014
    1UNL     C7    8  -0.054   0.046  -0.083
    1UNL     C8    9   0.052   0.047  -0.193
    1UNL     O2   10   0.190   0.026  -0.142
    1UNL     C9   11   0.232   0.141  -0.079
    1UNL     O3   12   0.160   0.235  -0.048
    1UNL    C10   13   0.378   0.137  -0.045
    1UNL    C11   14   0.442   0.017  -0.058
    1UNL    C12   15   0.582  -0.005  -0.025
    1UNL    C13   16   0.659  -0.107  -0.093
    1UNL    C14   17   0.784  -0.136  -0.050
    1UNL    C15   18   0.851  -0.045   0.033
    1UNL     O4   19   0.992  -0.045   0.041
    1UNL    C16   20   0.775   0.052   0.101
    1UNL     O5   21   0.836   0.132   0.198
    1UNL    C17   22   0.638   0.067   0.077
    1UNL    C18   23  -0.185   0.100  -0.140
    1UNL    C19   24  -0.301   0.105  -0.038
    1UNL     O6   25  -0.288   0.219   0.045
    1UNL    C20   26  -0.389  -0.132  -0.035
    1UNL     O7   27  -0.408  -0.110  -0.168
    1UNL    C21   28  -0.505  -0.201  -0.216
    1UNL     O8   29  -0.510  -0.175   0.031
    1UNL     H1   30  -0.594   0.073   0.338
    1UNL     H2   31  -0.744   0.079   0.221
    1UNL     H3   32  -0.735  -0.021   0.385
    1UNL     H4   33  -0.607   0.007   0.058
    1UNL     H5   34  -0.433   0.123   0.169
    1UNL     H6   35  -0.384  -0.029   0.258
    1UNL     H7   36  -0.207  -0.170   0.148
    1UNL     H8   37  -0.151  -0.006   0.176
    1UNL     H9   38   0.016  -0.118   0.030
    1UNL    H10   39  -0.081  -0.168  -0.087
    1UNL    H11   40  -0.017   0.122  -0.012
    1UNL    H12   41   0.046   0.143  -0.235
    1UNL    H13   42   0.017  -0.029  -0.270
    1UNL    H14   43   0.425   0.238  -0.031
    1UNL    H15   44   0.391  -0.064  -0.098
    1UNL    H16   45   0.620  -0.165  -0.175
    1UNL    H17   46   0.844  -0.222  -0.096
    1UNL    H18   47   1.034  -0.122  -0.002
    1UNL    H19   48   0.930   0.098   0.198
    1UNL    H20   49   0.581   0.134   0.143
    1UNL    H21   50  -0.181   0.204  -0.187
    1UNL    H22   51  -0.214   0.031  -0.215
    1UNL    H23   52  -0.393   0.123  -0.104
    1UNL    H24   53  -0.194   0.247   0.043
    1UNL    H25   54  -0.329  -0.224  -0.031
    1UNL    H26   55  -0.594  -0.193  -0.154
    1UNL    H27   56  -0.545  -0.165  -0.309
    1UNL    H28   57  -0.477  -0.307  -0.216
   0.00000   0.00000   0.00000   0.00000   0.00000   0.00000   0.00000   0.00000   0.00000
Generated with MDTraj, t= 11.0
 57
    1UNL     C1    1  -0.667   0.005   0.318
    1UNL     O1    2  -0.630  -0.104   0.233
    1UNL     C2    3  -0.552  -0.062   0.122
    1UNL     C3    4  -0.415   0.005   0.164
    1UNL     C4    5  -0.318  -0.018   0.043
    1UNL     C5    6  -0.179  -0.063   0.103
    1UNL     C6    7  -0.069  -0.073  -0.007
    1UNL     C7    8  -0.062   0.052  -0.096
    1UNL     C8    9   0.044   0.054  -0.205
    1UNL     O2   10   0.168   0.022  -0.142
    1UNL     C9   11   0.218   0.125  -0.078
    1UNL     O3   12   0.166   0.237  -0.078
    1UNL    C10   13   0.353   0.109  -0.007
    1UNL    C11   14   0.440   0.016  -0.048
    1UNL    C12   15   0.586   0.010  -0.032
    1UNL    C13   16   0.655  -0.100  -0.092
    1UNL    C14   17   0.784  -0.126  -0.064
    1UNL    C15   18   0.861  -0.052   0.035
    1UNL     O4   19   0.984  -0.073   0.080
    1UNL    C16   20   0.792   0.057   0.095
    1UNL     O5   21   0.858   0.134   0.195
    1UNL    C17   22   0.658   0.085   0.062
    1UNL    C18   23  -0.201   0.091  -0.156
    1UNL    C19   24  -0.310   0.105  -0.047
    1UNL     O6   25  -0.293   0.217   0.039
    1UNL    C20   26  -0.385  -0.134  -0.031
    1UNL     O7   27  -0.391  -0.112  -0.173
    1UNL    C21   28  -0.496  -0.177  -0.227
    1UNL     O8   29  -0.514  -0.166   0.032
    1UNL     H1   30  -0.594  -0.008   0.398
    1UNL     H2   31  -0.673   0.095   0.246
    1UNL     H3   32  -0.764  -0.016   0.371
    1UNL     H4   33  -0.608   0.016   0.060
    1UNL     H5   34  -0.424   0.120   0.180
    1UNL     H6   35  -0.372  -0.040   0.261
    1UNL     H7   36  -0.197  -0.155   0.145
    1UNL     H8   37  -0.154   0.005   0.184
    1UNL     H9   38   0.029  -0.089   0.023
    1UNL    H10   39  -0.077  -0.164  -0.067
    1UNL    H11   40  -0.031   0.136  -0.029
    1UNL    H12   41   0.049   0.149  -0.254
    1UNL    H13   42   0.025  -0.031  -0.280
    1UNL    H14   43   0.379   0.204   0.033
    1UNL    H15   44   0.401  -0.064  -0.121
    1UNL    H16   45   0.600  -0.162  -0.162
    1UNL    H17   46   0.834  -0.197  -0.119
    1UNL    H18   47   1.028  -0.150   0.038
    1UNL    H19   48   0.952   0.145   0.172
    1UNL    H20   49   0.609   0.169   0.108
    1UNL    H21   50  -0.188   0.194  -0.208
    1UNL    H22   51  -0.237   0.020  -0.224
    1UNL    H23   52  -0.414   0.114  -0.098
    1UNL    H24   53  -0.198   0.231   0.048
    1UNL    H25   54  -0.331  -0.230  -0.009
    1UNL    H26   55  -0.545  -0.109  -0.297
    1UNL    H27   56  -0.469  -0.265  -0.284
    1UNL    H28   57  -0.561  -0.214  -0.146
   0.00000   0.00000   0.00000   0.00000   0.00000   0.00000   0.00000   0.00000   0.00000
Generated with MDTraj, t= 12.0
 57
    1UNL     C1    1  -0.656  -0.004   0.328
    1UNL     O1    2  -0.624  -0.112   0.240
    1UNL     C2    3  -0.549  -0.064   0.124
    1UNL     C3    4  -0.417   0.007   0.161
    1UNL     C4    5  -0.314  -0.018   0.042
    1UNL     C5    6  -0.172  -0.058   0.097
    1UNL     C6    7  -0.069  -0.069  -0.005
    1UNL     C7    8  -0.055   0.058  -0.091
    1UNL     C8    9   0.051   0.046  -0.203
    1UNL     O2   10   0.177   0.022  -0.148
    1UNL     C9   11   0.230   0.132  -0.078
    1UNL     O3   12   0.158   0.222  -0.037
    1UNL    C10   13   0.371   0.124  -0.043
    1UNL    C11   14   0.441   0.026  -0.085
    1UNL    C12   15   0.576  -0.005  -0.040
    1UNL    C13   16   0.654  -0.113  -0.085
    1UNL    C14   17   0.785  -0.143  -0.042
    1UNL    C15   18   0.847  -0.057   0.048
    1UNL     O4   19   0.979  -0.059   0.088
    1UNL    C16   20   0.765   0.054   0.094
    1UNL     O5   21   0.833   0.139   0.178
    1UNL    C17   22   0.643   0.081   0.051
    1UNL    C18   23  -0.193   0.106  -0.151
    1UNL    C19   24  -0.306   0.116  -0.048
    1UNL     O6   25  -0.301   0.230   0.042
    1UNL    C20   26  -0.381  -0.133  -0.038
    1UNL     O7   27  -0.401  -0.100  -0.179
    1UNL    C21   28  -0.485  -0.194  -0.226
    1UNL     O8   29  -0.504  -0.166   0.029
    1UNL     H1   30  -0.564   0.038   0.364
    1UNL     H2   31  -0.731   0.060   0.274
    1UNL     H3   32  -0.696  -0.050   0.422
    1UNL     H4   33  -0.616  -0.006   0.050
    1UNL     H5   34  -0.444   0.118   0.184
    1UNL     H6   35  -0.371  -0.049   0.253
    1UNL     H7   36  -0.182  -0.146   0.147
    1UNL     H8   37  -0.145   0.017   0.171
    1UNL     H9   38   0.016  -0.118   0.025
    1UNL    H10   39  -0.105  -0.138  -0.082
    1UNL    H11   40  -0.018   0.135  -0.020
    1UNL    H12   41   0.070   0.131  -0.268
    1UNL    H13   42   0.031  -0.051  -0.263
    1UNL    H14   43   0.413   0.197   0.022
    1UNL    H15   44   0.395  -0.045  -0.143
    1UNL    H16   45   0.612  -0.170  -0.166
    1UNL    H17   46   0.857  -0.215  -0.093
    1UNL    H18   47   1.026  -0.142   0.062
    1UNL    H19   48   0.924   0.103   0.190
    1UNL    H20   49   0.600   0.172   0.078
    1UNL    H21   50  -0.184   0.219  -0.178
    1UNL    H22   51  -0.222   0.042  -0.230
    1UNL    H23   52  -0.408   0.133  -0.098
    1UNL    H24   53  -0.212   0.244   0.077
    1UNL    H25   54  -0.310  -0.223  -0.032
    1UNL    H26   55  -0.442  -0.255  -0.308
    1UNL    H27   56  -0.538  -0.245  -0.145
    1UNL    H28   57  -0.575  -0.135  -0.259
   0.00000   0.00000   0.00000   0.00000   0.00000   0.00000   0.00000   0.00000   0.00000
Generated with MDTraj, t= 13.0
 57
    1UNL     C1    1  -0.679  -0.015   0.319
    1UNL     O1    2  -0.603  -0.118   0.260
    1UNL     C2    3  -0.533  -0.083   0.133
    1UNL     C3    4  -0.417   0.009   0.167
    1UNL     C4    5  -0.319  -0.010   0.046
    1UNL     C5    6  -0.171  -0.056   0.090
    1UNL     C6    7  -0.072  -0.060  -0.029
    1UNL     C7    8  -0.061   0.072  -0.101
    1UNL     C8    9   0.046   0.067  -0.214
    1UNL     O2   10   0.171   0.030  -0.165
    1UNL     C9   11   0.226   0.127  -0.079
    1UNL     O3   12   0.160   0.222  -0.041
    1UNL    C10   13   0.365   0.107  -0.043
    1UNL    C11   14   0.441   0.006  -0.085
    1UNL    C12   15   0.581  -0.011  -0.042
    1UNL    C13   16   0.652  -0.118  -0.080
    1UNL    C14   17   0.782  -0.139  -0.039
    1UNL    C15   18   0.841  -0.049   0.047
    1UNL     O4   19   0.966  -0.072   0.105
    1UNL    C16   20   0.773   0.064   0.091
    1UNL     O5   21   0.840   0.151   0.176
    1UNL    C17   22   0.640   0.076   0.057
    1UNL    C18   23  -0.201   0.108  -0.153
    1UNL    C19   24  -0.305   0.127  -0.041
    1UNL     O6   25  -0.270   0.237   0.044
    1UNL    C20   26  -0.379  -0.130  -0.043
    1UNL     O7   27  -0.420  -0.086  -0.174
    1UNL    C21   28  -0.480  -0.204  -0.225
    1UNL     O8   29  -0.491  -0.178   0.037
    1UNL     H1   30  -0.613   0.065   0.339
    1UNL     H2   31  -0.760   0.015   0.251
    1UNL     H3   32  -0.717  -0.068   0.407
    1UNL     H4   33  -0.607  -0.031   0.062
    1UNL     H5   34  -0.440   0.123   0.172
    1UNL     H6   35  -0.380  -0.032   0.268
    1UNL     H7   36  -0.167  -0.149   0.136
    1UNL     H8   37  -0.140   0.015   0.166
    1UNL     H9   38   0.023  -0.088   0.001
    1UNL    H10   39  -0.097  -0.143  -0.095
    1UNL    H11   40  -0.023   0.146  -0.028
    1UNL    H12   41   0.060   0.167  -0.255
    1UNL    H13   42   0.032  -0.013  -0.299
    1UNL    H14   43   0.408   0.168   0.038
    1UNL    H15   44   0.388  -0.069  -0.150
    1UNL    H16   45   0.605  -0.186  -0.151
    1UNL    H17   46   0.817  -0.233  -0.069
    1UNL    H18   47   0.996  -0.158   0.065
    1UNL    H19   48   0.904   0.101   0.231
    1UNL    H20   49   0.576   0.158   0.104
    1UNL    H21   50  -0.201   0.199  -0.222
    1UNL    H22   51  -0.243   0.020  -0.199
    1UNL    H23   52  -0.405   0.150  -0.083
    1UNL    H24   53  -0.180   0.230   0.081
    1UNL    H25   54  -0.293  -0.211  -0.055
    1UNL    H26   55  -0.463  -0.289  -0.157
    1UNL    H27   56  -0.583  -0.172  -0.246
    1UNL    H28   57  -0.440  -0.229  -0.326
   0.00000   0.00000   0.00000   0.00000   0.00000   0.00000   0.00000   0.00000   0.00000
Generated with MDTraj, t= 14.0
 57
    1UNL     C1    1  -0.677  -0.031   0.307
    1UNL     O1    2  -0.583  -0.128   0.263
    1UNL     C2    3  -0.519  -0.094   0.131
    1UNL     C3    4  -0.404   0.004   0.167
    1UNL     C4    5  -0.307  -0.011   0.051
    1UNL     C5    6  -0.162  -0.046   0.094
    1UNL     C6    7  -0.057  -0.062  -0.031
    1UNL     C7    8  -0.061   0.074  -0.106
    1UNL     C8    9   0.042   0.071  -0.220
    1UNL     O2   10   0.169   0.030  -0.178
    1UNL     C9   11   0.222   0.127  -0.096
    1UNL     O3   12   0.163   0.226  -0.062
    1UNL    C10   13   0.354   0.107  -0.035
    1UNL    C11   14   0.438   0.005  -0.077
    1UNL    C12   15   0.572  -0.010  -0.025
    1UNL    C13   16   0.637  -0.127  -0.062
    1UNL    C14   17   0.768  -0.145  -0.024
    1UNL    C15   18   0.832  -0.049   0.047
    1UNL     O4   19   0.958  -0.082   0.090
    1UNL    C16   20   0.776   0.069   0.100
    1UNL     O5   21   0.843   0.151   0.186
    1UNL    C17   22   0.640   0.082   0.053
    1UNL    C18   23  -0.202   0.111  -0.162
    1UNL    C19   24  -0.304   0.121  -0.042
    1UNL     O6   25  -0.293   0.247   0.038
    1UNL    C20   26  -0.369  -0.125  -0.034
    1UNL     O7   27  -0.412  -0.079  -0.167
    1UNL    C21   28  -0.506  -0.179  -0.216
    1UNL     O8   29  -0.476  -0.187   0.042
    1UNL     H1   30  -0.625   0.061   0.314
    1UNL     H2   31  -0.754  -0.008   0.231
    1UNL     H3   32  -0.722  -0.082   0.391
    1UNL     H4   33  -0.592  -0.033   0.072
    1UNL     H5   34  -0.435   0.116   0.182
    1UNL     H6   35  -0.352  -0.027   0.264
    1UNL     H7   36  -0.170  -0.136   0.155
    1UNL     H8   37  -0.126   0.033   0.156
    1UNL     H9   38   0.038  -0.086   0.007
    1UNL    H10   39  -0.076  -0.144  -0.099
    1UNL    H11   40  -0.024   0.147  -0.032
    1UNL    H12   41   0.063   0.164  -0.271
    1UNL    H13   42   0.007  -0.011  -0.296
    1UNL    H14   43   0.362   0.145   0.063
    1UNL    H15   44   0.401  -0.063  -0.149
    1UNL    H16   45   0.587  -0.203  -0.118
    1UNL    H17   46   0.828  -0.236  -0.042
    1UNL    H18   47   0.991  -0.164   0.045
    1UNL    H19   48   0.940   0.132   0.186
    1UNL    H20   49   0.597   0.167   0.090
    1UNL    H21   50  -0.211   0.201  -0.230
    1UNL    H22   51  -0.238   0.023  -0.219
    1UNL    H23   52  -0.398   0.139  -0.094
    1UNL    H24   53  -0.202   0.255   0.074
    1UNL    H25   54  -0.285  -0.209  -0.052
    1UNL    H26   55  -0.601  -0.159  -0.168
    1UNL    H27   56  -0.504  -0.170  -0.324
    1UNL    H28   57  -0.472  -0.280  -0.188
   0.00000   0.00000   0.00000   0.00000   0.00000   0.00000   0.00000   0.00000   0.00000
Generated with MDTraj, t= 15.0
 57
    1UNL     C1    1  -0.653  -0.044   0.323
    1UNL     O1    2  -0.576  -0.140   0.253
    1UNL     C2    3  -0.523  -0.089   0.127
    1UNL     C3    4  -0.409   0.009   0.154
    1UNL     C4    5  -0.308  -0.013   0.037
    1UNL     C5    6  -0.160  -0.037   0.092
    1UNL     C6    7  -0.053  -0.056  -0.019
    1UNL     C7    8  -0.056   0.075  -0.109
    1UNL     C8    9   0.056   0.072  -0.217
    1UNL     O2   10   0.184   0.043  -0.162
    1UNL     C9   11   0.227   0.148  -0.096
    1UNL     O3   12   0.175   0.254  -0.068
    1UNL    C10   13   0.366   0.129  -0.057
    1UNL    C11   14   0.426   0.011  -0.067
    1UNL    C12   15   0.557  -0.013  -0.017
    1UNL    C13   16   0.626  -0.132  -0.052
    1UNL    C14   17   0.761  -0.151  -0.028
    1UNL    C15   18   0.826  -0.065   0.061
    1UNL     O4   19   0.957  -0.085   0.092
    1UNL    C16   20   0.759   0.051   0.102
    1UNL     O5   21   0.826   0.150   0.164
    1UNL    C17   22   0.621   0.079   0.064
    1UNL    C18   23  -0.199   0.111  -0.164
    1UNL    C19   24  -0.301   0.114  -0.050
    1UNL     O6   25  -0.286   0.237   0.034
    1UNL    C20   26  -0.371  -0.137  -0.038
    1UNL     O7   27  -0.400  -0.110  -0.174
    1UNL    C21   28  -0.530  -0.154  -0.193
    1UNL     O8   29  -0.470  -0.193   0.043
    1UNL     H1   30  -0.597   0.045   0.342
    1UNL     H2   31  -0.743  -0.015   0.267
    1UNL     H3   32  -0.687  -0.106   0.404
    1UNL     H4   33  -0.612  -0.059   0.071
    1UNL     H5   34  -0.446   0.117   0.159
    1UNL     H6   35  -0.361  -0.009   0.255
    1UNL     H7   36  -0.152  -0.119   0.170
    1UNL     H8   37  -0.144   0.054   0.144
    1UNL     H9   38   0.046  -0.067   0.022
    1UNL    H10   39  -0.072  -0.143  -0.075
    1UNL    H11   40  -0.033   0.159  -0.041
    1UNL    H12   41   0.064   0.162  -0.274
    1UNL    H13   42   0.043  -0.014  -0.294
    1UNL    H14   43   0.416   0.211  -0.005
    1UNL    H15   44   0.364  -0.074  -0.098
    1UNL    H16   45   0.576  -0.205  -0.112
    1UNL    H17   46   0.815  -0.227  -0.083
    1UNL    H18   47   0.981  -0.176   0.063
    1UNL    H19   48   0.915   0.119   0.186
    1UNL    H20   49   0.587   0.181   0.087
    1UNL    H21   50  -0.200   0.206  -0.218
    1UNL    H22   51  -0.230   0.028  -0.240
    1UNL    H23   52  -0.394   0.121  -0.102
    1UNL    H24   53  -0.190   0.257   0.054
    1UNL    H25   54  -0.290  -0.228  -0.032
    1UNL    H26   55  -0.598  -0.076  -0.163
    1UNL    H27   56  -0.534  -0.151  -0.301
    1UNL    H28   57  -0.543  -0.255  -0.147
   0.00000   0.00000   0.00000   0.00000   0.00000   0.00000   0.00000   0.00000   0.00000
Generated with MDTraj, t= 16.0
 57
    1UNL     C1    1  -0.628  -0.047   0.337
    1UNL     O1    2  -0.566  -0.147   0.261
    1UNL     C2    3  -0.523  -0.095   0.132
    1UNL     C3    4  -0.405   0.004   0.155
    1UNL     C4    5  -0.301  -0.018   0.038
    1UNL     C5    6  -0.157  -0.037   0.088
    1UNL     C6    7  -0.057  -0.039  -0.020
    1UNL     C7    8  -0.064   0.083  -0.112
    1UNL     C8    9   0.042   0.069  -0.225
    1UNL     O2   10   0.170   0.043  -0.165
    1UNL     C9   11   0.223   0.157  -0.101
    1UNL     O3   12   0.170   0.270  -0.107
    1UNL    C10   13   0.355   0.144  -0.047
    1UNL    C11   14   0.426   0.033  -0.059
    1UNL    C12   15   0.558  -0.010  -0.006
    1UNL    C13   16   0.618  -0.128  -0.045
    1UNL    C14   17   0.746  -0.162  -0.010
    1UNL    C15   18   0.833  -0.073   0.052
    1UNL     O4   19   0.964  -0.101   0.103
    1UNL    C16   20   0.773   0.051   0.094
    1UNL     O5   21   0.845   0.137   0.185
    1UNL    C17   22   0.645   0.082   0.063
    1UNL    C18   23  -0.205   0.101  -0.169
    1UNL    C19   24  -0.309   0.103  -0.061
    1UNL     O6   25  -0.311   0.224   0.020
    1UNL    C20   26  -0.362  -0.142  -0.033
    1UNL     O7   27  -0.396  -0.107  -0.173
    1UNL    C21   28  -0.539  -0.133  -0.200
    1UNL     O8   29  -0.472  -0.197   0.041
    1UNL     H1   30  -0.553   0.021   0.372
    1UNL     H2   31  -0.712  -0.007   0.275
    1UNL     H3   32  -0.682  -0.095   0.420
    1UNL     H4   33  -0.606  -0.055   0.079
    1UNL     H5   34  -0.432   0.111   0.149
    1UNL     H6   35  -0.350  -0.001   0.253
    1UNL     H7   36  -0.161  -0.134   0.149
    1UNL     H8   37  -0.133   0.040   0.158
    1UNL     H9   38   0.044  -0.033   0.022
    1UNL    H10   39  -0.069  -0.123  -0.080
    1UNL    H11   40  -0.051   0.175  -0.052
    1UNL    H12   41   0.053   0.159  -0.280
    1UNL    H13   42   0.021  -0.012  -0.302
    1UNL    H14   43   0.391   0.237  -0.008
    1UNL    H15   44   0.372  -0.048  -0.108
    1UNL    H16   45   0.562  -0.190  -0.116
    1UNL    H17   46   0.787  -0.252  -0.048
    1UNL    H18   47   1.013  -0.171   0.057
    1UNL    H19   48   0.935   0.104   0.208
    1UNL    H20   49   0.599   0.179   0.086
    1UNL    H21   50  -0.211   0.188  -0.233
    1UNL    H22   51  -0.226   0.009  -0.240
    1UNL    H23   52  -0.402   0.096  -0.110
    1UNL    H24   53  -0.222   0.257   0.050
    1UNL    H25   54  -0.286  -0.235  -0.023
    1UNL    H26   55  -0.606  -0.079  -0.134
    1UNL    H27   56  -0.562  -0.081  -0.292
    1UNL    H28   57  -0.550  -0.243  -0.203
   0.00000   0.00000   0.00000   0.00000   0.00000   0.00000   0.00000   0.00000   0.00000
Generated with MDTraj, t= 17.0
 57
    1UNL     C1    1  -0.615  -0.059   0.350
    1UNL     O1    2  -0.566  -0.152   0.261
    1UNL     C2    3  -0.514  -0.096   0.138
    1UNL     C3    4  -0.410   0.012   0.154
    1UNL     C4    5  -0.303  -0.015   0.037
    1UNL     C5    6  -0.160  -0.044   0.084
    1UNL     C6    7  -0.063  -0.051  -0.040
    1UNL     C7    8  -0.059   0.079  -0.108
    1UNL     C8    9   0.044   0.075  -0.219
    1UNL     O2   10   0.180   0.060  -0.178
    1UNL     C9   11   0.226   0.166  -0.106
    1UNL     O3   12   0.159   0.272  -0.100
    1UNL    C10   13   0.364   0.147  -0.052
    1UNL    C11   14   0.436   0.040  -0.074
    1UNL    C12   15   0.565  -0.002  -0.025
    1UNL    C13   16   0.613  -0.133  -0.038
    1UNL    C14   17   0.744  -0.169  -0.009
    1UNL    C15   18   0.824  -0.077   0.066
    1UNL     O4   19   0.944  -0.111   0.124
    1UNL    C16   20   0.763   0.051   0.097
    1UNL     O5   21   0.842   0.135   0.174
    1UNL    C17   22   0.638   0.087   0.059
    1UNL    C18   23  -0.196   0.119  -0.162
    1UNL    C19   24  -0.305   0.111  -0.059
    1UNL     O6   25  -0.310   0.234   0.010
    1UNL    C20   26  -0.364  -0.144  -0.032
    1UNL     O7   27  -0.401  -0.126  -0.167
    1UNL    C21   28  -0.536  -0.140  -0.201
    1UNL     O8   29  -0.463  -0.194   0.049
    1UNL     H1   30  -0.530  -0.002   0.381
    1UNL     H2   31  -0.708  -0.014   0.303
    1UNL     H3   32  -0.664  -0.101   0.444
    1UNL     H4   33  -0.597  -0.059   0.084
    1UNL     H5   34  -0.446   0.115   0.152
    1UNL     H6   35  -0.346   0.004   0.243
    1UNL     H7   36  -0.166  -0.151   0.120
    1UNL     H8   37  -0.135   0.022   0.166
    1UNL     H9   38   0.037  -0.079  -0.011
    1UNL    H10   39  -0.103  -0.115  -0.111
    1UNL    H11   40  -0.026   0.160  -0.039
    1UNL    H12   41   0.036   0.168  -0.268
    1UNL    H13   42   0.017  -0.008  -0.291
    1UNL    H14   43   0.415   0.234  -0.016
    1UNL    H15   44   0.384  -0.030  -0.136
    1UNL    H16   45   0.558  -0.199  -0.101
    1UNL    H17   46   0.786  -0.271  -0.027
    1UNL    H18   47   0.980  -0.190   0.080
    1UNL    H19   48   0.923   0.092   0.204
    1UNL    H20   49   0.609   0.187   0.076
    1UNL    H21   50  -0.196   0.223  -0.192
    1UNL    H22   51  -0.216   0.062  -0.261
    1UNL    H23   52  -0.398   0.105  -0.112
    1UNL    H24   53  -0.230   0.241   0.067
    1UNL    H25   54  -0.281  -0.231  -0.033
    1UNL    H26   55  -0.596  -0.048  -0.202
    1UNL    H27   56  -0.526  -0.162  -0.308
    1UNL    H28   57  -0.568  -0.230  -0.146
   0.00000   0.00000   0.00000   0.00000   0.00000   0.00000   0.00000   0.00000   0.00000
Generated with MDTraj, t= 18.0
 57
    1UNL     C1    1  -0.611  -0.054   0.337
    1UNL     O1    2  -0.555  -0.150   0.256
    1UNL     C2    3  -0.501  -0.095   0.135
    1UNL     C3    4  -0.380  -0.001   0.162
    1UNL     C4    5  -0.293  -0.019   0.037
    1UNL     C5    6  -0.151  -0.043   0.085
    1UNL     C6    7  -0.051  -0.028  -0.031
    1UNL     C7    8  -0.061   0.097  -0.116
    1UNL     C8    9   0.044   0.096  -0.224
    1UNL     O2   10   0.167   0.056  -0.175
    1UNL     C9   11   0.225   0.161  -0.108
    1UNL     O3   12   0.163   0.259  -0.067
    1UNL    C10   13   0.365   0.143  -0.065
    1UNL    C11   14   0.427   0.025  -0.091
    1UNL    C12   15   0.549  -0.009  -0.028
    1UNL    C13   16   0.609  -0.137  -0.053
    1UNL    C14   17   0.731  -0.164  -0.000
    1UNL    C15   18   0.806  -0.075   0.082
    1UNL     O4   19   0.923  -0.110   0.149
    1UNL    C16   20   0.758   0.055   0.102
    1UNL     O5   21   0.834   0.145   0.163
    1UNL    C17   22   0.634   0.088   0.033
    1UNL    C18   23  -0.204   0.101  -0.171
    1UNL    C19   24  -0.304   0.105  -0.052
    1UNL     O6   25  -0.283   0.232   0.015
    1UNL    C20   26  -0.360  -0.145  -0.034
    1UNL     O7   27  -0.408  -0.108  -0.168
    1UNL    C21   28  -0.541  -0.148  -0.205
    1UNL     O8   29  -0.459  -0.199   0.053
    1UNL     H1   30  -0.538   0.021   0.346
    1UNL     H2   31  -0.711  -0.019   0.295
    1UNL     H3   32  -0.634  -0.085   0.443
    1UNL     H4   33  -0.588  -0.054   0.091
    1UNL     H5   34  -0.391   0.106   0.174
    1UNL     H6   35  -0.333  -0.047   0.248
    1UNL     H7   36  -0.149  -0.147   0.126
    1UNL     H8   37  -0.134   0.026   0.174
    1UNL     H9   38   0.050  -0.024   0.008
    1UNL    H10   39  -0.059  -0.111  -0.095
    1UNL    H11   40  -0.034   0.187  -0.054
    1UNL    H12   41   0.048   0.187  -0.276
    1UNL    H13   42   0.006   0.014  -0.292
    1UNL    H14   43   0.409   0.222  -0.004
    1UNL    H15   44   0.367  -0.044  -0.150
    1UNL    H16   45   0.555  -0.204  -0.122
    1UNL    H17   46   0.779  -0.251  -0.028
    1UNL    H18   47   0.946  -0.205   0.141
    1UNL    H19   48   0.910   0.091   0.198
    1UNL    H20   49   0.618   0.195   0.010
    1UNL    H21   50  -0.209   0.197  -0.226
    1UNL    H22   51  -0.228   0.027  -0.252
    1UNL    H23   52  -0.410   0.105  -0.085
    1UNL    H24   53  -0.204   0.230   0.072
    1UNL    H25   54  -0.270  -0.222  -0.047
    1UNL    H26   55  -0.616  -0.116  -0.133
    1UNL    H27   56  -0.572  -0.109  -0.303
    1UNL    H28   57  -0.532  -0.258  -0.212
   0.00000   0.00000   0.00000   0.00000   0.00000   0.00000   0.00000   0.00000   0.00000
Generated with MDTraj, t= 19.0
 57
    1UNL     C1    1  -0.619  -0.059   0.327
    1UNL     O1    2  -0.542  -0.151   0.260
    1UNL     C2    3  -0.493  -0.096   0.140
    1UNL     C3    4  -0.374   0.002   0.170
    1UNL     C4    5  -0.289  -0.009   0.038
    1UNL     C5    6  -0.145  -0.046   0.072
    1UNL     C6    7  -0.064  -0.051  -0.051
    1UNL     C7    8  -0.053   0.085  -0.124
    1UNL     C8    9   0.040   0.091  -0.244
    1UNL     O2   10   0.178   0.071  -0.217
    1UNL     C9   11   0.221   0.156  -0.114
    1UNL     O3   12   0.158   0.249  -0.069
    1UNL    C10   13   0.349   0.123  -0.054
    1UNL    C11   14   0.433   0.018  -0.095
    1UNL    C12   15   0.560  -0.003  -0.034
    1UNL    C13   16   0.601  -0.136  -0.034
    1UNL    C14   17   0.725  -0.169   0.013
    1UNL    C15   18   0.798  -0.074   0.077
    1UNL     O4   19   0.910  -0.107   0.148
    1UNL    C16   20   0.752   0.059   0.095
    1UNL     O5   21   0.825   0.143   0.166
    1UNL    C17   22   0.628   0.093   0.041
    1UNL    C18   23  -0.196   0.139  -0.155
    1UNL    C19   24  -0.295   0.127  -0.040
    1UNL     O6   25  -0.283   0.238   0.043
    1UNL    C20   26  -0.361  -0.130  -0.032
    1UNL     O7   27  -0.425  -0.102  -0.154
    1UNL    C21   28  -0.511  -0.188  -0.213
    1UNL     O8   29  -0.452  -0.196   0.057
    1UNL     H1   30  -0.557   0.011   0.377
    1UNL     H2   31  -0.677   0.012   0.261
    1UNL     H3   32  -0.676  -0.111   0.409
    1UNL     H4   33  -0.578  -0.045   0.100
    1UNL     H5   34  -0.413   0.100   0.187
    1UNL     H6   35  -0.310  -0.030   0.248
    1UNL     H7   36  -0.141  -0.133   0.140
    1UNL     H8   37  -0.111   0.048   0.135
    1UNL     H9   38   0.031  -0.094  -0.024
    1UNL    H10   39  -0.114  -0.111  -0.125
    1UNL    H11   40  -0.006   0.148  -0.043
    1UNL    H12   41   0.024   0.181  -0.293
    1UNL    H13   42   0.009   0.007  -0.312
    1UNL    H14   43   0.358   0.176   0.038
    1UNL    H15   44   0.399  -0.047  -0.173
    1UNL    H16   45   0.532  -0.211  -0.060
    1UNL    H17   46   0.759  -0.275   0.024
    1UNL    H18   47   0.936  -0.201   0.128
    1UNL    H19   48   0.908   0.098   0.191
    1UNL    H20   49   0.609   0.196   0.045
    1UNL    H21   50  -0.191   0.236  -0.211
    1UNL    H22   51  -0.234   0.073  -0.231
    1UNL    H23   52  -0.399   0.149  -0.080
    1UNL    H24   53  -0.195   0.277   0.040
    1UNL    H25   54  -0.288  -0.212  -0.069
    1UNL    H26   55  -0.597  -0.179  -0.148
    1UNL    H27   56  -0.530  -0.155  -0.316
    1UNL    H28   57  -0.475  -0.291  -0.225
   0.00000   0.00000   0.00000   0.00000   0.00000   0.00000   0.00000   0.00000   0.00000
Generated with MDTraj, t= 20.0
 57
    1UNL     C1    1  -0.605  -0.065   0.343
    1UNL     O1    2  -0.534  -0.150   0.267
    1UNL     C2    3  -0.494  -0.084   0.147
    1UNL     C3    4  -0.366   0.003   0.175
    1UNL     C4    5  -0.292  -0.010   0.037
    1UNL     C5    6  -0.141  -0.052   0.069
    1UNL     C6    7  -0.060  -0.047  -0.060
    1UNL     C7    8  -0.067   0.092  -0.131
    1UNL     C8    9   0.033   0.104  -0.244
    1UNL     O2   10   0.165   0.062  -0.199
    1UNL     C9   11   0.223   0.162  -0.123
    1UNL     O3   12   0.178   0.269  -0.085
    1UNL    C10   13   0.356   0.136  -0.073
    1UNL    C11   14   0.413   0.015  -0.072
    1UNL    C12   15   0.541  -0.017  -0.019
    1UNL    C13   16   0.594  -0.139  -0.040
    1UNL    C14   17   0.723  -0.168   0.015
    1UNL    C15   18   0.799  -0.074   0.080
    1UNL     O4   19   0.913  -0.105   0.149
    1UNL    C16   20   0.748   0.056   0.095
    1UNL     O5   21   0.827   0.148   0.170
    1UNL    C17   22   0.625   0.081   0.043
    1UNL    C18   23  -0.219   0.120  -0.166
    1UNL    C19   24  -0.303   0.124  -0.037
    1UNL     O6   25  -0.256   0.228   0.045
    1UNL    C20   26  -0.367  -0.135  -0.032
    1UNL     O7   27  -0.421  -0.094  -0.155
    1UNL    C21   28  -0.479  -0.193  -0.238
    1UNL     O8   29  -0.474  -0.185   0.052
    1UNL     H1   30  -0.571   0.033   0.338
    1UNL     H2   31  -0.705  -0.038   0.301
    1UNL     H3   32  -0.606  -0.104   0.448
    1UNL     H4   33  -0.581  -0.026   0.114
    1UNL     H5   34  -0.395   0.103   0.186
    1UNL     H6   35  -0.312  -0.033   0.258
    1UNL     H7   36  -0.127  -0.138   0.139
    1UNL     H8   37  -0.107   0.044   0.128
    1UNL     H9   38   0.042  -0.072  -0.041
    1UNL    H10   39  -0.106  -0.125  -0.123
    1UNL    H11   40  -0.030   0.160  -0.049
    1UNL    H12   41   0.031   0.198  -0.290
    1UNL    H13   42  -0.000   0.031  -0.325
    1UNL    H14   43   0.403   0.207  -0.002
    1UNL    H15   44   0.347  -0.064  -0.119
    1UNL    H16   45   0.535  -0.214  -0.094
    1UNL    H17   46   0.745  -0.271   0.016
    1UNL    H18   47   0.925  -0.202   0.129
    1UNL    H19   48   0.892   0.095   0.223
    1UNL    H20   49   0.588   0.181   0.065
    1UNL    H21   50  -0.225   0.218  -0.223
    1UNL    H22   51  -0.256   0.049  -0.232
    1UNL    H23   52  -0.417   0.125  -0.057
    1UNL    H24   53  -0.160   0.217   0.049
    1UNL    H25   54  -0.296  -0.222  -0.050
    1UNL    H26   55  -0.516  -0.260  -0.161
    1UNL    H27   56  -0.560  -0.166  -0.308
    1UNL    H28   57  -0.406  -0.248  -0.299
   0.00000   0.00000   0.00000   0.00000   0.00000   0.00000   0.00000   0.00000   0.00000
Generated with MDTraj, t= 21.0
 57
    1UNL     C1    1  -0.579  -0.069   0.359
    1UNL     O1    2  -0.536  -0.153   0.261
    1UNL     C2    3  -0.499  -0.081   0.142
    1UNL     C3    4  -0.375   0.003   0.174
    1UNL     C4    5  -0.283  -0.024   0.045
    1UNL     C5    6  -0.133  -0.054   0.087
    1UNL     C6    7  -0.048  -0.051  -0.048
    1UNL     C7    8  -0.050   0.086  -0.123
    1UNL     C8    9   0.040   0.084  -0.240
    1UNL     O2   10   0.173   0.057  -0.201
    1UNL     C9   11   0.226   0.166  -0.136
    1UNL     O3   12   0.166   0.273  -0.123
    1UNL    C10   13   0.355   0.145  -0.079
    1UNL    C11   14   0.418   0.031  -0.083
    1UNL    C12   15   0.542  -0.004  -0.009
    1UNL    C13   16   0.585  -0.137  -0.022
    1UNL    C14   17   0.711  -0.175   0.015
    1UNL    C15   18   0.784  -0.084   0.090
    1UNL     O4   19   0.915  -0.103   0.122
    1UNL    C16   20   0.736   0.048   0.113
    1UNL     O5   21   0.821   0.135   0.171
    1UNL    C17   22   0.616   0.088   0.065
    1UNL    C18   23  -0.191   0.138  -0.158
    1UNL    C19   24  -0.298   0.118  -0.040
    1UNL     O6   25  -0.303   0.234   0.043
    1UNL    C20   26  -0.364  -0.137  -0.037
    1UNL     O7   27  -0.409  -0.092  -0.159
    1UNL    C21   28  -0.485  -0.180  -0.235
    1UNL     O8   29  -0.470  -0.182   0.044
    1UNL     H1   30  -0.521   0.014   0.370
    1UNL     H2   31  -0.676  -0.033   0.326
    1UNL     H3   32  -0.585  -0.117   0.458
    1UNL     H4   33  -0.591  -0.026   0.109
    1UNL     H5   34  -0.406   0.098   0.199
    1UNL     H6   35  -0.323  -0.042   0.253
    1UNL     H7   36  -0.146  -0.160   0.129
    1UNL     H8   37  -0.090   0.014   0.170
    1UNL     H9   38   0.049  -0.084  -0.027
    1UNL    H10   39  -0.099  -0.122  -0.118
    1UNL    H11   40  -0.008   0.158  -0.047
    1UNL    H12   41   0.030   0.164  -0.309
    1UNL    H13   42   0.007  -0.008  -0.302
    1UNL    H14   43   0.391   0.221  -0.015
    1UNL    H15   44   0.371  -0.048  -0.129
    1UNL    H16   45   0.529  -0.207  -0.082
    1UNL    H17   46   0.756  -0.272  -0.011
    1UNL    H18   47   0.945  -0.196   0.112
    1UNL    H19   48   0.907   0.087   0.181
    1UNL    H20   49   0.576   0.188   0.064
    1UNL    H21   50  -0.191   0.250  -0.176
    1UNL    H22   51  -0.220   0.093  -0.247
    1UNL    H23   52  -0.406   0.110  -0.079
    1UNL    H24   53  -0.219   0.244   0.093
    1UNL    H25   54  -0.305  -0.225  -0.063
    1UNL    H26   55  -0.579  -0.193  -0.182
    1UNL    H27   56  -0.497  -0.145  -0.339
    1UNL    H28   57  -0.439  -0.280  -0.233
   0.00000   0.00000   0.00000   0.00000   0.00000   0.00000   0.00000   0.00000   0.00000
Generated with MDTraj, t= 22.0
 57
    1UNL     C1    1  -0.578  -0.072   0.358
    1UNL     O1    2  -0.550  -0.158   0.254
    1UNL     C2    3  -0.501  -0.103   0.139
    1UNL     C3    4  -0.389   0.002   0.165
    1UNL     C4    5  -0.290  -0.019   0.044
    1UNL     C5    6  -0.140  -0.045   0.080
    1UNL     C6    7  -0.050  -0.035  -0.046
    1UNL     C7    8  -0.064   0.096  -0.123
    1UNL     C8    9   0.027   0.085  -0.242
    1UNL     O2   10   0.160   0.061  -0.191
    1UNL     C9   11   0.221   0.173  -0.135
    1UNL     O3   12   0.172   0.287  -0.140
    1UNL    C10   13   0.358   0.155  -0.074
    1UNL    C11   14   0.405   0.031  -0.065
    1UNL    C12   15   0.539  -0.006  -0.018
    1UNL    C13   16   0.591  -0.138  -0.036
    1UNL    C14   17   0.711  -0.173   0.014
    1UNL    C15   18   0.800  -0.083   0.086
    1UNL     O4   19   0.921  -0.114   0.146
    1UNL    C16   20   0.747   0.047   0.101
    1UNL     O5   21   0.820   0.131   0.185
    1UNL    C17   22   0.623   0.080   0.046
    1UNL    C18   23  -0.210   0.126  -0.164
    1UNL    C19   24  -0.301   0.129  -0.037
    1UNL     O6   25  -0.259   0.244   0.041
    1UNL    C20   26  -0.347  -0.146  -0.036
    1UNL     O7   27  -0.392  -0.105  -0.163
    1UNL    C21   28  -0.513  -0.169  -0.213
    1UNL     O8   29  -0.454  -0.202   0.049
    1UNL     H1   30  -0.510  -0.077   0.435
    1UNL     H2   31  -0.617   0.021   0.317
    1UNL     H3   32  -0.666  -0.109   0.415
    1UNL     H4   33  -0.595  -0.057   0.095
    1UNL     H5   34  -0.410   0.103   0.168
    1UNL     H6   35  -0.349  -0.024   0.258
    1UNL     H7   36  -0.133  -0.152   0.130
    1UNL     H8   37  -0.115   0.030   0.161
    1UNL     H9   38   0.051  -0.049  -0.024
    1UNL    H10   39  -0.085  -0.116  -0.116
    1UNL    H11   40  -0.023   0.186  -0.068
    1UNL    H12   41   0.029   0.176  -0.298
    1UNL    H13   42  -0.001   0.006  -0.322
    1UNL    H14   43   0.414   0.244  -0.053
    1UNL    H15   44   0.346  -0.063  -0.096
    1UNL    H16   45   0.534  -0.217  -0.082
    1UNL    H17   46   0.756  -0.264  -0.014
    1UNL    H18   47   0.938  -0.208   0.133
    1UNL    H19   48   0.916   0.113   0.175
    1UNL    H20   49   0.580   0.174   0.073
    1UNL    H21   50  -0.212   0.227  -0.211
    1UNL    H22   51  -0.249   0.052  -0.229
    1UNL    H23   52  -0.411   0.126  -0.056
    1UNL    H24   53  -0.160   0.248   0.050
    1UNL    H25   54  -0.285  -0.233  -0.044
    1UNL    H26   55  -0.607  -0.146  -0.162
    1UNL    H27   56  -0.528  -0.152  -0.322
    1UNL    H28   57  -0.498  -0.275  -0.186
   0.00000   0.00000   0.00000   0.00000   0.00000   0.00000   0.00000   0.00000   0.00000
Generated with MDTraj, t= 23.0
 57
    1UNL     C1    1  -0.611  -0.063   0.346
    1UNL     O1    2  -0.547  -0.159   0.262
    1UNL     C2    3  -0.493  -0.106   0.144
    1UNL     C3    4  -0.373  -0.009   0.173
    1UNL     C4    5  -0.280  -0.019   0.043
    1UNL     C5    6  -0.131  -0.045   0.078
    1UNL     C6    7  -0.032  -0.033  -0.036
    1UNL     C7    8  -0.049   0.098  -0.112
    1UNL     C8    9   0.037   0.089  -0.239
    1UNL     O2   10   0.172   0.075  -0.206
    1UNL     C9   11   0.223   0.174  -0.138
    1UNL     O3   12   0.167   0.278  -0.113
    1UNL    C10   13   0.365   0.148  -0.089
    1UNL    C11   14   0.423   0.027  -0.096
    1UNL    C12   15   0.553  -0.010  -0.031
    1UNL    C13   16   0.600  -0.143  -0.042
    1UNL    C14   17   0.716  -0.183   0.023
    1UNL    C15   18   0.789  -0.088   0.094
    1UNL     O4   19   0.914  -0.114   0.151
    1UNL    C16   20   0.741   0.044   0.096
    1UNL     O5   21   0.809   0.145   0.174
    1UNL    C17   22   0.618   0.082   0.047
    1UNL    C18   23  -0.192   0.130  -0.153
    1UNL    C19   24  -0.296   0.120  -0.042
    1UNL     O6   25  -0.308   0.243   0.034
    1UNL    C20   26  -0.352  -0.143  -0.037
    1UNL     O7   27  -0.412  -0.094  -0.154
    1UNL    C21   28  -0.522  -0.166  -0.204
    1UNL     O8   29  -0.450  -0.207   0.047
    1UNL     H1   30  -0.550   0.007   0.392
    1UNL     H2   31  -0.698  -0.026   0.291
    1UNL     H3   32  -0.654  -0.111   0.438
    1UNL     H4   33  -0.583  -0.051   0.099
    1UNL     H5   34  -0.404   0.086   0.198
    1UNL     H6   35  -0.328  -0.040   0.260
    1UNL     H7   36  -0.143  -0.152   0.130
    1UNL     H8   37  -0.109   0.026   0.161
    1UNL     H9   38   0.066  -0.041   0.001
    1UNL    H10   39  -0.045  -0.112  -0.114
    1UNL    H11   40  -0.009   0.185  -0.054
    1UNL    H12   41   0.032   0.166  -0.315
    1UNL    H13   42   0.010  -0.007  -0.299
    1UNL    H14   43   0.417   0.240  -0.053
    1UNL    H15   44   0.389  -0.045  -0.163
    1UNL    H16   45   0.543  -0.208  -0.110
    1UNL    H17   46   0.762  -0.284   0.010
    1UNL    H18   47   0.918  -0.210   0.163
    1UNL    H19   48   0.877   0.096   0.228
    1UNL    H20   49   0.571   0.175   0.080
    1UNL    H21   50  -0.204   0.229  -0.199
    1UNL    H22   51  -0.215   0.048  -0.222
    1UNL    H23   52  -0.393   0.113  -0.091
    1UNL    H24   53  -0.218   0.283   0.049
    1UNL    H25   54  -0.290  -0.222  -0.066
    1UNL    H26   55  -0.619  -0.158  -0.154
    1UNL    H27   56  -0.529  -0.124  -0.306
    1UNL    H28   57  -0.487  -0.271  -0.196
   0.00000   0.00000   0.00000   0.00000   0.00000   0.00000   0.00000   0.00000   0.00000
Generated with MDTraj, t= 24.0
 57
    1UNL     C1    1  -0.635  -0.069   0.335
    1UNL     O1    2  -0.533  -0.151   0.278
    1UNL     C2    3  -0.492  -0.103   0.144
    1UNL     C3    4  -0.375  -0.001   0.167
    1UNL     C4    5  -0.286  -0.007   0.038
    1UNL     C5    6  -0.140  -0.051   0.066
    1UNL     C6    7  -0.059  -0.044  -0.066
    1UNL     C7    8  -0.062   0.101  -0.124
    1UNL     C8    9   0.039   0.103  -0.242
    1UNL     O2   10   0.162   0.061  -0.193
    1UNL     C9   11   0.228   0.168  -0.128
    1UNL     O3   12   0.178   0.274  -0.101
    1UNL    C10   13   0.360   0.139  -0.075
    1UNL    C11   14   0.423   0.024  -0.105
    1UNL    C12   15   0.557  -0.008  -0.047
    1UNL    C13   16   0.610  -0.135  -0.057
    1UNL    C14   17   0.723  -0.172   0.018
    1UNL    C15   18   0.792  -0.085   0.097
    1UNL     O4   19   0.908  -0.130   0.164
    1UNL    C16   20   0.746   0.054   0.105
    1UNL     O5   21   0.818   0.146   0.180
    1UNL    C17   22   0.633   0.086   0.032
    1UNL    C18   23  -0.208   0.142  -0.164
    1UNL    C19   24  -0.298   0.129  -0.037
    1UNL     O6   25  -0.285   0.247   0.050
    1UNL    C20   26  -0.355  -0.134  -0.032
    1UNL     O7   27  -0.416  -0.101  -0.158
    1UNL    C21   28  -0.506  -0.201  -0.201
    1UNL     O8   29  -0.447  -0.203   0.056
    1UNL     H1   30  -0.627   0.034   0.315
    1UNL     H2   31  -0.733  -0.099   0.289
    1UNL     H3   32  -0.640  -0.089   0.447
    1UNL     H4   33  -0.582  -0.053   0.094
    1UNL     H5   34  -0.422   0.091   0.181
    1UNL     H6   35  -0.328  -0.015   0.259
    1UNL     H7   36  -0.147  -0.149   0.130
    1UNL     H8   37  -0.115   0.031   0.141
    1UNL     H9   38   0.040  -0.074  -0.052
    1UNL    H10   39  -0.104  -0.113  -0.141
    1UNL    H11   40  -0.029   0.173  -0.045
    1UNL    H12   41   0.052   0.202  -0.285
    1UNL    H13   42   0.019   0.032  -0.332
    1UNL    H14   43   0.405   0.215  -0.023
    1UNL    H15   44   0.388  -0.043  -0.183
    1UNL    H16   45   0.568  -0.214  -0.110
    1UNL    H17   46   0.764  -0.266   0.003
    1UNL    H18   47   0.899  -0.226   0.185
    1UNL    H19   48   0.891   0.097   0.220
    1UNL    H20   49   0.587   0.177   0.061
    1UNL    H21   50  -0.217   0.245  -0.187
    1UNL    H22   51  -0.253   0.076  -0.244
    1UNL    H23   52  -0.398   0.128  -0.071
    1UNL    H24   53  -0.191   0.255   0.079
    1UNL    H25   54  -0.279  -0.198  -0.050
    1UNL    H26   55  -0.569  -0.245  -0.124
    1UNL    H27   56  -0.569  -0.139  -0.267
    1UNL    H28   57  -0.443  -0.274  -0.253
   0.00000   0.00000   0.00000   0.00000   0.00000   0.00000   0.00000   0.00000   0.00000
Generated with MDTraj, t= 25.0
 57
    1UNL     C1    1  -0.634  -0.081   0.345
    1UNL     O1    2  -0.531  -0.150   0.280
    1UNL     C2    3  -0.497  -0.097   0.149
    1UNL     C3    4  -0.388   0.011   0.161
    1UNL     C4    5  -0.292  -0.006   0.040
    1UNL     C5    6  -0.145  -0.042   0.079
    1UNL     C6    7  -0.048  -0.037  -0.045
    1UNL     C7    8  -0.061   0.088  -0.128
    1UNL     C8    9   0.040   0.095  -0.246
    1UNL     O2   10   0.171   0.074  -0.212
    1UNL     C9   11   0.225   0.170  -0.127
    1UNL     O3   12   0.162   0.264  -0.087
    1UNL    C10   13   0.350   0.133  -0.071
    1UNL    C11   14   0.425   0.023  -0.091
    1UNL    C12   15   0.559   0.002  -0.039
    1UNL    C13   16   0.607  -0.127  -0.050
    1UNL    C14   17   0.725  -0.169   0.008
    1UNL    C15   18   0.792  -0.084   0.090
    1UNL     O4   19   0.907  -0.125   0.146
    1UNL    C16   20   0.749   0.054   0.104
    1UNL     O5   21   0.822   0.131   0.192
    1UNL    C17   22   0.630   0.094   0.038
    1UNL    C18   23  -0.203   0.116  -0.167
    1UNL    C19   24  -0.294   0.119  -0.042
    1UNL     O6   25  -0.253   0.236   0.035
    1UNL    C20   26  -0.364  -0.126  -0.036
    1UNL     O7   27  -0.436  -0.086  -0.156
    1UNL    C21   28  -0.484  -0.206  -0.217
    1UNL     O8   29  -0.457  -0.191   0.060
    1UNL     H1   30  -0.596   0.002   0.399
    1UNL     H2   31  -0.712  -0.029   0.280
    1UNL     H3   32  -0.672  -0.169   0.411
    1UNL     H4   33  -0.585  -0.049   0.099
    1UNL     H5   34  -0.428   0.107   0.170
    1UNL     H6   35  -0.337  -0.011   0.251
    1UNL     H7   36  -0.149  -0.136   0.143
    1UNL     H8   37  -0.124   0.043   0.154
    1UNL     H9   38   0.050  -0.035  -0.003
    1UNL    H10   39  -0.058  -0.126  -0.105
    1UNL    H11   40  -0.031   0.170  -0.059
    1UNL    H12   41   0.038   0.191  -0.296
    1UNL    H13   42   0.018   0.013  -0.326
    1UNL    H14   43   0.395   0.204   0.001
    1UNL    H15   44   0.393  -0.047  -0.169
    1UNL    H16   45   0.539  -0.200  -0.103
    1UNL    H17   46   0.756  -0.276  -0.008
    1UNL    H18   47   0.910  -0.225   0.153
    1UNL    H19   48   0.915   0.108   0.166
    1UNL    H20   49   0.587   0.190   0.057
    1UNL    H21   50  -0.217   0.208  -0.216
    1UNL    H22   51  -0.245   0.026  -0.224
    1UNL    H23   52  -0.394   0.134  -0.069
    1UNL    H24   53  -0.300   0.317   0.007
    1UNL    H25   54  -0.294  -0.190  -0.067
    1UNL    H26   55  -0.568  -0.243  -0.157
    1UNL    H27   56  -0.520  -0.172  -0.313
    1UNL    H28   57  -0.401  -0.275  -0.230
   0.00000   0.00000   0.00000   0.00000   0.00000   0.00000   0.00000   0.00000   0.00000
Generated with MDTraj, t= 26.0
 57
    1UNL     C1    1  -0.587  -0.062   0.346
    1UNL     O1    2  -0.535  -0.160   0.261
    1UNL     C2    3  -0.497  -0.099   0.134
    1UNL     C3    4  -0.386   0.011   0.160
    1UNL     C4    5  -0.290  -0.005   0.043
    1UNL     C5    6  -0.146  -0.022   0.083
    1UNL     C6    7  -0.056  -0.046  -0.030
    1UNL     C7    8  -0.059   0.074  -0.117
    1UNL     C8    9   0.039   0.062  -0.229
    1UNL     O2   10   0.169   0.049  -0.174
    1UNL     C9   11   0.215   0.164  -0.111
    1UNL     O3   12   0.164   0.269  -0.093
    1UNL    C10   13   0.354   0.148  -0.059
    1UNL    C11   14   0.412   0.030  -0.079
    1UNL    C12   15   0.545  -0.003  -0.028
    1UNL    C13   16   0.594  -0.130  -0.058
    1UNL    C14   17   0.712  -0.169  -0.001
    1UNL    C15   18   0.788  -0.079   0.075
    1UNL     O4   19   0.916  -0.104   0.122
    1UNL    C16   20   0.739   0.049   0.107
    1UNL     O5   21   0.824   0.129   0.187
    1UNL    C17   22   0.614   0.083   0.055
    1UNL    C18   23  -0.196   0.109  -0.170
    1UNL    C19   24  -0.300   0.119  -0.053
    1UNL     O6   25  -0.288   0.243   0.021
    1UNL    C20   26  -0.344  -0.129  -0.038
    1UNL     O7   27  -0.395  -0.089  -0.164
    1UNL    C21   28  -0.501  -0.174  -0.207
    1UNL     O8   29  -0.449  -0.189   0.039
    1UNL     H1   30  -0.546   0.031   0.321
    1UNL     H2   31  -0.700  -0.043   0.333
    1UNL     H3   32  -0.560  -0.101   0.451
    1UNL     H4   33  -0.584  -0.058   0.082
    1UNL     H5   34  -0.412   0.114   0.165
    1UNL     H6   35  -0.335  -0.025   0.248
    1UNL     H7   36  -0.148  -0.107   0.152
    1UNL     H8   37  -0.118   0.074   0.143
    1UNL     H9   38   0.040  -0.077   0.009
    1UNL    H10   39  -0.095  -0.127  -0.086
    1UNL    H11   40  -0.025   0.160  -0.056
    1UNL    H12   41   0.040   0.149  -0.291
    1UNL    H13   42   0.020  -0.028  -0.300
    1UNL    H14   43   0.409   0.224  -0.004
    1UNL    H15   44   0.358  -0.039  -0.137
    1UNL    H16   45   0.528  -0.194  -0.105
    1UNL    H17   46   0.755  -0.262  -0.025
    1UNL    H18   47   0.938  -0.200   0.113
    1UNL    H19   48   0.902   0.067   0.188
    1UNL    H20   49   0.581   0.177   0.099
    1UNL    H21   50  -0.189   0.204  -0.215
    1UNL    H22   51  -0.235   0.026  -0.238
    1UNL    H23   52  -0.399   0.125  -0.095
    1UNL    H24   53  -0.218   0.240   0.088
    1UNL    H25   54  -0.276  -0.199  -0.063
    1UNL    H26   55  -0.570  -0.181  -0.121
    1UNL    H27   56  -0.551  -0.119  -0.287
    1UNL    H28   57  -0.457  -0.263  -0.251
   0.00000   0.00000   0.00000   0.00000   0.00000   0.00000   0.00000   0.00000   0.00000
Generated with MDTraj, t= 27.0
 57
    1UNL     C1    1  -0.594  -0.060   0.357
    1UNL     O1    2  -0.543  -0.156   0.270
    1UNL     C2    3  -0.510  -0.100   0.140
    1UNL     C3    4  -0.397   0.006   0.158
    1UNL     C4    5  -0.305  -0.008   0.032
    1UNL     C5    6  -0.157  -0.022   0.080
    1UNL     C6    7  -0.051  -0.029  -0.030
    1UNL     C7    8  -0.059   0.094  -0.119
    1UNL     C8    9   0.039   0.089  -0.238
    1UNL     O2   10   0.175   0.058  -0.195
    1UNL     C9   11   0.229   0.163  -0.117
    1UNL     O3   12   0.176   0.274  -0.106
    1UNL    C10   13   0.358   0.136  -0.053
    1UNL    C11   14   0.415   0.012  -0.056
    1UNL    C12   15   0.547  -0.009  -0.002
    1UNL    C13   16   0.610  -0.124  -0.052
    1UNL    C14   17   0.734  -0.162  -0.010
    1UNL    C15   18   0.810  -0.079   0.072
    1UNL     O4   19   0.940  -0.100   0.111
    1UNL    C16   20   0.752   0.046   0.108
    1UNL     O5   21   0.833   0.125   0.184
    1UNL    C17   22   0.619   0.078   0.081
    1UNL    C18   23  -0.200   0.115  -0.171
    1UNL    C19   24  -0.305   0.123  -0.057
    1UNL     O6   25  -0.276   0.230   0.029
    1UNL    C20   26  -0.365  -0.133  -0.042
    1UNL     O7   27  -0.423  -0.099  -0.169
    1UNL    C21   28  -0.519  -0.196  -0.208
    1UNL     O8   29  -0.466  -0.192   0.039
    1UNL     H1   30  -0.568   0.034   0.323
    1UNL     H2   31  -0.705  -0.070   0.372
    1UNL     H3   32  -0.553  -0.083   0.459
    1UNL     H4   33  -0.600  -0.064   0.094
    1UNL     H5   34  -0.432   0.107   0.157
    1UNL     H6   35  -0.346  -0.021   0.251
    1UNL     H7   36  -0.154  -0.118   0.130
    1UNL     H8   37  -0.147   0.060   0.163
    1UNL     H9   38   0.051  -0.044   0.004
    1UNL    H10   39  -0.078  -0.114  -0.085
    1UNL    H11   40  -0.032   0.185  -0.059
    1UNL    H12   41   0.038   0.167  -0.310
    1UNL    H13   42   0.012  -0.005  -0.297
    1UNL    H14   43   0.385   0.225  -0.003
    1UNL    H15   44   0.369  -0.079  -0.106
    1UNL    H16   45   0.561  -0.190  -0.128
    1UNL    H17   46   0.778  -0.254  -0.038
    1UNL    H18   47   0.963  -0.193   0.085
    1UNL    H19   48   0.896   0.069   0.231
    1UNL    H20   49   0.574   0.164   0.124
    1UNL    H21   50  -0.194   0.209  -0.219
    1UNL    H22   51  -0.225   0.032  -0.244
    1UNL    H23   52  -0.407   0.134  -0.100
    1UNL    H24   53  -0.282   0.311  -0.027
    1UNL    H25   54  -0.289  -0.205  -0.052
    1UNL    H26   55  -0.614  -0.139  -0.197
    1UNL    H27   56  -0.497  -0.224  -0.311
    1UNL    H28   57  -0.507  -0.292  -0.155
   0.00000   0.00000   0.00000   0.00000   0.00000   0.00000   0.00000   0.00000   0.00000
Generated with MDTraj, t= 28.0
 57
    1UNL     C1    1  -0.635  -0.066   0.347
    1UNL     O1    2  -0.534  -0.143   0.286
    1UNL     C2    3  -0.502  -0.098   0.151
    1UNL     C3    4  -0.394   0.014   0.152
    1UNL     C4    5  -0.308  -0.010   0.027
    1UNL     C5    6  -0.164  -0.053   0.072
    1UNL     C6    7  -0.072  -0.053  -0.053
    1UNL     C7    8  -0.067   0.086  -0.119
    1UNL     C8    9   0.043   0.103  -0.223
    1UNL     O2   10   0.176   0.058  -0.173
    1UNL     C9   11   0.232   0.162  -0.111
    1UNL     O3   12   0.187   0.276  -0.099
    1UNL    C10   13   0.366   0.133  -0.056
    1UNL    C11   14   0.423   0.014  -0.065
    1UNL    C12   15   0.559  -0.016  -0.021
    1UNL    C13   16   0.621  -0.139  -0.048
    1UNL    C14   17   0.751  -0.162  -0.005
    1UNL    C15   18   0.823  -0.071   0.070
    1UNL     O4   19   0.957  -0.094   0.098
    1UNL    C16   20   0.755   0.043   0.114
    1UNL     O5   21   0.816   0.129   0.206
    1UNL    C17   22   0.634   0.074   0.059
    1UNL    C18   23  -0.203   0.129  -0.175
    1UNL    C19   24  -0.310   0.123  -0.064
    1UNL     O6   25  -0.293   0.241   0.011
    1UNL    C20   26  -0.378  -0.127  -0.039
    1UNL     O7   27  -0.449  -0.085  -0.160
    1UNL    C21   28  -0.511  -0.199  -0.212
    1UNL     O8   29  -0.455  -0.198   0.061
    1UNL     H1   30  -0.597   0.025   0.377
    1UNL     H2   31  -0.731  -0.068   0.292
    1UNL     H3   32  -0.675  -0.126   0.431
    1UNL     H4   33  -0.588  -0.057   0.105
    1UNL     H5   34  -0.446   0.110   0.151
    1UNL     H6   35  -0.323   0.012   0.234
    1UNL     H7   36  -0.177  -0.148   0.125
    1UNL     H8   37  -0.125   0.016   0.153
    1UNL     H9   38   0.030  -0.083  -0.032
    1UNL    H10   39  -0.115  -0.111  -0.128
    1UNL    H11   40  -0.049   0.157  -0.038
    1UNL    H12   41   0.044   0.199  -0.268
    1UNL    H13   42   0.017   0.035  -0.309
    1UNL    H14   43   0.424   0.220  -0.014
    1UNL    H15   44   0.366  -0.064  -0.098
    1UNL    H16   45   0.579  -0.216  -0.109
    1UNL    H17   46   0.804  -0.258  -0.033
    1UNL    H18   47   0.987  -0.169   0.043
    1UNL    H19   48   0.908   0.101   0.226
    1UNL    H20   49   0.572   0.157   0.089
    1UNL    H21   50  -0.196   0.223  -0.228
    1UNL    H22   51  -0.227   0.047  -0.244
    1UNL    H23   52  -0.413   0.127  -0.110
    1UNL    H24   53  -0.203   0.280  -0.010
    1UNL    H25   54  -0.302  -0.206  -0.058
    1UNL    H26   55  -0.617  -0.171  -0.225
    1UNL    H27   56  -0.456  -0.237  -0.301
    1UNL    H28   57  -0.497  -0.288  -0.147
   0.00000   0.00000   0.00000   0.00000   0.00000   0.00000   0.00000   0.00000   0.00000
Generated with MDTraj, t= 29.0
 57
    1UNL     C1    1  -0.636  -0.059   0.337
    1UNL     O1    2  -0.546  -0.148   0.274
    1UNL     C2    3  -0.509  -0.102   0.141
    1UNL     C3    4  -0.404   0.012   0.149
    1UNL     C4    5  -0.309  -0.005   0.030
    1UNL     C5    6  -0.168  -0.045   0.079
    1UNL     C6    7  -0.058  -0.042  -0.026
    1UNL     C7    8  -0.053   0.090  -0.111
    1UNL     C8    9   0.046   0.075  -0.228
    1UNL     O2   10   0.178   0.042  -0.178
    1UNL     C9   11   0.223   0.149  -0.107
    1UNL     O3   12   0.158   0.253  -0.088
    1UNL    C10   13   0.358   0.130  -0.049
    1UNL    C11   14   0.436   0.025  -0.072
    1UNL    C12   15   0.572  -0.007  -0.023
    1UNL    C13   16   0.641  -0.117  -0.073
    1UNL    C14   17   0.764  -0.153  -0.026
    1UNL    C15   18   0.826  -0.076   0.073
    1UNL     O4   19   0.946  -0.114   0.122
    1UNL    C16   20   0.763   0.044   0.115
    1UNL     O5   21   0.828   0.146   0.188
    1UNL    C17   22   0.638   0.070   0.070
    1UNL    C18   23  -0.193   0.133  -0.174
    1UNL    C19   24  -0.312   0.121  -0.066
    1UNL     O6   25  -0.301   0.240   0.014
    1UNL    C20   26  -0.372  -0.124  -0.044
    1UNL     O7   27  -0.448  -0.081  -0.157
    1UNL    C21   28  -0.535  -0.183  -0.195
    1UNL     O8   29  -0.450  -0.200   0.054
    1UNL     H1   30  -0.600   0.039   0.333
    1UNL     H2   31  -0.737  -0.083   0.302
    1UNL     H3   32  -0.659  -0.092   0.438
    1UNL     H4   33  -0.600  -0.068   0.099
    1UNL     H5   34  -0.447   0.115   0.156
    1UNL     H6   35  -0.348  -0.000   0.242
    1UNL     H7   36  -0.166  -0.140   0.136
    1UNL     H8   37  -0.142   0.033   0.150
    1UNL     H9   38   0.039  -0.055   0.020
    1UNL    H10   39  -0.083  -0.122  -0.090
    1UNL    H11   40  -0.022   0.172  -0.045
    1UNL    H12   41   0.046   0.163  -0.287
    1UNL    H13   42   0.004  -0.007  -0.293
    1UNL    H14   43   0.405   0.205   0.003
    1UNL    H15   44   0.381  -0.049  -0.137
    1UNL    H16   45   0.605  -0.171  -0.158
    1UNL    H17   46   0.816  -0.229  -0.069
    1UNL    H18   47   0.982  -0.179   0.059
    1UNL    H19   48   0.929   0.141   0.185
    1UNL    H20   49   0.589   0.168   0.091
    1UNL    H21   50  -0.187   0.232  -0.224
    1UNL    H22   51  -0.211   0.061  -0.252
    1UNL    H23   52  -0.416   0.117  -0.116
    1UNL    H24   53  -0.209   0.276   0.021
    1UNL    H25   54  -0.292  -0.204  -0.075
    1UNL    H26   55  -0.577  -0.162  -0.293
    1UNL    H27   56  -0.476  -0.278  -0.203
    1UNL    H28   57  -0.622  -0.195  -0.131
   0.00000   0.00000   0.00000   0.00000   0.00000   0.00000   0.00000   0.00000   0.00000
Generated with MDTraj, t= 30.0
 57
    1UNL     C1    1  -0.628  -0.067   0.348
    1UNL     O1    2  -0.554  -0.152   0.264
    1UNL     C2    3  -0.515  -0.096   0.138
    1UNL     C3    4  -0.423   0.024   0.142
    1UNL     C4    5  -0.315  -0.005   0.030
    1UNL     C5    6  -0.175  -0.029   0.095
    1UNL     C6    7  -0.067  -0.040  -0.011
    1UNL     C7    8  -0.063   0.081  -0.113
    1UNL     C8    9   0.049   0.060  -0.220
    1UNL     O2   10   0.174   0.032  -0.168
    1UNL     C9   11   0.223   0.139  -0.089
    1UNL     O3   12   0.155   0.237  -0.063
    1UNL    C10   13   0.355   0.130  -0.043
    1UNL    C11   14   0.443   0.036  -0.094
    1UNL    C12   15   0.575   0.009  -0.047
    1UNL    C13   16   0.639  -0.117  -0.074
    1UNL    C14   17   0.760  -0.154  -0.021
    1UNL    C15   18   0.829  -0.071   0.065
    1UNL     O4   19   0.956  -0.096   0.119
    1UNL    C16   20   0.763   0.048   0.104
    1UNL     O5   21   0.816   0.130   0.197
    1UNL    C17   22   0.640   0.085   0.047
    1UNL    C18   23  -0.198   0.106  -0.179
    1UNL    C19   24  -0.308   0.123  -0.070
    1UNL     O6   25  -0.279   0.235   0.009
    1UNL    C20   26  -0.362  -0.136  -0.040
    1UNL     O7   27  -0.404  -0.107  -0.169
    1UNL    C21   28  -0.539  -0.133  -0.188
    1UNL     O8   29  -0.467  -0.193   0.044
    1UNL     H1   30  -0.582   0.029   0.357
    1UNL     H2   31  -0.730  -0.066   0.314
    1UNL     H3   32  -0.637  -0.115   0.445
    1UNL     H4   33  -0.611  -0.072   0.098
    1UNL     H5   34  -0.471   0.126   0.137
    1UNL     H6   35  -0.383   0.026   0.246
    1UNL     H7   36  -0.184  -0.124   0.154
    1UNL     H8   37  -0.146   0.045   0.163
    1UNL     H9   38   0.027  -0.047   0.042
    1UNL    H10   39  -0.085  -0.127  -0.070
    1UNL    H11   40  -0.035   0.170  -0.058
    1UNL    H12   41   0.048   0.137  -0.293
    1UNL    H13   42   0.022  -0.039  -0.267
    1UNL    H14   43   0.378   0.213   0.028
    1UNL    H15   44   0.406  -0.028  -0.165
    1UNL    H16   45   0.589  -0.185  -0.146
    1UNL    H17   46   0.817  -0.244  -0.057
    1UNL    H18   47   1.004  -0.160   0.062
    1UNL    H19   48   0.866   0.071   0.253
    1UNL    H20   49   0.607   0.179   0.068
    1UNL    H21   50  -0.189   0.198  -0.245
    1UNL    H22   51  -0.220   0.028  -0.246
    1UNL    H23   52  -0.413   0.139  -0.117
    1UNL    H24   53  -0.184   0.239   0.032
    1UNL    H25   54  -0.265  -0.208  -0.051
    1UNL    H26   55  -0.548  -0.144  -0.296
    1UNL    H27   56  -0.573  -0.232  -0.153
    1UNL    H28   57  -0.607  -0.047  -0.183
   0.00000   0.00000   0.00000   0.00000   0.00000   0.00000   0.00000   0.00000   0.00000
Generated with MDTraj, t= 31.0
 57
    1UNL     C1    1  -0.623  -0.063   0.344
    1UNL     O1    2  -0.548  -0.143   0.258
    1UNL     C2    3  -0.523  -0.084   0.131
    1UNL     C3    4  -0.416   0.024   0.148
    1UNL     C4    5  -0.313  -0.012   0.036
    1UNL     C5    6  -0.175  -0.035   0.096
    1UNL     C6    7  -0.066  -0.057  -0.014
    1UNL     C7    8  -0.061   0.069  -0.105
    1UNL     C8    9   0.045   0.054  -0.211
    1UNL     O2   10   0.173   0.032  -0.159
    1UNL     C9   11   0.219   0.137  -0.088
    1UNL     O3   12   0.157   0.236  -0.062
    1UNL    C10   13   0.362   0.125  -0.041
    1UNL    C11   14   0.433   0.011  -0.067
    1UNL    C12   15   0.571  -0.007  -0.034
    1UNL    C13   16   0.647  -0.108  -0.096
    1UNL    C14   17   0.771  -0.140  -0.046
    1UNL    C15   18   0.832  -0.061   0.051
    1UNL     O4   19   0.948  -0.083   0.127
    1UNL    C16   20   0.763   0.054   0.101
    1UNL     O5   21   0.830   0.133   0.193
    1UNL    C17   22   0.632   0.080   0.060
    1UNL    C18   23  -0.195   0.093  -0.173
    1UNL    C19   24  -0.308   0.111  -0.069
    1UNL     O6   25  -0.311   0.231  -0.007
    1UNL    C20   26  -0.362  -0.138  -0.035
    1UNL     O7   27  -0.393  -0.114  -0.175
    1UNL    C21   28  -0.533  -0.090  -0.190
    1UNL     O8   29  -0.475  -0.192   0.046
    1UNL     H1   30  -0.564   0.026   0.369
    1UNL     H2   31  -0.697  -0.015   0.280
    1UNL     H3   32  -0.659  -0.111   0.436
    1UNL     H4   33  -0.610  -0.040   0.083
    1UNL     H5   34  -0.449   0.132   0.137
    1UNL     H6   35  -0.373   0.028   0.254
    1UNL     H7   36  -0.172  -0.124   0.164
    1UNL     H8   37  -0.161   0.049   0.156
    1UNL     H9   38   0.032  -0.086   0.021
    1UNL    H10   39  -0.099  -0.136  -0.080
    1UNL    H11   40  -0.029   0.149  -0.038
    1UNL    H12   41   0.053   0.149  -0.260
    1UNL    H13   42   0.014  -0.023  -0.286
    1UNL    H14   43   0.406   0.202   0.020
    1UNL    H15   44   0.379  -0.065  -0.129
    1UNL    H16   45   0.603  -0.154  -0.179
    1UNL    H17   46   0.822  -0.227  -0.081
    1UNL    H18   47   1.009  -0.144   0.077
    1UNL    H19   48   0.899   0.070   0.223
    1UNL    H20   49   0.585   0.169   0.112
    1UNL    H21   50  -0.187   0.188  -0.237
    1UNL    H22   51  -0.211   0.015  -0.241
    1UNL    H23   52  -0.405   0.104  -0.129
    1UNL    H24   53  -0.227   0.239   0.042
    1UNL    H25   54  -0.273  -0.222  -0.037
    1UNL    H26   55  -0.556  -0.068  -0.294
    1UNL    H27   56  -0.595  -0.180  -0.176
    1UNL    H28   57  -0.572   0.003  -0.150
   0.00000   0.00000   0.00000   0.00000   0.00000   0.00000   0.00000   0.00000   0.00000
Generated with MDTraj, t= 32.0
 57
    1UNL     C1    1  -0.636  -0.041   0.335
    1UNL     O1    2  -0.566  -0.139   0.260
    1UNL     C2    3  -0.524  -0.091   0.134
    1UNL     C3    4  -0.414   0.012   0.148
    1UNL     C4    5  -0.317  -0.011   0.030
    1UNL     C5    6  -0.172  -0.034   0.090
    1UNL     C6    7  -0.074  -0.054  -0.027
    1UNL     C7    8  -0.067   0.071  -0.115
    1UNL     C8    9   0.046   0.058  -0.219
    1UNL     O2   10   0.176   0.032  -0.174
    1UNL     C9   11   0.229   0.136  -0.098
    1UNL     O3   12   0.166   0.234  -0.074
    1UNL    C10   13   0.363   0.119  -0.032
    1UNL    C11   14   0.449   0.022  -0.073
    1UNL    C12   15   0.580  -0.002  -0.024
    1UNL    C13   16   0.641  -0.117  -0.064
    1UNL    C14   17   0.775  -0.140  -0.035
    1UNL    C15   18   0.840  -0.058   0.058
    1UNL     O4   19   0.976  -0.061   0.077
    1UNL    C16   20   0.763   0.050   0.124
    1UNL     O5   21   0.849   0.124   0.212
    1UNL    C17   22   0.636   0.080   0.078
    1UNL    C18   23  -0.205   0.101  -0.173
    1UNL    C19   24  -0.310   0.111  -0.060
    1UNL     O6   25  -0.289   0.227   0.020
    1UNL    C20   26  -0.378  -0.143  -0.042
    1UNL     O7   27  -0.425  -0.124  -0.179
    1UNL    C21   28  -0.558  -0.102  -0.195
    1UNL     O8   29  -0.477  -0.196   0.050
    1UNL     H1   30  -0.577   0.055   0.337
    1UNL     H2   31  -0.727  -0.003   0.284
    1UNL     H3   32  -0.642  -0.081   0.438
    1UNL     H4   33  -0.614  -0.047   0.087
    1UNL     H5   34  -0.459   0.117   0.154
    1UNL     H6   35  -0.366  -0.003   0.252
    1UNL     H7   36  -0.179  -0.118   0.161
    1UNL     H8   37  -0.133   0.046   0.146
    1UNL     H9   38   0.026  -0.070   0.006
    1UNL    H10   39  -0.094  -0.138  -0.093
    1UNL    H11   40  -0.039   0.149  -0.046
    1UNL    H12   41   0.056   0.145  -0.281
    1UNL    H13   42   0.021  -0.030  -0.284
    1UNL    H14   43   0.389   0.176   0.054
    1UNL    H15   44   0.404  -0.039  -0.148
    1UNL    H16   45   0.585  -0.191  -0.125
    1UNL    H17   46   0.823  -0.228  -0.067
    1UNL    H18   47   1.015  -0.130   0.017
    1UNL    H19   48   0.944   0.098   0.186
    1UNL    H20   49   0.584   0.167   0.114
    1UNL    H21   50  -0.191   0.195  -0.235
    1UNL    H22   51  -0.229   0.024  -0.242
    1UNL    H23   52  -0.413   0.119  -0.107
    1UNL    H24   53  -0.199   0.248   0.053
    1UNL    H25   54  -0.299  -0.235  -0.055
    1UNL    H26   55  -0.576  -0.114  -0.300
    1UNL    H27   56  -0.629  -0.176  -0.153
    1UNL    H28   57  -0.589   0.001  -0.173
   0.00000   0.00000   0.00000   0.00000   0.00000   0.00000   0.00000   0.00000   0.00000
Generated with MDTraj, t= 33.0
 57
    1UNL     C1    1  -0.663  -0.038   0.323
    1UNL     O1    2  -0.575  -0.132   0.263
    1UNL     C2    3  -0.515  -0.083   0.141
    1UNL     C3    4  -0.387   0.009   0.160
    1UNL     C4    5  -0.304  -0.015   0.035
    1UNL     C5    6  -0.164  -0.055   0.079
    1UNL     C6    7  -0.064  -0.073  -0.034
    1UNL     C7    8  -0.050   0.059  -0.113
    1UNL     C8    9   0.064   0.060  -0.217
    1UNL     O2   10   0.183   0.027  -0.157
    1UNL     C9   11   0.238   0.138  -0.085
    1UNL     O3   12   0.179   0.239  -0.058
    1UNL    C10   13   0.371   0.112  -0.038
    1UNL    C11   14   0.430  -0.003  -0.044
    1UNL    C12   15   0.565  -0.016  -0.009
    1UNL    C13   16   0.644  -0.110  -0.084
    1UNL    C14   17   0.776  -0.128  -0.050
    1UNL    C15   18   0.836  -0.046   0.045
    1UNL     O4   19   0.968  -0.064   0.086
    1UNL    C16   20   0.765   0.062   0.107
    1UNL     O5   21   0.827   0.145   0.196
    1UNL    C17   22   0.632   0.075   0.076
    1UNL    C18   23  -0.192   0.095  -0.173
    1UNL    C19   24  -0.300   0.106  -0.057
    1UNL     O6   25  -0.291   0.231   0.012
    1UNL    C20   26  -0.384  -0.132  -0.041
    1UNL     O7   27  -0.443  -0.091  -0.172
    1UNL    C21   28  -0.576  -0.122  -0.204
    1UNL     O8   29  -0.480  -0.188   0.044
    1UNL     H1   30  -0.597   0.051   0.350
    1UNL     H2   31  -0.742   0.006   0.256
    1UNL     H3   32  -0.690  -0.082   0.420
    1UNL     H4   33  -0.602  -0.028   0.096
    1UNL     H5   34  -0.439   0.112   0.171
    1UNL     H6   35  -0.327  -0.016   0.254
    1UNL     H7   36  -0.171  -0.148   0.132
    1UNL     H8   37  -0.122   0.019   0.144
    1UNL     H9   38   0.030  -0.113  -0.008
    1UNL    H10   39  -0.102  -0.149  -0.103
    1UNL    H11   40  -0.022   0.132  -0.039
    1UNL    H12   41   0.069   0.160  -0.260
    1UNL    H13   42   0.061  -0.018  -0.299
    1UNL    H14   43   0.409   0.201   0.016
    1UNL    H15   44   0.376  -0.086  -0.087
    1UNL    H16   45   0.599  -0.174  -0.154
    1UNL    H17   46   0.839  -0.209  -0.101
    1UNL    H18   47   1.010  -0.140   0.038
    1UNL    H19   48   0.914   0.109   0.217
    1UNL    H20   49   0.573   0.150   0.114
    1UNL    H21   50  -0.191   0.193  -0.226
    1UNL    H22   51  -0.212   0.021  -0.251
    1UNL    H23   52  -0.398   0.101  -0.109
    1UNL    H24   53  -0.197   0.246   0.037
    1UNL    H25   54  -0.314  -0.221  -0.068
    1UNL    H26   55  -0.591  -0.138  -0.310
    1UNL    H27   56  -0.625  -0.207  -0.146
    1UNL    H28   57  -0.638  -0.046  -0.154
   0.00000   0.00000   0.00000   0.00000   0.00000   0.00000   0.00000   0.00000   0.00000
Generated with MDTraj, t= 34.0
 57
    1UNL     C1    1  -0.652  -0.019   0.324
    1UNL     O1    2  -0.583  -0.121   0.258
    1UNL     C2    3  -0.525  -0.082   0.133
    1UNL     C3    4  -0.403   0.020   0.151
    1UNL     C4    5  -0.312  -0.014   0.027
    1UNL     C5    6  -0.170  -0.074   0.076
    1UNL     C6    7  -0.067  -0.087  -0.041
    1UNL     C7    8  -0.058   0.050  -0.109
    1UNL     C8    9   0.046   0.054  -0.224
    1UNL     O2   10   0.176   0.030  -0.170
    1UNL     C9   11   0.216   0.125  -0.083
    1UNL     O3   12   0.155   0.223  -0.054
    1UNL    C10   13   0.350   0.106  -0.025
    1UNL    C11   14   0.438   0.019  -0.070
    1UNL    C12   15   0.581  -0.002  -0.022
    1UNL    C13   16   0.655  -0.113  -0.066
    1UNL    C14   17   0.782  -0.137  -0.031
    1UNL    C15   18   0.852  -0.043   0.050
    1UNL     O4   19   0.985  -0.056   0.076
    1UNL    C16   20   0.776   0.059   0.103
    1UNL     O5   21   0.832   0.141   0.200
    1UNL    C17   22   0.642   0.074   0.076
    1UNL    C18   23  -0.190   0.101  -0.154
    1UNL    C19   24  -0.292   0.121  -0.045
    1UNL     O6   25  -0.264   0.228   0.042
    1UNL    C20   26  -0.395  -0.119  -0.044
    1UNL     O7   27  -0.459  -0.079  -0.167
    1UNL    C21   28  -0.554  -0.163  -0.221
    1UNL     O8   29  -0.480  -0.180   0.045
    1UNL     H1   30  -0.586   0.074   0.309
    1UNL     H2   31  -0.752  -0.001   0.280
    1UNL     H3   32  -0.645  -0.037   0.430
    1UNL     H4   33  -0.606  -0.024   0.076
    1UNL     H5   34  -0.434   0.132   0.141
    1UNL     H6   35  -0.346   0.002   0.249
    1UNL     H7   36  -0.180  -0.168   0.118
    1UNL     H8   37  -0.120  -0.009   0.146
    1UNL     H9   38   0.028  -0.124  -0.011
    1UNL    H10   39  -0.098  -0.161  -0.115
    1UNL    H11   40  -0.020   0.117  -0.035
    1UNL    H12   41   0.055   0.157  -0.260
    1UNL    H13   42   0.019  -0.011  -0.314
    1UNL    H14   43   0.367   0.176   0.049
    1UNL    H15   44   0.399  -0.045  -0.151
    1UNL    H16   45   0.605  -0.191  -0.128
    1UNL    H17   46   0.832  -0.219  -0.063
    1UNL    H18   47   1.022  -0.123   0.015
    1UNL    H19   48   0.923   0.111   0.226
    1UNL    H20   49   0.586   0.159   0.128
    1UNL    H21   50  -0.174   0.194  -0.210
    1UNL    H22   51  -0.237   0.026  -0.225
    1UNL    H23   52  -0.385   0.141  -0.095
    1UNL    H24   53  -0.167   0.239   0.056
    1UNL    H25   54  -0.329  -0.205  -0.067
    1UNL    H26   55  -0.631  -0.109  -0.277
    1UNL    H27   56  -0.515  -0.242  -0.292
    1UNL    H28   57  -0.589  -0.230  -0.141
   0.00000   0.00000   0.00000   0.00000   0.00000   0.00000   0.00000   0.00000   0.00000
Generated with MDTraj, t= 35.0
 57
    1UNL     C1    1  -0.643  -0.026   0.351
    1UNL     O1    2  -0.598  -0.118   0.259
    1UNL     C2    3  -0.536  -0.068   0.138
    1UNL     C3    4  -0.405   0.018   0.154
    1UNL     C4    5  -0.311  -0.013   0.035
    1UNL     C5    6  -0.175  -0.074   0.075
    1UNL     C6    7  -0.077  -0.096  -0.047
    1UNL     C7    8  -0.066   0.048  -0.118
    1UNL     C8    9   0.049   0.052  -0.226
    1UNL     O2   10   0.173   0.014  -0.157
    1UNL     C9   11   0.210   0.115  -0.072
    1UNL     O3   12   0.138   0.207  -0.034
    1UNL    C10   13   0.358   0.109  -0.031
    1UNL    C11   14   0.443   0.016  -0.078
    1UNL    C12   15   0.580  -0.005  -0.032
    1UNL    C13   16   0.663  -0.105  -0.083
    1UNL    C14   17   0.793  -0.127  -0.038
    1UNL    C15   18   0.854  -0.048   0.058
    1UNL     O4   19   0.982  -0.065   0.101
    1UNL    C16   20   0.778   0.058   0.106
    1UNL     O5   21   0.831   0.158   0.187
    1UNL    C17   22   0.650   0.078   0.054
    1UNL    C18   23  -0.199   0.101  -0.164
    1UNL    C19   24  -0.292   0.124  -0.048
    1UNL     O6   25  -0.260   0.229   0.048
    1UNL    C20   26  -0.401  -0.116  -0.042
    1UNL     O7   27  -0.454  -0.067  -0.170
    1UNL    C21   28  -0.509  -0.166  -0.250
    1UNL     O8   29  -0.497  -0.168   0.048
    1UNL     H1   30  -0.556   0.015   0.413
    1UNL     H2   31  -0.703   0.046   0.293
    1UNL     H3   32  -0.699  -0.073   0.427
    1UNL     H4   33  -0.618  -0.012   0.078
    1UNL     H5   34  -0.431   0.132   0.148
    1UNL     H6   35  -0.354  -0.016   0.251
    1UNL     H7   36  -0.196  -0.170   0.100
    1UNL     H8   37  -0.122  -0.024   0.156
    1UNL     H9   38   0.021  -0.129  -0.021
    1UNL    H10   39  -0.106  -0.182  -0.108
    1UNL    H11   40  -0.044   0.117  -0.037
    1UNL    H12   41   0.064   0.147  -0.279
    1UNL    H13   42   0.025  -0.024  -0.307
    1UNL    H14   43   0.392   0.195   0.029
    1UNL    H15   44   0.407  -0.045  -0.155
    1UNL    H16   45   0.626  -0.157  -0.166
    1UNL    H17   46   0.860  -0.207  -0.080
    1UNL    H18   47   1.019  -0.148   0.068
    1UNL    H19   48   0.928   0.157   0.183
    1UNL    H20   49   0.603   0.162   0.091
    1UNL    H21   50  -0.193   0.196  -0.215
    1UNL    H22   51  -0.240   0.020  -0.237
    1UNL    H23   52  -0.387   0.154  -0.085
    1UNL    H24   53  -0.165   0.242   0.076
    1UNL    H25   54  -0.345  -0.199  -0.072
    1UNL    H26   55  -0.548  -0.140  -0.348
    1UNL    H27   56  -0.431  -0.243  -0.272
    1UNL    H28   57  -0.589  -0.215  -0.196
   0.00000   0.00000   0.00000   0.00000   0.00000   0.00000   0.00000   0.00000   0.00000
Generated with MDTraj, t= 36.0
 57
    1UNL     C1    1  -0.617  -0.028   0.362
    1UNL     O1    2  -0.604  -0.112   0.246
    1UNL     C2    3  -0.543  -0.055   0.129
    1UNL     C3    4  -0.406   0.010   0.158
    1UNL     C4    5  -0.317  -0.022   0.037
    1UNL     C5    6  -0.175  -0.077   0.086
    1UNL     C6    7  -0.068  -0.089  -0.026
    1UNL     C7    8  -0.051   0.045  -0.100
    1UNL     C8    9   0.055   0.034  -0.211
    1UNL     O2   10   0.180   0.014  -0.153
    1UNL     C9   11   0.221   0.111  -0.064
    1UNL     O3   12   0.146   0.205  -0.039
    1UNL    C10   13   0.357   0.101  -0.026
    1UNL    C11   14   0.443   0.011  -0.080
    1UNL    C12   15   0.580  -0.005  -0.047
    1UNL    C13   16   0.662  -0.112  -0.087
    1UNL    C14   17   0.794  -0.127  -0.041
    1UNL    C15   18   0.845  -0.042   0.053
    1UNL     O4   19   0.971  -0.060   0.103
    1UNL    C16   20   0.768   0.073   0.094
    1UNL     O5   21   0.819   0.158   0.183
    1UNL    C17   22   0.640   0.089   0.040
    1UNL    C18   23  -0.187   0.105  -0.147
    1UNL    C19   24  -0.300   0.115  -0.038
    1UNL     O6   25  -0.284   0.232   0.048
    1UNL    C20   26  -0.398  -0.127  -0.047
    1UNL     O7   27  -0.402  -0.093  -0.184
    1UNL    C21   28  -0.520  -0.148  -0.241
    1UNL     O8   29  -0.522  -0.144   0.015
    1UNL     H1   30  -0.524  -0.003   0.421
    1UNL     H2   31  -0.686   0.050   0.336
    1UNL     H3   32  -0.661  -0.088   0.434
    1UNL     H4   33  -0.624   0.015   0.086
    1UNL     H5   34  -0.411   0.125   0.173
    1UNL     H6   35  -0.372  -0.049   0.252
    1UNL     H7   36  -0.189  -0.168   0.132
    1UNL     H8   37  -0.131  -0.012   0.160
    1UNL     H9   38   0.024  -0.135   0.001
    1UNL    H10   39  -0.100  -0.159  -0.102
    1UNL    H11   40  -0.024   0.118  -0.023
    1UNL    H12   41   0.065   0.129  -0.265
    1UNL    H13   42   0.045  -0.047  -0.291
    1UNL    H14   43   0.391   0.186   0.029
    1UNL    H15   44   0.404  -0.055  -0.161
    1UNL    H16   45   0.626  -0.188  -0.158
    1UNL    H17   46   0.847  -0.214  -0.071
    1UNL    H18   47   1.006  -0.145   0.070
    1UNL    H19   48   0.897   0.115   0.222
    1UNL    H20   49   0.580   0.172   0.074
    1UNL    H21   50  -0.169   0.203  -0.188
    1UNL    H22   51  -0.231   0.041  -0.233
    1UNL    H23   52  -0.390   0.124  -0.093
    1UNL    H24   53  -0.189   0.234   0.076
    1UNL    H25   54  -0.353  -0.216  -0.040
    1UNL    H26   55  -0.537  -0.108  -0.341
    1UNL    H27   56  -0.517  -0.255  -0.269
    1UNL    H28   57  -0.612  -0.111  -0.199
   0.00000   0.00000   0.00000   0.00000   0.00000   0.00000   0.00000   0.00000   0.00000
Generated with MDTraj, t= 37.0
 57
    1UNL     C1    1  -0.640  -0.016   0.347
    1UNL     O1    2  -0.627  -0.107   0.234
    1UNL     C2    3  -0.550  -0.053   0.128
    1UNL     C3    4  -0.406  -0.015   0.176
    1UNL     C4    5  -0.316  -0.029   0.052
    1UNL     C5    6  -0.169  -0.087   0.083
    1UNL     C6    7  -0.077  -0.091  -0.040
    1UNL     C7    8  -0.067   0.046  -0.103
    1UNL     C8    9   0.044   0.054  -0.209
    1UNL     O2   10   0.168   0.023  -0.165
    1UNL     C9   11   0.228   0.119  -0.090
    1UNL     O3   12   0.167   0.224  -0.065
    1UNL    C10   13   0.361   0.105  -0.038
    1UNL    C11   14   0.447   0.010  -0.079
    1UNL    C12   15   0.586  -0.007  -0.026
    1UNL    C13   16   0.657  -0.111  -0.077
    1UNL    C14   17   0.786  -0.136  -0.030
    1UNL    C15   18   0.854  -0.041   0.046
    1UNL     O4   19   0.989  -0.052   0.090
    1UNL    C16   20   0.780   0.073   0.095
    1UNL     O5   21   0.846   0.154   0.189
    1UNL    C17   22   0.644   0.087   0.064
    1UNL    C18   23  -0.207   0.092  -0.149
    1UNL    C19   24  -0.305   0.110  -0.023
    1UNL     O6   25  -0.270   0.220   0.062
    1UNL    C20   26  -0.396  -0.137  -0.035
    1UNL     O7   27  -0.390  -0.110  -0.178
    1UNL    C21   28  -0.517  -0.136  -0.236
    1UNL     O8   29  -0.537  -0.136   0.010
    1UNL     H1   30  -0.549   0.010   0.408
    1UNL     H2   31  -0.700   0.065   0.312
    1UNL     H3   32  -0.700  -0.060   0.418
    1UNL     H4   33  -0.595   0.046   0.093
    1UNL     H5   34  -0.404   0.086   0.228
    1UNL     H6   35  -0.368  -0.092   0.254
    1UNL     H7   36  -0.177  -0.184   0.128
    1UNL     H8   37  -0.127  -0.024   0.157
    1UNL     H9   38   0.023  -0.124  -0.018
    1UNL    H10   39  -0.102  -0.172  -0.108
    1UNL    H11   40  -0.039   0.112  -0.019
    1UNL    H12   41   0.056   0.155  -0.248
    1UNL    H13   42   0.020  -0.015  -0.296
    1UNL    H14   43   0.399   0.175   0.032
    1UNL    H15   44   0.408  -0.045  -0.157
    1UNL    H16   45   0.604  -0.194  -0.121
    1UNL    H17   46   0.834  -0.228  -0.055
    1UNL    H18   47   1.038  -0.118   0.036
    1UNL    H19   48   0.943   0.126   0.188
    1UNL    H20   49   0.593   0.169   0.124
    1UNL    H21   50  -0.211   0.181  -0.213
    1UNL    H22   51  -0.248   0.014  -0.220
    1UNL    H23   52  -0.401   0.136  -0.063
    1UNL    H24   53  -0.176   0.241   0.053
    1UNL    H25   54  -0.371  -0.231  -0.016
    1UNL    H26   55  -0.504  -0.145  -0.343
    1UNL    H27   56  -0.564  -0.237  -0.222
    1UNL    H28   57  -0.582  -0.050  -0.238
   0.00000   0.00000   0.00000   0.00000   0.00000   0.00000   0.00000   0.00000   0.00000
Generated with MDTraj, t= 38.0
 57
    1UNL     C1    1  -0.702  -0.007   0.306
    1UNL     O1    2  -0.612  -0.101   0.245
    1UNL     C2    3  -0.532  -0.043   0.140
    1UNL     C3    4  -0.387  -0.030   0.186
    1UNL     C4    5  -0.309  -0.038   0.052
    1UNL     C5    6  -0.168  -0.104   0.072
    1UNL     C6    7  -0.077  -0.104  -0.054
    1UNL     C7    8  -0.060   0.045  -0.097
    1UNL     C8    9   0.048   0.059  -0.208
    1UNL     O2   10   0.173   0.019  -0.164
    1UNL     C9   11   0.234   0.125  -0.099
    1UNL     O3   12   0.178   0.237  -0.071
    1UNL    C10   13   0.379   0.123  -0.060
    1UNL    C11   14   0.440   0.007  -0.055
    1UNL    C12   15   0.573  -0.004  -0.011
    1UNL    C13   16   0.643  -0.114  -0.068
    1UNL    C14   17   0.780  -0.131  -0.046
    1UNL    C15   18   0.839  -0.046   0.048
    1UNL     O4   19   0.973  -0.051   0.074
    1UNL    C16   20   0.770   0.071   0.100
    1UNL     O5   21   0.850   0.159   0.172
    1UNL    C17   22   0.632   0.090   0.070
    1UNL    C18   23  -0.196   0.105  -0.135
    1UNL    C19   24  -0.291   0.106  -0.013
    1UNL     O6   25  -0.272   0.206   0.086
    1UNL    C20   26  -0.401  -0.140  -0.036
    1UNL     O7   27  -0.380  -0.123  -0.180
    1UNL    C21   28  -0.503  -0.149  -0.234
    1UNL     O8   29  -0.539  -0.117   0.018
    1UNL     H1   30  -0.667   0.004   0.413
    1UNL     H2   31  -0.692   0.090   0.257
    1UNL     H3   32  -0.800  -0.036   0.296
    1UNL     H4   33  -0.568   0.061   0.115
    1UNL     H5   34  -0.378   0.072   0.238
    1UNL     H6   35  -0.361  -0.102   0.271
    1UNL     H7   36  -0.191  -0.206   0.108
    1UNL     H8   37  -0.117  -0.057   0.147
    1UNL     H9   38   0.012  -0.162  -0.036
    1UNL    H10   39  -0.117  -0.166  -0.134
    1UNL    H11   40  -0.017   0.104  -0.013
    1UNL    H12   41   0.047   0.161  -0.243
    1UNL    H13   42   0.027  -0.013  -0.289
    1UNL    H14   43   0.420   0.211  -0.009
    1UNL    H15   44   0.392  -0.082  -0.104
    1UNL    H16   45   0.578  -0.188  -0.115
    1UNL    H17   46   0.837  -0.215  -0.095
    1UNL    H18   47   1.008  -0.139   0.047
    1UNL    H19   48   0.937   0.118   0.180
    1UNL    H20   49   0.589   0.176   0.102
    1UNL    H21   50  -0.181   0.210  -0.172
    1UNL    H22   51  -0.241   0.052  -0.220
    1UNL    H23   52  -0.391   0.141  -0.050
    1UNL    H24   53  -0.182   0.237   0.107
    1UNL    H25   54  -0.377  -0.233  -0.005
    1UNL    H26   55  -0.492  -0.113  -0.337
    1UNL    H27   56  -0.532  -0.256  -0.249
    1UNL    H28   57  -0.583  -0.083  -0.200
   0.00000   0.00000   0.00000   0.00000   0.00000   0.00000   0.00000   0.00000   0.00000
Generated with MDTraj, t= 39.0
 57
    1UNL     C1    1  -0.734  -0.020   0.266
    1UNL     O1    2  -0.612  -0.090   0.249
    1UNL     C2    3  -0.527  -0.037   0.145
    1UNL     C3    4  -0.378  -0.032   0.190
    1UNL     C4    5  -0.304  -0.040   0.061
    1UNL     C5    6  -0.165  -0.113   0.083
    1UNL     C6    7  -0.061  -0.101  -0.032
    1UNL     C7    8  -0.053   0.040  -0.093
    1UNL     C8    9   0.049   0.044  -0.209
    1UNL     O2   10   0.186   0.032  -0.172
    1UNL     C9   11   0.231   0.135  -0.101
    1UNL     O3   12   0.165   0.240  -0.078
    1UNL    C10   13   0.358   0.123  -0.038
    1UNL    C11   14   0.429   0.016  -0.068
    1UNL    C12   15   0.563  -0.007  -0.022
    1UNL    C13   16   0.627  -0.122  -0.059
    1UNL    C14   17   0.762  -0.143  -0.035
    1UNL    C15   18   0.832  -0.043   0.037
    1UNL     O4   19   0.966  -0.048   0.074
    1UNL    C16   20   0.766   0.071   0.089
    1UNL     O5   21   0.840   0.155   0.165
    1UNL    C17   22   0.636   0.092   0.046
    1UNL    C18   23  -0.194   0.100  -0.126
    1UNL    C19   24  -0.286   0.111  -0.001
    1UNL     O6   25  -0.244   0.192   0.106
    1UNL    C20   26  -0.398  -0.131  -0.032
    1UNL     O7   27  -0.378  -0.107  -0.175
    1UNL    C21   28  -0.474  -0.169  -0.247
    1UNL     O8   29  -0.533  -0.096   0.011
    1UNL     H1   30  -0.775  -0.070   0.361
    1UNL     H2   31  -0.702   0.080   0.303
    1UNL     H3   32  -0.787  -0.010   0.174
    1UNL     H4   33  -0.562   0.066   0.126
    1UNL     H5   34  -0.348   0.063   0.246
    1UNL     H6   35  -0.357  -0.112   0.267
    1UNL     H7   36  -0.176  -0.219   0.114
    1UNL     H8   37  -0.124  -0.055   0.157
    1UNL     H9   38   0.037  -0.139  -0.001
    1UNL    H10   39  -0.086  -0.177  -0.104
    1UNL    H11   40  -0.001   0.105  -0.021
    1UNL    H12   41   0.053   0.144  -0.251
    1UNL    H13   42   0.012  -0.028  -0.283
    1UNL    H14   43   0.380   0.194   0.036
    1UNL    H15   44   0.391  -0.059  -0.132
    1UNL    H16   45   0.585  -0.209  -0.108
    1UNL    H17   46   0.808  -0.231  -0.059
    1UNL    H18   47   1.015  -0.127   0.039
    1UNL    H19   48   0.934   0.124   0.170
    1UNL    H20   49   0.580   0.180   0.085
    1UNL    H21   50  -0.175   0.205  -0.166
    1UNL    H22   51  -0.241   0.050  -0.208
    1UNL    H23   52  -0.385   0.153  -0.038
    1UNL    H24   53  -0.147   0.210   0.096
    1UNL    H25   54  -0.375  -0.227  -0.003
    1UNL    H26   55  -0.449  -0.148  -0.351
    1UNL    H27   56  -0.479  -0.280  -0.221
    1UNL    H28   57  -0.577  -0.135  -0.231
   0.00000   0.00000   0.00000   0.00000   0.00000   0.00000   0.00000   0.00000   0.00000
Generated with MDTraj, t= 40.0
 57
    1UNL     C1    1  -0.747  -0.085   0.184
    1UNL     O1    2  -0.617  -0.069   0.246
    1UNL     C2    3  -0.525  -0.017   0.150
    1UNL     C3    4  -0.382  -0.021   0.206
    1UNL     C4    5  -0.292  -0.032   0.083
    1UNL     C5    6  -0.153  -0.104   0.088
    1UNL     C6    7  -0.090  -0.107  -0.052
    1UNL     C7    8  -0.062   0.044  -0.108
    1UNL     C8    9   0.033   0.041  -0.222
    1UNL     O2   10   0.171   0.030  -0.171
    1UNL     C9   11   0.214   0.134  -0.094
    1UNL     O3   12   0.137   0.226  -0.059
    1UNL    C10   13   0.351   0.128  -0.047
    1UNL    C11   14   0.428   0.022  -0.074
    1UNL    C12   15   0.573  -0.004  -0.034
    1UNL    C13   16   0.637  -0.121  -0.068
    1UNL    C14   17   0.772  -0.143  -0.033
    1UNL    C15   18   0.837  -0.049   0.042
    1UNL     O4   19   0.958  -0.067   0.101
    1UNL    C16   20   0.774   0.071   0.070
    1UNL     O5   21   0.847   0.160   0.144
    1UNL    C17   22   0.643   0.089   0.044
    1UNL    C18   23  -0.201   0.112  -0.122
    1UNL    C19   24  -0.276   0.114   0.018
    1UNL     O6   25  -0.209   0.190   0.115
    1UNL    C20   26  -0.387  -0.109  -0.017
    1UNL     O7   27  -0.365  -0.100  -0.161
    1UNL    C21   28  -0.457  -0.177  -0.222
    1UNL     O8   29  -0.525  -0.087   0.028
    1UNL     H1   30  -0.760  -0.198   0.187
    1UNL     H2   31  -0.824  -0.053   0.262
    1UNL     H3   32  -0.749  -0.037   0.088
    1UNL     H4   33  -0.546   0.084   0.122
    1UNL     H5   34  -0.347   0.067   0.267
    1UNL     H6   35  -0.366  -0.107   0.273
    1UNL     H7   36  -0.179  -0.206   0.117
    1UNL     H8   37  -0.080  -0.057   0.153
    1UNL     H9   38  -0.005  -0.177  -0.049
    1UNL    H10   39  -0.158  -0.160  -0.119
    1UNL    H11   40  -0.017   0.104  -0.028
    1UNL    H12   41   0.021   0.133  -0.280
    1UNL    H13   42   0.017  -0.042  -0.291
    1UNL    H14   43   0.390   0.219   0.001
    1UNL    H15   44   0.374  -0.058  -0.124
    1UNL    H16   45   0.586  -0.189  -0.133
    1UNL    H17   46   0.816  -0.247  -0.047
    1UNL    H18   47   0.996  -0.149   0.061
    1UNL    H19   48   0.934   0.126   0.179
    1UNL    H20   49   0.590   0.178   0.073
    1UNL    H21   50  -0.196   0.218  -0.168
    1UNL    H22   51  -0.253   0.058  -0.195
    1UNL    H23   52  -0.378   0.167   0.001
    1UNL    H24   53  -0.214   0.286   0.092
    1UNL    H25   54  -0.377  -0.212   0.010
    1UNL    H26   55  -0.459  -0.152  -0.329
    1UNL    H27   56  -0.439  -0.285  -0.191
    1UNL    H28   57  -0.556  -0.167  -0.178
   0.00000   0.00000   0.00000   0.00000   0.00000   0.00000   0.00000   0.00000   0.00000
Generated with MDTraj, t= 41.0
 57
    1UNL     C1    1  -0.713  -0.174   0.173
    1UNL     O1    2  -0.625  -0.078   0.230
    1UNL     C2    3  -0.534  -0.000   0.138
    1UNL     C3    4  -0.390   0.002   0.196
    1UNL     C4    5  -0.304  -0.021   0.076
    1UNL     C5    6  -0.168  -0.100   0.104
    1UNL     C6    7  -0.067  -0.094  -0.015
    1UNL     C7    8  -0.053   0.051  -0.082
    1UNL     C8    9   0.035   0.048  -0.204
    1UNL     O2   10   0.175   0.027  -0.173
    1UNL     C9   11   0.223   0.132  -0.093
    1UNL     O3   12   0.154   0.226  -0.059
    1UNL    C10   13   0.362   0.118  -0.058
    1UNL    C11   14   0.441   0.025  -0.107
    1UNL    C12   15   0.571  -0.008  -0.054
    1UNL    C13   16   0.633  -0.132  -0.067
    1UNL    C14   17   0.761  -0.154  -0.014
    1UNL    C15   18   0.831  -0.056   0.049
    1UNL     O4   19   0.962  -0.067   0.101
    1UNL    C16   20   0.766   0.065   0.073
    1UNL     O5   21   0.828   0.170   0.138
    1UNL    C17   22   0.646   0.085   0.014
    1UNL    C18   23  -0.193   0.110  -0.102
    1UNL    C19   24  -0.279   0.121   0.023
    1UNL     O6   25  -0.216   0.206   0.125
    1UNL    C20   26  -0.404  -0.102  -0.017
    1UNL     O7   27  -0.366  -0.110  -0.149
    1UNL    C21   28  -0.475  -0.173  -0.213
    1UNL     O8   29  -0.525  -0.041   0.003
    1UNL     H1   30  -0.650  -0.218   0.091
    1UNL     H2   31  -0.722  -0.261   0.247
    1UNL     H3   32  -0.799  -0.130   0.129
    1UNL     H4   33  -0.569   0.098   0.125
    1UNL     H5   34  -0.356   0.095   0.243
    1UNL     H6   35  -0.387  -0.081   0.269
    1UNL     H7   36  -0.191  -0.202   0.126
    1UNL     H8   37  -0.113  -0.059   0.195
    1UNL     H9   38   0.037  -0.126   0.009
    1UNL    H10   39  -0.101  -0.166  -0.088
    1UNL    H11   40  -0.019   0.119  -0.003
    1UNL    H12   41   0.033   0.134  -0.273
    1UNL    H13   42  -0.004  -0.034  -0.265
    1UNL    H14   43   0.402   0.179   0.020
    1UNL    H15   44   0.406  -0.039  -0.186
    1UNL    H16   45   0.582  -0.210  -0.123
    1UNL    H17   46   0.816  -0.236  -0.056
    1UNL    H18   47   0.994  -0.157   0.083
    1UNL    H19   48   0.916   0.140   0.158
    1UNL    H20   49   0.624   0.189   0.009
    1UNL    H21   50  -0.183   0.218  -0.141
    1UNL    H22   51  -0.241   0.053  -0.177
    1UNL    H23   52  -0.381   0.171   0.002
    1UNL    H24   53  -0.139   0.160   0.166
    1UNL    H25   54  -0.419  -0.204   0.024
    1UNL    H26   55  -0.455  -0.179  -0.319
    1UNL    H27   56  -0.498  -0.269  -0.159
    1UNL    H28   57  -0.570  -0.123  -0.197
   0.00000   0.00000   0.00000   0.00000   0.00000   0.00000   0.00000   0.00000   0.00000
Generated with MDTraj, t= 42.0
 57
    1UNL     C1    1  -0.687  -0.222   0.173
    1UNL     O1    2  -0.606  -0.136   0.231
    1UNL     C2    3  -0.561  -0.022   0.148
    1UNL     C3    4  -0.414   0.024   0.199
    1UNL     C4    5  -0.315  -0.000   0.082
    1UNL     C5    6  -0.180  -0.073   0.116
    1UNL     C6    7  -0.095  -0.089  -0.010
    1UNL     C7    8  -0.064   0.051  -0.073
    1UNL     C8    9   0.031   0.038  -0.187
    1UNL     O2   10   0.164   0.006  -0.146
    1UNL     C9   11   0.228   0.123  -0.102
    1UNL     O3   12   0.171   0.227  -0.092
    1UNL    C10   13   0.373   0.120  -0.078
    1UNL    C11   14   0.445   0.005  -0.078
    1UNL    C12   15   0.587  -0.012  -0.048
    1UNL    C13   16   0.646  -0.134  -0.069
    1UNL    C14   17   0.775  -0.156  -0.028
    1UNL    C15   18   0.846  -0.060   0.048
    1UNL     O4   19   0.957  -0.090   0.113
    1UNL    C16   20   0.785   0.070   0.062
    1UNL     O5   21   0.844   0.172   0.126
    1UNL    C17   22   0.652   0.093   0.013
    1UNL    C18   23  -0.193   0.122  -0.106
    1UNL    C19   24  -0.290   0.139   0.011
    1UNL     O6   25  -0.256   0.244   0.101
    1UNL    C20   26  -0.401  -0.088  -0.005
    1UNL     O7   27  -0.355  -0.084  -0.138
    1UNL    C21   28  -0.461  -0.129  -0.230
    1UNL     O8   29  -0.536  -0.062   0.012
    1UNL     H1   30  -0.650  -0.244   0.070
    1UNL     H2   31  -0.663  -0.318   0.227
    1UNL     H3   32  -0.784  -0.184   0.158
    1UNL     H4   33  -0.638   0.049   0.143
    1UNL     H5   34  -0.426   0.128   0.228
    1UNL     H6   35  -0.384  -0.041   0.281
    1UNL     H7   36  -0.196  -0.175   0.147
    1UNL     H8   37  -0.124  -0.022   0.205
    1UNL     H9   38  -0.002  -0.151   0.001
    1UNL    H10   39  -0.158  -0.141  -0.083
    1UNL    H11   40  -0.017   0.114   0.003
    1UNL    H12   41   0.033   0.137  -0.240
    1UNL    H13   42   0.003  -0.034  -0.263
    1UNL    H14   43   0.415   0.211  -0.048
    1UNL    H15   44   0.393  -0.081  -0.108
    1UNL    H16   45   0.596  -0.204  -0.131
    1UNL    H17   46   0.814  -0.252  -0.044
    1UNL    H18   47   0.985  -0.183   0.105
    1UNL    H19   48   0.935   0.136   0.150
    1UNL    H20   49   0.610   0.196   0.018
    1UNL    H21   50  -0.168   0.220  -0.154
    1UNL    H22   51  -0.253   0.062  -0.176
    1UNL    H23   52  -0.390   0.177  -0.029
    1UNL    H24   53  -0.222   0.317   0.047
    1UNL    H25   54  -0.393  -0.198   0.024
    1UNL    H26   55  -0.418  -0.147  -0.325
    1UNL    H27   56  -0.516  -0.215  -0.188
    1UNL    H28   57  -0.536  -0.055  -0.244
   0.00000   0.00000   0.00000   0.00000   0.00000   0.00000   0.00000   0.00000   0.00000
Generated with MDTraj, t= 43.0
 57
    1UNL     C1    1  -0.670  -0.258   0.189
    1UNL     O1    2  -0.562  -0.172   0.232
    1UNL     C2    3  -0.562  -0.059   0.147
    1UNL     C3    4  -0.442   0.030   0.183
    1UNL     C4    5  -0.331   0.018   0.072
    1UNL     C5    6  -0.195  -0.027   0.140
    1UNL     C6    7  -0.080  -0.042   0.040
    1UNL     C7    8  -0.061   0.078  -0.055
    1UNL     C8    9   0.036   0.036  -0.172
    1UNL     O2   10   0.160  -0.002  -0.135
    1UNL     C9   11   0.230   0.116  -0.116
    1UNL     O3   12   0.183   0.224  -0.131
    1UNL    C10   13   0.372   0.107  -0.063
    1UNL    C11   14   0.450   0.000  -0.084
    1UNL    C12   15   0.582  -0.016  -0.033
    1UNL    C13   16   0.637  -0.148  -0.044
    1UNL    C14   17   0.766  -0.166  -0.007
    1UNL    C15   18   0.849  -0.064   0.038
    1UNL     O4   19   0.988  -0.089   0.074
    1UNL    C16   20   0.788   0.065   0.068
    1UNL     O5   21   0.861   0.168   0.125
    1UNL    C17   22   0.655   0.085   0.032
    1UNL    C18   23  -0.192   0.132  -0.105
    1UNL    C19   24  -0.305   0.148  -0.000
    1UNL     O6   25  -0.277   0.260   0.087
    1UNL    C20   26  -0.403  -0.082  -0.025
    1UNL     O7   27  -0.374  -0.063  -0.167
    1UNL    C21   28  -0.491  -0.102  -0.244
    1UNL     O8   29  -0.542  -0.093   0.010
    1UNL     H1   30  -0.645  -0.311   0.096
    1UNL     H2   31  -0.677  -0.342   0.261
    1UNL     H3   32  -0.754  -0.204   0.166
    1UNL     H4   33  -0.657  -0.009   0.153
    1UNL     H5   34  -0.475   0.131   0.185
    1UNL     H6   35  -0.409  -0.002   0.280
    1UNL     H7   36  -0.211  -0.124   0.190
    1UNL     H8   37  -0.155   0.043   0.223
    1UNL     H9   38   0.020  -0.054   0.091
    1UNL    H10   39  -0.095  -0.130  -0.024
    1UNL    H11   40  -0.001   0.153  -0.006
    1UNL    H12   41   0.055   0.120  -0.246
    1UNL    H13   42  -0.005  -0.046  -0.230
    1UNL    H14   43   0.413   0.196  -0.008
    1UNL    H15   44   0.399  -0.092  -0.124
    1UNL    H16   45   0.572  -0.227  -0.084
    1UNL    H17   46   0.811  -0.271  -0.002
    1UNL    H18   47   1.014  -0.183   0.069
    1UNL    H19   48   0.940   0.126   0.166
    1UNL    H20   49   0.625   0.180   0.066
    1UNL    H21   50  -0.182   0.237  -0.137
    1UNL    H22   51  -0.230   0.063  -0.187
    1UNL    H23   52  -0.402   0.179  -0.044
    1UNL    H24   53  -0.191   0.297   0.062
    1UNL    H25   54  -0.361  -0.191  -0.013
    1UNL    H26   55  -0.497  -0.045  -0.334
    1UNL    H27   56  -0.483  -0.209  -0.271
    1UNL    H28   57  -0.579  -0.079  -0.188
   0.00000   0.00000   0.00000   0.00000   0.00000   0.00000   0.00000   0.00000   0.00000
Generated with MDTraj, t= 44.0
 57
    1UNL     C1    1  -0.584  -0.296   0.212
    1UNL     O1    2  -0.537  -0.159   0.240
    1UNL     C2    3  -0.555  -0.066   0.138
    1UNL     C3    4  -0.462   0.054   0.153
    1UNL     C4    5  -0.342   0.033   0.058
    1UNL     C5    6  -0.221  -0.019   0.131
    1UNL     C6    7  -0.107  -0.050   0.032
    1UNL     C7    8  -0.067   0.081  -0.049
    1UNL     C8    9   0.041   0.052  -0.154
    1UNL     O2   10   0.160   0.019  -0.104
    1UNL     C9   11   0.243   0.131  -0.104
    1UNL     O3   12   0.203   0.243  -0.125
    1UNL    C10   13   0.383   0.107  -0.069
    1UNL    C11   14   0.430  -0.016  -0.034
    1UNL    C12   15   0.568  -0.042   0.001
    1UNL    C13   16   0.631  -0.163  -0.033
    1UNL    C14   17   0.770  -0.178  -0.015
    1UNL    C15   18   0.848  -0.069   0.037
    1UNL     O4   19   0.982  -0.077   0.059
    1UNL    C16   20   0.780   0.056   0.056
    1UNL     O5   21   0.862   0.157   0.100
    1UNL    C17   22   0.647   0.071   0.040
    1UNL    C18   23  -0.193   0.138  -0.109
    1UNL    C19   24  -0.307   0.160  -0.013
    1UNL     O6   25  -0.285   0.265   0.082
    1UNL    C20   26  -0.402  -0.084  -0.035
    1UNL     O7   27  -0.403  -0.044  -0.175
    1UNL    C21   28  -0.494  -0.106  -0.261
    1UNL     O8   29  -0.532  -0.123   0.010
    1UNL     H1   30  -0.591  -0.321   0.106
    1UNL     H2   31  -0.518  -0.373   0.256
    1UNL     H3   32  -0.679  -0.314   0.248
    1UNL     H4   33  -0.658  -0.029   0.141
    1UNL     H5   34  -0.508   0.148   0.133
    1UNL     H6   35  -0.426   0.056   0.251
    1UNL     H7   36  -0.251  -0.113   0.187
    1UNL     H8   37  -0.186   0.050   0.214
    1UNL     H9   38  -0.016  -0.090   0.086
    1UNL    H10   39  -0.132  -0.127  -0.043
    1UNL    H11   40  -0.029   0.149   0.025
    1UNL    H12   41   0.056   0.152  -0.207
    1UNL    H13   42   0.011  -0.019  -0.231
    1UNL    H14   43   0.440   0.193  -0.057
    1UNL    H15   44   0.362  -0.094  -0.029
    1UNL    H16   45   0.568  -0.239  -0.072
    1UNL    H17   46   0.817  -0.266  -0.039
    1UNL    H18   47   0.999  -0.171   0.083
    1UNL    H19   48   0.955   0.141   0.079
    1UNL    H20   49   0.601   0.168   0.035
    1UNL    H21   50  -0.171   0.240  -0.145
    1UNL    H22   51  -0.240   0.072  -0.193
    1UNL    H23   52  -0.401   0.178  -0.062
    1UNL    H24   53  -0.201   0.250   0.129
    1UNL    H25   54  -0.331  -0.182  -0.037
    1UNL    H26   55  -0.452  -0.107  -0.361
    1UNL    H27   56  -0.497  -0.216  -0.235
    1UNL    H28   57  -0.585  -0.047  -0.260
   0.00000   0.00000   0.00000   0.00000   0.00000   0.00000   0.00000   0.00000   0.00000
Generated with MDTraj, t= 45.0
 57
    1UNL     C1    1  -0.520  -0.297   0.214
    1UNL     O1    2  -0.463  -0.177   0.227
    1UNL     C2    3  -0.537  -0.079   0.153
    1UNL     C3    4  -0.460   0.055   0.151
    1UNL     C4    5  -0.351   0.035   0.044
    1UNL     C5    6  -0.226  -0.011   0.117
    1UNL     C6    7  -0.114  -0.037   0.023
    1UNL     C7    8  -0.083   0.094  -0.054
    1UNL     C8    9   0.032   0.052  -0.149
    1UNL     O2   10   0.154   0.024  -0.093
    1UNL     C9   11   0.233   0.133  -0.076
    1UNL     O3   12   0.193   0.243  -0.106
    1UNL    C10   13   0.368   0.113  -0.030
    1UNL    C11   14   0.431  -0.004  -0.016
    1UNL    C12   15   0.572  -0.032  -0.001
    1UNL    C13   16   0.626  -0.162  -0.003
    1UNL    C14   17   0.758  -0.188   0.005
    1UNL    C15   18   0.847  -0.082   0.024
    1UNL     O4   19   0.988  -0.086   0.039
    1UNL    C16   20   0.796   0.045   0.055
    1UNL     O5   21   0.891   0.140   0.092
    1UNL    C17   22   0.668   0.066   0.040
    1UNL    C18   23  -0.208   0.146  -0.127
    1UNL    C19   24  -0.323   0.168  -0.033
    1UNL     O6   25  -0.298   0.271   0.065
    1UNL    C20   26  -0.425  -0.074  -0.046
    1UNL     O7   27  -0.441  -0.037  -0.185
    1UNL    C21   28  -0.501  -0.130  -0.263
    1UNL     O8   29  -0.552  -0.113   0.011
    1UNL     H1   30  -0.501  -0.334   0.112
    1UNL     H2   31  -0.493  -0.369   0.297
    1UNL     H3   32  -0.622  -0.294   0.236
    1UNL     H4   33  -0.638  -0.069   0.198
    1UNL     H5   34  -0.522   0.134   0.121
    1UNL     H6   35  -0.419   0.082   0.242
    1UNL     H7   36  -0.252  -0.090   0.200
    1UNL     H8   37  -0.195   0.078   0.178
    1UNL     H9   38  -0.018  -0.073   0.071
    1UNL    H10   39  -0.140  -0.116  -0.051
    1UNL    H11   40  -0.053   0.165   0.019
    1UNL    H12   41   0.046   0.148  -0.209
    1UNL    H13   42   0.013  -0.026  -0.220
    1UNL    H14   43   0.424   0.203  -0.013
    1UNL    H15   44   0.367  -0.095  -0.028
    1UNL    H16   45   0.560  -0.248  -0.002
    1UNL    H17   46   0.801  -0.289  -0.013
    1UNL    H18   47   1.022  -0.173   0.073
    1UNL    H19   48   0.982   0.098   0.098
    1UNL    H20   49   0.619   0.164   0.053
    1UNL    H21   50  -0.188   0.246  -0.166
    1UNL    H22   51  -0.233   0.073  -0.214
    1UNL    H23   52  -0.409   0.198  -0.088
    1UNL    H24   53  -0.346   0.356   0.045
    1UNL    H25   54  -0.354  -0.173  -0.046
    1UNL    H26   55  -0.526  -0.088  -0.362
    1UNL    H27   56  -0.417  -0.204  -0.284
    1UNL    H28   57  -0.595  -0.156  -0.212
   0.00000   0.00000   0.00000   0.00000   0.00000   0.00000   0.00000   0.00000   0.00000
Generated with MDTraj, t= 46.0
 57
    1UNL     C1    1  -0.459  -0.300   0.221
    1UNL     O1    2  -0.487  -0.171   0.251
    1UNL     C2    3  -0.536  -0.087   0.147
    1UNL     C3    4  -0.473   0.052   0.149
    1UNL     C4    5  -0.354   0.036   0.045
    1UNL     C5    6  -0.218  -0.007   0.113
    1UNL     C6    7  -0.104  -0.038   0.010
    1UNL     C7    8  -0.074   0.096  -0.071
    1UNL     C8    9   0.041   0.078  -0.173
    1UNL     O2   10   0.161   0.041  -0.113
    1UNL     C9   11   0.229   0.144  -0.056
    1UNL     O3   12   0.177   0.253  -0.041
    1UNL    C10   13   0.366   0.122  -0.006
    1UNL    C11   14   0.428   0.006  -0.026
    1UNL    C12   15   0.565  -0.025   0.012
    1UNL    C13   16   0.612  -0.161  -0.004
    1UNL    C14   17   0.741  -0.192   0.018
    1UNL    C15   18   0.844  -0.093   0.033
    1UNL     O4   19   0.972  -0.115   0.047
    1UNL    C16   20   0.795   0.040   0.041
    1UNL     O5   21   0.892   0.133   0.066
    1UNL    C17   22   0.662   0.072   0.045
    1UNL    C18   23  -0.201   0.141  -0.145
    1UNL    C19   24  -0.322   0.156  -0.045
    1UNL     O6   25  -0.299   0.284   0.021
    1UNL    C20   26  -0.417  -0.075  -0.053
    1UNL     O7   27  -0.458  -0.025  -0.176
    1UNL    C21   28  -0.526  -0.124  -0.249
    1UNL     O8   29  -0.517  -0.148   0.020
    1UNL     H1   30  -0.431  -0.306   0.114
    1UNL     H2   31  -0.390  -0.356   0.295
    1UNL     H3   32  -0.544  -0.361   0.244
    1UNL     H4   33  -0.648  -0.080   0.163
    1UNL     H5   34  -0.536   0.129   0.124
    1UNL     H6   35  -0.446   0.067   0.249
    1UNL     H7   36  -0.239  -0.100   0.183
    1UNL     H8   37  -0.190   0.078   0.179
    1UNL     H9   38  -0.012  -0.073   0.067
    1UNL    H10   39  -0.129  -0.125  -0.057
    1UNL    H11   40  -0.036   0.169  -0.005
    1UNL    H12   41   0.069   0.172  -0.227
    1UNL    H13   42   0.015   0.009  -0.249
    1UNL    H14   43   0.418   0.198   0.055
    1UNL    H15   44   0.379  -0.060  -0.091
    1UNL    H16   45   0.542  -0.222  -0.061
    1UNL    H17   46   0.776  -0.295   0.034
    1UNL    H18   47   0.985  -0.208   0.080
    1UNL    H19   48   0.980   0.086   0.065
    1UNL    H20   49   0.625   0.170   0.064
    1UNL    H21   50  -0.177   0.233  -0.204
    1UNL    H22   51  -0.224   0.059  -0.220
    1UNL    H23   52  -0.405   0.173  -0.110
    1UNL    H24   53  -0.214   0.283   0.072
    1UNL    H25   54  -0.331  -0.160  -0.064
    1UNL    H26   55  -0.589  -0.083  -0.328
    1UNL    H27   56  -0.450  -0.193  -0.296
    1UNL    H28   57  -0.595  -0.164  -0.174
   0.00000   0.00000   0.00000   0.00000   0.00000   0.00000   0.00000   0.00000   0.00000
Generated with MDTraj, t= 47.0
 57
    1UNL     C1    1  -0.446  -0.281   0.256
    1UNL     O1    2  -0.456  -0.145   0.256
    1UNL     C2    3  -0.509  -0.088   0.138
    1UNL     C3    4  -0.452   0.050   0.122
    1UNL     C4    5  -0.335   0.019   0.023
    1UNL     C5    6  -0.204  -0.022   0.095
    1UNL     C6    7  -0.080  -0.022  -0.003
    1UNL     C7    8  -0.062   0.116  -0.079
    1UNL     C8    9   0.060   0.108  -0.179
    1UNL     O2   10   0.168   0.048  -0.116
    1UNL     C9   11   0.217   0.142  -0.026
    1UNL     O3   12   0.154   0.239   0.015
    1UNL    C10   13   0.357   0.126   0.007
    1UNL    C11   14   0.410   0.004  -0.027
    1UNL    C12   15   0.549  -0.020  -0.015
    1UNL    C13   16   0.585  -0.155   0.002
    1UNL    C14   17   0.712  -0.192   0.017
    1UNL    C15   18   0.815  -0.097   0.038
    1UNL     O4   19   0.944  -0.137   0.073
    1UNL    C16   20   0.778   0.037   0.036
    1UNL     O5   21   0.878   0.135   0.061
    1UNL    C17   22   0.652   0.077  -0.002
    1UNL    C18   23  -0.189   0.160  -0.152
    1UNL    C19   24  -0.312   0.154  -0.055
    1UNL     O6   25  -0.308   0.268   0.039
    1UNL    C20   26  -0.393  -0.096  -0.073
    1UNL     O7   27  -0.448  -0.044  -0.184
    1UNL    C21   28  -0.568  -0.121  -0.224
    1UNL     O8   29  -0.480  -0.173   0.012
    1UNL     H1   30  -0.342  -0.311   0.234
    1UNL     H2   31  -0.483  -0.328   0.354
    1UNL     H3   32  -0.504  -0.331   0.181
    1UNL     H4   33  -0.622  -0.075   0.150
    1UNL     H5   34  -0.523   0.118   0.092
    1UNL     H6   35  -0.409   0.089   0.208
    1UNL     H7   36  -0.222  -0.129   0.138
    1UNL     H8   37  -0.186   0.051   0.177
    1UNL     H9   38   0.017  -0.048   0.051
    1UNL    H10   39  -0.096  -0.106  -0.074
    1UNL    H11   40  -0.036   0.193  -0.011
    1UNL    H12   41   0.087   0.207  -0.220
    1UNL    H13   42   0.041   0.046  -0.261
    1UNL    H14   43   0.418   0.206   0.026
    1UNL    H15   44   0.342  -0.076  -0.059
    1UNL    H16   45   0.509  -0.231  -0.004
    1UNL    H17   46   0.748  -0.292   0.018
    1UNL    H18   47   0.944  -0.228   0.111
    1UNL    H19   48   0.957   0.082   0.075
    1UNL    H20   49   0.637   0.181   0.008
    1UNL    H21   50  -0.172   0.262  -0.194
    1UNL    H22   51  -0.201   0.093  -0.239
    1UNL    H23   52  -0.396   0.175  -0.121
    1UNL    H24   53  -0.217   0.303   0.050
    1UNL    H25   54  -0.303  -0.167  -0.103
    1UNL    H26   55  -0.598  -0.109  -0.328
    1UNL    H27   56  -0.555  -0.228  -0.204
    1UNL    H28   57  -0.643  -0.075  -0.164
   0.00000   0.00000   0.00000   0.00000   0.00000   0.00000   0.00000   0.00000   0.00000
Generated with MDTraj, t= 48.0
 57
    1UNL     C1    1  -0.467  -0.307   0.257
    1UNL     O1    2  -0.438  -0.171   0.263
    1UNL     C2    3  -0.485  -0.105   0.145
    1UNL     C3    4  -0.441   0.041   0.129
    1UNL     C4    5  -0.334   0.036   0.013
    1UNL     C5    6  -0.187   0.003   0.076
    1UNL     C6    7  -0.072   0.003  -0.027
    1UNL     C7    8  -0.079   0.128  -0.104
    1UNL     C8    9   0.047   0.140  -0.194
    1UNL     O2   10   0.172   0.094  -0.145
    1UNL     C9   11   0.214   0.155  -0.029
    1UNL     O3   12   0.150   0.236   0.032
    1UNL    C10   13   0.338   0.107   0.024
    1UNL    C11   14   0.417   0.012  -0.038
    1UNL    C12   15   0.552  -0.029   0.003
    1UNL    C13   16   0.588  -0.163   0.003
    1UNL    C14   17   0.717  -0.203   0.031
    1UNL    C15   18   0.812  -0.111   0.058
    1UNL     O4   19   0.941  -0.152   0.083
    1UNL    C16   20   0.785   0.035   0.038
    1UNL     O5   21   0.886   0.128   0.052
    1UNL    C17   22   0.649   0.069   0.024
    1UNL    C18   23  -0.213   0.152  -0.176
    1UNL    C19   24  -0.327   0.167  -0.074
    1UNL     O6   25  -0.319   0.282   0.008
    1UNL    C20   26  -0.381  -0.096  -0.069
    1UNL     O7   27  -0.456  -0.050  -0.170
    1UNL    C21   28  -0.584  -0.121  -0.181
    1UNL     O8   29  -0.443  -0.183   0.025
    1UNL     H1   30  -0.392  -0.369   0.202
    1UNL     H2   31  -0.458  -0.355   0.361
    1UNL     H3   32  -0.555  -0.332   0.200
    1UNL     H4   33  -0.599  -0.103   0.154
    1UNL     H5   34  -0.525   0.100   0.111
    1UNL     H6   35  -0.399   0.074   0.218
    1UNL     H7   36  -0.192  -0.096   0.132
    1UNL     H8   37  -0.164   0.081   0.157
    1UNL     H9   38   0.032  -0.011   0.018
    1UNL    H10   39  -0.087  -0.082  -0.096
    1UNL    H11   40  -0.077   0.212  -0.040
    1UNL    H12   41   0.061   0.241  -0.237
    1UNL    H13   42   0.027   0.077  -0.274
    1UNL    H14   43   0.378   0.161   0.113
    1UNL    H15   44   0.375  -0.029  -0.129
    1UNL    H16   45   0.509  -0.233  -0.014
    1UNL    H17   46   0.735  -0.309   0.019
    1UNL    H18   47   0.936  -0.248   0.100
    1UNL    H19   48   0.974   0.080   0.050
    1UNL    H20   49   0.613   0.171   0.003
    1UNL    H21   50  -0.212   0.235  -0.254
    1UNL    H22   51  -0.232   0.061  -0.230
    1UNL    H23   52  -0.425   0.178  -0.128
    1UNL    H24   53  -0.229   0.302   0.042
    1UNL    H25   54  -0.284  -0.141  -0.101
    1UNL    H26   55  -0.650  -0.086  -0.259
    1UNL    H27   56  -0.567  -0.228  -0.192
    1UNL    H28   57  -0.630  -0.102  -0.088
   0.00000   0.00000   0.00000   0.00000   0.00000   0.00000   0.00000   0.00000   0.00000
Generated with MDTraj, t= 49.0
 57
    1UNL     C1    1  -0.462  -0.312   0.265
    1UNL     O1    2  -0.435  -0.176   0.276
    1UNL     C2    3  -0.470  -0.107   0.148
    1UNL     C3    4  -0.417   0.034   0.132
    1UNL     C4    5  -0.321   0.025   0.013
    1UNL     C5    6  -0.174  -0.007   0.059
    1UNL     C6    7  -0.069   0.011  -0.046
    1UNL     C7    8  -0.069   0.152  -0.107
    1UNL     C8    9   0.042   0.154  -0.216
    1UNL     O2   10   0.172   0.109  -0.169
    1UNL     C9   11   0.222   0.167  -0.051
    1UNL     O3   12   0.163   0.238   0.027
    1UNL    C10   13   0.363   0.135  -0.017
    1UNL    C11   14   0.410   0.010  -0.031
    1UNL    C12   15   0.541  -0.036   0.006
    1UNL    C13   16   0.576  -0.170   0.009
    1UNL    C14   17   0.708  -0.216   0.045
    1UNL    C15   18   0.804  -0.116   0.057
    1UNL     O4   19   0.936  -0.153   0.075
    1UNL    C16   20   0.775   0.024   0.058
    1UNL     O5   21   0.871   0.123   0.084
    1UNL    C17   22   0.644   0.058   0.034
    1UNL    C18   23  -0.212   0.177  -0.172
    1UNL    C19   24  -0.330   0.161  -0.070
    1UNL     O6   25  -0.359   0.277   0.015
    1UNL    C20   26  -0.374  -0.095  -0.068
    1UNL     O7   27  -0.469  -0.055  -0.171
    1UNL    C21   28  -0.587  -0.130  -0.165
    1UNL     O8   29  -0.424  -0.182   0.032
    1UNL     H1   30  -0.496  -0.347   0.166
    1UNL     H2   31  -0.374  -0.380   0.291
    1UNL     H3   32  -0.555  -0.335   0.312
    1UNL     H4   33  -0.581  -0.090   0.144
    1UNL     H5   34  -0.497   0.096   0.109
    1UNL     H6   35  -0.370   0.072   0.217
    1UNL     H7   36  -0.174  -0.113   0.092
    1UNL     H8   37  -0.154   0.048   0.158
    1UNL     H9   38   0.034  -0.012  -0.003
    1UNL    H10   39  -0.083  -0.068  -0.121
    1UNL    H11   40  -0.060   0.229  -0.036
    1UNL    H12   41   0.047   0.259  -0.250
    1UNL    H13   42   0.014   0.097  -0.297
    1UNL    H14   43   0.433   0.198   0.034
    1UNL    H15   44   0.341  -0.061  -0.075
    1UNL    H16   45   0.504  -0.249   0.009
    1UNL    H17   46   0.737  -0.320   0.040
    1UNL    H18   47   0.944  -0.245   0.044
    1UNL    H19   48   0.948   0.073   0.115
    1UNL    H20   49   0.627   0.159   0.050
    1UNL    H21   50  -0.213   0.284  -0.213
    1UNL    H22   51  -0.230   0.113  -0.255
    1UNL    H23   52  -0.428   0.150  -0.129
    1UNL    H24   53  -0.281   0.289   0.071
    1UNL    H25   54  -0.311  -0.156  -0.129
    1UNL    H26   55  -0.652  -0.116  -0.252
    1UNL    H27   56  -0.555  -0.235  -0.156
    1UNL    H28   57  -0.634  -0.105  -0.073
   0.00000   0.00000   0.00000   0.00000   0.00000   0.00000   0.00000   0.00000   0.00000
Generated with MDTraj, t= 50.0
 57
    1UNL     C1    1  -0.452  -0.302   0.287
    1UNL     O1    2  -0.406  -0.179   0.273
    1UNL     C2    3  -0.463  -0.116   0.160
    1UNL     C3    4  -0.416   0.027   0.130
    1UNL     C4    5  -0.321   0.018   0.011
    1UNL     C5    6  -0.172  -0.027   0.051
    1UNL     C6    7  -0.062   0.010  -0.050
    1UNL     C7    8  -0.066   0.151  -0.107
    1UNL     C8    9   0.045   0.166  -0.214
    1UNL     O2   10   0.163   0.110  -0.161
    1UNL     C9   11   0.225   0.186  -0.066
    1UNL     O3   12   0.179   0.297  -0.037
    1UNL    C10   13   0.344   0.137  -0.009
    1UNL    C11   14   0.390   0.017  -0.039
    1UNL    C12   15   0.534  -0.026  -0.003
    1UNL    C13   16   0.565  -0.163  -0.006
    1UNL    C14   17   0.693  -0.210   0.015
    1UNL    C15   18   0.791  -0.128   0.070
    1UNL     O4   19   0.922  -0.152   0.101
    1UNL    C16   20   0.759   0.009   0.071
    1UNL     O5   21   0.854   0.100   0.105
    1UNL    C17   22   0.635   0.060   0.033
    1UNL    C18   23  -0.209   0.175  -0.163
    1UNL    C19   24  -0.314   0.156  -0.056
    1UNL     O6   25  -0.310   0.259   0.039
    1UNL    C20   26  -0.381  -0.099  -0.066
    1UNL     O7   27  -0.476  -0.055  -0.169
    1UNL    C21   28  -0.575  -0.144  -0.190
    1UNL     O8   29  -0.441  -0.182   0.035
    1UNL     H1   30  -0.429  -0.374   0.209
    1UNL     H2   31  -0.411  -0.347   0.382
    1UNL     H3   32  -0.556  -0.293   0.290
    1UNL     H4   33  -0.570  -0.112   0.186
    1UNL     H5   34  -0.494   0.089   0.098
    1UNL     H6   35  -0.370   0.058   0.220
    1UNL     H7   36  -0.178  -0.135   0.072
    1UNL     H8   37  -0.147   0.008   0.160
    1UNL     H9   38   0.032  -0.006   0.011
    1UNL    H10   39  -0.053  -0.063  -0.132
    1UNL    H11   40  -0.044   0.220  -0.032
    1UNL    H12   41   0.072   0.272  -0.242
    1UNL    H13   42   0.019   0.112  -0.299
    1UNL    H14   43   0.388   0.211   0.050
    1UNL    H15   44   0.334  -0.048  -0.105
    1UNL    H16   45   0.488  -0.229  -0.049
    1UNL    H17   46   0.713  -0.319   0.014
    1UNL    H18   47   0.948  -0.239   0.061
    1UNL    H19   48   0.933   0.047   0.120
    1UNL    H20   49   0.618   0.167   0.041
    1UNL    H21   50  -0.219   0.282  -0.200
    1UNL    H22   51  -0.222   0.110  -0.247
    1UNL    H23   52  -0.421   0.171  -0.101
    1UNL    H24   53  -0.229   0.250   0.092
    1UNL    H25   54  -0.308  -0.144  -0.119
    1UNL    H26   55  -0.627  -0.116  -0.284
    1UNL    H27   56  -0.523  -0.242  -0.202
    1UNL    H28   57  -0.637  -0.157  -0.103
   0.00000   0.00000   0.00000   0.00000   0.00000   0.00000   0.00000   0.00000   0.00000
Generated with MDTraj, t= 51.0
 57
    1UNL     C1    1  -0.431  -0.327   0.261
    1UNL     O1    2  -0.409  -0.191   0.278
    1UNL     C2    3  -0.469  -0.119   0.171
    1UNL     C3    4  -0.413   0.025   0.154
    1UNL     C4    5  -0.314   0.029   0.035
    1UNL     C5    6  -0.175  -0.021   0.072
    1UNL     C6    7  -0.076  -0.027  -0.047
    1UNL     C7    8  -0.060   0.119  -0.107
    1UNL     C8    9   0.042   0.134  -0.218
    1UNL     O2   10   0.174   0.103  -0.172
    1UNL     C9   11   0.226   0.202  -0.097
    1UNL     O3   12   0.162   0.305  -0.075
    1UNL    C10   13   0.360   0.175  -0.041
    1UNL    C11   14   0.400   0.054  -0.063
    1UNL    C12   15   0.525  -0.007  -0.014
    1UNL    C13   16   0.555  -0.143  -0.038
    1UNL    C14   17   0.668  -0.202   0.008
    1UNL    C15   18   0.765  -0.127   0.075
    1UNL     O4   19   0.888  -0.173   0.116
    1UNL    C16   20   0.738   0.009   0.092
    1UNL     O5   21   0.849   0.078   0.141
    1UNL    C17   22   0.622   0.066   0.043
    1UNL    C18   23  -0.201   0.157  -0.164
    1UNL    C19   24  -0.300   0.164  -0.052
    1UNL     O6   25  -0.294   0.270   0.034
    1UNL    C20   26  -0.372  -0.088  -0.041
    1UNL     O7   27  -0.470  -0.036  -0.134
    1UNL    C21   28  -0.529  -0.131  -0.214
    1UNL     O8   29  -0.436  -0.184   0.046
    1UNL     H1   30  -0.387  -0.371   0.174
    1UNL     H2   31  -0.390  -0.384   0.349
    1UNL     H3   32  -0.535  -0.337   0.261
    1UNL     H4   33  -0.576  -0.124   0.180
    1UNL     H5   34  -0.493   0.089   0.131
    1UNL     H6   35  -0.358   0.056   0.240
    1UNL     H7   36  -0.183  -0.120   0.120
    1UNL     H8   37  -0.135   0.041   0.160
    1UNL     H9   38   0.020  -0.065  -0.003
    1UNL    H10   39  -0.110  -0.106  -0.116
    1UNL    H11   40  -0.025   0.177  -0.027
    1UNL    H12   41   0.041   0.244  -0.251
    1UNL    H13   42   0.026   0.077  -0.306
    1UNL    H14   43   0.416   0.254   0.019
    1UNL    H15   44   0.344  -0.014  -0.124
    1UNL    H16   45   0.490  -0.202  -0.095
    1UNL    H17   46   0.690  -0.301  -0.016
    1UNL    H18   47   0.917  -0.252   0.064
    1UNL    H19   48   0.919   0.008   0.161
    1UNL    H20   49   0.613   0.173   0.060
    1UNL    H21   50  -0.186   0.259  -0.207
    1UNL    H22   51  -0.231   0.091  -0.245
    1UNL    H23   52  -0.406   0.174  -0.097
    1UNL    H24   53  -0.204   0.280   0.072
    1UNL    H25   54  -0.304  -0.125  -0.104
    1UNL    H26   55  -0.621  -0.084  -0.256
    1UNL    H27   56  -0.462  -0.150  -0.303
    1UNL    H28   57  -0.540  -0.230  -0.172
   0.00000   0.00000   0.00000   0.00000   0.00000   0.00000   0.00000   0.00000   0.00000
Generated with MDTraj, t= 52.0
 57
    1UNL     C1    1  -0.418  -0.333   0.245
    1UNL     O1    2  -0.416  -0.193   0.282
    1UNL     C2    3  -0.459  -0.117   0.169
    1UNL     C3    4  -0.400   0.020   0.168
    1UNL     C4    5  -0.307   0.023   0.045
    1UNL     C5    6  -0.152  -0.006   0.091
    1UNL     C6    7  -0.060   0.003  -0.029
    1UNL     C7    8  -0.062   0.128  -0.112
    1UNL     C8    9   0.032   0.121  -0.233
    1UNL     O2   10   0.166   0.084  -0.203
    1UNL     C9   11   0.213   0.189  -0.129
    1UNL     O3   12   0.142   0.289  -0.111
    1UNL    C10   13   0.351   0.173  -0.076
    1UNL    C11   14   0.408   0.055  -0.084
    1UNL    C12   15   0.537   0.006  -0.036
    1UNL    C13   16   0.552  -0.130  -0.061
    1UNL    C14   17   0.659  -0.199  -0.002
    1UNL    C15   18   0.750  -0.126   0.076
    1UNL     O4   19   0.861  -0.181   0.134
    1UNL    C16   20   0.736   0.013   0.104
    1UNL     O5   21   0.831   0.069   0.196
    1UNL    C17   22   0.624   0.076   0.053
    1UNL    C18   23  -0.213   0.164  -0.146
    1UNL    C19   24  -0.308   0.159  -0.025
    1UNL     O6   25  -0.276   0.261   0.068
    1UNL    C20   26  -0.368  -0.088  -0.044
    1UNL     O7   27  -0.444  -0.024  -0.144
    1UNL    C21   28  -0.512  -0.127  -0.212
    1UNL     O8   29  -0.437  -0.181   0.042
    1UNL     H1   30  -0.354  -0.354   0.160
    1UNL     H2   31  -0.383  -0.403   0.328
    1UNL     H3   32  -0.519  -0.362   0.234
    1UNL     H4   33  -0.564  -0.104   0.165
    1UNL     H5   34  -0.478   0.089   0.144
    1UNL     H6   35  -0.346   0.048   0.255
    1UNL     H7   36  -0.145  -0.107   0.137
    1UNL     H8   37  -0.111   0.057   0.177
    1UNL     H9   38   0.037  -0.007   0.027
    1UNL    H10   39  -0.075  -0.086  -0.095
    1UNL    H11   40  -0.018   0.196  -0.046
    1UNL    H12   41   0.048   0.227  -0.277
    1UNL    H13   42  -0.010   0.061  -0.312
    1UNL    H14   43   0.405   0.259  -0.046
    1UNL    H15   44   0.345  -0.030  -0.119
    1UNL    H16   45   0.479  -0.192  -0.113
    1UNL    H17   46   0.675  -0.308  -0.022
    1UNL    H18   47   0.891  -0.261   0.082
    1UNL    H19   48   0.888  -0.002   0.230
    1UNL    H20   49   0.606   0.180   0.062
    1UNL    H21   50  -0.213   0.265  -0.185
    1UNL    H22   51  -0.245   0.098  -0.229
    1UNL    H23   52  -0.414   0.182  -0.059
    1UNL    H24   53  -0.179   0.266   0.089
    1UNL    H25   54  -0.304  -0.149  -0.095
    1UNL    H26   55  -0.569  -0.076  -0.292
    1UNL    H27   56  -0.446  -0.203  -0.259
    1UNL    H28   57  -0.573  -0.194  -0.153
   0.00000   0.00000   0.00000   0.00000   0.00000   0.00000   0.00000   0.00000   0.00000
Generated with MDTraj, t= 53.0
 57
    1UNL     C1    1  -0.422  -0.341   0.248
    1UNL     O1    2  -0.394  -0.207   0.271
    1UNL     C2    3  -0.451  -0.121   0.172
    1UNL     C3    4  -0.391   0.026   0.180
    1UNL     C4    5  -0.300   0.027   0.055
    1UNL     C5    6  -0.146  -0.004   0.095
    1UNL     C6    7  -0.056   0.001  -0.033
    1UNL     C7    8  -0.058   0.139  -0.098
    1UNL     C8    9   0.026   0.147  -0.224
    1UNL     O2   10   0.152   0.094  -0.209
    1UNL     C9   11   0.227   0.191  -0.144
    1UNL     O3   12   0.194   0.308  -0.129
    1UNL    C10   13   0.346   0.148  -0.081
    1UNL    C11   14   0.399   0.029  -0.111
    1UNL    C12   15   0.521  -0.029  -0.050
    1UNL    C13   16   0.575  -0.154  -0.087
    1UNL    C14   17   0.687  -0.200  -0.013
    1UNL    C15   18   0.741  -0.121   0.082
    1UNL     O4   19   0.852  -0.161   0.163
    1UNL    C16   20   0.689   0.010   0.111
    1UNL     O5   21   0.756   0.089   0.201
    1UNL    C17   22   0.580   0.060   0.043
    1UNL    C18   23  -0.212   0.170  -0.134
    1UNL    C19   24  -0.298   0.167  -0.013
    1UNL     O6   25  -0.272   0.264   0.086
    1UNL    C20   26  -0.352  -0.085  -0.040
    1UNL     O7   27  -0.404  -0.044  -0.167
    1UNL    C21   28  -0.524  -0.123  -0.195
    1UNL     O8   29  -0.436  -0.176   0.037
    1UNL     H1   30  -0.341  -0.380   0.184
    1UNL     H2   31  -0.425  -0.401   0.346
    1UNL     H3   32  -0.524  -0.348   0.215
    1UNL     H4   33  -0.554  -0.127   0.190
    1UNL     H5   34  -0.468   0.102   0.172
    1UNL     H6   35  -0.327   0.052   0.262
    1UNL     H7   36  -0.147  -0.107   0.137
    1UNL     H8   37  -0.109   0.056   0.180
    1UNL     H9   38   0.048  -0.030  -0.012
    1UNL    H10   39  -0.104  -0.075  -0.102
    1UNL    H11   40  -0.016   0.208  -0.031
    1UNL    H12   41   0.033   0.259  -0.253
    1UNL    H13   42  -0.015   0.097  -0.310
    1UNL    H14   43   0.388   0.223  -0.021
    1UNL    H15   44   0.346  -0.035  -0.172
    1UNL    H16   45   0.543  -0.211  -0.173
    1UNL    H17   46   0.723  -0.294  -0.034
    1UNL    H18   47   0.879  -0.252   0.135
    1UNL    H19   48   0.838   0.045   0.230
    1UNL    H20   49   0.547   0.165   0.050
    1UNL    H21   50  -0.220   0.267  -0.179
    1UNL    H22   51  -0.251   0.103  -0.215
    1UNL    H23   52  -0.400   0.190  -0.050
    1UNL    H24   53  -0.175   0.289   0.084
    1UNL    H25   54  -0.276  -0.153  -0.069
    1UNL    H26   55  -0.563  -0.104  -0.296
    1UNL    H27   56  -0.512  -0.231  -0.176
    1UNL    H28   57  -0.601  -0.111  -0.122
   0.00000   0.00000   0.00000   0.00000   0.00000   0.00000   0.00000   0.00000   0.00000
Generated with MDTraj, t= 54.0
 57
    1UNL     C1    1  -0.416  -0.349   0.242
    1UNL     O1    2  -0.357  -0.223   0.258
    1UNL     C2    3  -0.429  -0.119   0.187
    1UNL     C3    4  -0.356   0.018   0.202
    1UNL     C4    5  -0.291   0.026   0.057
    1UNL     C5    6  -0.134   0.002   0.086
    1UNL     C6    7  -0.052   0.008  -0.045
    1UNL     C7    8  -0.064   0.149  -0.106
    1UNL     C8    9   0.014   0.150  -0.238
    1UNL     O2   10   0.145   0.099  -0.239
    1UNL     C9   11   0.227   0.183  -0.174
    1UNL     O3   12   0.191   0.293  -0.130
    1UNL    C10   13   0.363   0.141  -0.140
    1UNL    C11   14   0.406   0.016  -0.123
    1UNL    C12   15   0.523  -0.025  -0.051
    1UNL    C13   16   0.581  -0.145  -0.080
    1UNL    C14   17   0.692  -0.193  -0.012
    1UNL    C15   18   0.751  -0.124   0.097
    1UNL     O4   19   0.873  -0.150   0.167
    1UNL    C16   20   0.680  -0.008   0.136
    1UNL     O5   21   0.725   0.074   0.236
    1UNL    C17   22   0.571   0.041   0.061
    1UNL    C18   23  -0.221   0.178  -0.133
    1UNL    C19   24  -0.314   0.167  -0.010
    1UNL     O6   25  -0.326   0.268   0.093
    1UNL    C20   26  -0.360  -0.087  -0.030
    1UNL     O7   27  -0.406  -0.038  -0.155
    1UNL    C21   28  -0.518  -0.111  -0.199
    1UNL     O8   29  -0.459  -0.141   0.047
    1UNL     H1   30  -0.455  -0.338   0.140
    1UNL     H2   31  -0.337  -0.434   0.240
    1UNL     H3   32  -0.486  -0.365   0.322
    1UNL     H4   33  -0.522  -0.133   0.239
    1UNL     H5   34  -0.424   0.101   0.221
    1UNL     H6   35  -0.280   0.015   0.279
    1UNL     H7   36  -0.120  -0.099   0.135
    1UNL     H8   37  -0.106   0.072   0.161
    1UNL     H9   38   0.054  -0.003  -0.019
    1UNL    H10   39  -0.081  -0.067  -0.126
    1UNL    H11   40  -0.034   0.229  -0.047
    1UNL    H12   41   0.021   0.255  -0.284
    1UNL    H13   42  -0.048   0.098  -0.308
    1UNL    H14   43   0.439   0.217  -0.102
    1UNL    H15   44   0.338  -0.066  -0.162
    1UNL    H16   45   0.550  -0.196  -0.171
    1UNL    H17   46   0.725  -0.300  -0.034
    1UNL    H18   47   0.900  -0.242   0.149
    1UNL    H19   48   0.804   0.029   0.279
    1UNL    H20   49   0.541   0.133   0.103
    1UNL    H21   50  -0.239   0.273  -0.177
    1UNL    H22   51  -0.261   0.110  -0.214
    1UNL    H23   52  -0.412   0.167  -0.052
    1UNL    H24   53  -0.238   0.304   0.121
    1UNL    H25   54  -0.285  -0.167  -0.048
    1UNL    H26   55  -0.565  -0.061  -0.284
    1UNL    H27   56  -0.492  -0.216  -0.219
    1UNL    H28   57  -0.585  -0.125  -0.119
   0.00000   0.00000   0.00000   0.00000   0.00000   0.00000   0.00000   0.00000   0.00000
Generated with MDTraj, t= 55.0
 57
    1UNL     C1    1  -0.389  -0.350   0.224
    1UNL     O1    2  -0.340  -0.212   0.254
    1UNL     C2    3  -0.421  -0.108   0.197
    1UNL     C3    4  -0.338   0.022   0.205
    1UNL     C4    5  -0.285   0.027   0.059
    1UNL     C5    6  -0.135  -0.010   0.062
    1UNL     C6    7  -0.070  -0.012  -0.073
    1UNL     C7    8  -0.074   0.133  -0.128
    1UNL     C8    9   0.008   0.142  -0.255
    1UNL     O2   10   0.135   0.090  -0.218
    1UNL     C9   11   0.214   0.181  -0.151
    1UNL     O3   12   0.183   0.300  -0.161
    1UNL    C10   13   0.336   0.142  -0.075
    1UNL    C11   14   0.393   0.022  -0.099
    1UNL    C12   15   0.517  -0.026  -0.046
    1UNL    C13   16   0.593  -0.131  -0.098
    1UNL    C14   17   0.701  -0.180  -0.024
    1UNL    C15   18   0.747  -0.110   0.088
    1UNL     O4   19   0.845  -0.162   0.162
    1UNL    C16   20   0.674  -0.001   0.137
    1UNL     O5   21   0.706   0.059   0.250
    1UNL    C17   22   0.556   0.035   0.068
    1UNL    C18   23  -0.227   0.182  -0.140
    1UNL    C19   24  -0.301   0.171  -0.003
    1UNL     O6   25  -0.261   0.276   0.091
    1UNL    C20   26  -0.370  -0.081  -0.021
    1UNL     O7   27  -0.405  -0.041  -0.159
    1UNL    C21   28  -0.497  -0.131  -0.201
    1UNL     O8   29  -0.465  -0.126   0.065
    1UNL     H1   30  -0.406  -0.335   0.117
    1UNL     H2   31  -0.310  -0.432   0.239
    1UNL     H3   32  -0.485  -0.370   0.265
    1UNL     H4   33  -0.507  -0.097   0.263
    1UNL     H5   34  -0.404   0.108   0.223
    1UNL     H6   35  -0.256   0.027   0.280
    1UNL     H7   36  -0.127  -0.106   0.120
    1UNL     H8   37  -0.092   0.064   0.124
    1UNL     H9   38   0.038  -0.025  -0.060
    1UNL    H10   39  -0.113  -0.088  -0.147
    1UNL    H11   40  -0.029   0.199  -0.061
    1UNL    H12   41   0.025   0.247  -0.294
    1UNL    H13   42  -0.038   0.089  -0.334
    1UNL    H14   43   0.381   0.213  -0.016
    1UNL    H15   44   0.349  -0.036  -0.173
    1UNL    H16   45   0.550  -0.170  -0.189
    1UNL    H17   46   0.747  -0.269  -0.044
    1UNL    H18   47   0.881  -0.245   0.128
    1UNL    H19   48   0.786   0.015   0.279
    1UNL    H20   49   0.500   0.123   0.104
    1UNL    H21   50  -0.243   0.280  -0.180
    1UNL    H22   51  -0.280   0.117  -0.214
    1UNL    H23   52  -0.405   0.185  -0.015
    1UNL    H24   53  -0.169   0.275   0.123
    1UNL    H25   54  -0.306  -0.172  -0.040
    1UNL    H26   55  -0.535  -0.114  -0.303
    1UNL    H27   56  -0.451  -0.231  -0.187
    1UNL    H28   57  -0.574  -0.125  -0.127
   0.00000   0.00000   0.00000   0.00000   0.00000   0.00000   0.00000   0.00000   0.00000
Generated with MDTraj, t= 56.0
 57
    1UNL     C1    1  -0.371  -0.338   0.223
    1UNL     O1    2  -0.354  -0.202   0.270
    1UNL     C2    3  -0.434  -0.100   0.208
    1UNL     C3    4  -0.350   0.035   0.202
    1UNL     C4    5  -0.280   0.027   0.062
    1UNL     C5    6  -0.131  -0.034   0.069
    1UNL     C6    7  -0.052  -0.032  -0.067
    1UNL     C7    8  -0.058   0.107  -0.141
    1UNL     C8    9   0.025   0.123  -0.271
    1UNL     O2   10   0.169   0.115  -0.255
    1UNL     C9   11   0.207   0.203  -0.159
    1UNL     O3   12   0.131   0.291  -0.120
    1UNL    C10   13   0.333   0.172  -0.097
    1UNL    C11   14   0.384   0.047  -0.102
    1UNL    C12   15   0.504  -0.008  -0.041
    1UNL    C13   16   0.571  -0.116  -0.096
    1UNL    C14   17   0.679  -0.167  -0.033
    1UNL    C15   18   0.730  -0.117   0.087
    1UNL     O4   19   0.850  -0.158   0.141
    1UNL    C16   20   0.660  -0.014   0.152
    1UNL     O5   21   0.700   0.035   0.271
    1UNL    C17   22   0.551   0.033   0.087
    1UNL    C18   23  -0.205   0.161  -0.153
    1UNL    C19   24  -0.270   0.163  -0.012
    1UNL     O6   25  -0.220   0.263   0.078
    1UNL    C20   26  -0.373  -0.081  -0.015
    1UNL     O7   27  -0.414  -0.038  -0.143
    1UNL    C21   28  -0.500  -0.131  -0.199
    1UNL     O8   29  -0.470  -0.127   0.070
    1UNL     H1   30  -0.291  -0.340   0.149
    1UNL     H2   31  -0.343  -0.411   0.306
    1UNL     H3   32  -0.462  -0.341   0.167
    1UNL     H4   33  -0.529  -0.085   0.267
    1UNL     H5   34  -0.416   0.124   0.209
    1UNL     H6   35  -0.269   0.054   0.278
    1UNL     H7   36  -0.135  -0.131   0.128
    1UNL     H8   37  -0.081   0.029   0.136
    1UNL     H9   38   0.051  -0.058  -0.043
    1UNL    H10   39  -0.095  -0.105  -0.141
    1UNL    H11   40  -0.005   0.165  -0.072
    1UNL    H12   41   0.001   0.225  -0.309
    1UNL    H13   42   0.011   0.050  -0.345
    1UNL    H14   43   0.374   0.251  -0.037
    1UNL    H15   44   0.335  -0.026  -0.168
    1UNL    H16   45   0.535  -0.172  -0.182
    1UNL    H17   46   0.730  -0.250  -0.086
    1UNL    H18   47   0.887  -0.236   0.094
    1UNL    H19   48   0.782  -0.015   0.300
    1UNL    H20   49   0.519   0.123   0.131
    1UNL    H21   50  -0.208   0.261  -0.194
    1UNL    H22   51  -0.268   0.100  -0.219
    1UNL    H23   52  -0.370   0.190  -0.034
    1UNL    H24   53  -0.128   0.284   0.057
    1UNL    H25   54  -0.304  -0.170  -0.043
    1UNL    H26   55  -0.533  -0.106  -0.302
    1UNL    H27   56  -0.442  -0.227  -0.202
    1UNL    H28   57  -0.585  -0.140  -0.133
   0.00000   0.00000   0.00000   0.00000   0.00000   0.00000   0.00000   0.00000   0.00000
Generated with MDTraj, t= 57.0
 57
    1UNL     C1    1  -0.399  -0.318   0.234
    1UNL     O1    2  -0.362  -0.195   0.285
    1UNL     C2    3  -0.419  -0.090   0.207
    1UNL     C3    4  -0.329   0.030   0.191
    1UNL     C4    5  -0.262   0.016   0.051
    1UNL     C5    6  -0.112  -0.041   0.054
    1UNL     C6    7  -0.047  -0.037  -0.087
    1UNL     C7    8  -0.056   0.104  -0.148
    1UNL     C8    9   0.040   0.131  -0.267
    1UNL     O2   10   0.171   0.096  -0.224
    1UNL     C9   11   0.195   0.197  -0.134
    1UNL     O3   12   0.124   0.293  -0.104
    1UNL    C10   13   0.321   0.174  -0.067
    1UNL    C11   14   0.388   0.064  -0.105
    1UNL    C12   15   0.508   0.003  -0.045
    1UNL    C13   16   0.581  -0.095  -0.109
    1UNL    C14   17   0.690  -0.156  -0.043
    1UNL    C15   18   0.726  -0.119   0.084
    1UNL     O4   19   0.830  -0.176   0.150
    1UNL    C16   20   0.649  -0.016   0.141
    1UNL     O5   21   0.694   0.030   0.264
    1UNL    C17   22   0.547   0.049   0.081
    1UNL    C18   23  -0.203   0.138  -0.172
    1UNL    C19   24  -0.271   0.150  -0.029
    1UNL     O6   25  -0.231   0.263   0.054
    1UNL    C20   26  -0.352  -0.093  -0.019
    1UNL     O7   27  -0.405  -0.043  -0.136
    1UNL    C21   28  -0.527  -0.109  -0.175
    1UNL     O8   29  -0.457  -0.134   0.071
    1UNL     H1   30  -0.359  -0.320   0.134
    1UNL     H2   31  -0.350  -0.392   0.305
    1UNL     H3   32  -0.504  -0.310   0.227
    1UNL     H4   33  -0.518  -0.074   0.264
    1UNL     H5   34  -0.390   0.124   0.198
    1UNL     H6   35  -0.250   0.038   0.271
    1UNL     H7   36  -0.114  -0.143   0.099
    1UNL     H8   37  -0.056   0.012   0.125
    1UNL     H9   38   0.060  -0.058  -0.080
    1UNL    H10   39  -0.100  -0.113  -0.148
    1UNL    H11   40  -0.012   0.156  -0.068
    1UNL    H12   41   0.050   0.240  -0.289
    1UNL    H13   42   0.017   0.073  -0.351
    1UNL    H14   43   0.351   0.228   0.026
    1UNL    H15   44   0.340   0.012  -0.188
    1UNL    H16   45   0.551  -0.118  -0.211
    1UNL    H17   46   0.736  -0.242  -0.090
    1UNL    H18   47   0.865  -0.247   0.091
    1UNL    H19   48   0.770  -0.019   0.297
    1UNL    H20   49   0.491   0.129   0.126
    1UNL    H21   50  -0.211   0.239  -0.214
    1UNL    H22   51  -0.256   0.067  -0.232
    1UNL    H23   52  -0.376   0.175  -0.043
    1UNL    H24   53  -0.136   0.283   0.045
    1UNL    H25   54  -0.281  -0.182  -0.048
    1UNL    H26   55  -0.600  -0.039  -0.218
    1UNL    H27   56  -0.503  -0.188  -0.252
    1UNL    H28   57  -0.575  -0.148  -0.086
   0.00000   0.00000   0.00000   0.00000   0.00000   0.00000   0.00000   0.00000   0.00000
Generated with MDTraj, t= 58.0
 57
    1UNL     C1    1  -0.432  -0.311   0.284
    1UNL     O1    2  -0.339  -0.207   0.259
    1UNL     C2    3  -0.402  -0.092   0.207
    1UNL     C3    4  -0.322   0.026   0.183
    1UNL     C4    5  -0.277   0.012   0.038
    1UNL     C5    6  -0.125  -0.034   0.025
    1UNL     C6    7  -0.062  -0.033  -0.115
    1UNL     C7    8  -0.061   0.117  -0.156
    1UNL     C8    9   0.022   0.153  -0.274
    1UNL     O2   10   0.158   0.124  -0.249
    1UNL     C9   11   0.202   0.193  -0.137
    1UNL     O3   12   0.137   0.285  -0.091
    1UNL    C10   13   0.326   0.157  -0.067
    1UNL    C11   14   0.424   0.078  -0.115
    1UNL    C12   15   0.537   0.021  -0.046
    1UNL    C13   16   0.607  -0.086  -0.108
    1UNL    C14   17   0.707  -0.156  -0.044
    1UNL    C15   18   0.739  -0.121   0.085
    1UNL     O4   19   0.832  -0.191   0.170
    1UNL    C16   20   0.679  -0.015   0.152
    1UNL     O5   21   0.709   0.011   0.285
    1UNL    C17   22   0.578   0.053   0.083
    1UNL    C18   23  -0.215   0.151  -0.167
    1UNL    C19   24  -0.293   0.149  -0.029
    1UNL     O6   25  -0.254   0.260   0.047
    1UNL    C20   26  -0.373  -0.096  -0.021
    1UNL     O7   27  -0.426  -0.062  -0.140
    1UNL    C21   28  -0.554  -0.119  -0.163
    1UNL     O8   29  -0.469  -0.135   0.088
    1UNL     H1   30  -0.502  -0.313   0.203
    1UNL     H2   31  -0.373  -0.401   0.322
    1UNL     H3   32  -0.479  -0.267   0.368
    1UNL     H4   33  -0.478  -0.068   0.291
    1UNL     H5   34  -0.383   0.123   0.193
    1UNL     H6   35  -0.235   0.032   0.254
    1UNL     H7   36  -0.122  -0.140   0.049
    1UNL     H8   37  -0.071   0.013   0.103
    1UNL     H9   38   0.043  -0.072  -0.105
    1UNL    H10   39  -0.116  -0.089  -0.192
    1UNL    H11   40  -0.027   0.169  -0.070
    1UNL    H12   41   0.028   0.263  -0.288
    1UNL    H13   42   0.000   0.097  -0.359
    1UNL    H14   43   0.335   0.188   0.029
    1UNL    H15   44   0.411   0.030  -0.207
    1UNL    H16   45   0.586  -0.115  -0.209
    1UNL    H17   46   0.751  -0.243  -0.082
    1UNL    H18   47   0.894  -0.250   0.119
    1UNL    H19   48   0.781  -0.049   0.318
    1UNL    H20   49   0.513   0.125   0.140
    1UNL    H21   50  -0.229   0.245  -0.224
    1UNL    H22   51  -0.261   0.073  -0.220
    1UNL    H23   52  -0.404   0.170  -0.028
    1UNL    H24   53  -0.157   0.271   0.055
    1UNL    H25   54  -0.314  -0.199  -0.036
    1UNL    H26   55  -0.564  -0.148  -0.269
    1UNL    H27   56  -0.564  -0.213  -0.104
    1UNL    H28   57  -0.621  -0.038  -0.143
   0.00000   0.00000   0.00000   0.00000   0.00000   0.00000   0.00000   0.00000   0.00000
Generated with MDTraj, t= 59.0
 57
    1UNL     C1    1  -0.436  -0.297   0.300
    1UNL     O1    2  -0.340  -0.201   0.275
    1UNL     C2    3  -0.406  -0.092   0.207
    1UNL     C3    4  -0.315   0.020   0.175
    1UNL     C4    5  -0.276   0.007   0.025
    1UNL     C5    6  -0.128  -0.056   0.015
    1UNL     C6    7  -0.070  -0.028  -0.119
    1UNL     C7    8  -0.068   0.121  -0.154
    1UNL     C8    9   0.036   0.163  -0.261
    1UNL     O2   10   0.174   0.126  -0.225
    1UNL     C9   11   0.225   0.193  -0.116
    1UNL     O3   12   0.158   0.275  -0.059
    1UNL    C10   13   0.360   0.162  -0.068
    1UNL    C11   14   0.418   0.052  -0.120
    1UNL    C12   15   0.537  -0.000  -0.054
    1UNL    C13   16   0.618  -0.092  -0.118
    1UNL    C14   17   0.723  -0.146  -0.053
    1UNL    C15   18   0.748  -0.117   0.086
    1UNL     O4   19   0.839  -0.170   0.170
    1UNL    C16   20   0.671  -0.013   0.146
    1UNL     O5   21   0.698   0.019   0.273
    1UNL    C17   22   0.561   0.043   0.076
    1UNL    C18   23  -0.214   0.167  -0.178
    1UNL    C19   24  -0.292   0.151  -0.044
    1UNL     O6   25  -0.281   0.258   0.050
    1UNL    C20   26  -0.385  -0.099  -0.023
    1UNL     O7   27  -0.450  -0.062  -0.143
    1UNL    C21   28  -0.570  -0.132  -0.178
    1UNL     O8   29  -0.476  -0.136   0.091
    1UNL     H1   30  -0.503  -0.302   0.213
    1UNL     H2   31  -0.390  -0.390   0.346
    1UNL     H3   32  -0.485  -0.242   0.379
    1UNL     H4   33  -0.480  -0.048   0.283
    1UNL     H5   34  -0.357   0.126   0.189
    1UNL     H6   35  -0.216   0.013   0.232
    1UNL     H7   36  -0.126  -0.157   0.045
    1UNL     H8   37  -0.066  -0.005   0.086
    1UNL     H9   38   0.040  -0.056  -0.121
    1UNL    H10   39  -0.126  -0.083  -0.193
    1UNL    H11   40  -0.036   0.178  -0.068
    1UNL    H12   41   0.044   0.274  -0.267
    1UNL    H13   42   0.019   0.115  -0.353
    1UNL    H14   43   0.411   0.232   0.001
    1UNL    H15   44   0.363  -0.014  -0.193
    1UNL    H16   45   0.590  -0.119  -0.220
    1UNL    H17   46   0.799  -0.199  -0.118
    1UNL    H18   47   0.899  -0.221   0.111
    1UNL    H19   48   0.761  -0.044   0.313
    1UNL    H20   49   0.501   0.111   0.121
    1UNL    H21   50  -0.214   0.278  -0.190
    1UNL    H22   51  -0.264   0.122  -0.258
    1UNL    H23   52  -0.404   0.154  -0.067
    1UNL    H24   53  -0.185   0.257   0.073
    1UNL    H25   54  -0.325  -0.201  -0.044
    1UNL    H26   55  -0.546  -0.212  -0.247
    1UNL    H27   56  -0.604  -0.186  -0.088
    1UNL    H28   57  -0.634  -0.062  -0.225
   0.00000   0.00000   0.00000   0.00000   0.00000   0.00000   0.00000   0.00000   0.00000
Generated with MDTraj, t= 60.0
 57
    1UNL     C1    1  -0.429  -0.307   0.280
    1UNL     O1    2  -0.363  -0.186   0.287
    1UNL     C2    3  -0.426  -0.089   0.203
    1UNL     C3    4  -0.334   0.024   0.185
    1UNL     C4    5  -0.283   0.019   0.035
    1UNL     C5    6  -0.137  -0.041   0.033
    1UNL     C6    7  -0.054  -0.018  -0.097
    1UNL     C7    8  -0.063   0.126  -0.152
    1UNL     C8    9   0.038   0.153  -0.271
    1UNL     O2   10   0.174   0.118  -0.231
    1UNL     C9   11   0.216   0.190  -0.123
    1UNL     O3   12   0.156   0.280  -0.072
    1UNL    C10   13   0.337   0.145  -0.052
    1UNL    C11   14   0.411   0.050  -0.107
    1UNL    C12   15   0.524  -0.012  -0.038
    1UNL    C13   16   0.606  -0.103  -0.108
    1UNL    C14   17   0.727  -0.149  -0.055
    1UNL    C15   18   0.755  -0.107   0.073
    1UNL     O4   19   0.878  -0.140   0.138
    1UNL    C16   20   0.671  -0.022   0.148
    1UNL     O5   21   0.713   0.006   0.279
    1UNL    C17   22   0.560   0.029   0.092
    1UNL    C18   23  -0.215   0.156  -0.170
    1UNL    C19   24  -0.293   0.151  -0.039
    1UNL     O6   25  -0.266   0.260   0.043
    1UNL    C20   26  -0.381  -0.100  -0.030
    1UNL     O7   27  -0.455  -0.057  -0.147
    1UNL    C21   28  -0.569  -0.129  -0.184
    1UNL     O8   29  -0.462  -0.142   0.076
    1UNL     H1   30  -0.416  -0.348   0.177
    1UNL     H2   31  -0.387  -0.372   0.362
    1UNL     H3   32  -0.534  -0.282   0.298
    1UNL     H4   33  -0.518  -0.057   0.256
    1UNL     H5   34  -0.385   0.125   0.205
    1UNL     H6   35  -0.238   0.017   0.249
    1UNL     H7   36  -0.146  -0.140   0.058
    1UNL     H8   37  -0.075  -0.003   0.114
    1UNL     H9   38   0.053  -0.050  -0.072
    1UNL    H10   39  -0.095  -0.080  -0.173
    1UNL    H11   40  -0.033   0.201  -0.082
    1UNL    H12   41   0.046   0.263  -0.295
    1UNL    H13   42   0.015   0.090  -0.354
    1UNL    H14   43   0.367   0.190   0.042
    1UNL    H15   44   0.388   0.021  -0.203
    1UNL    H16   45   0.574  -0.117  -0.209
    1UNL    H17   46   0.805  -0.193  -0.106
    1UNL    H18   47   0.953  -0.173   0.084
    1UNL    H19   48   0.804  -0.027   0.284
    1UNL    H20   49   0.502   0.099   0.159
    1UNL    H21   50  -0.239   0.259  -0.204
    1UNL    H22   51  -0.262   0.089  -0.236
    1UNL    H23   52  -0.408   0.160  -0.059
    1UNL    H24   53  -0.168   0.270   0.059
    1UNL    H25   54  -0.309  -0.184  -0.076
    1UNL    H26   55  -0.553  -0.237  -0.183
    1UNL    H27   56  -0.639  -0.116  -0.100
    1UNL    H28   57  -0.595  -0.095  -0.281
   0.00000   0.00000   0.00000   0.00000   0.00000   0.00000   0.00000   0.00000   0.00000
Generated with MDTraj, t= 61.0
 57
    1UNL     C1    1  -0.413  -0.312   0.247
    1UNL     O1    2  -0.361  -0.182   0.265
    1UNL     C2    3  -0.445  -0.095   0.189
    1UNL     C3    4  -0.367   0.036   0.177
    1UNL     C4    5  -0.290   0.030   0.047
    1UNL     C5    6  -0.143  -0.013   0.072
    1UNL     C6    7  -0.071  -0.023  -0.065
    1UNL     C7    8  -0.073   0.117  -0.131
    1UNL     C8    9   0.024   0.107  -0.249
    1UNL     O2   10   0.158   0.080  -0.215
    1UNL     C9   11   0.207   0.175  -0.126
    1UNL     O3   12   0.145   0.274  -0.097
    1UNL    C10   13   0.326   0.142  -0.056
    1UNL    C11   14   0.385   0.022  -0.069
    1UNL    C12   15   0.520  -0.010  -0.026
    1UNL    C13   16   0.601  -0.087  -0.108
    1UNL    C14   17   0.732  -0.122  -0.073
    1UNL    C15   18   0.778  -0.097   0.061
    1UNL     O4   19   0.889  -0.141   0.114
    1UNL    C16   20   0.689  -0.021   0.151
    1UNL     O5   21   0.741   0.004   0.279
    1UNL    C17   22   0.566   0.019   0.108
    1UNL    C18   23  -0.220   0.143  -0.160
    1UNL    C19   24  -0.309   0.165  -0.031
    1UNL     O6   25  -0.272   0.290   0.038
    1UNL    C20   26  -0.361  -0.093  -0.027
    1UNL     O7   27  -0.403  -0.059  -0.162
    1UNL    C21   28  -0.540  -0.093  -0.180
    1UNL     O8   29  -0.462  -0.145   0.055
    1UNL     H1   30  -0.416  -0.328   0.137
    1UNL     H2   31  -0.345  -0.387   0.293
    1UNL     H3   32  -0.516  -0.322   0.285
    1UNL     H4   33  -0.536  -0.080   0.245
    1UNL     H5   34  -0.442   0.122   0.159
    1UNL     H6   35  -0.292   0.061   0.262
    1UNL     H7   36  -0.136  -0.100   0.125
    1UNL     H8   37  -0.097   0.057   0.142
    1UNL     H9   38   0.038  -0.050  -0.048
    1UNL    H10   39  -0.117  -0.103  -0.118
    1UNL    H11   40  -0.046   0.195  -0.061
    1UNL    H12   41   0.030   0.210  -0.298
    1UNL    H13   42  -0.001   0.027  -0.316
    1UNL    H14   43   0.363   0.215   0.007
    1UNL    H15   44   0.347  -0.046  -0.150
    1UNL    H16   45   0.571  -0.104  -0.210
    1UNL    H17   46   0.782  -0.181  -0.155
    1UNL    H18   47   0.943  -0.169   0.038
    1UNL    H19   48   0.822  -0.054   0.296
    1UNL    H20   49   0.493   0.050   0.180
    1UNL    H21   50  -0.239   0.217  -0.238
    1UNL    H22   51  -0.259   0.058  -0.216
    1UNL    H23   52  -0.419   0.186  -0.060
    1UNL    H24   53  -0.178   0.316   0.029
    1UNL    H25   54  -0.281  -0.179  -0.051
    1UNL    H26   55  -0.554  -0.198  -0.151
    1UNL    H27   56  -0.590  -0.039  -0.097
    1UNL    H28   57  -0.578  -0.076  -0.279
   0.00000   0.00000   0.00000   0.00000   0.00000   0.00000   0.00000   0.00000   0.00000
Generated with MDTraj, t= 62.0
 57
    1UNL     C1    1  -0.396  -0.310   0.236
    1UNL     O1    2  -0.372  -0.173   0.243
    1UNL     C2    3  -0.470  -0.098   0.180
    1UNL     C3    4  -0.412   0.044   0.172
    1UNL     C4    5  -0.313   0.033   0.050
    1UNL     C5    6  -0.163   0.003   0.102
    1UNL     C6    7  -0.063  -0.013  -0.017
    1UNL     C7    8  -0.075   0.117  -0.110
    1UNL     C8    9   0.021   0.089  -0.223
    1UNL     O2   10   0.154   0.057  -0.180
    1UNL     C9   11   0.215   0.164  -0.117
    1UNL     O3   12   0.160   0.272  -0.110
    1UNL    C10   13   0.343   0.138  -0.051
    1UNL    C11   14   0.404   0.024  -0.085
    1UNL    C12   15   0.530  -0.023  -0.035
    1UNL    C13   16   0.619  -0.100  -0.113
    1UNL    C14   17   0.743  -0.135  -0.069
    1UNL    C15   18   0.783  -0.095   0.053
    1UNL     O4   19   0.914  -0.121   0.099
    1UNL    C16   20   0.696  -0.018   0.135
    1UNL     O5   21   0.736   0.013   0.265
    1UNL    C17   22   0.572   0.016   0.091
    1UNL    C18   23  -0.221   0.144  -0.156
    1UNL    C19   24  -0.318   0.161  -0.033
    1UNL     O6   25  -0.309   0.286   0.039
    1UNL    C20   26  -0.369  -0.091  -0.024
    1UNL     O7   27  -0.385  -0.079  -0.166
    1UNL    C21   28  -0.519  -0.056  -0.195
    1UNL     O8   29  -0.477  -0.143   0.044
    1UNL     H1   30  -0.391  -0.333   0.129
    1UNL     H2   31  -0.309  -0.361   0.275
    1UNL     H3   32  -0.487  -0.355   0.277
    1UNL     H4   33  -0.560  -0.110   0.235
    1UNL     H5   34  -0.488   0.130   0.156
    1UNL     H6   35  -0.347   0.059   0.267
    1UNL     H7   36  -0.171  -0.082   0.161
    1UNL     H8   37  -0.129   0.069   0.182
    1UNL     H9   38   0.042  -0.036   0.018
    1UNL    H10   39  -0.090  -0.102  -0.072
    1UNL    H11   40  -0.051   0.206  -0.054
    1UNL    H12   41   0.049   0.182  -0.283
    1UNL    H13   42  -0.016   0.007  -0.283
    1UNL    H14   43   0.385   0.200   0.034
    1UNL    H15   44   0.359  -0.032  -0.161
    1UNL    H16   45   0.585  -0.138  -0.210
    1UNL    H17   46   0.816  -0.183  -0.126
    1UNL    H18   47   0.976  -0.178   0.046
    1UNL    H19   48   0.829  -0.010   0.269
    1UNL    H20   49   0.500   0.063   0.152
    1UNL    H21   50  -0.228   0.221  -0.234
    1UNL    H22   51  -0.257   0.065  -0.226
    1UNL    H23   52  -0.414   0.183  -0.087
    1UNL    H24   53  -0.221   0.284   0.079
    1UNL    H25   54  -0.281  -0.174  -0.017
    1UNL    H26   55  -0.580  -0.126  -0.133
    1UNL    H27   56  -0.541   0.047  -0.157
    1UNL    H28   57  -0.547  -0.071  -0.299
   0.00000   0.00000   0.00000   0.00000   0.00000   0.00000   0.00000   0.00000   0.00000
Generated with MDTraj, t= 63.0
 57
    1UNL     C1    1  -0.414  -0.320   0.263
    1UNL     O1    2  -0.430  -0.182   0.268
    1UNL     C2    3  -0.500  -0.112   0.165
    1UNL     C3    4  -0.446   0.033   0.161
    1UNL     C4    5  -0.336   0.033   0.053
    1UNL     C5    6  -0.192   0.017   0.108
    1UNL     C6    7  -0.079   0.018   0.002
    1UNL     C7    8  -0.076   0.134  -0.110
    1UNL     C8    9   0.032   0.113  -0.224
    1UNL     O2   10   0.151   0.059  -0.171
    1UNL     C9   11   0.225   0.153  -0.111
    1UNL     O3   12   0.185   0.266  -0.094
    1UNL    C10   13   0.366   0.124  -0.070
    1UNL    C11   14   0.428   0.009  -0.107
    1UNL    C12   15   0.557  -0.026  -0.050
    1UNL    C13   16   0.644  -0.110  -0.125
    1UNL    C14   17   0.766  -0.143  -0.069
    1UNL    C15   18   0.812  -0.100   0.060
    1UNL     O4   19   0.935  -0.127   0.111
    1UNL    C16   20   0.728  -0.013   0.127
    1UNL     O5   21   0.753   0.040   0.252
    1UNL    C17   22   0.601   0.020   0.071
    1UNL    C18   23  -0.225   0.166  -0.150
    1UNL    C19   24  -0.334   0.169  -0.035
    1UNL     O6   25  -0.320   0.283   0.050
    1UNL    C20   26  -0.373  -0.100  -0.031
    1UNL     O7   27  -0.397  -0.077  -0.170
    1UNL    C21   28  -0.535  -0.064  -0.198
    1UNL     O8   29  -0.478  -0.163   0.031
    1UNL     H1   30  -0.343  -0.332   0.182
    1UNL     H2   31  -0.365  -0.360   0.348
    1UNL     H3   32  -0.497  -0.385   0.238
    1UNL     H4   33  -0.604  -0.115   0.175
    1UNL     H5   34  -0.527   0.108   0.127
    1UNL     H6   35  -0.403   0.068   0.262
    1UNL     H7   36  -0.181  -0.071   0.168
    1UNL     H8   37  -0.175   0.087   0.186
    1UNL     H9   38   0.017   0.028   0.058
    1UNL    H10   39  -0.073  -0.086  -0.037
    1UNL    H11   40  -0.039   0.227  -0.070
    1UNL    H12   41   0.073   0.210  -0.268
    1UNL    H13   42   0.005   0.040  -0.300
    1UNL    H14   43   0.417   0.186  -0.002
    1UNL    H15   44   0.375  -0.068  -0.167
    1UNL    H16   45   0.600  -0.166  -0.204
    1UNL    H17   46   0.835  -0.201  -0.132
    1UNL    H18   47   0.954  -0.218   0.076
    1UNL    H19   48   0.848   0.024   0.280
    1UNL    H20   49   0.534   0.075   0.141
    1UNL    H21   50  -0.229   0.258  -0.209
    1UNL    H22   51  -0.251   0.093  -0.229
    1UNL    H23   52  -0.435   0.180  -0.081
    1UNL    H24   53  -0.229   0.317   0.056
    1UNL    H25   54  -0.286  -0.183  -0.035
    1UNL    H26   55  -0.581  -0.164  -0.202
    1UNL    H27   56  -0.586  -0.011  -0.114
    1UNL    H28   57  -0.563  -0.013  -0.290
   0.00000   0.00000   0.00000   0.00000   0.00000   0.00000   0.00000   0.00000   0.00000
Generated with MDTraj, t= 64.0
 57
    1UNL     C1    1  -0.483  -0.311   0.257
    1UNL     O1    2  -0.464  -0.177   0.269
    1UNL     C2    3  -0.497  -0.107   0.148
    1UNL     C3    4  -0.445   0.034   0.145
    1UNL     C4    5  -0.325   0.036   0.044
    1UNL     C5    6  -0.185   0.005   0.109
    1UNL     C6    7  -0.066  -0.003   0.009
    1UNL     C7    8  -0.064   0.126  -0.082
    1UNL     C8    9   0.032   0.108  -0.199
    1UNL     O2   10   0.157   0.052  -0.161
    1UNL     C9   11   0.228   0.148  -0.092
    1UNL     O3   12   0.176   0.256  -0.074
    1UNL    C10   13   0.365   0.126  -0.055
    1UNL    C11   14   0.436   0.018  -0.099
    1UNL    C12   15   0.570  -0.019  -0.051
    1UNL    C13   16   0.647  -0.115  -0.118
    1UNL    C14   17   0.767  -0.154  -0.068
    1UNL    C15   18   0.814  -0.095   0.045
    1UNL     O4   19   0.937  -0.138   0.103
    1UNL    C16   20   0.741   0.006   0.109
    1UNL     O5   21   0.787   0.058   0.227
    1UNL    C17   22   0.617   0.040   0.063
    1UNL    C18   23  -0.200   0.174  -0.133
    1UNL    C19   24  -0.327   0.169  -0.045
    1UNL     O6   25  -0.355   0.288   0.027
    1UNL    C20   26  -0.363  -0.093  -0.046
    1UNL     O7   27  -0.419  -0.054  -0.170
    1UNL    C21   28  -0.557  -0.093  -0.176
    1UNL     O8   29  -0.452  -0.174   0.027
    1UNL     H1   30  -0.412  -0.345   0.182
    1UNL     H2   31  -0.457  -0.367   0.343
    1UNL     H3   32  -0.581  -0.341   0.217
    1UNL     H4   33  -0.602  -0.112   0.134
    1UNL     H5   34  -0.527   0.106   0.106
    1UNL     H6   35  -0.418   0.074   0.249
    1UNL     H7   36  -0.197  -0.079   0.176
    1UNL     H8   37  -0.145   0.070   0.182
    1UNL     H9   38   0.027  -0.014   0.068
    1UNL    H10   39  -0.062  -0.099  -0.052
    1UNL    H11   40  -0.021   0.208  -0.028
    1UNL    H12   41   0.065   0.207  -0.240
    1UNL    H13   42  -0.002   0.042  -0.279
    1UNL    H14   43   0.413   0.197   0.009
    1UNL    H15   44   0.387  -0.057  -0.157
    1UNL    H16   45   0.615  -0.171  -0.208
    1UNL    H17   46   0.822  -0.240  -0.104
    1UNL    H18   47   0.969  -0.224   0.066
    1UNL    H19   48   0.872   0.013   0.250
    1UNL    H20   49   0.559   0.098   0.129
    1UNL    H21   50  -0.197   0.275  -0.171
    1UNL    H22   51  -0.225   0.114  -0.224
    1UNL    H23   52  -0.417   0.154  -0.103
    1UNL    H24   53  -0.277   0.336   0.061
    1UNL    H25   54  -0.270  -0.166  -0.060
    1UNL    H26   55  -0.563  -0.196  -0.141
    1UNL    H27   56  -0.622  -0.029  -0.113
    1UNL    H28   57  -0.604  -0.095  -0.273
   0.00000   0.00000   0.00000   0.00000   0.00000   0.00000   0.00000   0.00000   0.00000
Generated with MDTraj, t= 65.0
 57
    1UNL     C1    1  -0.538  -0.294   0.267
    1UNL     O1    2  -0.487  -0.169   0.264
    1UNL     C2    3  -0.504  -0.104   0.136
    1UNL     C3    4  -0.446   0.036   0.125
    1UNL     C4    5  -0.327   0.021   0.026
    1UNL     C5    6  -0.191  -0.010   0.100
    1UNL     C6    7  -0.067  -0.005  -0.001
    1UNL     C7    8  -0.071   0.126  -0.092
    1UNL     C8    9   0.039   0.109  -0.190
    1UNL     O2   10   0.166   0.063  -0.140
    1UNL     C9   11   0.224   0.166  -0.069
    1UNL     O3   12   0.167   0.272  -0.046
    1UNL    C10   13   0.361   0.142  -0.030
    1UNL    C11   14   0.432   0.038  -0.074
    1UNL    C12   15   0.566  -0.010  -0.033
    1UNL    C13   16   0.617  -0.121  -0.097
    1UNL    C14   17   0.748  -0.165  -0.064
    1UNL    C15   18   0.827  -0.103   0.032
    1UNL     O4   19   0.952  -0.137   0.075
    1UNL    C16   20   0.768   0.007   0.106
    1UNL     O5   21   0.842   0.069   0.206
    1UNL    C17   22   0.641   0.051   0.070
    1UNL    C18   23  -0.207   0.128  -0.161
    1UNL    C19   24  -0.313   0.160  -0.051
    1UNL     O6   25  -0.294   0.276   0.036
    1UNL    C20   26  -0.374  -0.099  -0.063
    1UNL     O7   27  -0.447  -0.056  -0.175
    1UNL    C21   28  -0.577  -0.096  -0.167
    1UNL     O8   29  -0.443  -0.191   0.033
    1UNL     H1   30  -0.512  -0.352   0.175
    1UNL     H2   31  -0.497  -0.350   0.348
    1UNL     H3   32  -0.649  -0.291   0.274
    1UNL     H4   33  -0.612  -0.105   0.129
    1UNL     H5   34  -0.533   0.107   0.098
    1UNL     H6   35  -0.411   0.075   0.226
    1UNL     H7   36  -0.190  -0.102   0.157
    1UNL     H8   37  -0.171   0.050   0.182
    1UNL     H9   38   0.033  -0.025   0.041
    1UNL    H10   39  -0.082  -0.098  -0.062
    1UNL    H11   40  -0.057   0.213  -0.032
    1UNL    H12   41   0.071   0.209  -0.228
    1UNL    H13   42   0.011   0.044  -0.273
    1UNL    H14   43   0.413   0.212   0.038
    1UNL    H15   44   0.385  -0.022  -0.150
    1UNL    H16   45   0.555  -0.158  -0.174
    1UNL    H17   46   0.774  -0.253  -0.117
    1UNL    H18   47   0.978  -0.220   0.031
    1UNL    H19   48   0.930   0.030   0.204
    1UNL    H20   49   0.591   0.139   0.113
    1UNL    H21   50  -0.226   0.206  -0.232
    1UNL    H22   51  -0.233   0.036  -0.224
    1UNL    H23   52  -0.409   0.179  -0.091
    1UNL    H24   53  -0.197   0.292   0.040
    1UNL    H25   54  -0.288  -0.166  -0.092
    1UNL    H26   55  -0.579  -0.203  -0.166
    1UNL    H27   56  -0.632  -0.048  -0.085
    1UNL    H28   57  -0.632  -0.066  -0.255
   0.00000   0.00000   0.00000   0.00000   0.00000   0.00000   0.00000   0.00000   0.00000
Generated with MDTraj, t= 66.0
 57
    1UNL     C1    1  -0.561  -0.284   0.268
    1UNL     O1    2  -0.505  -0.157   0.277
    1UNL     C2    3  -0.507  -0.091   0.147
    1UNL     C3    4  -0.421   0.034   0.144
    1UNL     C4    5  -0.326   0.009   0.025
    1UNL     C5    6  -0.179  -0.028   0.075
    1UNL     C6    7  -0.071  -0.041  -0.035
    1UNL     C7    8  -0.051   0.101  -0.103
    1UNL     C8    9   0.069   0.099  -0.196
    1UNL     O2   10   0.195   0.074  -0.137
    1UNL     C9   11   0.229   0.172  -0.051
    1UNL     O3   12   0.164   0.272  -0.017
    1UNL    C10   13   0.360   0.153   0.009
    1UNL    C11   14   0.425   0.041  -0.020
    1UNL    C12   15   0.558  -0.007  -0.001
    1UNL    C13   16   0.603  -0.120  -0.068
    1UNL    C14   17   0.735  -0.165  -0.065
    1UNL    C15   18   0.823  -0.095   0.019
    1UNL     O4   19   0.952  -0.139   0.046
    1UNL    C16   20   0.775   0.023   0.091
    1UNL     O5   21   0.874   0.084   0.161
    1UNL    C17   22   0.647   0.066   0.079
    1UNL    C18   23  -0.184   0.133  -0.163
    1UNL    C19   24  -0.312   0.143  -0.062
    1UNL     O6   25  -0.300   0.251   0.029
    1UNL    C20   26  -0.394  -0.106  -0.061
    1UNL     O7   27  -0.453  -0.070  -0.186
    1UNL    C21   28  -0.591  -0.071  -0.187
    1UNL     O8   29  -0.479  -0.184   0.036
    1UNL     H1   30  -0.502  -0.357   0.204
    1UNL     H2   31  -0.568  -0.330   0.364
    1UNL     H3   32  -0.666  -0.271   0.227
    1UNL     H4   33  -0.615  -0.065   0.147
    1UNL     H5   34  -0.495   0.121   0.137
    1UNL     H6   35  -0.373   0.054   0.245
    1UNL     H7   36  -0.182  -0.118   0.134
    1UNL     H8   37  -0.137   0.032   0.149
    1UNL     H9   38   0.023  -0.075   0.009
    1UNL    H10   39  -0.096  -0.123  -0.107
    1UNL    H11   40  -0.032   0.174  -0.027
    1UNL    H12   41   0.085   0.197  -0.244
    1UNL    H13   42   0.061   0.019  -0.269
    1UNL    H14   43   0.407   0.235   0.050
    1UNL    H15   44   0.376  -0.030  -0.088
    1UNL    H16   45   0.541  -0.179  -0.140
    1UNL    H17   46   0.777  -0.244  -0.134
    1UNL    H18   47   0.967  -0.227   0.007
    1UNL    H19   48   0.952   0.021   0.161
    1UNL    H20   49   0.636   0.170   0.106
    1UNL    H21   50  -0.183   0.229  -0.208
    1UNL    H22   51  -0.212   0.073  -0.256
    1UNL    H23   52  -0.405   0.164  -0.109
    1UNL    H24   53  -0.343   0.337  -0.000
    1UNL    H25   54  -0.317  -0.176  -0.079
    1UNL    H26   55  -0.621  -0.170  -0.157
    1UNL    H27   56  -0.633   0.012  -0.131
    1UNL    H28   57  -0.630  -0.060  -0.288
   0.00000   0.00000   0.00000   0.00000   0.00000   0.00000   0.00000   0.00000   0.00000
Generated with MDTraj, t= 67.0
 57
    1UNL     C1    1  -0.570  -0.273   0.250
    1UNL     O1    2  -0.528  -0.140   0.264
    1UNL     C2    3  -0.508  -0.082   0.141
    1UNL     C3    4  -0.404   0.027   0.150
    1UNL     C4    5  -0.317   0.004   0.028
    1UNL     C5    6  -0.175  -0.055   0.066
    1UNL     C6    7  -0.067  -0.055  -0.036
    1UNL     C7    8  -0.065   0.087  -0.111
    1UNL     C8    9   0.060   0.116  -0.189
    1UNL     O2   10   0.182   0.074  -0.127
    1UNL     C9   11   0.228   0.164  -0.035
    1UNL     O3   12   0.161   0.262   0.005
    1UNL    C10   13   0.359   0.130   0.025
    1UNL    C11   14   0.422   0.028  -0.031
    1UNL    C12   15   0.561  -0.016   0.004
    1UNL    C13   16   0.596  -0.142  -0.034
    1UNL    C14   17   0.730  -0.174  -0.029
    1UNL    C15   18   0.829  -0.084   0.013
    1UNL     O4   19   0.964  -0.115   0.024
    1UNL    C16   20   0.790   0.034   0.071
    1UNL     O5   21   0.884   0.108   0.139
    1UNL    C17   22   0.654   0.071   0.066
    1UNL    C18   23  -0.197   0.124  -0.176
    1UNL    C19   24  -0.308   0.132  -0.064
    1UNL     O6   25  -0.301   0.240   0.020
    1UNL    C20   26  -0.393  -0.113  -0.058
    1UNL     O7   27  -0.449  -0.072  -0.180
    1UNL    C21   28  -0.586  -0.030  -0.180
    1UNL     O8   29  -0.484  -0.173   0.034
    1UNL     H1   30  -0.514  -0.331   0.172
    1UNL     H2   31  -0.560  -0.319   0.345
    1UNL     H3   32  -0.680  -0.261   0.226
    1UNL     H4   33  -0.602  -0.024   0.111
    1UNL     H5   34  -0.449   0.130   0.157
    1UNL     H6   35  -0.348   0.014   0.248
    1UNL     H7   36  -0.183  -0.152   0.114
    1UNL     H8   37  -0.134  -0.001   0.145
    1UNL     H9   38   0.033  -0.082   0.005
    1UNL    H10   39  -0.092  -0.133  -0.110
    1UNL    H11   40  -0.048   0.157  -0.031
    1UNL    H12   41   0.082   0.223  -0.197
    1UNL    H13   42   0.063   0.071  -0.287
    1UNL    H14   43   0.396   0.210   0.095
    1UNL    H15   44   0.367  -0.038  -0.095
    1UNL    H16   45   0.522  -0.200  -0.079
    1UNL    H17   46   0.760  -0.269  -0.051
    1UNL    H18   47   0.993  -0.184  -0.039
    1UNL    H19   48   0.967   0.063   0.122
    1UNL    H20   49   0.625   0.173   0.082
    1UNL    H21   50  -0.194   0.214  -0.232
    1UNL    H22   51  -0.239   0.053  -0.255
    1UNL    H23   52  -0.403   0.142  -0.112
    1UNL    H24   53  -0.248   0.220   0.100
    1UNL    H25   54  -0.325  -0.185  -0.078
    1UNL    H26   55  -0.645  -0.119  -0.161
    1UNL    H27   56  -0.598   0.055  -0.111
    1UNL    H28   57  -0.623   0.012  -0.276
   0.00000   0.00000   0.00000   0.00000   0.00000   0.00000   0.00000   0.00000   0.00000
Generated with MDTraj, t= 68.0
 57
    1UNL     C1    1  -0.610  -0.275   0.243
    1UNL     O1    2  -0.537  -0.157   0.254
    1UNL     C2    3  -0.524  -0.088   0.128
    1UNL     C3    4  -0.417   0.026   0.135
    1UNL     C4    5  -0.318   0.006   0.023
    1UNL     C5    6  -0.182  -0.044   0.076
    1UNL     C6    7  -0.073  -0.044  -0.029
    1UNL     C7    8  -0.055   0.098  -0.096
    1UNL     C8    9   0.057   0.109  -0.196
    1UNL     O2   10   0.181   0.061  -0.144
    1UNL     C9   11   0.226   0.138  -0.040
    1UNL     O3   12   0.153   0.221   0.016
    1UNL    C10   13   0.365   0.112   0.010
    1UNL    C11   14   0.427   0.002  -0.018
    1UNL    C12   15   0.564  -0.028   0.006
    1UNL    C13   16   0.616  -0.155  -0.027
    1UNL    C14   17   0.750  -0.176  -0.021
    1UNL    C15   18   0.834  -0.079   0.025
    1UNL     O4   19   0.968  -0.097   0.054
    1UNL    C16   20   0.784   0.047   0.062
    1UNL     O5   21   0.877   0.145   0.082
    1UNL    C17   22   0.649   0.070   0.052
    1UNL    C18   23  -0.187   0.135  -0.155
    1UNL    C19   24  -0.300   0.146  -0.050
    1UNL     O6   25  -0.289   0.253   0.044
    1UNL    C20   26  -0.389  -0.109  -0.067
    1UNL     O7   27  -0.453  -0.057  -0.179
    1UNL    C21   28  -0.582  -0.019  -0.153
    1UNL     O8   29  -0.468  -0.179   0.028
    1UNL     H1   30  -0.541  -0.361   0.239
    1UNL     H2   31  -0.667  -0.279   0.331
    1UNL     H3   32  -0.675  -0.258   0.154
    1UNL     H4   33  -0.619  -0.040   0.083
    1UNL     H5   34  -0.458   0.128   0.122
    1UNL     H6   35  -0.364   0.028   0.233
    1UNL     H7   36  -0.188  -0.137   0.129
    1UNL     H8   37  -0.150   0.026   0.149
    1UNL     H9   38   0.030  -0.070   0.011
    1UNL    H10   39  -0.099  -0.110  -0.112
    1UNL    H11   40  -0.025   0.164  -0.018
    1UNL    H12   41   0.081   0.211  -0.226
    1UNL    H13   42   0.045   0.049  -0.284
    1UNL    H14   43   0.414   0.179   0.078
    1UNL    H15   44   0.368  -0.077  -0.070
    1UNL    H16   45   0.556  -0.229  -0.084
    1UNL    H17   46   0.790  -0.278  -0.046
    1UNL    H18   47   0.992  -0.185   0.017
    1UNL    H19   48   0.966   0.106   0.107
    1UNL    H20   49   0.623   0.176   0.066
    1UNL    H21   50  -0.186   0.229  -0.206
    1UNL    H22   51  -0.210   0.070  -0.246
    1UNL    H23   52  -0.391   0.172  -0.102
    1UNL    H24   53  -0.202   0.296   0.043
    1UNL    H25   54  -0.317  -0.166  -0.104
    1UNL    H26   55  -0.634  -0.113  -0.130
    1UNL    H27   56  -0.573   0.067  -0.083
    1UNL    H28   57  -0.633   0.027  -0.240
   0.00000   0.00000   0.00000   0.00000   0.00000   0.00000   0.00000   0.00000   0.00000
Generated with MDTraj, t= 69.0
 57
    1UNL     C1    1  -0.627  -0.290   0.210
    1UNL     O1    2  -0.551  -0.178   0.250
    1UNL     C2    3  -0.528  -0.093   0.134
    1UNL     C3    4  -0.427   0.021   0.152
    1UNL     C4    5  -0.323   0.021   0.040
    1UNL     C5    6  -0.181  -0.029   0.093
    1UNL     C6    7  -0.077  -0.044  -0.024
    1UNL     C7    8  -0.056   0.102  -0.087
    1UNL     C8    9   0.052   0.087  -0.190
    1UNL     O2   10   0.171   0.025  -0.142
    1UNL     C9   11   0.228   0.110  -0.045
    1UNL     O3   12   0.168   0.207  -0.002
    1UNL    C10   13   0.360   0.086  -0.001
    1UNL    C11   14   0.436  -0.013  -0.051
    1UNL    C12   15   0.576  -0.031  -0.018
    1UNL    C13   16   0.624  -0.158  -0.006
    1UNL    C14   17   0.763  -0.179   0.020
    1UNL    C15   18   0.848  -0.074   0.045
    1UNL     O4   19   0.983  -0.076   0.064
    1UNL    C16   20   0.792   0.056   0.043
    1UNL     O5   21   0.869   0.163   0.076
    1UNL    C17   22   0.659   0.077   0.000
    1UNL    C18   23  -0.196   0.146  -0.137
    1UNL    C19   24  -0.305   0.155  -0.026
    1UNL     O6   25  -0.279   0.267   0.052
    1UNL    C20   26  -0.392  -0.083  -0.052
    1UNL     O7   27  -0.442  -0.024  -0.173
    1UNL    C21   28  -0.582  -0.030  -0.177
    1UNL     O8   29  -0.489  -0.157   0.016
    1UNL     H1   30  -0.598  -0.315   0.108
    1UNL     H2   31  -0.587  -0.364   0.272
    1UNL     H3   32  -0.734  -0.271   0.230
    1UNL     H4   33  -0.629  -0.046   0.101
    1UNL     H5   34  -0.486   0.113   0.157
    1UNL     H6   35  -0.375  -0.002   0.247
    1UNL     H7   36  -0.197  -0.129   0.126
    1UNL     H8   37  -0.146   0.023   0.179
    1UNL     H9   38   0.028  -0.073   0.004
    1UNL    H10   39  -0.113  -0.106  -0.107
    1UNL    H11   40  -0.018   0.166  -0.009
    1UNL    H12   41   0.087   0.179  -0.236
    1UNL    H13   42   0.025   0.014  -0.265
    1UNL    H14   43   0.388   0.134   0.088
    1UNL    H15   44   0.396  -0.076  -0.123
    1UNL    H16   45   0.567  -0.245  -0.027
    1UNL    H17   46   0.806  -0.276   0.023
    1UNL    H18   47   1.018  -0.169   0.054
    1UNL    H19   48   0.963   0.138   0.078
    1UNL    H20   49   0.619   0.172  -0.021
    1UNL    H21   50  -0.188   0.239  -0.189
    1UNL    H22   51  -0.239   0.087  -0.224
    1UNL    H23   52  -0.400   0.185  -0.075
    1UNL    H24   53  -0.185   0.280   0.076
    1UNL    H25   54  -0.315  -0.144  -0.075
    1UNL    H26   55  -0.608  -0.135  -0.155
    1UNL    H27   56  -0.611   0.051  -0.107
    1UNL    H28   57  -0.632  -0.003  -0.275
   0.00000   0.00000   0.00000   0.00000   0.00000   0.00000   0.00000   0.00000   0.00000
Generated with MDTraj, t= 70.0
 57
    1UNL     C1    1  -0.613  -0.292   0.216
    1UNL     O1    2  -0.546  -0.169   0.240
    1UNL     C2    3  -0.552  -0.080   0.124
    1UNL     C3    4  -0.442   0.028   0.150
    1UNL     C4    5  -0.334   0.015   0.049
    1UNL     C5    6  -0.209  -0.055   0.105
    1UNL     C6    7  -0.095  -0.055   0.006
    1UNL     C7    8  -0.064   0.084  -0.069
    1UNL     C8    9   0.037   0.069  -0.184
    1UNL     O2   10   0.164   0.021  -0.137
    1UNL     C9   11   0.230   0.114  -0.067
    1UNL     O3   12   0.179   0.216  -0.026
    1UNL    C10   13   0.372   0.092  -0.035
    1UNL    C11   14   0.443  -0.021  -0.055
    1UNL    C12   15   0.587  -0.040  -0.030
    1UNL    C13   16   0.651  -0.168  -0.020
    1UNL    C14   17   0.780  -0.180   0.028
    1UNL    C15   18   0.853  -0.067   0.053
    1UNL     O4   19   0.985  -0.062   0.110
    1UNL    C16   20   0.798   0.060   0.027
    1UNL     O5   21   0.876   0.175   0.039
    1UNL    C17   22   0.664   0.074  -0.003
    1UNL    C18   23  -0.194   0.146  -0.118
    1UNL    C19   24  -0.302   0.157  -0.006
    1UNL     O6   25  -0.256   0.239   0.099
    1UNL    C20   26  -0.406  -0.077  -0.054
    1UNL     O7   27  -0.437  -0.009  -0.173
    1UNL    C21   28  -0.570  -0.026  -0.218
    1UNL     O8   29  -0.518  -0.142  -0.004
    1UNL     H1   30  -0.604  -0.309   0.109
    1UNL     H2   31  -0.548  -0.364   0.257
    1UNL     H3   32  -0.713  -0.297   0.262
    1UNL     H4   33  -0.658  -0.033   0.123
    1UNL     H5   34  -0.496   0.119   0.126
    1UNL     H6   35  -0.399   0.028   0.250
    1UNL     H7   36  -0.230  -0.156   0.127
    1UNL     H8   37  -0.178  -0.015   0.201
    1UNL     H9   38   0.004  -0.076   0.058
    1UNL    H10   39  -0.113  -0.122  -0.080
    1UNL    H11   40  -0.031   0.145   0.014
    1UNL    H12   41   0.070   0.169  -0.215
    1UNL    H13   42   0.001   0.012  -0.270
    1UNL    H14   43   0.420   0.182   0.012
    1UNL    H15   44   0.385  -0.112  -0.086
    1UNL    H16   45   0.583  -0.254  -0.018
    1UNL    H17   46   0.815  -0.281   0.036
    1UNL    H18   47   1.016  -0.156   0.120
    1UNL    H19   48   0.961   0.142   0.079
    1UNL    H20   49   0.624   0.177   0.002
    1UNL    H21   50  -0.179   0.244  -0.163
    1UNL    H22   51  -0.241   0.098  -0.206
    1UNL    H23   52  -0.388   0.211  -0.057
    1UNL    H24   53  -0.254   0.336   0.083
    1UNL    H25   54  -0.345  -0.155  -0.088
    1UNL    H26   55  -0.582  -0.129  -0.249
    1UNL    H27   56  -0.631   0.011  -0.135
    1UNL    H28   57  -0.592   0.042  -0.303
   0.00000   0.00000   0.00000   0.00000   0.00000   0.00000   0.00000   0.00000   0.00000
Generated with MDTraj, t= 71.0
 57
    1UNL     C1    1  -0.604  -0.295   0.192
    1UNL     O1    2  -0.521  -0.184   0.219
    1UNL     C2    3  -0.553  -0.078   0.137
    1UNL     C3    4  -0.456   0.037   0.159
    1UNL     C4    5  -0.346   0.023   0.053
    1UNL     C5    6  -0.228  -0.065   0.109
    1UNL     C6    7  -0.118  -0.093   0.011
    1UNL     C7    8  -0.064   0.046  -0.051
    1UNL     C8    9   0.043   0.022  -0.163
    1UNL     O2   10   0.176   0.000  -0.106
    1UNL     C9   11   0.234   0.121  -0.082
    1UNL     O3   12   0.175   0.228  -0.077
    1UNL    C10   13   0.380   0.112  -0.048
    1UNL    C11   14   0.447  -0.004  -0.072
    1UNL    C12   15   0.586  -0.029  -0.028
    1UNL    C13   16   0.634  -0.156  -0.000
    1UNL    C14   17   0.762  -0.172   0.053
    1UNL    C15   18   0.852  -0.061   0.066
    1UNL     O4   19   0.987  -0.074   0.087
    1UNL    C16   20   0.804   0.071   0.022
    1UNL     O5   21   0.885   0.178   0.041
    1UNL    C17   22   0.671   0.081  -0.019
    1UNL    C18   23  -0.177   0.139  -0.094
    1UNL    C19   24  -0.289   0.161   0.009
    1UNL     O6   25  -0.243   0.240   0.113
    1UNL    C20   26  -0.427  -0.054  -0.058
    1UNL     O7   27  -0.456   0.029  -0.171
    1UNL    C21   28  -0.556  -0.035  -0.246
    1UNL     O8   29  -0.534  -0.124   0.002
    1UNL     H1   30  -0.540  -0.363   0.136
    1UNL     H2   31  -0.625  -0.343   0.287
    1UNL     H3   32  -0.699  -0.270   0.139
    1UNL     H4   33  -0.661  -0.046   0.159
    1UNL     H5   34  -0.489   0.140   0.157
    1UNL     H6   35  -0.412   0.016   0.254
    1UNL     H7   36  -0.272  -0.155   0.142
    1UNL     H8   37  -0.177  -0.029   0.199
    1UNL     H9   38  -0.024  -0.131   0.064
    1UNL    H10   39  -0.149  -0.153  -0.079
    1UNL    H11   40  -0.014   0.094   0.034
    1UNL    H12   41   0.054   0.119  -0.214
    1UNL    H13   42   0.030  -0.059  -0.239
    1UNL    H14   43   0.429   0.192  -0.003
    1UNL    H15   44   0.394  -0.081  -0.121
    1UNL    H16   45   0.562  -0.236  -0.008
    1UNL    H17   46   0.804  -0.271   0.081
    1UNL    H18   47   1.003  -0.162   0.129
    1UNL    H19   48   0.970   0.143   0.078
    1UNL    H20   49   0.642   0.183  -0.029
    1UNL    H21   50  -0.145   0.240  -0.119
    1UNL    H22   51  -0.219   0.114  -0.192
    1UNL    H23   52  -0.372   0.216  -0.049
    1UNL    H24   53  -0.150   0.273   0.108
    1UNL    H25   54  -0.365  -0.134  -0.101
    1UNL    H26   55  -0.533  -0.139  -0.253
    1UNL    H27   56  -0.646  -0.025  -0.188
    1UNL    H28   57  -0.563   0.010  -0.347
   0.00000   0.00000   0.00000   0.00000   0.00000   0.00000   0.00000   0.00000   0.00000
Generated with MDTraj, t= 72.0
 57
    1UNL     C1    1  -0.565  -0.296   0.160
    1UNL     O1    2  -0.529  -0.182   0.230
    1UNL     C2    3  -0.561  -0.067   0.155
    1UNL     C3    4  -0.455   0.039   0.171
    1UNL     C4    5  -0.347   0.011   0.061
    1UNL     C5    6  -0.233  -0.073   0.116
    1UNL     C6    7  -0.128  -0.104   0.008
    1UNL     C7    8  -0.061   0.032  -0.049
    1UNL     C8    9   0.043  -0.006  -0.160
    1UNL     O2   10   0.169  -0.011  -0.107
    1UNL     C9   11   0.229   0.114  -0.093
    1UNL     O3   12   0.165   0.213  -0.126
    1UNL    C10   13   0.367   0.119  -0.058
    1UNL    C11   14   0.438   0.015  -0.012
    1UNL    C12   15   0.579  -0.004  -0.006
    1UNL    C13   16   0.627  -0.134   0.014
    1UNL    C14   17   0.758  -0.162   0.042
    1UNL    C15   18   0.850  -0.058   0.053
    1UNL     O4   19   0.982  -0.085   0.085
    1UNL    C16   20   0.809   0.074   0.030
    1UNL     O5   21   0.902   0.173   0.028
    1UNL    C17   22   0.677   0.098  -0.005
    1UNL    C18   23  -0.175   0.116  -0.106
    1UNL    C19   24  -0.278   0.149   0.013
    1UNL     O6   25  -0.224   0.216   0.122
    1UNL    C20   26  -0.434  -0.055  -0.053
    1UNL     O7   27  -0.452   0.039  -0.162
    1UNL    C21   28  -0.536  -0.004  -0.270
    1UNL     O8   29  -0.561  -0.090   0.006
    1UNL     H1   30  -0.509  -0.301   0.065
    1UNL     H2   31  -0.540  -0.383   0.225
    1UNL     H3   32  -0.675  -0.300   0.143
    1UNL     H4   33  -0.661  -0.032   0.188
    1UNL     H5   34  -0.484   0.140   0.161
    1UNL     H6   35  -0.413   0.034   0.268
    1UNL     H7   36  -0.270  -0.169   0.141
    1UNL     H8   37  -0.195  -0.030   0.209
    1UNL     H9   38  -0.042  -0.167   0.049
    1UNL    H10   39  -0.174  -0.149  -0.088
    1UNL    H11   40  -0.004   0.075   0.036
    1UNL    H12   41   0.060   0.066  -0.243
    1UNL    H13   42   0.023  -0.112  -0.194
    1UNL    H14   43   0.417   0.210  -0.087
    1UNL    H15   44   0.383  -0.081  -0.016
    1UNL    H16   45   0.557  -0.214   0.013
    1UNL    H17   46   0.795  -0.258   0.045
    1UNL    H18   47   0.998  -0.169   0.133
    1UNL    H19   48   0.984   0.124   0.012
    1UNL    H20   49   0.631   0.194   0.002
    1UNL    H21   50  -0.138   0.212  -0.148
    1UNL    H22   51  -0.219   0.080  -0.197
    1UNL    H23   52  -0.368   0.201  -0.036
    1UNL    H24   53  -0.172   0.299   0.105
    1UNL    H25   54  -0.384  -0.148  -0.099
    1UNL    H26   55  -0.475  -0.049  -0.345
    1UNL    H27   56  -0.593  -0.090  -0.239
    1UNL    H28   57  -0.591   0.084  -0.310
   0.00000   0.00000   0.00000   0.00000   0.00000   0.00000   0.00000   0.00000   0.00000
Generated with MDTraj, t= 73.0
 57
    1UNL     C1    1  -0.556  -0.295   0.139
    1UNL     O1    2  -0.530  -0.183   0.218
    1UNL     C2    3  -0.553  -0.054   0.153
    1UNL     C3    4  -0.444   0.051   0.176
    1UNL     C4    5  -0.344   0.017   0.057
    1UNL     C5    6  -0.235  -0.090   0.109
    1UNL     C6    7  -0.130  -0.120  -0.005
    1UNL     C7    8  -0.061   0.016  -0.043
    1UNL     C8    9   0.042  -0.014  -0.156
    1UNL     O2   10   0.175  -0.015  -0.111
    1UNL     C9   11   0.231   0.108  -0.110
    1UNL     O3   12   0.182   0.216  -0.141
    1UNL    C10   13   0.372   0.110  -0.063
    1UNL    C11   14   0.428  -0.004  -0.023
    1UNL    C12   15   0.566  -0.011   0.016
    1UNL    C13   16   0.618  -0.138   0.048
    1UNL    C14   17   0.750  -0.150   0.073
    1UNL    C15   18   0.843  -0.049   0.056
    1UNL     O4   19   0.980  -0.073   0.040
    1UNL    C16   20   0.789   0.078   0.026
    1UNL     O5   21   0.878   0.186   0.028
    1UNL    C17   22   0.656   0.099   0.017
    1UNL    C18   23  -0.165   0.116  -0.091
    1UNL    C19   24  -0.263   0.153   0.023
    1UNL     O6   25  -0.193   0.206   0.130
    1UNL    C20   26  -0.434  -0.044  -0.051
    1UNL     O7   27  -0.445   0.035  -0.166
    1UNL    C21   28  -0.546  -0.005  -0.253
    1UNL     O8   29  -0.558  -0.074   0.007
    1UNL     H1   30  -0.558  -0.277   0.031
    1UNL     H2   31  -0.489  -0.382   0.164
    1UNL     H3   32  -0.655  -0.334   0.167
    1UNL     H4   33  -0.651  -0.022   0.186
    1UNL     H5   34  -0.478   0.149   0.177
    1UNL     H6   35  -0.404   0.035   0.272
    1UNL     H7   36  -0.281  -0.173   0.154
    1UNL     H8   37  -0.179  -0.041   0.190
    1UNL     H9   38  -0.047  -0.194   0.025
    1UNL    H10   39  -0.182  -0.150  -0.104
    1UNL    H11   40  -0.016   0.048   0.054
    1UNL    H12   41   0.027   0.068  -0.227
    1UNL    H13   42   0.028  -0.116  -0.207
    1UNL    H14   43   0.431   0.202  -0.069
    1UNL    H15   44   0.374  -0.094  -0.042
    1UNL    H16   45   0.552  -0.226   0.041
    1UNL    H17   46   0.787  -0.254   0.101
    1UNL    H18   47   0.992  -0.166   0.065
    1UNL    H19   48   0.971   0.155   0.052
    1UNL    H20   49   0.613   0.200   0.023
    1UNL    H21   50  -0.124   0.207  -0.142
    1UNL    H22   51  -0.227   0.087  -0.174
    1UNL    H23   52  -0.336   0.229  -0.019
    1UNL    H24   53  -0.165   0.298   0.117
    1UNL    H25   54  -0.389  -0.146  -0.093
    1UNL    H26   55  -0.538  -0.112  -0.266
    1UNL    H27   56  -0.646  -0.001  -0.209
    1UNL    H28   57  -0.527   0.057  -0.344
   0.00000   0.00000   0.00000   0.00000   0.00000   0.00000   0.00000   0.00000   0.00000
Generated with MDTraj, t= 74.0
 57
    1UNL     C1    1  -0.602  -0.283   0.151
    1UNL     O1    2  -0.508  -0.194   0.199
    1UNL     C2    3  -0.537  -0.061   0.151
    1UNL     C3    4  -0.414   0.036   0.185
    1UNL     C4    5  -0.327   0.018   0.063
    1UNL     C5    6  -0.224  -0.091   0.106
    1UNL     C6    7  -0.124  -0.116  -0.006
    1UNL     C7    8  -0.059   0.020  -0.059
    1UNL     C8    9   0.032  -0.002  -0.182
    1UNL     O2   10   0.162  -0.033  -0.138
    1UNL     C9   11   0.221   0.090  -0.110
    1UNL     O3   12   0.169   0.199  -0.130
    1UNL    C10   13   0.356   0.090  -0.047
    1UNL    C11   14   0.423  -0.021   0.001
    1UNL    C12   15   0.566  -0.020   0.026
    1UNL    C13   16   0.626  -0.145   0.043
    1UNL    C14   17   0.759  -0.153   0.066
    1UNL    C15   18   0.842  -0.038   0.056
    1UNL     O4   19   0.975  -0.043   0.074
    1UNL    C16   20   0.782   0.084   0.023
    1UNL     O5   21   0.875   0.192   0.007
    1UNL    C17   22   0.647   0.096   0.013
    1UNL    C18   23  -0.166   0.124  -0.098
    1UNL    C19   24  -0.263   0.151   0.024
    1UNL     O6   25  -0.193   0.213   0.129
    1UNL    C20   26  -0.429  -0.044  -0.048
    1UNL     O7   27  -0.422   0.034  -0.173
    1UNL    C21   28  -0.548   0.023  -0.239
    1UNL     O8   29  -0.561  -0.067   0.012
    1UNL     H1   30  -0.583  -0.329   0.055
    1UNL     H2   31  -0.628  -0.364   0.225
    1UNL     H3   32  -0.696  -0.231   0.139
    1UNL     H4   33  -0.622  -0.020   0.198
    1UNL     H5   34  -0.454   0.130   0.200
    1UNL     H6   35  -0.371   0.016   0.278
    1UNL     H7   36  -0.276  -0.174   0.142
    1UNL     H8   37  -0.169  -0.049   0.191
    1UNL     H9   38  -0.038  -0.188   0.025
    1UNL    H10   39  -0.180  -0.153  -0.100
    1UNL    H11   40   0.008   0.049   0.028
    1UNL    H12   41   0.041   0.087  -0.246
    1UNL    H13   42  -0.013  -0.090  -0.241
    1UNL    H14   43   0.413   0.175  -0.068
    1UNL    H15   44   0.369  -0.109   0.029
    1UNL    H16   45   0.569  -0.231   0.068
    1UNL    H17   46   0.816  -0.239   0.078
    1UNL    H18   47   0.999  -0.137   0.088
    1UNL    H19   48   0.964   0.161   0.017
    1UNL    H20   49   0.604   0.192   0.016
    1UNL    H21   50  -0.135   0.222  -0.142
    1UNL    H22   51  -0.219   0.088  -0.181
    1UNL    H23   52  -0.343   0.223  -0.002
    1UNL    H24   53  -0.155   0.301   0.109
    1UNL    H25   54  -0.411  -0.156  -0.092
    1UNL    H26   55  -0.579  -0.078  -0.213
    1UNL    H27   56  -0.633   0.079  -0.195
    1UNL    H28   57  -0.538   0.036  -0.350
   0.00000   0.00000   0.00000   0.00000   0.00000   0.00000   0.00000   0.00000   0.00000
Generated with MDTraj, t= 75.0
 57
    1UNL     C1    1  -0.634  -0.261   0.161
    1UNL     O1    2  -0.546  -0.179   0.231
    1UNL     C2    3  -0.541  -0.058   0.161
    1UNL     C3    4  -0.411   0.023   0.195
    1UNL     C4    5  -0.322   0.005   0.063
    1UNL     C5    6  -0.203  -0.095   0.091
    1UNL     C6    7  -0.117  -0.115  -0.028
    1UNL     C7    8  -0.056   0.019  -0.081
    1UNL     C8    9   0.040   0.007  -0.199
    1UNL     O2   10   0.174  -0.024  -0.158
    1UNL     C9   11   0.223   0.089  -0.095
    1UNL     O3   12   0.159   0.189  -0.074
    1UNL    C10   13   0.360   0.083  -0.061
    1UNL    C11   14   0.434  -0.028  -0.048
    1UNL    C12   15   0.573  -0.031  -0.012
    1UNL    C13   16   0.634  -0.148   0.047
    1UNL    C14   17   0.764  -0.147   0.086
    1UNL    C15   18   0.840  -0.031   0.081
    1UNL     O4   19   0.978  -0.024   0.094
    1UNL    C16   20   0.784   0.087   0.028
    1UNL     O5   21   0.863   0.198   0.022
    1UNL    C17   22   0.654   0.082  -0.020
    1UNL    C18   23  -0.165   0.122  -0.112
    1UNL    C19   24  -0.270   0.141   0.009
    1UNL     O6   25  -0.200   0.207   0.111
    1UNL    C20   26  -0.425  -0.055  -0.045
    1UNL     O7   27  -0.425   0.011  -0.168
    1UNL    C21   28  -0.551   0.047  -0.216
    1UNL     O8   29  -0.551  -0.065   0.016
    1UNL     H1   30  -0.641  -0.241   0.056
    1UNL     H2   31  -0.606  -0.369   0.176
    1UNL     H3   32  -0.733  -0.250   0.199
    1UNL     H4   33  -0.630  -0.006   0.179
    1UNL     H5   34  -0.445   0.118   0.221
    1UNL     H6   35  -0.365  -0.013   0.280
    1UNL     H7   36  -0.243  -0.185   0.125
    1UNL     H8   37  -0.145  -0.051   0.175
    1UNL     H9   38  -0.020  -0.174   0.002
    1UNL    H10   39  -0.165  -0.155  -0.124
    1UNL    H11   40   0.018   0.057  -0.003
    1UNL    H12   41   0.044   0.101  -0.254
    1UNL    H13   42   0.017  -0.081  -0.268
    1UNL    H14   43   0.400   0.179  -0.022
    1UNL    H15   44   0.388  -0.127  -0.065
    1UNL    H16   45   0.569  -0.236   0.062
    1UNL    H17   46   0.805  -0.243   0.122
    1UNL    H18   47   1.016  -0.115   0.102
    1UNL    H19   48   0.954   0.160   0.047
    1UNL    H20   49   0.603   0.162  -0.072
    1UNL    H21   50  -0.104   0.211  -0.141
    1UNL    H22   51  -0.222   0.117  -0.200
    1UNL    H23   52  -0.357   0.198  -0.019
    1UNL    H24   53  -0.102   0.204   0.098
    1UNL    H25   54  -0.399  -0.170  -0.074
    1UNL    H26   55  -0.586  -0.024  -0.290
    1UNL    H27   56  -0.628   0.065  -0.138
    1UNL    H28   57  -0.533   0.142  -0.274
   0.00000   0.00000   0.00000   0.00000   0.00000   0.00000   0.00000   0.00000   0.00000
Generated with MDTraj, t= 76.0
 57
    1UNL     C1    1  -0.670  -0.237   0.202
    1UNL     O1    2  -0.542  -0.180   0.226
    1UNL     C2    3  -0.534  -0.053   0.173
    1UNL     C3    4  -0.389   0.015   0.187
    1UNL     C4    5  -0.322  -0.012   0.050
    1UNL     C5    6  -0.209  -0.107   0.069
    1UNL     C6    7  -0.119  -0.115  -0.055
    1UNL     C7    8  -0.060   0.021  -0.097
    1UNL     C8    9   0.046   0.019  -0.202
    1UNL     O2   10   0.178  -0.014  -0.158
    1UNL     C9   11   0.222   0.087  -0.077
    1UNL     O3   12   0.160   0.182  -0.043
    1UNL    C10   13   0.365   0.084  -0.043
    1UNL    C11   14   0.448  -0.016  -0.075
    1UNL    C12   15   0.589  -0.025  -0.036
    1UNL    C13   16   0.645  -0.145   0.004
    1UNL    C14   17   0.768  -0.148   0.074
    1UNL    C15   18   0.845  -0.032   0.088
    1UNL     O4   19   0.964  -0.016   0.155
    1UNL    C16   20   0.790   0.089   0.026
    1UNL     O5   21   0.878   0.191   0.019
    1UNL    C17   22   0.668   0.088  -0.033
    1UNL    C18   23  -0.178   0.115  -0.133
    1UNL    C19   24  -0.266   0.127   0.002
    1UNL     O6   25  -0.204   0.191   0.108
    1UNL    C20   26  -0.440  -0.068  -0.038
    1UNL     O7   27  -0.431  -0.009  -0.166
    1UNL    C21   28  -0.555   0.050  -0.214
    1UNL     O8   29  -0.564  -0.041   0.031
    1UNL     H1   30  -0.681  -0.265   0.101
    1UNL     H2   31  -0.683  -0.325   0.272
    1UNL     H3   32  -0.747  -0.167   0.222
    1UNL     H4   33  -0.611  -0.000   0.217
    1UNL     H5   34  -0.392   0.117   0.205
    1UNL     H6   35  -0.342  -0.032   0.267
    1UNL     H7   36  -0.254  -0.199   0.094
    1UNL     H8   37  -0.158  -0.068   0.158
    1UNL     H9   38  -0.025  -0.186  -0.047
    1UNL    H10   39  -0.185  -0.144  -0.144
    1UNL    H11   40  -0.016   0.057   0.003
    1UNL    H12   41   0.051   0.114  -0.253
    1UNL    H13   42   0.008  -0.053  -0.284
    1UNL    H14   43   0.407   0.148   0.030
    1UNL    H15   44   0.403  -0.090  -0.131
    1UNL    H16   45   0.591  -0.235  -0.011
    1UNL    H17   46   0.804  -0.237   0.125
    1UNL    H18   47   1.003  -0.106   0.162
    1UNL    H19   48   0.947   0.172   0.085
    1UNL    H20   49   0.634   0.184  -0.068
    1UNL    H21   50  -0.157   0.222  -0.152
    1UNL    H22   51  -0.225   0.083  -0.223
    1UNL    H23   52  -0.347   0.191  -0.016
    1UNL    H24   53  -0.118   0.234   0.078
    1UNL    H25   54  -0.426  -0.187  -0.041
    1UNL    H26   55  -0.644  -0.002  -0.184
    1UNL    H27   56  -0.551   0.156  -0.190
    1UNL    H28   57  -0.560   0.046  -0.325
   0.00000   0.00000   0.00000   0.00000   0.00000   0.00000   0.00000   0.00000   0.00000
Generated with MDTraj, t= 77.0
 57
    1UNL     C1    1  -0.684  -0.207   0.208
    1UNL     O1    2  -0.553  -0.156   0.242
    1UNL     C2    3  -0.529  -0.035   0.180
    1UNL     C3    4  -0.374   0.009   0.190
    1UNL     C4    5  -0.318  -0.025   0.046
    1UNL     C5    6  -0.199  -0.121   0.046
    1UNL     C6    7  -0.117  -0.123  -0.089
    1UNL     C7    8  -0.061   0.017  -0.105
    1UNL     C8    9   0.046   0.020  -0.207
    1UNL     O2   10   0.177  -0.007  -0.164
    1UNL     C9   11   0.221   0.098  -0.081
    1UNL     O3   12   0.146   0.182  -0.031
    1UNL    C10   13   0.367   0.096  -0.045
    1UNL    C11   14   0.449  -0.007  -0.078
    1UNL    C12   15   0.592  -0.019  -0.041
    1UNL    C13   16   0.639  -0.142   0.002
    1UNL    C14   17   0.763  -0.151   0.066
    1UNL    C15   18   0.841  -0.036   0.080
    1UNL     O4   19   0.962  -0.030   0.151
    1UNL    C16   20   0.795   0.087   0.034
    1UNL     O5   21   0.869   0.203   0.053
    1UNL    C17   22   0.671   0.096  -0.023
    1UNL    C18   23  -0.175   0.106  -0.133
    1UNL    C19   24  -0.268   0.115  -0.005
    1UNL     O6   25  -0.201   0.183   0.096
    1UNL    C20   26  -0.435  -0.075  -0.038
    1UNL     O7   27  -0.437  -0.037  -0.172
    1UNL    C21   28  -0.545   0.047  -0.191
    1UNL     O8   29  -0.557  -0.045   0.042
    1UNL     H1   30  -0.704  -0.185   0.106
    1UNL     H2   31  -0.685  -0.320   0.229
    1UNL     H3   32  -0.755  -0.155   0.268
    1UNL     H4   33  -0.596   0.035   0.218
    1UNL     H5   34  -0.354   0.108   0.214
    1UNL     H6   35  -0.329  -0.055   0.258
    1UNL     H7   36  -0.236  -0.217   0.069
    1UNL     H8   37  -0.138  -0.090   0.131
    1UNL     H9   38  -0.025  -0.194  -0.072
    1UNL    H10   39  -0.180  -0.151  -0.181
    1UNL    H11   40  -0.025   0.047   0.001
    1UNL    H12   41   0.043   0.115  -0.253
    1UNL    H13   42   0.016  -0.048  -0.294
    1UNL    H14   43   0.406   0.189  -0.005
    1UNL    H15   44   0.404  -0.100  -0.122
    1UNL    H16   45   0.571  -0.227  -0.003
    1UNL    H17   46   0.787  -0.236   0.123
    1UNL    H18   47   1.009  -0.115   0.141
    1UNL    H19   48   0.952   0.167   0.092
    1UNL    H20   49   0.646   0.192  -0.063
    1UNL    H21   50  -0.135   0.205  -0.156
    1UNL    H22   51  -0.246   0.084  -0.211
    1UNL    H23   52  -0.357   0.167  -0.025
    1UNL    H24   53  -0.110   0.209   0.070
    1UNL    H25   54  -0.430  -0.195  -0.039
    1UNL    H26   55  -0.636   0.003  -0.154
    1UNL    H27   56  -0.505   0.138  -0.150
    1UNL    H28   57  -0.566   0.063  -0.298
   0.00000   0.00000   0.00000   0.00000   0.00000   0.00000   0.00000   0.00000   0.00000
Generated with MDTraj, t= 78.0
 57
    1UNL     C1    1  -0.695  -0.181   0.220
    1UNL     O1    2  -0.559  -0.149   0.254
    1UNL     C2    3  -0.516  -0.038   0.176
    1UNL     C3    4  -0.353  -0.016   0.195
    1UNL     C4    5  -0.297  -0.030   0.053
    1UNL     C5    6  -0.189  -0.137   0.049
    1UNL     C6    7  -0.100  -0.132  -0.073
    1UNL     C7    8  -0.060   0.011  -0.115
    1UNL     C8    9   0.046   0.019  -0.226
    1UNL     O2   10   0.179   0.003  -0.190
    1UNL     C9   11   0.212   0.104  -0.103
    1UNL     O3   12   0.129   0.188  -0.061
    1UNL    C10   13   0.342   0.098  -0.042
    1UNL    C11   14   0.426  -0.003  -0.061
    1UNL    C12   15   0.562  -0.014   0.003
    1UNL    C13   16   0.629  -0.138   0.007
    1UNL    C14   17   0.760  -0.144   0.044
    1UNL    C15   18   0.838  -0.036   0.071
    1UNL     O4   19   0.974  -0.049   0.102
    1UNL    C16   20   0.774   0.093   0.067
    1UNL     O5   21   0.855   0.205   0.081
    1UNL    C17   22   0.638   0.101   0.028
    1UNL    C18   23  -0.179   0.096  -0.142
    1UNL    C19   24  -0.251   0.107  -0.003
    1UNL     O6   25  -0.180   0.190   0.090
    1UNL    C20   26  -0.424  -0.070  -0.031
    1UNL     O7   27  -0.419  -0.039  -0.166
    1UNL    C21   28  -0.527   0.043  -0.207
    1UNL     O8   29  -0.546  -0.036   0.044
    1UNL     H1   30  -0.690  -0.228   0.122
    1UNL     H2   31  -0.738  -0.247   0.304
    1UNL     H3   32  -0.747  -0.087   0.213
    1UNL     H4   33  -0.567   0.047   0.218
    1UNL     H5   34  -0.337   0.081   0.229
    1UNL     H6   35  -0.309  -0.086   0.261
    1UNL     H7   36  -0.239  -0.231   0.060
    1UNL     H8   37  -0.126  -0.120   0.135
    1UNL     H9   38  -0.014  -0.208  -0.054
    1UNL    H10   39  -0.162  -0.166  -0.164
    1UNL    H11   40   0.001   0.032  -0.020
    1UNL    H12   41   0.040   0.110  -0.278
    1UNL    H13   42   0.019  -0.054  -0.311
    1UNL    H14   43   0.361   0.194   0.006
    1UNL    H15   44   0.402  -0.086  -0.117
    1UNL    H16   45   0.578  -0.229  -0.018
    1UNL    H17   46   0.810  -0.246   0.039
    1UNL    H18   47   1.005  -0.137   0.074
    1UNL    H19   48   0.940   0.172   0.122
    1UNL    H20   49   0.602   0.192  -0.021
    1UNL    H21   50  -0.158   0.197  -0.172
    1UNL    H22   51  -0.247   0.050  -0.214
    1UNL    H23   52  -0.343   0.158  -0.017
    1UNL    H24   53  -0.089   0.209   0.063
    1UNL    H25   54  -0.437  -0.189  -0.035
    1UNL    H26   55  -0.584  -0.007  -0.282
    1UNL    H27   56  -0.569   0.072  -0.112
    1UNL    H28   57  -0.499   0.139  -0.253
   0.00000   0.00000   0.00000   0.00000   0.00000   0.00000   0.00000   0.00000   0.00000
Generated with MDTraj, t= 79.0
 57
    1UNL     C1    1  -0.683  -0.164   0.219
    1UNL     O1    2  -0.552  -0.122   0.260
    1UNL     C2    3  -0.501  -0.022   0.172
    1UNL     C3    4  -0.341  -0.016   0.199
    1UNL     C4    5  -0.289  -0.026   0.054
    1UNL     C5    6  -0.187  -0.138   0.043
    1UNL     C6    7  -0.112  -0.141  -0.090
    1UNL     C7    8  -0.053   0.001  -0.124
    1UNL     C8    9   0.057   0.004  -0.231
    1UNL     O2   10   0.183  -0.006  -0.168
    1UNL     C9   11   0.203   0.107  -0.098
    1UNL     O3   12   0.131   0.208  -0.093
    1UNL    C10   13   0.342   0.112  -0.042
    1UNL    C11   14   0.406   0.001  -0.026
    1UNL    C12   15   0.547  -0.010   0.008
    1UNL    C13   16   0.608  -0.131  -0.006
    1UNL    C14   17   0.748  -0.141  -0.005
    1UNL    C15   18   0.821  -0.033   0.045
    1UNL     O4   19   0.953  -0.052   0.078
    1UNL    C16   20   0.752   0.089   0.080
    1UNL     O5   21   0.824   0.200   0.127
    1UNL    C17   22   0.613   0.101   0.059
    1UNL    C18   23  -0.162   0.106  -0.128
    1UNL    C19   24  -0.235   0.113   0.003
    1UNL     O6   25  -0.141   0.169   0.098
    1UNL    C20   26  -0.416  -0.078  -0.028
    1UNL     O7   27  -0.414  -0.059  -0.167
    1UNL    C21   28  -0.522   0.018  -0.214
    1UNL     O8   29  -0.529  -0.039   0.039
    1UNL     H1   30  -0.680  -0.169   0.110
    1UNL     H2   31  -0.703  -0.265   0.268
    1UNL     H3   32  -0.751  -0.087   0.253
    1UNL     H4   33  -0.559   0.069   0.201
    1UNL     H5   34  -0.322   0.073   0.253
    1UNL     H6   35  -0.313  -0.098   0.260
    1UNL     H7   36  -0.236  -0.230   0.069
    1UNL     H8   37  -0.114  -0.114   0.117
    1UNL     H9   38  -0.015  -0.204  -0.097
    1UNL    H10   39  -0.186  -0.178  -0.171
    1UNL    H11   40   0.011   0.013  -0.029
    1UNL    H12   41   0.038   0.088  -0.291
    1UNL    H13   42   0.055  -0.075  -0.315
    1UNL    H14   43   0.397   0.200  -0.022
    1UNL    H15   44   0.355  -0.094  -0.061
    1UNL    H16   45   0.564  -0.217  -0.049
    1UNL    H17   46   0.803  -0.227  -0.018
    1UNL    H18   47   0.991  -0.121   0.021
    1UNL    H19   48   0.917   0.179   0.131
    1UNL    H20   49   0.573   0.199   0.061
    1UNL    H21   50  -0.122   0.203  -0.140
    1UNL    H22   51  -0.238   0.089  -0.210
    1UNL    H23   52  -0.327   0.170   0.006
    1UNL    H24   53  -0.058   0.193   0.050
    1UNL    H25   54  -0.412  -0.196  -0.015
    1UNL    H26   55  -0.586  -0.053  -0.262
    1UNL    H27   56  -0.573   0.065  -0.131
    1UNL    H28   57  -0.495   0.092  -0.293
   0.00000   0.00000   0.00000   0.00000   0.00000   0.00000   0.00000   0.00000   0.00000
Generated with MDTraj, t= 80.0
 57
    1UNL     C1    1  -0.679  -0.137   0.214
    1UNL     O1    2  -0.542  -0.126   0.244
    1UNL     C2    3  -0.495  -0.010   0.185
    1UNL     C3    4  -0.337  -0.013   0.197
    1UNL     C4    5  -0.282  -0.037   0.051
    1UNL     C5    6  -0.173  -0.145   0.060
    1UNL     C6    7  -0.106  -0.165  -0.083
    1UNL     C7    8  -0.050  -0.022  -0.124
    1UNL     C8    9   0.042  -0.015  -0.239
    1UNL     O2   10   0.174   0.022  -0.208
    1UNL     C9   11   0.198   0.117  -0.103
    1UNL     O3   12   0.111   0.201  -0.073
    1UNL    C10   13   0.327   0.118  -0.040
    1UNL    C11   14   0.408   0.014  -0.057
    1UNL    C12   15   0.540  -0.012   0.008
    1UNL    C13   16   0.611  -0.127  -0.032
    1UNL    C14   17   0.750  -0.132  -0.015
    1UNL    C15   18   0.817  -0.028   0.041
    1UNL     O4   19   0.957  -0.036   0.072
    1UNL    C16   20   0.749   0.083   0.099
    1UNL     O5   21   0.815   0.182   0.176
    1UNL    C17   22   0.612   0.091   0.074
    1UNL    C18   23  -0.162   0.078  -0.137
    1UNL    C19   24  -0.223   0.100  -0.001
    1UNL     O6   25  -0.130   0.164   0.093
    1UNL    C20   26  -0.417  -0.069  -0.021
    1UNL     O7   27  -0.404  -0.038  -0.158
    1UNL    C21   28  -0.530  -0.012  -0.213
    1UNL     O8   29  -0.524  -0.002   0.046
    1UNL     H1   30  -0.686  -0.157   0.106
    1UNL     H2   31  -0.724  -0.219   0.275
    1UNL     H3   32  -0.726  -0.041   0.234
    1UNL     H4   33  -0.544   0.084   0.230
    1UNL     H5   34  -0.308   0.084   0.237
    1UNL     H6   35  -0.300  -0.083   0.267
    1UNL     H7   36  -0.224  -0.234   0.095
    1UNL     H8   37  -0.106  -0.112   0.135
    1UNL     H9   38  -0.012  -0.230  -0.078
    1UNL    H10   39  -0.166  -0.188  -0.181
    1UNL    H11   40   0.017  -0.005  -0.034
    1UNL    H12   41   0.013   0.045  -0.320
    1UNL    H13   42   0.051  -0.113  -0.301
    1UNL    H14   43   0.339   0.200   0.034
    1UNL    H15   44   0.370  -0.068  -0.109
    1UNL    H16   45   0.560  -0.199  -0.100
    1UNL    H17   46   0.800  -0.228  -0.042
    1UNL    H18   47   1.006  -0.082   0.000
    1UNL    H19   48   0.906   0.142   0.193
    1UNL    H20   49   0.553   0.176   0.107
    1UNL    H21   50  -0.135   0.170  -0.180
    1UNL    H22   51  -0.236   0.030  -0.208
    1UNL    H23   52  -0.315   0.161  -0.004
    1UNL    H24   53  -0.049   0.191   0.042
    1UNL    H25   54  -0.435  -0.184  -0.001
    1UNL    H26   55  -0.610  -0.037  -0.144
    1UNL    H27   56  -0.547   0.094  -0.236
    1UNL    H28   57  -0.538  -0.077  -0.305
   0.00000   0.00000   0.00000   0.00000   0.00000   0.00000   0.00000   0.00000   0.00000
Generated with MDTraj, t= 81.0
 57
    1UNL     C1    1  -0.679  -0.136   0.223
    1UNL     O1    2  -0.549  -0.099   0.263
    1UNL     C2    3  -0.492   0.005   0.197
    1UNL     C3    4  -0.335  -0.017   0.205
    1UNL     C4    5  -0.286  -0.034   0.050
    1UNL     C5    6  -0.181  -0.147   0.033
    1UNL     C6    7  -0.125  -0.156  -0.107
    1UNL     C7    8  -0.052  -0.018  -0.128
    1UNL     C8    9   0.055  -0.017  -0.235
    1UNL     O2   10   0.181  -0.014  -0.185
    1UNL     C9   11   0.201   0.094  -0.109
    1UNL     O3   12   0.121   0.180  -0.078
    1UNL    C10   13   0.334   0.110  -0.057
    1UNL    C11   14   0.425   0.018  -0.094
    1UNL    C12   15   0.558   0.007  -0.034
    1UNL    C13   16   0.641  -0.095  -0.080
    1UNL    C14   17   0.777  -0.107  -0.045
    1UNL    C15   18   0.821  -0.029   0.061
    1UNL     O4   19   0.944  -0.041   0.124
    1UNL    C16   20   0.733   0.080   0.107
    1UNL     O5   21   0.787   0.167   0.197
    1UNL    C17   22   0.602   0.096   0.060
    1UNL    C18   23  -0.156   0.094  -0.130
    1UNL    C19   24  -0.228   0.107   0.007
    1UNL     O6   25  -0.133   0.154   0.111
    1UNL    C20   26  -0.418  -0.064  -0.022
    1UNL     O7   27  -0.416  -0.020  -0.156
    1UNL    C21   28  -0.541  -0.052  -0.212
    1UNL     O8   29  -0.524  -0.000   0.053
    1UNL     H1   30  -0.683  -0.144   0.114
    1UNL     H2   31  -0.709  -0.231   0.268
    1UNL     H3   32  -0.749  -0.057   0.249
    1UNL     H4   33  -0.532   0.109   0.229
    1UNL     H5   34  -0.279   0.051   0.270
    1UNL     H6   35  -0.321  -0.113   0.255
    1UNL     H7   36  -0.230  -0.242   0.052
    1UNL     H8   37  -0.113  -0.123   0.111
    1UNL     H9   38  -0.044  -0.237  -0.114
    1UNL    H10   39  -0.204  -0.160  -0.192
    1UNL    H11   40   0.019  -0.011  -0.039
    1UNL    H12   41   0.047   0.059  -0.309
    1UNL    H13   42   0.042  -0.107  -0.309
    1UNL    H14   43   0.354   0.177   0.023
    1UNL    H15   44   0.389  -0.071  -0.150
    1UNL    H16   45   0.603  -0.168  -0.143
    1UNL    H17   46   0.841  -0.179  -0.096
    1UNL    H18   47   0.990  -0.111   0.072
    1UNL    H19   48   0.871   0.127   0.228
    1UNL    H20   49   0.559   0.191   0.089
    1UNL    H21   50  -0.106   0.185  -0.155
    1UNL    H22   51  -0.234   0.085  -0.209
    1UNL    H23   52  -0.317   0.177  -0.006
    1UNL    H24   53  -0.041   0.171   0.076
    1UNL    H25   54  -0.447  -0.177  -0.016
    1UNL    H26   55  -0.624   0.003  -0.168
    1UNL    H27   56  -0.543  -0.015  -0.316
    1UNL    H28   57  -0.544  -0.166  -0.219
   0.00000   0.00000   0.00000   0.00000   0.00000   0.00000   0.00000   0.00000   0.00000
Generated with MDTraj, t= 82.0
 57
    1UNL     C1    1  -0.697  -0.122   0.248
    1UNL     O1    2  -0.557  -0.104   0.279
    1UNL     C2    3  -0.498  -0.001   0.201
    1UNL     C3    4  -0.340  -0.012   0.205
    1UNL     C4    5  -0.299  -0.036   0.059
    1UNL     C5    6  -0.199  -0.155   0.036
    1UNL     C6    7  -0.137  -0.147  -0.102
    1UNL     C7    8  -0.065  -0.012  -0.141
    1UNL     C8    9   0.043  -0.004  -0.253
    1UNL     O2   10   0.178  -0.023  -0.207
    1UNL     C9   11   0.212   0.084  -0.125
    1UNL     O3   12   0.137   0.167  -0.075
    1UNL    C10   13   0.353   0.094  -0.081
    1UNL    C11   14   0.456   0.019  -0.130
    1UNL    C12   15   0.590   0.015  -0.066
    1UNL    C13   16   0.686  -0.076  -0.108
    1UNL    C14   17   0.810  -0.088  -0.042
    1UNL    C15   18   0.835  -0.013   0.073
    1UNL     O4   19   0.942  -0.034   0.158
    1UNL    C16   20   0.742   0.079   0.120
    1UNL     O5   21   0.769   0.143   0.242
    1UNL    C17   22   0.623   0.094   0.043
    1UNL    C18   23  -0.174   0.096  -0.135
    1UNL    C19   24  -0.231   0.099   0.008
    1UNL     O6   25  -0.127   0.135   0.104
    1UNL    C20   26  -0.439  -0.061  -0.016
    1UNL     O7   27  -0.428  -0.023  -0.149
    1UNL    C21   28  -0.549  -0.053  -0.215
    1UNL     O8   29  -0.541   0.010   0.062
    1UNL     H1   30  -0.714  -0.177   0.155
    1UNL     H2   31  -0.758  -0.165   0.323
    1UNL     H3   32  -0.742  -0.025   0.226
    1UNL     H4   33  -0.544   0.092   0.252
    1UNL     H5   34  -0.279   0.068   0.250
    1UNL     H6   35  -0.333  -0.096   0.278
    1UNL     H7   36  -0.256  -0.243   0.063
    1UNL     H8   37  -0.122  -0.139   0.107
    1UNL     H9   38  -0.061  -0.233  -0.118
    1UNL    H10   39  -0.228  -0.153  -0.173
    1UNL    H11   40   0.008   0.005  -0.057
    1UNL    H12   41   0.035   0.087  -0.305
    1UNL    H13   42   0.032  -0.083  -0.340
    1UNL    H14   43   0.372   0.145   0.013
    1UNL    H15   44   0.439  -0.048  -0.210
    1UNL    H16   45   0.658  -0.150  -0.188
    1UNL    H17   46   0.890  -0.147  -0.077
    1UNL    H18   47   1.008  -0.098   0.122
    1UNL    H19   48   0.864   0.124   0.255
    1UNL    H20   49   0.554   0.169   0.076
    1UNL    H21   50  -0.150   0.200  -0.160
    1UNL    H22   51  -0.256   0.074  -0.203
    1UNL    H23   52  -0.305   0.188   0.013
    1UNL    H24   53  -0.044   0.140   0.051
    1UNL    H25   54  -0.473  -0.170  -0.024
    1UNL    H26   55  -0.600   0.037  -0.246
    1UNL    H27   56  -0.532  -0.105  -0.311
    1UNL    H28   57  -0.602  -0.133  -0.156
   0.00000   0.00000   0.00000   0.00000   0.00000   0.00000   0.00000   0.00000   0.00000
Generated with MDTraj, t= 83.0
 57
    1UNL     C1    1  -0.696  -0.089   0.250
    1UNL     O1    2  -0.559  -0.099   0.270
    1UNL     C2    3  -0.490  -0.006   0.189
    1UNL     C3    4  -0.334  -0.024   0.200
    1UNL     C4    5  -0.285  -0.036   0.059
    1UNL     C5    6  -0.182  -0.154   0.042
    1UNL     C6    7  -0.115  -0.163  -0.102
    1UNL     C7    8  -0.054  -0.026  -0.131
    1UNL     C8    9   0.038  -0.023  -0.246
    1UNL     O2   10   0.180  -0.017  -0.217
    1UNL     C9   11   0.214   0.082  -0.122
    1UNL     O3   12   0.124   0.151  -0.073
    1UNL    C10   13   0.351   0.083  -0.077
    1UNL    C11   14   0.453   0.013  -0.127
    1UNL    C12   15   0.583   0.009  -0.062
    1UNL    C13   16   0.694  -0.064  -0.116
    1UNL    C14   17   0.813  -0.062  -0.054
    1UNL    C15   18   0.829   0.001   0.066
    1UNL     O4   19   0.937  -0.012   0.144
    1UNL    C16   20   0.723   0.071   0.127
    1UNL     O5   21   0.753   0.127   0.250
    1UNL    C17   22   0.602   0.070   0.064
    1UNL    C18   23  -0.156   0.089  -0.133
    1UNL    C19   24  -0.229   0.108   0.003
    1UNL     O6   25  -0.136   0.159   0.097
    1UNL    C20   26  -0.418  -0.069  -0.019
    1UNL     O7   27  -0.438  -0.037  -0.160
    1UNL    C21   28  -0.574  -0.012  -0.188
    1UNL     O8   29  -0.528  -0.010   0.057
    1UNL     H1   30  -0.727  -0.073   0.145
    1UNL     H2   31  -0.746  -0.175   0.283
    1UNL     H3   32  -0.739  -0.005   0.306
    1UNL     H4   33  -0.522   0.097   0.223
    1UNL     H5   34  -0.285   0.065   0.246
    1UNL     H6   35  -0.306  -0.106   0.271
    1UNL     H7   36  -0.234  -0.243   0.072
    1UNL     H8   37  -0.115  -0.133   0.122
    1UNL     H9   38  -0.039  -0.250  -0.092
    1UNL    H10   39  -0.195  -0.180  -0.182
    1UNL    H11   40   0.018  -0.008  -0.046
    1UNL    H12   41   0.020   0.067  -0.300
    1UNL    H13   42   0.023  -0.116  -0.319
    1UNL    H14   43   0.367   0.142   0.013
    1UNL    H15   44   0.441  -0.045  -0.218
    1UNL    H16   45   0.689  -0.103  -0.212
    1UNL    H17   46   0.895  -0.125  -0.101
    1UNL    H18   47   0.996  -0.078   0.101
    1UNL    H19   48   0.834   0.083   0.290
    1UNL    H20   49   0.513   0.104   0.119
    1UNL    H21   50  -0.106   0.186  -0.152
    1UNL    H22   51  -0.234   0.084  -0.206
    1UNL    H23   52  -0.319   0.182   0.003
    1UNL    H24   53  -0.045   0.146   0.063
    1UNL    H25   54  -0.435  -0.181  -0.025
    1UNL    H26   55  -0.612   0.067  -0.127
    1UNL    H27   56  -0.580   0.035  -0.286
    1UNL    H28   57  -0.627  -0.109  -0.195
   0.00000   0.00000   0.00000   0.00000   0.00000   0.00000   0.00000   0.00000   0.00000
Generated with MDTraj, t= 84.0
 57
    1UNL     C1    1  -0.680  -0.088   0.269
    1UNL     O1    2  -0.546  -0.092   0.281
    1UNL     C2    3  -0.475   0.000   0.193
    1UNL     C3    4  -0.318  -0.023   0.194
    1UNL     C4    5  -0.286  -0.044   0.045
    1UNL     C5    6  -0.194  -0.172   0.030
    1UNL     C6    7  -0.125  -0.171  -0.109
    1UNL     C7    8  -0.054  -0.040  -0.133
    1UNL     C8    9   0.043  -0.030  -0.241
    1UNL     O2   10   0.173  -0.033  -0.183
    1UNL     C9   11   0.200   0.082  -0.116
    1UNL     O3   12   0.120   0.171  -0.093
    1UNL    C10   13   0.332   0.093  -0.058
    1UNL    C11   14   0.425   0.007  -0.096
    1UNL    C12   15   0.558   0.004  -0.035
    1UNL    C13   16   0.658  -0.049  -0.110
    1UNL    C14   17   0.789  -0.040  -0.069
    1UNL    C15   18   0.827   0.011   0.058
    1UNL     O4   19   0.954   0.020   0.106
    1UNL    C16   20   0.720   0.053   0.135
    1UNL     O5   21   0.753   0.097   0.266
    1UNL    C17   22   0.593   0.052   0.093
    1UNL    C18   23  -0.165   0.064  -0.150
    1UNL    C19   24  -0.220   0.095  -0.006
    1UNL     O6   25  -0.119   0.154   0.080
    1UNL    C20   26  -0.423  -0.064  -0.021
    1UNL     O7   27  -0.418  -0.037  -0.167
    1UNL    C21   28  -0.533   0.015  -0.217
    1UNL     O8   29  -0.518   0.008   0.063
    1UNL     H1   30  -0.719  -0.101   0.164
    1UNL     H2   31  -0.716  -0.168   0.324
    1UNL     H3   32  -0.724   0.004   0.315
    1UNL     H4   33  -0.493   0.106   0.224
    1UNL     H5   34  -0.259   0.063   0.240
    1UNL     H6   35  -0.281  -0.111   0.253
    1UNL     H7   36  -0.264  -0.250   0.044
    1UNL     H8   37  -0.127  -0.179   0.113
    1UNL     H9   38  -0.049  -0.259  -0.100
    1UNL    H10   39  -0.208  -0.189  -0.185
    1UNL    H11   40   0.001  -0.022  -0.036
    1UNL    H12   41   0.050   0.062  -0.299
    1UNL    H13   42   0.023  -0.122  -0.313
    1UNL    H14   43   0.355   0.172   0.007
    1UNL    H15   44   0.404  -0.057  -0.181
    1UNL    H16   45   0.638  -0.084  -0.215
    1UNL    H17   46   0.869  -0.064  -0.126
    1UNL    H18   47   1.016  -0.037   0.055
    1UNL    H19   48   0.847   0.112   0.280
    1UNL    H20   49   0.520   0.079   0.162
    1UNL    H21   50  -0.129   0.159  -0.195
    1UNL    H22   51  -0.248   0.042  -0.210
    1UNL    H23   52  -0.312   0.163  -0.001
    1UNL    H24   53  -0.037   0.179   0.031
    1UNL    H25   54  -0.451  -0.170  -0.013
    1UNL    H26   55  -0.568   0.099  -0.161
    1UNL    H27   56  -0.500   0.058  -0.311
    1UNL    H28   57  -0.605  -0.064  -0.239
   0.00000   0.00000   0.00000   0.00000   0.00000   0.00000   0.00000   0.00000   0.00000
Generated with MDTraj, t= 85.0
 57
    1UNL     C1    1  -0.683  -0.085   0.252
    1UNL     O1    2  -0.546  -0.092   0.284
    1UNL     C2    3  -0.481   0.013   0.198
    1UNL     C3    4  -0.322  -0.012   0.197
    1UNL     C4    5  -0.285  -0.037   0.044
    1UNL     C5    6  -0.193  -0.168   0.024
    1UNL     C6    7  -0.125  -0.178  -0.114
    1UNL     C7    8  -0.049  -0.049  -0.146
    1UNL     C8    9   0.051  -0.047  -0.256
    1UNL     O2   10   0.186  -0.030  -0.207
    1UNL     C9   11   0.194   0.076  -0.120
    1UNL     O3   12   0.109   0.161  -0.095
    1UNL    C10   13   0.325   0.086  -0.046
    1UNL    C11   14   0.422  -0.007  -0.060
    1UNL    C12   15   0.554   0.002  -0.013
    1UNL    C13   16   0.654  -0.029  -0.106
    1UNL    C14   17   0.787  -0.020  -0.074
    1UNL    C15   18   0.826   0.018   0.055
    1UNL     O4   19   0.960   0.033   0.082
    1UNL    C16   20   0.725   0.051   0.146
    1UNL     O5   21   0.767   0.084   0.272
    1UNL    C17   22   0.593   0.045   0.117
    1UNL    C18   23  -0.148   0.067  -0.151
    1UNL    C19   24  -0.207   0.090  -0.008
    1UNL     O6   25  -0.106   0.134   0.073
    1UNL    C20   26  -0.423  -0.061  -0.023
    1UNL     O7   27  -0.433  -0.028  -0.166
    1UNL    C21   28  -0.565   0.020  -0.190
    1UNL     O8   29  -0.519   0.011   0.059
    1UNL     H1   30  -0.708  -0.122   0.148
    1UNL     H2   31  -0.740  -0.142   0.319
    1UNL     H3   32  -0.715   0.022   0.266
    1UNL     H4   33  -0.511   0.111   0.231
    1UNL     H5   34  -0.261   0.077   0.241
    1UNL     H6   35  -0.305  -0.102   0.265
    1UNL     H7   36  -0.255  -0.248   0.050
    1UNL     H8   37  -0.123  -0.163   0.105
    1UNL     H9   38  -0.057  -0.271  -0.099
    1UNL    H10   39  -0.213  -0.200  -0.183
    1UNL    H11   40   0.006  -0.039  -0.050
    1UNL    H12   41   0.026   0.029  -0.331
    1UNL    H13   42   0.073  -0.149  -0.313
    1UNL    H14   43   0.336   0.181   0.008
    1UNL    H15   44   0.413  -0.066  -0.150
    1UNL    H16   45   0.618  -0.066  -0.198
    1UNL    H17   46   0.859  -0.011  -0.162
    1UNL    H18   47   1.015  -0.016   0.019
    1UNL    H19   48   0.868   0.085   0.270
    1UNL    H20   49   0.511   0.068   0.189
    1UNL    H21   50  -0.113   0.169  -0.179
    1UNL    H22   51  -0.217   0.044  -0.226
    1UNL    H23   52  -0.282   0.171  -0.013
    1UNL    H24   53  -0.033   0.157   0.010
    1UNL    H25   54  -0.449  -0.166  -0.002
    1UNL    H26   55  -0.569   0.125  -0.172
    1UNL    H27   56  -0.580   0.001  -0.297
    1UNL    H28   57  -0.644  -0.021  -0.123
   0.00000   0.00000   0.00000   0.00000   0.00000   0.00000   0.00000   0.00000   0.00000
Generated with MDTraj, t= 86.0
 57
    1UNL     C1    1  -0.684  -0.092   0.238
    1UNL     O1    2  -0.542  -0.081   0.278
    1UNL     C2    3  -0.473   0.013   0.199
    1UNL     C3    4  -0.324  -0.026   0.187
    1UNL     C4    5  -0.295  -0.045   0.043
    1UNL     C5    6  -0.210  -0.179   0.026
    1UNL     C6    7  -0.135  -0.178  -0.112
    1UNL     C7    8  -0.064  -0.045  -0.138
    1UNL     C8    9   0.048  -0.041  -0.239
    1UNL     O2   10   0.179  -0.054  -0.183
    1UNL     C9   11   0.203   0.068  -0.119
    1UNL     O3   12   0.128   0.163  -0.106
    1UNL    C10   13   0.340   0.079  -0.064
    1UNL    C11   14   0.440  -0.012  -0.082
    1UNL    C12   15   0.578  -0.004  -0.040
    1UNL    C13   16   0.686  -0.029  -0.126
    1UNL    C14   17   0.810  -0.018  -0.073
    1UNL    C15   18   0.838   0.026   0.058
    1UNL     O4   19   0.968   0.043   0.102
    1UNL    C16   20   0.725   0.059   0.151
    1UNL     O5   21   0.752   0.093   0.278
    1UNL    C17   22   0.601   0.030   0.095
    1UNL    C18   23  -0.163   0.074  -0.148
    1UNL    C19   24  -0.227   0.092  -0.008
    1UNL     O6   25  -0.135   0.137   0.093
    1UNL    C20   26  -0.435  -0.056  -0.015
    1UNL     O7   27  -0.437  -0.010  -0.151
    1UNL    C21   28  -0.569   0.012  -0.202
    1UNL     O8   29  -0.521   0.025   0.067
    1UNL     H1   30  -0.697  -0.126   0.131
    1UNL     H2   31  -0.724  -0.169   0.297
    1UNL     H3   32  -0.746  -0.002   0.266
    1UNL     H4   33  -0.493   0.108   0.243
    1UNL     H5   34  -0.265   0.063   0.234
    1UNL     H6   35  -0.310  -0.126   0.241
    1UNL     H7   36  -0.272  -0.260   0.049
    1UNL     H8   37  -0.137  -0.173   0.104
    1UNL     H9   38  -0.061  -0.268  -0.113
    1UNL    H10   39  -0.226  -0.196  -0.177
    1UNL    H11   40  -0.014  -0.028  -0.042
    1UNL    H12   41   0.050   0.050  -0.297
    1UNL    H13   42   0.043  -0.130  -0.315
    1UNL    H14   43   0.360   0.169  -0.014
    1UNL    H15   44   0.416  -0.084  -0.161
    1UNL    H16   45   0.673  -0.056  -0.231
    1UNL    H17   46   0.895  -0.036  -0.134
    1UNL    H18   47   1.037   0.008   0.041
    1UNL    H19   48   0.848   0.098   0.286
    1UNL    H20   49   0.518   0.027   0.162
    1UNL    H21   50  -0.114   0.169  -0.179
    1UNL    H22   51  -0.243   0.069  -0.218
    1UNL    H23   52  -0.303   0.166  -0.023
    1UNL    H24   53  -0.046   0.152   0.058
    1UNL    H25   54  -0.481  -0.153  -0.007
    1UNL    H26   55  -0.640   0.032  -0.121
    1UNL    H27   56  -0.551   0.097  -0.272
    1UNL    H28   57  -0.621  -0.077  -0.250
   0.00000   0.00000   0.00000   0.00000   0.00000   0.00000   0.00000   0.00000   0.00000
Generated with MDTraj, t= 87.0
 57
    1UNL     C1    1  -0.701  -0.093   0.250
    1UNL     O1    2  -0.559  -0.098   0.263
    1UNL     C2    3  -0.503   0.007   0.200
    1UNL     C3    4  -0.345  -0.006   0.200
    1UNL     C4    5  -0.298  -0.026   0.056
    1UNL     C5    6  -0.205  -0.151   0.033
    1UNL     C6    7  -0.145  -0.168  -0.108
    1UNL     C7    8  -0.054  -0.047  -0.136
    1UNL     C8    9   0.047  -0.055  -0.253
    1UNL     O2   10   0.182  -0.051  -0.206
    1UNL     C9   11   0.209   0.048  -0.110
    1UNL     O3   12   0.130   0.128  -0.064
    1UNL    C10   13   0.349   0.054  -0.065
    1UNL    C11   14   0.463   0.000  -0.117
    1UNL    C12   15   0.595   0.010  -0.061
    1UNL    C13   16   0.709  -0.031  -0.129
    1UNL    C14   17   0.832  -0.025  -0.066
    1UNL    C15   18   0.845   0.026   0.066
    1UNL     O4   19   0.973   0.045   0.124
    1UNL    C16   20   0.726   0.057   0.134
    1UNL     O5   21   0.730   0.099   0.263
    1UNL    C17   22   0.601   0.056   0.071
    1UNL    C18   23  -0.149   0.078  -0.137
    1UNL    C19   24  -0.224   0.098  -0.003
    1UNL     O6   25  -0.121   0.128   0.100
    1UNL    C20   26  -0.434  -0.042  -0.019
    1UNL     O7   27  -0.441   0.001  -0.155
    1UNL    C21   28  -0.574  -0.002  -0.195
    1UNL     O8   29  -0.538   0.017   0.060
    1UNL     H1   30  -0.730  -0.131   0.150
    1UNL     H2   31  -0.736  -0.158   0.324
    1UNL     H3   32  -0.742   0.006   0.283
    1UNL     H4   33  -0.534   0.095   0.250
    1UNL     H5   34  -0.292   0.091   0.236
    1UNL     H6   35  -0.320  -0.099   0.267
    1UNL     H7   36  -0.264  -0.234   0.057
    1UNL     H8   37  -0.125  -0.149   0.102
    1UNL     H9   38  -0.090  -0.270  -0.096
    1UNL    H10   39  -0.219  -0.169  -0.196
    1UNL    H11   40   0.007  -0.040  -0.047
    1UNL    H12   41   0.054   0.030  -0.318
    1UNL    H13   42   0.028  -0.149  -0.319
    1UNL    H14   43   0.368   0.136   0.004
    1UNL    H15   44   0.447  -0.048  -0.210
    1UNL    H16   45   0.697  -0.060  -0.234
    1UNL    H17   46   0.920  -0.059  -0.113
    1UNL    H18   47   1.037  -0.012   0.074
    1UNL    H19   48   0.825   0.114   0.282
    1UNL    H20   49   0.512   0.064   0.130
    1UNL    H21   50  -0.100   0.174  -0.158
    1UNL    H22   51  -0.232   0.068  -0.208
    1UNL    H23   52  -0.299   0.172  -0.007
    1UNL    H24   53  -0.031   0.123   0.057
    1UNL    H25   54  -0.469  -0.142  -0.021
    1UNL    H26   55  -0.641  -0.045  -0.122
    1UNL    H27   56  -0.596   0.104  -0.219
    1UNL    H28   57  -0.592  -0.064  -0.287
   0.00000   0.00000   0.00000   0.00000   0.00000   0.00000   0.00000   0.00000   0.00000
Generated with MDTraj, t= 88.0
 57
    1UNL     C1    1  -0.699  -0.106   0.245
    1UNL     O1    2  -0.561  -0.105   0.263
    1UNL     C2    3  -0.504   0.005   0.195
    1UNL     C3    4  -0.345   0.003   0.196
    1UNL     C4    5  -0.303  -0.031   0.055
    1UNL     C5    6  -0.215  -0.159   0.046
    1UNL     C6    7  -0.146  -0.176  -0.095
    1UNL     C7    8  -0.059  -0.048  -0.122
    1UNL     C8    9   0.038  -0.058  -0.239
    1UNL     O2   10   0.175  -0.053  -0.198
    1UNL     C9   11   0.208   0.043  -0.104
    1UNL     O3   12   0.127   0.118  -0.053
    1UNL    C10   13   0.348   0.056  -0.066
    1UNL    C11   14   0.456  -0.010  -0.117
    1UNL    C12   15   0.584   0.013  -0.063
    1UNL    C13   16   0.699  -0.020  -0.137
    1UNL    C14   17   0.822  -0.018  -0.073
    1UNL    C15   18   0.844   0.018   0.057
    1UNL     O4   19   0.972   0.022   0.131
    1UNL    C16   20   0.731   0.069   0.124
    1UNL     O5   21   0.741   0.120   0.250
    1UNL    C17   22   0.607   0.063   0.066
    1UNL    C18   23  -0.154   0.071  -0.130
    1UNL    C19   24  -0.220   0.095   0.003
    1UNL     O6   25  -0.128   0.143   0.109
    1UNL    C20   26  -0.437  -0.039  -0.021
    1UNL     O7   27  -0.418  -0.000  -0.158
    1UNL    C21   28  -0.537   0.014  -0.216
    1UNL     O8   29  -0.540   0.023   0.052
    1UNL     H1   30  -0.715  -0.060   0.146
    1UNL     H2   31  -0.733  -0.205   0.242
    1UNL     H3   32  -0.741  -0.054   0.333
    1UNL     H4   33  -0.536   0.094   0.244
    1UNL     H5   34  -0.286   0.098   0.234
    1UNL     H6   35  -0.317  -0.090   0.260
    1UNL     H7   36  -0.280  -0.240   0.059
    1UNL     H8   37  -0.149  -0.153   0.127
    1UNL     H9   38  -0.075  -0.265  -0.105
    1UNL    H10   39  -0.224  -0.187  -0.180
    1UNL    H11   40   0.005  -0.034  -0.037
    1UNL    H12   41   0.017   0.021  -0.305
    1UNL    H13   42   0.039  -0.149  -0.313
    1UNL    H14   43   0.364   0.147  -0.009
    1UNL    H15   44   0.453  -0.072  -0.209
    1UNL    H16   45   0.685  -0.050  -0.236
    1UNL    H17   46   0.911  -0.054  -0.132
    1UNL    H18   47   1.021  -0.057   0.097
    1UNL    H19   48   0.834   0.110   0.286
    1UNL    H20   49   0.524   0.111   0.124
    1UNL    H21   50  -0.101   0.162  -0.150
    1UNL    H22   51  -0.232   0.052  -0.208
    1UNL    H23   52  -0.287   0.177  -0.007
    1UNL    H24   53  -0.040   0.150   0.067
    1UNL    H25   54  -0.473  -0.137  -0.030
    1UNL    H26   55  -0.581  -0.079  -0.244
    1UNL    H27   56  -0.604   0.072  -0.152
    1UNL    H28   57  -0.520   0.076  -0.306
   0.00000   0.00000   0.00000   0.00000   0.00000   0.00000   0.00000   0.00000   0.00000
Generated with MDTraj, t= 89.0
 57
    1UNL     C1    1  -0.707  -0.111   0.205
    1UNL     O1    2  -0.570  -0.118   0.239
    1UNL     C2    3  -0.498  -0.003   0.189
    1UNL     C3    4  -0.344  -0.009   0.206
    1UNL     C4    5  -0.297  -0.026   0.057
    1UNL     C5    6  -0.217  -0.161   0.048
    1UNL     C6    7  -0.135  -0.187  -0.076
    1UNL     C7    8  -0.054  -0.057  -0.100
    1UNL     C8    9   0.048  -0.065  -0.211
    1UNL     O2   10   0.179  -0.057  -0.161
    1UNL     C9   11   0.201   0.064  -0.102
    1UNL     O3   12   0.118   0.153  -0.090
    1UNL    C10   13   0.336   0.085  -0.051
    1UNL    C11   14   0.441   0.009  -0.096
    1UNL    C12   15   0.582   0.014  -0.050
    1UNL    C13   16   0.678  -0.047  -0.124
    1UNL    C14   17   0.805  -0.055  -0.072
    1UNL    C15   18   0.840   0.020   0.040
    1UNL     O4   19   0.965   0.031   0.086
    1UNL    C16   20   0.734   0.069   0.123
    1UNL     O5   21   0.778   0.120   0.245
    1UNL    C17   22   0.603   0.066   0.078
    1UNL    C18   23  -0.144   0.069  -0.121
    1UNL    C19   24  -0.214   0.097   0.009
    1UNL     O6   25  -0.120   0.144   0.108
    1UNL    C20   26  -0.432  -0.047  -0.025
    1UNL     O7   27  -0.420   0.011  -0.159
    1UNL    C21   28  -0.548   0.037  -0.222
    1UNL     O8   29  -0.532   0.012   0.051
    1UNL     H1   30  -0.708  -0.134   0.098
    1UNL     H2   31  -0.762  -0.184   0.260
    1UNL     H3   32  -0.740  -0.010   0.232
    1UNL     H4   33  -0.539   0.087   0.236
    1UNL     H5   34  -0.298   0.091   0.248
    1UNL     H6   35  -0.327  -0.092   0.285
    1UNL     H7   36  -0.291  -0.236   0.051
    1UNL     H8   37  -0.160  -0.169   0.133
    1UNL     H9   38  -0.053  -0.266  -0.068
    1UNL    H10   39  -0.199  -0.211  -0.169
    1UNL    H11   40   0.011  -0.055  -0.015
    1UNL    H12   41   0.038  -0.005  -0.296
    1UNL    H13   42   0.034  -0.165  -0.270
    1UNL    H14   43   0.348   0.169   0.013
    1UNL    H15   44   0.425  -0.055  -0.176
    1UNL    H16   45   0.657  -0.111  -0.215
    1UNL    H17   46   0.880  -0.108  -0.117
    1UNL    H18   47   1.026  -0.022   0.029
    1UNL    H19   48   0.872   0.132   0.245
    1UNL    H20   49   0.527   0.112   0.131
    1UNL    H21   50  -0.083   0.151  -0.153
    1UNL    H22   51  -0.220   0.045  -0.203
    1UNL    H23   52  -0.280   0.181  -0.008
    1UNL    H24   53  -0.031   0.138   0.067
    1UNL    H25   54  -0.442  -0.151  -0.034
    1UNL    H26   55  -0.589  -0.056  -0.254
    1UNL    H27   56  -0.628   0.063  -0.153
    1UNL    H28   57  -0.543   0.116  -0.298
   0.00000   0.00000   0.00000   0.00000   0.00000   0.00000   0.00000   0.00000   0.00000
Generated with MDTraj, t= 90.0
 57
    1UNL     C1    1  -0.693  -0.150   0.175
    1UNL     O1    2  -0.584  -0.106   0.250
    1UNL     C2    3  -0.519   0.003   0.182
    1UNL     C3    4  -0.371   0.004   0.200
    1UNL     C4    5  -0.310  -0.033   0.057
    1UNL     C5    6  -0.228  -0.167   0.060
    1UNL     C6    7  -0.143  -0.183  -0.065
    1UNL     C7    8  -0.054  -0.059  -0.103
    1UNL     C8    9   0.059  -0.069  -0.213
    1UNL     O2   10   0.190  -0.036  -0.176
    1UNL     C9   11   0.202   0.081  -0.103
    1UNL     O3   12   0.118   0.168  -0.075
    1UNL    C10   13   0.336   0.093  -0.052
    1UNL    C11   14   0.424  -0.001  -0.056
    1UNL    C12   15   0.567   0.007  -0.021
    1UNL    C13   16   0.659  -0.061  -0.106
    1UNL    C14   17   0.795  -0.056  -0.079
    1UNL    C15   18   0.842   0.009   0.032
    1UNL     O4   19   0.974   0.016   0.064
    1UNL    C16   20   0.758   0.075   0.120
    1UNL     O5   21   0.821   0.151   0.221
    1UNL    C17   22   0.622   0.071   0.093
    1UNL    C18   23  -0.140   0.067  -0.122
    1UNL    C19   24  -0.205   0.088   0.016
    1UNL     O6   25  -0.100   0.117   0.116
    1UNL    C20   26  -0.440  -0.039  -0.031
    1UNL     O7   27  -0.425  -0.002  -0.167
    1UNL    C21   28  -0.545   0.049  -0.219
    1UNL     O8   29  -0.551   0.017   0.045
    1UNL     H1   30  -0.656  -0.160   0.074
    1UNL     H2   31  -0.723  -0.249   0.211
    1UNL     H3   32  -0.775  -0.076   0.183
    1UNL     H4   33  -0.552   0.104   0.223
    1UNL     H5   34  -0.350   0.112   0.236
    1UNL     H6   35  -0.326  -0.064   0.281
    1UNL     H7   36  -0.286  -0.256   0.068
    1UNL     H8   37  -0.167  -0.154   0.142
    1UNL     H9   38  -0.079  -0.276  -0.053
    1UNL    H10   39  -0.203  -0.195  -0.163
    1UNL    H11   40   0.008  -0.044  -0.017
    1UNL    H12   41   0.030  -0.016  -0.297
    1UNL    H13   42   0.059  -0.171  -0.267
    1UNL    H14   43   0.372   0.191  -0.019
    1UNL    H15   44   0.395  -0.103  -0.093
    1UNL    H16   45   0.625  -0.104  -0.193
    1UNL    H17   46   0.857  -0.130  -0.137
    1UNL    H18   47   1.033  -0.037   0.007
    1UNL    H19   48   0.913   0.108   0.223
    1UNL    H20   49   0.559   0.141   0.150
    1UNL    H21   50  -0.078   0.148  -0.154
    1UNL    H22   51  -0.215   0.053  -0.207
    1UNL    H23   52  -0.262   0.183   0.010
    1UNL    H24   53  -0.019   0.145   0.065
    1UNL    H25   54  -0.458  -0.141  -0.039
    1UNL    H26   55  -0.620  -0.026  -0.200
    1UNL    H27   56  -0.591   0.141  -0.183
    1UNL    H28   57  -0.528   0.070  -0.326
   0.00000   0.00000   0.00000   0.00000   0.00000   0.00000   0.00000   0.00000   0.00000
Generated with MDTraj, t= 91.0
 57
    1UNL     C1    1  -0.698  -0.151   0.165
    1UNL     O1    2  -0.573  -0.137   0.216
    1UNL     C2    3  -0.521  -0.009   0.182
    1UNL     C3    4  -0.369   0.000   0.208
    1UNL     C4    5  -0.307  -0.025   0.066
    1UNL     C5    6  -0.215  -0.153   0.056
    1UNL     C6    7  -0.140  -0.172  -0.078
    1UNL     C7    8  -0.060  -0.046  -0.098
    1UNL     C8    9   0.051  -0.049  -0.207
    1UNL     O2   10   0.174  -0.057  -0.148
    1UNL     C9   11   0.202   0.058  -0.070
    1UNL     O3   12   0.121   0.149  -0.043
    1UNL    C10   13   0.339   0.077  -0.027
    1UNL    C11   14   0.431  -0.006  -0.071
    1UNL    C12   15   0.574   0.001  -0.025
    1UNL    C13   16   0.663  -0.084  -0.090
    1UNL    C14   17   0.798  -0.090  -0.060
    1UNL    C15   18   0.853   0.003   0.027
    1UNL     O4   19   0.983   0.016   0.059
    1UNL    C16   20   0.758   0.090   0.096
    1UNL     O5   21   0.817   0.167   0.189
    1UNL    C17   22   0.625   0.097   0.058
    1UNL    C18   23  -0.151   0.081  -0.117
    1UNL    C19   24  -0.231   0.099   0.018
    1UNL     O6   25  -0.148   0.156   0.117
    1UNL    C20   26  -0.432  -0.047  -0.031
    1UNL     O7   27  -0.407   0.008  -0.159
    1UNL    C21   28  -0.522   0.059  -0.226
    1UNL     O8   29  -0.546   0.010   0.040
    1UNL     H1   30  -0.684  -0.182   0.062
    1UNL     H2   31  -0.752  -0.235   0.217
    1UNL     H3   32  -0.754  -0.055   0.167
    1UNL     H4   33  -0.570   0.069   0.251
    1UNL     H5   34  -0.330   0.100   0.246
    1UNL     H6   35  -0.332  -0.071   0.290
    1UNL     H7   36  -0.273  -0.235   0.083
    1UNL     H8   37  -0.137  -0.148   0.124
    1UNL     H9   38  -0.058  -0.253  -0.077
    1UNL    H10   39  -0.209  -0.197  -0.166
    1UNL    H11   40  -0.001  -0.029  -0.008
    1UNL    H12   41   0.041   0.033  -0.267
    1UNL    H13   42   0.044  -0.136  -0.279
    1UNL    H14   43   0.355   0.160   0.038
    1UNL    H15   44   0.401  -0.096  -0.112
    1UNL    H16   45   0.622  -0.149  -0.172
    1UNL    H17   46   0.859  -0.166  -0.096
    1UNL    H18   47   1.033  -0.047   0.002
    1UNL    H19   48   0.914   0.159   0.182
    1UNL    H20   49   0.575   0.186   0.093
    1UNL    H21   50  -0.100   0.173  -0.150
    1UNL    H22   51  -0.219   0.060  -0.202
    1UNL    H23   52  -0.319   0.172   0.005
    1UNL    H24   53  -0.058   0.149   0.078
    1UNL    H25   54  -0.449  -0.148  -0.047
    1UNL    H26   55  -0.589  -0.024  -0.238
    1UNL    H27   56  -0.578   0.145  -0.187
    1UNL    H28   57  -0.481   0.087  -0.327
   0.00000   0.00000   0.00000   0.00000   0.00000   0.00000   0.00000   0.00000   0.00000
Generated with MDTraj, t= 92.0
 57
    1UNL     C1    1  -0.714  -0.165   0.171
    1UNL     O1    2  -0.585  -0.143   0.209
    1UNL     C2    3  -0.531  -0.018   0.164
    1UNL     C3    4  -0.384   0.010   0.184
    1UNL     C4    5  -0.317  -0.020   0.053
    1UNL     C5    6  -0.214  -0.134   0.058
    1UNL     C6    7  -0.128  -0.149  -0.075
    1UNL     C7    8  -0.056  -0.021  -0.091
    1UNL     C8    9   0.058  -0.016  -0.199
    1UNL     O2   10   0.185  -0.035  -0.147
    1UNL     C9   11   0.214   0.045  -0.042
    1UNL     O3   12   0.144   0.131   0.008
    1UNL    C10   13   0.360   0.045  -0.000
    1UNL    C11   14   0.447  -0.028  -0.072
    1UNL    C12   15   0.591  -0.018  -0.046
    1UNL    C13   16   0.680  -0.111  -0.086
    1UNL    C14   17   0.814  -0.105  -0.052
    1UNL    C15   18   0.856   0.000   0.028
    1UNL     O4   19   0.989   0.008   0.082
    1UNL    C16   20   0.771   0.101   0.069
    1UNL     O5   21   0.818   0.216   0.133
    1UNL    C17   22   0.637   0.088   0.037
    1UNL    C18   23  -0.156   0.091  -0.113
    1UNL    C19   24  -0.238   0.110   0.020
    1UNL     O6   25  -0.160   0.152   0.138
    1UNL    C20   26  -0.442  -0.050  -0.043
    1UNL     O7   27  -0.431   0.019  -0.165
    1UNL    C21   28  -0.559   0.040  -0.214
    1UNL     O8   29  -0.564  -0.005   0.023
    1UNL     H1   30  -0.724  -0.122   0.073
    1UNL     H2   31  -0.734  -0.277   0.160
    1UNL     H3   32  -0.789  -0.115   0.234
    1UNL     H4   33  -0.597   0.050   0.234
    1UNL     H5   34  -0.365   0.110   0.231
    1UNL     H6   35  -0.340  -0.063   0.258
    1UNL     H7   36  -0.256  -0.227   0.077
    1UNL     H8   37  -0.152  -0.117   0.142
    1UNL     H9   38  -0.058  -0.240  -0.074
    1UNL    H10   39  -0.192  -0.164  -0.168
    1UNL    H11   40  -0.005  -0.001   0.004
    1UNL    H12   41   0.057   0.068  -0.256
    1UNL    H13   42   0.040  -0.100  -0.270
    1UNL    H14   43   0.387   0.103   0.087
    1UNL    H15   44   0.413  -0.113  -0.137
    1UNL    H16   45   0.649  -0.197  -0.136
    1UNL    H17   46   0.878  -0.190  -0.077
    1UNL    H18   47   1.049  -0.053   0.033
    1UNL    H19   48   0.911   0.200   0.156
    1UNL    H20   49   0.581   0.175   0.052
    1UNL    H21   50  -0.096   0.181  -0.138
    1UNL    H22   51  -0.217   0.068  -0.200
    1UNL    H23   52  -0.319   0.191   0.007
    1UNL    H24   53  -0.063   0.164   0.124
    1UNL    H25   54  -0.455  -0.150  -0.062
    1UNL    H26   55  -0.600  -0.056  -0.245
    1UNL    H27   56  -0.621   0.095  -0.141
    1UNL    H28   57  -0.547   0.097  -0.311
   0.00000   0.00000   0.00000   0.00000   0.00000   0.00000   0.00000   0.00000   0.00000
Generated with MDTraj, t= 93.0
 57
    1UNL     C1    1  -0.717  -0.199   0.189
    1UNL     O1    2  -0.585  -0.160   0.210
    1UNL     C2    3  -0.549  -0.030   0.164
    1UNL     C3    4  -0.403  -0.007   0.196
    1UNL     C4    5  -0.332  -0.014   0.055
    1UNL     C5    6  -0.236  -0.135   0.034
    1UNL     C6    7  -0.154  -0.134  -0.095
    1UNL     C7    8  -0.075  -0.006  -0.101
    1UNL     C8    9   0.047   0.001  -0.199
    1UNL     O2   10   0.175  -0.043  -0.138
    1UNL     C9   11   0.219   0.041  -0.036
    1UNL     O3   12   0.140   0.100   0.035
    1UNL    C10   13   0.364   0.051  -0.014
    1UNL    C11   14   0.462  -0.024  -0.068
    1UNL    C12   15   0.603  -0.019  -0.025
    1UNL    C13   16   0.690  -0.128  -0.042
    1UNL    C14   17   0.827  -0.122  -0.004
    1UNL    C15   18   0.882  -0.005   0.033
    1UNL     O4   19   1.018   0.003   0.057
    1UNL    C16   20   0.801   0.113   0.053
    1UNL     O5   21   0.856   0.230   0.099
    1UNL    C17   22   0.664   0.101   0.020
    1UNL    C18   23  -0.169   0.119  -0.102
    1UNL    C19   24  -0.250   0.120   0.027
    1UNL     O6   25  -0.168   0.158   0.133
    1UNL    C20   26  -0.453  -0.026  -0.042
    1UNL     O7   27  -0.439   0.039  -0.168
    1UNL    C21   28  -0.551   0.022  -0.249
    1UNL     O8   29  -0.577   0.003   0.024
    1UNL     H1   30  -0.723  -0.232   0.087
    1UNL     H2   31  -0.757  -0.282   0.259
    1UNL     H3   32  -0.786  -0.115   0.187
    1UNL     H4   33  -0.624   0.031   0.230
    1UNL     H5   34  -0.383   0.091   0.243
    1UNL     H6   35  -0.371  -0.085   0.268
    1UNL     H7   36  -0.288  -0.224   0.043
    1UNL     H8   37  -0.173  -0.145   0.120
    1UNL     H9   38  -0.093  -0.234  -0.100
    1UNL    H10   39  -0.221  -0.138  -0.186
    1UNL    H11   40  -0.035   0.001   0.001
    1UNL    H12   41   0.072   0.095  -0.228
    1UNL    H13   42   0.033  -0.062  -0.289
    1UNL    H14   43   0.386   0.122   0.064
    1UNL    H15   44   0.441  -0.104  -0.131
    1UNL    H16   45   0.640  -0.217  -0.085
    1UNL    H17   46   0.884  -0.216  -0.012
    1UNL    H18   47   1.059  -0.071   0.003
    1UNL    H19   48   0.951   0.211   0.132
    1UNL    H20   49   0.598   0.192   0.013
    1UNL    H21   50  -0.098   0.204  -0.119
    1UNL    H22   51  -0.230   0.122  -0.188
    1UNL    H23   52  -0.326   0.207   0.022
    1UNL    H24   53  -0.073   0.152   0.103
    1UNL    H25   54  -0.459  -0.126  -0.061
    1UNL    H26   55  -0.584  -0.082  -0.249
    1UNL    H27   56  -0.619   0.094  -0.198
    1UNL    H28   57  -0.533   0.044  -0.358
   0.00000   0.00000   0.00000   0.00000   0.00000   0.00000   0.00000   0.00000   0.00000
Generated with MDTraj, t= 94.0
 57
    1UNL     C1    1  -0.707  -0.200   0.146
    1UNL     O1    2  -0.587  -0.163   0.206
    1UNL     C2    3  -0.536  -0.035   0.163
    1UNL     C3    4  -0.386  -0.025   0.189
    1UNL     C4    5  -0.320  -0.021   0.051
    1UNL     C5    6  -0.234  -0.151   0.039
    1UNL     C6    7  -0.132  -0.142  -0.079
    1UNL     C7    8  -0.056  -0.009  -0.084
    1UNL     C8    9   0.057   0.001  -0.195
    1UNL     O2   10   0.189  -0.027  -0.128
    1UNL     C9   11   0.216   0.068  -0.026
    1UNL     O3   12   0.130   0.135   0.029
    1UNL    C10   13   0.351   0.060   0.023
    1UNL    C11   14   0.443  -0.028  -0.023
    1UNL    C12   15   0.591  -0.022  -0.011
    1UNL    C13   16   0.669  -0.136  -0.012
    1UNL    C14   17   0.808  -0.135  -0.007
    1UNL    C15   18   0.871  -0.014   0.026
    1UNL     O4   19   1.008  -0.006   0.048
    1UNL    C16   20   0.790   0.108   0.031
    1UNL     O5   21   0.854   0.232   0.043
    1UNL    C17   22   0.652   0.103   0.011
    1UNL    C18   23  -0.153   0.112  -0.099
    1UNL    C19   24  -0.245   0.113   0.024
    1UNL     O6   25  -0.177   0.162   0.140
    1UNL    C20   26  -0.447  -0.026  -0.046
    1UNL     O7   27  -0.445   0.054  -0.163
    1UNL    C21   28  -0.555   0.035  -0.252
    1UNL     O8   29  -0.566  -0.004   0.027
    1UNL     H1   30  -0.706  -0.170   0.046
    1UNL     H2   31  -0.721  -0.314   0.146
    1UNL     H3   32  -0.793  -0.150   0.186
    1UNL     H4   33  -0.592   0.046   0.223
    1UNL     H5   34  -0.354   0.071   0.232
    1UNL     H6   35  -0.352  -0.104   0.252
    1UNL     H7   36  -0.293  -0.238   0.039
    1UNL     H8   37  -0.184  -0.165   0.131
    1UNL     H9   38  -0.050  -0.223  -0.068
    1UNL    H10   39  -0.200  -0.167  -0.165
    1UNL    H11   40  -0.014   0.003   0.017
    1UNL    H12   41   0.068   0.096  -0.230
    1UNL    H13   42   0.050  -0.077  -0.275
    1UNL    H14   43   0.384   0.140   0.087
    1UNL    H15   44   0.404  -0.110  -0.087
    1UNL    H16   45   0.628  -0.235  -0.028
    1UNL    H17   46   0.873  -0.216  -0.006
    1UNL    H18   47   1.058  -0.083   0.011
    1UNL    H19   48   0.947   0.216   0.042
    1UNL    H20   49   0.609   0.197   0.008
    1UNL    H21   50  -0.098   0.208  -0.119
    1UNL    H22   51  -0.205   0.096  -0.188
    1UNL    H23   52  -0.326   0.190   0.001
    1UNL    H24   53  -0.082   0.165   0.118
    1UNL    H25   54  -0.454  -0.122  -0.080
    1UNL    H26   55  -0.529  -0.032  -0.333
    1UNL    H27   56  -0.622  -0.001  -0.176
    1UNL    H28   57  -0.595   0.129  -0.294
   0.00000   0.00000   0.00000   0.00000   0.00000   0.00000   0.00000   0.00000   0.00000
Generated with MDTraj, t= 95.0
 57
    1UNL     C1    1  -0.691  -0.208   0.120
    1UNL     O1    2  -0.573  -0.178   0.182
    1UNL     C2    3  -0.537  -0.041   0.157
    1UNL     C3    4  -0.388  -0.012   0.190
    1UNL     C4    5  -0.314  -0.018   0.050
    1UNL     C5    6  -0.217  -0.143   0.053
    1UNL     C6    7  -0.131  -0.148  -0.083
    1UNL     C7    8  -0.063  -0.013  -0.079
    1UNL     C8    9   0.059  -0.002  -0.179
    1UNL     O2   10   0.179  -0.021  -0.099
    1UNL     C9   11   0.205   0.086  -0.025
    1UNL     O3   12   0.132   0.174   0.017
    1UNL    C10   13   0.344   0.089   0.028
    1UNL    C11   14   0.423  -0.016   0.006
    1UNL    C12   15   0.569  -0.016   0.013
    1UNL    C13   16   0.640  -0.139   0.016
    1UNL    C14   17   0.774  -0.142   0.019
    1UNL    C15   18   0.853  -0.024   0.013
    1UNL     O4   19   0.992  -0.014   0.016
    1UNL    C16   20   0.782   0.098   0.014
    1UNL     O5   21   0.846   0.226   0.010
    1UNL    C17   22   0.641   0.105   0.009
    1UNL    C18   23  -0.157   0.107  -0.097
    1UNL    C19   24  -0.240   0.111   0.031
    1UNL     O6   25  -0.141   0.128   0.139
    1UNL    C20   26  -0.435  -0.039  -0.050
    1UNL     O7   27  -0.412   0.018  -0.174
    1UNL    C21   28  -0.528   0.079  -0.228
    1UNL     O8   29  -0.551  -0.005   0.019
    1UNL     H1   30  -0.723  -0.142   0.047
    1UNL     H2   31  -0.681  -0.313   0.080
    1UNL     H3   32  -0.769  -0.209   0.194
    1UNL     H4   33  -0.600   0.032   0.214
    1UNL     H5   34  -0.379   0.083   0.239
    1UNL     H6   35  -0.336  -0.086   0.243
    1UNL     H7   36  -0.272  -0.232   0.068
    1UNL     H8   37  -0.153  -0.147   0.137
    1UNL     H9   38  -0.060  -0.238  -0.071
    1UNL    H10   39  -0.200  -0.160  -0.170
    1UNL    H11   40  -0.024  -0.000   0.023
    1UNL    H12   41   0.070   0.091  -0.219
    1UNL    H13   42   0.065  -0.090  -0.251
    1UNL    H14   43   0.378   0.177   0.080
    1UNL    H15   44   0.380  -0.090  -0.059
    1UNL    H16   45   0.579  -0.226   0.005
    1UNL    H17   46   0.817  -0.245   0.008
    1UNL    H18   47   1.036  -0.088  -0.030
    1UNL    H19   48   0.939   0.201   0.038
    1UNL    H20   49   0.591   0.202   0.002
    1UNL    H21   50  -0.106   0.205  -0.117
    1UNL    H22   51  -0.220   0.083  -0.178
    1UNL    H23   52  -0.307   0.201   0.031
    1UNL    H24   53  -0.048   0.159   0.115
    1UNL    H25   54  -0.442  -0.138  -0.071
    1UNL    H26   55  -0.589   0.007  -0.276
    1UNL    H27   56  -0.572   0.117  -0.139
    1UNL    H28   57  -0.494   0.157  -0.298
   0.00000   0.00000   0.00000   0.00000   0.00000   0.00000   0.00000   0.00000   0.00000
Generated with MDTraj, t= 96.0
 57
    1UNL     C1    1  -0.697  -0.226   0.113
    1UNL     O1    2  -0.572  -0.194   0.170
    1UNL     C2    3  -0.545  -0.056   0.155
    1UNL     C3    4  -0.396  -0.028   0.195
    1UNL     C4    5  -0.316  -0.023   0.058
    1UNL     C5    6  -0.221  -0.144   0.061
    1UNL     C6    7  -0.139  -0.147  -0.069
    1UNL     C7    8  -0.048  -0.027  -0.070
    1UNL     C8    9   0.056  -0.017  -0.191
    1UNL     O2   10   0.186  -0.009  -0.137
    1UNL     C9   11   0.209   0.091  -0.045
    1UNL     O3   12   0.117   0.165  -0.004
    1UNL    C10   13   0.344   0.110   0.006
    1UNL    C11   14   0.423   0.002   0.016
    1UNL    C12   15   0.565   0.003   0.037
    1UNL    C13   16   0.631  -0.124   0.050
    1UNL    C14   17   0.764  -0.143   0.037
    1UNL    C15   18   0.840  -0.029   0.015
    1UNL     O4   19   0.976  -0.033  -0.004
    1UNL    C16   20   0.777   0.103   0.008
    1UNL     O5   21   0.863   0.209  -0.011
    1UNL    C17   22   0.644   0.115   0.027
    1UNL    C18   23  -0.139   0.102  -0.081
    1UNL    C19   24  -0.234   0.108   0.038
    1UNL     O6   25  -0.164   0.149   0.162
    1UNL    C20   26  -0.429  -0.043  -0.050
    1UNL     O7   27  -0.388   0.029  -0.169
    1UNL    C21   28  -0.495   0.122  -0.214
    1UNL     O8   29  -0.553  -0.015   0.012
    1UNL     H1   30  -0.701  -0.227   0.008
    1UNL     H2   31  -0.728  -0.325   0.157
    1UNL     H3   32  -0.766  -0.153   0.149
    1UNL     H4   33  -0.616   0.003   0.215
    1UNL     H5   34  -0.394   0.067   0.236
    1UNL     H6   35  -0.353  -0.101   0.258
    1UNL     H7   36  -0.274  -0.237   0.070
    1UNL     H8   37  -0.163  -0.149   0.148
    1UNL     H9   38  -0.074  -0.241  -0.074
    1UNL    H10   39  -0.216  -0.152  -0.153
    1UNL    H11   40  -0.001  -0.012   0.030
    1UNL    H12   41   0.052   0.066  -0.251
    1UNL    H13   42   0.057  -0.118  -0.245
    1UNL    H14   43   0.368   0.212   0.028
    1UNL    H15   44   0.386  -0.092  -0.024
    1UNL    H16   45   0.565  -0.215   0.058
    1UNL    H17   46   0.819  -0.232   0.023
    1UNL    H18   47   1.006  -0.114  -0.051
    1UNL    H19   48   0.955   0.178  -0.027
    1UNL    H20   49   0.592   0.210   0.020
    1UNL    H21   50  -0.076   0.193  -0.088
    1UNL    H22   51  -0.202   0.092  -0.170
    1UNL    H23   52  -0.306   0.189   0.024
    1UNL    H24   53  -0.071   0.162   0.134
    1UNL    H25   54  -0.425  -0.143  -0.069
    1UNL    H26   55  -0.540   0.168  -0.128
    1UNL    H27   56  -0.446   0.209  -0.256
    1UNL    H28   57  -0.561   0.072  -0.290
   0.00000   0.00000   0.00000   0.00000   0.00000   0.00000   0.00000   0.00000   0.00000
Generated with MDTraj, t= 97.0
 57
    1UNL     C1    1  -0.691  -0.233   0.089
    1UNL     O1    2  -0.594  -0.176   0.186
    1UNL     C2    3  -0.555  -0.050   0.142
    1UNL     C3    4  -0.415  -0.016   0.186
    1UNL     C4    5  -0.322  -0.032   0.057
    1UNL     C5    6  -0.223  -0.154   0.072
    1UNL     C6    7  -0.126  -0.161  -0.046
    1UNL     C7    8  -0.053  -0.027  -0.070
    1UNL     C8    9   0.061  -0.006  -0.185
    1UNL     O2   10   0.192  -0.003  -0.133
    1UNL     C9   11   0.212   0.105  -0.049
    1UNL     O3   12   0.125   0.186  -0.017
    1UNL    C10   13   0.352   0.121  -0.005
    1UNL    C11   14   0.419   0.004   0.002
    1UNL    C12   15   0.560  -0.000   0.027
    1UNL    C13   16   0.622  -0.121   0.058
    1UNL    C14   17   0.759  -0.138   0.046
    1UNL    C15   18   0.849  -0.024   0.027
    1UNL     O4   19   0.986  -0.031   0.021
    1UNL    C16   20   0.787   0.100   0.000
    1UNL     O5   21   0.881   0.205  -0.021
    1UNL    C17   22   0.651   0.107  -0.009
    1UNL    C18   23  -0.149   0.097  -0.083
    1UNL    C19   24  -0.233   0.100   0.037
    1UNL     O6   25  -0.146   0.112   0.153
    1UNL    C20   26  -0.429  -0.054  -0.058
    1UNL     O7   27  -0.416   0.031  -0.171
    1UNL    C21   28  -0.496   0.152  -0.155
    1UNL     O8   29  -0.557  -0.042  -0.001
    1UNL     H1   30  -0.657  -0.231  -0.013
    1UNL     H2   31  -0.727  -0.336   0.119
    1UNL     H3   32  -0.774  -0.166   0.096
    1UNL     H4   33  -0.626   0.018   0.183
    1UNL     H5   34  -0.407   0.076   0.230
    1UNL     H6   35  -0.391  -0.094   0.251
    1UNL     H7   36  -0.269  -0.251   0.085
    1UNL     H8   37  -0.170  -0.149   0.162
    1UNL     H9   38  -0.047  -0.241  -0.031
    1UNL    H10   39  -0.181  -0.189  -0.142
    1UNL    H11   40   0.003   0.001   0.024
    1UNL    H12   41   0.055   0.089  -0.226
    1UNL    H13   42   0.062  -0.081  -0.272
    1UNL    H14   43   0.411   0.211   0.005
    1UNL    H15   44   0.354  -0.084   0.003
    1UNL    H16   45   0.567  -0.205   0.078
    1UNL    H17   46   0.802  -0.238   0.038
    1UNL    H18   47   1.005  -0.126   0.002
    1UNL    H19   48   0.970   0.171  -0.006
    1UNL    H20   49   0.604   0.201  -0.025
    1UNL    H21   50  -0.090   0.188  -0.092
    1UNL    H22   51  -0.207   0.079  -0.179
    1UNL    H23   52  -0.285   0.193   0.043
    1UNL    H24   53  -0.064   0.150   0.114
    1UNL    H25   54  -0.424  -0.151  -0.088
    1UNL    H26   55  -0.425   0.234  -0.165
    1UNL    H27   56  -0.561   0.163  -0.243
    1UNL    H28   57  -0.565   0.142  -0.064
   0.00000   0.00000   0.00000   0.00000   0.00000   0.00000   0.00000   0.00000   0.00000
Generated with MDTraj, t= 98.0
 57
    1UNL     C1    1  -0.694  -0.251   0.117
    1UNL     O1    2  -0.573  -0.208   0.169
    1UNL     C2    3  -0.556  -0.069   0.144
    1UNL     C3    4  -0.412  -0.024   0.184
    1UNL     C4    5  -0.330  -0.027   0.058
    1UNL     C5    6  -0.239  -0.148   0.052
    1UNL     C6    7  -0.150  -0.154  -0.073
    1UNL     C7    8  -0.059  -0.033  -0.063
    1UNL     C8    9   0.054  -0.020  -0.175
    1UNL     O2   10   0.175  -0.026  -0.111
    1UNL     C9   11   0.213   0.095  -0.053
    1UNL     O3   12   0.136   0.188  -0.042
    1UNL    C10   13   0.354   0.107  -0.013
    1UNL    C11   14   0.443   0.006  -0.041
    1UNL    C12   15   0.582   0.005  -0.000
    1UNL    C13   16   0.644  -0.121   0.038
    1UNL    C14   17   0.776  -0.136   0.060
    1UNL    C15   18   0.847  -0.023   0.047
    1UNL     O4   19   0.986  -0.021   0.070
    1UNL    C16   20   0.797   0.098  -0.007
    1UNL     O5   21   0.889   0.198  -0.028
    1UNL    C17   22   0.663   0.115  -0.023
    1UNL    C18   23  -0.152   0.100  -0.073
    1UNL    C19   24  -0.244   0.108   0.046
    1UNL     O6   25  -0.170   0.134   0.169
    1UNL    C20   26  -0.440  -0.038  -0.057
    1UNL     O7   27  -0.415   0.053  -0.165
    1UNL    C21   28  -0.491   0.169  -0.159
    1UNL     O8   29  -0.571  -0.028   0.007
    1UNL     H1   30  -0.687  -0.257   0.007
    1UNL     H2   31  -0.726  -0.347   0.167
    1UNL     H3   32  -0.762  -0.170   0.146
    1UNL     H4   33  -0.628  -0.020   0.203
    1UNL     H5   34  -0.400   0.073   0.216
    1UNL     H6   35  -0.365  -0.085   0.252
    1UNL     H7   36  -0.298  -0.238   0.057
    1UNL     H8   37  -0.178  -0.161   0.136
    1UNL     H9   38  -0.100  -0.254  -0.096
    1UNL    H10   39  -0.213  -0.136  -0.169
    1UNL    H11   40  -0.005  -0.025   0.036
    1UNL    H12   41   0.049   0.067  -0.232
    1UNL    H13   42   0.053  -0.101  -0.259
    1UNL    H14   43   0.392   0.198   0.031
    1UNL    H15   44   0.394  -0.083  -0.075
    1UNL    H16   45   0.568  -0.204   0.037
    1UNL    H17   46   0.816  -0.229   0.097
    1UNL    H18   47   1.012  -0.115   0.086
    1UNL    H19   48   0.976   0.152  -0.001
    1UNL    H20   49   0.614   0.213  -0.045
    1UNL    H21   50  -0.083   0.182  -0.084
    1UNL    H22   51  -0.208   0.094  -0.174
    1UNL    H23   52  -0.311   0.189   0.038
    1UNL    H24   53  -0.081   0.157   0.139
    1UNL    H25   54  -0.445  -0.130  -0.100
    1UNL    H26   55  -0.465   0.226  -0.249
    1UNL    H27   56  -0.600   0.147  -0.151
    1UNL    H28   57  -0.476   0.229  -0.064
   0.00000   0.00000   0.00000   0.00000   0.00000   0.00000   0.00000   0.00000   0.00000
Generated with MDTraj, t= 99.0
 57
    1UNL     C1    1  -0.689  -0.252   0.102
    1UNL     O1    2  -0.570  -0.208   0.153
    1UNL     C2    3  -0.556  -0.064   0.151
    1UNL     C3    4  -0.414  -0.018   0.190
    1UNL     C4    5  -0.336  -0.015   0.062
    1UNL     C5    6  -0.244  -0.148   0.057
    1UNL     C6    7  -0.143  -0.145  -0.067
    1UNL     C7    8  -0.055  -0.028  -0.055
    1UNL     C8    9   0.052  -0.022  -0.175
    1UNL     O2   10   0.185  -0.043  -0.140
    1UNL     C9   11   0.233   0.078  -0.082
    1UNL     O3   12   0.161   0.168  -0.053
    1UNL    C10   13   0.371   0.092  -0.062
    1UNL    C11   14   0.450  -0.020  -0.057
    1UNL    C12   15   0.590  -0.016  -0.027
    1UNL    C13   16   0.646  -0.129   0.031
    1UNL    C14   17   0.777  -0.128   0.074
    1UNL    C15   18   0.868  -0.016   0.059
    1UNL     O4   19   0.997   0.003   0.103
    1UNL    C16   20   0.808   0.102   0.003
    1UNL     O5   21   0.879   0.218  -0.010
    1UNL    C17   22   0.673   0.093  -0.037
    1UNL    C18   23  -0.140   0.102  -0.056
    1UNL    C19   24  -0.239   0.111   0.058
    1UNL     O6   25  -0.173   0.113   0.180
    1UNL    C20   26  -0.453  -0.012  -0.046
    1UNL     O7   27  -0.449   0.104  -0.136
    1UNL    C21   28  -0.571   0.135  -0.185
    1UNL     O8   29  -0.578  -0.014   0.025
    1UNL     H1   30  -0.735  -0.174   0.035
    1UNL     H2   31  -0.658  -0.342   0.045
    1UNL     H3   32  -0.749  -0.284   0.188
    1UNL     H4   33  -0.637  -0.025   0.206
    1UNL     H5   34  -0.407   0.077   0.232
    1UNL     H6   35  -0.362  -0.080   0.254
    1UNL     H7   36  -0.296  -0.241   0.055
    1UNL     H8   37  -0.183  -0.166   0.142
    1UNL     H9   38  -0.081  -0.241  -0.078
    1UNL    H10   39  -0.197  -0.149  -0.170
    1UNL    H11   40   0.003  -0.041   0.042
    1UNL    H12   41   0.040   0.064  -0.238
    1UNL    H13   42   0.020  -0.095  -0.259
    1UNL    H14   43   0.407   0.190  -0.038
    1UNL    H15   44   0.402  -0.116  -0.086
    1UNL    H16   45   0.585  -0.211   0.060
    1UNL    H17   46   0.828  -0.212   0.117
    1UNL    H18   47   1.029  -0.084   0.138
    1UNL    H19   48   0.963   0.200   0.033
    1UNL    H20   49   0.637   0.185  -0.066
    1UNL    H21   50  -0.067   0.182  -0.052
    1UNL    H22   51  -0.188   0.101  -0.160
    1UNL    H23   52  -0.302   0.197   0.056
    1UNL    H24   53  -0.110   0.187   0.183
    1UNL    H25   54  -0.446  -0.095  -0.105
    1UNL    H26   55  -0.557   0.211  -0.260
    1UNL    H27   56  -0.628   0.047  -0.219
    1UNL    H28   57  -0.637   0.175  -0.103
   0.00000   0.00000   0.00000   0.00000   0.00000   0.00000   0.00000   0.00000   0.00000
