[ moleculetype ]
; name        nrexcl
res           1

[ atoms ]
;    nr  type  resnr resid  atom  cgnr     charge       mass
      1 TN4a      1 res   C1        1      0.000     36.000
      2 TN6       1 res   C2        2      0.000     36.000
      3 TX4e      1 res   C3        3      0.000     36.000
      4 TN6       1 res   C4        4      0.000     36.000
      5 TN6       1 res   C5        5      0.000     36.000
      6 TP1       1 res   C6        6      0.000     36.000

[ bonds ]
;  ai    aj   funct      b0(nm)          k(kJ/mol/nm^2)
    1     2     1      0.23249          18206.7
    1     5     1      0.23034          34895.5
    1     6     1      0.22529          31528.2
    2     3     1      0.20839          61828.3
    3     4     1      0.23020          54299.4
    4     5     1      0.24294          36076.8

[ angles ]
;  ai    aj    ak  funct     th0(deg)        k(kJ/mol/rad^2)
    1     2     3     1     85.53870           234.41
    1     5     4     1     75.82474           934.41
    2     1     5     1    107.99854            61.99
    2     1     6     1    167.08352           305.43
    2     3     4     1    102.09063           361.86
    3     4     5     1     79.33645           620.54
    5     1     6     1     82.11636           156.36

[ dihedrals ]
;  ai    aj    ak    al  funct   phi0(deg)        k(kJ/mol)   mult
    1     2     3     4     1    147.84018       21.687      1
    1     2     3     4     1    115.56261       18.724      2
    1     2     3     4     1     82.98794       14.346      3
    1     5     4     3     1    109.87673       13.699      1
    1     5     4     3     1     39.74953       13.041      2
    1     5     4     3     1    -30.38631       11.986      3
    2     1     5     4     1   -120.24255       19.119      1
    2     1     5     4     1    -60.33734       17.081      2
    2     1     5     4     1     -0.08595       14.001      3
    2     3     4     5     1   -102.34577       20.375      1
    2     3     4     5     1    -24.34424       17.730      2
    2     3     4     5     1     54.53634       13.841      3
    3     2     1     5     1    161.41385       23.400      1
    3     2     1     5     1    143.03684       18.979      2
    3     2     1     5     1    125.22883       12.789      3
    3     2     1     6     1    -11.93105       21.601      1
    3     2     1     6     1   -167.22147       16.801      2
    3     2     1     6     1     17.80549        7.785      3
    4     5     1     6     1     63.81116       20.981      1
    4     5     1     6     1    -52.67227       17.971      2
    4     5     1     6     1   -169.96467       13.555      3
