1TPCN01726
10
    1res  C1    1   -0.194  -0.247   0.112
    1res  C2    2   -0.419  -0.009   0.023
    1res  C3    3   -0.170   0.147   0.079
    1res  C4    4   -0.032   0.064  -0.146
    1res  C5    5    0.065   0.261  -0.093
    1res  C6    6    0.198   0.201   0.012
    1res  C7    7    0.300   0.067  -0.030
    1res  C8    8    0.360  -0.002   0.171
    1res  C9    9    0.326  -0.160  -0.091
    1res  C10   10    0.364  -0.240   0.114
  10.00000  10.00000  10.00000
