[ moleculetype ]
; name        nrexcl
res           1

[ atoms ]
;    nr  type  resnr resid  atom  cgnr     charge       mass
      1 TC5       1 res   C1        1      0.000     36.000
      2 TC5       1 res   C2        2      0.000     36.000
      3 TC5       1 res   C3        3      0.000     36.000
      4 TC5       1 res   C4        4      0.000     36.000

[ constraints ]
;  ai    aj   funct      b0(nm)
    1     2     1      0.28782
    1     3     1      0.29837
    2     3     1      0.25616
    3     4     1      0.25427

[ bonds ]
;  ai    aj   funct      b0(nm)          k(kJ/mol/nm^2)

[ angles ]
;  ai    aj    ak  funct     th0(deg)        k(kJ/mol/rad^2)
    1     2     3     1     66.22864          6369.24
    1     3     2     1     61.98123          7316.07
    1     3     4     1     98.80261          1555.74
    2     1     3     1     51.79011          5239.27
    2     3     4     1    159.59051           783.90

[ dihedrals ]
;  ai    aj    ak    al  funct   phi0(deg)        k(kJ/mol)   mult
    1     2     3     4     1   -178.08691       25.447      1
    2     1     3     4     1      0.87364       12.980      1
