157722-16-4
6
    1res  C1    1   -0.181   0.097   0.016
    1res  C2    2   -0.153  -0.127  -0.001
    1res  C3    3    0.037  -0.135   0.123
    1res  C4    4    0.193  -0.080  -0.028
    1res  C5    5    0.181   0.141  -0.083
    1res  C6    6   -0.026   0.227  -0.082
  10.00000  10.00000  10.00000
