1TPCN02217
9
    1res  C1    1    0.454  -0.022  -0.044
    1res  C2    2    0.302  -0.143   0.137
    1res  C3    3    0.188  -0.127  -0.126
    1res  C4    4    0.000  -0.252   0.012
    1res  C5    5   -0.039  -0.005   0.109
    1res  C6    6   -0.356  -0.116  -0.055
    1res  C7    7   -0.232   0.173  -0.069
    1res  C8    8   -0.113   0.164   0.251
    1res  C9    9    0.254   0.215  -0.021
  10.00000  10.00000  10.00000
