[ moleculetype ]
; name        nrexcl
res           1

[ atoms ]
;    nr  type resnr resid  atom  cgnr     charge       mass
      1 SC2       1 res   C1        1      0.000     54.000
      2 TC5       1 res   C2        2      0.000     36.000
      3 TC5       1 res   C3        3      0.000     36.000
      4 TC5       1 res   C4        4      0.000     36.000
      5 TC3       1 res   C5        5      0.000     36.000
      6 SC4       1 res   C6        6      0.000     54.000
      7 TC4       1 res   C7        7      0.000     36.000
      8 N4a       1 res   C8        8      0.000     72.000
      9 SC3       1 res   C9        9      0.000     54.000

[ bonds ]
;  ai    aj   funct      b0(nm)        k
    1     2     1      0.24670    20000
    2     3     1      0.30129    20000
    2     4     1      0.22437    20000
    3     4     1      0.25338    20000
    4     5     1      0.24070    20000
    4     6     1      0.26671    20000
    5     6     1      0.34156    20000
    6     7     1      0.37745    20000
    6     9     1      0.27557    20000
    7     8     1      0.33782    20000
    7     9     1      0.36087    20000
