[ moleculetype ]
; name        nrexcl
res           1

[ atoms ]
;    nr  type  resnr resid  atom  cgnr     charge       mass
      1 SN3r      1 res   C1        1      0.000     54.000
      2 TN6a      1 res   C2        2      0.000     36.000
      3 TN6a      1 res   C3        3      0.000     36.000
      4 X2        1 res   C4        4      0.000     72.000
      5 TC6       1 res   C5        5      0.000     36.000

[ constraints ]
;  ai    aj   funct      b0(nm)
    3     5     1      0.19728
    2     3     1      0.19019
    2     5     1      0.20781
    3     4     1      0.23329

[ bonds ]
;  ai    aj   funct      b0(nm)          k(kJ/mol/nm^2)
    1     2     1      0.25912          14901.8

[ angles ]
;  ai    aj    ak  funct     th0(deg)        k(kJ/mol/rad^2)
    1     2     3     1    160.36393           227.69
    1     2     5     1    129.03121           238.55
    2     3     4     1    107.87020          1284.50
    2     3     5     1     64.83237          4841.04
    2     5     3     1     55.93559          4971.58
    3     2     5     1     59.23196          5359.54
    4     3     5     1    170.82556          1065.90

[ dihedrals ]
;  ai    aj    ak    al  funct   phi0(deg)        k(kJ/mol)   mult
    1     2     3     4     1    134.73156       31.315      1
    1     2     3     5     1    -42.73248       30.168      1
    1     2     5     3     1     15.19769       18.977      1
    2     5     3     4     1   -177.96605       32.700      1
    4     3     2     5     1      0.03734       10.770      1
