1TPCN05904
24
    1res  C1    1    0.577   0.229  -0.027
    1res  C2    2    0.736  -0.019  -0.219
    1res  C3    3    0.655  -0.222  -0.064
    1res  C4    4    0.556  -0.302   0.185
    1res  C5    5    0.388  -0.108   0.039
    1res  C6    6    0.086   0.004   0.131
    1res  C7    7   -0.006   0.094  -0.098
    1res  C8    8   -0.221  -0.186  -0.166
    1res  C9    9   -0.268   0.089  -0.187
    1res  C10   10   -0.335   0.241   0.057
    1res  C11   11   -0.533   0.065  -0.210
    1res  C12   12   -0.664   0.107   0.080
    1res  C13   13   -0.786   0.250   0.146
    1res  C14   14   -0.595  -0.110   0.009
    1res  C15   15   -1.048   0.089   0.021
    1res  C16   16   -0.797   0.171  -0.161
    1res  C17   17    0.175  -0.208  -0.172
    1res  C18   18    0.061  -0.322   0.081
    1res  C19   19    0.416  -0.029   0.251
    1res  C20   20    0.472   0.151   0.369
    1res  C21   21    0.622  -0.090   0.326
    1res  C22   22    0.835  -0.330  -0.063
    1res  C23   23    1.003  -0.204  -0.049
    1res  C24   24    0.989  -0.029  -0.216
  10.00000  10.00000  10.00000
