[ moleculetype ]
; name        nrexcl
res           1

[ atoms ]
;    nr  type  resnr resid  atom  cgnr     charge       mass
      1 TC5       1 res   C1        1      0.000     36.000
      2 TC3       1 res   C2        2      0.000     36.000
      3 TN4a      1 res   C3        3      0.000     36.000
      4 SP4       1 res   C4        4      0.000     54.000
      5 TN4a      1 res   C5        5      0.000     36.000
      6 TP1       1 res   C6        6      0.000     36.000
      7 SP4       1 res   C7        7      0.000     54.000
      8 TC5       1 res   C8        8      0.000     36.000
      9 SP2       1 res   C9        9      0.000     54.000
     10 TC4       1 res   C10      10      0.000     36.000
     11 SN6d      1 res   C11      11      0.000     54.000
     12 TC5       1 res   C12      12      0.000     36.000
     13 SN6       1 res   C13      13      0.000     54.000
     14 TC5       1 res   C14      14      0.000     36.000
     15 TN2a      1 res   C15      15      0.000     36.000

[ constraints ]
;  ai    aj   funct      b0(nm)
   10    11     1      0.34684
    2     3     1      0.25677
   11    12     1      0.23328
    4     5     1      0.26058
    3     8     1      0.26463
   12    14     1      0.22119
    5     7     1      0.25056
   13    14     1      0.29937
   12    13     1      0.28859
    2     8     1      0.26493
    5     6     1      0.21517
    4     7     1      0.29283
   10    12     1      0.28575
    2    10     1      0.29542
    8     9     1      0.25535

[ bonds ]
;  ai    aj   funct      b0(nm)          k(kJ/mol/nm^2)
    1     2     1      0.27205          11783.9
   14    15     1      0.24843           9600.1
    3     4     1      0.30799          10734.5

[ angles ]
;  ai    aj    ak  funct     th0(deg)        k(kJ/mol/rad^2)
    1     2     3     1     86.74189            96.81
    1     2     8     1    146.52348            87.41
    1     2    10     1     95.04193           124.21
    2     3     4     1    107.98427           260.19
    2     3     8     1     61.05309          3768.36
    2     8     3     1     58.01339          4447.13
    2     8     9     1     93.40452           929.48
    2    10    11     1     90.40281            76.30
    2    10    12     1     82.25494           327.46
    3     2     8     1     60.93353          5109.25
    3     2    10     1     97.76949           729.44
    3     4     5     1     76.17138            83.01
    3     4     7     1    122.77832           351.31
    3     8     9     1    150.68973           941.07
    4     3     8     1    111.25142            55.50
    4     5     6     1    127.58652           182.53
    4     5     7     1     69.87364          1321.04
    4     7     5     1     56.66053          1632.41
    5     4     7     1     53.46578          1553.11
    6     5     7     1    110.34515           581.71
    8     2    10     1     89.62242           661.76
   10    11    12     1     54.89230          3384.90
   10    12    11     1     83.20764          2792.65
   10    12    13     1    144.65474          1061.90
   10    12    14     1     76.91872          1291.11
   11    10    12     1     41.90003          5806.28
   11    12    13     1    131.16749          1738.37
   11    12    14     1    155.76228           929.48
   12    13    14     1     44.15081         10626.43
   12    14    13     1     65.33613          9067.25
   12    14    15     1    155.25766            74.19
   13    12    14     1     70.51302          7395.25
   13    14    15     1     94.24473           131.68

[ dihedrals ]
;  ai    aj    ak    al  funct   phi0(deg)        k(kJ/mol)   mult
    1     2     3     4     1   -103.08302       19.857      1
    1     2     3     8     1     -1.76733       15.045      1
    1     2     8     3     1   -176.66310       22.864      1
    1     2     8     9     1      1.06862       20.789      1
    1     2    10    11     1    -71.36031       24.863      1
    1     2    10    12     1   -111.45641       27.289      1
    2     3     4     5     1     18.78933       28.460      1
    2     3     4     7     1     -4.61537       25.215      1
    2     3     8     9     1    174.15067       19.545      1
    2     8     3     4     1    -83.19527       12.942      1
    2    10    11    12     1    102.94980       15.709      1
    2    10    12    11     1    -78.97298       18.437      1
    2    10    12    13     1    108.55450       19.072      1
    2    10    12    14     1     92.15484       22.840      1
    3     2     8     9     1     -1.48326       12.859      1
    3     2    10    11     1     15.16980       21.564      1
    3     2    10    12     1    -24.55466       22.187      1
    3     4     5     6     1    -70.94719       17.297      1
    3     4     5     7     1     27.88243       17.463      1
    3     4     7     5     1   -138.03190       18.858      1
    3     8     2    10     1     80.58946        6.998      1
    4     3     2     8     1     79.88340       18.329      1
    4     3     2    10     1    164.87392       19.763      1
    4     3     8     9     1    -83.84999       24.989      1
    4     7     5     6     1    -53.91204       12.244      1
    5     4     3     8     1    -42.81348       27.550      1
    6     5     4     7     1     77.10976       10.003      1
    7     4     3     8     1    -66.02444       24.451      1
    8     2    10    11     1     76.17573       22.282      1
    8     2    10    12     1     35.45699       23.373      1
    8     3     2    10     1    -95.01544        7.042      1
    9     8     2    10     1   -102.90060       14.314      1
   10    11    12    13     1     -3.34225       11.441      1
   10    11    12    14     1    153.18551       21.181      1
   10    12    13    14     1    159.04361       14.979      1
   10    12    14    13     1    -11.65102       10.737      1
   10    12    14    15     1     -5.59899       26.989      1
   11    10    12    13     1      8.56754       14.292      1
   11    10    12    14     1    -10.87416       14.235      1
   11    12    13    14     1     -9.64680       14.975      1
   11    12    14    13     1     17.19265       20.123      1
   11    12    14    15     1     26.60921       29.490      1
   12    13    14    15     1      4.56772       20.964      1
   13    12    14    15     1   -170.79110       27.908      1
