[ moleculetype ]
; name        nrexcl
res           1

[ atoms ]
;    nr  type resnr resid  atom  cgnr     charge       mass
      1 TC5       1 res   C1        1      0.000     36.000
      2 P1        1 res   C2        2      0.000     72.000
      3 TC4       1 res   C3        3      0.000     36.000
      4 TC5       1 res   C4        4      0.000     36.000
      5 TC3       1 res   C5        5      0.000     36.000
      6 SN4a      1 res   C6        6      0.000     54.000
      7 SN4a      1 res   C7        7      0.000     54.000
      8 TC4       1 res   C8        8      0.000     36.000
      9 SC4       1 res   C9        9      0.000     54.000
     10 SC3       1 res   C10      10      0.000     54.000

[ bonds ]
;  ai    aj   funct      b0(nm)        k
    1     2     1      0.28667    20000
    2     3     1      0.38618    20000
    3     4     1      0.30304    20000
    3     8     1      0.29773    20000
    4     5     1      0.23080    20000
    4     9     1      0.28408    20000
    4    10     1      0.24417    20000
    5     6     1      0.38063    20000
    5     7     1      0.36329    20000
    5     8     1      0.31507    20000
    9    10     1      0.32628    20000
