1TPCN05466
18
    1res  C1    1   -0.623   0.178   0.199
    1res  C2    2   -0.613   0.230  -0.101
    1res  C3    3   -0.580  -0.054  -0.003
    1res  C4    4   -0.825  -0.081  -0.107
    1res  C5    5   -0.466  -0.087  -0.247
    1res  C6    6   -0.348  -0.210  -0.033
    1res  C7    7   -0.239   0.076   0.174
    1res  C8    8   -0.142   0.024  -0.077
    1res  C9    9    0.086  -0.138   0.163
    1res  C10   10    0.193   0.117   0.102
    1res  C11   11    0.404  -0.032   0.087
    1res  C12   12    0.664  -0.031   0.065
    1res  C13   13    0.927   0.047  -0.016
    1res  C14   14    0.850   0.241   0.043
    1res  C15   15    0.619   0.204  -0.037
    1res  C16   16    0.351  -0.161  -0.141
    1res  C17   17    0.374  -0.312   0.094
    1res  C18   18   -0.002  -0.162  -0.189
  10.00000  10.00000  10.00000
