1TPCN04442
15
    1res  C1    1   -0.059  -0.243  -0.291
    1res  C2    2   -0.261  -0.270   0.047
    1res  C3    3   -0.417   0.011  -0.121
    1res  C4    4   -0.591  -0.220   0.147
    1res  C5    5   -0.716  -0.026   0.021
    1res  C6    6   -0.525   0.131   0.148
    1res  C7    7   -0.417   0.447   0.084
    1res  C8    8   -0.166  -0.043   0.131
    1res  C9    9   -0.077   0.211  -0.015
    1res  C10   10    0.098   0.083   0.160
    1res  C11   11    0.210  -0.100  -0.007
    1res  C12   12    0.351   0.256   0.016
    1res  C13   13    0.504   0.048  -0.131
    1res  C14   14    0.684  -0.032  -0.182
    1res  C15   15    0.839  -0.136  -0.017
  10.00000  10.00000  10.00000
