Generated with MDTraj, t= 0.0
 48
    1UNL     C1    1  -0.406   0.088  -0.142
    1UNL     C2    2  -0.314   0.078  -0.027
    1UNL     C3    3  -0.246  -0.031   0.006
    1UNL     C4    4  -0.258  -0.159  -0.071
    1UNL     N1    5  -0.131  -0.240  -0.069
    1UNL     C5    6  -0.033  -0.196  -0.171
    1UNL     C6    7   0.028  -0.060  -0.134
    1UNL     C7    8   0.081  -0.059   0.013
    1UNL     C8    9   0.074  -0.203   0.062
    1UNL     O1   10   0.169  -0.269   0.093
    1UNL     C9   11  -0.067  -0.257   0.068
    1UNL    C10   12  -0.140  -0.178   0.177
    1UNL    C11   13  -0.154  -0.032   0.127
    1UNL    C12   14  -0.011   0.033   0.103
    1UNL    C13   15  -0.029   0.173   0.042
    1UNL     O2   16  -0.110   0.248   0.093
    1UNL     O3   17   0.049   0.206  -0.065
    1UNL    C14   18   0.024   0.337  -0.102
    1UNL    C15   19   0.057   0.055   0.236
    1UNL     N2   20   0.181   0.070   0.254
    1UNL    C16   21   0.265   0.055   0.142
    1UNL    C17   22   0.396   0.100   0.152
    1UNL    C18   23   0.487   0.079   0.052
    1UNL    C19   24   0.449   0.009  -0.061
    1UNL    C20   25   0.319  -0.036  -0.074
    1UNL    C21   26   0.225  -0.011   0.025
    1UNL     H1   27  -0.463   0.181  -0.141
    1UNL     H2   28  -0.351   0.084  -0.236
    1UNL     H3   29  -0.478   0.006  -0.141
    1UNL     H4   30  -0.299   0.167   0.033
    1UNL     H5   31  -0.284  -0.139  -0.175
    1UNL     H6   32  -0.338  -0.220  -0.030
    1UNL     H7   33  -0.082  -0.193  -0.269
    1UNL     H8   34   0.045  -0.272  -0.178
    1UNL     H9   35   0.107  -0.032  -0.204
    1UNL    H10   36  -0.047   0.018  -0.145
    1UNL    H11   37  -0.064  -0.365   0.090
    1UNL    H12   38  -0.084  -0.182   0.271
    1UNL    H13   39  -0.239  -0.222   0.197
    1UNL    H14   40  -0.203   0.028   0.205
    1UNL    H15   41   0.042   0.402  -0.016
    1UNL    H16   42  -0.081   0.347  -0.133
    1UNL    H17   43   0.090   0.365  -0.184
    1UNL    H18   44  -0.006   0.068   0.322
    1UNL    H19   45   0.425   0.151   0.243
    1UNL    H20   46   0.588   0.114   0.062
    1UNL    H21   47   0.521  -0.011  -0.139
    1UNL    H22   48   0.292  -0.095  -0.159
   0.00000   0.00000   0.00000   0.00000   0.00000   0.00000   0.00000   0.00000   0.00000
Generated with MDTraj, t= 1.0
 48
    1UNL     C1    1  -0.400   0.099  -0.137
    1UNL     C2    2  -0.318   0.074  -0.016
    1UNL     C3    3  -0.245  -0.035   0.012
    1UNL     C4    4  -0.265  -0.165  -0.059
    1UNL     N1    5  -0.138  -0.237  -0.074
    1UNL     C5    6  -0.045  -0.182  -0.169
    1UNL     C6    7   0.022  -0.055  -0.132
    1UNL     C7    8   0.078  -0.060   0.018
    1UNL     C8    9   0.076  -0.211   0.053
    1UNL     O1   10   0.176  -0.277   0.068
    1UNL     C9   11  -0.067  -0.262   0.062
    1UNL    C10   12  -0.133  -0.188   0.179
    1UNL    C11   13  -0.153  -0.040   0.132
    1UNL    C12   14  -0.015   0.030   0.107
    1UNL    C13   15  -0.023   0.165   0.038
    1UNL     O2   16  -0.116   0.236   0.067
    1UNL     O3   17   0.066   0.196  -0.062
    1UNL    C14   18   0.045   0.324  -0.106
    1UNL    C15   19   0.053   0.060   0.239
    1UNL     N2   20   0.179   0.083   0.256
    1UNL    C16   21   0.258   0.072   0.145
    1UNL    C17   22   0.386   0.108   0.152
    1UNL    C18   23   0.487   0.085   0.062
    1UNL    C19   24   0.447   0.013  -0.053
    1UNL    C20   25   0.320  -0.027  -0.068
    1UNL    C21   26   0.221  -0.000   0.025
    1UNL     H1   27  -0.361   0.038  -0.215
    1UNL     H2   28  -0.503   0.079  -0.114
    1UNL     H3   29  -0.387   0.207  -0.174
    1UNL     H4   30  -0.279   0.161   0.042
    1UNL     H5   31  -0.306  -0.142  -0.161
    1UNL     H6   32  -0.332  -0.227  -0.008
    1UNL     H7   33  -0.111  -0.175  -0.260
    1UNL     H8   34   0.025  -0.259  -0.191
    1UNL     H9   35   0.094  -0.024  -0.208
    1UNL    H10   36  -0.055   0.021  -0.122
    1UNL    H11   37  -0.058  -0.372   0.071
    1UNL    H12   38  -0.062  -0.195   0.263
    1UNL    H13   39  -0.228  -0.231   0.213
    1UNL    H14   40  -0.206   0.014   0.220
    1UNL    H15   41   0.021   0.386  -0.020
    1UNL    H16   42  -0.016   0.329  -0.200
    1UNL    H17   43   0.137   0.366  -0.163
    1UNL    H18   44  -0.004   0.038   0.329
    1UNL    H19   45   0.413   0.154   0.247
    1UNL    H20   46   0.584   0.135   0.067
    1UNL    H21   47   0.527  -0.004  -0.127
    1UNL    H22   48   0.290  -0.084  -0.150
   0.00000   0.00000   0.00000   0.00000   0.00000   0.00000   0.00000   0.00000   0.00000
Generated with MDTraj, t= 2.0
 48
    1UNL     C1    1  -0.439   0.073  -0.134
    1UNL     C2    2  -0.338   0.068  -0.021
    1UNL     C3    3  -0.245  -0.028  -0.001
    1UNL     C4    4  -0.247  -0.156  -0.083
    1UNL     N1    5  -0.122  -0.242  -0.072
    1UNL     C5    6  -0.020  -0.198  -0.174
    1UNL     C6    7   0.032  -0.059  -0.132
    1UNL     C7    8   0.087  -0.064   0.015
    1UNL     C8    9   0.074  -0.207   0.058
    1UNL     O1   10   0.164  -0.276   0.099
    1UNL     C9   11  -0.067  -0.252   0.069
    1UNL    C10   12  -0.146  -0.171   0.171
    1UNL    C11   13  -0.153  -0.028   0.117
    1UNL    C12   14  -0.009   0.032   0.102
    1UNL    C13   15  -0.022   0.178   0.042
    1UNL     O2   16  -0.111   0.248   0.088
    1UNL     O3   17   0.065   0.223  -0.054
    1UNL    C14   18   0.032   0.354  -0.090
    1UNL    C15   19   0.060   0.044   0.236
    1UNL     N2   20   0.183   0.053   0.258
    1UNL    C16   21   0.262   0.049   0.144
    1UNL    C17   22   0.392   0.109   0.146
    1UNL    C18   23   0.480   0.089   0.046
    1UNL    C19   24   0.445   0.013  -0.067
    1UNL    C20   25   0.323  -0.044  -0.072
    1UNL    C21   26   0.229  -0.019   0.035
    1UNL     H1   27  -0.534   0.101  -0.097
    1UNL     H2   28  -0.413   0.148  -0.207
    1UNL     H3   29  -0.462  -0.029  -0.183
    1UNL     H4   30  -0.313   0.159   0.022
    1UNL     H5   31  -0.256  -0.125  -0.193
    1UNL     H6   32  -0.328  -0.210  -0.051
    1UNL     H7   33  -0.075  -0.202  -0.271
    1UNL     H8   34   0.038  -0.285  -0.173
    1UNL     H9   35   0.111  -0.031  -0.201
    1UNL    H10   36  -0.048   0.016  -0.142
    1UNL    H11   37  -0.062  -0.361   0.093
    1UNL    H12   38  -0.087  -0.158   0.265
    1UNL    H13   39  -0.242  -0.211   0.203
    1UNL    H14   40  -0.203   0.049   0.194
    1UNL    H15   41   0.060   0.421  -0.008
    1UNL    H16   42  -0.074   0.368  -0.113
    1UNL    H17   43   0.099   0.393  -0.178
    1UNL    H18   44  -0.008   0.063   0.320
    1UNL    H19   45   0.425   0.185   0.215
    1UNL    H20   46   0.579   0.126   0.053
    1UNL    H21   47   0.514   0.015  -0.147
    1UNL    H22   48   0.290  -0.118  -0.154
   0.00000   0.00000   0.00000   0.00000   0.00000   0.00000   0.00000   0.00000   0.00000
Generated with MDTraj, t= 3.0
 48
    1UNL     C1    1  -0.445   0.072  -0.122
    1UNL     C2    2  -0.330   0.069  -0.028
    1UNL     C3    3  -0.249  -0.035  -0.007
    1UNL     C4    4  -0.252  -0.161  -0.090
    1UNL     N1    5  -0.127  -0.242  -0.080
    1UNL     C5    6  -0.021  -0.200  -0.184
    1UNL     C6    7   0.035  -0.067  -0.141
    1UNL     C7    8   0.080  -0.060   0.007
    1UNL     C8    9   0.071  -0.202   0.067
    1UNL     O1   10   0.163  -0.256   0.121
    1UNL     C9   11  -0.067  -0.253   0.062
    1UNL    C10   12  -0.144  -0.184   0.168
    1UNL    C11   13  -0.155  -0.034   0.117
    1UNL    C12   14  -0.012   0.029   0.099
    1UNL    C13   15  -0.039   0.171   0.047
    1UNL     O2   16  -0.104   0.252   0.110
    1UNL     O3   17   0.041   0.208  -0.057
    1UNL    C14   18   0.045   0.341  -0.078
    1UNL    C15   19   0.060   0.051   0.230
    1UNL     N2   20   0.182   0.086   0.243
    1UNL    C16   21   0.272   0.053   0.141
    1UNL    C17   22   0.404   0.091   0.156
    1UNL    C18   23   0.493   0.076   0.055
    1UNL    C19   24   0.454   0.016  -0.061
    1UNL    C20   25   0.325  -0.025  -0.084
    1UNL    C21   26   0.227  -0.003   0.018
    1UNL     H1   27  -0.414   0.106  -0.222
    1UNL     H2   28  -0.499  -0.020  -0.140
    1UNL     H3   29  -0.515   0.150  -0.085
    1UNL     H4   30  -0.305   0.168   0.023
    1UNL     H5   31  -0.261  -0.127  -0.199
    1UNL     H6   32  -0.320  -0.227  -0.055
    1UNL     H7   33  -0.083  -0.203  -0.277
    1UNL     H8   34   0.044  -0.280  -0.190
    1UNL     H9   35   0.112  -0.030  -0.209
    1UNL    H10   36  -0.050   0.002  -0.151
    1UNL    H11   37  -0.059  -0.362   0.083
    1UNL    H12   38  -0.093  -0.177   0.267
    1UNL    H13   39  -0.241  -0.227   0.192
    1UNL    H14   40  -0.208   0.038   0.198
    1UNL    H15   41   0.097   0.397   0.003
    1UNL    H16   42  -0.052   0.392  -0.092
    1UNL    H17   43   0.130   0.364  -0.153
    1UNL    H18   44  -0.013   0.075   0.303
    1UNL    H19   45   0.429   0.137   0.250
    1UNL    H20   46   0.593   0.115   0.068
    1UNL    H21   47   0.532  -0.029  -0.124
    1UNL    H22   48   0.291  -0.071  -0.173
   0.00000   0.00000   0.00000   0.00000   0.00000   0.00000   0.00000   0.00000   0.00000
Generated with MDTraj, t= 4.0
 48
    1UNL     C1    1  -0.399   0.081  -0.134
    1UNL     C2    2  -0.312   0.070  -0.019
    1UNL     C3    3  -0.247  -0.040   0.016
    1UNL     C4    4  -0.256  -0.163  -0.067
    1UNL     N1    5  -0.128  -0.240  -0.070
    1UNL     C5    6  -0.033  -0.184  -0.178
    1UNL     C6    7   0.024  -0.049  -0.142
    1UNL     C7    8   0.078  -0.052   0.011
    1UNL     C8    9   0.077  -0.198   0.048
    1UNL     O1   10   0.175  -0.268   0.050
    1UNL     C9   11  -0.055  -0.257   0.066
    1UNL    C10   12  -0.119  -0.184   0.178
    1UNL    C11   13  -0.152  -0.034   0.130
    1UNL    C12   14  -0.015   0.042   0.103
    1UNL    C13   15  -0.039   0.176   0.043
    1UNL     O2   16  -0.126   0.251   0.080
    1UNL     O3   17   0.053   0.213  -0.051
    1UNL    C14   18   0.023   0.336  -0.112
    1UNL    C15   19   0.053   0.066   0.237
    1UNL     N2   20   0.177   0.058   0.261
    1UNL    C16   21   0.259   0.053   0.150
    1UNL    C17   22   0.385   0.094   0.164
    1UNL    C18   23   0.486   0.076   0.062
    1UNL    C19   24   0.450   0.007  -0.052
    1UNL    C20   25   0.319  -0.041  -0.063
    1UNL    C21   26   0.222  -0.012   0.029
    1UNL     H1   27  -0.495   0.014  -0.125
    1UNL     H2   28  -0.434   0.182  -0.148
    1UNL     H3   29  -0.339   0.061  -0.221
    1UNL     H4   30  -0.319   0.152   0.043
    1UNL     H5   31  -0.269  -0.141  -0.179
    1UNL     H6   32  -0.325  -0.229  -0.025
    1UNL     H7   33  -0.096  -0.185  -0.270
    1UNL     H8   34   0.042  -0.253  -0.195
    1UNL     H9   35   0.099  -0.031  -0.220
    1UNL    H10   36  -0.053   0.026  -0.167
    1UNL    H11   37  -0.039  -0.365   0.093
    1UNL    H12   38  -0.059  -0.172   0.271
    1UNL    H13   39  -0.212  -0.228   0.215
    1UNL    H14   40  -0.205   0.019   0.221
    1UNL    H15   41   0.061   0.421  -0.050
    1UNL    H16   42  -0.084   0.359  -0.111
    1UNL    H17   43   0.082   0.359  -0.204
    1UNL    H18   44  -0.018   0.054   0.323
    1UNL    H19   45   0.423   0.143   0.251
    1UNL    H20   46   0.589   0.101   0.076
    1UNL    H21   47   0.525  -0.006  -0.126
    1UNL    H22   48   0.311  -0.113  -0.138
   0.00000   0.00000   0.00000   0.00000   0.00000   0.00000   0.00000   0.00000   0.00000
Generated with MDTraj, t= 5.0
 48
    1UNL     C1    1  -0.398   0.077  -0.148
    1UNL     C2    2  -0.310   0.075  -0.028
    1UNL     C3    3  -0.243  -0.036   0.003
    1UNL     C4    4  -0.267  -0.164  -0.066
    1UNL     N1    5  -0.139  -0.235  -0.075
    1UNL     C5    6  -0.046  -0.173  -0.182
    1UNL     C6    7   0.029  -0.044  -0.130
    1UNL     C7    8   0.086  -0.056   0.013
    1UNL     C8    9   0.076  -0.206   0.050
    1UNL     O1   10   0.172  -0.274   0.079
    1UNL     C9   11  -0.067  -0.254   0.059
    1UNL    C10   12  -0.133  -0.180   0.173
    1UNL    C11   13  -0.152  -0.037   0.128
    1UNL    C12   14  -0.010   0.029   0.109
    1UNL    C13   15  -0.030   0.165   0.048
    1UNL     O2   16  -0.111   0.239   0.097
    1UNL     O3   17   0.043   0.201  -0.057
    1UNL    C14   18   0.003   0.328  -0.103
    1UNL    C15   19   0.060   0.053   0.236
    1UNL     N2   20   0.180   0.073   0.253
    1UNL    C16   21   0.265   0.060   0.145
    1UNL    C17   22   0.401   0.093   0.162
    1UNL    C18   23   0.494   0.075   0.063
    1UNL    C19   24   0.458   0.018  -0.052
    1UNL    C20   25   0.326  -0.021  -0.071
    1UNL    C21   26   0.230   0.001   0.027
    1UNL     H1   27  -0.431   0.181  -0.188
    1UNL     H2   28  -0.350   0.026  -0.231
    1UNL     H3   29  -0.484   0.016  -0.130
    1UNL     H4   30  -0.319   0.153   0.051
    1UNL     H5   31  -0.284  -0.140  -0.176
    1UNL     H6   32  -0.338  -0.232  -0.013
    1UNL     H7   33  -0.091  -0.157  -0.282
    1UNL     H8   34   0.019  -0.251  -0.201
    1UNL     H9   35   0.112  -0.034  -0.202
    1UNL    H10   36  -0.039   0.039  -0.154
    1UNL    H11   37  -0.060  -0.367   0.070
    1UNL    H12   38  -0.072  -0.173   0.266
    1UNL    H13   39  -0.231  -0.215   0.210
    1UNL    H14   40  -0.203   0.016   0.215
    1UNL    H15   41  -0.041   0.390  -0.025
    1UNL    H16   42  -0.086   0.320  -0.162
    1UNL    H17   43   0.074   0.374  -0.170
    1UNL    H18   44  -0.004   0.047   0.317
    1UNL    H19   45   0.431   0.126   0.260
    1UNL    H20   46   0.592   0.117   0.087
    1UNL    H21   47   0.521  -0.001  -0.139
    1UNL    H22   48   0.290  -0.089  -0.157
   0.00000   0.00000   0.00000   0.00000   0.00000   0.00000   0.00000   0.00000   0.00000
Generated with MDTraj, t= 6.0
 48
    1UNL     C1    1  -0.413   0.103  -0.137
    1UNL     C2    2  -0.315   0.073  -0.030
    1UNL     C3    3  -0.240  -0.038  -0.008
    1UNL     C4    4  -0.238  -0.162  -0.097
    1UNL     N1    5  -0.116  -0.253  -0.074
    1UNL     C5    6  -0.012  -0.206  -0.168
    1UNL     C6    7   0.035  -0.065  -0.133
    1UNL     C7    8   0.083  -0.062   0.010
    1UNL     C8    9   0.077  -0.201   0.067
    1UNL     O1   10   0.175  -0.255   0.111
    1UNL     C9   11  -0.065  -0.258   0.069
    1UNL    C10   12  -0.143  -0.178   0.168
    1UNL    C11   13  -0.155  -0.036   0.118
    1UNL    C12   14  -0.007   0.028   0.098
    1UNL    C13   15  -0.029   0.175   0.049
    1UNL     O2   16  -0.087   0.256   0.118
    1UNL     O3   17   0.015   0.213  -0.070
    1UNL    C14   18   0.012   0.351  -0.076
    1UNL    C15   19   0.052   0.036   0.237
    1UNL     N2   20   0.174   0.055   0.256
    1UNL    C16   21   0.261   0.051   0.142
    1UNL    C17   22   0.393   0.101   0.152
    1UNL    C18   23   0.482   0.080   0.046
    1UNL    C19   24   0.445   0.016  -0.069
    1UNL    C20   25   0.311  -0.030  -0.082
    1UNL    C21   26   0.223  -0.008   0.022
    1UNL     H1   27  -0.392   0.197  -0.193
    1UNL     H2   28  -0.419   0.017  -0.210
    1UNL     H3   29  -0.512   0.117  -0.099
    1UNL     H4   30  -0.308   0.147   0.045
    1UNL     H5   31  -0.241  -0.145  -0.207
    1UNL     H6   32  -0.331  -0.225  -0.057
    1UNL     H7   33  -0.063  -0.210  -0.264
    1UNL     H8   34   0.067  -0.273  -0.182
    1UNL     H9   35   0.102  -0.025  -0.212
    1UNL    H10   36  -0.056  -0.003  -0.145
    1UNL    H11   37  -0.052  -0.367   0.099
    1UNL    H12   38  -0.108  -0.173   0.273
    1UNL    H13   39  -0.250  -0.211   0.175
    1UNL    H14   40  -0.206   0.029   0.191
    1UNL    H15   41   0.001   0.402   0.020
    1UNL    H16   42  -0.078   0.384  -0.125
    1UNL    H17   43   0.079   0.383  -0.154
    1UNL    H18   44  -0.022   0.063   0.320
    1UNL    H19   45   0.419   0.155   0.241
    1UNL    H20   46   0.580   0.121   0.047
    1UNL    H21   47   0.514  -0.001  -0.149
    1UNL    H22   48   0.280  -0.071  -0.170
   0.00000   0.00000   0.00000   0.00000   0.00000   0.00000   0.00000   0.00000   0.00000
Generated with MDTraj, t= 7.0
 48
    1UNL     C1    1  -0.405   0.094  -0.147
    1UNL     C2    2  -0.314   0.079  -0.037
    1UNL     C3    3  -0.243  -0.032  -0.006
    1UNL     C4    4  -0.256  -0.166  -0.073
    1UNL     N1    5  -0.120  -0.239  -0.075
    1UNL     C5    6  -0.037  -0.185  -0.181
    1UNL     C6    7   0.028  -0.056  -0.132
    1UNL     C7    8   0.085  -0.067   0.013
    1UNL     C8    9   0.075  -0.206   0.058
    1UNL     O1   10   0.165  -0.277   0.091
    1UNL     C9   11  -0.065  -0.260   0.063
    1UNL    C10   12  -0.145  -0.184   0.174
    1UNL    C11   13  -0.157  -0.035   0.122
    1UNL    C12   14  -0.008   0.028   0.109
    1UNL    C13   15  -0.029   0.165   0.054
    1UNL     O2   16  -0.105   0.246   0.107
    1UNL     O3   17   0.041   0.205  -0.061
    1UNL    C14   18   0.009   0.335  -0.099
    1UNL    C15   19   0.062   0.045   0.244
    1UNL     N2   20   0.188   0.059   0.263
    1UNL    C16   21   0.269   0.056   0.143
    1UNL    C17   22   0.394   0.113   0.153
    1UNL    C18   23   0.489   0.102   0.052
    1UNL    C19   24   0.448   0.025  -0.061
    1UNL    C20   25   0.320  -0.029  -0.069
    1UNL    C21   26   0.226  -0.020   0.026
    1UNL     H1   27  -0.347   0.098  -0.238
    1UNL     H2   28  -0.473   0.000  -0.152
    1UNL     H3   29  -0.465   0.186  -0.144
    1UNL     H4   30  -0.290   0.166   0.025
    1UNL     H5   31  -0.282  -0.147  -0.179
    1UNL     H6   32  -0.328  -0.245  -0.016
    1UNL     H7   33  -0.092  -0.178  -0.274
    1UNL     H8   34   0.033  -0.258  -0.214
    1UNL     H9   35   0.103  -0.019  -0.206
    1UNL    H10   36  -0.047   0.025  -0.125
    1UNL    H11   37  -0.063  -0.374   0.072
    1UNL    H12   38  -0.102  -0.173   0.275
    1UNL    H13   39  -0.250  -0.221   0.185
    1UNL    H14   40  -0.208   0.029   0.188
    1UNL    H15   41   0.105   0.392  -0.097
    1UNL    H16   42  -0.059   0.384  -0.033
    1UNL    H17   43  -0.040   0.344  -0.195
    1UNL    H18   44   0.007   0.033   0.330
    1UNL    H19   45   0.407   0.189   0.232
    1UNL    H20   46   0.590   0.140   0.058
    1UNL    H21   47   0.509   0.023  -0.148
    1UNL    H22   48   0.296  -0.075  -0.164
   0.00000   0.00000   0.00000   0.00000   0.00000   0.00000   0.00000   0.00000   0.00000
Generated with MDTraj, t= 8.0
 48
    1UNL     C1    1  -0.395   0.103  -0.143
    1UNL     C2    2  -0.320   0.068  -0.018
    1UNL     C3    3  -0.245  -0.041   0.009
    1UNL     C4    4  -0.254  -0.169  -0.068
    1UNL     N1    5  -0.127  -0.250  -0.073
    1UNL     C5    6  -0.038  -0.192  -0.179
    1UNL     C6    7   0.028  -0.052  -0.136
    1UNL     C7    8   0.080  -0.058   0.010
    1UNL     C8    9   0.077  -0.210   0.050
    1UNL     O1   10   0.175  -0.283   0.058
    1UNL     C9   11  -0.067  -0.262   0.062
    1UNL    C10   12  -0.139  -0.186   0.171
    1UNL    C11   13  -0.151  -0.042   0.132
    1UNL    C12   14  -0.011   0.030   0.107
    1UNL    C13   15  -0.029   0.169   0.047
    1UNL     O2   16  -0.115   0.244   0.089
    1UNL     O3   17   0.062   0.204  -0.044
    1UNL    C14   18   0.028   0.324  -0.105
    1UNL    C15   19   0.055   0.057   0.239
    1UNL     N2   20   0.178   0.075   0.255
    1UNL    C16   21   0.255   0.062   0.144
    1UNL    C17   22   0.390   0.111   0.161
    1UNL    C18   23   0.484   0.100   0.060
    1UNL    C19   24   0.445   0.025  -0.053
    1UNL    C20   25   0.320  -0.021  -0.070
    1UNL    C21   26   0.216   0.001   0.026
    1UNL     H1   27  -0.402   0.020  -0.207
    1UNL     H2   28  -0.500   0.143  -0.123
    1UNL     H3   29  -0.335   0.186  -0.192
    1UNL     H4   30  -0.295   0.148   0.055
    1UNL     H5   31  -0.274  -0.154  -0.177
    1UNL     H6   32  -0.340  -0.225  -0.009
    1UNL     H7   33  -0.092  -0.189  -0.272
    1UNL     H8   34   0.031  -0.268  -0.212
    1UNL     H9   35   0.113  -0.016  -0.198
    1UNL    H10   36  -0.049   0.028  -0.138
    1UNL    H11   37  -0.065  -0.374   0.086
    1UNL    H12   38  -0.078  -0.194   0.262
    1UNL    H13   39  -0.247  -0.216   0.190
    1UNL    H14   40  -0.200   0.008   0.208
    1UNL    H15   41   0.045   0.309  -0.214
    1UNL    H16   42   0.092   0.405  -0.064
    1UNL    H17   43  -0.074   0.364  -0.081
    1UNL    H18   44   0.002   0.050   0.341
    1UNL    H19   45   0.409   0.140   0.260
    1UNL    H20   46   0.577   0.155   0.067
    1UNL    H21   47   0.521  -0.015  -0.125
    1UNL    H22   48   0.296  -0.092  -0.151
   0.00000   0.00000   0.00000   0.00000   0.00000   0.00000   0.00000   0.00000   0.00000
Generated with MDTraj, t= 9.0
 48
    1UNL     C1    1  -0.415   0.067  -0.126
    1UNL     C2    2  -0.318   0.069  -0.019
    1UNL     C3    3  -0.236  -0.034   0.001
    1UNL     C4    4  -0.253  -0.156  -0.078
    1UNL     N1    5  -0.124  -0.240  -0.083
    1UNL     C5    6  -0.030  -0.188  -0.186
    1UNL     C6    7   0.033  -0.057  -0.144
    1UNL     C7    8   0.085  -0.056   0.004
    1UNL     C8    9   0.080  -0.195   0.058
    1UNL     O1   10   0.170  -0.260   0.106
    1UNL     C9   11  -0.058  -0.257   0.056
    1UNL    C10   12  -0.137  -0.184   0.166
    1UNL    C11   13  -0.150  -0.037   0.123
    1UNL    C12   14  -0.012   0.031   0.099
    1UNL    C13   15  -0.033   0.171   0.044
    1UNL     O2   16  -0.116   0.244   0.094
    1UNL     O3   17   0.040   0.207  -0.061
    1UNL    C14   18   0.040   0.351  -0.077
    1UNL    C15   19   0.046   0.060   0.234
    1UNL     N2   20   0.172   0.056   0.263
    1UNL    C16   21   0.262   0.049   0.143
    1UNL    C17   22   0.389   0.102   0.156
    1UNL    C18   23   0.481   0.087   0.055
    1UNL    C19   24   0.445   0.022  -0.069
    1UNL    C20   25   0.320  -0.037  -0.072
    1UNL    C21   26   0.225  -0.013   0.029
    1UNL     H1   27  -0.504   0.015  -0.098
    1UNL     H2   28  -0.443   0.170  -0.156
    1UNL     H3   29  -0.368   0.028  -0.224
    1UNL     H4   30  -0.309   0.147   0.048
    1UNL     H5   31  -0.282  -0.136  -0.186
    1UNL     H6   32  -0.323  -0.222  -0.022
    1UNL     H7   33  -0.071  -0.186  -0.285
    1UNL     H8   34   0.050  -0.261  -0.199
    1UNL     H9   35   0.115  -0.033  -0.215
    1UNL    H10   36  -0.043   0.023  -0.153
    1UNL    H11   37  -0.046  -0.369   0.078
    1UNL    H12   38  -0.085  -0.196   0.264
    1UNL    H13   39  -0.241  -0.228   0.177
    1UNL    H14   40  -0.198   0.009   0.199
    1UNL    H15   41  -0.054   0.375  -0.127
    1UNL    H16   42   0.129   0.390  -0.132
    1UNL    H17   43   0.045   0.402   0.025
    1UNL    H18   44  -0.011   0.095   0.311
    1UNL    H19   45   0.414   0.149   0.255
    1UNL    H20   46   0.583   0.115   0.070
    1UNL    H21   47   0.521   0.014  -0.140
    1UNL    H22   48   0.296  -0.114  -0.142
   0.00000   0.00000   0.00000   0.00000   0.00000   0.00000   0.00000   0.00000   0.00000
Generated with MDTraj, t= 10.0
 48
    1UNL     C1    1  -0.435   0.052  -0.133
    1UNL     C2    2  -0.335   0.069  -0.030
    1UNL     C3    3  -0.241  -0.026  -0.012
    1UNL     C4    4  -0.254  -0.162  -0.088
    1UNL     N1    5  -0.126  -0.244  -0.076
    1UNL     C5    6  -0.023  -0.199  -0.176
    1UNL     C6    7   0.039  -0.067  -0.135
    1UNL     C7    8   0.083  -0.056   0.009
    1UNL     C8    9   0.072  -0.200   0.061
    1UNL     O1   10   0.173  -0.258   0.084
    1UNL     C9   11  -0.071  -0.253   0.063
    1UNL    C10   12  -0.145  -0.171   0.170
    1UNL    C11   13  -0.152  -0.023   0.111
    1UNL    C12   14  -0.009   0.032   0.099
    1UNL    C13   15  -0.030   0.170   0.054
    1UNL     O2   16  -0.116   0.237   0.109
    1UNL     O3   17   0.059   0.221  -0.037
    1UNL    C14   18   0.024   0.354  -0.080
    1UNL    C15   19   0.056   0.052   0.231
    1UNL     N2   20   0.180   0.071   0.251
    1UNL    C16   21   0.268   0.054   0.145
    1UNL    C17   22   0.398   0.097   0.159
    1UNL    C18   23   0.492   0.075   0.059
    1UNL    C19   24   0.456   0.009  -0.056
    1UNL    C20   25   0.320  -0.021  -0.078
    1UNL    C21   26   0.227  -0.005   0.016
    1UNL     H1   27  -0.511  -0.027  -0.105
    1UNL     H2   28  -0.489   0.138  -0.170
    1UNL     H3   29  -0.377   0.024  -0.228
    1UNL     H4   30  -0.342   0.164   0.031
    1UNL     H5   31  -0.253  -0.146  -0.203
    1UNL     H6   32  -0.329  -0.226  -0.052
    1UNL     H7   33  -0.066  -0.199  -0.273
    1UNL     H8   34   0.061  -0.269  -0.179
    1UNL     H9   35   0.124  -0.058  -0.206
    1UNL    H10   36  -0.036   0.014  -0.156
    1UNL    H11   37  -0.079  -0.363   0.095
    1UNL    H12   38  -0.089  -0.176   0.266
    1UNL    H13   39  -0.245  -0.221   0.185
    1UNL    H14   40  -0.202   0.036   0.179
    1UNL    H15   41  -0.011   0.402   0.010
    1UNL    H16   42  -0.059   0.340  -0.152
    1UNL    H17   43   0.104   0.405  -0.140
    1UNL    H18   44  -0.003   0.057   0.329
    1UNL    H19   45   0.416   0.155   0.244
    1UNL    H20   46   0.596   0.105   0.076
    1UNL    H21   47   0.530  -0.029  -0.129
    1UNL    H22   48   0.293  -0.069  -0.171
   0.00000   0.00000   0.00000   0.00000   0.00000   0.00000   0.00000   0.00000   0.00000
Generated with MDTraj, t= 11.0
 48
    1UNL     C1    1  -0.409   0.098  -0.137
    1UNL     C2    2  -0.321   0.056  -0.020
    1UNL     C3    3  -0.254  -0.057   0.008
    1UNL     C4    4  -0.256  -0.177  -0.068
    1UNL     N1    5  -0.119  -0.239  -0.077
    1UNL     C5    6  -0.035  -0.177  -0.184
    1UNL     C6    7   0.029  -0.039  -0.135
    1UNL     C7    8   0.081  -0.052   0.012
    1UNL     C8    9   0.081  -0.200   0.052
    1UNL     O1   10   0.180  -0.263   0.080
    1UNL     C9   11  -0.055  -0.258   0.060
    1UNL    C10   12  -0.132  -0.190   0.173
    1UNL    C11   13  -0.148  -0.043   0.124
    1UNL    C12   14  -0.010   0.035   0.104
    1UNL    C13   15  -0.039   0.170   0.034
    1UNL     O2   16  -0.132   0.236   0.076
    1UNL     O3   17   0.045   0.218  -0.066
    1UNL    C14   18   0.039   0.354  -0.096
    1UNL    C15   19   0.055   0.067   0.240
    1UNL     N2   20   0.176   0.063   0.266
    1UNL    C16   21   0.258   0.048   0.153
    1UNL    C17   22   0.393   0.099   0.161
    1UNL    C18   23   0.489   0.066   0.065
    1UNL    C19   24   0.451   0.009  -0.052
    1UNL    C20   25   0.315  -0.027  -0.069
    1UNL    C21   26   0.227  -0.005   0.033
    1UNL     H1   27  -0.460   0.011  -0.196
    1UNL     H2   28  -0.488   0.166  -0.112
    1UNL     H3   29  -0.349   0.163  -0.204
    1UNL     H4   30  -0.308   0.133   0.046
    1UNL     H5   31  -0.306  -0.170  -0.174
    1UNL     H6   32  -0.300  -0.247  -0.007
    1UNL     H7   33  -0.096  -0.161  -0.268
    1UNL     H8   34   0.041  -0.253  -0.203
    1UNL     H9   35   0.104   0.002  -0.205
    1UNL    H10   36  -0.059   0.030  -0.144
    1UNL    H11   37  -0.058  -0.369   0.091
    1UNL    H12   38  -0.073  -0.203   0.267
    1UNL    H13   39  -0.231  -0.243   0.185
    1UNL    H14   40  -0.194   0.012   0.202
    1UNL    H15   41   0.140   0.386  -0.087
    1UNL    H16   42  -0.034   0.401  -0.031
    1UNL    H17   43   0.002   0.358  -0.201
    1UNL    H18   44  -0.004   0.075   0.322
    1UNL    H19   45   0.414   0.167   0.244
    1UNL    H20   46   0.587   0.103   0.077
    1UNL    H21   47   0.507  -0.008  -0.140
    1UNL    H22   48   0.291  -0.067  -0.167
   0.00000   0.00000   0.00000   0.00000   0.00000   0.00000   0.00000   0.00000   0.00000
Generated with MDTraj, t= 12.0
 48
    1UNL     C1    1  -0.420   0.100  -0.134
    1UNL     C2    2  -0.321   0.069  -0.019
    1UNL     C3    3  -0.246  -0.041   0.004
    1UNL     C4    4  -0.247  -0.164  -0.082
    1UNL     N1    5  -0.120  -0.245  -0.082
    1UNL     C5    6  -0.022  -0.190  -0.181
    1UNL     C6    7   0.030  -0.056  -0.134
    1UNL     C7    8   0.083  -0.057   0.013
    1UNL     C8    9   0.078  -0.202   0.053
    1UNL     O1   10   0.169  -0.278   0.074
    1UNL     C9   11  -0.062  -0.259   0.060
    1UNL    C10   12  -0.147  -0.189   0.170
    1UNL    C11   13  -0.160  -0.038   0.126
    1UNL    C12   14  -0.015   0.022   0.108
    1UNL    C13   15  -0.026   0.166   0.050
    1UNL     O2   16  -0.116   0.229   0.097
    1UNL     O3   17   0.051   0.213  -0.056
    1UNL    C14   18   0.017   0.338  -0.110
    1UNL    C15   19   0.056   0.052   0.235
    1UNL     N2   20   0.180   0.074   0.256
    1UNL    C16   21   0.264   0.069   0.144
    1UNL    C17   22   0.399   0.108   0.158
    1UNL    C18   23   0.496   0.080   0.070
    1UNL    C19   24   0.455   0.011  -0.042
    1UNL    C20   25   0.314  -0.017  -0.068
    1UNL    C21   26   0.219   0.010   0.025
    1UNL     H1   27  -0.515   0.034  -0.131
    1UNL     H2   28  -0.446   0.204  -0.150
    1UNL     H3   29  -0.371   0.073  -0.228
    1UNL     H4   30  -0.314   0.151   0.058
    1UNL     H5   31  -0.252  -0.121  -0.189
    1UNL     H6   32  -0.331  -0.221  -0.074
    1UNL     H7   33  -0.074  -0.187  -0.269
    1UNL     H8   34   0.059  -0.264  -0.191
    1UNL     H9   35   0.104  -0.022  -0.209
    1UNL    H10   36  -0.051   0.023  -0.140
    1UNL    H11   37  -0.046  -0.370   0.082
    1UNL    H12   38  -0.079  -0.204   0.259
    1UNL    H13   39  -0.243  -0.245   0.185
    1UNL    H14   40  -0.214   0.023   0.200
    1UNL    H15   41   0.038   0.328  -0.213
    1UNL    H16   42   0.067   0.413  -0.053
    1UNL    H17   43  -0.093   0.351  -0.090
    1UNL    H18   44  -0.019   0.073   0.319
    1UNL    H19   45   0.416   0.158   0.253
    1UNL    H20   46   0.598   0.116   0.088
    1UNL    H21   47   0.533  -0.011  -0.120
    1UNL    H22   48   0.284  -0.083  -0.149
   0.00000   0.00000   0.00000   0.00000   0.00000   0.00000   0.00000   0.00000   0.00000
Generated with MDTraj, t= 13.0
 48
    1UNL     C1    1  -0.427   0.074  -0.131
    1UNL     C2    2  -0.318   0.074  -0.028
    1UNL     C3    3  -0.237  -0.028  -0.006
    1UNL     C4    4  -0.248  -0.150  -0.094
    1UNL     N1    5  -0.123  -0.227  -0.083
    1UNL     C5    6  -0.018  -0.181  -0.185
    1UNL     C6    7   0.053  -0.058  -0.144
    1UNL     C7    8   0.091  -0.064   0.010
    1UNL     C8    9   0.074  -0.209   0.059
    1UNL     O1   10   0.161  -0.274   0.105
    1UNL     C9   11  -0.068  -0.260   0.058
    1UNL    C10   12  -0.142  -0.183   0.167
    1UNL    C11   13  -0.148  -0.037   0.116
    1UNL    C12   14  -0.007   0.025   0.098
    1UNL    C13   15  -0.029   0.169   0.049
    1UNL     O2   16  -0.095   0.238   0.121
    1UNL     O3   17   0.024   0.209  -0.070
    1UNL    C14   18   0.001   0.346  -0.103
    1UNL    C15   19   0.055   0.058   0.234
    1UNL     N2   20   0.182   0.053   0.260
    1UNL    C16   21   0.263   0.053   0.155
    1UNL    C17   22   0.385   0.114   0.157
    1UNL    C18   23   0.480   0.103   0.056
    1UNL    C19   24   0.452   0.016  -0.056
    1UNL    C20   25   0.328  -0.043  -0.061
    1UNL    C21   26   0.228  -0.014   0.035
    1UNL     H1   27  -0.522   0.120  -0.100
    1UNL     H2   28  -0.390   0.108  -0.232
    1UNL     H3   29  -0.456  -0.030  -0.145
    1UNL     H4   30  -0.306   0.159   0.033
    1UNL     H5   31  -0.267  -0.120  -0.199
    1UNL     H6   32  -0.325  -0.215  -0.068
    1UNL     H7   33  -0.077  -0.164  -0.268
    1UNL     H8   34   0.042  -0.270  -0.209
    1UNL     H9   35   0.136  -0.021  -0.208
    1UNL    H10   36  -0.019   0.029  -0.151
    1UNL    H11   37  -0.072  -0.372   0.069
    1UNL    H12   38  -0.091  -0.200   0.267
    1UNL    H13   39  -0.240  -0.239   0.167
    1UNL    H14   40  -0.193   0.031   0.195
    1UNL    H15   41  -0.079   0.349  -0.171
    1UNL    H16   42   0.097   0.385  -0.129
    1UNL    H17   43  -0.019   0.393   0.000
    1UNL    H18   44  -0.008   0.075   0.314
    1UNL    H19   45   0.415   0.165   0.245
    1UNL    H20   46   0.576   0.147   0.062
    1UNL    H21   47   0.526  -0.002  -0.123
    1UNL    H22   48   0.306  -0.114  -0.137
   0.00000   0.00000   0.00000   0.00000   0.00000   0.00000   0.00000   0.00000   0.00000
Generated with MDTraj, t= 14.0
 48
    1UNL     C1    1  -0.406   0.097  -0.131
    1UNL     C2    2  -0.310   0.076  -0.024
    1UNL     C3    3  -0.245  -0.035  -0.003
    1UNL     C4    4  -0.247  -0.157  -0.096
    1UNL     N1    5  -0.128  -0.244  -0.079
    1UNL     C5    6  -0.019  -0.197  -0.184
    1UNL     C6    7   0.039  -0.062  -0.135
    1UNL     C7    8   0.086  -0.056   0.010
    1UNL     C8    9   0.078  -0.203   0.051
    1UNL     O1   10   0.180  -0.258   0.083
    1UNL     C9   11  -0.057  -0.259   0.056
    1UNL    C10   12  -0.139  -0.184   0.167
    1UNL    C11   13  -0.155  -0.040   0.122
    1UNL    C12   14  -0.015   0.029   0.104
    1UNL    C13   15  -0.037   0.166   0.054
    1UNL     O2   16  -0.099   0.243   0.121
    1UNL     O3   17   0.031   0.200  -0.063
    1UNL    C14   18   0.011   0.330  -0.110
    1UNL    C15   19   0.045   0.052   0.239
    1UNL     N2   20   0.170   0.066   0.261
    1UNL    C16   21   0.254   0.051   0.147
    1UNL    C17   22   0.382   0.105   0.162
    1UNL    C18   23   0.482   0.088   0.067
    1UNL    C19   24   0.447   0.022  -0.052
    1UNL    C20   25   0.324  -0.022  -0.074
    1UNL    C21   26   0.229  -0.009   0.030
    1UNL     H1   27  -0.394   0.192  -0.178
    1UNL     H2   28  -0.409   0.005  -0.203
    1UNL     H3   29  -0.501   0.101  -0.078
    1UNL     H4   30  -0.290   0.156   0.047
    1UNL     H5   31  -0.261  -0.136  -0.196
    1UNL     H6   32  -0.329  -0.217  -0.065
    1UNL     H7   33  -0.067  -0.185  -0.274
    1UNL     H8   34   0.053  -0.280  -0.195
    1UNL     H9   35   0.125  -0.029  -0.195
    1UNL    H10   36  -0.030   0.025  -0.153
    1UNL    H11   37  -0.049  -0.367   0.086
    1UNL    H12   38  -0.076  -0.196   0.260
    1UNL    H13   39  -0.235  -0.239   0.181
    1UNL    H14   40  -0.197   0.028   0.206
    1UNL    H15   41  -0.047   0.380  -0.035
    1UNL    H16   42  -0.028   0.323  -0.210
    1UNL    H17   43   0.122   0.367  -0.119
    1UNL    H18   44  -0.030   0.059   0.324
    1UNL    H19   45   0.396   0.168   0.252
    1UNL    H20   46   0.587   0.111   0.094
    1UNL    H21   47   0.523  -0.004  -0.135
    1UNL    H22   48   0.291  -0.066  -0.169
   0.00000   0.00000   0.00000   0.00000   0.00000   0.00000   0.00000   0.00000   0.00000
Generated with MDTraj, t= 15.0
 48
    1UNL     C1    1  -0.382   0.077  -0.160
    1UNL     C2    2  -0.325   0.063  -0.024
    1UNL     C3    3  -0.249  -0.039   0.010
    1UNL     C4    4  -0.260  -0.172  -0.075
    1UNL     N1    5  -0.134  -0.240  -0.078
    1UNL     C5    6  -0.032  -0.176  -0.184
    1UNL     C6    7   0.028  -0.048  -0.135
    1UNL     C7    8   0.085  -0.064   0.011
    1UNL     C8    9   0.076  -0.205   0.054
    1UNL     O1   10   0.176  -0.270   0.073
    1UNL     C9   11  -0.068  -0.257   0.057
    1UNL    C10   12  -0.140  -0.182   0.172
    1UNL    C11   13  -0.158  -0.045   0.124
    1UNL    C12   14  -0.012   0.025   0.106
    1UNL    C13   15  -0.033   0.169   0.048
    1UNL     O2   16  -0.118   0.237   0.098
    1UNL     O3   17   0.050   0.213  -0.048
    1UNL    C14   18   0.009   0.344  -0.103
    1UNL    C15   19   0.052   0.053   0.239
    1UNL     N2   20   0.178   0.065   0.261
    1UNL    C16   21   0.264   0.048   0.151
    1UNL    C17   22   0.395   0.098   0.168
    1UNL    C18   23   0.497   0.088   0.069
    1UNL    C19   24   0.457   0.032  -0.052
    1UNL    C20   25   0.325  -0.012  -0.074
    1UNL    C21   26   0.226  -0.010   0.026
    1UNL     H1   27  -0.318   0.051  -0.241
    1UNL     H2   28  -0.481   0.020  -0.166
    1UNL     H3   29  -0.408   0.182  -0.175
    1UNL     H4   30  -0.336   0.148   0.044
    1UNL     H5   31  -0.276  -0.150  -0.171
    1UNL     H6   32  -0.334  -0.243  -0.042
    1UNL     H7   33  -0.085  -0.156  -0.273
    1UNL     H8   34   0.048  -0.251  -0.196
    1UNL     H9   35   0.110  -0.021  -0.207
    1UNL    H10   36  -0.046   0.037  -0.139
    1UNL    H11   37  -0.069  -0.364   0.083
    1UNL    H12   38  -0.071  -0.195   0.261
    1UNL    H13   39  -0.236  -0.234   0.197
    1UNL    H14   40  -0.211   0.017   0.208
    1UNL    H15   41   0.102   0.402  -0.097
    1UNL    H16   42  -0.068   0.388  -0.044
    1UNL    H17   43  -0.030   0.336  -0.214
    1UNL    H18   44  -0.017   0.093   0.307
    1UNL    H19   45   0.416   0.140   0.261
    1UNL    H20   46   0.594   0.128   0.083
    1UNL    H21   47   0.531   0.022  -0.127
    1UNL    H22   48   0.283  -0.053  -0.166
   0.00000   0.00000   0.00000   0.00000   0.00000   0.00000   0.00000   0.00000   0.00000
Generated with MDTraj, t= 16.0
 48
    1UNL     C1    1  -0.405   0.070  -0.164
    1UNL     C2    2  -0.295   0.067  -0.058
    1UNL     C3    3  -0.237  -0.040  -0.013
    1UNL     C4    4  -0.247  -0.176  -0.075
    1UNL     N1    5  -0.121  -0.252  -0.073
    1UNL     C5    6  -0.034  -0.189  -0.173
    1UNL     C6    7   0.015  -0.048  -0.134
    1UNL     C7    8   0.078  -0.048   0.009
    1UNL     C8    9   0.080  -0.194   0.059
    1UNL     O1   10   0.177  -0.260   0.082
    1UNL     C9   11  -0.052  -0.268   0.066
    1UNL    C10   12  -0.142  -0.183   0.170
    1UNL    C11   13  -0.152  -0.040   0.117
    1UNL    C12   14  -0.010   0.035   0.106
    1UNL    C13   15  -0.033   0.175   0.050
    1UNL     O2   16  -0.124   0.238   0.099
    1UNL     O3   17   0.049   0.224  -0.045
    1UNL    C14   18   0.028   0.368  -0.063
    1UNL    C15   19   0.055   0.052   0.240
    1UNL     N2   20   0.178   0.045   0.257
    1UNL    C16   21   0.261   0.058   0.144
    1UNL    C17   22   0.386   0.100   0.162
    1UNL    C18   23   0.482   0.084   0.060
    1UNL    C19   24   0.445   0.012  -0.058
    1UNL    C20   25   0.309  -0.026  -0.071
    1UNL    C21   26   0.219  -0.002   0.026
    1UNL     H1   27  -0.386   0.051  -0.271
    1UNL     H2   28  -0.484   0.006  -0.129
    1UNL     H3   29  -0.445   0.175  -0.163
    1UNL     H4   30  -0.274   0.153  -0.007
    1UNL     H5   31  -0.276  -0.175  -0.178
    1UNL     H6   32  -0.311  -0.243  -0.024
    1UNL     H7   33  -0.097  -0.180  -0.258
    1UNL     H8   34   0.054  -0.254  -0.187
    1UNL     H9   35   0.086  -0.014  -0.214
    1UNL    H10   36  -0.075   0.017  -0.141
    1UNL    H11   37  -0.032  -0.376   0.082
    1UNL    H12   38  -0.108  -0.193   0.277
    1UNL    H13   39  -0.238  -0.237   0.167
    1UNL    H14   40  -0.206   0.017   0.205
    1UNL    H15   41   0.002   0.378  -0.171
    1UNL    H16   42   0.118   0.418  -0.041
    1UNL    H17   43  -0.053   0.420   0.002
    1UNL    H18   44  -0.012   0.044   0.330
    1UNL    H19   45   0.426   0.135   0.261
    1UNL    H20   46   0.578   0.138   0.066
    1UNL    H21   47   0.511   0.002  -0.140
    1UNL    H22   48   0.283  -0.087  -0.150
   0.00000   0.00000   0.00000   0.00000   0.00000   0.00000   0.00000   0.00000   0.00000
Generated with MDTraj, t= 17.0
 48
    1UNL     C1    1  -0.409   0.064  -0.172
    1UNL     C2    2  -0.326   0.059  -0.040
    1UNL     C3    3  -0.246  -0.039  -0.009
    1UNL     C4    4  -0.249  -0.175  -0.088
    1UNL     N1    5  -0.119  -0.248  -0.076
    1UNL     C5    6  -0.028  -0.197  -0.186
    1UNL     C6    7   0.015  -0.052  -0.133
    1UNL     C7    8   0.079  -0.060   0.012
    1UNL     C8    9   0.074  -0.203   0.063
    1UNL     O1   10   0.170  -0.261   0.098
    1UNL     C9   11  -0.060  -0.258   0.063
    1UNL    C10   12  -0.149  -0.181   0.165
    1UNL    C11   13  -0.161  -0.044   0.121
    1UNL    C12   14  -0.013   0.025   0.106
    1UNL    C13   15  -0.027   0.167   0.055
    1UNL     O2   16  -0.109   0.240   0.112
    1UNL     O3   17   0.049   0.215  -0.049
    1UNL    C14   18   0.052   0.354  -0.047
    1UNL    C15   19   0.055   0.051   0.235
    1UNL     N2   20   0.174   0.078   0.248
    1UNL    C16   21   0.258   0.068   0.136
    1UNL    C17   22   0.394   0.103   0.162
    1UNL    C18   23   0.487   0.089   0.058
    1UNL    C19   24   0.452   0.024  -0.054
    1UNL    C20   25   0.321  -0.020  -0.077
    1UNL    C21   26   0.219   0.003   0.017
    1UNL     H1   27  -0.356   0.093  -0.267
    1UNL     H2   28  -0.456  -0.028  -0.185
    1UNL     H3   29  -0.489   0.142  -0.160
    1UNL     H4   30  -0.327   0.155   0.019
    1UNL     H5   31  -0.248  -0.165  -0.200
    1UNL     H6   32  -0.327  -0.240  -0.070
    1UNL     H7   33  -0.077  -0.185  -0.280
    1UNL     H8   34   0.052  -0.270  -0.194
    1UNL     H9   35   0.097  -0.014  -0.200
    1UNL    H10   36  -0.070   0.021  -0.139
    1UNL    H11   37  -0.050  -0.365   0.082
    1UNL    H12   38  -0.110  -0.193   0.269
    1UNL    H13   39  -0.249  -0.230   0.164
    1UNL    H14   40  -0.219   0.019   0.204
    1UNL    H15   41  -0.035   0.393   0.009
    1UNL    H16   42   0.049   0.385  -0.147
    1UNL    H17   43   0.151   0.398  -0.013
    1UNL    H18   44  -0.008   0.056   0.320
    1UNL    H19   45   0.403   0.145   0.259
    1UNL    H20   46   0.586   0.127   0.075
    1UNL    H21   47   0.518  -0.010  -0.140
    1UNL    H22   48   0.294  -0.068  -0.176
   0.00000   0.00000   0.00000   0.00000   0.00000   0.00000   0.00000   0.00000   0.00000
Generated with MDTraj, t= 18.0
 48
    1UNL     C1    1  -0.406   0.082  -0.139
    1UNL     C2    2  -0.323   0.066  -0.020
    1UNL     C3    3  -0.246  -0.034  -0.003
    1UNL     C4    4  -0.248  -0.160  -0.084
    1UNL     N1    5  -0.125  -0.245  -0.085
    1UNL     C5    6  -0.026  -0.187  -0.181
    1UNL     C6    7   0.034  -0.051  -0.139
    1UNL     C7    8   0.087  -0.068   0.010
    1UNL     C8    9   0.076  -0.210   0.056
    1UNL     O1   10   0.176  -0.271   0.084
    1UNL     C9   11  -0.060  -0.268   0.056
    1UNL    C10   12  -0.137  -0.181   0.168
    1UNL    C11   13  -0.153  -0.039   0.118
    1UNL    C12   14  -0.008   0.029   0.099
    1UNL    C13   15  -0.027   0.169   0.041
    1UNL     O2   16  -0.116   0.244   0.079
    1UNL     O3   17   0.062   0.218  -0.045
    1UNL    C14   18   0.030   0.343  -0.086
    1UNL    C15   19   0.045   0.047   0.237
    1UNL     N2   20   0.166   0.059   0.264
    1UNL    C16   21   0.255   0.045   0.151
    1UNL    C17   22   0.370   0.118   0.161
    1UNL    C18   23   0.473   0.110   0.065
    1UNL    C19   24   0.449   0.034  -0.048
    1UNL    C20   25   0.326  -0.036  -0.063
    1UNL    C21   26   0.230  -0.027   0.034
    1UNL     H1   27  -0.359   0.115  -0.235
    1UNL     H2   28  -0.467  -0.003  -0.154
    1UNL     H3   29  -0.475   0.165  -0.110
    1UNL     H4   30  -0.317   0.149   0.045
    1UNL     H5   31  -0.272  -0.139  -0.195
    1UNL     H6   32  -0.312  -0.233  -0.050
    1UNL     H7   33  -0.087  -0.180  -0.271
    1UNL     H8   34   0.051  -0.254  -0.211
    1UNL     H9   35   0.112  -0.012  -0.210
    1UNL    H10   36  -0.038   0.034  -0.139
    1UNL    H11   37  -0.053  -0.374   0.073
    1UNL    H12   38  -0.078  -0.185   0.262
    1UNL    H13   39  -0.234  -0.229   0.191
    1UNL    H14   40  -0.210   0.037   0.188
    1UNL    H15   41   0.078   0.424  -0.030
    1UNL    H16   42  -0.074   0.359  -0.087
    1UNL    H17   43   0.052   0.347  -0.193
    1UNL    H18   44  -0.020   0.073   0.324
    1UNL    H19   45   0.373   0.186   0.246
    1UNL    H20   46   0.569   0.155   0.086
    1UNL    H21   47   0.526   0.021  -0.115
    1UNL    H22   48   0.315  -0.088  -0.153
   0.00000   0.00000   0.00000   0.00000   0.00000   0.00000   0.00000   0.00000   0.00000
Generated with MDTraj, t= 19.0
 48
    1UNL     C1    1  -0.422   0.087  -0.122
    1UNL     C2    2  -0.313   0.077  -0.020
    1UNL     C3    3  -0.232  -0.023  -0.010
    1UNL     C4    4  -0.248  -0.149  -0.090
    1UNL     N1    5  -0.129  -0.234  -0.088
    1UNL     C5    6  -0.019  -0.183  -0.180
    1UNL     C6    7   0.039  -0.055  -0.133
    1UNL     C7    8   0.090  -0.063   0.016
    1UNL     C8    9   0.080  -0.210   0.050
    1UNL     O1   10   0.177  -0.278   0.078
    1UNL     C9   11  -0.066  -0.255   0.049
    1UNL    C10   12  -0.142  -0.186   0.162
    1UNL    C11   13  -0.152  -0.045   0.117
    1UNL    C12   14  -0.014   0.021   0.107
    1UNL    C13   15  -0.041   0.160   0.047
    1UNL     O2   16  -0.126   0.240   0.090
    1UNL     O3   17   0.049   0.184  -0.055
    1UNL    C14   18   0.028   0.308  -0.112
    1UNL    C15   19   0.044   0.054   0.240
    1UNL     N2   20   0.168   0.074   0.259
    1UNL    C16   21   0.264   0.049   0.156
    1UNL    C17   22   0.383   0.112   0.172
    1UNL    C18   23   0.482   0.105   0.077
    1UNL    C19   24   0.455   0.041  -0.045
    1UNL    C20   25   0.329  -0.015  -0.065
    1UNL    C21   26   0.231  -0.013   0.031
    1UNL     H1   27  -0.395   0.093  -0.229
    1UNL     H2   28  -0.491   0.001  -0.106
    1UNL     H3   29  -0.477   0.180  -0.103
    1UNL     H4   30  -0.309   0.160   0.052
    1UNL     H5   31  -0.260  -0.129  -0.203
    1UNL     H6   32  -0.333  -0.203  -0.060
    1UNL     H7   33  -0.062  -0.163  -0.280
    1UNL     H8   34   0.049  -0.260  -0.201
    1UNL     H9   35   0.118  -0.006  -0.195
    1UNL    H10   36  -0.042   0.023  -0.141
    1UNL    H11   37  -0.065  -0.362   0.063
    1UNL    H12   38  -0.083  -0.194   0.255
    1UNL    H13   39  -0.238  -0.242   0.174
    1UNL    H14   40  -0.220   0.016   0.189
    1UNL    H15   41   0.108   0.379  -0.095
    1UNL    H16   42  -0.059   0.356  -0.075
    1UNL    H17   43   0.003   0.303  -0.217
    1UNL    H18   44  -0.009   0.054   0.331
    1UNL    H19   45   0.403   0.163   0.268
    1UNL    H20   46   0.576   0.156   0.100
    1UNL    H21   47   0.538   0.030  -0.118
    1UNL    H22   48   0.304  -0.071  -0.153
   0.00000   0.00000   0.00000   0.00000   0.00000   0.00000   0.00000   0.00000   0.00000
Generated with MDTraj, t= 20.0
 48
    1UNL     C1    1  -0.420   0.072  -0.141
    1UNL     C2    2  -0.337   0.055  -0.012
    1UNL     C3    3  -0.249  -0.038  -0.001
    1UNL     C4    4  -0.242  -0.164  -0.091
    1UNL     N1    5  -0.118  -0.238  -0.084
    1UNL     C5    6  -0.017  -0.184  -0.189
    1UNL     C6    7   0.034  -0.050  -0.137
    1UNL     C7    8   0.087  -0.052   0.007
    1UNL     C8    9   0.083  -0.204   0.053
    1UNL     O1   10   0.172  -0.269   0.099
    1UNL     C9   11  -0.057  -0.263   0.056
    1UNL    C10   12  -0.140  -0.182   0.162
    1UNL    C11   13  -0.153  -0.033   0.120
    1UNL    C12   14  -0.014   0.035   0.097
    1UNL    C13   15  -0.031   0.175   0.047
    1UNL     O2   16  -0.094   0.256   0.113
    1UNL     O3   17   0.025   0.210  -0.073
    1UNL    C14   18   0.012   0.345  -0.104
    1UNL    C15   19   0.045   0.050   0.230
    1UNL     N2   20   0.167   0.051   0.259
    1UNL    C16   21   0.252   0.058   0.144
    1UNL    C17   22   0.385   0.099   0.168
    1UNL    C18   23   0.489   0.087   0.082
    1UNL    C19   24   0.462   0.017  -0.036
    1UNL    C20   25   0.338  -0.032  -0.067
    1UNL    C21   26   0.228   0.001   0.024
    1UNL     H1   27  -0.361   0.069  -0.232
    1UNL     H2   28  -0.502  -0.009  -0.138
    1UNL     H3   29  -0.467   0.168  -0.137
    1UNL     H4   30  -0.324   0.139   0.057
    1UNL     H5   31  -0.261  -0.138  -0.199
    1UNL     H6   32  -0.323  -0.240  -0.069
    1UNL     H7   33  -0.056  -0.169  -0.293
    1UNL     H8   34   0.061  -0.252  -0.201
    1UNL     H9   35   0.105  -0.006  -0.209
    1UNL    H10   36  -0.055   0.019  -0.139
    1UNL    H11   37  -0.051  -0.369   0.074
    1UNL    H12   38  -0.080  -0.186   0.253
    1UNL    H13   39  -0.236  -0.236   0.178
    1UNL    H14   40  -0.214   0.019   0.200
    1UNL    H15   41   0.107   0.391  -0.078
    1UNL    H16   42  -0.068   0.403  -0.056
    1UNL    H17   43   0.004   0.358  -0.213
    1UNL    H18   44  -0.020   0.052   0.323
    1UNL    H19   45   0.396   0.141   0.261
    1UNL    H20   46   0.588   0.118   0.109
    1UNL    H21   47   0.538   0.006  -0.108
    1UNL    H22   48   0.309  -0.104  -0.145
   0.00000   0.00000   0.00000   0.00000   0.00000   0.00000   0.00000   0.00000   0.00000
Generated with MDTraj, t= 21.0
 48
    1UNL     C1    1  -0.414   0.071  -0.159
    1UNL     C2    2  -0.310   0.066  -0.047
    1UNL     C3    3  -0.238  -0.037  -0.011
    1UNL     C4    4  -0.239  -0.171  -0.085
    1UNL     N1    5  -0.112  -0.245  -0.077
    1UNL     C5    6  -0.015  -0.187  -0.178
    1UNL     C6    7   0.028  -0.050  -0.136
    1UNL     C7    8   0.080  -0.053   0.013
    1UNL     C8    9   0.083  -0.202   0.057
    1UNL     O1   10   0.174  -0.274   0.084
    1UNL     C9   11  -0.055  -0.258   0.064
    1UNL    C10   12  -0.136  -0.184   0.167
    1UNL    C11   13  -0.151  -0.035   0.115
    1UNL    C12   14  -0.015   0.034   0.103
    1UNL    C13   15  -0.036   0.180   0.054
    1UNL     O2   16  -0.108   0.249   0.121
    1UNL     O3   17   0.015   0.223  -0.065
    1UNL    C14   18  -0.018   0.357  -0.091
    1UNL    C15   19   0.055   0.057   0.235
    1UNL     N2   20   0.180   0.072   0.254
    1UNL    C16   21   0.265   0.054   0.149
    1UNL    C17   22   0.396   0.086   0.173
    1UNL    C18   23   0.492   0.058   0.078
    1UNL    C19   24   0.454   0.006  -0.049
    1UNL    C20   25   0.323  -0.028  -0.066
    1UNL    C21   26   0.223   0.006   0.026
    1UNL     H1   27  -0.374   0.087  -0.259
    1UNL     H2   28  -0.480  -0.025  -0.151
    1UNL     H3   29  -0.482   0.151  -0.138
    1UNL     H4   30  -0.287   0.158   0.001
    1UNL     H5   31  -0.276  -0.166  -0.190
    1UNL     H6   32  -0.317  -0.242  -0.028
    1UNL     H7   33  -0.077  -0.173  -0.272
    1UNL     H8   34   0.070  -0.244  -0.204
    1UNL     H9   35   0.097  -0.014  -0.213
    1UNL    H10   36  -0.064   0.013  -0.143
    1UNL    H11   37  -0.053  -0.358   0.102
    1UNL    H12   38  -0.089  -0.189   0.265
    1UNL    H13   39  -0.236  -0.232   0.166
    1UNL    H14   40  -0.222   0.023   0.177
    1UNL    H15   41   0.017   0.413  -0.002
    1UNL    H16   42  -0.124   0.386  -0.116
    1UNL    H17   43   0.050   0.391  -0.170
    1UNL    H18   44  -0.000   0.083   0.317
    1UNL    H19   45   0.426   0.139   0.270
    1UNL    H20   46   0.597   0.085   0.092
    1UNL    H21   47   0.532  -0.006  -0.125
    1UNL    H22   48   0.296  -0.074  -0.159
   0.00000   0.00000   0.00000   0.00000   0.00000   0.00000   0.00000   0.00000   0.00000
Generated with MDTraj, t= 22.0
 48
    1UNL     C1    1  -0.368   0.091  -0.176
    1UNL     C2    2  -0.305   0.072  -0.039
    1UNL     C3    3  -0.244  -0.034   0.005
    1UNL     C4    4  -0.247  -0.165  -0.066
    1UNL     N1    5  -0.120  -0.235  -0.076
    1UNL     C5    6  -0.037  -0.178  -0.186
    1UNL     C6    7   0.026  -0.043  -0.136
    1UNL     C7    8   0.085  -0.050   0.012
    1UNL     C8    9   0.082  -0.195   0.059
    1UNL     O1   10   0.186  -0.249   0.087
    1UNL     C9   11  -0.053  -0.257   0.056
    1UNL    C10   12  -0.135  -0.195   0.176
    1UNL    C11   13  -0.152  -0.037   0.133
    1UNL    C12   14  -0.016   0.027   0.107
    1UNL    C13   15  -0.055   0.165   0.053
    1UNL     O2   16  -0.147   0.230   0.096
    1UNL     O3   17   0.027   0.209  -0.049
    1UNL    C14   18  -0.005   0.335  -0.103
    1UNL    C15   19   0.057   0.044   0.241
    1UNL     N2   20   0.182   0.065   0.259
    1UNL    C16   21   0.267   0.049   0.152
    1UNL    C17   22   0.397   0.091   0.164
    1UNL    C18   23   0.493   0.067   0.070
    1UNL    C19   24   0.454   0.005  -0.048
    1UNL    C20   25   0.318  -0.017  -0.074
    1UNL    C21   26   0.225   0.003   0.023
    1UNL     H1   27  -0.300   0.074  -0.261
    1UNL     H2   28  -0.464   0.034  -0.187
    1UNL     H3   29  -0.403   0.194  -0.188
    1UNL     H4   30  -0.302   0.161   0.029
    1UNL     H5   31  -0.274  -0.137  -0.170
    1UNL     H6   32  -0.333  -0.243  -0.032
    1UNL     H7   33  -0.087  -0.171  -0.286
    1UNL     H8   34   0.041  -0.249  -0.197
    1UNL     H9   35   0.110  -0.021  -0.203
    1UNL    H10   36  -0.048   0.037  -0.153
    1UNL    H11   37  -0.045  -0.364   0.067
    1UNL    H12   38  -0.072  -0.192   0.264
    1UNL    H13   39  -0.229  -0.249   0.191
    1UNL    H14   40  -0.208   0.025   0.200
    1UNL    H15   41  -0.022   0.404  -0.018
    1UNL    H16   42  -0.098   0.331  -0.172
    1UNL    H17   43   0.085   0.370  -0.151
    1UNL    H18   44  -0.011   0.044   0.335
    1UNL    H19   45   0.416   0.147   0.248
    1UNL    H20   46   0.592   0.098   0.096
    1UNL    H21   47   0.528  -0.015  -0.123
    1UNL    H22   48   0.288  -0.058  -0.168
   0.00000   0.00000   0.00000   0.00000   0.00000   0.00000   0.00000   0.00000   0.00000
Generated with MDTraj, t= 23.0
 48
    1UNL     C1    1  -0.391   0.064  -0.164
    1UNL     C2    2  -0.300   0.069  -0.039
    1UNL     C3    3  -0.240  -0.039  -0.003
    1UNL     C4    4  -0.250  -0.162  -0.085
    1UNL     N1    5  -0.127  -0.252  -0.080
    1UNL     C5    6  -0.028  -0.204  -0.174
    1UNL     C6    7   0.030  -0.062  -0.136
    1UNL     C7    8   0.079  -0.063   0.012
    1UNL     C8    9   0.074  -0.209   0.055
    1UNL     O1   10   0.176  -0.270   0.072
    1UNL     C9   11  -0.066  -0.264   0.059
    1UNL    C10   12  -0.136  -0.185   0.168
    1UNL    C11   13  -0.155  -0.039   0.121
    1UNL    C12   14  -0.015   0.027   0.101
    1UNL    C13   15  -0.024   0.179   0.054
    1UNL     O2   16  -0.091   0.253   0.121
    1UNL     O3   17   0.047   0.222  -0.056
    1UNL    C14   18   0.019   0.358  -0.092
    1UNL    C15   19   0.045   0.050   0.244
    1UNL     N2   20   0.168   0.067   0.266
    1UNL    C16   21   0.251   0.053   0.152
    1UNL    C17   22   0.382   0.109   0.163
    1UNL    C18   23   0.476   0.098   0.063
    1UNL    C19   24   0.442   0.037  -0.056
    1UNL    C20   25   0.314  -0.027  -0.071
    1UNL    C21   26   0.222  -0.013   0.036
    1UNL     H1   27  -0.333   0.053  -0.259
    1UNL     H2   28  -0.468  -0.009  -0.155
    1UNL     H3   29  -0.450   0.159  -0.172
    1UNL     H4   30  -0.290   0.154   0.018
    1UNL     H5   31  -0.293  -0.156  -0.191
    1UNL     H6   32  -0.336  -0.217  -0.030
    1UNL     H7   33  -0.086  -0.207  -0.269
    1UNL     H8   34   0.046  -0.281  -0.189
    1UNL     H9   35   0.114  -0.034  -0.201
    1UNL    H10   36  -0.039   0.020  -0.162
    1UNL    H11   37  -0.063  -0.370   0.083
    1UNL    H12   38  -0.075  -0.173   0.257
    1UNL    H13   39  -0.234  -0.226   0.186
    1UNL    H14   40  -0.209   0.014   0.192
    1UNL    H15   41   0.057   0.421  -0.012
    1UNL    H16   42  -0.098   0.364  -0.098
    1UNL    H17   43   0.076   0.385  -0.178
    1UNL    H18   44  -0.022   0.049   0.318
    1UNL    H19   45   0.404   0.154   0.260
    1UNL    H20   46   0.577   0.134   0.076
    1UNL    H21   47   0.508   0.028  -0.138
    1UNL    H22   48   0.305  -0.090  -0.160
   0.00000   0.00000   0.00000   0.00000   0.00000   0.00000   0.00000   0.00000   0.00000
Generated with MDTraj, t= 24.0
 48
    1UNL     C1    1  -0.413   0.072  -0.158
    1UNL     C2    2  -0.321   0.072  -0.034
    1UNL     C3    3  -0.245  -0.034  -0.012
    1UNL     C4    4  -0.259  -0.165  -0.087
    1UNL     N1    5  -0.134  -0.241  -0.081
    1UNL     C5    6  -0.030  -0.198  -0.179
    1UNL     C6    7   0.044  -0.072  -0.135
    1UNL     C7    8   0.086  -0.066   0.012
    1UNL     C8    9   0.074  -0.209   0.061
    1UNL     O1   10   0.162  -0.269   0.113
    1UNL     C9   11  -0.072  -0.265   0.053
    1UNL    C10   12  -0.147  -0.189   0.165
    1UNL    C11   13  -0.160  -0.037   0.114
    1UNL    C12   14  -0.015   0.023   0.100
    1UNL    C13   15  -0.026   0.167   0.052
    1UNL     O2   16  -0.087   0.238   0.125
    1UNL     O3   17   0.039   0.201  -0.063
    1UNL    C14   18   0.062   0.339  -0.078
    1UNL    C15   19   0.050   0.037   0.237
    1UNL     N2   20   0.175   0.058   0.258
    1UNL    C16   21   0.261   0.062   0.148
    1UNL    C17   22   0.385   0.123   0.164
    1UNL    C18   23   0.473   0.128   0.054
    1UNL    C19   24   0.445   0.057  -0.061
    1UNL    C20   25   0.326  -0.016  -0.069
    1UNL    C21   26   0.229  -0.007   0.025
    1UNL     H1   27  -0.352   0.084  -0.251
    1UNL     H2   28  -0.470  -0.016  -0.165
    1UNL     H3   29  -0.491   0.154  -0.154
    1UNL     H4   30  -0.307   0.164   0.029
    1UNL     H5   31  -0.269  -0.134  -0.198
    1UNL     H6   32  -0.350  -0.229  -0.081
    1UNL     H7   33  -0.073  -0.193  -0.279
    1UNL     H8   34   0.040  -0.282  -0.184
    1UNL     H9   35   0.125  -0.057  -0.207
    1UNL    H10   36  -0.014   0.020  -0.148
    1UNL    H11   37  -0.064  -0.374   0.058
    1UNL    H12   38  -0.099  -0.189   0.262
    1UNL    H13   39  -0.249  -0.218   0.171
    1UNL    H14   40  -0.212   0.018   0.185
    1UNL    H15   41   0.141   0.376  -0.016
    1UNL    H16   42  -0.043   0.385  -0.059
    1UNL    H17   43   0.099   0.346  -0.177
    1UNL    H18   44  -0.027   0.042   0.326
    1UNL    H19   45   0.416   0.149   0.268
    1UNL    H20   46   0.566   0.183   0.061
    1UNL    H21   47   0.518   0.034  -0.146
    1UNL    H22   48   0.312  -0.086  -0.149
   0.00000   0.00000   0.00000   0.00000   0.00000   0.00000   0.00000   0.00000   0.00000
Generated with MDTraj, t= 25.0
 48
    1UNL     C1    1  -0.405   0.106  -0.140
    1UNL     C2    2  -0.309   0.074  -0.030
    1UNL     C3    3  -0.248  -0.038  -0.003
    1UNL     C4    4  -0.243  -0.158  -0.093
    1UNL     N1    5  -0.120  -0.246  -0.075
    1UNL     C5    6  -0.012  -0.196  -0.175
    1UNL     C6    7   0.031  -0.057  -0.135
    1UNL     C7    8   0.082  -0.060   0.012
    1UNL     C8    9   0.079  -0.202   0.060
    1UNL     O1   10   0.175  -0.270   0.086
    1UNL     C9   11  -0.061  -0.265   0.063
    1UNL    C10   12  -0.144  -0.195   0.163
    1UNL    C11   13  -0.164  -0.047   0.124
    1UNL    C12   14  -0.014   0.028   0.108
    1UNL    C13   15  -0.032   0.167   0.051
    1UNL     O2   16  -0.124   0.239   0.082
    1UNL     O3   17   0.061   0.197  -0.048
    1UNL    C14   18   0.053   0.333  -0.104
    1UNL    C15   19   0.046   0.034   0.246
    1UNL     N2   20   0.172   0.046   0.267
    1UNL    C16   21   0.255   0.059   0.155
    1UNL    C17   22   0.382   0.122   0.164
    1UNL    C18   23   0.468   0.118   0.051
    1UNL    C19   24   0.438   0.036  -0.060
    1UNL    C20   25   0.312  -0.020  -0.065
    1UNL    C21   26   0.224  -0.007   0.035
    1UNL     H1   27  -0.359   0.125  -0.238
    1UNL     H2   28  -0.494   0.047  -0.150
    1UNL     H3   29  -0.455   0.206  -0.117
    1UNL     H4   30  -0.287   0.150   0.036
    1UNL     H5   31  -0.264  -0.135  -0.206
    1UNL     H6   32  -0.332  -0.216  -0.076
    1UNL     H7   33  -0.052  -0.201  -0.274
    1UNL     H8   34   0.078  -0.261  -0.169
    1UNL     H9   35   0.099  -0.008  -0.205
    1UNL    H10   36  -0.060   0.001  -0.134
    1UNL    H11   37  -0.054  -0.372   0.086
    1UNL    H12   38  -0.102  -0.199   0.262
    1UNL    H13   39  -0.244  -0.229   0.167
    1UNL    H14   40  -0.211   0.006   0.199
    1UNL    H15   41   0.052   0.402  -0.023
    1UNL    H16   42  -0.048   0.328  -0.158
    1UNL    H17   43   0.128   0.348  -0.176
    1UNL    H18   44  -0.012   0.029   0.327
    1UNL    H19   45   0.408   0.183   0.242
    1UNL    H20   46   0.563   0.165   0.055
    1UNL    H21   47   0.499   0.032  -0.140
    1UNL    H22   48   0.277  -0.078  -0.151
   0.00000   0.00000   0.00000   0.00000   0.00000   0.00000   0.00000   0.00000   0.00000
Generated with MDTraj, t= 26.0
 48
    1UNL     C1    1  -0.402   0.063  -0.158
    1UNL     C2    2  -0.314   0.065  -0.040
    1UNL     C3    3  -0.254  -0.040   0.009
    1UNL     C4    4  -0.259  -0.174  -0.066
    1UNL     N1    5  -0.127  -0.233  -0.078
    1UNL     C5    6  -0.034  -0.169  -0.190
    1UNL     C6    7   0.038  -0.043  -0.133
    1UNL     C7    8   0.086  -0.059   0.011
    1UNL     C8    9   0.072  -0.213   0.048
    1UNL     O1   10   0.164  -0.287   0.076
    1UNL     C9   11  -0.073  -0.265   0.053
    1UNL    C10   12  -0.138  -0.192   0.172
    1UNL    C11   13  -0.159  -0.042   0.128
    1UNL    C12   14  -0.008   0.031   0.104
    1UNL    C13   15  -0.027   0.172   0.043
    1UNL     O2   16  -0.126   0.230   0.083
    1UNL     O3   17   0.055   0.225  -0.049
    1UNL    C14   18   0.014   0.354  -0.102
    1UNL    C15   19   0.059   0.046   0.238
    1UNL     N2   20   0.180   0.080   0.258
    1UNL    C16   21   0.265   0.060   0.147
    1UNL    C17   22   0.397   0.111   0.171
    1UNL    C18   23   0.493   0.089   0.078
    1UNL    C19   24   0.456   0.026  -0.040
    1UNL    C20   25   0.329  -0.023  -0.063
    1UNL    C21   26   0.230  -0.012   0.036
    1UNL     H1   27  -0.342   0.069  -0.248
    1UNL     H2   28  -0.488  -0.008  -0.160
    1UNL     H3   29  -0.456   0.161  -0.156
    1UNL     H4   30  -0.302   0.153   0.025
    1UNL     H5   31  -0.311  -0.169  -0.172
    1UNL     H6   32  -0.327  -0.239  -0.022
    1UNL     H7   33  -0.091  -0.138  -0.272
    1UNL     H8   34   0.036  -0.248  -0.232
    1UNL     H9   35   0.121  -0.020  -0.199
    1UNL    H10   36  -0.030   0.041  -0.134
    1UNL    H11   37  -0.081  -0.376   0.058
    1UNL    H12   38  -0.073  -0.188   0.257
    1UNL    H13   39  -0.229  -0.231   0.208
    1UNL    H14   40  -0.194   0.015   0.206
    1UNL    H15   41  -0.027   0.403  -0.014
    1UNL    H16   42  -0.056   0.339  -0.193
    1UNL    H17   43   0.095   0.397  -0.154
    1UNL    H18   44  -0.008   0.050   0.334
    1UNL    H19   45   0.410   0.168   0.269
    1UNL    H20   46   0.590   0.139   0.084
    1UNL    H21   47   0.536   0.004  -0.118
    1UNL    H22   48   0.293  -0.055  -0.156
   0.00000   0.00000   0.00000   0.00000   0.00000   0.00000   0.00000   0.00000   0.00000
Generated with MDTraj, t= 27.0
 48
    1UNL     C1    1  -0.414   0.064  -0.152
    1UNL     C2    2  -0.319   0.064  -0.035
    1UNL     C3    3  -0.242  -0.042   0.001
    1UNL     C4    4  -0.237  -0.174  -0.083
    1UNL     N1    5  -0.110  -0.244  -0.077
    1UNL     C5    6  -0.008  -0.195  -0.176
    1UNL     C6    7   0.033  -0.053  -0.147
    1UNL     C7    8   0.079  -0.046   0.002
    1UNL     C8    9   0.083  -0.188   0.052
    1UNL     O1   10   0.184  -0.244   0.079
    1UNL     C9   11  -0.052  -0.253   0.063
    1UNL    C10   12  -0.129  -0.183   0.173
    1UNL    C11   13  -0.158  -0.038   0.122
    1UNL    C12   14  -0.020   0.036   0.100
    1UNL    C13   15  -0.043   0.181   0.046
    1UNL     O2   16  -0.121   0.249   0.112
    1UNL     O3   17   0.030   0.223  -0.060
    1UNL    C14   18   0.023   0.362  -0.081
    1UNL    C15   19   0.042   0.048   0.236
    1UNL     N2   20   0.166   0.075   0.253
    1UNL    C16   21   0.253   0.067   0.140
    1UNL    C17   22   0.386   0.083   0.170
    1UNL    C18   23   0.485   0.047   0.082
    1UNL    C19   24   0.452  -0.013  -0.043
    1UNL    C20   25   0.320  -0.029  -0.073
    1UNL    C21   26   0.218   0.007   0.015
    1UNL     H1   27  -0.353   0.044  -0.238
    1UNL     H2   28  -0.507  -0.002  -0.136
    1UNL     H3   29  -0.452   0.165  -0.159
    1UNL     H4   30  -0.325   0.139   0.041
    1UNL     H5   31  -0.262  -0.154  -0.194
    1UNL     H6   32  -0.313  -0.245  -0.066
    1UNL     H7   33  -0.035  -0.215  -0.275
    1UNL     H8   34   0.086  -0.257  -0.156
    1UNL     H9   35   0.111  -0.016  -0.213
    1UNL    H10   36  -0.052   0.011  -0.159
    1UNL    H11   37  -0.032  -0.361   0.080
    1UNL    H12   38  -0.085  -0.182   0.271
    1UNL    H13   39  -0.224  -0.227   0.185
    1UNL    H14   40  -0.210   0.005   0.201
    1UNL    H15   41   0.083   0.395   0.005
    1UNL    H16   42  -0.087   0.396  -0.069
    1UNL    H17   43   0.051   0.383  -0.183
    1UNL    H18   44  -0.012   0.050   0.321
    1UNL    H19   45   0.405   0.118   0.266
    1UNL    H20   46   0.589   0.054   0.109
    1UNL    H21   47   0.526  -0.034  -0.118
    1UNL    H22   48   0.297  -0.093  -0.162
   0.00000   0.00000   0.00000   0.00000   0.00000   0.00000   0.00000   0.00000   0.00000
Generated with MDTraj, t= 28.0
 48
    1UNL     C1    1  -0.412   0.055  -0.155
    1UNL     C2    2  -0.311   0.072  -0.043
    1UNL     C3    3  -0.243  -0.036  -0.004
    1UNL     C4    4  -0.252  -0.166  -0.081
    1UNL     N1    5  -0.113  -0.231  -0.088
    1UNL     C5    6  -0.016  -0.180  -0.179
    1UNL     C6    7   0.037  -0.042  -0.139
    1UNL     C7    8   0.086  -0.046   0.012
    1UNL     C8    9   0.080  -0.193   0.062
    1UNL     O1   10   0.172  -0.252   0.111
    1UNL     C9   11  -0.054  -0.254   0.055
    1UNL    C10   12  -0.134  -0.179   0.166
    1UNL    C11   13  -0.150  -0.034   0.118
    1UNL    C12   14  -0.014   0.036   0.098
    1UNL    C13   15  -0.049   0.173   0.044
    1UNL     O2   16  -0.139   0.235   0.104
    1UNL     O3   17   0.027   0.219  -0.058
    1UNL    C14   18   0.001   0.353  -0.089
    1UNL    C15   19   0.052   0.059   0.228
    1UNL     N2   20   0.174   0.071   0.257
    1UNL    C16   21   0.269   0.042   0.155
    1UNL    C17   22   0.406   0.065   0.175
    1UNL    C18   23   0.496   0.063   0.070
    1UNL    C19   24   0.455   0.012  -0.055
    1UNL    C20   25   0.325  -0.033  -0.072
    1UNL    C21   26   0.229  -0.006   0.028
    1UNL     H1   27  -0.368   0.089  -0.247
    1UNL     H2   28  -0.468  -0.047  -0.167
    1UNL     H3   29  -0.494   0.122  -0.136
    1UNL     H4   30  -0.306   0.149   0.030
    1UNL     H5   31  -0.297  -0.163  -0.180
    1UNL     H6   32  -0.322  -0.231  -0.034
    1UNL     H7   33  -0.067  -0.169  -0.271
    1UNL     H8   34   0.067  -0.257  -0.194
    1UNL     H9   35   0.118  -0.018  -0.206
    1UNL    H10   36  -0.038   0.034  -0.154
    1UNL    H11   37  -0.037  -0.362   0.081
    1UNL    H12   38  -0.086  -0.181   0.260
    1UNL    H13   39  -0.233  -0.215   0.187
    1UNL    H14   40  -0.197   0.019   0.196
    1UNL    H15   41   0.098   0.404  -0.092
    1UNL    H16   42  -0.045   0.399   0.010
    1UNL    H17   43  -0.059   0.356  -0.180
    1UNL    H18   44  -0.015   0.090   0.317
    1UNL    H19   45   0.437   0.083   0.277
    1UNL    H20   46   0.596   0.098   0.084
    1UNL    H21   47   0.531   0.001  -0.132
    1UNL    H22   48   0.314  -0.101  -0.150
   0.00000   0.00000   0.00000   0.00000   0.00000   0.00000   0.00000   0.00000   0.00000
Generated with MDTraj, t= 29.0
 48
    1UNL     C1    1  -0.407   0.084  -0.145
    1UNL     C2    2  -0.323   0.075  -0.029
    1UNL     C3    3  -0.249  -0.037   0.001
    1UNL     C4    4  -0.253  -0.166  -0.078
    1UNL     N1    5  -0.121  -0.239  -0.078
    1UNL     C5    6  -0.023  -0.200  -0.183
    1UNL     C6    7   0.033  -0.057  -0.143
    1UNL     C7    8   0.083  -0.059   0.010
    1UNL     C8    9   0.077  -0.205   0.052
    1UNL     O1   10   0.178  -0.270   0.061
    1UNL     C9   11  -0.060  -0.257   0.059
    1UNL    C10   12  -0.139  -0.183   0.166
    1UNL    C11   13  -0.153  -0.037   0.118
    1UNL    C12   14  -0.012   0.028   0.100
    1UNL    C13   15  -0.025   0.175   0.049
    1UNL     O2   16  -0.111   0.243   0.106
    1UNL     O3   17   0.057   0.219  -0.053
    1UNL    C14   18  -0.001   0.329  -0.117
    1UNL    C15   19   0.053   0.043   0.231
    1UNL     N2   20   0.169   0.073   0.262
    1UNL    C16   21   0.258   0.053   0.158
    1UNL    C17   22   0.389   0.099   0.173
    1UNL    C18   23   0.483   0.090   0.077
    1UNL    C19   24   0.454   0.034  -0.041
    1UNL    C20   25   0.327  -0.031  -0.056
    1UNL    C21   26   0.225  -0.004   0.036
    1UNL     H1   27  -0.348   0.058  -0.234
    1UNL     H2   28  -0.506   0.028  -0.144
    1UNL     H3   29  -0.437   0.185  -0.167
    1UNL     H4   30  -0.325   0.155   0.049
    1UNL     H5   31  -0.268  -0.137  -0.174
    1UNL     H6   32  -0.333  -0.236  -0.060
    1UNL     H7   33  -0.052  -0.210  -0.286
    1UNL     H8   34   0.063  -0.273  -0.165
    1UNL     H9   35   0.108  -0.012  -0.204
    1UNL    H10   36  -0.048   0.014  -0.150
    1UNL    H11   37  -0.065  -0.365   0.086
    1UNL    H12   38  -0.085  -0.176   0.258
    1UNL    H13   39  -0.232  -0.232   0.189
    1UNL    H14   40  -0.206   0.030   0.185
    1UNL    H15   41   0.022   0.324  -0.222
    1UNL    H16   42   0.057   0.424  -0.074
    1UNL    H17   43  -0.109   0.318  -0.108
    1UNL    H18   44  -0.015   0.049   0.308
    1UNL    H19   45   0.401   0.146   0.274
    1UNL    H20   46   0.577   0.137   0.106
    1UNL    H21   47   0.534   0.013  -0.113
    1UNL    H22   48   0.302  -0.091  -0.146
   0.00000   0.00000   0.00000   0.00000   0.00000   0.00000   0.00000   0.00000   0.00000
Generated with MDTraj, t= 30.0
 48
    1UNL     C1    1  -0.400   0.100  -0.143
    1UNL     C2    2  -0.317   0.074  -0.027
    1UNL     C3    3  -0.245  -0.040   0.007
    1UNL     C4    4  -0.250  -0.158  -0.080
    1UNL     N1    5  -0.124  -0.239  -0.092
    1UNL     C5    6  -0.022  -0.189  -0.183
    1UNL     C6    7   0.030  -0.053  -0.136
    1UNL     C7    8   0.081  -0.060   0.017
    1UNL     C8    9   0.073  -0.209   0.053
    1UNL     O1   10   0.169  -0.271   0.093
    1UNL     C9   11  -0.064  -0.267   0.048
    1UNL    C10   12  -0.142  -0.203   0.165
    1UNL    C11   13  -0.154  -0.047   0.130
    1UNL    C12   14  -0.016   0.021   0.104
    1UNL    C13   15  -0.029   0.162   0.035
    1UNL     O2   16  -0.096   0.241   0.101
    1UNL     O3   17   0.021   0.193  -0.091
    1UNL    C14   18   0.050   0.333  -0.095
    1UNL    C15   19   0.056   0.036   0.240
    1UNL     N2   20   0.172   0.074   0.265
    1UNL    C16   21   0.257   0.060   0.156
    1UNL    C17   22   0.378   0.122   0.167
    1UNL    C18   23   0.472   0.118   0.064
    1UNL    C19   24   0.452   0.038  -0.045
    1UNL    C20   25   0.323  -0.025  -0.056
    1UNL    C21   26   0.226  -0.009   0.039
    1UNL     H1   27  -0.331   0.096  -0.233
    1UNL     H2   28  -0.489   0.040  -0.152
    1UNL     H3   29  -0.433   0.205  -0.137
    1UNL     H4   30  -0.306   0.154   0.039
    1UNL     H5   31  -0.287  -0.141  -0.172
    1UNL     H6   32  -0.325  -0.225  -0.039
    1UNL     H7   33  -0.076  -0.175  -0.277
    1UNL     H8   34   0.065  -0.254  -0.206
    1UNL     H9   35   0.095  -0.008  -0.207
    1UNL    H10   36  -0.054   0.014  -0.139
    1UNL    H11   37  -0.048  -0.375   0.071
    1UNL    H12   38  -0.085  -0.214   0.252
    1UNL    H13   39  -0.232  -0.263   0.177
    1UNL    H14   40  -0.206   0.006   0.212
    1UNL    H15   41   0.087   0.343  -0.194
    1UNL    H16   42   0.132   0.349  -0.012
    1UNL    H17   43  -0.044   0.384  -0.093
    1UNL    H18   44  -0.007   0.029   0.335
    1UNL    H19   45   0.392   0.198   0.233
    1UNL    H20   46   0.568   0.162   0.078
    1UNL    H21   47   0.520   0.037  -0.127
    1UNL    H22   48   0.307  -0.089  -0.142
   0.00000   0.00000   0.00000   0.00000   0.00000   0.00000   0.00000   0.00000   0.00000
Generated with MDTraj, t= 31.0
 48
    1UNL     C1    1  -0.410   0.080  -0.161
    1UNL     C2    2  -0.313   0.078  -0.051
    1UNL     C3    3  -0.233  -0.029  -0.018
    1UNL     C4    4  -0.245  -0.159  -0.094
    1UNL     N1    5  -0.129  -0.249  -0.078
    1UNL     C5    6  -0.015  -0.209  -0.168
    1UNL     C6    7   0.027  -0.069  -0.134
    1UNL     C7    8   0.079  -0.069   0.013
    1UNL     C8    9   0.072  -0.211   0.060
    1UNL     O1   10   0.166  -0.272   0.101
    1UNL     C9   11  -0.073  -0.264   0.065
    1UNL    C10   12  -0.157  -0.181   0.166
    1UNL    C11   13  -0.153  -0.033   0.115
    1UNL    C12   14  -0.008   0.021   0.106
    1UNL    C13   15  -0.016   0.169   0.053
    1UNL     O2   16  -0.105   0.231   0.109
    1UNL     O3   17   0.067   0.217  -0.045
    1UNL    C14   18   0.023   0.355  -0.069
    1UNL    C15   19   0.062   0.022   0.241
    1UNL     N2   20   0.181   0.061   0.262
    1UNL    C16   21   0.257   0.066   0.148
    1UNL    C17   22   0.378   0.126   0.150
    1UNL    C18   23   0.473   0.114   0.050
    1UNL    C19   24   0.437   0.040  -0.061
    1UNL    C20   25   0.319  -0.028  -0.070
    1UNL    C21   26   0.224  -0.005   0.027
    1UNL     H1   27  -0.357   0.127  -0.250
    1UNL     H2   28  -0.448  -0.013  -0.188
    1UNL     H3   29  -0.502   0.141  -0.143
    1UNL     H4   30  -0.287   0.174   0.004
    1UNL     H5   31  -0.258  -0.142  -0.197
    1UNL     H6   32  -0.330  -0.215  -0.063
    1UNL     H7   33  -0.028  -0.208  -0.279
    1UNL     H8   34   0.069  -0.275  -0.147
    1UNL     H9   35   0.096  -0.026  -0.203
    1UNL    H10   36  -0.057  -0.003  -0.147
    1UNL    H11   37  -0.068  -0.372   0.089
    1UNL    H12   38  -0.103  -0.197   0.255
    1UNL    H13   39  -0.257  -0.224   0.172
    1UNL    H14   40  -0.219   0.019   0.192
    1UNL    H15   41   0.078   0.392  -0.150
    1UNL    H16   42   0.033   0.404   0.036
    1UNL    H17   43  -0.075   0.349  -0.106
    1UNL    H18   44  -0.000   0.015   0.324
    1UNL    H19   45   0.410   0.176   0.248
    1UNL    H20   46   0.557   0.185   0.046
    1UNL    H21   47   0.506   0.021  -0.143
    1UNL    H22   48   0.289  -0.083  -0.155
   0.00000   0.00000   0.00000   0.00000   0.00000   0.00000   0.00000   0.00000   0.00000
Generated with MDTraj, t= 32.0
 48
    1UNL     C1    1  -0.378   0.066  -0.174
    1UNL     C2    2  -0.319   0.068  -0.040
    1UNL     C3    3  -0.254  -0.046   0.004
    1UNL     C4    4  -0.261  -0.176  -0.069
    1UNL     N1    5  -0.132  -0.241  -0.076
    1UNL     C5    6  -0.033  -0.190  -0.176
    1UNL     C6    7   0.020  -0.051  -0.136
    1UNL     C7    8   0.082  -0.054   0.009
    1UNL     C8    9   0.079  -0.205   0.056
    1UNL     O1   10   0.176  -0.264   0.097
    1UNL     C9   11  -0.059  -0.261   0.058
    1UNL    C10   12  -0.134  -0.181   0.169
    1UNL    C11   13  -0.157  -0.042   0.118
    1UNL    C12   14  -0.015   0.033   0.099
    1UNL    C13   15  -0.033   0.174   0.044
    1UNL     O2   16  -0.132   0.229   0.084
    1UNL     O3   17   0.068   0.223  -0.032
    1UNL    C14   18   0.045   0.362  -0.060
    1UNL    C15   19   0.049   0.048   0.237
    1UNL     N2   20   0.174   0.055   0.260
    1UNL    C16   21   0.257   0.055   0.145
    1UNL    C17   22   0.394   0.101   0.163
    1UNL    C18   23   0.477   0.100   0.054
    1UNL    C19   24   0.441   0.032  -0.062
    1UNL    C20   25   0.317  -0.025  -0.078
    1UNL    C21   26   0.224  -0.013   0.030
    1UNL     H1   27  -0.295   0.049  -0.246
    1UNL     H2   28  -0.454  -0.007  -0.189
    1UNL     H3   29  -0.431   0.161  -0.205
    1UNL     H4   30  -0.293   0.155   0.010
    1UNL     H5   31  -0.296  -0.169  -0.172
    1UNL     H6   32  -0.328  -0.237  -0.020
    1UNL     H7   33  -0.082  -0.181  -0.278
    1UNL     H8   34   0.054  -0.251  -0.185
    1UNL     H9   35   0.093  -0.018  -0.209
    1UNL    H10   36  -0.054   0.026  -0.145
    1UNL    H11   37  -0.055  -0.368   0.079
    1UNL    H12   38  -0.068  -0.180   0.252
    1UNL    H13   39  -0.224  -0.238   0.188
    1UNL    H14   40  -0.213   0.025   0.197
    1UNL    H15   41   0.136   0.398  -0.099
    1UNL    H16   42   0.008   0.401   0.042
    1UNL    H17   43  -0.025   0.367  -0.137
    1UNL    H18   44  -0.025   0.053   0.321
    1UNL    H19   45   0.430   0.139   0.255
    1UNL    H20   46   0.575   0.143   0.064
    1UNL    H21   47   0.505   0.053  -0.144
    1UNL    H22   48   0.285  -0.089  -0.161
   0.00000   0.00000   0.00000   0.00000   0.00000   0.00000   0.00000   0.00000   0.00000
Generated with MDTraj, t= 33.0
 48
    1UNL     C1    1  -0.395   0.069  -0.168
    1UNL     C2    2  -0.305   0.060  -0.053
    1UNL     C3    3  -0.245  -0.052   0.000
    1UNL     C4    4  -0.256  -0.182  -0.065
    1UNL     N1    5  -0.125  -0.249  -0.073
    1UNL     C5    6  -0.031  -0.193  -0.175
    1UNL     C6    7   0.015  -0.050  -0.142
    1UNL     C7    8   0.078  -0.051   0.010
    1UNL     C8    9   0.086  -0.195   0.053
    1UNL     O1   10   0.188  -0.260   0.057
    1UNL     C9   11  -0.052  -0.261   0.060
    1UNL    C10   12  -0.121  -0.180   0.176
    1UNL    C11   13  -0.160  -0.042   0.124
    1UNL    C12   14  -0.021   0.039   0.105
    1UNL    C13   15  -0.046   0.182   0.055
    1UNL     O2   16  -0.144   0.244   0.083
    1UNL     O3   17   0.063   0.221  -0.020
    1UNL    C14   18   0.055   0.352  -0.075
    1UNL    C15   19   0.036   0.061   0.239
    1UNL     N2   20   0.163   0.079   0.253
    1UNL    C16   21   0.261   0.052   0.150
    1UNL    C17   22   0.392   0.082   0.174
    1UNL    C18   23   0.483   0.072   0.069
    1UNL    C19   24   0.444   0.016  -0.057
    1UNL    C20   25   0.315  -0.015  -0.077
    1UNL    C21   26   0.218   0.000   0.024
    1UNL     H1   27  -0.352   0.014  -0.251
    1UNL     H2   28  -0.495   0.027  -0.141
    1UNL     H3   29  -0.416   0.175  -0.196
    1UNL     H4   30  -0.282   0.151   0.006
    1UNL     H5   31  -0.302  -0.172  -0.166
    1UNL     H6   32  -0.311  -0.246  -0.011
    1UNL     H7   33  -0.081  -0.194  -0.279
    1UNL     H8   34   0.052  -0.260  -0.174
    1UNL     H9   35   0.097  -0.011  -0.202
    1UNL    H10   36  -0.059   0.026  -0.154
    1UNL    H11   37  -0.052  -0.368   0.081
    1UNL    H12   38  -0.049  -0.169   0.255
    1UNL    H13   39  -0.201  -0.243   0.212
    1UNL    H14   40  -0.225   0.021   0.202
    1UNL    H15   41   0.129   0.353  -0.150
    1UNL    H16   42   0.071   0.419   0.019
    1UNL    H17   43  -0.043   0.363  -0.112
    1UNL    H18   44  -0.035   0.081   0.316
    1UNL    H19   45   0.425   0.101   0.272
    1UNL    H20   46   0.588   0.097   0.083
    1UNL    H21   47   0.523  -0.011  -0.130
    1UNL    H22   48   0.286  -0.048  -0.176
   0.00000   0.00000   0.00000   0.00000   0.00000   0.00000   0.00000   0.00000   0.00000
Generated with MDTraj, t= 34.0
 48
    1UNL     C1    1  -0.437   0.055  -0.154
    1UNL     C2    2  -0.330   0.064  -0.048
    1UNL     C3    3  -0.245  -0.036  -0.009
    1UNL     C4    4  -0.247  -0.166  -0.083
    1UNL     N1    5  -0.114  -0.232  -0.080
    1UNL     C5    6  -0.015  -0.182  -0.185
    1UNL     C6    7   0.035  -0.043  -0.144
    1UNL     C7    8   0.087  -0.054   0.005
    1UNL     C8    9   0.074  -0.203   0.061
    1UNL     O1   10   0.166  -0.268   0.105
    1UNL     C9   11  -0.060  -0.260   0.056
    1UNL    C10   12  -0.134  -0.176   0.171
    1UNL    C11   13  -0.158  -0.030   0.117
    1UNL    C12   14  -0.007   0.034   0.100
    1UNL    C13   15  -0.040   0.179   0.052
    1UNL     O2   16  -0.126   0.243   0.106
    1UNL     O3   17   0.031   0.226  -0.059
    1UNL    C14   18   0.013   0.364  -0.085
    1UNL    C15   19   0.057   0.044   0.235
    1UNL     N2   20   0.182   0.052   0.255
    1UNL    C16   21   0.270   0.047   0.149
    1UNL    C17   22   0.396   0.099   0.171
    1UNL    C18   23   0.493   0.075   0.074
    1UNL    C19   24   0.460   0.012  -0.047
    1UNL    C20   25   0.333  -0.030  -0.069
    1UNL    C21   26   0.231  -0.014   0.025
    1UNL     H1   27  -0.393   0.075  -0.250
    1UNL     H2   28  -0.476  -0.053  -0.161
    1UNL     H3   29  -0.525   0.118  -0.132
    1UNL     H4   30  -0.312   0.154   0.009
    1UNL     H5   31  -0.263  -0.154  -0.193
    1UNL     H6   32  -0.321  -0.229  -0.048
    1UNL     H7   33  -0.068  -0.186  -0.287
    1UNL     H8   34   0.066  -0.251  -0.184
    1UNL     H9   35   0.123  -0.018  -0.202
    1UNL    H10   36  -0.023   0.046  -0.146
    1UNL    H11   37  -0.049  -0.366   0.075
    1UNL    H12   38  -0.071  -0.187   0.259
    1UNL    H13   39  -0.228  -0.221   0.195
    1UNL    H14   40  -0.210   0.030   0.206
    1UNL    H15   41   0.092   0.396  -0.152
    1UNL    H16   42   0.011   0.414   0.021
    1UNL    H17   43  -0.089   0.368  -0.120
    1UNL    H18   44  -0.009   0.061   0.321
    1UNL    H19   45   0.422   0.144   0.274
    1UNL    H20   46   0.599   0.084   0.092
    1UNL    H21   47   0.532  -0.019  -0.119
    1UNL    H22   48   0.317  -0.066  -0.169
   0.00000   0.00000   0.00000   0.00000   0.00000   0.00000   0.00000   0.00000   0.00000
Generated with MDTraj, t= 35.0
 48
    1UNL     C1    1  -0.422   0.104  -0.118
    1UNL     C2    2  -0.325   0.071  -0.009
    1UNL     C3    3  -0.244  -0.036   0.001
    1UNL     C4    4  -0.232  -0.139  -0.106
    1UNL     N1    5  -0.113  -0.236  -0.093
    1UNL     C5    6   0.002  -0.192  -0.183
    1UNL     C6    7   0.040  -0.054  -0.138
    1UNL     C7    8   0.087  -0.059   0.011
    1UNL     C8    9   0.080  -0.207   0.061
    1UNL     O1   10   0.167  -0.277   0.099
    1UNL     C9   11  -0.059  -0.269   0.048
    1UNL    C10   12  -0.136  -0.194   0.159
    1UNL    C11   13  -0.157  -0.045   0.121
    1UNL    C12   14  -0.014   0.026   0.102
    1UNL    C13   15  -0.032   0.172   0.036
    1UNL     O2   16  -0.105   0.235   0.105
    1UNL     O3   17   0.029   0.209  -0.078
    1UNL    C14   18  -0.014   0.335  -0.118
    1UNL    C15   19   0.052   0.046   0.237
    1UNL     N2   20   0.171   0.075   0.260
    1UNL    C16   21   0.255   0.068   0.143
    1UNL    C17   22   0.391   0.108   0.176
    1UNL    C18   23   0.486   0.076   0.082
    1UNL    C19   24   0.458   0.010  -0.033
    1UNL    C20   25   0.323  -0.021  -0.064
    1UNL    C21   26   0.225  -0.001   0.028
    1UNL     H1   27  -0.379   0.164  -0.196
    1UNL     H2   28  -0.454   0.011  -0.178
    1UNL     H3   29  -0.521   0.140  -0.083
    1UNL     H4   30  -0.314   0.136   0.076
    1UNL     H5   31  -0.229  -0.098  -0.208
    1UNL     H6   32  -0.317  -0.207  -0.103
    1UNL     H7   33  -0.044  -0.188  -0.289
    1UNL     H8   34   0.078  -0.267  -0.175
    1UNL     H9   35   0.117  -0.000  -0.193
    1UNL    H10   36  -0.040   0.016  -0.142
    1UNL    H11   37  -0.073  -0.376   0.050
    1UNL    H12   38  -0.083  -0.210   0.253
    1UNL    H13   39  -0.233  -0.239   0.171
    1UNL    H14   40  -0.202   0.004   0.218
    1UNL    H15   41   0.050   0.366  -0.202
    1UNL    H16   42   0.001   0.405  -0.024
    1UNL    H17   43  -0.123   0.324  -0.125
    1UNL    H18   44  -0.015   0.038   0.321
    1UNL    H19   45   0.410   0.155   0.264
    1UNL    H20   46   0.588   0.090   0.115
    1UNL    H21   47   0.532   0.000  -0.113
    1UNL    H22   48   0.306  -0.087  -0.148
   0.00000   0.00000   0.00000   0.00000   0.00000   0.00000   0.00000   0.00000   0.00000
Generated with MDTraj, t= 36.0
 48
    1UNL     C1    1  -0.403   0.105  -0.129
    1UNL     C2    2  -0.313   0.080  -0.015
    1UNL     C3    3  -0.244  -0.034   0.009
    1UNL     C4    4  -0.257  -0.151  -0.082
    1UNL     N1    5  -0.129  -0.224  -0.089
    1UNL     C5    6  -0.022  -0.171  -0.189
    1UNL     C6    7   0.051  -0.054  -0.130
    1UNL     C7    8   0.093  -0.056   0.014
    1UNL     C8    9   0.084  -0.210   0.046
    1UNL     O1   10   0.180  -0.284   0.056
    1UNL     C9   11  -0.063  -0.261   0.041
    1UNL    C10   12  -0.132  -0.193   0.160
    1UNL    C11   13  -0.152  -0.047   0.122
    1UNL    C12   14  -0.010   0.026   0.100
    1UNL    C13   15  -0.038   0.163   0.038
    1UNL     O2   16  -0.121   0.231   0.097
    1UNL     O3   17   0.033   0.197  -0.078
    1UNL    C14   18  -0.015   0.318  -0.130
    1UNL    C15   19   0.047   0.054   0.243
    1UNL     N2   20   0.167   0.074   0.273
    1UNL    C16   21   0.261   0.061   0.166
    1UNL    C17   22   0.387   0.119   0.172
    1UNL    C18   23   0.487   0.095   0.076
    1UNL    C19   24   0.462   0.016  -0.030
    1UNL    C20   25   0.333  -0.042  -0.040
    1UNL    C21   26   0.234  -0.006   0.042
    1UNL     H1   27  -0.348   0.096  -0.226
    1UNL     H2   28  -0.481   0.024  -0.131
    1UNL     H3   29  -0.466   0.196  -0.126
    1UNL     H4   30  -0.307   0.155   0.066
    1UNL     H5   31  -0.274  -0.119  -0.183
    1UNL     H6   32  -0.342  -0.226  -0.051
    1UNL     H7   33  -0.081  -0.146  -0.285
    1UNL     H8   34   0.048  -0.253  -0.199
    1UNL     H9   35   0.139  -0.028  -0.188
    1UNL    H10   36  -0.024   0.025  -0.139
    1UNL    H11   37  -0.066  -0.367   0.047
    1UNL    H12   38  -0.070  -0.212   0.248
    1UNL    H13   39  -0.228  -0.239   0.175
    1UNL    H14   40  -0.201   0.012   0.211
    1UNL    H15   41   0.005   0.325  -0.237
    1UNL    H16   42   0.046   0.401  -0.078
    1UNL    H17   43  -0.116   0.325  -0.089
    1UNL    H18   44  -0.021   0.066   0.328
    1UNL    H19   45   0.416   0.170   0.268
    1UNL    H20   46   0.568   0.167   0.070
    1UNL    H21   47   0.541  -0.007  -0.102
    1UNL    H22   48   0.310  -0.110  -0.121
   0.00000   0.00000   0.00000   0.00000   0.00000   0.00000   0.00000   0.00000   0.00000
Generated with MDTraj, t= 37.0
 48
    1UNL     C1    1  -0.415   0.075  -0.155
    1UNL     C2    2  -0.319   0.072  -0.045
    1UNL     C3    3  -0.249  -0.040  -0.014
    1UNL     C4    4  -0.254  -0.166  -0.089
    1UNL     N1    5  -0.125  -0.247  -0.080
    1UNL     C5    6  -0.020  -0.196  -0.178
    1UNL     C6    7   0.037  -0.058  -0.139
    1UNL     C7    8   0.081  -0.055   0.006
    1UNL     C8    9   0.082  -0.194   0.052
    1UNL     O1   10   0.182  -0.255   0.088
    1UNL     C9   11  -0.063  -0.260   0.055
    1UNL    C10   12  -0.145  -0.186   0.161
    1UNL    C11   13  -0.160  -0.038   0.114
    1UNL    C12   14  -0.018   0.031   0.096
    1UNL    C13   15  -0.035   0.174   0.054
    1UNL     O2   16  -0.112   0.241   0.121
    1UNL     O3   17   0.037   0.214  -0.056
    1UNL    C14   18   0.016   0.349  -0.081
    1UNL    C15   19   0.054   0.041   0.234
    1UNL     N2   20   0.175   0.066   0.262
    1UNL    C16   21   0.266   0.057   0.154
    1UNL    C17   22   0.392   0.103   0.167
    1UNL    C18   23   0.490   0.089   0.066
    1UNL    C19   24   0.456   0.016  -0.045
    1UNL    C20   25   0.327  -0.031  -0.061
    1UNL    C21   26   0.229  -0.005   0.032
    1UNL     H1   27  -0.374   0.018  -0.244
    1UNL     H2   28  -0.502   0.027  -0.118
    1UNL     H3   29  -0.450   0.179  -0.179
    1UNL     H4   30  -0.319   0.148   0.026
    1UNL     H5   31  -0.285  -0.155  -0.190
    1UNL     H6   32  -0.337  -0.229  -0.031
    1UNL     H7   33  -0.071  -0.190  -0.279
    1UNL     H8   34   0.054  -0.278  -0.168
    1UNL     H9   35   0.119  -0.050  -0.209
    1UNL    H10   36  -0.036   0.024  -0.150
    1UNL    H11   37  -0.059  -0.364   0.082
    1UNL    H12   38  -0.090  -0.196   0.255
    1UNL    H13   39  -0.241  -0.234   0.172
    1UNL    H14   40  -0.206   0.033   0.190
    1UNL    H15   41   0.107   0.396  -0.117
    1UNL    H16   42  -0.004   0.395   0.021
    1UNL    H17   43  -0.072   0.359  -0.140
    1UNL    H18   44  -0.007   0.073   0.317
    1UNL    H19   45   0.412   0.179   0.243
    1UNL    H20   46   0.593   0.120   0.086
    1UNL    H21   47   0.516   0.010  -0.132
    1UNL    H22   48   0.313  -0.100  -0.145
   0.00000   0.00000   0.00000   0.00000   0.00000   0.00000   0.00000   0.00000   0.00000
Generated with MDTraj, t= 38.0
 48
    1UNL     C1    1  -0.387   0.056  -0.181
    1UNL     C2    2  -0.316   0.053  -0.052
    1UNL     C3    3  -0.243  -0.050  -0.003
    1UNL     C4    4  -0.245  -0.180  -0.085
    1UNL     N1    5  -0.114  -0.252  -0.082
    1UNL     C5    6  -0.017  -0.198  -0.183
    1UNL     C6    7   0.020  -0.057  -0.136
    1UNL     C7    8   0.071  -0.050   0.010
    1UNL     C8    9   0.069  -0.195   0.064
    1UNL     O1   10   0.167  -0.240   0.110
    1UNL     C9   11  -0.066  -0.263   0.063
    1UNL    C10   12  -0.147  -0.193   0.170
    1UNL    C11   13  -0.159  -0.040   0.127
    1UNL    C12   14  -0.021   0.036   0.104
    1UNL    C13   15  -0.035   0.182   0.057
    1UNL     O2   16  -0.125   0.251   0.106
    1UNL     O3   17   0.055   0.230  -0.040
    1UNL    C14   18   0.056   0.364  -0.050
    1UNL    C15   19   0.057   0.053   0.237
    1UNL     N2   20   0.180   0.063   0.260
    1UNL    C16   21   0.260   0.044   0.144
    1UNL    C17   22   0.395   0.082   0.161
    1UNL    C18   23   0.480   0.074   0.052
    1UNL    C19   24   0.440   0.034  -0.073
    1UNL    C20   25   0.309  -0.009  -0.086
    1UNL    C21   26   0.213   0.001   0.022
    1UNL     H1   27  -0.314   0.071  -0.269
    1UNL     H2   28  -0.435  -0.036  -0.198
    1UNL     H3   29  -0.476   0.126  -0.183
    1UNL     H4   30  -0.324   0.147   0.007
    1UNL     H5   31  -0.273  -0.159  -0.188
    1UNL     H6   32  -0.323  -0.254  -0.041
    1UNL     H7   33  -0.064  -0.214  -0.284
    1UNL     H8   34   0.071  -0.264  -0.171
    1UNL     H9   35   0.086  -0.007  -0.204
    1UNL    H10   36  -0.074   0.001  -0.147
    1UNL    H11   37  -0.058  -0.369   0.079
    1UNL    H12   38  -0.091  -0.217   0.261
    1UNL    H13   39  -0.247  -0.234   0.179
    1UNL    H14   40  -0.222   0.022   0.195
    1UNL    H15   41   0.148   0.398  -0.005
    1UNL    H16   42  -0.018   0.411   0.018
    1UNL    H17   43   0.039   0.394  -0.150
    1UNL    H18   44  -0.001   0.061   0.329
    1UNL    H19   45   0.423   0.121   0.252
    1UNL    H20   46   0.583   0.102   0.071
    1UNL    H21   47   0.514   0.010  -0.152
    1UNL    H22   48   0.271  -0.044  -0.175
   0.00000   0.00000   0.00000   0.00000   0.00000   0.00000   0.00000   0.00000   0.00000
Generated with MDTraj, t= 39.0
 48
    1UNL     C1    1  -0.383   0.068  -0.181
    1UNL     C2    2  -0.300   0.064  -0.057
    1UNL     C3    3  -0.243  -0.041  -0.000
    1UNL     C4    4  -0.260  -0.177  -0.056
    1UNL     N1    5  -0.122  -0.250  -0.068
    1UNL     C5    6  -0.040  -0.200  -0.175
    1UNL     C6    7   0.022  -0.063  -0.142
    1UNL     C7    8   0.074  -0.050   0.009
    1UNL     C8    9   0.075  -0.199   0.054
    1UNL     O1   10   0.168  -0.274   0.066
    1UNL     C9   11  -0.061  -0.262   0.071
    1UNL    C10   12  -0.140  -0.183   0.176
    1UNL    C11   13  -0.154  -0.033   0.127
    1UNL    C12   14  -0.018   0.031   0.108
    1UNL    C13   15  -0.030   0.175   0.049
    1UNL     O2   16  -0.138   0.231   0.067
    1UNL     O3   17   0.076   0.233  -0.019
    1UNL    C14   18   0.047   0.362  -0.050
    1UNL    C15   19   0.055   0.044   0.237
    1UNL     N2   20   0.180   0.047   0.259
    1UNL    C16   21   0.258   0.051   0.144
    1UNL    C17   22   0.382   0.107   0.163
    1UNL    C18   23   0.475   0.101   0.064
    1UNL    C19   24   0.444   0.039  -0.060
    1UNL    C20   25   0.318  -0.009  -0.081
    1UNL    C21   26   0.220  -0.005   0.021
    1UNL     H1   27  -0.339   0.013  -0.268
    1UNL     H2   28  -0.477   0.017  -0.166
    1UNL     H3   29  -0.419   0.171  -0.211
    1UNL     H4   30  -0.290   0.154  -0.006
    1UNL     H5   31  -0.303  -0.167  -0.162
    1UNL     H6   32  -0.334  -0.241  -0.001
    1UNL     H7   33  -0.103  -0.212  -0.264
    1UNL     H8   34   0.043  -0.276  -0.190
    1UNL     H9   35   0.099  -0.030  -0.211
    1UNL    H10   36  -0.053   0.016  -0.162
    1UNL    H11   37  -0.056  -0.370   0.087
    1UNL    H12   38  -0.084  -0.182   0.270
    1UNL    H13   39  -0.232  -0.237   0.201
    1UNL    H14   40  -0.211   0.023   0.198
    1UNL    H15   41   0.015   0.413   0.040
    1UNL    H16   42  -0.048   0.373  -0.107
    1UNL    H17   43   0.120   0.412  -0.111
    1UNL    H18   44  -0.002   0.035   0.330
    1UNL    H19   45   0.405   0.145   0.269
    1UNL    H20   46   0.573   0.142   0.080
    1UNL    H21   47   0.527   0.025  -0.122
    1UNL    H22   48   0.289  -0.066  -0.175
   0.00000   0.00000   0.00000   0.00000   0.00000   0.00000   0.00000   0.00000   0.00000
Generated with MDTraj, t= 40.0
 48
    1UNL     C1    1  -0.404   0.074  -0.159
    1UNL     C2    2  -0.308   0.065  -0.047
    1UNL     C3    3  -0.241  -0.042  -0.010
    1UNL     C4    4  -0.260  -0.172  -0.071
    1UNL     N1    5  -0.118  -0.240  -0.077
    1UNL     C5    6  -0.034  -0.178  -0.181
    1UNL     C6    7   0.033  -0.047  -0.139
    1UNL     C7    8   0.080  -0.061   0.015
    1UNL     C8    9   0.077  -0.212   0.057
    1UNL     O1   10   0.176  -0.279   0.084
    1UNL     C9   11  -0.064  -0.264   0.060
    1UNL    C10   12  -0.140  -0.183   0.169
    1UNL    C11   13  -0.159  -0.040   0.117
    1UNL    C12   14  -0.019   0.025   0.105
    1UNL    C13   15  -0.029   0.167   0.051
    1UNL     O2   16  -0.121   0.238   0.090
    1UNL     O3   17   0.068   0.206  -0.036
    1UNL    C14   18   0.061   0.337  -0.062
    1UNL    C15   19   0.044   0.039   0.240
    1UNL     N2   20   0.168   0.062   0.261
    1UNL    C16   21   0.253   0.070   0.148
    1UNL    C17   22   0.382   0.124   0.155
    1UNL    C18   23   0.474   0.113   0.052
    1UNL    C19   24   0.440   0.032  -0.060
    1UNL    C20   25   0.314  -0.021  -0.073
    1UNL    C21   26   0.222  -0.007   0.031
    1UNL     H1   27  -0.359   0.098  -0.256
    1UNL     H2   28  -0.454  -0.025  -0.176
    1UNL     H3   29  -0.486   0.144  -0.127
    1UNL     H4   30  -0.291   0.159   0.007
    1UNL     H5   31  -0.301  -0.163  -0.182
    1UNL     H6   32  -0.329  -0.234  -0.011
    1UNL     H7   33  -0.079  -0.173  -0.281
    1UNL     H8   34   0.042  -0.264  -0.187
    1UNL     H9   35   0.110  -0.016  -0.210
    1UNL    H10   36  -0.031   0.042  -0.140
    1UNL    H11   37  -0.065  -0.369   0.093
    1UNL    H12   38  -0.084  -0.182   0.262
    1UNL    H13   39  -0.235  -0.230   0.195
    1UNL    H14   40  -0.222   0.014   0.182
    1UNL    H15   41  -0.044   0.372  -0.053
    1UNL    H16   42   0.086   0.359  -0.168
    1UNL    H17   43   0.132   0.390  -0.001
    1UNL    H18   44  -0.020   0.065   0.323
    1UNL    H19   45   0.414   0.170   0.241
    1UNL    H20   46   0.578   0.146   0.062
    1UNL    H21   47   0.517   0.022  -0.143
    1UNL    H22   48   0.302  -0.096  -0.147
   0.00000   0.00000   0.00000   0.00000   0.00000   0.00000   0.00000   0.00000   0.00000
Generated with MDTraj, t= 41.0
 48
    1UNL     C1    1  -0.411   0.101  -0.122
    1UNL     C2    2  -0.337   0.058  -0.006
    1UNL     C3    3  -0.251  -0.042  -0.006
    1UNL     C4    4  -0.239  -0.157  -0.104
    1UNL     N1    5  -0.110  -0.236  -0.091
    1UNL     C5    6  -0.007  -0.198  -0.181
    1UNL     C6    7   0.053  -0.067  -0.136
    1UNL     C7    8   0.090  -0.066   0.014
    1UNL     C8    9   0.078  -0.213   0.062
    1UNL     O1   10   0.169  -0.274   0.112
    1UNL     C9   11  -0.063  -0.260   0.050
    1UNL    C10   12  -0.144  -0.188   0.159
    1UNL    C11   13  -0.156  -0.041   0.117
    1UNL    C12   14  -0.018   0.030   0.097
    1UNL    C13   15  -0.034   0.169   0.046
    1UNL     O2   16  -0.101   0.245   0.112
    1UNL     O3   17   0.039   0.204  -0.065
    1UNL    C14   18   0.036   0.340  -0.086
    1UNL    C15   19   0.038   0.042   0.233
    1UNL     N2   20   0.160   0.073   0.251
    1UNL    C16   21   0.255   0.065   0.144
    1UNL    C17   22   0.382   0.125   0.156
    1UNL    C18   23   0.473   0.099   0.061
    1UNL    C19   24   0.446   0.030  -0.058
    1UNL    C20   25   0.323  -0.033  -0.070
    1UNL    C21   26   0.229  -0.011   0.031
    1UNL     H1   27  -0.349   0.147  -0.197
    1UNL     H2   28  -0.462   0.010  -0.172
    1UNL     H3   29  -0.491   0.171  -0.087
    1UNL     H4   30  -0.324   0.132   0.071
    1UNL     H5   31  -0.233  -0.108  -0.211
    1UNL     H6   32  -0.326  -0.225  -0.100
    1UNL     H7   33  -0.046  -0.200  -0.282
    1UNL     H8   34   0.086  -0.268  -0.181
    1UNL     H9   35   0.139  -0.033  -0.195
    1UNL    H10   36  -0.022   0.012  -0.153
    1UNL    H11   37  -0.072  -0.368   0.073
    1UNL    H12   38  -0.091  -0.195   0.253
    1UNL    H13   39  -0.246  -0.227   0.177
    1UNL    H14   40  -0.207   0.010   0.191
    1UNL    H15   41  -0.003   0.369  -0.187
    1UNL    H16   42   0.139   0.384  -0.085
    1UNL    H17   43  -0.029   0.383  -0.010
    1UNL    H18   44  -0.032   0.040   0.317
    1UNL    H19   45   0.404   0.173   0.253
    1UNL    H20   46   0.563   0.156   0.067
    1UNL    H21   47   0.518   0.007  -0.126
    1UNL    H22   48   0.295  -0.075  -0.162
   0.00000   0.00000   0.00000   0.00000   0.00000   0.00000   0.00000   0.00000   0.00000
Generated with MDTraj, t= 42.0
 48
    1UNL     C1    1  -0.423   0.078  -0.123
    1UNL     C2    2  -0.321   0.075  -0.024
    1UNL     C3    3  -0.236  -0.023  -0.006
    1UNL     C4    4  -0.247  -0.147  -0.089
    1UNL     N1    5  -0.117  -0.224  -0.085
    1UNL     C5    6  -0.022  -0.179  -0.188
    1UNL     C6    7   0.054  -0.052  -0.142
    1UNL     C7    8   0.091  -0.058   0.014
    1UNL     C8    9   0.077  -0.211   0.047
    1UNL     O1   10   0.167  -0.281   0.074
    1UNL     C9   11  -0.066  -0.257   0.054
    1UNL    C10   12  -0.142  -0.183   0.162
    1UNL    C11   13  -0.153  -0.036   0.123
    1UNL    C12   14  -0.007   0.033   0.109
    1UNL    C13   15  -0.034   0.171   0.046
    1UNL     O2   16  -0.115   0.242   0.100
    1UNL     O3   17   0.027   0.197  -0.068
    1UNL    C14   18  -0.027   0.319  -0.124
    1UNL    C15   19   0.057   0.046   0.247
    1UNL     N2   20   0.180   0.068   0.266
    1UNL    C16   21   0.263   0.059   0.152
    1UNL    C17   22   0.393   0.110   0.174
    1UNL    C18   23   0.490   0.095   0.075
    1UNL    C19   24   0.466   0.014  -0.032
    1UNL    C20   25   0.336  -0.035  -0.059
    1UNL    C21   26   0.236  -0.016   0.035
    1UNL     H1   27  -0.385   0.067  -0.224
    1UNL     H2   28  -0.494  -0.010  -0.105
    1UNL     H3   29  -0.483   0.172  -0.111
    1UNL     H4   30  -0.315   0.163   0.037
    1UNL     H5   31  -0.290  -0.129  -0.193
    1UNL     H6   32  -0.318  -0.213  -0.032
    1UNL     H7   33  -0.061  -0.154  -0.286
    1UNL     H8   34   0.058  -0.261  -0.210
    1UNL     H9   35   0.142  -0.031  -0.207
    1UNL    H10   36  -0.019   0.028  -0.155
    1UNL    H11   37  -0.073  -0.368   0.064
    1UNL    H12   38  -0.083  -0.182   0.253
    1UNL    H13   39  -0.242  -0.230   0.179
    1UNL    H14   40  -0.205   0.015   0.194
    1UNL    H15   41   0.039   0.398  -0.173
    1UNL    H16   42  -0.069   0.387  -0.046
    1UNL    H17   43  -0.109   0.285  -0.190
    1UNL    H18   44  -0.009   0.038   0.330
    1UNL    H19   45   0.409   0.179   0.260
    1UNL    H20   46   0.594   0.125   0.085
    1UNL    H21   47   0.542   0.021  -0.115
    1UNL    H22   48   0.326  -0.094  -0.154
   0.00000   0.00000   0.00000   0.00000   0.00000   0.00000   0.00000   0.00000   0.00000
Generated with MDTraj, t= 43.0
 48
    1UNL     C1    1  -0.403   0.082  -0.139
    1UNL     C2    2  -0.312   0.068  -0.018
    1UNL     C3    3  -0.237  -0.035   0.011
    1UNL     C4    4  -0.240  -0.163  -0.068
    1UNL     N1    5  -0.115  -0.241  -0.083
    1UNL     C5    6  -0.031  -0.177  -0.189
    1UNL     C6    7   0.031  -0.041  -0.144
    1UNL     C7    8   0.077  -0.044   0.004
    1UNL     C8    9   0.080  -0.193   0.042
    1UNL     O1   10   0.184  -0.252   0.067
    1UNL     C9   11  -0.055  -0.262   0.049
    1UNL    C10   12  -0.131  -0.195   0.167
    1UNL    C11   13  -0.150  -0.042   0.134
    1UNL    C12   14  -0.013   0.044   0.107
    1UNL    C13   15  -0.044   0.176   0.045
    1UNL     O2   16  -0.126   0.252   0.089
    1UNL     O3   17   0.025   0.206  -0.071
    1UNL    C14   18  -0.030   0.323  -0.126
    1UNL    C15   19   0.055   0.056   0.237
    1UNL     N2   20   0.179   0.072   0.263
    1UNL    C16   21   0.267   0.057   0.158
    1UNL    C17   22   0.401   0.080   0.185
    1UNL    C18   23   0.497   0.049   0.090
    1UNL    C19   24   0.458   0.003  -0.032
    1UNL    C20   25   0.325  -0.027  -0.059
    1UNL    C21   26   0.225   0.009   0.026
    1UNL     H1   27  -0.356   0.046  -0.233
    1UNL     H2   28  -0.487   0.014  -0.124
    1UNL     H3   29  -0.445   0.186  -0.149
    1UNL     H4   30  -0.307   0.158   0.044
    1UNL     H5   31  -0.255  -0.138  -0.171
    1UNL     H6   32  -0.330  -0.225  -0.031
    1UNL     H7   33  -0.079  -0.167  -0.286
    1UNL     H8   34   0.062  -0.244  -0.215
    1UNL     H9   35   0.114  -0.005  -0.210
    1UNL    H10   36  -0.050   0.033  -0.150
    1UNL    H11   37  -0.025  -0.370   0.063
    1UNL    H12   38  -0.066  -0.195   0.255
    1UNL    H13   39  -0.228  -0.249   0.184
    1UNL    H14   40  -0.203  -0.009   0.216
    1UNL    H15   41   0.017   0.418  -0.092
    1UNL    H16   42  -0.137   0.338  -0.104
    1UNL    H17   43  -0.019   0.311  -0.236
    1UNL    H18   44  -0.017   0.078   0.319
    1UNL    H19   45   0.432   0.096   0.281
    1UNL    H20   46   0.598   0.075   0.113
    1UNL    H21   47   0.526  -0.030  -0.111
    1UNL    H22   48   0.302  -0.068  -0.151
   0.00000   0.00000   0.00000   0.00000   0.00000   0.00000   0.00000   0.00000   0.00000
Generated with MDTraj, t= 44.0
 48
    1UNL     C1    1  -0.401   0.071  -0.155
    1UNL     C2    2  -0.321   0.049  -0.032
    1UNL     C3    3  -0.245  -0.051  -0.003
    1UNL     C4    4  -0.246  -0.174  -0.084
    1UNL     N1    5  -0.113  -0.247  -0.076
    1UNL     C5    6  -0.022  -0.201  -0.176
    1UNL     C6    7   0.024  -0.059  -0.145
    1UNL     C7    8   0.082  -0.044   0.009
    1UNL     C8    9   0.085  -0.185   0.060
    1UNL     O1   10   0.185  -0.246   0.094
    1UNL     C9   11  -0.049  -0.253   0.063
    1UNL    C10   12  -0.138  -0.182   0.169
    1UNL    C11   13  -0.158  -0.041   0.123
    1UNL    C12   14  -0.015   0.041   0.096
    1UNL    C13   15  -0.048   0.185   0.043
    1UNL     O2   16  -0.119   0.254   0.111
    1UNL     O3   17   0.013   0.225  -0.069
    1UNL    C14   18  -0.000   0.370  -0.078
    1UNL    C15   19   0.054   0.063   0.229
    1UNL     N2   20   0.178   0.079   0.251
    1UNL    C16   21   0.267   0.046   0.148
    1UNL    C17   22   0.404   0.059   0.177
    1UNL    C18   23   0.493   0.044   0.073
    1UNL    C19   24   0.458   0.005  -0.051
    1UNL    C20   25   0.324  -0.022  -0.073
    1UNL    C21   26   0.225   0.008   0.023
    1UNL     H1   27  -0.349   0.121  -0.245
    1UNL     H2   28  -0.434  -0.024  -0.189
    1UNL     H3   29  -0.497   0.126  -0.135
    1UNL     H4   30  -0.323   0.130   0.033
    1UNL     H5   31  -0.276  -0.152  -0.181
    1UNL     H6   32  -0.317  -0.255  -0.040
    1UNL     H7   33  -0.066  -0.211  -0.277
    1UNL     H8   34   0.066  -0.274  -0.190
    1UNL     H9   35   0.095  -0.024  -0.224
    1UNL    H10   36  -0.060   0.011  -0.162
    1UNL    H11   37  -0.036  -0.360   0.095
    1UNL    H12   38  -0.097  -0.186   0.272
    1UNL    H13   39  -0.241  -0.224   0.172
    1UNL    H14   40  -0.209   0.011   0.198
    1UNL    H15   41  -0.053   0.413   0.006
    1UNL    H16   42  -0.062   0.389  -0.163
    1UNL    H17   43   0.093   0.429  -0.083
    1UNL    H18   44  -0.012   0.090   0.307
    1UNL    H19   45   0.445   0.087   0.281
    1UNL    H20   46   0.599   0.052   0.092
    1UNL    H21   47   0.527  -0.007  -0.127
    1UNL    H22   48   0.295  -0.078  -0.164
   0.00000   0.00000   0.00000   0.00000   0.00000   0.00000   0.00000   0.00000   0.00000
Generated with MDTraj, t= 45.0
 48
    1UNL     C1    1  -0.415   0.055  -0.164
    1UNL     C2    2  -0.320   0.062  -0.054
    1UNL     C3    3  -0.248  -0.040  -0.017
    1UNL     C4    4  -0.251  -0.178  -0.081
    1UNL     N1    5  -0.120  -0.244  -0.074
    1UNL     C5    6  -0.027  -0.188  -0.171
    1UNL     C6    7   0.033  -0.054  -0.127
    1UNL     C7    8   0.083  -0.058   0.015
    1UNL     C8    9   0.073  -0.200   0.071
    1UNL     O1   10   0.175  -0.252   0.098
    1UNL     C9   11  -0.061  -0.254   0.067
    1UNL    C10   12  -0.144  -0.170   0.167
    1UNL    C11   13  -0.158  -0.028   0.110
    1UNL    C12   14  -0.012   0.037   0.104
    1UNL    C13   15  -0.032   0.179   0.052
    1UNL     O2   16  -0.124   0.240   0.101
    1UNL     O3   17   0.058   0.228  -0.038
    1UNL    C14   18   0.016   0.356  -0.066
    1UNL    C15   19   0.058   0.039   0.235
    1UNL     N2   20   0.182   0.059   0.262
    1UNL    C16   21   0.265   0.053   0.148
    1UNL    C17   22   0.396   0.098   0.150
    1UNL    C18   23   0.483   0.088   0.045
    1UNL    C19   24   0.449   0.015  -0.066
    1UNL    C20   25   0.324  -0.034  -0.073
    1UNL    C21   26   0.227  -0.008   0.027
    1UNL     H1   27  -0.369   0.026  -0.266
    1UNL     H2   28  -0.475  -0.029  -0.135
    1UNL     H3   29  -0.482   0.142  -0.185
    1UNL     H4   30  -0.320   0.160   0.002
    1UNL     H5   31  -0.270  -0.177  -0.183
    1UNL     H6   32  -0.340  -0.234  -0.035
    1UNL     H7   33  -0.075  -0.193  -0.272
    1UNL     H8   34   0.057  -0.262  -0.186
    1UNL     H9   35   0.125  -0.037  -0.186
    1UNL    H10   36  -0.028   0.036  -0.147
    1UNL    H11   37  -0.063  -0.365   0.089
    1UNL    H12   38  -0.103  -0.165   0.271
    1UNL    H13   39  -0.245  -0.212   0.184
    1UNL    H14   40  -0.216   0.033   0.178
    1UNL    H15   41  -0.092   0.356  -0.074
    1UNL    H16   42   0.056   0.364  -0.167
    1UNL    H17   43   0.044   0.431   0.009
    1UNL    H18   44  -0.008   0.022   0.324
    1UNL    H19   45   0.424   0.154   0.233
    1UNL    H20   46   0.586   0.123   0.056
    1UNL    H21   47   0.532   0.006  -0.144
    1UNL    H22   48   0.293  -0.103  -0.146
   0.00000   0.00000   0.00000   0.00000   0.00000   0.00000   0.00000   0.00000   0.00000
Generated with MDTraj, t= 46.0
 48
    1UNL     C1    1  -0.387   0.105  -0.146
    1UNL     C2    2  -0.306   0.066  -0.026
    1UNL     C3    3  -0.243  -0.043   0.002
    1UNL     C4    4  -0.258  -0.169  -0.073
    1UNL     N1    5  -0.130  -0.246  -0.071
    1UNL     C5    6  -0.034  -0.194  -0.172
    1UNL     C6    7   0.031  -0.061  -0.132
    1UNL     C7    8   0.081  -0.067   0.017
    1UNL     C8    9   0.075  -0.214   0.060
    1UNL     O1   10   0.172  -0.280   0.078
    1UNL     C9   11  -0.066  -0.268   0.060
    1UNL    C10   12  -0.135  -0.195   0.177
    1UNL    C11   13  -0.157  -0.050   0.128
    1UNL    C12   14  -0.016   0.016   0.101
    1UNL    C13   15  -0.028   0.162   0.037
    1UNL     O2   16  -0.119   0.236   0.067
    1UNL     O3   17   0.074   0.193  -0.049
    1UNL    C14   18   0.074   0.339  -0.071
    1UNL    C15   19   0.043   0.041   0.236
    1UNL     N2   20   0.163   0.084   0.258
    1UNL    C16   21   0.248   0.074   0.147
    1UNL    C17   22   0.370   0.138   0.146
    1UNL    C18   23   0.468   0.115   0.053
    1UNL    C19   24   0.433   0.047  -0.066
    1UNL    C20   25   0.319  -0.020  -0.066
    1UNL    C21   26   0.219  -0.008   0.034
    1UNL     H1   27  -0.334   0.081  -0.242
    1UNL     H2   28  -0.471   0.035  -0.132
    1UNL     H3   29  -0.417   0.213  -0.148
    1UNL     H4   30  -0.301   0.144   0.043
    1UNL     H5   31  -0.303  -0.148  -0.167
    1UNL     H6   32  -0.331  -0.234  -0.020
    1UNL     H7   33  -0.093  -0.178  -0.268
    1UNL     H8   34   0.033  -0.279  -0.193
    1UNL     H9   35   0.117  -0.041  -0.197
    1UNL    H10   36  -0.045   0.018  -0.152
    1UNL    H11   37  -0.050  -0.378   0.079
    1UNL    H12   38  -0.074  -0.196   0.273
    1UNL    H13   39  -0.226  -0.247   0.212
    1UNL    H14   40  -0.206   0.008   0.212
    1UNL    H15   41   0.098   0.344  -0.179
    1UNL    H16   42   0.155   0.397  -0.027
    1UNL    H17   43  -0.029   0.378  -0.053
    1UNL    H18   44  -0.022   0.054   0.319
    1UNL    H19   45   0.395   0.196   0.233
    1UNL    H20   46   0.556   0.175   0.052
    1UNL    H21   47   0.507   0.034  -0.137
    1UNL    H22   48   0.305  -0.087  -0.151
   0.00000   0.00000   0.00000   0.00000   0.00000   0.00000   0.00000   0.00000   0.00000
Generated with MDTraj, t= 47.0
 48
    1UNL     C1    1  -0.408   0.087  -0.144
    1UNL     C2    2  -0.313   0.067  -0.031
    1UNL     C3    3  -0.245  -0.038   0.007
    1UNL     C4    4  -0.243  -0.159  -0.082
    1UNL     N1    5  -0.128  -0.240  -0.075
    1UNL     C5    6  -0.022  -0.193  -0.178
    1UNL     C6    7   0.043  -0.061  -0.134
    1UNL     C7    8   0.083  -0.072   0.015
    1UNL     C8    9   0.073  -0.215   0.060
    1UNL     O1   10   0.159  -0.297   0.095
    1UNL     C9   11  -0.071  -0.263   0.062
    1UNL    C10   12  -0.146  -0.185   0.173
    1UNL    C11   13  -0.159  -0.039   0.129
    1UNL    C12   14  -0.015   0.022   0.107
    1UNL    C13   15  -0.023   0.167   0.043
    1UNL     O2   16  -0.098   0.246   0.098
    1UNL     O3   17   0.058   0.192  -0.062
    1UNL    C14   18   0.064   0.335  -0.095
    1UNL    C15   19   0.056   0.035   0.241
    1UNL     N2   20   0.177   0.063   0.259
    1UNL    C16   21   0.251   0.066   0.142
    1UNL    C17   22   0.372   0.138   0.151
    1UNL    C18   23   0.452   0.136   0.046
    1UNL    C19   24   0.438   0.048  -0.057
    1UNL    C20   25   0.319  -0.021  -0.071
    1UNL    C21   26   0.222  -0.013   0.032
    1UNL     H1   27  -0.365   0.140  -0.229
    1UNL     H2   28  -0.437  -0.022  -0.164
    1UNL     H3   29  -0.503   0.141  -0.119
    1UNL     H4   30  -0.290   0.160   0.027
    1UNL     H5   31  -0.256  -0.126  -0.185
    1UNL     H6   32  -0.332  -0.211  -0.059
    1UNL     H7   33  -0.083  -0.182  -0.277
    1UNL     H8   34   0.054  -0.266  -0.195
    1UNL     H9   35   0.125  -0.038  -0.203
    1UNL    H10   36  -0.041   0.013  -0.139
    1UNL    H11   37  -0.069  -0.374   0.081
    1UNL    H12   38  -0.083  -0.188   0.269
    1UNL    H13   39  -0.242  -0.229   0.210
    1UNL    H14   40  -0.213   0.024   0.211
    1UNL    H15   41   0.171   0.364  -0.079
    1UNL    H16   42  -0.009   0.407  -0.050
    1UNL    H17   43   0.055   0.326  -0.206
    1UNL    H18   44  -0.003   0.033   0.335
    1UNL    H19   45   0.382   0.209   0.239
    1UNL    H20   46   0.541   0.199   0.048
    1UNL    H21   47   0.509   0.050  -0.144
    1UNL    H22   48   0.318  -0.096  -0.147
   0.00000   0.00000   0.00000   0.00000   0.00000   0.00000   0.00000   0.00000   0.00000
Generated with MDTraj, t= 48.0
 48
    1UNL     C1    1  -0.420   0.077  -0.143
    1UNL     C2    2  -0.319   0.072  -0.036
    1UNL     C3    3  -0.243  -0.031  -0.009
    1UNL     C4    4  -0.236  -0.156  -0.094
    1UNL     N1    5  -0.120  -0.240  -0.069
    1UNL     C5    6  -0.012  -0.203  -0.181
    1UNL     C6    7   0.038  -0.065  -0.143
    1UNL     C7    8   0.086  -0.065   0.005
    1UNL     C8    9   0.072  -0.207   0.066
    1UNL     O1   10   0.160  -0.269   0.117
    1UNL     C9   11  -0.064  -0.259   0.069
    1UNL    C10   12  -0.148  -0.177   0.169
    1UNL    C11   13  -0.156  -0.035   0.120
    1UNL    C12   14  -0.011   0.029   0.100
    1UNL    C13   15  -0.026   0.175   0.055
    1UNL     O2   16  -0.095   0.248   0.126
    1UNL     O3   17   0.039   0.213  -0.059
    1UNL    C14   18  -0.010   0.341  -0.113
    1UNL    C15   19   0.056   0.042   0.238
    1UNL     N2   20   0.180   0.044   0.261
    1UNL    C16   21   0.262   0.056   0.145
    1UNL    C17   22   0.393   0.109   0.156
    1UNL    C18   23   0.482   0.102   0.052
    1UNL    C19   24   0.449   0.039  -0.061
    1UNL    C20   25   0.324  -0.028  -0.072
    1UNL    C21   26   0.231  -0.013   0.023
    1UNL     H1   27  -0.380   0.052  -0.239
    1UNL     H2   28  -0.499  -0.004  -0.111
    1UNL     H3   29  -0.474   0.172  -0.165
    1UNL     H4   30  -0.297   0.163   0.013
    1UNL     H5   31  -0.241  -0.119  -0.198
    1UNL     H6   32  -0.321  -0.208  -0.082
    1UNL     H7   33  -0.057  -0.199  -0.290
    1UNL     H8   34   0.062  -0.279  -0.185
    1UNL     H9   35   0.117  -0.032  -0.210
    1UNL    H10   36  -0.049   0.003  -0.153
    1UNL    H11   37  -0.067  -0.370   0.085
    1UNL    H12   38  -0.089  -0.176   0.267
    1UNL    H13   39  -0.250  -0.212   0.199
    1UNL    H14   40  -0.213   0.029   0.202
    1UNL    H15   41  -0.055   0.406  -0.033
    1UNL    H16   42  -0.075   0.322  -0.202
    1UNL    H17   43   0.089   0.391  -0.132
    1UNL    H18   44  -0.004   0.026   0.324
    1UNL    H19   45   0.421   0.155   0.242
    1UNL    H20   46   0.574   0.155   0.054
    1UNL    H21   47   0.524   0.024  -0.131
    1UNL    H22   48   0.299  -0.067  -0.168
   0.00000   0.00000   0.00000   0.00000   0.00000   0.00000   0.00000   0.00000   0.00000
Generated with MDTraj, t= 49.0
 48
    1UNL     C1    1  -0.393   0.092  -0.145
    1UNL     C2    2  -0.304   0.067  -0.035
    1UNL     C3    3  -0.242  -0.043   0.001
    1UNL     C4    4  -0.249  -0.172  -0.072
    1UNL     N1    5  -0.120  -0.240  -0.072
    1UNL     C5    6  -0.029  -0.180  -0.172
    1UNL     C6    7   0.030  -0.047  -0.134
    1UNL     C7    8   0.084  -0.046   0.015
    1UNL     C8    9   0.087  -0.194   0.054
    1UNL     O1   10   0.187  -0.253   0.075
    1UNL     C9   11  -0.051  -0.260   0.056
    1UNL    C10   12  -0.121  -0.185   0.176
    1UNL    C11   13  -0.151  -0.044   0.127
    1UNL    C12   14  -0.014   0.037   0.103
    1UNL    C13   15  -0.051   0.170   0.040
    1UNL     O2   16  -0.122   0.242   0.108
    1UNL     O3   17  -0.003   0.205  -0.079
    1UNL    C14   18  -0.022   0.341  -0.115
    1UNL    C15   19   0.049   0.070   0.235
    1UNL     N2   20   0.174   0.083   0.254
    1UNL    C16   21   0.273   0.050   0.154
    1UNL    C17   22   0.407   0.068   0.177
    1UNL    C18   23   0.495   0.049   0.074
    1UNL    C19   24   0.453   0.004  -0.046
    1UNL    C20   25   0.321  -0.018  -0.069
    1UNL    C21   26   0.233   0.000   0.027
    1UNL     H1   27  -0.343   0.061  -0.236
    1UNL     H2   28  -0.487   0.025  -0.130
    1UNL     H3   29  -0.417   0.200  -0.163
    1UNL     H4   30  -0.292   0.160   0.022
    1UNL     H5   31  -0.293  -0.168  -0.173
    1UNL     H6   32  -0.316  -0.228  -0.020
    1UNL     H7   33  -0.101  -0.169  -0.263
    1UNL     H8   34   0.039  -0.256  -0.208
    1UNL     H9   35   0.109  -0.015  -0.203
    1UNL    H10   36  -0.046   0.033  -0.149
    1UNL    H11   37  -0.032  -0.367   0.077
    1UNL    H12   38  -0.059  -0.173   0.270
    1UNL    H13   39  -0.219  -0.236   0.202
    1UNL    H14   40  -0.207   0.012   0.215
    1UNL    H15   41  -0.128   0.363  -0.109
    1UNL    H16   42   0.020   0.343  -0.215
    1UNL    H17   43   0.034   0.399  -0.036
    1UNL    H18   44  -0.019   0.103   0.317
    1UNL    H19   45   0.450   0.098   0.277
    1UNL    H20   46   0.602   0.069   0.091
    1UNL    H21   47   0.524  -0.023  -0.129
    1UNL    H22   48   0.295  -0.058  -0.171
   0.00000   0.00000   0.00000   0.00000   0.00000   0.00000   0.00000   0.00000   0.00000
Generated with MDTraj, t= 50.0
 48
    1UNL     C1    1  -0.400   0.068  -0.152
    1UNL     C2    2  -0.319   0.055  -0.031
    1UNL     C3    3  -0.249  -0.050   0.007
    1UNL     C4    4  -0.254  -0.181  -0.062
    1UNL     N1    5  -0.121  -0.242  -0.069
    1UNL     C5    6  -0.038  -0.175  -0.175
    1UNL     C6    7   0.022  -0.037  -0.138
    1UNL     C7    8   0.083  -0.045   0.008
    1UNL     C8    9   0.088  -0.189   0.047
    1UNL     O1   10   0.197  -0.242   0.049
    1UNL     C9   11  -0.047  -0.251   0.060
    1UNL    C10   12  -0.119  -0.173   0.176
    1UNL    C11   13  -0.146  -0.037   0.124
    1UNL    C12   14  -0.007   0.040   0.105
    1UNL    C13   15  -0.038   0.179   0.047
    1UNL     O2   16  -0.123   0.244   0.107
    1UNL     O3   17   0.017   0.229  -0.068
    1UNL    C14   18  -0.041   0.349  -0.120
    1UNL    C15   19   0.054   0.064   0.236
    1UNL     N2   20   0.177   0.081   0.256
    1UNL    C16   21   0.266   0.056   0.149
    1UNL    C17   22   0.402   0.080   0.174
    1UNL    C18   23   0.495   0.034   0.083
    1UNL    C19   24   0.460  -0.028  -0.030
    1UNL    C20   25   0.329  -0.037  -0.068
    1UNL    C21   26   0.226   0.005   0.024
    1UNL     H1   27  -0.329   0.067  -0.236
    1UNL     H2   28  -0.463  -0.024  -0.166
    1UNL     H3   29  -0.458   0.164  -0.166
    1UNL     H4   30  -0.309   0.150   0.022
    1UNL     H5   31  -0.284  -0.161  -0.162
    1UNL     H6   32  -0.326  -0.252  -0.030
    1UNL     H7   33  -0.085  -0.190  -0.278
    1UNL     H8   34   0.048  -0.243  -0.183
    1UNL     H9   35   0.104  -0.020  -0.210
    1UNL    H10   36  -0.046   0.050  -0.146
    1UNL    H11   37  -0.028  -0.356   0.082
    1UNL    H12   38  -0.059  -0.161   0.272
    1UNL    H13   39  -0.224  -0.216   0.193
    1UNL    H14   40  -0.204   0.017   0.212
    1UNL    H15   41  -0.085   0.327  -0.212
    1UNL    H16   42   0.045   0.413  -0.122
    1UNL    H17   43  -0.116   0.375  -0.045
    1UNL    H18   44  -0.011   0.089   0.315
    1UNL    H19   45   0.437   0.115   0.268
    1UNL    H20   46   0.597   0.034   0.112
    1UNL    H21   47   0.534  -0.053  -0.100
    1UNL    H22   48   0.305  -0.099  -0.144
   0.00000   0.00000   0.00000   0.00000   0.00000   0.00000   0.00000   0.00000   0.00000
Generated with MDTraj, t= 51.0
 48
    1UNL     C1    1  -0.427   0.058  -0.132
    1UNL     C2    2  -0.325   0.066  -0.026
    1UNL     C3    3  -0.243  -0.032  -0.000
    1UNL     C4    4  -0.240  -0.155  -0.088
    1UNL     N1    5  -0.114  -0.238  -0.085
    1UNL     C5    6  -0.020  -0.188  -0.182
    1UNL     C6    7   0.030  -0.051  -0.138
    1UNL     C7    8   0.082  -0.052   0.014
    1UNL     C8    9   0.073  -0.194   0.067
    1UNL     O1   10   0.169  -0.257   0.111
    1UNL     C9   11  -0.058  -0.262   0.059
    1UNL    C10   12  -0.147  -0.185   0.167
    1UNL    C11   13  -0.148  -0.037   0.124
    1UNL    C12   14  -0.007   0.033   0.104
    1UNL    C13   15  -0.037   0.166   0.039
    1UNL     O2   16  -0.121   0.230   0.098
    1UNL     O3   17   0.028   0.219  -0.065
    1UNL    C14   18  -0.004   0.356  -0.095
    1UNL    C15   19   0.061   0.066   0.230
    1UNL     N2   20   0.185   0.079   0.256
    1UNL    C16   21   0.273   0.050   0.146
    1UNL    C17   22   0.406   0.091   0.161
    1UNL    C18   23   0.498   0.068   0.060
    1UNL    C19   24   0.454   0.013  -0.055
    1UNL    C20   25   0.327  -0.037  -0.068
    1UNL    C21   26   0.226  -0.006   0.027
    1UNL     H1   27  -0.372   0.027  -0.226
    1UNL     H2   28  -0.497  -0.024  -0.125
    1UNL     H3   29  -0.475   0.154  -0.165
    1UNL     H4   30  -0.329   0.145   0.042
    1UNL     H5   31  -0.264  -0.133  -0.186
    1UNL     H6   32  -0.326  -0.214  -0.056
    1UNL     H7   33  -0.064  -0.190  -0.283
    1UNL     H8   34   0.061  -0.264  -0.192
    1UNL     H9   35   0.111  -0.011  -0.203
    1UNL    H10   36  -0.056   0.014  -0.159
    1UNL    H11   37  -0.051  -0.369   0.074
    1UNL    H12   38  -0.091  -0.187   0.264
    1UNL    H13   39  -0.259  -0.212   0.177
    1UNL    H14   40  -0.201   0.025   0.207
    1UNL    H15   41   0.014   0.364  -0.196
    1UNL    H16   42   0.056   0.414  -0.028
    1UNL    H17   43  -0.111   0.363  -0.068
    1UNL    H18   44  -0.010   0.076   0.314
    1UNL    H19   45   0.446   0.129   0.254
    1UNL    H20   46   0.600   0.106   0.066
    1UNL    H21   47   0.533   0.003  -0.129
    1UNL    H22   48   0.303  -0.090  -0.162
   0.00000   0.00000   0.00000   0.00000   0.00000   0.00000   0.00000   0.00000   0.00000
Generated with MDTraj, t= 52.0
 48
    1UNL     C1    1  -0.438   0.078  -0.114
    1UNL     C2    2  -0.328   0.070  -0.019
    1UNL     C3    3  -0.242  -0.028   0.000
    1UNL     C4    4  -0.238  -0.152  -0.088
    1UNL     N1    5  -0.123  -0.249  -0.073
    1UNL     C5    6  -0.021  -0.208  -0.180
    1UNL     C6    7   0.035  -0.071  -0.142
    1UNL     C7    8   0.080  -0.062   0.004
    1UNL     C8    9   0.074  -0.205   0.059
    1UNL     O1   10   0.168  -0.268   0.099
    1UNL     C9   11  -0.064  -0.259   0.066
    1UNL    C10   12  -0.148  -0.187   0.169
    1UNL    C11   13  -0.149  -0.041   0.123
    1UNL    C12   14  -0.012   0.023   0.099
    1UNL    C13   15  -0.027   0.165   0.041
    1UNL     O2   16  -0.103   0.242   0.096
    1UNL     O3   17   0.062   0.198  -0.060
    1UNL    C14   18   0.062   0.335  -0.099
    1UNL    C15   19   0.052   0.042   0.231
    1UNL     N2   20   0.174   0.064   0.255
    1UNL    C16   21   0.257   0.061   0.145
    1UNL    C17   22   0.376   0.125   0.157
    1UNL    C18   23   0.462   0.124   0.053
    1UNL    C19   24   0.444   0.036  -0.052
    1UNL    C20   25   0.327  -0.026  -0.066
    1UNL    C21   26   0.219  -0.006   0.021
    1UNL     H1   27  -0.395   0.151  -0.194
    1UNL     H2   28  -0.447  -0.011  -0.173
    1UNL     H3   29  -0.532   0.128  -0.077
    1UNL     H4   30  -0.324   0.151   0.059
    1UNL     H5   31  -0.249  -0.122  -0.184
    1UNL     H6   32  -0.333  -0.208  -0.073
    1UNL     H7   33  -0.064  -0.216  -0.277
    1UNL     H8   34   0.067  -0.280  -0.190
    1UNL     H9   35   0.108  -0.032  -0.217
    1UNL    H10   36  -0.049  -0.003  -0.148
    1UNL    H11   37  -0.053  -0.362   0.095
    1UNL    H12   38  -0.102  -0.192   0.271
    1UNL    H13   39  -0.255  -0.227   0.169
    1UNL    H14   40  -0.196   0.022   0.207
    1UNL    H15   41   0.162   0.355  -0.115
    1UNL    H16   42   0.014   0.391  -0.015
    1UNL    H17   43  -0.001   0.339  -0.192
    1UNL    H18   44  -0.013   0.034   0.313
    1UNL    H19   45   0.394   0.200   0.239
    1UNL    H20   46   0.556   0.174   0.067
    1UNL    H21   47   0.519   0.037  -0.130
    1UNL    H22   48   0.314  -0.093  -0.156
   0.00000   0.00000   0.00000   0.00000   0.00000   0.00000   0.00000   0.00000   0.00000
Generated with MDTraj, t= 53.0
 48
    1UNL     C1    1  -0.414   0.080  -0.137
    1UNL     C2    2  -0.318   0.068  -0.028
    1UNL     C3    3  -0.246  -0.039   0.005
    1UNL     C4    4  -0.264  -0.175  -0.064
    1UNL     N1    5  -0.132  -0.241  -0.072
    1UNL     C5    6  -0.039  -0.179  -0.179
    1UNL     C6    7   0.038  -0.060  -0.129
    1UNL     C7    8   0.089  -0.074   0.016
    1UNL     C8    9   0.078  -0.221   0.050
    1UNL     O1   10   0.163  -0.301   0.072
    1UNL     C9   11  -0.074  -0.261   0.062
    1UNL    C10   12  -0.142  -0.181   0.178
    1UNL    C11   13  -0.151  -0.035   0.125
    1UNL    C12   14  -0.011   0.024   0.104
    1UNL    C13   15  -0.022   0.164   0.043
    1UNL     O2   16  -0.114   0.235   0.067
    1UNL     O3   17   0.084   0.198  -0.037
    1UNL    C14   18   0.077   0.324  -0.102
    1UNL    C15   19   0.053   0.045   0.242
    1UNL     N2   20   0.172   0.073   0.263
    1UNL    C16   21   0.253   0.058   0.150
    1UNL    C17   22   0.369   0.135   0.147
    1UNL    C18   23   0.459   0.142   0.046
    1UNL    C19   24   0.433   0.065  -0.063
    1UNL    C20   25   0.330  -0.024  -0.065
    1UNL    C21   26   0.229  -0.018   0.038
    1UNL     H1   27  -0.436   0.194  -0.143
    1UNL     H2   28  -0.352   0.065  -0.225
    1UNL     H3   29  -0.512   0.029  -0.118
    1UNL     H4   30  -0.295   0.152   0.026
    1UNL     H5   31  -0.313  -0.168  -0.155
    1UNL     H6   32  -0.336  -0.241  -0.011
    1UNL     H7   33  -0.091  -0.155  -0.268
    1UNL     H8   34   0.027  -0.266  -0.216
    1UNL     H9   35   0.110  -0.024  -0.206
    1UNL    H10   36  -0.040   0.015  -0.125
    1UNL    H11   37  -0.079  -0.366   0.085
    1UNL    H12   38  -0.080  -0.183   0.271
    1UNL    H13   39  -0.245  -0.222   0.207
    1UNL    H14   40  -0.202   0.027   0.203
    1UNL    H15   41   0.177   0.341  -0.131
    1UNL    H16   42   0.045   0.400  -0.023
    1UNL    H17   43  -0.003   0.323  -0.186
    1UNL    H18   44  -0.017   0.076   0.323
    1UNL    H19   45   0.383   0.201   0.223
    1UNL    H20   46   0.543   0.210   0.044
    1UNL    H21   47   0.501   0.072  -0.145
    1UNL    H22   48   0.321  -0.090  -0.140
   0.00000   0.00000   0.00000   0.00000   0.00000   0.00000   0.00000   0.00000   0.00000
Generated with MDTraj, t= 54.0
 48
    1UNL     C1    1  -0.393   0.091  -0.150
    1UNL     C2    2  -0.315   0.067  -0.029
    1UNL     C3    3  -0.241  -0.041  -0.009
    1UNL     C4    4  -0.248  -0.176  -0.077
    1UNL     N1    5  -0.119  -0.255  -0.069
    1UNL     C5    6  -0.020  -0.197  -0.162
    1UNL     C6    7   0.028  -0.063  -0.124
    1UNL     C7    8   0.078  -0.060   0.014
    1UNL     C8    9   0.075  -0.205   0.067
    1UNL     O1   10   0.175  -0.266   0.102
    1UNL     C9   11  -0.064  -0.258   0.072
    1UNL    C10   12  -0.141  -0.176   0.175
    1UNL    C11   13  -0.156  -0.038   0.117
    1UNL    C12   14  -0.021   0.029   0.097
    1UNL    C13   15  -0.036   0.172   0.051
    1UNL     O2   16  -0.132   0.233   0.083
    1UNL     O3   17   0.064   0.214  -0.035
    1UNL    C14   18   0.049   0.349  -0.077
    1UNL    C15   19   0.051   0.042   0.231
    1UNL     N2   20   0.173   0.059   0.249
    1UNL    C16   21   0.258   0.057   0.136
    1UNL    C17   22   0.385   0.110   0.140
    1UNL    C18   23   0.478   0.098   0.044
    1UNL    C19   24   0.439   0.037  -0.069
    1UNL    C20   25   0.311  -0.017  -0.083
    1UNL    C21   26   0.224  -0.009   0.021
    1UNL     H1   27  -0.467   0.175  -0.139
    1UNL     H2   28  -0.320   0.134  -0.223
    1UNL     H3   29  -0.457   0.008  -0.189
    1UNL     H4   30  -0.302   0.151   0.046
    1UNL     H5   31  -0.285  -0.178  -0.180
    1UNL     H6   32  -0.332  -0.227  -0.031
    1UNL     H7   33  -0.072  -0.204  -0.255
    1UNL     H8   34   0.070  -0.265  -0.188
    1UNL     H9   35   0.100  -0.022  -0.197
    1UNL    H10   36  -0.059   0.002  -0.138
    1UNL    H11   37  -0.062  -0.361   0.106
    1UNL    H12   38  -0.087  -0.176   0.274
    1UNL    H13   39  -0.245  -0.215   0.196
    1UNL    H14   40  -0.209   0.021   0.190
    1UNL    H15   41   0.118   0.375  -0.155
    1UNL    H16   42   0.071   0.414   0.015
    1UNL    H17   43  -0.061   0.372  -0.103
    1UNL    H18   44  -0.011   0.030   0.317
    1UNL    H19   45   0.414   0.166   0.235
    1UNL    H20   46   0.569   0.156   0.043
    1UNL    H21   47   0.514   0.025  -0.147
    1UNL    H22   48   0.284  -0.087  -0.169
   0.00000   0.00000   0.00000   0.00000   0.00000   0.00000   0.00000   0.00000   0.00000
Generated with MDTraj, t= 55.0
 48
    1UNL     C1    1  -0.403   0.046  -0.164
    1UNL     C2    2  -0.310   0.062  -0.046
    1UNL     C3    3  -0.232  -0.039  -0.008
    1UNL     C4    4  -0.245  -0.172  -0.073
    1UNL     N1    5  -0.115  -0.243  -0.066
    1UNL     C5    6  -0.032  -0.190  -0.178
    1UNL     C6    7   0.025  -0.050  -0.143
    1UNL     C7    8   0.083  -0.052   0.005
    1UNL     C8    9   0.077  -0.189   0.065
    1UNL     O1   10   0.172  -0.251   0.110
    1UNL     C9   11  -0.056  -0.250   0.071
    1UNL    C10   12  -0.140  -0.178   0.177
    1UNL    C11   13  -0.148  -0.033   0.116
    1UNL    C12   14  -0.011   0.036   0.098
    1UNL    C13   15  -0.041   0.179   0.053
    1UNL     O2   16  -0.116   0.239   0.121
    1UNL     O3   17   0.017   0.230  -0.056
    1UNL    C14   18   0.006   0.367  -0.065
    1UNL    C15   19   0.057   0.050   0.235
    1UNL     N2   20   0.180   0.069   0.250
    1UNL    C16   21   0.260   0.063   0.137
    1UNL    C17   22   0.396   0.081   0.151
    1UNL    C18   23   0.489   0.054   0.053
    1UNL    C19   24   0.455  -0.002  -0.062
    1UNL    C20   25   0.318  -0.023  -0.082
    1UNL    C21   26   0.226   0.001   0.012
    1UNL     H1   27  -0.454   0.137  -0.196
    1UNL     H2   28  -0.340   0.029  -0.259
    1UNL     H3   29  -0.486  -0.026  -0.155
    1UNL     H4   30  -0.306   0.151   0.007
    1UNL     H5   31  -0.280  -0.161  -0.183
    1UNL     H6   32  -0.321  -0.242  -0.043
    1UNL     H7   33  -0.065  -0.211  -0.278
    1UNL     H8   34   0.053  -0.270  -0.170
    1UNL     H9   35   0.097  -0.015  -0.217
    1UNL    H10   36  -0.056   0.022  -0.144
    1UNL    H11   37  -0.054  -0.358   0.087
    1UNL    H12   38  -0.094  -0.179   0.281
    1UNL    H13   39  -0.242  -0.222   0.183
    1UNL    H14   40  -0.202   0.029   0.181
    1UNL    H15   41   0.077   0.406  -0.135
    1UNL    H16   42   0.028   0.417   0.033
    1UNL    H17   43  -0.098   0.400  -0.092
    1UNL    H18   44  -0.004   0.047   0.328
    1UNL    H19   45   0.433   0.126   0.238
    1UNL    H20   46   0.593   0.069   0.075
    1UNL    H21   47   0.525  -0.032  -0.136
    1UNL    H22   48   0.297  -0.085  -0.166
   0.00000   0.00000   0.00000   0.00000   0.00000   0.00000   0.00000   0.00000   0.00000
Generated with MDTraj, t= 56.0
 48
    1UNL     C1    1  -0.399   0.056  -0.154
    1UNL     C2    2  -0.303   0.071  -0.033
    1UNL     C3    3  -0.242  -0.038   0.016
    1UNL     C4    4  -0.248  -0.164  -0.067
    1UNL     N1    5  -0.115  -0.246  -0.077
    1UNL     C5    6  -0.040  -0.184  -0.185
    1UNL     C6    7   0.020  -0.046  -0.138
    1UNL     C7    8   0.078  -0.050   0.009
    1UNL     C8    9   0.085  -0.196   0.049
    1UNL     O1   10   0.183  -0.262   0.052
    1UNL     C9   11  -0.053  -0.253   0.059
    1UNL    C10   12  -0.125  -0.181   0.175
    1UNL    C11   13  -0.148  -0.030   0.135
    1UNL    C12   14  -0.009   0.038   0.106
    1UNL    C13   15  -0.037   0.172   0.050
    1UNL     O2   16  -0.114   0.244   0.108
    1UNL     O3   17   0.019   0.225  -0.067
    1UNL    C14   18  -0.034   0.350  -0.110
    1UNL    C15   19   0.060   0.065   0.237
    1UNL     N2   20   0.184   0.079   0.257
    1UNL    C16   21   0.268   0.055   0.147
    1UNL    C17   22   0.405   0.077   0.178
    1UNL    C18   23   0.491   0.049   0.077
    1UNL    C19   24   0.452   0.000  -0.041
    1UNL    C20   25   0.318  -0.032  -0.065
    1UNL    C21   26   0.220  -0.000   0.027
    1UNL     H1   27  -0.440   0.152  -0.176
    1UNL     H2   28  -0.340   0.028  -0.250
    1UNL     H3   29  -0.486  -0.012  -0.138
    1UNL     H4   30  -0.285   0.167   0.020
    1UNL     H5   31  -0.296  -0.160  -0.175
    1UNL     H6   32  -0.321  -0.224  -0.021
    1UNL     H7   33  -0.112  -0.189  -0.267
    1UNL     H8   34   0.039  -0.256  -0.228
    1UNL     H9   35   0.101  -0.024  -0.205
    1UNL    H10   36  -0.054   0.034  -0.146
    1UNL    H11   37  -0.032  -0.359   0.081
    1UNL    H12   38  -0.060  -0.182   0.268
    1UNL    H13   39  -0.222  -0.234   0.190
    1UNL    H14   40  -0.193   0.023   0.210
    1UNL    H15   41  -0.003   0.371  -0.212
    1UNL    H16   42   0.000   0.434  -0.052
    1UNL    H17   43  -0.143   0.355  -0.106
    1UNL    H18   44  -0.001   0.094   0.317
    1UNL    H19   45   0.438   0.114   0.274
    1UNL    H20   46   0.596   0.072   0.091
    1UNL    H21   47   0.527  -0.049  -0.107
    1UNL    H22   48   0.306  -0.075  -0.163
   0.00000   0.00000   0.00000   0.00000   0.00000   0.00000   0.00000   0.00000   0.00000
Generated with MDTraj, t= 57.0
 48
    1UNL     C1    1  -0.405   0.113  -0.121
    1UNL     C2    2  -0.328   0.072   0.005
    1UNL     C3    3  -0.245  -0.037   0.010
    1UNL     C4    4  -0.250  -0.152  -0.080
    1UNL     N1    5  -0.124  -0.238  -0.076
    1UNL     C5    6  -0.035  -0.186  -0.188
    1UNL     C6    7   0.031  -0.052  -0.147
    1UNL     C7    8   0.085  -0.057   0.003
    1UNL     C8    9   0.087  -0.200   0.051
    1UNL     O1   10   0.190  -0.249   0.078
    1UNL     C9   11  -0.054  -0.260   0.059
    1UNL    C10   12  -0.131  -0.193   0.170
    1UNL    C11   13  -0.150  -0.043   0.126
    1UNL    C12   14  -0.007   0.029   0.100
    1UNL    C13   15  -0.044   0.164   0.039
    1UNL     O2   16  -0.116   0.242   0.096
    1UNL     O3   17   0.012   0.196  -0.078
    1UNL    C14   18  -0.020   0.323  -0.134
    1UNL    C15   19   0.056   0.060   0.231
    1UNL     N2   20   0.181   0.067   0.262
    1UNL    C16   21   0.272   0.051   0.155
    1UNL    C17   22   0.405   0.088   0.176
    1UNL    C18   23   0.495   0.075   0.074
    1UNL    C19   24   0.457   0.015  -0.039
    1UNL    C20   25   0.330  -0.024  -0.062
    1UNL    C21   26   0.228  -0.010   0.033
    1UNL     H1   27  -0.476   0.187  -0.091
    1UNL     H2   28  -0.332   0.165  -0.190
    1UNL     H3   29  -0.463   0.031  -0.174
    1UNL     H4   30  -0.318   0.138   0.089
    1UNL     H5   31  -0.268  -0.109  -0.188
    1UNL     H6   32  -0.337  -0.211  -0.069
    1UNL     H7   33  -0.076  -0.196  -0.290
    1UNL     H8   34   0.044  -0.265  -0.185
    1UNL     H9   35   0.113  -0.021  -0.209
    1UNL    H10   36  -0.051   0.020  -0.159
    1UNL    H11   37  -0.050  -0.371   0.070
    1UNL    H12   38  -0.077  -0.203   0.268
    1UNL    H13   39  -0.233  -0.239   0.172
    1UNL    H14   40  -0.195   0.014   0.197
    1UNL    H15   41   0.046   0.354  -0.215
    1UNL    H16   42  -0.020   0.403  -0.065
    1UNL    H17   43  -0.118   0.327  -0.174
    1UNL    H18   44  -0.015   0.074   0.316
    1UNL    H19   45   0.429   0.135   0.276
    1UNL    H20   46   0.598   0.102   0.088
    1UNL    H21   47   0.526   0.008  -0.117
    1UNL    H22   48   0.304  -0.070  -0.157
   0.00000   0.00000   0.00000   0.00000   0.00000   0.00000   0.00000   0.00000   0.00000
Generated with MDTraj, t= 58.0
 48
    1UNL     C1    1  -0.449   0.080  -0.109
    1UNL     C2    2  -0.339   0.068  -0.009
    1UNL     C3    3  -0.242  -0.027  -0.009
    1UNL     C4    4  -0.246  -0.147  -0.102
    1UNL     N1    5  -0.130  -0.238  -0.084
    1UNL     C5    6  -0.017  -0.189  -0.174
    1UNL     C6    7   0.049  -0.062  -0.128
    1UNL     C7    8   0.100  -0.061   0.016
    1UNL     C8    9   0.072  -0.206   0.061
    1UNL     O1   10   0.162  -0.278   0.106
    1UNL     C9   11  -0.071  -0.255   0.054
    1UNL    C10   12  -0.150  -0.180   0.154
    1UNL    C11   13  -0.150  -0.034   0.108
    1UNL    C12   14  -0.004   0.033   0.105
    1UNL    C13   15  -0.023   0.164   0.047
    1UNL     O2   16  -0.102   0.234   0.106
    1UNL     O3   17   0.039   0.206  -0.065
    1UNL    C14   18   0.002   0.332  -0.112
    1UNL    C15   19   0.055   0.049   0.244
    1UNL     N2   20   0.182   0.069   0.260
    1UNL    C16   21   0.276   0.048   0.150
    1UNL    C17   22   0.398   0.111   0.155
    1UNL    C18   23   0.485   0.108   0.047
    1UNL    C19   24   0.453   0.026  -0.060
    1UNL    C20   25   0.334  -0.031  -0.065
    1UNL    C21   26   0.241  -0.021   0.036
    1UNL     H1   27  -0.526   0.154  -0.081
    1UNL     H2   28  -0.414   0.115  -0.206
    1UNL     H3   29  -0.513  -0.014  -0.124
    1UNL     H4   30  -0.322   0.139   0.070
    1UNL     H5   31  -0.250  -0.117  -0.215
    1UNL     H6   32  -0.342  -0.193  -0.094
    1UNL     H7   33  -0.064  -0.177  -0.277
    1UNL     H8   34   0.056  -0.268  -0.194
    1UNL     H9   35   0.122  -0.041  -0.205
    1UNL    H10   36  -0.027   0.016  -0.130
    1UNL    H11   37  -0.086  -0.366   0.070
    1UNL    H12   38  -0.104  -0.187   0.257
    1UNL    H13   39  -0.255  -0.216   0.156
    1UNL    H14   40  -0.198   0.026   0.178
    1UNL    H15   41   0.054   0.358  -0.207
    1UNL    H16   42   0.019   0.411  -0.043
    1UNL    H17   43  -0.100   0.335  -0.136
    1UNL    H18   44  -0.000   0.040   0.334
    1UNL    H19   45   0.438   0.160   0.236
    1UNL    H20   46   0.575   0.168   0.043
    1UNL    H21   47   0.523   0.032  -0.146
    1UNL    H22   48   0.309  -0.093  -0.149
   0.00000   0.00000   0.00000   0.00000   0.00000   0.00000   0.00000   0.00000   0.00000
Generated with MDTraj, t= 59.0
 48
    1UNL     C1    1  -0.423   0.059  -0.126
    1UNL     C2    2  -0.326   0.062  -0.018
    1UNL     C3    3  -0.243  -0.041   0.000
    1UNL     C4    4  -0.257  -0.165  -0.081
    1UNL     N1    5  -0.127  -0.242  -0.077
    1UNL     C5    6  -0.031  -0.184  -0.182
    1UNL     C6    7   0.028  -0.059  -0.133
    1UNL     C7    8   0.081  -0.065   0.009
    1UNL     C8    9   0.076  -0.210   0.052
    1UNL     O1   10   0.176  -0.274   0.080
    1UNL     C9   11  -0.067  -0.261   0.060
    1UNL    C10   12  -0.136  -0.180   0.175
    1UNL    C11   13  -0.157  -0.038   0.121
    1UNL    C12   14  -0.013   0.028   0.097
    1UNL    C13   15  -0.020   0.171   0.049
    1UNL     O2   16  -0.101   0.248   0.099
    1UNL     O3   17   0.060   0.211  -0.052
    1UNL    C14   18   0.073   0.351  -0.083
    1UNL    C15   19   0.048   0.044   0.238
    1UNL     N2   20   0.173   0.070   0.253
    1UNL    C16   21   0.250   0.071   0.136
    1UNL    C17   22   0.379   0.130   0.140
    1UNL    C18   23   0.476   0.101   0.053
    1UNL    C19   24   0.439   0.020  -0.051
    1UNL    C20   25   0.322  -0.043  -0.063
    1UNL    C21   26   0.220  -0.005   0.023
    1UNL     H1   27  -0.480   0.157  -0.127
    1UNL     H2   28  -0.376   0.049  -0.222
    1UNL     H3   29  -0.499  -0.022  -0.109
    1UNL     H4   30  -0.305   0.144   0.054
    1UNL     H5   31  -0.302  -0.147  -0.185
    1UNL     H6   32  -0.328  -0.239  -0.047
    1UNL     H7   33  -0.089  -0.168  -0.281
    1UNL     H8   34   0.038  -0.262  -0.209
    1UNL     H9   35   0.107  -0.022  -0.196
    1UNL    H10   36  -0.053   0.014  -0.138
    1UNL    H11   37  -0.068  -0.370   0.089
    1UNL    H12   38  -0.075  -0.185   0.268
    1UNL    H13   39  -0.236  -0.224   0.197
    1UNL    H14   40  -0.206   0.014   0.200
    1UNL    H15   41   0.137   0.380  -0.175
    1UNL    H16   42   0.104   0.406   0.005
    1UNL    H17   43  -0.024   0.390  -0.106
    1UNL    H18   44  -0.014   0.054   0.331
    1UNL    H19   45   0.399   0.184   0.236
    1UNL    H20   46   0.577   0.137   0.063
    1UNL    H21   47   0.515  -0.004  -0.122
    1UNL    H22   48   0.291  -0.109  -0.147
   0.00000   0.00000   0.00000   0.00000   0.00000   0.00000   0.00000   0.00000   0.00000
Generated with MDTraj, t= 60.0
 48
    1UNL     C1    1  -0.391   0.071  -0.158
    1UNL     C2    2  -0.318   0.068  -0.027
    1UNL     C3    3  -0.245  -0.040   0.016
    1UNL     C4    4  -0.250  -0.169  -0.062
    1UNL     N1    5  -0.126  -0.246  -0.062
    1UNL     C5    6  -0.041  -0.190  -0.177
    1UNL     C6    7   0.024  -0.053  -0.139
    1UNL     C7    8   0.077  -0.060   0.004
    1UNL     C8    9   0.080  -0.206   0.056
    1UNL     O1   10   0.172  -0.275   0.078
    1UNL     C9   11  -0.061  -0.260   0.069
    1UNL    C10   12  -0.131  -0.185   0.186
    1UNL    C11   13  -0.150  -0.036   0.133
    1UNL    C12   14  -0.016   0.028   0.098
    1UNL    C13   15  -0.040   0.165   0.039
    1UNL     O2   16  -0.138   0.231   0.074
    1UNL     O3   17   0.059   0.216  -0.036
    1UNL    C14   18   0.072   0.353  -0.047
    1UNL    C15   19   0.054   0.053   0.227
    1UNL     N2   20   0.177   0.078   0.247
    1UNL    C16   21   0.254   0.061   0.135
    1UNL    C17   22   0.388   0.102   0.149
    1UNL    C18   23   0.477   0.085   0.053
    1UNL    C19   24   0.441   0.026  -0.066
    1UNL    C20   25   0.309  -0.014  -0.085
    1UNL    C21   26   0.217   0.002   0.015
    1UNL     H1   27  -0.461   0.163  -0.155
    1UNL     H2   28  -0.323   0.083  -0.240
    1UNL     H3   29  -0.456  -0.016  -0.172
    1UNL     H4   30  -0.305   0.153   0.033
    1UNL     H5   31  -0.272  -0.163  -0.172
    1UNL     H6   32  -0.341  -0.227  -0.037
    1UNL     H7   33  -0.114  -0.187  -0.266
    1UNL     H8   34   0.026  -0.267  -0.208
    1UNL     H9   35   0.099  -0.026  -0.212
    1UNL    H10   36  -0.047   0.028  -0.139
    1UNL    H11   37  -0.049  -0.371   0.091
    1UNL    H12   38  -0.067  -0.189   0.276
    1UNL    H13   39  -0.228  -0.236   0.212
    1UNL    H14   40  -0.190   0.028   0.212
    1UNL    H15   41   0.165   0.385  -0.114
    1UNL    H16   42   0.073   0.395   0.054
    1UNL    H17   43  -0.014   0.391  -0.101
    1UNL    H18   44  -0.006   0.055   0.313
    1UNL    H19   45   0.410   0.161   0.233
    1UNL    H20   46   0.583   0.086   0.077
    1UNL    H21   47   0.512   0.019  -0.145
    1UNL    H22   48   0.288  -0.070  -0.168
   0.00000   0.00000   0.00000   0.00000   0.00000   0.00000   0.00000   0.00000   0.00000
Generated with MDTraj, t= 61.0
 48
    1UNL     C1    1  -0.410   0.067  -0.162
    1UNL     C2    2  -0.301   0.070  -0.063
    1UNL     C3    3  -0.232  -0.037  -0.012
    1UNL     C4    4  -0.247  -0.169  -0.069
    1UNL     N1    5  -0.118  -0.248  -0.066
    1UNL     C5    6  -0.035  -0.194  -0.177
    1UNL     C6    7   0.021  -0.055  -0.137
    1UNL     C7    8   0.077  -0.055   0.011
    1UNL     C8    9   0.080  -0.197   0.070
    1UNL     O1   10   0.170  -0.269   0.104
    1UNL     C9   11  -0.053  -0.253   0.077
    1UNL    C10   12  -0.137  -0.174   0.181
    1UNL    C11   13  -0.151  -0.034   0.119
    1UNL    C12   14  -0.015   0.030   0.109
    1UNL    C13   15  -0.032   0.179   0.063
    1UNL     O2   16  -0.134   0.237   0.100
    1UNL     O3   17   0.059   0.246  -0.018
    1UNL    C14   18   0.021   0.362  -0.075
    1UNL    C15   19   0.060   0.043   0.239
    1UNL     N2   20   0.187   0.051   0.255
    1UNL    C16   21   0.263   0.034   0.142
    1UNL    C17   22   0.392   0.087   0.143
    1UNL    C18   23   0.480   0.078   0.038
    1UNL    C19   24   0.446   0.021  -0.081
    1UNL    C20   25   0.310  -0.021  -0.087
    1UNL    C21   26   0.216  -0.002   0.012
    1UNL     H1   27  -0.446   0.174  -0.181
    1UNL     H2   28  -0.391   0.028  -0.264
    1UNL     H3   29  -0.500   0.022  -0.120
    1UNL     H4   30  -0.279   0.163  -0.002
    1UNL     H5   31  -0.302  -0.168  -0.163
    1UNL     H6   32  -0.315  -0.238  -0.010
    1UNL     H7   33  -0.102  -0.184  -0.271
    1UNL     H8   34   0.038  -0.269  -0.203
    1UNL     H9   35   0.096  -0.021  -0.209
    1UNL    H10   36  -0.063   0.012  -0.147
    1UNL    H11   37  -0.048  -0.364   0.099
    1UNL    H12   38  -0.078  -0.170   0.273
    1UNL    H13   39  -0.236  -0.224   0.202
    1UNL    H14   40  -0.209   0.040   0.181
    1UNL    H15   41   0.102   0.402  -0.152
    1UNL    H16   42  -0.001   0.431   0.009
    1UNL    H17   43  -0.069   0.344  -0.133
    1UNL    H18   44  -0.001   0.029   0.333
    1UNL    H19   45   0.434   0.133   0.234
    1UNL    H20   46   0.574   0.129   0.039
    1UNL    H21   47   0.520  -0.000  -0.160
    1UNL    H22   48   0.291  -0.074  -0.183
   0.00000   0.00000   0.00000   0.00000   0.00000   0.00000   0.00000   0.00000   0.00000
Generated with MDTraj, t= 62.0
 48
    1UNL     C1    1  -0.389   0.087  -0.159
    1UNL     C2    2  -0.327   0.066  -0.025
    1UNL     C3    3  -0.250  -0.044   0.009
    1UNL     C4    4  -0.255  -0.176  -0.071
    1UNL     N1    5  -0.126  -0.247  -0.074
    1UNL     C5    6  -0.037  -0.188  -0.177
    1UNL     C6    7   0.020  -0.056  -0.131
    1UNL     C7    8   0.079  -0.058   0.014
    1UNL     C8    9   0.079  -0.201   0.062
    1UNL     O1   10   0.182  -0.267   0.083
    1UNL     C9   11  -0.060  -0.263   0.069
    1UNL    C10   12  -0.138  -0.177   0.177
    1UNL    C11   13  -0.152  -0.034   0.123
    1UNL    C12   14  -0.013   0.028   0.097
    1UNL    C13   15  -0.037   0.170   0.051
    1UNL     O2   16  -0.108   0.246   0.117
    1UNL     O3   17   0.025   0.217  -0.064
    1UNL    C14   18   0.026   0.353  -0.083
    1UNL    C15   19   0.057   0.051   0.228
    1UNL     N2   20   0.183   0.061   0.254
    1UNL    C16   21   0.265   0.057   0.141
    1UNL    C17   22   0.398   0.094   0.153
    1UNL    C18   23   0.492   0.073   0.055
    1UNL    C19   24   0.448   0.028  -0.063
    1UNL    C20   25   0.317  -0.022  -0.080
    1UNL    C21   26   0.226  -0.005   0.022
    1UNL     H1   27  -0.439   0.187  -0.160
    1UNL     H2   28  -0.313   0.085  -0.244
    1UNL     H3   29  -0.469   0.017  -0.178
    1UNL     H4   30  -0.308   0.145   0.041
    1UNL     H5   31  -0.275  -0.161  -0.174
    1UNL     H6   32  -0.345  -0.245  -0.045
    1UNL     H7   33  -0.099  -0.183  -0.274
    1UNL     H8   34   0.049  -0.252  -0.192
    1UNL     H9   35   0.099  -0.022  -0.199
    1UNL    H10   36  -0.064   0.009  -0.141
    1UNL    H11   37  -0.052  -0.373   0.097
    1UNL    H12   38  -0.073  -0.179   0.266
    1UNL    H13   39  -0.237  -0.226   0.202
    1UNL    H14   40  -0.206   0.035   0.198
    1UNL    H15   41   0.103   0.378  -0.164
    1UNL    H16   42   0.044   0.399   0.014
    1UNL    H17   43  -0.070   0.374  -0.127
    1UNL    H18   44  -0.013   0.063   0.303
    1UNL    H19   45   0.418   0.139   0.248
    1UNL    H20   46   0.593   0.105   0.074
    1UNL    H21   47   0.510   0.029  -0.149
    1UNL    H22   48   0.303  -0.093  -0.169
   0.00000   0.00000   0.00000   0.00000   0.00000   0.00000   0.00000   0.00000   0.00000
Generated with MDTraj, t= 63.0
 48
    1UNL     C1    1  -0.400   0.104  -0.124
    1UNL     C2    2  -0.311   0.076  -0.015
    1UNL     C3    3  -0.241  -0.039  -0.002
    1UNL     C4    4  -0.258  -0.160  -0.083
    1UNL     N1    5  -0.137  -0.248  -0.076
    1UNL     C5    6  -0.037  -0.189  -0.175
    1UNL     C6    7   0.022  -0.052  -0.129
    1UNL     C7    8   0.084  -0.057   0.013
    1UNL     C8    9   0.081  -0.206   0.047
    1UNL     O1   10   0.183  -0.266   0.068
    1UNL     C9   11  -0.063  -0.262   0.057
    1UNL    C10   12  -0.137  -0.188   0.167
    1UNL    C11   13  -0.147  -0.048   0.120
    1UNL    C12   14  -0.012   0.024   0.110
    1UNL    C13   15  -0.029   0.166   0.050
    1UNL     O2   16  -0.096   0.246   0.110
    1UNL     O3   17   0.027   0.195  -0.073
    1UNL    C14   18   0.011   0.327  -0.117
    1UNL    C15   19   0.057   0.047   0.241
    1UNL     N2   20   0.178   0.077   0.257
    1UNL    C16   21   0.261   0.065   0.148
    1UNL    C17   22   0.391   0.114   0.161
    1UNL    C18   23   0.483   0.090   0.062
    1UNL    C19   24   0.453   0.015  -0.046
    1UNL    C20   25   0.321  -0.029  -0.068
    1UNL    C21   26   0.226  -0.001   0.031
    1UNL     H1   27  -0.479   0.165  -0.085
    1UNL     H2   28  -0.346   0.164  -0.206
    1UNL     H3   29  -0.450   0.011  -0.158
    1UNL     H4   30  -0.273   0.155   0.053
    1UNL     H5   31  -0.293  -0.147  -0.180
    1UNL     H6   32  -0.338  -0.232  -0.037
    1UNL     H7   33  -0.080  -0.167  -0.277
    1UNL     H8   34   0.037  -0.271  -0.191
    1UNL     H9   35   0.093  -0.028  -0.209
    1UNL    H10   36  -0.047   0.029  -0.135
    1UNL    H11   37  -0.056  -0.371   0.089
    1UNL    H12   38  -0.090  -0.202   0.266
    1UNL    H13   39  -0.238  -0.237   0.163
    1UNL    H14   40  -0.203   0.010   0.204
    1UNL    H15   41  -0.009   0.333  -0.227
    1UNL    H16   42   0.099   0.380  -0.087
    1UNL    H17   43  -0.079   0.358  -0.072
    1UNL    H18   44  -0.006   0.063   0.334
    1UNL    H19   45   0.425   0.180   0.239
    1UNL    H20   46   0.581   0.137   0.077
    1UNL    H21   47   0.530  -0.010  -0.124
    1UNL    H22   48   0.300  -0.092  -0.144
   0.00000   0.00000   0.00000   0.00000   0.00000   0.00000   0.00000   0.00000   0.00000
Generated with MDTraj, t= 64.0
 48
    1UNL     C1    1  -0.424   0.077  -0.117
    1UNL     C2    2  -0.327   0.079  -0.011
    1UNL     C3    3  -0.233  -0.018   0.002
    1UNL     C4    4  -0.238  -0.137  -0.091
    1UNL     N1    5  -0.131  -0.233  -0.086
    1UNL     C5    6  -0.029  -0.182  -0.184
    1UNL     C6    7   0.042  -0.059  -0.137
    1UNL     C7    8   0.094  -0.060   0.012
    1UNL     C8    9   0.074  -0.206   0.057
    1UNL     O1   10   0.162  -0.273   0.094
    1UNL     C9   11  -0.069  -0.257   0.051
    1UNL    C10   12  -0.148  -0.186   0.165
    1UNL    C11   13  -0.147  -0.032   0.128
    1UNL    C12   14  -0.002   0.031   0.108
    1UNL    C13   15  -0.031   0.166   0.046
    1UNL     O2   16  -0.114   0.231   0.101
    1UNL     O3   17   0.033   0.210  -0.066
    1UNL    C14   18  -0.011   0.332  -0.119
    1UNL    C15   19   0.057   0.049   0.246
    1UNL     N2   20   0.184   0.055   0.264
    1UNL    C16   21   0.275   0.046   0.154
    1UNL    C17   22   0.394   0.112   0.152
    1UNL    C18   23   0.486   0.103   0.047
    1UNL    C19   24   0.457   0.020  -0.057
    1UNL    C20   25   0.337  -0.043  -0.060
    1UNL    C21   26   0.239  -0.024   0.036
    1UNL     H1   27  -0.475   0.170  -0.116
    1UNL     H2   28  -0.380   0.069  -0.222
    1UNL     H3   29  -0.503  -0.001  -0.098
    1UNL     H4   30  -0.316   0.165   0.052
    1UNL     H5   31  -0.242  -0.113  -0.193
    1UNL     H6   32  -0.338  -0.197  -0.083
    1UNL     H7   33  -0.084  -0.165  -0.279
    1UNL     H8   34   0.048  -0.260  -0.211
    1UNL     H9   35   0.125  -0.019  -0.196
    1UNL    H10   36  -0.030   0.019  -0.155
    1UNL    H11   37  -0.075  -0.369   0.070
    1UNL    H12   38  -0.088  -0.212   0.255
    1UNL    H13   39  -0.250  -0.227   0.175
    1UNL    H14   40  -0.205   0.028   0.212
    1UNL    H15   41  -0.065   0.310  -0.211
    1UNL    H16   42   0.073   0.394  -0.140
    1UNL    H17   43  -0.082   0.367  -0.049
    1UNL    H18   44   0.001   0.043   0.332
    1UNL    H19   45   0.422   0.178   0.235
    1UNL    H20   46   0.569   0.172   0.042
    1UNL    H21   47   0.531  -0.007  -0.121
    1UNL    H22   48   0.295  -0.097  -0.150
   0.00000   0.00000   0.00000   0.00000   0.00000   0.00000   0.00000   0.00000   0.00000
Generated with MDTraj, t= 65.0
 48
    1UNL     C1    1  -0.430   0.083  -0.116
    1UNL     C2    2  -0.334   0.063  -0.006
    1UNL     C3    3  -0.246  -0.038   0.006
    1UNL     C4    4  -0.243  -0.155  -0.087
    1UNL     N1    5  -0.120  -0.241  -0.078
    1UNL     C5    6  -0.024  -0.193  -0.187
    1UNL     C6    7   0.032  -0.056  -0.148
    1UNL     C7    8   0.080  -0.060   0.001
    1UNL     C8    9   0.077  -0.205   0.055
    1UNL     O1   10   0.179  -0.260   0.094
    1UNL     C9   11  -0.057  -0.263   0.061
    1UNL    C10   12  -0.142  -0.186   0.168
    1UNL    C11   13  -0.155  -0.042   0.121
    1UNL    C12   14  -0.011   0.027   0.097
    1UNL    C13   15  -0.029   0.171   0.050
    1UNL     O2   16  -0.110   0.244   0.099
    1UNL     O3   17   0.048   0.209  -0.058
    1UNL    C14   18   0.023   0.345  -0.098
    1UNL    C15   19   0.056   0.058   0.231
    1UNL     N2   20   0.177   0.083   0.249
    1UNL    C16   21   0.263   0.066   0.132
    1UNL    C17   22   0.395   0.093   0.168
    1UNL    C18   23   0.490   0.074   0.070
    1UNL    C19   24   0.446   0.014  -0.048
    1UNL    C20   25   0.321  -0.025  -0.075
    1UNL    C21   26   0.220  -0.008   0.022
    1UNL     H1   27  -0.493   0.169  -0.102
    1UNL     H2   28  -0.385   0.106  -0.216
    1UNL     H3   29  -0.501  -0.006  -0.126
    1UNL     H4   30  -0.313   0.144   0.063
    1UNL     H5   31  -0.250  -0.123  -0.187
    1UNL     H6   32  -0.331  -0.228  -0.083
    1UNL     H7   33  -0.074  -0.188  -0.286
    1UNL     H8   34   0.060  -0.270  -0.203
    1UNL     H9   35   0.103  -0.019  -0.222
    1UNL    H10   36  -0.043   0.022  -0.148
    1UNL    H11   37  -0.056  -0.373   0.084
    1UNL    H12   38  -0.084  -0.192   0.264
    1UNL    H13   39  -0.235  -0.243   0.179
    1UNL    H14   40  -0.206   0.020   0.209
    1UNL    H15   41  -0.082   0.364  -0.082
    1UNL    H16   42   0.042   0.363  -0.203
    1UNL    H17   43   0.077   0.399  -0.021
    1UNL    H18   44  -0.015   0.071   0.319
    1UNL    H19   45   0.418   0.138   0.262
    1UNL    H20   46   0.596   0.079   0.089
    1UNL    H21   47   0.528   0.003  -0.126
    1UNL    H22   48   0.300  -0.085  -0.161
   0.00000   0.00000   0.00000   0.00000   0.00000   0.00000   0.00000   0.00000   0.00000
Generated with MDTraj, t= 66.0
 48
    1UNL     C1    1  -0.423   0.066  -0.145
    1UNL     C2    2  -0.318   0.054  -0.032
    1UNL     C3    3  -0.246  -0.052   0.006
    1UNL     C4    4  -0.254  -0.184  -0.062
    1UNL     N1    5  -0.115  -0.235  -0.072
    1UNL     C5    6  -0.039  -0.172  -0.179
    1UNL     C6    7   0.027  -0.035  -0.135
    1UNL     C7    8   0.082  -0.050   0.009
    1UNL     C8    9   0.086  -0.194   0.050
    1UNL     O1   10   0.181  -0.273   0.060
    1UNL     C9   11  -0.052  -0.253   0.066
    1UNL    C10   12  -0.126  -0.172   0.181
    1UNL    C11   13  -0.153  -0.035   0.125
    1UNL    C12   14  -0.016   0.040   0.107
    1UNL    C13   15  -0.045   0.176   0.041
    1UNL     O2   16  -0.132   0.244   0.082
    1UNL     O3   17   0.042   0.216  -0.055
    1UNL    C14   18   0.046   0.357  -0.075
    1UNL    C15   19   0.051   0.062   0.239
    1UNL     N2   20   0.175   0.070   0.250
    1UNL    C16   21   0.264   0.053   0.147
    1UNL    C17   22   0.398   0.091   0.164
    1UNL    C18   23   0.488   0.066   0.063
    1UNL    C19   24   0.445  -0.001  -0.054
    1UNL    C20   25   0.318  -0.034  -0.076
    1UNL    C21   26   0.221  -0.004   0.024
    1UNL     H1   27  -0.481   0.158  -0.136
    1UNL     H2   28  -0.383   0.079  -0.247
    1UNL     H3   29  -0.493  -0.023  -0.138
    1UNL     H4   30  -0.291   0.141   0.028
    1UNL     H5   31  -0.298  -0.185  -0.162
    1UNL     H6   32  -0.316  -0.257  -0.006
    1UNL     H7   33  -0.107  -0.147  -0.262
    1UNL     H8   34   0.037  -0.250  -0.217
    1UNL     H9   35   0.112  -0.004  -0.194
    1UNL    H10   36  -0.043   0.047  -0.133
    1UNL    H11   37  -0.041  -0.363   0.087
    1UNL    H12   38  -0.065  -0.173   0.275
    1UNL    H13   39  -0.216  -0.230   0.198
    1UNL    H14   40  -0.215   0.026   0.205
    1UNL    H15   41  -0.003   0.404   0.008
    1UNL    H16   42  -0.009   0.378  -0.170
    1UNL    H17   43   0.156   0.375  -0.075
    1UNL    H18   44  -0.001   0.089   0.323
    1UNL    H19   45   0.436   0.108   0.264
    1UNL    H20   46   0.589   0.106   0.072
    1UNL    H21   47   0.522  -0.030  -0.120
    1UNL    H22   48   0.297  -0.089  -0.167
   0.00000   0.00000   0.00000   0.00000   0.00000   0.00000   0.00000   0.00000   0.00000
Generated with MDTraj, t= 67.0
 48
    1UNL     C1    1  -0.404   0.072  -0.159
    1UNL     C2    2  -0.313   0.067  -0.037
    1UNL     C3    3  -0.242  -0.042  -0.002
    1UNL     C4    4  -0.256  -0.178  -0.066
    1UNL     N1    5  -0.123  -0.248  -0.068
    1UNL     C5    6  -0.039  -0.192  -0.173
    1UNL     C6    7   0.021  -0.054  -0.139
    1UNL     C7    8   0.084  -0.054   0.008
    1UNL     C8    9   0.072  -0.200   0.063
    1UNL     O1   10   0.166  -0.267   0.085
    1UNL     C9   11  -0.063  -0.255   0.073
    1UNL    C10   12  -0.131  -0.171   0.180
    1UNL    C11   13  -0.155  -0.035   0.122
    1UNL    C12   14  -0.012   0.031   0.099
    1UNL    C13   15  -0.035   0.177   0.055
    1UNL     O2   16  -0.136   0.232   0.087
    1UNL     O3   17   0.065   0.234  -0.020
    1UNL    C14   18   0.022   0.362  -0.071
    1UNL    C15   19   0.048   0.042   0.235
    1UNL     N2   20   0.170   0.062   0.253
    1UNL    C16   21   0.265   0.062   0.134
    1UNL    C17   22   0.399   0.097   0.145
    1UNL    C18   23   0.494   0.073   0.051
    1UNL    C19   24   0.460   0.010  -0.068
    1UNL    C20   25   0.323  -0.021  -0.080
    1UNL    C21   26   0.228  -0.004   0.013
    1UNL     H1   27  -0.443   0.178  -0.173
    1UNL     H2   28  -0.350   0.053  -0.253
    1UNL     H3   29  -0.485  -0.003  -0.142
    1UNL     H4   30  -0.299   0.148   0.028
    1UNL     H5   31  -0.284  -0.163  -0.175
    1UNL     H6   32  -0.327  -0.246  -0.025
    1UNL     H7   33  -0.100  -0.188  -0.265
    1UNL     H8   34   0.054  -0.259  -0.191
    1UNL     H9   35   0.104  -0.027  -0.201
    1UNL    H10   36  -0.057   0.021  -0.150
    1UNL    H11   37  -0.054  -0.362   0.107
    1UNL    H12   38  -0.063  -0.177   0.269
    1UNL    H13   39  -0.224  -0.221   0.204
    1UNL    H14   40  -0.206   0.038   0.196
    1UNL    H15   41   0.049   0.437   0.001
    1UNL    H16   42  -0.091   0.362  -0.077
    1UNL    H17   43   0.077   0.368  -0.173
    1UNL    H18   44  -0.024   0.032   0.324
    1UNL    H19   45   0.424   0.140   0.239
    1UNL    H20   46   0.599   0.091   0.068
    1UNL    H21   47   0.530  -0.003  -0.149
    1UNL    H22   48   0.296  -0.064  -0.173
   0.00000   0.00000   0.00000   0.00000   0.00000   0.00000   0.00000   0.00000   0.00000
Generated with MDTraj, t= 68.0
 48
    1UNL     C1    1  -0.379   0.072  -0.152
    1UNL     C2    2  -0.304   0.069  -0.032
    1UNL     C3    3  -0.239  -0.040   0.001
    1UNL     C4    4  -0.247  -0.160  -0.090
    1UNL     N1    5  -0.125  -0.243  -0.077
    1UNL     C5    6  -0.023  -0.193  -0.171
    1UNL     C6    7   0.023  -0.055  -0.135
    1UNL     C7    8   0.076  -0.063   0.011
    1UNL     C8    9   0.071  -0.206   0.069
    1UNL     O1   10   0.163  -0.266   0.111
    1UNL     C9   11  -0.068  -0.263   0.069
    1UNL    C10   12  -0.142  -0.185   0.181
    1UNL    C11   13  -0.156  -0.041   0.121
    1UNL    C12   14  -0.014   0.027   0.101
    1UNL    C13   15  -0.033   0.168   0.050
    1UNL     O2   16  -0.108   0.244   0.108
    1UNL     O3   17   0.044   0.207  -0.056
    1UNL    C14   18   0.044   0.352  -0.064
    1UNL    C15   19   0.063   0.044   0.235
    1UNL     N2   20   0.183   0.068   0.252
    1UNL    C16   21   0.259   0.057   0.136
    1UNL    C17   22   0.389   0.103   0.145
    1UNL    C18   23   0.472   0.095   0.038
    1UNL    C19   24   0.430   0.035  -0.073
    1UNL    C20   25   0.301  -0.023  -0.082
    1UNL    C21   26   0.218  -0.007   0.022
    1UNL     H1   27  -0.442   0.170  -0.152
    1UNL     H2   28  -0.319   0.089  -0.242
    1UNL     H3   29  -0.440  -0.019  -0.158
    1UNL     H4   30  -0.308   0.151   0.043
    1UNL     H5   31  -0.258  -0.133  -0.203
    1UNL     H6   32  -0.327  -0.220  -0.062
    1UNL     H7   33  -0.059  -0.187  -0.276
    1UNL     H8   34   0.065  -0.269  -0.170
    1UNL     H9   35   0.098  -0.027  -0.205
    1UNL    H10   36  -0.044   0.031  -0.135
    1UNL    H11   37  -0.080  -0.373   0.083
    1UNL    H12   38  -0.083  -0.192   0.275
    1UNL    H13   39  -0.239  -0.233   0.197
    1UNL    H14   40  -0.210   0.027   0.192
    1UNL    H15   41   0.056   0.389   0.036
    1UNL    H16   42  -0.057   0.387  -0.102
    1UNL    H17   43   0.134   0.366  -0.138
    1UNL    H18   44   0.004   0.039   0.318
    1UNL    H19   45   0.413   0.156   0.238
    1UNL    H20   46   0.576   0.126   0.046
    1UNL    H21   47   0.489   0.031  -0.165
    1UNL    H22   48   0.277  -0.072  -0.175
   0.00000   0.00000   0.00000   0.00000   0.00000   0.00000   0.00000   0.00000   0.00000
Generated with MDTraj, t= 69.0
 48
    1UNL     C1    1  -0.398   0.091  -0.153
    1UNL     C2    2  -0.297   0.079  -0.039
    1UNL     C3    3  -0.245  -0.035   0.007
    1UNL     C4    4  -0.259  -0.164  -0.075
    1UNL     N1    5  -0.137  -0.247  -0.070
    1UNL     C5    6  -0.045  -0.199  -0.182
    1UNL     C6    7   0.029  -0.068  -0.137
    1UNL     C7    8   0.083  -0.064   0.009
    1UNL     C8    9   0.075  -0.206   0.052
    1UNL     O1   10   0.176  -0.275   0.076
    1UNL     C9   11  -0.072  -0.255   0.064
    1UNL    C10   12  -0.142  -0.180   0.178
    1UNL    C11   13  -0.153  -0.035   0.134
    1UNL    C12   14  -0.009   0.024   0.106
    1UNL    C13   15  -0.017   0.164   0.050
    1UNL     O2   16  -0.084   0.245   0.113
    1UNL     O3   17   0.052   0.194  -0.065
    1UNL    C14   18   0.028   0.333  -0.094
    1UNL    C15   19   0.060   0.029   0.243
    1UNL     N2   20   0.181   0.062   0.264
    1UNL    C16   21   0.252   0.057   0.151
    1UNL    C17   22   0.371   0.131   0.152
    1UNL    C18   23   0.463   0.122   0.045
    1UNL    C19   24   0.439   0.043  -0.061
    1UNL    C20   25   0.324  -0.035  -0.062
    1UNL    C21   26   0.223  -0.011   0.028
    1UNL     H1   27  -0.444   0.199  -0.150
    1UNL     H2   28  -0.358   0.097  -0.256
    1UNL     H3   29  -0.471   0.012  -0.149
    1UNL     H4   30  -0.271   0.163   0.014
    1UNL     H5   31  -0.266  -0.141  -0.190
    1UNL     H6   32  -0.338  -0.225  -0.050
    1UNL     H7   33  -0.114  -0.178  -0.266
    1UNL     H8   34   0.029  -0.279  -0.214
    1UNL     H9   35   0.109  -0.033  -0.199
    1UNL    H10   36  -0.039   0.016  -0.145
    1UNL    H11   37  -0.062  -0.360   0.096
    1UNL    H12   38  -0.080  -0.196   0.267
    1UNL    H13   39  -0.240  -0.227   0.191
    1UNL    H14   40  -0.195   0.020   0.217
    1UNL    H15   41   0.043   0.388  -0.006
    1UNL    H16   42  -0.078   0.344  -0.125
    1UNL    H17   43   0.097   0.354  -0.185
    1UNL    H18   44   0.006   0.030   0.341
    1UNL    H19   45   0.403   0.187   0.236
    1UNL    H20   46   0.543   0.192   0.052
    1UNL    H21   47   0.511   0.031  -0.141
    1UNL    H22   48   0.304  -0.110  -0.144
   0.00000   0.00000   0.00000   0.00000   0.00000   0.00000   0.00000   0.00000   0.00000
Generated with MDTraj, t= 70.0
 48
    1UNL     C1    1  -0.395   0.106  -0.146
    1UNL     C2    2  -0.313   0.078  -0.023
    1UNL     C3    3  -0.241  -0.030   0.001
    1UNL     C4    4  -0.258  -0.157  -0.079
    1UNL     N1    5  -0.131  -0.242  -0.074
    1UNL     C5    6  -0.037  -0.191  -0.182
    1UNL     C6    7   0.033  -0.063  -0.132
    1UNL     C7    8   0.081  -0.064   0.013
    1UNL     C8    9   0.071  -0.207   0.054
    1UNL     O1   10   0.165  -0.279   0.080
    1UNL     C9   11  -0.067  -0.267   0.066
    1UNL    C10   12  -0.144  -0.188   0.176
    1UNL    C11   13  -0.158  -0.043   0.125
    1UNL    C12   14  -0.013   0.021   0.107
    1UNL    C13   15  -0.028   0.166   0.045
    1UNL     O2   16  -0.110   0.239   0.103
    1UNL     O3   17   0.043   0.191  -0.065
    1UNL    C14   18   0.011   0.322  -0.110
    1UNL    C15   19   0.056   0.044   0.240
    1UNL     N2   20   0.185   0.069   0.271
    1UNL    C16   21   0.275   0.051   0.155
    1UNL    C17   22   0.401   0.106   0.158
    1UNL    C18   23   0.484   0.119   0.044
    1UNL    C19   24   0.448   0.045  -0.066
    1UNL    C20   25   0.325  -0.019  -0.063
    1UNL    C21   26   0.230  -0.011   0.038
    1UNL     H1   27  -0.406   0.220  -0.153
    1UNL     H2   28  -0.341   0.090  -0.242
    1UNL     H3   29  -0.488   0.050  -0.149
    1UNL     H4   30  -0.318   0.159   0.053
    1UNL     H5   31  -0.276  -0.134  -0.188
    1UNL     H6   32  -0.329  -0.224  -0.041
    1UNL     H7   33  -0.090  -0.161  -0.276
    1UNL     H8   34   0.033  -0.279  -0.197
    1UNL     H9   35   0.107  -0.026  -0.199
    1UNL    H10   36  -0.040   0.018  -0.136
    1UNL    H11   37  -0.055  -0.373   0.085
    1UNL    H12   38  -0.078  -0.189   0.261
    1UNL    H13   39  -0.242  -0.231   0.203
    1UNL    H14   40  -0.207   0.017   0.196
    1UNL    H15   41   0.063   0.389  -0.053
    1UNL    H16   42  -0.094   0.339  -0.101
    1UNL    H17   43   0.033   0.321  -0.222
    1UNL    H18   44  -0.011   0.063   0.320
    1UNL    H19   45   0.429   0.165   0.247
    1UNL    H20   46   0.579   0.173   0.048
    1UNL    H21   47   0.503   0.057  -0.158
    1UNL    H22   48   0.309  -0.096  -0.129
   0.00000   0.00000   0.00000   0.00000   0.00000   0.00000   0.00000   0.00000   0.00000
Generated with MDTraj, t= 71.0
 48
    1UNL     C1    1  -0.402   0.082  -0.134
    1UNL     C2    2  -0.318   0.060  -0.016
    1UNL     C3    3  -0.241  -0.044  -0.002
    1UNL     C4    4  -0.249  -0.171  -0.087
    1UNL     N1    5  -0.124  -0.247  -0.079
    1UNL     C5    6  -0.022  -0.192  -0.175
    1UNL     C6    7   0.030  -0.053  -0.137
    1UNL     C7    8   0.079  -0.048   0.008
    1UNL     C8    9   0.078  -0.194   0.064
    1UNL     O1   10   0.172  -0.250   0.102
    1UNL     C9   11  -0.058  -0.261   0.061
    1UNL    C10   12  -0.133  -0.183   0.169
    1UNL    C11   13  -0.149  -0.040   0.121
    1UNL    C12   14  -0.013   0.040   0.098
    1UNL    C13   15  -0.038   0.181   0.047
    1UNL     O2   16  -0.112   0.257   0.113
    1UNL     O3   17   0.032   0.216  -0.067
    1UNL    C14   18   0.001   0.348  -0.100
    1UNL    C15   19   0.059   0.050   0.231
    1UNL     N2   20   0.187   0.060   0.254
    1UNL    C16   21   0.263   0.052   0.144
    1UNL    C17   22   0.399   0.089   0.162
    1UNL    C18   23   0.487   0.066   0.061
    1UNL    C19   24   0.444   0.014  -0.060
    1UNL    C20   25   0.317  -0.033  -0.078
    1UNL    C21   26   0.217  -0.002   0.023
    1UNL     H1   27  -0.457   0.176  -0.117
    1UNL     H2   28  -0.340   0.118  -0.222
    1UNL     H3   29  -0.462  -0.006  -0.162
    1UNL     H4   30  -0.318   0.139   0.052
    1UNL     H5   31  -0.254  -0.148  -0.192
    1UNL     H6   32  -0.330  -0.234  -0.055
    1UNL     H7   33  -0.086  -0.187  -0.266
    1UNL     H8   34   0.065  -0.264  -0.178
    1UNL     H9   35   0.108  -0.023  -0.207
    1UNL    H10   36  -0.048   0.021  -0.149
    1UNL    H11   37  -0.061  -0.367   0.076
    1UNL    H12   38  -0.083  -0.180   0.263
    1UNL    H13   39  -0.233  -0.229   0.183
    1UNL    H14   40  -0.195   0.016   0.193
    1UNL    H15   41   0.002   0.403  -0.014
    1UNL    H16   42  -0.083   0.347  -0.166
    1UNL    H17   43   0.085   0.376  -0.168
    1UNL    H18   44   0.003   0.042   0.330
    1UNL    H19   45   0.425   0.129   0.256
    1UNL    H20   46   0.587   0.099   0.064
    1UNL    H21   47   0.517  -0.020  -0.132
    1UNL    H22   48   0.287  -0.096  -0.167
   0.00000   0.00000   0.00000   0.00000   0.00000   0.00000   0.00000   0.00000   0.00000
Generated with MDTraj, t= 72.0
 48
    1UNL     C1    1  -0.423   0.044  -0.136
    1UNL     C2    2  -0.319   0.061  -0.036
    1UNL     C3    3  -0.240  -0.036  -0.002
    1UNL     C4    4  -0.252  -0.169  -0.075
    1UNL     N1    5  -0.122  -0.238  -0.078
    1UNL     C5    6  -0.031  -0.186  -0.188
    1UNL     C6    7   0.028  -0.048  -0.141
    1UNL     C7    8   0.089  -0.052   0.011
    1UNL     C8    9   0.080  -0.197   0.056
    1UNL     O1   10   0.176  -0.268   0.072
    1UNL     C9   11  -0.065  -0.248   0.062
    1UNL    C10   12  -0.133  -0.162   0.174
    1UNL    C11   13  -0.150  -0.023   0.124
    1UNL    C12   14  -0.004   0.037   0.107
    1UNL    C13   15  -0.040   0.178   0.051
    1UNL     O2   16  -0.133   0.239   0.107
    1UNL     O3   17   0.030   0.224  -0.059
    1UNL    C14   18  -0.004   0.359  -0.082
    1UNL    C15   19   0.057   0.056   0.241
    1UNL     N2   20   0.185   0.084   0.254
    1UNL    C16   21   0.266   0.065   0.138
    1UNL    C17   22   0.404   0.083   0.160
    1UNL    C18   23   0.499   0.044   0.071
    1UNL    C19   24   0.462  -0.013  -0.054
    1UNL    C20   25   0.330  -0.031  -0.074
    1UNL    C21   26   0.232  -0.001   0.020
    1UNL     H1   27  -0.486   0.131  -0.129
    1UNL     H2   28  -0.385   0.065  -0.241
    1UNL     H3   29  -0.474  -0.058  -0.131
    1UNL     H4   30  -0.315   0.158   0.017
    1UNL     H5   31  -0.283  -0.148  -0.169
    1UNL     H6   32  -0.318  -0.238  -0.020
    1UNL     H7   33  -0.099  -0.177  -0.276
    1UNL     H8   34   0.045  -0.268  -0.187
    1UNL     H9   35   0.115  -0.029  -0.206
    1UNL    H10   36  -0.040   0.034  -0.161
    1UNL    H11   37  -0.061  -0.351   0.089
    1UNL    H12   38  -0.077  -0.166   0.264
    1UNL    H13   39  -0.234  -0.199   0.197
    1UNL    H14   40  -0.202   0.039   0.188
    1UNL    H15   41   0.016   0.409   0.006
    1UNL    H16   42  -0.103   0.360  -0.126
    1UNL    H17   43   0.063   0.399  -0.163
    1UNL    H18   44  -0.002   0.072   0.325
    1UNL    H19   45   0.432   0.139   0.250
    1UNL    H20   46   0.605   0.052   0.101
    1UNL    H21   47   0.539  -0.050  -0.121
    1UNL    H22   48   0.305  -0.083  -0.167
   0.00000   0.00000   0.00000   0.00000   0.00000   0.00000   0.00000   0.00000   0.00000
Generated with MDTraj, t= 73.0
 48
    1UNL     C1    1  -0.420   0.087  -0.121
    1UNL     C2    2  -0.331   0.061  -0.001
    1UNL     C3    3  -0.244  -0.035   0.008
    1UNL     C4    4  -0.242  -0.171  -0.067
    1UNL     N1    5  -0.112  -0.236  -0.078
    1UNL     C5    6  -0.028  -0.173  -0.190
    1UNL     C6    7   0.031  -0.041  -0.147
    1UNL     C7    8   0.081  -0.050   0.005
    1UNL     C8    9   0.082  -0.197   0.051
    1UNL     O1   10   0.182  -0.268   0.079
    1UNL     C9   11  -0.051  -0.263   0.060
    1UNL    C10   12  -0.122  -0.185   0.175
    1UNL    C11   13  -0.151  -0.039   0.127
    1UNL    C12   14  -0.015   0.033   0.101
    1UNL    C13   15  -0.041   0.175   0.037
    1UNL     O2   16  -0.139   0.234   0.076
    1UNL     O3   17   0.043   0.217  -0.059
    1UNL    C14   18   0.022   0.349  -0.093
    1UNL    C15   19   0.048   0.057   0.228
    1UNL     N2   20   0.172   0.077   0.253
    1UNL    C16   21   0.264   0.062   0.144
    1UNL    C17   22   0.399   0.095   0.165
    1UNL    C18   23   0.488   0.059   0.070
    1UNL    C19   24   0.449  -0.013  -0.046
    1UNL    C20   25   0.315  -0.031  -0.072
    1UNL    C21   26   0.226  -0.004   0.024
    1UNL     H1   27  -0.397   0.184  -0.158
    1UNL     H2   28  -0.386   0.024  -0.208
    1UNL     H3   29  -0.532   0.064  -0.103
    1UNL     H4   30  -0.334   0.137   0.074
    1UNL     H5   31  -0.275  -0.163  -0.162
    1UNL     H6   32  -0.309  -0.235  -0.007
    1UNL     H7   33  -0.101  -0.162  -0.273
    1UNL     H8   34   0.050  -0.250  -0.207
    1UNL     H9   35   0.117  -0.024  -0.214
    1UNL    H10   36  -0.029   0.048  -0.157
    1UNL    H11   37  -0.034  -0.367   0.071
    1UNL    H12   38  -0.058  -0.180   0.260
    1UNL    H13   39  -0.211  -0.234   0.215
    1UNL    H14   40  -0.203   0.009   0.204
    1UNL    H15   41   0.074   0.413  -0.025
    1UNL    H16   42  -0.087   0.366  -0.110
    1UNL    H17   43   0.064   0.368  -0.198
    1UNL    H18   44  -0.023   0.076   0.314
    1UNL    H19   45   0.422   0.147   0.258
    1UNL    H20   46   0.592   0.085   0.075
    1UNL    H21   47   0.529  -0.037  -0.111
    1UNL    H22   48   0.287  -0.085  -0.154
   0.00000   0.00000   0.00000   0.00000   0.00000   0.00000   0.00000   0.00000   0.00000
Generated with MDTraj, t= 74.0
 48
    1UNL     C1    1  -0.442   0.091  -0.110
    1UNL     C2    2  -0.332   0.063  -0.006
    1UNL     C3    3  -0.244  -0.032  -0.001
    1UNL     C4    4  -0.244  -0.158  -0.085
    1UNL     N1    5  -0.125  -0.237  -0.077
    1UNL     C5    6  -0.023  -0.192  -0.183
    1UNL     C6    7   0.037  -0.061  -0.149
    1UNL     C7    8   0.084  -0.061   0.006
    1UNL     C8    9   0.081  -0.211   0.057
    1UNL     O1   10   0.173  -0.281   0.088
    1UNL     C9   11  -0.061  -0.261   0.062
    1UNL    C10   12  -0.142  -0.183   0.166
    1UNL    C11   13  -0.150  -0.038   0.119
    1UNL    C12   14  -0.008   0.030   0.097
    1UNL    C13   15  -0.027   0.172   0.046
    1UNL     O2   16  -0.114   0.240   0.095
    1UNL     O3   17   0.059   0.204  -0.056
    1UNL    C14   18   0.034   0.332  -0.102
    1UNL    C15   19   0.055   0.054   0.236
    1UNL     N2   20   0.178   0.074   0.254
    1UNL    C16   21   0.260   0.063   0.146
    1UNL    C17   22   0.393   0.111   0.167
    1UNL    C18   23   0.479   0.091   0.063
    1UNL    C19   24   0.445   0.029  -0.056
    1UNL    C20   25   0.317  -0.027  -0.076
    1UNL    C21   26   0.226  -0.011   0.027
    1UNL     H1   27  -0.420   0.184  -0.158
    1UNL     H2   28  -0.430   0.019  -0.194
    1UNL     H3   29  -0.549   0.082  -0.067
    1UNL     H4   30  -0.317   0.147   0.062
    1UNL     H5   31  -0.268  -0.132  -0.187
    1UNL     H6   32  -0.317  -0.230  -0.045
    1UNL     H7   33  -0.082  -0.186  -0.277
    1UNL     H8   34   0.049  -0.272  -0.192
    1UNL     H9   35   0.116  -0.017  -0.214
    1UNL    H10   36  -0.040   0.015  -0.155
    1UNL    H11   37  -0.069  -0.366   0.072
    1UNL    H12   38  -0.101  -0.185   0.266
    1UNL    H13   39  -0.241  -0.224   0.182
    1UNL    H14   40  -0.195   0.015   0.200
    1UNL    H15   41   0.014   0.404  -0.022
    1UNL    H16   42  -0.050   0.322  -0.179
    1UNL    H17   43   0.123   0.376  -0.157
    1UNL    H18   44   0.003   0.054   0.325
    1UNL    H19   45   0.427   0.139   0.263
    1UNL    H20   46   0.575   0.143   0.059
    1UNL    H21   47   0.516   0.013  -0.136
    1UNL    H22   48   0.293  -0.077  -0.177
   0.00000   0.00000   0.00000   0.00000   0.00000   0.00000   0.00000   0.00000   0.00000
Generated with MDTraj, t= 75.0
 48
    1UNL     C1    1  -0.434   0.074  -0.121
    1UNL     C2    2  -0.325   0.071  -0.023
    1UNL     C3    3  -0.244  -0.025  -0.002
    1UNL     C4    4  -0.253  -0.158  -0.084
    1UNL     N1    5  -0.132  -0.241  -0.078
    1UNL     C5    6  -0.030  -0.195  -0.187
    1UNL     C6    7   0.034  -0.066  -0.135
    1UNL     C7    8   0.089  -0.067   0.016
    1UNL     C8    9   0.075  -0.213   0.059
    1UNL     O1   10   0.164  -0.279   0.096
    1UNL     C9   11  -0.072  -0.256   0.056
    1UNL    C10   12  -0.153  -0.172   0.161
    1UNL    C11   13  -0.153  -0.023   0.120
    1UNL    C12   14  -0.003   0.029   0.108
    1UNL    C13   15  -0.023   0.168   0.049
    1UNL     O2   16  -0.104   0.236   0.105
    1UNL     O3   17   0.058   0.201  -0.062
    1UNL    C14   18   0.040   0.333  -0.098
    1UNL    C15   19   0.059   0.040   0.250
    1UNL     N2   20   0.183   0.046   0.268
    1UNL    C16   21   0.267   0.051   0.144
    1UNL    C17   22   0.386   0.119   0.150
    1UNL    C18   23   0.470   0.130   0.041
    1UNL    C19   24   0.447   0.045  -0.064
    1UNL    C20   25   0.327  -0.029  -0.072
    1UNL    C21   26   0.237  -0.019   0.027
    1UNL     H1   27  -0.445   0.174  -0.164
    1UNL     H2   28  -0.407   0.015  -0.210
    1UNL     H3   29  -0.534   0.044  -0.073
    1UNL     H4   30  -0.315   0.165   0.031
    1UNL     H5   31  -0.270  -0.138  -0.194
    1UNL     H6   32  -0.336  -0.212  -0.045
    1UNL     H7   33  -0.081  -0.171  -0.283
    1UNL     H8   34   0.039  -0.274  -0.206
    1UNL     H9   35   0.122  -0.043  -0.198
    1UNL    H10   36  -0.032   0.019  -0.144
    1UNL    H11   37  -0.067  -0.358   0.083
    1UNL    H12   38  -0.102  -0.179   0.258
    1UNL    H13   39  -0.251  -0.207   0.185
    1UNL    H14   40  -0.199   0.050   0.188
    1UNL    H15   41   0.064   0.404  -0.015
    1UNL    H16   42  -0.069   0.345  -0.127
    1UNL    H17   43   0.109   0.370  -0.179
    1UNL    H18   44  -0.012   0.059   0.338
    1UNL    H19   45   0.412   0.176   0.241
    1UNL    H20   46   0.564   0.177   0.060
    1UNL    H21   47   0.507   0.038  -0.153
    1UNL    H22   48   0.318  -0.093  -0.156
   0.00000   0.00000   0.00000   0.00000   0.00000   0.00000   0.00000   0.00000   0.00000
Generated with MDTraj, t= 76.0
 48
    1UNL     C1    1  -0.378   0.096  -0.143
    1UNL     C2    2  -0.308   0.069  -0.014
    1UNL     C3    3  -0.239  -0.038  -0.000
    1UNL     C4    4  -0.253  -0.166  -0.074
    1UNL     N1    5  -0.137  -0.253  -0.070
    1UNL     C5    6  -0.039  -0.202  -0.172
    1UNL     C6    7   0.018  -0.060  -0.138
    1UNL     C7    8   0.077  -0.060   0.010
    1UNL     C8    9   0.069  -0.203   0.055
    1UNL     O1   10   0.175  -0.257   0.083
    1UNL     C9   11  -0.068  -0.270   0.061
    1UNL    C10   12  -0.136  -0.198   0.171
    1UNL    C11   13  -0.152  -0.048   0.127
    1UNL    C12   14  -0.014   0.028   0.105
    1UNL    C13   15  -0.031   0.173   0.045
    1UNL     O2   16  -0.109   0.241   0.104
    1UNL     O3   17   0.050   0.204  -0.062
    1UNL    C14   18   0.054   0.337  -0.086
    1UNL    C15   19   0.054   0.049   0.237
    1UNL     N2   20   0.175   0.067   0.256
    1UNL    C16   21   0.261   0.058   0.148
    1UNL    C17   22   0.384   0.120   0.150
    1UNL    C18   23   0.477   0.098   0.045
    1UNL    C19   24   0.437   0.035  -0.064
    1UNL    C20   25   0.310  -0.020  -0.078
    1UNL    C21   26   0.218  -0.002   0.026
    1UNL     H1   27  -0.468   0.165  -0.132
    1UNL     H2   28  -0.309   0.144  -0.212
    1UNL     H3   29  -0.425   0.001  -0.177
    1UNL     H4   30  -0.305   0.143   0.065
    1UNL     H5   31  -0.280  -0.142  -0.186
    1UNL     H6   32  -0.329  -0.223  -0.027
    1UNL     H7   33  -0.095  -0.192  -0.268
    1UNL     H8   34   0.042  -0.267  -0.191
    1UNL     H9   35   0.098  -0.031  -0.209
    1UNL    H10   36  -0.063   0.013  -0.145
    1UNL    H11   37  -0.048  -0.372   0.077
    1UNL    H12   38  -0.086  -0.208   0.269
    1UNL    H13   39  -0.232  -0.241   0.183
    1UNL    H14   40  -0.207   0.009   0.206
    1UNL    H15   41   0.126   0.386  -0.017
    1UNL    H16   42  -0.045   0.381  -0.067
    1UNL    H17   43   0.093   0.365  -0.183
    1UNL    H18   44  -0.008   0.072   0.314
    1UNL    H19   45   0.407   0.169   0.241
    1UNL    H20   46   0.581   0.130   0.061
    1UNL    H21   47   0.518   0.015  -0.133
    1UNL    H22   48   0.278  -0.058  -0.172
   0.00000   0.00000   0.00000   0.00000   0.00000   0.00000   0.00000   0.00000   0.00000
Generated with MDTraj, t= 77.0
 48
    1UNL     C1    1  -0.377   0.080  -0.177
    1UNL     C2    2  -0.296   0.065  -0.043
    1UNL     C3    3  -0.241  -0.041   0.007
    1UNL     C4    4  -0.260  -0.171  -0.065
    1UNL     N1    5  -0.133  -0.247  -0.072
    1UNL     C5    6  -0.045  -0.188  -0.173
    1UNL     C6    7   0.020  -0.051  -0.133
    1UNL     C7    8   0.082  -0.054   0.014
    1UNL     C8    9   0.073  -0.201   0.057
    1UNL     O1   10   0.174  -0.266   0.073
    1UNL     C9   11  -0.064  -0.266   0.067
    1UNL    C10   12  -0.140  -0.187   0.178
    1UNL    C11   13  -0.153  -0.036   0.127
    1UNL    C12   14  -0.008   0.031   0.109
    1UNL    C13   15  -0.032   0.173   0.059
    1UNL     O2   16  -0.120   0.232   0.118
    1UNL     O3   17   0.040   0.223  -0.051
    1UNL    C14   18   0.007   0.351  -0.080
    1UNL    C15   19   0.070   0.057   0.236
    1UNL     N2   20   0.191   0.075   0.260
    1UNL    C16   21   0.269   0.053   0.142
    1UNL    C17   22   0.394   0.105   0.148
    1UNL    C18   23   0.483   0.081   0.047
    1UNL    C19   24   0.445   0.009  -0.067
    1UNL    C20   25   0.315  -0.025  -0.081
    1UNL    C21   26   0.220  -0.003   0.027
    1UNL     H1   27  -0.480   0.133  -0.165
    1UNL     H2   28  -0.319   0.130  -0.257
    1UNL     H3   29  -0.413  -0.019  -0.203
    1UNL     H4   30  -0.291   0.156   0.019
    1UNL     H5   31  -0.287  -0.160  -0.178
    1UNL     H6   32  -0.329  -0.236  -0.017
    1UNL     H7   33  -0.099  -0.166  -0.266
    1UNL     H8   34   0.029  -0.256  -0.206
    1UNL     H9   35   0.096  -0.025  -0.207
    1UNL    H10   36  -0.062   0.022  -0.147
    1UNL    H11   37  -0.058  -0.370   0.080
    1UNL    H12   38  -0.088  -0.183   0.276
    1UNL    H13   39  -0.237  -0.226   0.199
    1UNL    H14   40  -0.212   0.025   0.205
    1UNL    H15   41   0.010   0.411   0.013
    1UNL    H16   42  -0.091   0.361  -0.122
    1UNL    H17   43   0.082   0.396  -0.137
    1UNL    H18   44   0.002   0.066   0.329
    1UNL    H19   45   0.438   0.157   0.237
    1UNL    H20   46   0.584   0.107   0.062
    1UNL    H21   47   0.516  -0.001  -0.144
    1UNL    H22   48   0.283  -0.083  -0.169
   0.00000   0.00000   0.00000   0.00000   0.00000   0.00000   0.00000   0.00000   0.00000
Generated with MDTraj, t= 78.0
 48
    1UNL     C1    1  -0.400   0.083  -0.162
    1UNL     C2    2  -0.304   0.070  -0.040
    1UNL     C3    3  -0.245  -0.039   0.002
    1UNL     C4    4  -0.247  -0.168  -0.075
    1UNL     N1    5  -0.117  -0.242  -0.071
    1UNL     C5    6  -0.032  -0.190  -0.187
    1UNL     C6    7   0.023  -0.055  -0.137
    1UNL     C7    8   0.076  -0.052   0.012
    1UNL     C8    9   0.084  -0.198   0.063
    1UNL     O1   10   0.182  -0.257   0.091
    1UNL     C9   11  -0.055  -0.250   0.069
    1UNL    C10   12  -0.138  -0.178   0.178
    1UNL    C11   13  -0.158  -0.030   0.131
    1UNL    C12   14  -0.011   0.029   0.107
    1UNL    C13   15  -0.039   0.174   0.055
    1UNL     O2   16  -0.124   0.232   0.120
    1UNL     O3   17   0.033   0.230  -0.053
    1UNL    C14   18  -0.012   0.357  -0.088
    1UNL    C15   19   0.065   0.049   0.241
    1UNL     N2   20   0.188   0.047   0.261
    1UNL    C16   21   0.269   0.049   0.141
    1UNL    C17   22   0.394   0.093   0.147
    1UNL    C18   23   0.487   0.069   0.051
    1UNL    C19   24   0.451   0.001  -0.067
    1UNL    C20   25   0.325  -0.032  -0.080
    1UNL    C21   26   0.221  -0.001   0.015
    1UNL     H1   27  -0.380   0.166  -0.240
    1UNL     H2   28  -0.404  -0.010  -0.223
    1UNL     H3   29  -0.494   0.112  -0.121
    1UNL     H4   30  -0.293   0.157   0.016
    1UNL     H5   31  -0.259  -0.154  -0.188
    1UNL     H6   32  -0.321  -0.239  -0.042
    1UNL     H7   33  -0.077  -0.183  -0.286
    1UNL     H8   34   0.052  -0.252  -0.207
    1UNL     H9   35   0.102  -0.025  -0.206
    1UNL    H10   36  -0.053   0.025  -0.149
    1UNL    H11   37  -0.051  -0.351   0.095
    1UNL    H12   38  -0.080  -0.168   0.271
    1UNL    H13   39  -0.231  -0.225   0.199
    1UNL    H14   40  -0.215   0.039   0.208
    1UNL    H15   41  -0.009   0.416   0.005
    1UNL    H16   42  -0.114   0.358  -0.116
    1UNL    H17   43   0.053   0.406  -0.151
    1UNL    H18   44   0.001   0.069   0.317
    1UNL    H19   45   0.424   0.136   0.237
    1UNL    H20   46   0.591   0.100   0.067
    1UNL    H21   47   0.519  -0.006  -0.157
    1UNL    H22   48   0.289  -0.092  -0.163
   0.00000   0.00000   0.00000   0.00000   0.00000   0.00000   0.00000   0.00000   0.00000
Generated with MDTraj, t= 79.0
 48
    1UNL     C1    1  -0.412   0.089  -0.124
    1UNL     C2    2  -0.316   0.068  -0.012
    1UNL     C3    3  -0.245  -0.040   0.009
    1UNL     C4    4  -0.245  -0.156  -0.082
    1UNL     N1    5  -0.121  -0.239  -0.075
    1UNL     C5    6  -0.027  -0.181  -0.179
    1UNL     C6    7   0.032  -0.047  -0.140
    1UNL     C7    8   0.081  -0.056   0.006
    1UNL     C8    9   0.082  -0.201   0.055
    1UNL     O1   10   0.175  -0.270   0.087
    1UNL     C9   11  -0.062  -0.267   0.057
    1UNL    C10   12  -0.129  -0.199   0.175
    1UNL    C11   13  -0.147  -0.046   0.127
    1UNL    C12   14  -0.018   0.031   0.094
    1UNL    C13   15  -0.044   0.167   0.040
    1UNL     O2   16  -0.111   0.239   0.113
    1UNL     O3   17   0.030   0.202  -0.069
    1UNL    C14   18   0.021   0.334  -0.103
    1UNL    C15   19   0.057   0.060   0.225
    1UNL     N2   20   0.174   0.080   0.250
    1UNL    C16   21   0.260   0.056   0.149
    1UNL    C17   22   0.396   0.090   0.168
    1UNL    C18   23   0.489   0.065   0.069
    1UNL    C19   24   0.447   0.021  -0.057
    1UNL    C20   25   0.316  -0.011  -0.079
    1UNL    C21   26   0.222   0.005   0.022
    1UNL     H1   27  -0.414   0.022  -0.213
    1UNL     H2   28  -0.520   0.084  -0.089
    1UNL     H3   29  -0.388   0.187  -0.160
    1UNL     H4   30  -0.309   0.152   0.060
    1UNL     H5   31  -0.261  -0.133  -0.186
    1UNL     H6   32  -0.319  -0.226  -0.042
    1UNL     H7   33  -0.080  -0.174  -0.273
    1UNL     H8   34   0.048  -0.251  -0.208
    1UNL     H9   35   0.111  -0.010  -0.205
    1UNL    H10   36  -0.041   0.037  -0.157
    1UNL    H11   37  -0.047  -0.370   0.070
    1UNL    H12   38  -0.072  -0.205   0.266
    1UNL    H13   39  -0.230  -0.235   0.187
    1UNL    H14   40  -0.206   0.015   0.211
    1UNL    H15   41   0.092   0.392  -0.039
    1UNL    H16   42  -0.076   0.374  -0.079
    1UNL    H17   43   0.053   0.345  -0.200
    1UNL    H18   44  -0.014   0.102   0.308
    1UNL    H19   45   0.428   0.134   0.264
    1UNL    H20   46   0.594   0.092   0.070
    1UNL    H21   47   0.530   0.014  -0.124
    1UNL    H22   48   0.285  -0.047  -0.175
   0.00000   0.00000   0.00000   0.00000   0.00000   0.00000   0.00000   0.00000   0.00000
Generated with MDTraj, t= 80.0
 48
    1UNL     C1    1  -0.439   0.070  -0.104
    1UNL     C2    2  -0.326   0.067  -0.003
    1UNL     C3    3  -0.243  -0.035   0.006
    1UNL     C4    4  -0.252  -0.156  -0.082
    1UNL     N1    5  -0.124  -0.227  -0.077
    1UNL     C5    6  -0.031  -0.175  -0.183
    1UNL     C6    7   0.038  -0.052  -0.138
    1UNL     C7    8   0.090  -0.059   0.009
    1UNL     C8    9   0.077  -0.206   0.050
    1UNL     O1   10   0.172  -0.283   0.061
    1UNL     C9   11  -0.065  -0.255   0.060
    1UNL    C10   12  -0.131  -0.181   0.173
    1UNL    C11   13  -0.150  -0.039   0.121
    1UNL    C12   14  -0.014   0.031   0.096
    1UNL    C13   15  -0.026   0.174   0.044
    1UNL     O2   16  -0.115   0.242   0.097
    1UNL     O3   17   0.055   0.212  -0.063
    1UNL    C14   18   0.019   0.335  -0.122
    1UNL    C15   19   0.051   0.045   0.240
    1UNL     N2   20   0.173   0.052   0.263
    1UNL    C16   21   0.258   0.052   0.143
    1UNL    C17   22   0.386   0.112   0.161
    1UNL    C18   23   0.480   0.100   0.067
    1UNL    C19   24   0.462   0.019  -0.044
    1UNL    C20   25   0.334  -0.030  -0.067
    1UNL    C21   26   0.234  -0.014   0.025
    1UNL     H1   27  -0.537   0.040  -0.069
    1UNL     H2   28  -0.457   0.178  -0.140
    1UNL     H3   29  -0.403   0.014  -0.189
    1UNL     H4   30  -0.312   0.144   0.064
    1UNL     H5   31  -0.265  -0.127  -0.180
    1UNL     H6   32  -0.334  -0.220  -0.045
    1UNL     H7   33  -0.077  -0.167  -0.279
    1UNL     H8   34   0.042  -0.252  -0.203
    1UNL     H9   35   0.117  -0.028  -0.210
    1UNL    H10   36  -0.028   0.037  -0.153
    1UNL    H11   37  -0.067  -0.361   0.063
    1UNL    H12   38  -0.069  -0.176   0.260
    1UNL    H13   39  -0.231  -0.222   0.193
    1UNL    H14   40  -0.206   0.026   0.203
    1UNL    H15   41   0.026   0.421  -0.045
    1UNL    H16   42  -0.089   0.328  -0.141
    1UNL    H17   43   0.083   0.354  -0.204
    1UNL    H18   44  -0.018   0.050   0.313
    1UNL    H19   45   0.398   0.178   0.243
    1UNL    H20   46   0.576   0.145   0.092
    1UNL    H21   47   0.537  -0.005  -0.115
    1UNL    H22   48   0.315  -0.088  -0.154
   0.00000   0.00000   0.00000   0.00000   0.00000   0.00000   0.00000   0.00000   0.00000
Generated with MDTraj, t= 81.0
 48
    1UNL     C1    1  -0.444   0.077  -0.102
    1UNL     C2    2  -0.330   0.067  -0.002
    1UNL     C3    3  -0.247  -0.036   0.004
    1UNL     C4    4  -0.246  -0.151  -0.096
    1UNL     N1    5  -0.120  -0.236  -0.089
    1UNL     C5    6  -0.020  -0.180  -0.186
    1UNL     C6    7   0.038  -0.050  -0.130
    1UNL     C7    8   0.087  -0.061   0.015
    1UNL     C8    9   0.078  -0.209   0.055
    1UNL     O1   10   0.173  -0.271   0.093
    1UNL     C9   11  -0.065  -0.261   0.048
    1UNL    C10   12  -0.147  -0.187   0.159
    1UNL    C11   13  -0.159  -0.039   0.127
    1UNL    C12   14  -0.009   0.026   0.106
    1UNL    C13   15  -0.031   0.170   0.047
    1UNL     O2   16  -0.132   0.229   0.084
    1UNL     O3   17   0.052   0.207  -0.051
    1UNL    C14   18   0.036   0.339  -0.093
    1UNL    C15   19   0.053   0.051   0.244
    1UNL     N2   20   0.180   0.072   0.249
    1UNL    C16   21   0.267   0.062   0.143
    1UNL    C17   22   0.393   0.111   0.152
    1UNL    C18   23   0.491   0.090   0.055
    1UNL    C19   24   0.455   0.030  -0.061
    1UNL    C20   25   0.327  -0.029  -0.073
    1UNL    C21   26   0.236  -0.018   0.028
    1UNL     H1   27  -0.466   0.179  -0.123
    1UNL     H2   28  -0.410   0.038  -0.204
    1UNL     H3   29  -0.529   0.013  -0.071
    1UNL     H4   30  -0.314   0.148   0.072
    1UNL     H5   31  -0.264  -0.111  -0.188
    1UNL     H6   32  -0.329  -0.219  -0.068
    1UNL     H7   33  -0.069  -0.168  -0.279
    1UNL     H8   34   0.056  -0.256  -0.202
    1UNL     H9   35   0.120  -0.019  -0.196
    1UNL    H10   36  -0.042   0.027  -0.136
    1UNL    H11   37  -0.073  -0.368   0.048
    1UNL    H12   38  -0.098  -0.194   0.252
    1UNL    H13   39  -0.250  -0.226   0.168
    1UNL    H14   40  -0.215   0.024   0.209
    1UNL    H15   41  -0.002   0.411  -0.007
    1UNL    H16   42  -0.048   0.334  -0.166
    1UNL    H17   43   0.134   0.375  -0.128
    1UNL    H18   44  -0.011   0.068   0.337
    1UNL    H19   45   0.423   0.150   0.249
    1UNL    H20   46   0.589   0.132   0.063
    1UNL    H21   47   0.520  -0.003  -0.143
    1UNL    H22   48   0.316  -0.097  -0.162
   0.00000   0.00000   0.00000   0.00000   0.00000   0.00000   0.00000   0.00000   0.00000
Generated with MDTraj, t= 82.0
 48
    1UNL     C1    1  -0.424   0.082  -0.129
    1UNL     C2    2  -0.334   0.057  -0.012
    1UNL     C3    3  -0.245  -0.042   0.001
    1UNL     C4    4  -0.249  -0.166  -0.082
    1UNL     N1    5  -0.122  -0.247  -0.072
    1UNL     C5    6  -0.028  -0.189  -0.183
    1UNL     C6    7   0.025  -0.044  -0.144
    1UNL     C7    8   0.082  -0.062   0.002
    1UNL     C8    9   0.083  -0.204   0.053
    1UNL     O1   10   0.185  -0.257   0.083
    1UNL     C9   11  -0.057  -0.267   0.058
    1UNL    C10   12  -0.137  -0.200   0.167
    1UNL    C11   13  -0.153  -0.044   0.124
    1UNL    C12   14  -0.015   0.030   0.099
    1UNL    C13   15  -0.034   0.171   0.051
    1UNL     O2   16  -0.130   0.240   0.087
    1UNL     O3   17   0.059   0.224  -0.039
    1UNL    C14   18   0.044   0.361  -0.062
    1UNL    C15   19   0.052   0.050   0.230
    1UNL     N2   20   0.178   0.078   0.248
    1UNL    C16   21   0.264   0.063   0.138
    1UNL    C17   22   0.395   0.106   0.161
    1UNL    C18   23   0.484   0.085   0.052
    1UNL    C19   24   0.449   0.012  -0.058
    1UNL    C20   25   0.313  -0.032  -0.076
    1UNL    C21   26   0.224  -0.007   0.021
    1UNL     H1   27  -0.376   0.049  -0.219
    1UNL     H2   28  -0.523   0.033  -0.125
    1UNL     H3   29  -0.452   0.192  -0.134
    1UNL     H4   30  -0.340   0.125   0.067
    1UNL     H5   31  -0.269  -0.151  -0.182
    1UNL     H6   32  -0.335  -0.224  -0.041
    1UNL     H7   33  -0.089  -0.201  -0.268
    1UNL     H8   34   0.051  -0.262  -0.187
    1UNL     H9   35   0.099  -0.017  -0.221
    1UNL    H10   36  -0.060   0.028  -0.140
    1UNL    H11   37  -0.041  -0.372   0.071
    1UNL    H12   38  -0.102  -0.214   0.264
    1UNL    H13   39  -0.238  -0.241   0.167
    1UNL    H14   40  -0.208   0.009   0.208
    1UNL    H15   41   0.089   0.423   0.024
    1UNL    H16   42  -0.067   0.376  -0.068
    1UNL    H17   43   0.097   0.382  -0.156
    1UNL    H18   44  -0.005   0.056   0.314
    1UNL    H19   45   0.432   0.148   0.253
    1UNL    H20   46   0.589   0.116   0.057
    1UNL    H21   47   0.526  -0.016  -0.126
    1UNL    H22   48   0.291  -0.095  -0.160
   0.00000   0.00000   0.00000   0.00000   0.00000   0.00000   0.00000   0.00000   0.00000
Generated with MDTraj, t= 83.0
 48
    1UNL     C1    1  -0.408   0.056  -0.159
    1UNL     C2    2  -0.314   0.068  -0.048
    1UNL     C3    3  -0.247  -0.039   0.000
    1UNL     C4    4  -0.260  -0.176  -0.058
    1UNL     N1    5  -0.123  -0.251  -0.066
    1UNL     C5    6  -0.049  -0.182  -0.184
    1UNL     C6    7   0.018  -0.050  -0.137
    1UNL     C7    8   0.080  -0.054   0.011
    1UNL     C8    9   0.081  -0.199   0.049
    1UNL     O1   10   0.181  -0.269   0.056
    1UNL     C9   11  -0.053  -0.262   0.063
    1UNL    C10   12  -0.135  -0.185   0.170
    1UNL    C11   13  -0.156  -0.032   0.124
    1UNL    C12   14  -0.011   0.029   0.110
    1UNL    C13   15  -0.032   0.177   0.049
    1UNL     O2   16  -0.120   0.241   0.103
    1UNL     O3   17   0.049   0.226  -0.043
    1UNL    C14   18   0.026   0.368  -0.055
    1UNL    C15   19   0.056   0.047   0.242
    1UNL     N2   20   0.184   0.063   0.260
    1UNL    C16   21   0.266   0.051   0.142
    1UNL    C17   22   0.403   0.096   0.162
    1UNL    C18   23   0.483   0.092   0.047
    1UNL    C19   24   0.448   0.021  -0.063
    1UNL    C20   25   0.322  -0.031  -0.077
    1UNL    C21   26   0.227  -0.008   0.022
    1UNL     H1   27  -0.480  -0.023  -0.140
    1UNL     H2   28  -0.461   0.145  -0.185
    1UNL     H3   29  -0.355   0.030  -0.257
    1UNL     H4   30  -0.309   0.159   0.013
    1UNL     H5   31  -0.300  -0.166  -0.159
    1UNL     H6   32  -0.331  -0.241  -0.007
    1UNL     H7   33  -0.122  -0.172  -0.258
    1UNL     H8   34   0.020  -0.260  -0.210
    1UNL     H9   35   0.096  -0.023  -0.211
    1UNL    H10   36  -0.066   0.022  -0.140
    1UNL    H11   37  -0.042  -0.365   0.094
    1UNL    H12   38  -0.086  -0.188   0.263
    1UNL    H13   39  -0.231  -0.228   0.194
    1UNL    H14   40  -0.206   0.035   0.197
    1UNL    H15   41   0.035   0.419   0.044
    1UNL    H16   42  -0.077   0.375  -0.091
    1UNL    H17   43   0.097   0.410  -0.130
    1UNL    H18   44  -0.010   0.039   0.339
    1UNL    H19   45   0.423   0.146   0.255
    1UNL    H20   46   0.577   0.141   0.063
    1UNL    H21   47   0.518   0.000  -0.146
    1UNL    H22   48   0.283  -0.074  -0.164
   0.00000   0.00000   0.00000   0.00000   0.00000   0.00000   0.00000   0.00000   0.00000
Generated with MDTraj, t= 84.0
 48
    1UNL     C1    1  -0.373   0.097  -0.158
    1UNL     C2    2  -0.291   0.072  -0.037
    1UNL     C3    3  -0.238  -0.046   0.003
    1UNL     C4    4  -0.257  -0.172  -0.073
    1UNL     N1    5  -0.125  -0.251  -0.076
    1UNL     C5    6  -0.040  -0.187  -0.180
    1UNL     C6    7   0.012  -0.056  -0.131
    1UNL     C7    8   0.074  -0.053   0.010
    1UNL     C8    9   0.082  -0.201   0.060
    1UNL     O1   10   0.190  -0.252   0.089
    1UNL     C9   11  -0.056  -0.266   0.067
    1UNL    C10   12  -0.138  -0.188   0.169
    1UNL    C11   13  -0.155  -0.045   0.124
    1UNL    C12   14  -0.014   0.025   0.113
    1UNL    C13   15  -0.039   0.169   0.062
    1UNL     O2   16  -0.118   0.245   0.114
    1UNL     O3   17   0.040   0.208  -0.044
    1UNL    C14   18   0.014   0.341  -0.081
    1UNL    C15   19   0.052   0.031   0.243
    1UNL     N2   20   0.180   0.055   0.255
    1UNL    C16   21   0.258   0.059   0.141
    1UNL    C17   22   0.395   0.089   0.152
    1UNL    C18   23   0.487   0.080   0.050
    1UNL    C19   24   0.436   0.043  -0.079
    1UNL    C20   25   0.309  -0.006  -0.090
    1UNL    C21   26   0.217   0.005   0.019
    1UNL     H1   27  -0.456   0.165  -0.133
    1UNL     H2   28  -0.312   0.133  -0.237
    1UNL     H3   29  -0.420  -0.001  -0.190
    1UNL     H4   30  -0.280   0.153   0.034
    1UNL     H5   31  -0.286  -0.161  -0.184
    1UNL     H6   32  -0.331  -0.232  -0.025
    1UNL     H7   33  -0.103  -0.184  -0.263
    1UNL     H8   34   0.041  -0.257  -0.198
    1UNL     H9   35   0.084  -0.015  -0.207
    1UNL    H10   36  -0.078   0.007  -0.130
    1UNL    H11   37  -0.065  -0.372   0.089
    1UNL    H12   38  -0.093  -0.186   0.266
    1UNL    H13   39  -0.234  -0.231   0.190
    1UNL    H14   40  -0.211  -0.002   0.206
    1UNL    H15   41   0.008   0.405   0.006
    1UNL    H16   42  -0.068   0.338  -0.147
    1UNL    H17   43   0.100   0.365  -0.147
    1UNL    H18   44   0.007   0.040   0.333
    1UNL    H19   45   0.437   0.116   0.249
    1UNL    H20   46   0.588   0.113   0.059
    1UNL    H21   47   0.503   0.051  -0.158
    1UNL    H22   48   0.279  -0.049  -0.187
   0.00000   0.00000   0.00000   0.00000   0.00000   0.00000   0.00000   0.00000   0.00000
Generated with MDTraj, t= 85.0
 48
    1UNL     C1    1  -0.379   0.102  -0.149
    1UNL     C2    2  -0.307   0.071  -0.028
    1UNL     C3    3  -0.234  -0.039   0.000
    1UNL     C4    4  -0.250  -0.167  -0.078
    1UNL     N1    5  -0.125  -0.242  -0.074
    1UNL     C5    6  -0.031  -0.183  -0.173
    1UNL     C6    7   0.034  -0.053  -0.129
    1UNL     C7    8   0.087  -0.061   0.019
    1UNL     C8    9   0.077  -0.213   0.057
    1UNL     O1   10   0.165  -0.285   0.087
    1UNL     C9   11  -0.066  -0.261   0.064
    1UNL    C10   12  -0.138  -0.188   0.174
    1UNL    C11   13  -0.148  -0.043   0.127
    1UNL    C12   14  -0.012   0.029   0.105
    1UNL    C13   15  -0.033   0.176   0.058
    1UNL     O2   16  -0.107   0.248   0.118
    1UNL     O3   17   0.020   0.209  -0.063
    1UNL    C14   18  -0.009   0.344  -0.092
    1UNL    C15   19   0.059   0.028   0.231
    1UNL     N2   20   0.185   0.045   0.257
    1UNL    C16   21   0.269   0.043   0.145
    1UNL    C17   22   0.389   0.107   0.152
    1UNL    C18   23   0.476   0.112   0.051
    1UNL    C19   24   0.443   0.048  -0.069
    1UNL    C20   25   0.319  -0.014  -0.083
    1UNL    C21   26   0.228  -0.016   0.023
    1UNL     H1   27  -0.353   0.205  -0.187
    1UNL     H2   28  -0.358   0.033  -0.229
    1UNL     H3   29  -0.486   0.102  -0.132
    1UNL     H4   30  -0.297   0.148   0.044
    1UNL     H5   31  -0.261  -0.135  -0.189
    1UNL     H6   32  -0.326  -0.234  -0.047
    1UNL     H7   33  -0.076  -0.174  -0.267
    1UNL     H8   34   0.038  -0.268  -0.186
    1UNL     H9   35   0.115  -0.039  -0.205
    1UNL    H10   36  -0.034   0.033  -0.140
    1UNL    H11   37  -0.068  -0.370   0.081
    1UNL    H12   38  -0.087  -0.203   0.267
    1UNL    H13   39  -0.236  -0.222   0.186
    1UNL    H14   40  -0.192   0.007   0.209
    1UNL    H15   41   0.058   0.403  -0.033
    1UNL    H16   42  -0.111   0.359  -0.082
    1UNL    H17   43   0.001   0.353  -0.201
    1UNL    H18   44  -0.005   0.016   0.327
    1UNL    H19   45   0.406   0.151   0.246
    1UNL    H20   46   0.573   0.162   0.053
    1UNL    H21   47   0.510   0.072  -0.160
    1UNL    H22   48   0.299  -0.077  -0.166
   0.00000   0.00000   0.00000   0.00000   0.00000   0.00000   0.00000   0.00000   0.00000
Generated with MDTraj, t= 86.0
 48
    1UNL     C1    1  -0.408   0.085  -0.128
    1UNL     C2    2  -0.308   0.079  -0.035
    1UNL     C3    3  -0.238  -0.033   0.002
    1UNL     C4    4  -0.248  -0.161  -0.083
    1UNL     N1    5  -0.119  -0.238  -0.081
    1UNL     C5    6  -0.034  -0.184  -0.186
    1UNL     C6    7   0.033  -0.059  -0.140
    1UNL     C7    8   0.081  -0.065   0.006
    1UNL     C8    9   0.077  -0.212   0.049
    1UNL     O1   10   0.169  -0.286   0.068
    1UNL     C9   11  -0.062  -0.263   0.059
    1UNL    C10   12  -0.141  -0.190   0.174
    1UNL    C11   13  -0.155  -0.044   0.128
    1UNL    C12   14  -0.012   0.022   0.109
    1UNL    C13   15  -0.024   0.172   0.062
    1UNL     O2   16  -0.068   0.255   0.135
    1UNL     O3   17   0.016   0.194  -0.065
    1UNL    C14   18  -0.003   0.331  -0.097
    1UNL    C15   19   0.054   0.030   0.240
    1UNL     N2   20   0.170   0.073   0.257
    1UNL    C16   21   0.252   0.066   0.144
    1UNL    C17   22   0.382   0.123   0.148
    1UNL    C18   23   0.482   0.104   0.059
    1UNL    C19   24   0.456   0.031  -0.058
    1UNL    C20   25   0.330  -0.024  -0.066
    1UNL    C21   26   0.226   0.001   0.024
    1UNL     H1   27  -0.430   0.196  -0.149
    1UNL     H2   28  -0.381   0.041  -0.225
    1UNL     H3   29  -0.498   0.046  -0.096
    1UNL     H4   30  -0.287   0.172   0.024
    1UNL     H5   31  -0.270  -0.141  -0.195
    1UNL     H6   32  -0.320  -0.223  -0.037
    1UNL     H7   33  -0.102  -0.177  -0.266
    1UNL     H8   34   0.036  -0.261  -0.221
    1UNL     H9   35   0.123  -0.034  -0.201
    1UNL    H10   36  -0.037   0.024  -0.159
    1UNL    H11   37  -0.038  -0.369   0.086
    1UNL    H12   38  -0.075  -0.198   0.259
    1UNL    H13   39  -0.232  -0.234   0.197
    1UNL    H14   40  -0.198   0.022   0.195
    1UNL    H15   41   0.048   0.383  -0.019
    1UNL    H16   42  -0.107   0.344  -0.100
    1UNL    H17   43   0.023   0.356  -0.203
    1UNL    H18   44   0.003   0.010   0.322
    1UNL    H19   45   0.398   0.174   0.245
    1UNL    H20   46   0.579   0.140   0.084
    1UNL    H21   47   0.531   0.006  -0.125
    1UNL    H22   48   0.313  -0.091  -0.150
   0.00000   0.00000   0.00000   0.00000   0.00000   0.00000   0.00000   0.00000   0.00000
Generated with MDTraj, t= 87.0
 48
    1UNL     C1    1  -0.415   0.084  -0.124
    1UNL     C2    2  -0.325   0.071  -0.013
    1UNL     C3    3  -0.243  -0.039   0.010
    1UNL     C4    4  -0.238  -0.152  -0.087
    1UNL     N1    5  -0.113  -0.235  -0.085
    1UNL     C5    6  -0.024  -0.181  -0.190
    1UNL     C6    7   0.043  -0.049  -0.142
    1UNL     C7    8   0.083  -0.059   0.011
    1UNL     C8    9   0.082  -0.203   0.058
    1UNL     O1   10   0.182  -0.267   0.090
    1UNL     C9   11  -0.053  -0.257   0.059
    1UNL    C10   12  -0.140  -0.192   0.172
    1UNL    C11   13  -0.155  -0.046   0.129
    1UNL    C12   14  -0.017   0.028   0.100
    1UNL    C13   15  -0.044   0.170   0.052
    1UNL     O2   16  -0.106   0.252   0.115
    1UNL     O3   17   0.019   0.206  -0.066
    1UNL    C14   18   0.008   0.340  -0.090
    1UNL    C15   19   0.058   0.046   0.230
    1UNL     N2   20   0.178   0.064   0.255
    1UNL    C16   21   0.262   0.055   0.144
    1UNL    C17   22   0.394   0.097   0.159
    1UNL    C18   23   0.481   0.089   0.053
    1UNL    C19   24   0.445   0.021  -0.063
    1UNL    C20   25   0.318  -0.040  -0.071
    1UNL    C21   26   0.223  -0.007   0.022
    1UNL     H1   27  -0.515   0.112  -0.083
    1UNL     H2   28  -0.373   0.166  -0.189
    1UNL     H3   29  -0.427  -0.005  -0.180
    1UNL     H4   30  -0.309   0.152   0.052
    1UNL     H5   31  -0.236  -0.101  -0.189
    1UNL     H6   32  -0.317  -0.223  -0.080
    1UNL     H7   33  -0.074  -0.169  -0.284
    1UNL     H8   34   0.046  -0.263  -0.219
    1UNL     H9   35   0.118  -0.015  -0.217
    1UNL    H10   36  -0.037   0.027  -0.151
    1UNL    H11   37  -0.057  -0.369   0.070
    1UNL    H12   38  -0.076  -0.186   0.258
    1UNL    H13   39  -0.222  -0.252   0.193
    1UNL    H14   40  -0.186   0.006   0.213
    1UNL    H15   41   0.053   0.388  -0.005
    1UNL    H16   42  -0.096   0.363  -0.114
    1UNL    H17   43   0.063   0.359  -0.191
    1UNL    H18   44  -0.011   0.058   0.325
    1UNL    H19   45   0.419   0.148   0.249
    1UNL    H20   46   0.584   0.114   0.074
    1UNL    H21   47   0.526   0.005  -0.135
    1UNL    H22   48   0.302  -0.108  -0.153
   0.00000   0.00000   0.00000   0.00000   0.00000   0.00000   0.00000   0.00000   0.00000
Generated with MDTraj, t= 88.0
 48
    1UNL     C1    1  -0.436   0.074  -0.121
    1UNL     C2    2  -0.331   0.058  -0.019
    1UNL     C3    3  -0.245  -0.045   0.006
    1UNL     C4    4  -0.256  -0.164  -0.080
    1UNL     N1    5  -0.126  -0.239  -0.080
    1UNL     C5    6  -0.035  -0.183  -0.180
    1UNL     C6    7   0.037  -0.047  -0.138
    1UNL     C7    8   0.084  -0.050   0.009
    1UNL     C8    9   0.084  -0.198   0.052
    1UNL     O1   10   0.180  -0.263   0.087
    1UNL     C9   11  -0.056  -0.257   0.061
    1UNL    C10   12  -0.138  -0.183   0.171
    1UNL    C11   13  -0.152  -0.046   0.119
    1UNL    C12   14  -0.011   0.032   0.101
    1UNL    C13   15  -0.037   0.174   0.044
    1UNL     O2   16  -0.133   0.237   0.083
    1UNL     O3   17   0.053   0.234  -0.039
    1UNL    C14   18  -0.001   0.353  -0.088
    1UNL    C15   19   0.061   0.050   0.231
    1UNL     N2   20   0.183   0.069   0.252
    1UNL    C16   21   0.275   0.048   0.146
    1UNL    C17   22   0.405   0.080   0.164
    1UNL    C18   23   0.496   0.069   0.062
    1UNL    C19   24   0.459   0.021  -0.059
    1UNL    C20   25   0.326  -0.025  -0.079
    1UNL    C21   26   0.232  -0.007   0.022
    1UNL     H1   27  -0.535   0.056  -0.081
    1UNL     H2   28  -0.435   0.179  -0.160
    1UNL     H3   29  -0.427   0.010  -0.213
    1UNL     H4   30  -0.323   0.137   0.061
    1UNL     H5   31  -0.265  -0.138  -0.189
    1UNL     H6   32  -0.338  -0.224  -0.046
    1UNL     H7   33  -0.082  -0.170  -0.275
    1UNL     H8   34   0.039  -0.262  -0.208
    1UNL     H9   35   0.116  -0.021  -0.211
    1UNL    H10   36  -0.042   0.031  -0.150
    1UNL    H11   37  -0.048  -0.367   0.089
    1UNL    H12   38  -0.088  -0.195   0.264
    1UNL    H13   39  -0.231  -0.231   0.183
    1UNL    H14   40  -0.204   0.002   0.193
    1UNL    H15   41   0.004   0.424  -0.007
    1UNL    H16   42  -0.106   0.342  -0.126
    1UNL    H17   43   0.064   0.390  -0.179
    1UNL    H18   44  -0.004   0.057   0.307
    1UNL    H19   45   0.433   0.119   0.260
    1UNL    H20   46   0.596   0.106   0.077
    1UNL    H21   47   0.526   0.017  -0.148
    1UNL    H22   48   0.298  -0.075  -0.171
   0.00000   0.00000   0.00000   0.00000   0.00000   0.00000   0.00000   0.00000   0.00000
Generated with MDTraj, t= 89.0
 48
    1UNL     C1    1  -0.435   0.051  -0.119
    1UNL     C2    2  -0.331   0.059  -0.021
    1UNL     C3    3  -0.247  -0.047   0.001
    1UNL     C4    4  -0.261  -0.178  -0.071
    1UNL     N1    5  -0.124  -0.245  -0.074
    1UNL     C5    6  -0.044  -0.174  -0.176
    1UNL     C6    7   0.017  -0.043  -0.133
    1UNL     C7    8   0.079  -0.047   0.010
    1UNL     C8    9   0.080  -0.197   0.046
    1UNL     O1   10   0.184  -0.249   0.050
    1UNL     C9   11  -0.056  -0.268   0.062
    1UNL    C10   12  -0.129  -0.184   0.172
    1UNL    C11   13  -0.152  -0.037   0.129
    1UNL    C12   14  -0.014   0.037   0.110
    1UNL    C13   15  -0.033   0.175   0.040
    1UNL     O2   16  -0.126   0.244   0.077
    1UNL     O3   17   0.054   0.217  -0.055
    1UNL    C14   18   0.049   0.360  -0.081
    1UNL    C15   19   0.052   0.052   0.239
    1UNL     N2   20   0.173   0.070   0.257
    1UNL    C16   21   0.262   0.058   0.144
    1UNL    C17   22   0.397   0.090   0.160
    1UNL    C18   23   0.501   0.063   0.064
    1UNL    C19   24   0.460   0.006  -0.052
    1UNL    C20   25   0.326  -0.018  -0.071
    1UNL    C21   26   0.225   0.003   0.025
    1UNL     H1   27  -0.462  -0.046  -0.157
    1UNL     H2   28  -0.529   0.092  -0.082
    1UNL     H3   29  -0.409   0.121  -0.209
    1UNL     H4   30  -0.312   0.143   0.039
    1UNL     H5   31  -0.286  -0.157  -0.175
    1UNL     H6   32  -0.327  -0.257  -0.033
    1UNL     H7   33  -0.101  -0.163  -0.268
    1UNL     H8   34   0.039  -0.236  -0.218
    1UNL     H9   35   0.095  -0.019  -0.207
    1UNL    H10   36  -0.063   0.035  -0.138
    1UNL    H11   37  -0.033  -0.374   0.096
    1UNL    H12   38  -0.071  -0.203   0.257
    1UNL    H13   39  -0.219  -0.237   0.191
    1UNL    H14   40  -0.205   0.007   0.205
    1UNL    H15   41  -0.017   0.405  -0.008
    1UNL    H16   42   0.004   0.391  -0.180
    1UNL    H17   43   0.157   0.404  -0.067
    1UNL    H18   44  -0.017   0.050   0.333
    1UNL    H19   45   0.441   0.128   0.254
    1UNL    H20   46   0.602   0.107   0.073
    1UNL    H21   47   0.522  -0.010  -0.131
    1UNL    H22   48   0.299  -0.067  -0.163
   0.00000   0.00000   0.00000   0.00000   0.00000   0.00000   0.00000   0.00000   0.00000
Generated with MDTraj, t= 90.0
 48
    1UNL     C1    1  -0.421   0.070  -0.118
    1UNL     C2    2  -0.326   0.065  -0.015
    1UNL     C3    3  -0.244  -0.043   0.009
    1UNL     C4    4  -0.252  -0.161  -0.082
    1UNL     N1    5  -0.126  -0.241  -0.075
    1UNL     C5    6  -0.036  -0.186  -0.179
    1UNL     C6    7   0.026  -0.051  -0.135
    1UNL     C7    8   0.085  -0.060   0.008
    1UNL     C8    9   0.077  -0.203   0.053
    1UNL     O1   10   0.178  -0.262   0.082
    1UNL     C9   11  -0.059  -0.259   0.060
    1UNL    C10   12  -0.137  -0.193   0.172
    1UNL    C11   13  -0.149  -0.044   0.125
    1UNL    C12   14  -0.013   0.033   0.100
    1UNL    C13   15  -0.030   0.170   0.045
    1UNL     O2   16  -0.130   0.234   0.075
    1UNL     O3   17   0.062   0.224  -0.040
    1UNL    C14   18   0.037   0.357  -0.073
    1UNL    C15   19   0.057   0.049   0.235
    1UNL     N2   20   0.181   0.067   0.247
    1UNL    C16   21   0.264   0.063   0.135
    1UNL    C17   22   0.393   0.107   0.159
    1UNL    C18   23   0.484   0.086   0.053
    1UNL    C19   24   0.444   0.018  -0.059
    1UNL    C20   25   0.321  -0.030  -0.076
    1UNL    C21   26   0.225  -0.011   0.020
    1UNL     H1   27  -0.377   0.049  -0.215
    1UNL     H2   28  -0.499  -0.003  -0.100
    1UNL     H3   29  -0.472   0.174  -0.111
    1UNL     H4   30  -0.323   0.155   0.052
    1UNL     H5   31  -0.257  -0.143  -0.185
    1UNL     H6   32  -0.340  -0.224  -0.061
    1UNL     H7   33  -0.080  -0.170  -0.280
    1UNL     H8   34   0.034  -0.267  -0.207
    1UNL     H9   35   0.108  -0.025  -0.201
    1UNL    H10   36  -0.051   0.030  -0.143
    1UNL    H11   37  -0.068  -0.369   0.084
    1UNL    H12   38  -0.094  -0.212   0.264
    1UNL    H13   39  -0.228  -0.252   0.178
    1UNL    H14   40  -0.200   0.006   0.202
    1UNL    H15   41  -0.015   0.409   0.003
    1UNL    H16   42  -0.030   0.371  -0.160
    1UNL    H17   43   0.143   0.401  -0.084
    1UNL    H18   44  -0.008   0.062   0.314
    1UNL    H19   45   0.417   0.162   0.247
    1UNL    H20   46   0.585   0.119   0.072
    1UNL    H21   47   0.525   0.005  -0.137
    1UNL    H22   48   0.288  -0.088  -0.158
   0.00000   0.00000   0.00000   0.00000   0.00000   0.00000   0.00000   0.00000   0.00000
Generated with MDTraj, t= 91.0
 48
    1UNL     C1    1  -0.425   0.089  -0.130
    1UNL     C2    2  -0.326   0.072  -0.019
    1UNL     C3    3  -0.246  -0.037   0.002
    1UNL     C4    4  -0.241  -0.148  -0.090
    1UNL     N1    5  -0.118  -0.234  -0.081
    1UNL     C5    6  -0.024  -0.190  -0.183
    1UNL     C6    7   0.043  -0.055  -0.135
    1UNL     C7    8   0.087  -0.064   0.007
    1UNL     C8    9   0.078  -0.212   0.063
    1UNL     O1   10   0.171  -0.284   0.105
    1UNL     C9   11  -0.065  -0.261   0.062
    1UNL    C10   12  -0.153  -0.187   0.171
    1UNL    C11   13  -0.155  -0.045   0.124
    1UNL    C12   14  -0.010   0.020   0.099
    1UNL    C13   15  -0.030   0.165   0.056
    1UNL     O2   16  -0.124   0.229   0.101
    1UNL     O3   17   0.060   0.215  -0.030
    1UNL    C14   18   0.027   0.344  -0.084
    1UNL    C15   19   0.055   0.051   0.238
    1UNL     N2   20   0.178   0.075   0.248
    1UNL    C16   21   0.267   0.059   0.138
    1UNL    C17   22   0.393   0.113   0.143
    1UNL    C18   23   0.478   0.109   0.036
    1UNL    C19   24   0.440   0.028  -0.075
    1UNL    C20   25   0.322  -0.038  -0.077
    1UNL    C21   26   0.229  -0.017   0.029
    1UNL     H1   27  -0.421   0.187  -0.185
    1UNL     H2   28  -0.415   0.016  -0.211
    1UNL     H3   29  -0.526   0.071  -0.095
    1UNL     H4   30  -0.313   0.150   0.052
    1UNL     H5   31  -0.250  -0.116  -0.187
    1UNL     H6   32  -0.324  -0.220  -0.067
    1UNL     H7   33  -0.079  -0.192  -0.282
    1UNL     H8   34   0.055  -0.264  -0.203
    1UNL     H9   35   0.121  -0.016  -0.200
    1UNL    H10   36  -0.036   0.024  -0.136
    1UNL    H11   37  -0.072  -0.373   0.079
    1UNL    H12   38  -0.101  -0.193   0.262
    1UNL    H13   39  -0.246  -0.239   0.187
    1UNL    H14   40  -0.205   0.018   0.194
    1UNL    H15   41   0.067   0.424  -0.029
    1UNL    H16   42  -0.078   0.367  -0.069
    1UNL    H17   43   0.071   0.355  -0.185
    1UNL    H18   44  -0.014   0.072   0.322
    1UNL    H19   45   0.424   0.167   0.233
    1UNL    H20   46   0.572   0.160   0.036
    1UNL    H21   47   0.518  -0.002  -0.138
    1UNL    H22   48   0.293  -0.097  -0.168
   0.00000   0.00000   0.00000   0.00000   0.00000   0.00000   0.00000   0.00000   0.00000
Generated with MDTraj, t= 92.0
 48
    1UNL     C1    1  -0.413   0.094  -0.137
    1UNL     C2    2  -0.313   0.078  -0.022
    1UNL     C3    3  -0.245  -0.039   0.010
    1UNL     C4    4  -0.254  -0.170  -0.068
    1UNL     N1    5  -0.117  -0.242  -0.075
    1UNL     C5    6  -0.037  -0.180  -0.181
    1UNL     C6    7   0.031  -0.049  -0.142
    1UNL     C7    8   0.085  -0.066   0.005
    1UNL     C8    9   0.086  -0.205   0.053
    1UNL     O1   10   0.177  -0.277   0.073
    1UNL     C9   11  -0.057  -0.263   0.064
    1UNL    C10   12  -0.134  -0.185   0.175
    1UNL    C11   13  -0.157  -0.039   0.131
    1UNL    C12   14  -0.021   0.023   0.102
    1UNL    C13   15  -0.031   0.166   0.050
    1UNL     O2   16  -0.087   0.246   0.122
    1UNL     O3   17   0.025   0.196  -0.072
    1UNL    C14   18   0.041   0.335  -0.096
    1UNL    C15   19   0.047   0.044   0.240
    1UNL     N2   20   0.168   0.061   0.257
    1UNL    C16   21   0.251   0.061   0.140
    1UNL    C17   22   0.379   0.122   0.149
    1UNL    C18   23   0.475   0.109   0.054
    1UNL    C19   24   0.451   0.025  -0.056
    1UNL    C20   25   0.325  -0.029  -0.073
    1UNL    C21   26   0.221  -0.014   0.023
    1UNL     H1   27  -0.509   0.151  -0.120
    1UNL     H2   28  -0.362   0.150  -0.221
    1UNL     H3   29  -0.434   0.000  -0.175
    1UNL     H4   30  -0.281   0.164   0.038
    1UNL     H5   31  -0.280  -0.143  -0.163
    1UNL     H6   32  -0.333  -0.237  -0.025
    1UNL     H7   33  -0.097  -0.166  -0.277
    1UNL     H8   34   0.034  -0.261  -0.205
    1UNL     H9   35   0.112  -0.027  -0.212
    1UNL    H10   36  -0.038   0.037  -0.151
    1UNL    H11   37  -0.043  -0.373   0.082
    1UNL    H12   38  -0.071  -0.191   0.259
    1UNL    H13   39  -0.226  -0.234   0.201
    1UNL    H14   40  -0.211   0.016   0.209
    1UNL    H15   41   0.082   0.390  -0.017
    1UNL    H16   42  -0.053   0.383  -0.103
    1UNL    H17   43   0.110   0.352  -0.179
    1UNL    H18   44  -0.014   0.027   0.329
    1UNL    H19   45   0.401   0.175   0.236
    1UNL    H20   46   0.577   0.149   0.064
    1UNL    H21   47   0.525   0.001  -0.138
    1UNL    H22   48   0.306  -0.099  -0.147
   0.00000   0.00000   0.00000   0.00000   0.00000   0.00000   0.00000   0.00000   0.00000
Generated with MDTraj, t= 93.0
 48
    1UNL     C1    1  -0.388   0.085  -0.146
    1UNL     C2    2  -0.292   0.075  -0.038
    1UNL     C3    3  -0.232  -0.038   0.000
    1UNL     C4    4  -0.258  -0.167  -0.069
    1UNL     N1    5  -0.130  -0.242  -0.071
    1UNL     C5    6  -0.034  -0.190  -0.173
    1UNL     C6    7   0.021  -0.051  -0.127
    1UNL     C7    8   0.079  -0.061   0.012
    1UNL     C8    9   0.073  -0.210   0.056
    1UNL     O1   10   0.172  -0.276   0.071
    1UNL     C9   11  -0.067  -0.261   0.070
    1UNL    C10   12  -0.136  -0.186   0.183
    1UNL    C11   13  -0.147  -0.036   0.126
    1UNL    C12   14  -0.009   0.028   0.105
    1UNL    C13   15  -0.027   0.170   0.053
    1UNL     O2   16  -0.095   0.246   0.116
    1UNL     O3   17   0.030   0.209  -0.066
    1UNL    C14   18  -0.002   0.338  -0.101
    1UNL    C15   19   0.058   0.044   0.241
    1UNL     N2   20   0.180   0.057   0.252
    1UNL    C16   21   0.261   0.052   0.138
    1UNL    C17   22   0.388   0.100   0.163
    1UNL    C18   23   0.482   0.084   0.063
    1UNL    C19   24   0.445   0.039  -0.064
    1UNL    C20   25   0.315  -0.004  -0.081
    1UNL    C21   26   0.224  -0.006   0.015
    1UNL     H1   27  -0.458  -0.000  -0.158
    1UNL     H2   28  -0.451   0.178  -0.132
    1UNL     H3   29  -0.326   0.092  -0.233
    1UNL     H4   30  -0.267   0.162   0.022
    1UNL     H5   31  -0.293  -0.153  -0.170
    1UNL     H6   32  -0.335  -0.219  -0.010
    1UNL     H7   33  -0.094  -0.190  -0.271
    1UNL     H8   34   0.052  -0.258  -0.185
    1UNL     H9   35   0.096  -0.009  -0.195
    1UNL    H10   36  -0.061   0.022  -0.134
    1UNL    H11   37  -0.062  -0.371   0.088
    1UNL    H12   38  -0.099  -0.208   0.281
    1UNL    H13   39  -0.237  -0.217   0.181
    1UNL    H14   40  -0.206   0.027   0.200
    1UNL    H15   41   0.026   0.415  -0.034
    1UNL    H16   42  -0.107   0.346  -0.125
    1UNL    H17   43   0.055   0.357  -0.191
    1UNL    H18   44  -0.001   0.049   0.330
    1UNL    H19   45   0.411   0.131   0.268
    1UNL    H20   46   0.581   0.119   0.072
    1UNL    H21   47   0.519   0.041  -0.139
    1UNL    H22   48   0.290  -0.051  -0.176
   0.00000   0.00000   0.00000   0.00000   0.00000   0.00000   0.00000   0.00000   0.00000
Generated with MDTraj, t= 94.0
 48
    1UNL     C1    1  -0.381   0.092  -0.158
    1UNL     C2    2  -0.311   0.074  -0.028
    1UNL     C3    3  -0.245  -0.038   0.004
    1UNL     C4    4  -0.250  -0.167  -0.077
    1UNL     N1    5  -0.119  -0.245  -0.070
    1UNL     C5    6  -0.021  -0.186  -0.174
    1UNL     C6    7   0.021  -0.047  -0.124
    1UNL     C7    8   0.082  -0.051   0.014
    1UNL     C8    9   0.073  -0.191   0.069
    1UNL     O1   10   0.172  -0.255   0.104
    1UNL     C9   11  -0.065  -0.258   0.069
    1UNL    C10   12  -0.145  -0.185   0.168
    1UNL    C11   13  -0.153  -0.037   0.126
    1UNL    C12   14  -0.004   0.031   0.108
    1UNL    C13   15  -0.040   0.173   0.058
    1UNL     O2   16  -0.125   0.240   0.111
    1UNL     O3   17   0.030   0.216  -0.052
    1UNL    C14   18  -0.016   0.343  -0.101
    1UNL    C15   19   0.064   0.042   0.235
    1UNL     N2   20   0.187   0.045   0.253
    1UNL    C16   21   0.271   0.037   0.140
    1UNL    C17   22   0.402   0.079   0.150
    1UNL    C18   23   0.494   0.074   0.046
    1UNL    C19   24   0.450   0.025  -0.072
    1UNL    C20   25   0.318  -0.018  -0.087
    1UNL    C21   26   0.231  -0.003   0.014
    1UNL     H1   27  -0.321   0.061  -0.244
    1UNL     H2   28  -0.478   0.040  -0.161
    1UNL     H3   29  -0.388   0.201  -0.183
    1UNL     H4   30  -0.303   0.155   0.041
    1UNL     H5   31  -0.273  -0.139  -0.183
    1UNL     H6   32  -0.330  -0.234  -0.047
    1UNL     H7   33  -0.071  -0.186  -0.279
    1UNL     H8   34   0.064  -0.257  -0.175
    1UNL     H9   35   0.089   0.004  -0.195
    1UNL    H10   36  -0.069   0.015  -0.129
    1UNL    H11   37  -0.075  -0.367   0.090
    1UNL    H12   38  -0.108  -0.186   0.269
    1UNL    H13   39  -0.241  -0.226   0.179
    1UNL    H14   40  -0.198   0.031   0.209
    1UNL    H15   41  -0.004   0.426  -0.028
    1UNL    H16   42  -0.124   0.335  -0.132
    1UNL    H17   43   0.034   0.380  -0.190
    1UNL    H18   44   0.003   0.073   0.325
    1UNL    H19   45   0.429   0.128   0.239
    1UNL    H20   46   0.594   0.114   0.065
    1UNL    H21   47   0.516   0.018  -0.159
    1UNL    H22   48   0.288  -0.053  -0.185
   0.00000   0.00000   0.00000   0.00000   0.00000   0.00000   0.00000   0.00000   0.00000
Generated with MDTraj, t= 95.0
 48
    1UNL     C1    1  -0.413   0.092  -0.141
    1UNL     C2    2  -0.313   0.073  -0.028
    1UNL     C3    3  -0.246  -0.040   0.003
    1UNL     C4    4  -0.253  -0.174  -0.067
    1UNL     N1    5  -0.126  -0.248  -0.071
    1UNL     C5    6  -0.034  -0.188  -0.179
    1UNL     C6    7   0.019  -0.055  -0.139
    1UNL     C7    8   0.083  -0.052   0.005
    1UNL     C8    9   0.086  -0.197   0.052
    1UNL     O1   10   0.188  -0.261   0.073
    1UNL     C9   11  -0.054  -0.259   0.064
    1UNL    C10   12  -0.140  -0.190   0.171
    1UNL    C11   13  -0.160  -0.043   0.118
    1UNL    C12   14  -0.018   0.030   0.101
    1UNL    C13   15  -0.038   0.170   0.052
    1UNL     O2   16  -0.107   0.241   0.118
    1UNL     O3   17   0.028   0.215  -0.061
    1UNL    C14   18   0.018   0.350  -0.083
    1UNL    C15   19   0.050   0.060   0.230
    1UNL     N2   20   0.176   0.083   0.249
    1UNL    C16   21   0.265   0.054   0.141
    1UNL    C17   22   0.399   0.096   0.152
    1UNL    C18   23   0.495   0.074   0.056
    1UNL    C19   24   0.462   0.004  -0.050
    1UNL    C20   25   0.324  -0.041  -0.065
    1UNL    C21   26   0.221  -0.003   0.023
    1UNL     H1   27  -0.390   0.178  -0.206
    1UNL     H2   28  -0.425   0.004  -0.198
    1UNL     H3   29  -0.514   0.133  -0.102
    1UNL     H4   30  -0.300   0.159   0.039
    1UNL     H5   31  -0.289  -0.169  -0.176
    1UNL     H6   32  -0.327  -0.233  -0.019
    1UNL     H7   33  -0.093  -0.183  -0.278
    1UNL     H8   34   0.042  -0.268  -0.189
    1UNL     H9   35   0.088  -0.027  -0.221
    1UNL    H10   36  -0.064   0.015  -0.136
    1UNL    H11   37  -0.029  -0.362   0.086
    1UNL    H12   38  -0.097  -0.180   0.271
    1UNL    H13   39  -0.233  -0.231   0.192
    1UNL    H14   40  -0.216   0.021   0.201
    1UNL    H15   41   0.044   0.408   0.012
    1UNL    H16   42  -0.081   0.379  -0.137
    1UNL    H17   43   0.091   0.385  -0.156
    1UNL    H18   44  -0.009   0.078   0.311
    1UNL    H19   45   0.420   0.171   0.231
    1UNL    H20   46   0.594   0.109   0.075
    1UNL    H21   47   0.527  -0.015  -0.138
    1UNL    H22   48   0.297  -0.099  -0.150
   0.00000   0.00000   0.00000   0.00000   0.00000   0.00000   0.00000   0.00000   0.00000
Generated with MDTraj, t= 96.0
 48
    1UNL     C1    1  -0.441   0.067  -0.118
    1UNL     C2    2  -0.329   0.068  -0.014
    1UNL     C3    3  -0.244  -0.034   0.007
    1UNL     C4    4  -0.251  -0.156  -0.079
    1UNL     N1    5  -0.133  -0.237  -0.080
    1UNL     C5    6  -0.032  -0.175  -0.181
    1UNL     C6    7   0.036  -0.048  -0.137
    1UNL     C7    8   0.084  -0.065   0.010
    1UNL     C8    9   0.080  -0.212   0.045
    1UNL     O1   10   0.178  -0.274   0.065
    1UNL     C9   11  -0.064  -0.256   0.052
    1UNL    C10   12  -0.138  -0.191   0.169
    1UNL    C11   13  -0.148  -0.039   0.128
    1UNL    C12   14  -0.008   0.027   0.102
    1UNL    C13   15  -0.027   0.170   0.042
    1UNL     O2   16  -0.114   0.233   0.092
    1UNL     O3   17   0.058   0.216  -0.053
    1UNL    C14   18   0.034   0.342  -0.095
    1UNL    C15   19   0.053   0.066   0.230
    1UNL     N2   20   0.180   0.089   0.254
    1UNL    C16   21   0.264   0.060   0.147
    1UNL    C17   22   0.387   0.114   0.157
    1UNL    C18   23   0.484   0.090   0.057
    1UNL    C19   24   0.452   0.005  -0.048
    1UNL    C20   25   0.325  -0.051  -0.058
    1UNL    C21   26   0.226  -0.011   0.032
    1UNL     H1   27  -0.449   0.161  -0.174
    1UNL     H2   28  -0.431  -0.013  -0.185
    1UNL     H3   29  -0.548   0.066  -0.072
    1UNL     H4   30  -0.309   0.152   0.045
    1UNL     H5   31  -0.285  -0.121  -0.184
    1UNL     H6   32  -0.321  -0.230  -0.048
    1UNL     H7   33  -0.103  -0.154  -0.269
    1UNL     H8   34   0.041  -0.253  -0.211
    1UNL     H9   35   0.122  -0.013  -0.197
    1UNL    H10   36  -0.041   0.028  -0.143
    1UNL    H11   37  -0.054  -0.363   0.056
    1UNL    H12   38  -0.096  -0.203   0.269
    1UNL    H13   39  -0.239  -0.219   0.185
    1UNL    H14   40  -0.189   0.019   0.224
    1UNL    H15   41   0.100   0.412  -0.031
    1UNL    H16   42  -0.080   0.365  -0.094
    1UNL    H17   43   0.057   0.364  -0.198
    1UNL    H18   44  -0.011   0.065   0.327
    1UNL    H19   45   0.414   0.160   0.249
    1UNL    H20   46   0.582   0.140   0.058
    1UNL    H21   47   0.526  -0.021  -0.116
    1UNL    H22   48   0.318  -0.132  -0.131
   0.00000   0.00000   0.00000   0.00000   0.00000   0.00000   0.00000   0.00000   0.00000
Generated with MDTraj, t= 97.0
 48
    1UNL     C1    1  -0.443   0.078  -0.087
    1UNL     C2    2  -0.340   0.065   0.014
    1UNL     C3    3  -0.248  -0.028   0.013
    1UNL     C4    4  -0.243  -0.135  -0.102
    1UNL     N1    5  -0.128  -0.229  -0.081
    1UNL     C5    6  -0.020  -0.191  -0.187
    1UNL     C6    7   0.035  -0.055  -0.140
    1UNL     C7    8   0.090  -0.061   0.012
    1UNL     C8    9   0.072  -0.205   0.056
    1UNL     O1   10   0.165  -0.261   0.105
    1UNL     C9   11  -0.062  -0.260   0.051
    1UNL    C10   12  -0.141  -0.193   0.165
    1UNL    C11   13  -0.150  -0.039   0.127
    1UNL    C12   14  -0.004   0.021   0.103
    1UNL    C13   15  -0.029   0.159   0.034
    1UNL     O2   16  -0.128   0.226   0.060
    1UNL     O3   17   0.066   0.211  -0.057
    1UNL    C14   18   0.045   0.342  -0.103
    1UNL    C15   19   0.051   0.043   0.236
    1UNL     N2   20   0.180   0.060   0.255
    1UNL    C16   21   0.258   0.058   0.141
    1UNL    C17   22   0.388   0.112   0.154
    1UNL    C18   23   0.488   0.090   0.064
    1UNL    C19   24   0.450   0.023  -0.053
    1UNL    C20   25   0.327  -0.026  -0.077
    1UNL    C21   26   0.229  -0.008   0.021
    1UNL     H1   27  -0.471   0.183  -0.105
    1UNL     H2   28  -0.407   0.033  -0.181
    1UNL     H3   29  -0.544   0.034  -0.062
    1UNL     H4   30  -0.333   0.147   0.088
    1UNL     H5   31  -0.234  -0.100  -0.212
    1UNL     H6   32  -0.337  -0.184  -0.097
    1UNL     H7   33  -0.073  -0.190  -0.288
    1UNL     H8   34   0.055  -0.275  -0.191
    1UNL     H9   35   0.118  -0.032  -0.208
    1UNL    H10   36  -0.034   0.028  -0.149
    1UNL    H11   37  -0.049  -0.364   0.060
    1UNL    H12   38  -0.090  -0.195   0.262
    1UNL    H13   39  -0.240  -0.229   0.182
    1UNL    H14   40  -0.188   0.031   0.215
    1UNL    H15   41   0.010   0.400  -0.012
    1UNL    H16   42  -0.034   0.334  -0.182
    1UNL    H17   43   0.127   0.394  -0.142
    1UNL    H18   44  -0.010   0.055   0.318
    1UNL    H19   45   0.407   0.160   0.250
    1UNL    H20   46   0.586   0.113   0.095
    1UNL    H21   47   0.534   0.003  -0.122
    1UNL    H22   48   0.308  -0.093  -0.157
   0.00000   0.00000   0.00000   0.00000   0.00000   0.00000   0.00000   0.00000   0.00000
Generated with MDTraj, t= 98.0
 48
    1UNL     C1    1  -0.457   0.065  -0.100
    1UNL     C2    2  -0.340   0.060  -0.008
    1UNL     C3    3  -0.252  -0.035  -0.001
    1UNL     C4    4  -0.253  -0.159  -0.079
    1UNL     N1    5  -0.129  -0.235  -0.078
    1UNL     C5    6  -0.017  -0.181  -0.178
    1UNL     C6    7   0.036  -0.049  -0.133
    1UNL     C7    8   0.084  -0.061   0.017
    1UNL     C8    9   0.071  -0.207   0.056
    1UNL     O1   10   0.165  -0.284   0.074
    1UNL     C9   11  -0.068  -0.257   0.058
    1UNL    C10   12  -0.135  -0.175   0.170
    1UNL    C11   13  -0.153  -0.033   0.112
    1UNL    C12   14  -0.010   0.032   0.105
    1UNL    C13   15  -0.028   0.170   0.038
    1UNL     O2   16  -0.123   0.239   0.072
    1UNL     O3   17   0.063   0.215  -0.053
    1UNL    C14   18   0.051   0.342  -0.103
    1UNL    C15   19   0.052   0.052   0.235
    1UNL     N2   20   0.179   0.065   0.255
    1UNL    C16   21   0.269   0.052   0.148
    1UNL    C17   22   0.404   0.099   0.161
    1UNL    C18   23   0.491   0.089   0.062
    1UNL    C19   24   0.454   0.024  -0.060
    1UNL    C20   25   0.324  -0.021  -0.073
    1UNL    C21   26   0.233  -0.009   0.034
    1UNL     H1   27  -0.550   0.083  -0.045
    1UNL     H2   28  -0.431   0.146  -0.179
    1UNL     H3   29  -0.475  -0.025  -0.155
    1UNL     H4   30  -0.318   0.147   0.046
    1UNL     H5   31  -0.287  -0.128  -0.184
    1UNL     H6   32  -0.322  -0.233  -0.043
    1UNL     H7   33  -0.071  -0.163  -0.275
    1UNL     H8   34   0.068  -0.254  -0.193
    1UNL     H9   35   0.111  -0.000  -0.197
    1UNL    H10   36  -0.045   0.024  -0.142
    1UNL    H11   37  -0.071  -0.361   0.075
    1UNL    H12   38  -0.083  -0.162   0.265
    1UNL    H13   39  -0.234  -0.214   0.189
    1UNL    H14   40  -0.203   0.032   0.195
    1UNL    H15   41   0.005   0.402  -0.023
    1UNL    H16   42  -0.017   0.330  -0.186
    1UNL    H17   43   0.144   0.369  -0.134
    1UNL    H18   44  -0.016   0.067   0.327
    1UNL    H19   45   0.429   0.162   0.244
    1UNL    H20   46   0.595   0.125   0.069
    1UNL    H21   47   0.531  -0.000  -0.128
    1UNL    H22   48   0.283  -0.061  -0.168
   0.00000   0.00000   0.00000   0.00000   0.00000   0.00000   0.00000   0.00000   0.00000
Generated with MDTraj, t= 99.0
 48
    1UNL     C1    1  -0.421   0.078  -0.142
    1UNL     C2    2  -0.323   0.058  -0.022
    1UNL     C3    3  -0.250  -0.045   0.012
    1UNL     C4    4  -0.260  -0.180  -0.056
    1UNL     N1    5  -0.133  -0.239  -0.067
    1UNL     C5    6  -0.046  -0.178  -0.181
    1UNL     C6    7   0.034  -0.054  -0.152
    1UNL     C7    8   0.083  -0.051   0.005
    1UNL     C8    9   0.085  -0.201   0.052
    1UNL     O1   10   0.182  -0.268   0.076
    1UNL     C9   11  -0.056  -0.259   0.063
    1UNL    C10   12  -0.125  -0.180   0.176
    1UNL    C11   13  -0.151  -0.038   0.126
    1UNL    C12   14  -0.014   0.035   0.097
    1UNL    C13   15  -0.036   0.178   0.048
    1UNL     O2   16  -0.127   0.248   0.092
    1UNL     O3   17   0.057   0.225  -0.037
    1UNL    C14   18   0.044   0.354  -0.093
    1UNL    C15   19   0.047   0.059   0.227
    1UNL     N2   20   0.174   0.066   0.247
    1UNL    C16   21   0.259   0.062   0.141
    1UNL    C17   22   0.394   0.097   0.155
    1UNL    C18   23   0.489   0.073   0.063
    1UNL    C19   24   0.451   0.003  -0.053
    1UNL    C20   25   0.320  -0.038  -0.072
    1UNL    C21   26   0.225  -0.008   0.021
    1UNL     H1   27  -0.462  -0.014  -0.181
    1UNL     H2   28  -0.506   0.151  -0.110
    1UNL     H3   29  -0.376   0.133  -0.222
    1UNL     H4   30  -0.302   0.153   0.031
    1UNL     H5   31  -0.294  -0.173  -0.160
    1UNL     H6   32  -0.335  -0.239  -0.002
    1UNL     H7   33  -0.104  -0.163  -0.274
    1UNL     H8   34   0.033  -0.259  -0.199
    1UNL     H9   35   0.114  -0.040  -0.224
    1UNL    H10   36  -0.033   0.029  -0.174
    1UNL    H11   37  -0.040  -0.359   0.091
    1UNL    H12   38  -0.053  -0.176   0.257
    1UNL    H13   39  -0.223  -0.221   0.210
    1UNL    H14   40  -0.202   0.022   0.208
    1UNL    H15   41   0.108   0.419  -0.037
    1UNL    H16   42  -0.056   0.383  -0.069
    1UNL    H17   43   0.066   0.340  -0.193
    1UNL    H18   44  -0.013   0.044   0.308
    1UNL    H19   45   0.418   0.152   0.248
    1UNL    H20   46   0.587   0.114   0.050
    1UNL    H21   47   0.528  -0.018  -0.132
    1UNL    H22   48   0.287  -0.093  -0.156
   0.00000   0.00000   0.00000   0.00000   0.00000   0.00000   0.00000   0.00000   0.00000
