[ moleculetype ]
; name        nrexcl
res           1

[ atoms ]
;    nr  type  resnr resid  atom  cgnr     charge       mass
      1 SX4e      1 res   C1        1      0.000     54.000
      2 TC5       1 res   C2        2      0.000     36.000
      3 SP2       1 res   C3        3      0.000     54.000
      4 TC5       1 res   C4        4      0.000     36.000

[ constraints ]
;  ai    aj   funct      b0(nm)
    1     2     1      0.30354
    2     3     1      0.25764
    1     4     1      0.29604
    2     4     1      0.25626

[ bonds ]
;  ai    aj   funct      b0(nm)          k(kJ/mol/nm^2)

[ angles ]
;  ai    aj    ak  funct     th0(deg)        k(kJ/mol/rad^2)
    1     2     3     1     93.59439          2125.30
    1     2     4     1     63.19489          5390.36
    1     4     2     1     66.22242          6825.13
    2     1     4     1     50.58264          8889.19
    3     2     4     1    156.09814          1587.41

[ dihedrals ]
;  ai    aj    ak    al  funct   phi0(deg)        k(kJ/mol)   mult
    1     4     2     3     1    179.13629       21.114      1
    3     2     1     4     1     -0.95690       10.084      1
