1TPCN02181
18
    1res  C1    1    0.561   0.024  -0.127
    1res  C2    2    0.803  -0.120  -0.024
    1res  C3    3    1.155  -0.110  -0.133
    1res  C4    4    1.412   0.042  -0.065
    1res  C5    5    1.171   0.102   0.082
    1res  C6    6    0.242   0.082  -0.013
    1res  C7    7    0.120  -0.119   0.044
    1res  C8    8   -0.043  -0.002  -0.148
    1res  C9    9   -0.260   0.028  -0.012
    1res  C10   10   -0.390  -0.115   0.220
    1res  C11   11   -0.481  -0.393   0.113
    1res  C12   12   -0.531  -0.155  -0.052
    1res  C13   13   -0.851   0.068   0.039
    1res  C14   14   -1.033   0.022  -0.149
    1res  C15   15   -0.855   0.332   0.048
    1res  C16   16   -0.610   0.219   0.143
    1res  C17   17    0.038   0.148   0.087
    1res  C18   18    0.239   0.043   0.234
  10.00000  10.00000  10.00000
