[ moleculetype ]
; name        nrexcl
res           1

[ atoms ]
;    nr  type resnr resid  atom  cgnr     charge       mass
      1 TC4       1 res   C1        1      0.000     36.000
      2 TC3       1 res   C2        2      0.000     36.000
      3 SN4a      1 res   C3        3      0.000     54.000
      4 TN6       1 res   C4        4      0.000     36.000
      5 SC4       1 res   C5        5      0.000     54.000
      6 TC3       1 res   C6        6      0.000     36.000
      7 TC5       1 res   C7        7      0.000     36.000
      8 SN6       1 res   C8        8      0.000     54.000
      9 N4a       1 res   C9        9      0.000     72.000
     10 TN2a      1 res   C10      10      0.000     36.000

[ bonds ]
;  ai    aj   funct      b0(nm)        k
    1     2     1      0.33765    20000
    1     5     1      0.34445    20000
    2     3     1      0.37420    20000
    2     4     1      0.22927    20000
    4     5     1      0.27140    20000
    5     6     1      0.27521    20000
    5     7     1      0.27242    20000
    6     7     1      0.29231    20000
    7     8     1      0.25197    20000
    7    10     1      0.17190    20000
    8     9     1      0.30530    20000
    8    10     1      0.17852    20000
