[ moleculetype ]
; name        nrexcl
res           1

[ atoms ]
;    nr  type  resnr resid  atom  cgnr     charge       mass
      1 TC3       1 res   C1        1      0.000     36.000
      2 TC3       1 res   C2        2      0.000     36.000
      3 TC3       1 res   C3        3      0.000     36.000
      4 TC5       1 res   C4        4      0.000     36.000
      5 TC5       1 res   C5        5      0.000     36.000
      6 TN6d      1 res   C6        6      0.000     36.000
      7 TC5       1 res   C7        7      0.000     36.000
      8 TC5       1 res   C8        8      0.000     36.000
      9 TC5       1 res   C9        9      0.000     36.000
     10 TC3       1 res   C10      10      0.000     36.000
     11 TN6d      1 res   C11      11      0.000     36.000

[ constraints ]
;  ai    aj   funct      b0(nm)
    1     2     1      0.25389
   10    11     1      0.30892
    2     3     1      0.28063
    4     5     1      0.22930
    5    10     1      0.25263
    3    11     1      0.25595
    5     7     1      0.18432
    7     9     1      0.25038
    4    11     1      0.30916
    3     4     1      0.27823
    7     8     1      0.24964
    5     6     1      0.21794
    6     7     1      0.21812
    2     4     1      0.27336
    8     9     1      0.29129

[ bonds ]
;  ai    aj   funct      b0(nm)          k(kJ/mol/nm^2)

[ angles ]
;  ai    aj    ak  funct     th0(deg)        k(kJ/mol/rad^2)
    1     2     3     1    129.56112           179.46
    1     2     4     1     84.69933           955.19
    2     3     4     1     58.56142          2950.29
    2     3    11     1     64.97990          1895.60
    2     4     3     1     61.17102          2601.32
    2     4     5     1    146.87957           376.78
    2     4    11     1     59.09218          3030.27
    3     2     4     1     60.26754          5920.15
    3     4     5     1     91.01993           934.57
    3     4    11     1     51.33402          5042.92
    3    11     4     1     58.07814          6249.35
    3    11    10     1    105.46791           222.49
    4     3    11     1     70.58783          4630.69
    4     5     6     1     94.88153           969.55
    4     5     7     1    155.31338           376.53
    4     5    10     1     84.28955          1867.93
    4    11    10     1     63.18389          3079.12
    5     4    11     1     90.40949           247.97
    5     6     7     1     49.99778          8660.51
    5     7     6     1     64.95600          2530.92
    5     7     8     1    161.13729          1519.01
    5     7     9     1    126.78525          1955.86
    5    10    11     1     86.30854           268.60
    6     5     7     1     65.04621          3058.07
    6     5    10     1    166.44386           265.66
    6     7     8     1     96.69261          1630.63
    6     7     9     1    166.96952          1166.45
    7     5    10     1    118.21798          1222.53
    7     8     9     1     54.48637         11120.65
    7     9     8     1     54.24844         13982.09
    8     7     9     1     71.26519          6839.64

[ dihedrals ]
;  ai    aj    ak    al  funct   phi0(deg)        k(kJ/mol)   mult
    1     2     3     4     1   -130.12440       13.626      1
    1     2     3    11     1    -47.82053       12.198      1
    1     2     4     3     1     39.01417       14.353      1
    1     2     4     5     1      1.08342       12.979      1
    1     2     4    11     1    -20.98530       14.330      1
    2     3     4     5     1    -18.97980       10.038      1
    2     3     4    11     1   -108.01648        4.810      1
    2     3    11     4     1    116.01882        4.752      1
    2     3    11    10     1     73.97647        9.344      1
    2     4     3    11     1    108.01648        4.810      1
    2     4     5     6     1    -82.34076       15.046      1
    2     4     5     7     1    -48.17677       19.065      1
    2     4     5    10     1    112.96697       12.928      1
    2     4    11     3     1   -103.95489        6.277      1
    2     4    11    10     1     28.85566       12.964      1
    3     2     4     5     1    145.91494       13.679      1
    3     2     4    11     1    120.91622        3.994      1
    3     4     5     6     1   -110.20238       13.655      1
    3     4     5     7     1    -77.04571       19.844      1
    3     4     5    10     1     81.90302       10.779      1
    3     4    11    10     1    -47.97945       15.047      1
    3    11     4     5     1     89.00402        8.568      1
    3    11    10     5     1   -176.88745       15.813      1
    4     2     3    11     1    -98.03464        4.781      1
    4     3    11    10     1    138.18321       10.777      1
    4     5     6     7     1    -15.14510       10.010      1
    4     5     7     6     1    143.61593       15.685      1
    4     5     7     8     1    143.89851       23.063      1
    4     5     7     9     1    -39.22471       17.723      1
    4     5    10    11     1   -133.04668       11.550      1
    4    11    10     5     1    143.95509        9.303      1
    5     4     3    11     1    -90.97239       11.522      1
    5     4    11    10     1   -138.85247       10.065      1
    5     6     7     8     1     -0.16614        9.283      1
    5     6     7     9     1      0.12789       27.199      1
    5     7     8     9     1     -0.08771       19.578      1
    5     7     9     8     1     -0.93996       11.496      1
    6     5     4    11     1    -58.89350       14.315      1
    6     5     7     8     1    178.03870       21.674      1
    6     5     7     9     1     -0.76080       12.869      1
    6     5    10    11     1    158.08746       23.150      1
    6     7     5    10     1    -13.99174       12.256      1
    6     7     8     9     1     -0.04410       10.725      1
    6     7     9     8     1    176.66864       27.191      1
    7     5     4    11     1    -25.08547       19.829      1
    7     5    10    11     1     33.22998       15.766      1
    7     6     5    10     1     53.48280       22.901      1
    8     7     5    10     1    -16.74602       23.460      1
    9     7     5    10     1    165.02197       15.738      1
   10     5     4    11     1    133.99119       12.216      1
