[ moleculetype ]
; name        nrexcl
res           1

[ atoms ]
;    nr  type  resnr resid  atom  cgnr     charge       mass
      1 TC4       1 res   C1        1      0.000     36.000
      2 SN6       1 res   C2        2      0.000     54.000
      3 SN5a      1 res   C3        3      0.000     54.000
      4 SC5       1 res   C4        4      0.000     54.000
      5 N4a       1 res   C5        5      0.000     72.000
      6 TC5       1 res   C6        6      0.000     36.000
      7 SN6       1 res   C7        7      0.000     54.000
      8 TC5       1 res   C8        8      0.000     36.000
      9 TN6       1 res   C9        9      0.000     36.000
     10 SN4a      1 res   C10      10      0.000     54.000
     11 N4a       1 res   C11      11      0.000     72.000
     12 TC5       1 res   C12      12      0.000     36.000
     13 SN6       1 res   C13      13      0.000     54.000
     14 TC5       1 res   C14      14      0.000     36.000
     15 SP4       1 res   C15      15      0.000     54.000
     16 TN6       1 res   C16      16      0.000     36.000

[ constraints ]
;  ai    aj   funct      b0(nm)
    6     8     1      0.29781
    1     3     1      0.35732
   10    15     1      0.24710
    1     9     1      0.26120
    2     4     1      0.28259
    5     6     1      0.31423
    6     7     1      0.30218
    1     2     1      0.36476
    2     3     1      0.28598
   11    12     1      0.31197
   12    14     1      0.29776
    7     8     1      0.28424
    4     9     1      0.22923
   10    16     1      0.27034
    3     4     1      0.31792
   12    13     1      0.29921

[ bonds ]
;  ai    aj   funct      b0(nm)          k(kJ/mol/nm^2)
    4     5     1      0.33998          18548.4
   13    14     1      0.29838          16177.3
    9    10     1      0.28865          13542.1
   15    16     1      0.26578          15135.3
   10    11     1      0.29091           9254.7

[ angles ]
;  ai    aj    ak  funct     th0(deg)        k(kJ/mol/rad^2)
    1     2     3     1     65.30115          3687.58
    1     2     4     1     73.82958          2568.86
    1     3     2     1     68.05286          2578.85
    1     3     4     1     71.19548          3810.30
    1     9     4     1    106.91655          1181.58
    1     9    10     1    137.81652            54.92
    2     1     3     1     46.64601          4633.21
    2     1     9     1     75.58390          2318.72
    2     3     4     1     55.48809          3019.12
    2     4     3     1     56.49948          4351.14
    2     4     5     1    108.72782           932.76
    2     4     9     1     99.56814          1680.86
    3     1     9     1     58.83413          2415.11
    3     2     4     1     68.01256          2867.77
    3     4     5     1     56.27372          1540.94
    3     4     9     1     68.12457          2620.16
    4     5     6     1    109.45582            56.24
    4     9    10     1     94.78338            64.29
    5     4     9     1     74.79627           352.89
    5     6     7     1    156.17084           487.27
    5     6     8     1    100.97381           630.60
    6     7     8     1     60.95286         11716.11
    6     8     7     1     62.49838         14419.39
    7     6     8     1     56.54876         12025.47
    9    10    11     1    139.01809            36.71
    9    10    15     1    122.17611           129.39
    9    10    16     1     62.79332           307.76
   10    11    12     1    109.54093            71.62
   10    15    16     1     63.49488           812.56
   10    16    15     1     54.96705           680.77
   11    10    15     1     91.53038           156.08
   11    10    16     1    135.73163           172.91
   11    12    13     1    161.00738           349.36
   11    12    14     1    102.81261           672.64
   12    13    14     1     59.73003          4676.62
   12    14    13     1     60.26276          1782.12
   13    12    14     1     60.00728           884.38
   15    10    16     1     61.53598          1143.52

[ dihedrals ]
;  ai    aj    ak    al  funct   phi0(deg)        k(kJ/mol)   mult
    1     2     3     4     1     97.06902        4.023      1
    1     2     4     3     1   -110.93517        3.989      1
    1     2     4     5     1    -89.00769        9.996      1
    1     2     4     9     1   -166.00081        6.306      1
    1     3     2     4     1    -97.06902        4.023      1
    1     3     4     2     1    104.03704        4.795      1
    1     3     4     5     1    -50.97944       11.451      1
    1     3     4     9     1   -136.04578        6.256      1
    1     9     4     2     1    160.98023        7.100      1
    1     9     4     3     1    113.00191        5.553      1
    1     9     4     5     1     53.99631        9.213      1
    1     9    10    11     1    -44.45899       18.893      1
    1     9    10    15     1   -176.72653       14.741      1
    1     9    10    16     1   -162.91586       18.156      1
    2     1     3     4     1   -120.98681        4.040      1
    2     1     9     4     1   -164.98835        5.579      1
    2     1     9    10     1    -32.05818       27.209      1
    2     3     1     9     1     80.03560        6.294      1
    2     3     4     5     1     25.27685       10.034      1
    2     3     4     9     1    -60.08703        6.307      1
    2     4     5     6     1   -105.04616       19.770      1
    2     4     9    10     1      6.98305       19.481      1
    3     1     2     4     1    107.00828        4.038      1
    3     1     9     4     1   -117.00751        5.493      1
    3     1     9    10     1     14.07116       24.687      1
    3     2     1     9     1   -119.92861        6.273      1
    3     2     4     5     1   -157.86881        9.285      1
    3     2     4     9     1    124.03843        4.813      1
    3     4     5     6     1    -84.98334       18.393      1
    3     4     9    10     1    -40.83730       19.502      1
    4     2     1     9     1    167.98528        4.815      1
    4     3     1     9     1    139.98571        4.721      1
    4     5     6     7     1     31.61671       30.488      1
    4     5     6     8     1     33.78490       25.342      1
    4     9    10    11     1     95.92205       25.751      1
    4     9    10    15     1    -35.74274       22.726      1
    4     9    10    16     1    -27.47113       21.677      1
    5     4     9    10     1    -98.40060       17.534      1
    5     6     7     8     1   -176.30072       23.342      1
    5     6     8     7     1      2.91108       15.683      1
    6     5     4     9     1     -9.66209       17.107      1
    9    10    11    12     1   -131.44908       26.763      1
    9    10    15    16     1   -168.92377       15.784      1
    9    10    16    15     1     13.13516       15.774      1
   10    11    12    13     1    -82.02312       29.041      1
   10    11    12    14     1    -87.26100       25.151      1
   11    10    15    16     1     34.00533       13.579      1
   11    10    16    15     1   -124.37254       19.069      1
   11    12    13    14     1    171.45602       29.070      1
   11    12    14    13     1     -2.14929       14.934      1
   12    11    10    15     1     20.48100       27.849      1
   12    11    10    16     1    -31.20255       29.131      1
