1TPCN04328
56
    1res  C1    1    2.180   0.191  -0.123
    1res  C2    2    1.966   0.171   0.098
    1res  C3    3    1.903   0.341   0.239
    1res  C4    4    1.694   0.305   0.283
    1res  C5    5    1.500   0.184   0.237
    1res  C6    6    1.335   0.113   0.102
    1res  C7    7    1.453  -0.069  -0.026
    1res  C8    8    1.652  -0.137   0.024
    1res  C9    9    1.232  -0.136  -0.073
    1res  C10   10    1.194  -0.373   0.090
    1res  C11   11    1.037  -0.362  -0.157
    1res  C12   12    0.842  -0.310   0.016
    1res  C13   13    0.627  -0.205  -0.013
    1res  C14   14    0.571  -0.506  -0.052
    1res  C15   15    0.367  -0.440  -0.223
    1res  C16   16    0.441  -0.210  -0.147
    1res  C17   17    0.388  -0.042  -0.227
    1res  C18   18    0.235   0.096  -0.178
    1res  C19   19   -0.039   0.010  -0.171
    1res  C20   20   -0.222   0.218  -0.104
    1res  C21   21   -0.338   0.118  -0.441
    1res  C22   22   -0.485   0.234  -0.200
    1res  C23   23   -0.465  -0.121  -0.121
    1res  C24   24   -0.677   0.007  -0.368
    1res  C25   25   -0.821  -0.166  -0.108
    1res  C26   26   -0.990  -0.384  -0.072
    1res  C27   27   -1.096  -0.119  -0.023
    1res  C28   28   -0.873   0.090   0.065
    1res  C29   29   -1.050   0.178   0.214
    1res  C30   30   -1.309   0.060   0.310
    1res  C31   31   -1.483  -0.130   0.147
    1res  C32   32   -1.668  -0.303   0.352
    1res  C33   33   -1.724  -0.044   0.222
    1res  C34   34   -1.921   0.057   0.207
    1res  C35   35   -2.047  -0.129   0.006
    1res  C36   36   -2.230  -0.052   0.206
    1res  C37   37   -2.134  -0.158   0.376
    1res  C38   38   -1.991   0.029   0.417
    1res  C39   39   -1.679   0.090   0.061
    1res  C40   40   -1.492  -0.025  -0.038
    1res  C41   41   -1.293   0.330   0.214
    1res  C42   42   -1.133   0.484   0.133
    1res  C43   43   -0.932   0.439   0.212
    1res  C44   44   -0.849   0.174  -0.235
    1res  C45   45   -0.001   0.314  -0.349
    1res  C46   46    0.462   0.262  -0.173
    1res  C47   47    0.492   0.253  -0.421
    1res  C48   48    0.502   0.034  -0.392
    1res  C49   49    0.943  -0.404   0.184
    1res  C50   50    1.220   0.105  -0.116
    1res  C51   51    1.455   0.160   0.447
    1res  C52   52    1.650   0.139   0.576
    1res  C53   53    1.778   0.316   0.525
    1res  C54   54    1.980  -0.015   0.235
    1res  C55   55    2.046  -0.160   0.048
    1res  C56   56    2.005  -0.017  -0.132
  10.00000  10.00000  10.00000
