[ moleculetype ]
; name        nrexcl
res           1

[ atoms ]
;    nr  type  resnr resid  atom  cgnr     charge       mass
      1 TC3       1 res   C1        1      0.000     36.000
      2 TC3       1 res   C2        2      0.000     36.000
      3 TN6d      1 res   C3        3      0.000     36.000
      4 TC3       1 res   C4        4      0.000     36.000
      5 TC5       1 res   C5        5      0.000     36.000
      6 TN6d      1 res   C6        6      0.000     36.000
      7 TC5       1 res   C7        7      0.000     36.000
      8 TC5       1 res   C8        8      0.000     36.000
      9 TC5       1 res   C9        9      0.000     36.000
     10 SC3       1 res   C10      10      0.000     54.000
     11 N4a       1 res   C11      11      0.000     72.000

[ constraints ]
;  ai    aj   funct      b0(nm)
    1     2     1      0.26629
    3     5     1      0.22650
    2     3     1      0.26336
    4     5     1      0.23680
    5    10     1      0.24575
    7     9     1      0.24861
    5     7     1      0.18420
    3     4     1      0.29090
    3    10     1      0.26479
    5     6     1      0.17298
    7     8     1      0.24805
    6     7     1      0.17967
    2    10     1      0.30717
    8     9     1      0.28933

[ bonds ]
;  ai    aj   funct      b0(nm)          k(kJ/mol/nm^2)
   10    11     1      0.42578          18650.3

[ angles ]
;  ai    aj    ak  funct     th0(deg)        k(kJ/mol/rad^2)
    1     2     3     1    147.85632           449.65
    1     2    10     1     97.98869          1153.93
    2     3     4     1     67.87727          1670.94
    2     3     5     1     97.67244          1521.66
    2     3    10     1     71.11931          2981.66
    2    10     3     1     54.21557          3946.06
    2    10     5     1     83.07315          2483.90
    2    10    11     1     94.05505           277.04
    3     2    10     1     54.66506          3658.14
    3     4     5     1     49.54689          4227.57
    3     5     4     1     77.75876          2491.03
    3     5     6     1     88.46237          1433.20
    3     5     7     1    147.64406          1307.65
    3     5    10     1     68.07449          3338.20
    3    10     5     1     52.50248          6475.57
    3    10    11     1    126.39133           498.94
    4     3     5     1     52.69422          4294.25
    4     3    10     1     90.20722          2356.33
    4     5     6     1    123.12258           243.53
    4     5     7     1    111.15404           605.49
    4     5    10     1    109.50311          1301.47
    5     3    10     1     59.42304          3806.68
    5     6     7     1     62.95060          4633.97
    5     7     6     1     56.75000          6698.88
    5     7     8     1    157.96970          1113.32
    5     7     9     1    129.67263          1236.44
    5    10    11     1     85.79366           504.32
    6     5     7     1     60.29935          5753.29
    6     5    10     1    115.46326           324.51
    6     7     8     1    101.87945          1348.25
    6     7     9     1    171.61675           925.86
    7     5    10     1    130.43000           506.45
    7     8     9     1     54.45723         10275.44
    7     9     8     1     54.28195          7427.86
    8     7     9     1     71.26081          6874.08

[ dihedrals ]
;  ai    aj    ak    al  funct   phi0(deg)        k(kJ/mol)   mult
    1     2     3     4     1    109.54716       24.432      1
    1     2     3     5     1    153.21142       25.870      1
    1     2     3    10     1   -154.71839       24.696      1
    1     2    10     3     1     16.09889       16.465      1
    1     2    10     5     1     64.14152       16.460      1
    1     2    10    11     1    148.07080       17.810      1
    2     3     4     5     1    -60.04641        6.283      1
    2     3     5     4     1    125.05250        5.526      1
    2     3     5     6     1      1.21178       11.487      1
    2     3     5     7     1     15.09430       12.941      1
    2     3     5    10     1   -117.94827        4.789      1
    2     3    10     5     1     68.96381        5.567      1
    2     3    10    11     1    114.05570       12.270      1
    2    10     3     4     1   -113.96862        4.789      1
    2    10     3     5     1    -68.96381        5.567      1
    2    10     5     3     1    130.96359        4.037      1
    2    10     5     4     1   -161.08784        7.056      1
    2    10     5     6     1     53.96987       10.720      1
    2    10     5     7     1    -19.16545        7.059      1
    3     2    10     5     1   -131.99623        4.718      1
    3     2    10    11     1    -50.76795       10.008      1
    3     4     5     6     1   -100.03180        6.279      1
    3     4     5     7     1    -32.95096        7.009      1
    3     4     5    10     1    118.98906        4.028      1
    3     5     6     7     1     -8.97739        5.530      1
    3     5     7     6     1    164.00411        9.281      1
    3     5     7     8     1    162.99062       24.528      1
    3     5     7     9     1    -16.90453       12.998      1
    3     5    10    11     1     36.92961       10.030      1
    3    10     5     4     1   -112.04193        4.782      1
    3    10     5     6     1    103.95726        9.278      1
    3    10     5     7     1     31.02076        7.044      1
    4     3     2    10     1     82.91375        5.498      1
    4     3     5     6     1     54.09959       10.785      1
    4     3     5     7     1     68.89936       12.912      1
    4     3     5    10     1    -62.07984        6.247      1
    4     3    10     5     1    135.00513        4.017      1
    4     3    10    11     1   -178.95795       11.550      1
    4     5     3    10     1     62.07984        6.247      1
    4     5     6     7     1    -82.04887        7.746      1
    4     5     7     6     1     61.21101       11.454      1
    4     5     7     8     1     63.67859       22.778      1
    4     5     7     9     1   -117.07892       15.681      1
    4     5    10    11     1    104.89544       10.043      1
    5     3     2    10     1    126.91834        3.992      1
    5     3    10    11     1   -133.96238       10.822      1
    5     4     3    10     1   -130.00232        4.730      1
    5     6     7     8     1     -0.09819       12.117      1
    5     6     7     9     1     -3.61773       31.625      1
    5     7     8     9     1      0.05932       21.276      1
    5     7     9     8     1      3.57217       13.571      1
    6     5     3    10     1    -61.85945       10.780      1
    6     5     7     8     1   -179.35349       22.105      1
    6     5     7     9     1      0.95733       12.960      1
    6     5    10    11     1    -39.08503       11.491      1
    6     7     5    10     1    -79.10005       11.482      1
    6     7     8     9     1     -0.89198       10.045      1
    6     7     9     8     1   -173.40763       32.067      1
    7     5     3    10     1    -48.20552       12.258      1
    7     5    10    11     1   -112.97694       10.075      1
    7     6     5    10     1     54.14836        7.775      1
    8     7     5    10     1    -80.23444       24.092      1
    9     7     5    10     1     99.74779       13.616      1
