1TPCN04463
22
    1res  C1    1   -0.882   0.001  -0.333
    1res  C2    2   -0.878  -0.228  -0.147
    1res  C3    3   -0.698  -0.025  -0.122
    1res  C4    4   -0.578  -0.369  -0.048
    1res  C5    5   -0.674  -0.120   0.195
    1res  C6    6   -0.590   0.129   0.119
    1res  C7    7   -0.333   0.082  -0.117
    1res  C8    8   -0.362   0.126   0.256
    1res  C9    9   -0.130   0.227   0.249
    1res  C10   10   -0.004   0.206  -0.036
    1res  C11   11    0.182   0.055   0.035
    1res  C12   12    0.419  -0.040  -0.099
    1res  C13   13    0.648   0.008  -0.169
    1res  C14   14    0.942   0.012  -0.132
    1res  C15   15    1.123   0.025   0.088
    1res  C16   16    1.199  -0.136  -0.172
    1res  C17   17    0.982  -0.270  -0.280
    1res  C18   18    0.930  -0.056  -0.385
    1res  C19   19    0.662   0.010   0.078
    1res  C20   20    0.488   0.208   0.068
    1res  C21   21    0.149   0.042   0.279
    1res  C22   22   -0.214  -0.120   0.167
  10.00000  10.00000  10.00000
