1TPCN04600
28
    1res  C1    1   -1.140   0.166   0.203
    1res  C2    2   -1.147   0.033  -0.070
    1res  C3    3   -0.921   0.046   0.090
    1res  C4    4   -0.951   0.216  -0.258
    1res  C5    5   -0.794  -0.070  -0.246
    1res  C6    6   -0.661  -0.177   0.001
    1res  C7    7   -0.585   0.011   0.242
    1res  C8    8   -0.503   0.088  -0.011
    1res  C9    9   -0.257   0.081   0.076
    1res  C10   10   -0.169  -0.140   0.231
    1res  C11   11    0.039  -0.124   0.090
    1res  C12   12    0.276  -0.189   0.256
    1res  C13   13    0.262  -0.426   0.278
    1res  C14   14    0.517  -0.296   0.224
    1res  C15   15    0.478  -0.138   0.059
    1res  C16   16    0.567   0.007  -0.155
    1res  C17   17    0.507  -0.054  -0.443
    1res  C18   18    0.776   0.037  -0.354
    1res  C19   19    0.870   0.005  -0.168
    1res  C20   20    1.079   0.195  -0.049
    1res  C21   21    1.250   0.416  -0.089
    1res  C22   22    1.318   0.188   0.108
    1res  C23   23    1.214   0.002   0.165
    1res  C24   24    0.980   0.045   0.126
    1res  C25   25    0.761  -0.146  -0.012
    1res  C26   26    0.326   0.002   0.049
    1res  C27   27   -0.007   0.006  -0.114
    1res  C28   28   -0.354  -0.004  -0.202
  10.00000  10.00000  10.00000
