1TPCN05403
22
    1res  C1    1    0.866  -0.002  -0.323
    1res  C2    2    0.830   0.006  -0.001
    1res  C3    3    0.767   0.242   0.112
    1res  C4    4    0.643   0.054   0.205
    1res  C5    5    0.482  -0.011   0.112
    1res  C6    6    0.342   0.202   0.029
    1res  C7    7    0.211  -0.058   0.246
    1res  C8    8   -0.018  -0.003   0.105
    1res  C9    9   -0.081   0.181  -0.077
    1res  C10   10   -0.267  -0.010  -0.067
    1res  C11   11   -0.514   0.139  -0.229
    1res  C12   12   -0.591  -0.063  -0.412
    1res  C13   13   -0.625  -0.177  -0.204
    1res  C14   14   -0.587  -0.019  -0.049
    1res  C15   15   -0.749  -0.038   0.073
    1res  C16   16   -0.868  -0.232   0.176
    1res  C17   17   -1.074  -0.013   0.196
    1res  C18   18   -0.931   0.126   0.286
    1res  C19   19   -0.835   0.171   0.092
    1res  C20   20   -0.143  -0.202  -0.146
    1res  C21   21    0.183  -0.230   0.024
    1res  C22   22    0.524  -0.151   0.285
  10.00000  10.00000  10.00000
