Generated with MDTraj, t= 0.0
 49
    1UNL     C1    1  -0.174   0.321  -0.236
    1UNL     O1    2  -0.106   0.232  -0.154
    1UNL     C2    3  -0.193   0.174  -0.067
    1UNL     O2    4  -0.312   0.197  -0.064
    1UNL     C3    5  -0.136   0.070   0.029
    1UNL     C4    6  -0.216   0.073   0.164
    1UNL     O3    7  -0.201  -0.037   0.256
    1UNL     C5    8  -0.258  -0.166   0.223
    1UNL     C6    9  -0.158  -0.258   0.148
    1UNL     C7   10  -0.072  -0.159   0.068
    1UNL     C8   11   0.078  -0.154   0.025
    1UNL     C9   12   0.112  -0.007   0.044
    1UNL    C10   13   0.015   0.092   0.049
    1UNL     N1   14   0.077   0.213   0.069
    1UNL    C11   15   0.213   0.193   0.077
    1UNL    C12   16   0.320   0.282   0.096
    1UNL    C13   17   0.447   0.232   0.100
    1UNL    C14   18   0.472   0.095   0.086
    1UNL    C15   19   0.369   0.006   0.067
    1UNL    C16   20   0.238   0.055   0.063
    1UNL     N2   21   0.096  -0.196  -0.116
    1UNL    C17   22   0.070  -0.339  -0.144
    1UNL    C18   23   0.025  -0.103  -0.208
    1UNL    C19   24  -0.125  -0.095  -0.178
    1UNL    C20   25  -0.158  -0.073  -0.028
    1UNL     H1   26  -0.251   0.268  -0.292
    1UNL     H2   27  -0.103   0.368  -0.305
    1UNL     H3   28  -0.221   0.398  -0.173
    1UNL     H4   29  -0.323   0.082   0.142
    1UNL     H5   30  -0.189   0.164   0.219
    1UNL     H6   31  -0.291  -0.212   0.317
    1UNL     H7   32  -0.349  -0.148   0.165
    1UNL     H8   33  -0.095  -0.315   0.218
    1UNL     H9   34  -0.207  -0.331   0.083
    1UNL    H10   35  -0.056  -0.090   0.155
    1UNL    H11   36   0.140  -0.218   0.090
    1UNL    H12   37   0.030   0.304   0.068
    1UNL    H13   38   0.300   0.387   0.107
    1UNL    H14   39   0.530   0.299   0.115
    1UNL    H15   40   0.573   0.059   0.089
    1UNL    H16   41   0.387  -0.099   0.055
    1UNL    H17   42  -0.034  -0.364  -0.125
    1UNL    H18   43   0.133  -0.401  -0.079
    1UNL    H19   44   0.094  -0.362  -0.247
    1UNL    H20   45   0.071  -0.004  -0.199
    1UNL    H21   46   0.043  -0.136  -0.311
    1UNL    H22   47  -0.169  -0.013  -0.236
    1UNL    H23   48  -0.174  -0.186  -0.213
    1UNL    H24   49  -0.264  -0.098  -0.014
   0.00000   0.00000   0.00000   0.00000   0.00000   0.00000   0.00000   0.00000   0.00000
Generated with MDTraj, t= 1.0
 49
    1UNL     C1    1  -0.186   0.261  -0.285
    1UNL     O1    2  -0.115   0.212  -0.176
    1UNL     C2    3  -0.197   0.170  -0.074
    1UNL     O2    4  -0.318   0.190  -0.070
    1UNL     C3    5  -0.131   0.085   0.031
    1UNL     C4    6  -0.205   0.088   0.175
    1UNL     O3    7  -0.182  -0.032   0.259
    1UNL     C5    8  -0.238  -0.173   0.227
    1UNL     C6    9  -0.139  -0.256   0.142
    1UNL     C7   10  -0.062  -0.149   0.070
    1UNL     C8   11   0.078  -0.147   0.009
    1UNL     C9   12   0.115   0.001   0.028
    1UNL    C10   13   0.024   0.104   0.042
    1UNL     N1   14   0.083   0.220   0.080
    1UNL    C11   15   0.217   0.193   0.096
    1UNL    C12   16   0.321   0.279   0.139
    1UNL    C13   17   0.443   0.218   0.148
    1UNL    C14   18   0.471   0.087   0.108
    1UNL    C15   19   0.376   0.004   0.064
    1UNL    C16   20   0.243   0.054   0.055
    1UNL     N2   21   0.087  -0.184  -0.136
    1UNL    C17   22   0.042  -0.329  -0.150
    1UNL    C18   23   0.001  -0.089  -0.217
    1UNL    C19   24  -0.143  -0.087  -0.169
    1UNL    C20   25  -0.156  -0.060  -0.011
    1UNL     H1   26  -0.294   0.272  -0.256
    1UNL     H2   27  -0.145   0.218  -0.380
    1UNL     H3   28  -0.174   0.371  -0.280
    1UNL     H4   29  -0.316   0.089   0.161
    1UNL     H5   30  -0.169   0.167   0.240
    1UNL     H6   31  -0.267  -0.234   0.316
    1UNL     H7   32  -0.342  -0.167   0.191
    1UNL     H8   33  -0.066  -0.320   0.191
    1UNL     H9   34  -0.191  -0.329   0.078
    1UNL    H10   35  -0.054  -0.084   0.159
    1UNL    H11   36   0.150  -0.205   0.068
    1UNL    H12   37   0.040   0.302   0.124
    1UNL    H13   38   0.317   0.385   0.132
    1UNL    H14   39   0.532   0.274   0.156
    1UNL    H15   40   0.577   0.055   0.107
    1UNL    H16   41   0.402  -0.100   0.029
    1UNL    H17   42   0.137  -0.379  -0.154
    1UNL    H18   43   0.010  -0.343  -0.251
    1UNL    H19   44  -0.026  -0.374  -0.078
    1UNL    H20   45   0.061   0.006  -0.219
    1UNL    H21   46   0.002  -0.115  -0.321
    1UNL    H22   47  -0.211  -0.010  -0.216
    1UNL    H23   48  -0.193  -0.183  -0.183
    1UNL    H24   49  -0.262  -0.069  -0.002
   0.00000   0.00000   0.00000   0.00000   0.00000   0.00000   0.00000   0.00000   0.00000
Generated with MDTraj, t= 2.0
 49
    1UNL     C1    1  -0.195   0.278  -0.277
    1UNL     O1    2  -0.133   0.187  -0.196
    1UNL     C2    3  -0.199   0.173  -0.082
    1UNL     O2    4  -0.296   0.238  -0.040
    1UNL     C3    5  -0.137   0.071   0.017
    1UNL     C4    6  -0.213   0.094   0.160
    1UNL     O3    7  -0.169  -0.003   0.260
    1UNL     C5    8  -0.216  -0.139   0.251
    1UNL     C6    9  -0.126  -0.236   0.172
    1UNL     C7   10  -0.063  -0.150   0.066
    1UNL     C8   11   0.083  -0.155  -0.000
    1UNL     C9   12   0.116  -0.011   0.021
    1UNL    C10   13   0.018   0.093   0.029
    1UNL     N1   14   0.073   0.201   0.088
    1UNL    C11   15   0.206   0.178   0.097
    1UNL    C12   16   0.304   0.263   0.152
    1UNL    C13   17   0.428   0.214   0.164
    1UNL    C14   18   0.463   0.090   0.122
    1UNL    C15   19   0.375   0.003   0.072
    1UNL    C16   20   0.239   0.047   0.059
    1UNL     N2   21   0.085  -0.190  -0.155
    1UNL    C17   22   0.091  -0.334  -0.183
    1UNL    C18   23  -0.007  -0.096  -0.227
    1UNL    C19   24  -0.148  -0.102  -0.175
    1UNL    C20   25  -0.163  -0.073  -0.020
    1UNL     H1   26  -0.293   0.298  -0.232
    1UNL     H2   27  -0.205   0.249  -0.383
    1UNL     H3   28  -0.145   0.376  -0.272
    1UNL     H4   29  -0.327   0.088   0.160
    1UNL     H5   30  -0.171   0.185   0.203
    1UNL     H6   31  -0.236  -0.178   0.354
    1UNL     H7   32  -0.318  -0.143   0.215
    1UNL     H8   33  -0.055  -0.299   0.225
    1UNL     H9   34  -0.189  -0.306   0.114
    1UNL    H10   35  -0.040  -0.072   0.145
    1UNL    H11   36   0.152  -0.217   0.059
    1UNL    H12   37   0.031   0.295   0.074
    1UNL    H13   38   0.288   0.373   0.170
    1UNL    H14   39   0.508   0.279   0.214
    1UNL    H15   40   0.565   0.065   0.132
    1UNL    H16   41   0.406  -0.092   0.056
    1UNL    H17   42   0.021  -0.356  -0.260
    1UNL    H18   43   0.058  -0.383  -0.095
    1UNL    H19   44   0.193  -0.361  -0.202
    1UNL    H20   45   0.031   0.009  -0.228
    1UNL    H21   46   0.011  -0.124  -0.328
    1UNL    H22   47  -0.215  -0.027  -0.231
    1UNL    H23   48  -0.198  -0.201  -0.187
    1UNL    H24   49  -0.266  -0.103  -0.005
   0.00000   0.00000   0.00000   0.00000   0.00000   0.00000   0.00000   0.00000   0.00000
Generated with MDTraj, t= 3.0
 49
    1UNL     C1    1  -0.198   0.286  -0.269
    1UNL     O1    2  -0.168   0.166  -0.205
    1UNL     C2    3  -0.192   0.178  -0.072
    1UNL     O2    4  -0.250   0.275  -0.023
    1UNL     C3    5  -0.136   0.072   0.020
    1UNL     C4    6  -0.210   0.087   0.163
    1UNL     O3    7  -0.171  -0.017   0.265
    1UNL     C5    8  -0.218  -0.150   0.244
    1UNL     C6    9  -0.137  -0.252   0.146
    1UNL     C7   10  -0.059  -0.156   0.060
    1UNL     C8   11   0.086  -0.154  -0.001
    1UNL     C9   12   0.115  -0.000   0.017
    1UNL    C10   13   0.018   0.095   0.026
    1UNL     N1   14   0.074   0.220   0.055
    1UNL    C11   15   0.210   0.197   0.085
    1UNL    C12   16   0.312   0.272   0.140
    1UNL    C13   17   0.428   0.211   0.168
    1UNL    C14   18   0.456   0.080   0.142
    1UNL    C15   19   0.363   0.000   0.084
    1UNL    C16   20   0.236   0.058   0.061
    1UNL     N2   21   0.085  -0.185  -0.148
    1UNL    C17   22   0.105  -0.331  -0.160
    1UNL    C18   23  -0.017  -0.107  -0.231
    1UNL    C19   24  -0.160  -0.122  -0.175
    1UNL    C20   25  -0.162  -0.074  -0.024
    1UNL     H1   26  -0.301   0.267  -0.302
    1UNL     H2   27  -0.153   0.297  -0.369
    1UNL     H3   28  -0.159   0.370  -0.208
    1UNL     H4   29  -0.325   0.076   0.161
    1UNL     H5   30  -0.165   0.174   0.210
    1UNL     H6   31  -0.221  -0.194   0.348
    1UNL     H7   32  -0.322  -0.149   0.212
    1UNL     H8   33  -0.070  -0.314   0.202
    1UNL     H9   34  -0.204  -0.314   0.081
    1UNL    H10   35  -0.026  -0.092   0.147
    1UNL    H11   36   0.164  -0.216   0.048
    1UNL    H12   37   0.020   0.305   0.080
    1UNL    H13   38   0.297   0.367   0.176
    1UNL    H14   39   0.501   0.264   0.215
    1UNL    H15   40   0.551   0.042   0.183
    1UNL    H16   41   0.387  -0.108   0.065
    1UNL    H17   42   0.090  -0.375  -0.064
    1UNL    H18   43   0.210  -0.332  -0.178
    1UNL    H19   44   0.060  -0.381  -0.242
    1UNL    H20   45   0.034  -0.007  -0.240
    1UNL    H21   46  -0.019  -0.144  -0.329
    1UNL    H22   47  -0.239  -0.059  -0.231
    1UNL    H23   48  -0.185  -0.232  -0.200
    1UNL    H24   49  -0.263  -0.102   0.008
   0.00000   0.00000   0.00000   0.00000   0.00000   0.00000   0.00000   0.00000   0.00000
Generated with MDTraj, t= 4.0
 49
    1UNL     C1    1  -0.243   0.274  -0.266
    1UNL     O1    2  -0.172   0.166  -0.203
    1UNL     C2    3  -0.181   0.183  -0.071
    1UNL     O2    4  -0.227   0.283  -0.017
    1UNL     C3    5  -0.131   0.072   0.030
    1UNL     C4    6  -0.202   0.079   0.163
    1UNL     O3    7  -0.197  -0.034   0.253
    1UNL     C5    8  -0.248  -0.162   0.222
    1UNL     C6    9  -0.149  -0.252   0.139
    1UNL     C7   10  -0.064  -0.156   0.063
    1UNL     C8   11   0.081  -0.158   0.011
    1UNL     C9   12   0.118  -0.005   0.030
    1UNL    C10   13   0.017   0.094   0.043
    1UNL     N1   14   0.078   0.218   0.058
    1UNL    C11   15   0.214   0.196   0.085
    1UNL    C12   16   0.316   0.280   0.122
    1UNL    C13   17   0.437   0.229   0.147
    1UNL    C14   18   0.466   0.095   0.131
    1UNL    C15   19   0.368   0.006   0.093
    1UNL    C16   20   0.238   0.059   0.077
    1UNL     N2   21   0.094  -0.203  -0.132
    1UNL    C17   22   0.070  -0.342  -0.169
    1UNL    C18   23   0.023  -0.102  -0.219
    1UNL    C19   24  -0.126  -0.100  -0.177
    1UNL    C20   25  -0.152  -0.072  -0.032
    1UNL     H1   26  -0.347   0.256  -0.245
    1UNL     H2   27  -0.242   0.279  -0.376
    1UNL     H3   28  -0.200   0.368  -0.231
    1UNL     H4   29  -0.317   0.086   0.146
    1UNL     H5   30  -0.152   0.150   0.230
    1UNL     H6   31  -0.268  -0.221   0.316
    1UNL     H7   32  -0.340  -0.141   0.167
    1UNL     H8   33  -0.087  -0.302   0.213
    1UNL     H9   34  -0.207  -0.323   0.075
    1UNL    H10   35  -0.029  -0.088   0.149
    1UNL    H11   36   0.138  -0.227   0.074
    1UNL    H12   37   0.034   0.312   0.057
    1UNL    H13   38   0.290   0.386   0.150
    1UNL    H14   39   0.517   0.300   0.183
    1UNL    H15   40   0.566   0.067   0.142
    1UNL    H16   41   0.398  -0.093   0.067
    1UNL    H17   42   0.121  -0.409  -0.104
    1UNL    H18   43   0.079  -0.366  -0.271
    1UNL    H19   44  -0.032  -0.340  -0.143
    1UNL    H20   45   0.055   0.006  -0.223
    1UNL    H21   46   0.040  -0.146  -0.313
    1UNL    H22   47  -0.165  -0.028  -0.259
    1UNL    H23   48  -0.172  -0.203  -0.205
    1UNL    H24   49  -0.258  -0.093  -0.012
   0.00000   0.00000   0.00000   0.00000   0.00000   0.00000   0.00000   0.00000   0.00000
Generated with MDTraj, t= 5.0
 49
    1UNL     C1    1  -0.258   0.284  -0.252
    1UNL     O1    2  -0.212   0.167  -0.198
    1UNL     C2    3  -0.186   0.188  -0.067
    1UNL     O2    4  -0.203   0.297  -0.016
    1UNL     C3    5  -0.132   0.077   0.023
    1UNL     C4    6  -0.220   0.069   0.149
    1UNL     O3    7  -0.221  -0.045   0.244
    1UNL     C5    8  -0.270  -0.175   0.201
    1UNL     C6    9  -0.162  -0.260   0.121
    1UNL     C7   10  -0.075  -0.157   0.056
    1UNL     C8   11   0.075  -0.154   0.030
    1UNL     C9   12   0.114  -0.006   0.052
    1UNL    C10   13   0.016   0.096   0.059
    1UNL     N1   14   0.082   0.218   0.079
    1UNL    C11   15   0.218   0.193   0.095
    1UNL    C12   16   0.326   0.281   0.111
    1UNL    C13   17   0.454   0.232   0.110
    1UNL    C14   18   0.472   0.094   0.094
    1UNL    C15   19   0.369   0.006   0.079
    1UNL    C16   20   0.241   0.056   0.081
    1UNL     N2   21   0.108  -0.202  -0.103
    1UNL    C17   22   0.086  -0.345  -0.136
    1UNL    C18   23   0.055  -0.110  -0.209
    1UNL    C19   24  -0.098  -0.087  -0.183
    1UNL    C20   25  -0.147  -0.064  -0.039
    1UNL     H1   26  -0.336   0.326  -0.188
    1UNL     H2   27  -0.273   0.250  -0.357
    1UNL     H3   28  -0.178   0.358  -0.256
    1UNL     H4   29  -0.334   0.063   0.124
    1UNL     H5   30  -0.192   0.150   0.215
    1UNL     H6   31  -0.306  -0.220   0.299
    1UNL     H7   32  -0.354  -0.156   0.134
    1UNL     H8   33  -0.105  -0.310   0.200
    1UNL     H9   34  -0.194  -0.339   0.051
    1UNL    H10   35  -0.056  -0.089   0.146
    1UNL    H11   36   0.125  -0.222   0.101
    1UNL    H12   37   0.037   0.311   0.086
    1UNL    H13   38   0.296   0.384   0.125
    1UNL    H14   39   0.530   0.305   0.130
    1UNL    H15   40   0.575   0.057   0.077
    1UNL    H16   41   0.391  -0.092   0.047
    1UNL    H17   42   0.153  -0.415  -0.095
    1UNL    H18   43   0.073  -0.364  -0.239
    1UNL    H19   44  -0.008  -0.367  -0.095
    1UNL    H20   45   0.115  -0.018  -0.194
    1UNL    H21   46   0.066  -0.147  -0.305
    1UNL    H22   47  -0.121   0.002  -0.253
    1UNL    H23   48  -0.134  -0.179  -0.250
    1UNL    H24   49  -0.252  -0.090  -0.029
   0.00000   0.00000   0.00000   0.00000   0.00000   0.00000   0.00000   0.00000   0.00000
Generated with MDTraj, t= 6.0
 49
    1UNL     C1    1  -0.259   0.284  -0.240
    1UNL     O1    2  -0.251   0.162  -0.164
    1UNL     C2    3  -0.174   0.193  -0.054
    1UNL     O2    4  -0.141   0.305  -0.024
    1UNL     C3    5  -0.133   0.070   0.031
    1UNL     C4    6  -0.234   0.064   0.150
    1UNL     O3    7  -0.242  -0.056   0.230
    1UNL     C5    8  -0.295  -0.181   0.174
    1UNL     C6    9  -0.185  -0.260   0.113
    1UNL     C7   10  -0.081  -0.163   0.056
    1UNL     C8   11   0.077  -0.151   0.055
    1UNL     C9   12   0.110  -0.009   0.079
    1UNL    C10   13   0.016   0.088   0.071
    1UNL     N1   14   0.074   0.208   0.084
    1UNL    C11   15   0.215   0.190   0.081
    1UNL    C12   16   0.323   0.284   0.086
    1UNL    C13   17   0.452   0.235   0.086
    1UNL    C14   18   0.477   0.093   0.073
    1UNL    C15   19   0.369   0.004   0.064
    1UNL    C16   20   0.236   0.049   0.064
    1UNL     N2   21   0.113  -0.184  -0.089
    1UNL    C17   22   0.126  -0.330  -0.111
    1UNL    C18   23   0.063  -0.099  -0.194
    1UNL    C19   24  -0.086  -0.078  -0.193
    1UNL    C20   25  -0.147  -0.065  -0.047
    1UNL     H1   26  -0.303   0.363  -0.175
    1UNL     H2   27  -0.290   0.259  -0.345
    1UNL     H3   28  -0.159   0.327  -0.256
    1UNL     H4   29  -0.341   0.074   0.106
    1UNL     H5   30  -0.213   0.140   0.225
    1UNL     H6   31  -0.351  -0.223   0.265
    1UNL     H7   32  -0.373  -0.148   0.106
    1UNL     H8   33  -0.139  -0.334   0.183
    1UNL     H9   34  -0.213  -0.328   0.032
    1UNL    H10   35  -0.088  -0.097   0.146
    1UNL    H11   36   0.123  -0.221   0.128
    1UNL    H12   37   0.030   0.299   0.055
    1UNL    H13   38   0.296   0.384   0.091
    1UNL    H14   39   0.536   0.296   0.102
    1UNL    H15   40   0.576   0.056   0.083
    1UNL    H16   41   0.384  -0.108   0.048
    1UNL    H17   42   0.114  -0.388  -0.022
    1UNL    H18   43   0.227  -0.346  -0.141
    1UNL    H19   44   0.072  -0.381  -0.187
    1UNL    H20   45   0.106   0.002  -0.187
    1UNL    H21   46   0.100  -0.144  -0.280
    1UNL    H22   47  -0.107   0.014  -0.263
    1UNL    H23   48  -0.138  -0.168  -0.251
    1UNL    H24   49  -0.251  -0.093  -0.063
   0.00000   0.00000   0.00000   0.00000   0.00000   0.00000   0.00000   0.00000   0.00000
Generated with MDTraj, t= 7.0
 49
    1UNL     C1    1  -0.303   0.273  -0.222
    1UNL     O1    2  -0.258   0.155  -0.158
    1UNL     C2    3  -0.167   0.195  -0.067
    1UNL     O2    4  -0.127   0.306  -0.050
    1UNL     C3    5  -0.123   0.077   0.024
    1UNL     C4    6  -0.232   0.072   0.138
    1UNL     O3    7  -0.245  -0.050   0.220
    1UNL     C5    8  -0.301  -0.178   0.153
    1UNL     C6    9  -0.178  -0.263   0.117
    1UNL     C7   10  -0.076  -0.157   0.062
    1UNL     C8   11   0.076  -0.151   0.057
    1UNL     C9   12   0.109  -0.016   0.099
    1UNL    C10   13   0.020   0.091   0.078
    1UNL     N1   14   0.081   0.212   0.100
    1UNL    C11   15   0.211   0.183   0.097
    1UNL    C12   16   0.317   0.273   0.069
    1UNL    C13   17   0.445   0.222   0.057
    1UNL    C14   18   0.471   0.080   0.066
    1UNL    C15   19   0.365  -0.008   0.091
    1UNL    C16   20   0.233   0.044   0.095
    1UNL     N2   21   0.126  -0.176  -0.085
    1UNL    C17   22   0.121  -0.318  -0.130
    1UNL    C18   23   0.078  -0.085  -0.184
    1UNL    C19   24  -0.071  -0.076  -0.189
    1UNL    C20   25  -0.137  -0.063  -0.044
    1UNL     H1   26  -0.320   0.355  -0.149
    1UNL     H2   27  -0.394   0.237  -0.273
    1UNL     H3   28  -0.230   0.308  -0.294
    1UNL     H4   29  -0.337   0.093   0.094
    1UNL     H5   30  -0.214   0.158   0.204
    1UNL     H6   31  -0.358  -0.232   0.236
    1UNL     H7   32  -0.373  -0.138   0.082
    1UNL     H8   33  -0.140  -0.320   0.207
    1UNL     H9   34  -0.205  -0.344   0.050
    1UNL    H10   35  -0.095  -0.087   0.145
    1UNL    H11   36   0.128  -0.222   0.125
    1UNL    H12   37   0.030   0.303   0.103
    1UNL    H13   38   0.290   0.382   0.052
    1UNL    H14   39   0.530   0.297   0.048
    1UNL    H15   40   0.570   0.036   0.048
    1UNL    H16   41   0.384  -0.107   0.108
    1UNL    H17   42   0.143  -0.395  -0.059
    1UNL    H18   43   0.200  -0.324  -0.203
    1UNL    H19   44   0.037  -0.350  -0.188
    1UNL    H20   45   0.134   0.005  -0.154
    1UNL    H21   46   0.117  -0.103  -0.279
    1UNL    H22   47  -0.119   0.004  -0.259
    1UNL    H23   48  -0.119  -0.174  -0.228
    1UNL    H24   49  -0.237  -0.088  -0.069
   0.00000   0.00000   0.00000   0.00000   0.00000   0.00000   0.00000   0.00000   0.00000
Generated with MDTraj, t= 8.0
 49
    1UNL     C1    1  -0.320   0.263  -0.232
    1UNL     O1    2  -0.290   0.156  -0.141
    1UNL     C2    3  -0.179   0.195  -0.069
    1UNL     O2    4  -0.131   0.303  -0.081
    1UNL     C3    5  -0.129   0.088   0.026
    1UNL     C4    6  -0.225   0.069   0.148
    1UNL     O3    7  -0.239  -0.058   0.227
    1UNL     C5    8  -0.291  -0.186   0.170
    1UNL     C6    9  -0.177  -0.265   0.102
    1UNL     C7   10  -0.082  -0.152   0.058
    1UNL     C8   11   0.070  -0.149   0.055
    1UNL     C9   12   0.104  -0.006   0.082
    1UNL    C10   13   0.019   0.101   0.071
    1UNL     N1   14   0.088   0.219   0.074
    1UNL    C11   15   0.222   0.188   0.091
    1UNL    C12   16   0.335   0.275   0.089
    1UNL    C13   17   0.461   0.217   0.091
    1UNL    C14   18   0.482   0.071   0.091
    1UNL    C15   19   0.367  -0.007   0.083
    1UNL    C16   20   0.236   0.049   0.082
    1UNL     N2   21   0.124  -0.186  -0.084
    1UNL    C17   22   0.111  -0.329  -0.134
    1UNL    C18   23   0.090  -0.087  -0.177
    1UNL    C19   24  -0.063  -0.062  -0.180
    1UNL    C20   25  -0.141  -0.054  -0.044
    1UNL     H1   26  -0.390   0.334  -0.186
    1UNL     H2   27  -0.391   0.209  -0.297
    1UNL     H3   28  -0.228   0.307  -0.270
    1UNL     H4   29  -0.327   0.091   0.100
    1UNL     H5   30  -0.222   0.150   0.222
    1UNL     H6   31  -0.324  -0.246   0.263
    1UNL     H7   32  -0.370  -0.165   0.101
    1UNL     H8   33  -0.125  -0.348   0.159
    1UNL     H9   34  -0.232  -0.308   0.018
    1UNL    H10   35  -0.082  -0.083   0.147
    1UNL    H11   36   0.115  -0.209   0.138
    1UNL    H12   37   0.046   0.304   0.037
    1UNL    H13   38   0.326   0.377   0.087
    1UNL    H14   39   0.542   0.279   0.082
    1UNL    H15   40   0.581   0.030   0.081
    1UNL    H16   41   0.373  -0.119   0.086
    1UNL    H17   42   0.197  -0.394  -0.135
    1UNL    H18   43   0.081  -0.326  -0.239
    1UNL    H19   44   0.031  -0.377  -0.081
    1UNL    H20   45   0.143   0.005  -0.146
    1UNL    H21   46   0.141  -0.115  -0.264
    1UNL    H22   47  -0.084   0.045  -0.222
    1UNL    H23   48  -0.122  -0.126  -0.255
    1UNL    H24   49  -0.240  -0.078  -0.069
   0.00000   0.00000   0.00000   0.00000   0.00000   0.00000   0.00000   0.00000   0.00000
Generated with MDTraj, t= 9.0
 49
    1UNL     C1    1  -0.325   0.272  -0.208
    1UNL     O1    2  -0.284   0.148  -0.140
    1UNL     C2    3  -0.171   0.188  -0.074
    1UNL     O2    4  -0.122   0.300  -0.079
    1UNL     C3    5  -0.125   0.073   0.019
    1UNL     C4    6  -0.219   0.075   0.144
    1UNL     O3    7  -0.227  -0.039   0.227
    1UNL     C5    8  -0.289  -0.166   0.178
    1UNL     C6    9  -0.181  -0.266   0.110
    1UNL     C7   10  -0.080  -0.155   0.052
    1UNL     C8   11   0.082  -0.153   0.030
    1UNL     C9   12   0.123  -0.007   0.054
    1UNL    C10   13   0.027   0.091   0.047
    1UNL     N1   14   0.090   0.211   0.071
    1UNL    C11   15   0.226   0.197   0.097
    1UNL    C12   16   0.335   0.287   0.104
    1UNL    C13   17   0.463   0.237   0.127
    1UNL    C14   18   0.482   0.097   0.129
    1UNL    C15   19   0.378   0.006   0.108
    1UNL    C16   20   0.247   0.055   0.089
    1UNL     N2   21   0.115  -0.195  -0.111
    1UNL    C17   22   0.094  -0.339  -0.133
    1UNL    C18   23   0.053  -0.108  -0.211
    1UNL    C19   24  -0.103  -0.087  -0.196
    1UNL    C20   25  -0.146  -0.071  -0.049
    1UNL     H1   26  -0.335   0.356  -0.137
    1UNL     H2   27  -0.431   0.268  -0.236
    1UNL     H3   28  -0.248   0.299  -0.280
    1UNL     H4   29  -0.324   0.109   0.114
    1UNL     H5   30  -0.194   0.166   0.199
    1UNL     H6   31  -0.321  -0.228   0.272
    1UNL     H7   32  -0.361  -0.148   0.103
    1UNL     H8   33  -0.120  -0.320   0.187
    1UNL     H9   34  -0.217  -0.339   0.037
    1UNL    H10   35  -0.068  -0.090   0.140
    1UNL    H11   36   0.128  -0.222   0.103
    1UNL    H12   37   0.045   0.301   0.060
    1UNL    H13   38   0.307   0.394   0.107
    1UNL    H14   39   0.555   0.301   0.136
    1UNL    H15   40   0.582   0.055   0.136
    1UNL    H16   41   0.398  -0.100   0.096
    1UNL    H17   42   0.144  -0.404  -0.061
    1UNL    H18   43   0.123  -0.369  -0.234
    1UNL    H19   44  -0.013  -0.351  -0.114
    1UNL    H20   45   0.105  -0.013  -0.193
    1UNL    H21   46   0.078  -0.143  -0.308
    1UNL    H22   47  -0.132   0.006  -0.263
    1UNL    H23   48  -0.155  -0.172  -0.251
    1UNL    H24   49  -0.244  -0.103  -0.044
   0.00000   0.00000   0.00000   0.00000   0.00000   0.00000   0.00000   0.00000   0.00000
Generated with MDTraj, t= 10.0
 49
    1UNL     C1    1  -0.318   0.278  -0.215
    1UNL     O1    2  -0.292   0.157  -0.152
    1UNL     C2    3  -0.178   0.182  -0.085
    1UNL     O2    4  -0.123   0.292  -0.081
    1UNL     C3    5  -0.128   0.074   0.008
    1UNL     C4    6  -0.208   0.077   0.142
    1UNL     O3    7  -0.195  -0.023   0.233
    1UNL     C5    8  -0.251  -0.147   0.216
    1UNL     C6    9  -0.151  -0.249   0.153
    1UNL     C7   10  -0.068  -0.159   0.048
    1UNL     C8   11   0.086  -0.160   0.010
    1UNL     C9   12   0.120  -0.008   0.032
    1UNL    C10   13   0.022   0.097   0.032
    1UNL     N1   14   0.078   0.217   0.071
    1UNL    C11   15   0.214   0.190   0.090
    1UNL    C12   16   0.316   0.275   0.141
    1UNL    C13   17   0.441   0.219   0.164
    1UNL    C14   18   0.464   0.084   0.145
    1UNL    C15   19   0.368   0.003   0.096
    1UNL    C16   20   0.244   0.056   0.074
    1UNL     N2   21   0.113  -0.199  -0.134
    1UNL    C17   22   0.091  -0.352  -0.141
    1UNL    C18   23   0.049  -0.103  -0.226
    1UNL    C19   24  -0.111  -0.088  -0.202
    1UNL    C20   25  -0.148  -0.070  -0.049
    1UNL     H1   26  -0.327   0.364  -0.145
    1UNL     H2   27  -0.419   0.267  -0.253
    1UNL     H3   28  -0.244   0.287  -0.295
    1UNL     H4   29  -0.318   0.085   0.115
    1UNL     H5   30  -0.200   0.173   0.193
    1UNL     H6   31  -0.282  -0.196   0.315
    1UNL     H7   32  -0.329  -0.149   0.147
    1UNL     H8   33  -0.084  -0.285   0.235
    1UNL     H9   34  -0.208  -0.338   0.119
    1UNL    H10   35  -0.055  -0.087   0.133
    1UNL    H11   36   0.145  -0.226   0.077
    1UNL    H12   37   0.035   0.311   0.061
    1UNL    H13   38   0.296   0.379   0.174
    1UNL    H14   39   0.502   0.285   0.221
    1UNL    H15   40   0.564   0.044   0.168
    1UNL    H16   41   0.388  -0.094   0.069
    1UNL    H17   42   0.035  -0.396  -0.058
    1UNL    H18   43   0.198  -0.379  -0.136
    1UNL    H19   44   0.037  -0.381  -0.233
    1UNL    H20   45   0.091  -0.004  -0.211
    1UNL    H21   46   0.069  -0.143  -0.323
    1UNL    H22   47  -0.142   0.003  -0.265
    1UNL    H23   48  -0.152  -0.176  -0.260
    1UNL    H24   49  -0.246  -0.097  -0.036
   0.00000   0.00000   0.00000   0.00000   0.00000   0.00000   0.00000   0.00000   0.00000
Generated with MDTraj, t= 11.0
 49
    1UNL     C1    1  -0.333   0.245  -0.251
    1UNL     O1    2  -0.282   0.143  -0.166
    1UNL     C2    3  -0.182   0.189  -0.089
    1UNL     O2    4  -0.141   0.305  -0.102
    1UNL     C3    5  -0.127   0.086   0.013
    1UNL     C4    6  -0.196   0.081   0.150
    1UNL     O3    7  -0.171  -0.025   0.243
    1UNL     C5    8  -0.237  -0.151   0.228
    1UNL     C6    9  -0.142  -0.254   0.133
    1UNL     C7   10  -0.058  -0.153   0.059
    1UNL     C8   11   0.085  -0.152   0.006
    1UNL     C9   12   0.122  -0.000   0.026
    1UNL    C10   13   0.030   0.105   0.031
    1UNL     N1   14   0.093   0.224   0.072
    1UNL    C11   15   0.225   0.194   0.105
    1UNL    C12   16   0.322   0.266   0.169
    1UNL    C13   17   0.442   0.209   0.190
    1UNL    C14   18   0.466   0.078   0.152
    1UNL    C15   19   0.367  -0.001   0.099
    1UNL    C16   20   0.242   0.056   0.071
    1UNL     N2   21   0.087  -0.191  -0.137
    1UNL    C17   22   0.087  -0.342  -0.157
    1UNL    C18   23   0.012  -0.096  -0.231
    1UNL    C19   24  -0.127  -0.095  -0.187
    1UNL    C20   25  -0.147  -0.063  -0.033
    1UNL     H1   26  -0.408   0.307  -0.195
    1UNL     H2   27  -0.386   0.202  -0.338
    1UNL     H3   28  -0.246   0.289  -0.302
    1UNL     H4   29  -0.306   0.101   0.135
    1UNL     H5   30  -0.168   0.174   0.195
    1UNL     H6   31  -0.274  -0.207   0.320
    1UNL     H7   32  -0.321  -0.139   0.168
    1UNL     H8   33  -0.078  -0.324   0.190
    1UNL     H9   34  -0.199  -0.329   0.072
    1UNL    H10   35  -0.045  -0.087   0.149
    1UNL    H11   36   0.141  -0.226   0.066
    1UNL    H12   37   0.053   0.318   0.087
    1UNL    H13   38   0.297   0.361   0.198
    1UNL    H14   39   0.524   0.261   0.237
    1UNL    H15   40   0.561   0.037   0.174
    1UNL    H16   41   0.400  -0.104   0.062
    1UNL    H17   42  -0.002  -0.375  -0.215
    1UNL    H18   43   0.103  -0.379  -0.053
    1UNL    H19   44   0.173  -0.364  -0.223
    1UNL    H20   45   0.049   0.004  -0.220
    1UNL    H21   46   0.019  -0.122  -0.336
    1UNL    H22   47  -0.190  -0.033  -0.261
    1UNL    H23   48  -0.165  -0.203  -0.204
    1UNL    H24   49  -0.249  -0.079  -0.019
   0.00000   0.00000   0.00000   0.00000   0.00000   0.00000   0.00000   0.00000   0.00000
Generated with MDTraj, t= 12.0
 49
    1UNL     C1    1  -0.328   0.241  -0.250
    1UNL     O1    2  -0.279   0.138  -0.164
    1UNL     C2    3  -0.183   0.188  -0.080
    1UNL     O2    4  -0.153   0.309  -0.077
    1UNL     C3    5  -0.123   0.077   0.010
    1UNL     C4    6  -0.208   0.083   0.140
    1UNL     O3    7  -0.184  -0.017   0.244
    1UNL     C5    8  -0.241  -0.137   0.217
    1UNL     C6    9  -0.145  -0.232   0.153
    1UNL     C7   10  -0.060  -0.155   0.059
    1UNL     C8   11   0.090  -0.156   0.001
    1UNL     C9   12   0.130  -0.005   0.023
    1UNL    C10   13   0.030   0.091   0.033
    1UNL     N1   14   0.087   0.212   0.069
    1UNL    C11   15   0.221   0.188   0.098
    1UNL    C12   16   0.323   0.269   0.156
    1UNL    C13   17   0.440   0.209   0.186
    1UNL    C14   18   0.469   0.077   0.155
    1UNL    C15   19   0.376  -0.004   0.104
    1UNL    C16   20   0.249   0.054   0.071
    1UNL     N2   21   0.106  -0.189  -0.140
    1UNL    C17   22   0.083  -0.338  -0.180
    1UNL    C18   23   0.018  -0.088  -0.219
    1UNL    C19   24  -0.122  -0.098  -0.188
    1UNL    C20   25  -0.152  -0.069  -0.034
    1UNL     H1   26  -0.365   0.324  -0.187
    1UNL     H2   27  -0.407   0.208  -0.318
    1UNL     H3   28  -0.247   0.258  -0.323
    1UNL     H4   29  -0.318   0.100   0.118
    1UNL     H5   30  -0.186   0.180   0.178
    1UNL     H6   31  -0.271  -0.188   0.312
    1UNL     H7   32  -0.331  -0.133   0.164
    1UNL     H8   33  -0.100  -0.291   0.236
    1UNL     H9   34  -0.191  -0.325   0.105
    1UNL    H10   35  -0.033  -0.086   0.146
    1UNL    H11   36   0.162  -0.220   0.055
    1UNL    H12   37   0.036   0.302   0.078
    1UNL    H13   38   0.309   0.380   0.176
    1UNL    H14   39   0.521   0.269   0.227
    1UNL    H15   40   0.574   0.048   0.174
    1UNL    H16   41   0.395  -0.104   0.089
    1UNL    H17   42   0.038  -0.340  -0.283
    1UNL    H18   43   0.025  -0.383  -0.096
    1UNL    H19   44   0.183  -0.385  -0.194
    1UNL    H20   45   0.048   0.012  -0.205
    1UNL    H21   46   0.035  -0.098  -0.328
    1UNL    H22   47  -0.190  -0.037  -0.255
    1UNL    H23   48  -0.162  -0.203  -0.210
    1UNL    H24   49  -0.255  -0.098  -0.022
   0.00000   0.00000   0.00000   0.00000   0.00000   0.00000   0.00000   0.00000   0.00000
Generated with MDTraj, t= 13.0
 49
    1UNL     C1    1  -0.310   0.272  -0.232
    1UNL     O1    2  -0.277   0.160  -0.163
    1UNL     C2    3  -0.181   0.191  -0.077
    1UNL     O2    4  -0.127   0.300  -0.063
    1UNL     C3    5  -0.132   0.079   0.015
    1UNL     C4    6  -0.217   0.070   0.149
    1UNL     O3    7  -0.174  -0.035   0.244
    1UNL     C5    8  -0.249  -0.157   0.217
    1UNL     C6    9  -0.156  -0.254   0.132
    1UNL     C7   10  -0.072  -0.159   0.050
    1UNL     C8   11   0.076  -0.147   0.011
    1UNL     C9   12   0.115  -0.003   0.027
    1UNL    C10   13   0.017   0.099   0.034
    1UNL     N1   14   0.080   0.215   0.069
    1UNL    C11   15   0.212   0.189   0.095
    1UNL    C12   16   0.320   0.274   0.124
    1UNL    C13   17   0.443   0.223   0.145
    1UNL    C14   18   0.464   0.084   0.142
    1UNL    C15   19   0.367   0.000   0.102
    1UNL    C16   20   0.237   0.051   0.072
    1UNL     N2   21   0.111  -0.194  -0.125
    1UNL    C17   22   0.102  -0.342  -0.140
    1UNL    C18   23   0.042  -0.103  -0.222
    1UNL    C19   24  -0.106  -0.095  -0.192
    1UNL    C20   25  -0.157  -0.065  -0.045
    1UNL     H1   26  -0.345   0.347  -0.159
    1UNL     H2   27  -0.387   0.237  -0.299
    1UNL     H3   28  -0.231   0.301  -0.300
    1UNL     H4   29  -0.327   0.077   0.130
    1UNL     H5   30  -0.208   0.164   0.199
    1UNL     H6   31  -0.266  -0.206   0.316
    1UNL     H7   32  -0.347  -0.147   0.180
    1UNL     H8   33  -0.109  -0.330   0.198
    1UNL     H9   34  -0.201  -0.330   0.059
    1UNL    H10   35  -0.051  -0.097   0.141
    1UNL    H11   36   0.136  -0.203   0.086
    1UNL    H12   37   0.030   0.307   0.071
    1UNL    H13   38   0.307   0.379   0.131
    1UNL    H14   39   0.523   0.288   0.168
    1UNL    H15   40   0.559   0.051   0.168
    1UNL    H16   41   0.390  -0.107   0.116
    1UNL    H17   42   0.204  -0.388  -0.160
    1UNL    H18   43   0.019  -0.364  -0.212
    1UNL    H19   44   0.077  -0.384  -0.039
    1UNL    H20   45   0.088  -0.008  -0.226
    1UNL    H21   46   0.069  -0.138  -0.326
    1UNL    H22   47  -0.169  -0.029  -0.257
    1UNL    H23   48  -0.153  -0.196  -0.227
    1UNL    H24   49  -0.266  -0.078  -0.041
   0.00000   0.00000   0.00000   0.00000   0.00000   0.00000   0.00000   0.00000   0.00000
Generated with MDTraj, t= 14.0
 49
    1UNL     C1    1  -0.313   0.275  -0.223
    1UNL     O1    2  -0.264   0.154  -0.169
    1UNL     C2    3  -0.174   0.187  -0.064
    1UNL     O2    4  -0.130   0.300  -0.043
    1UNL     C3    5  -0.130   0.076   0.027
    1UNL     C4    6  -0.225   0.069   0.157
    1UNL     O3    7  -0.239  -0.052   0.234
    1UNL     C5    8  -0.294  -0.173   0.174
    1UNL     C6    9  -0.176  -0.256   0.131
    1UNL     C7   10  -0.071  -0.158   0.064
    1UNL     C8   11   0.082  -0.151   0.036
    1UNL     C9   12   0.117  -0.006   0.050
    1UNL    C10   13   0.026   0.091   0.043
    1UNL     N1   14   0.091   0.205   0.066
    1UNL    C11   15   0.228   0.187   0.087
    1UNL    C12   16   0.325   0.284   0.113
    1UNL    C13   17   0.455   0.240   0.112
    1UNL    C14   18   0.484   0.107   0.101
    1UNL    C15   19   0.386   0.008   0.088
    1UNL    C16   20   0.251   0.048   0.071
    1UNL     N2   21   0.113  -0.197  -0.107
    1UNL    C17   22   0.090  -0.337  -0.132
    1UNL    C18   23   0.057  -0.097  -0.203
    1UNL    C19   24  -0.099  -0.085  -0.189
    1UNL    C20   25  -0.145  -0.068  -0.043
    1UNL     H1   26  -0.355   0.322  -0.133
    1UNL     H2   27  -0.380   0.250  -0.304
    1UNL     H3   28  -0.235   0.340  -0.260
    1UNL     H4   29  -0.328   0.097   0.128
    1UNL     H5   30  -0.214   0.149   0.226
    1UNL     H6   31  -0.362  -0.232   0.238
    1UNL     H7   32  -0.351  -0.147   0.089
    1UNL     H8   33  -0.136  -0.324   0.209
    1UNL     H9   34  -0.197  -0.333   0.050
    1UNL    H10   35  -0.058  -0.090   0.153
    1UNL    H11   36   0.141  -0.204   0.113
    1UNL    H12   37   0.046   0.297   0.056
    1UNL    H13   38   0.297   0.385   0.128
    1UNL    H14   39   0.537   0.312   0.122
    1UNL    H15   40   0.590   0.078   0.120
    1UNL    H16   41   0.413  -0.099   0.090
    1UNL    H17   42   0.090  -0.394  -0.035
    1UNL    H18   43   0.163  -0.372  -0.211
    1UNL    H19   44  -0.018  -0.347  -0.160
    1UNL    H20   45   0.112  -0.007  -0.201
    1UNL    H21   46   0.074  -0.132  -0.309
    1UNL    H22   47  -0.118   0.001  -0.259
    1UNL    H23   48  -0.161  -0.170  -0.242
    1UNL    H24   49  -0.256  -0.081  -0.041
   0.00000   0.00000   0.00000   0.00000   0.00000   0.00000   0.00000   0.00000   0.00000
Generated with MDTraj, t= 15.0
 49
    1UNL     C1    1  -0.304   0.265  -0.243
    1UNL     O1    2  -0.259   0.158  -0.166
    1UNL     C2    3  -0.182   0.198  -0.060
    1UNL     O2    4  -0.152   0.312  -0.034
    1UNL     C3    5  -0.130   0.079   0.027
    1UNL     C4    6  -0.231   0.057   0.150
    1UNL     O3    7  -0.237  -0.057   0.241
    1UNL     C5    8  -0.290  -0.180   0.173
    1UNL     C6    9  -0.179  -0.260   0.104
    1UNL     C7   10  -0.073  -0.150   0.058
    1UNL     C8   11   0.084  -0.148   0.049
    1UNL     C9   12   0.115  -0.007   0.078
    1UNL    C10   13   0.013   0.093   0.070
    1UNL     N1   14   0.076   0.209   0.092
    1UNL    C11   15   0.215   0.191   0.093
    1UNL    C12   16   0.329   0.274   0.096
    1UNL    C13   17   0.452   0.219   0.059
    1UNL    C14   18   0.474   0.081   0.057
    1UNL    C15   19   0.366  -0.004   0.084
    1UNL    C16   20   0.240   0.054   0.088
    1UNL     N2   21   0.127  -0.200  -0.089
    1UNL    C17   22   0.095  -0.333  -0.119
    1UNL    C18   23   0.090  -0.091  -0.182
    1UNL    C19   24  -0.066  -0.055  -0.187
    1UNL    C20   25  -0.133  -0.056  -0.049
    1UNL     H1   26  -0.358   0.329  -0.169
    1UNL     H2   27  -0.360   0.213  -0.323
    1UNL     H3   28  -0.223   0.326  -0.283
    1UNL     H4   29  -0.332   0.072   0.115
    1UNL     H5   30  -0.236   0.142   0.216
    1UNL     H6   31  -0.341  -0.244   0.249
    1UNL     H7   32  -0.360  -0.153   0.095
    1UNL     H8   33  -0.126  -0.319   0.183
    1UNL     H9   34  -0.204  -0.339   0.027
    1UNL    H10   35  -0.079  -0.093   0.156
    1UNL    H11   36   0.136  -0.207   0.126
    1UNL    H12   37   0.022   0.292   0.080
    1UNL    H13   38   0.318   0.388   0.098
    1UNL    H14   39   0.531   0.288   0.039
    1UNL    H15   40   0.565   0.038   0.028
    1UNL    H16   41   0.381  -0.106   0.080
    1UNL    H17   42   0.009  -0.380  -0.064
    1UNL    H18   43   0.193  -0.390  -0.124
    1UNL    H19   44   0.047  -0.333  -0.221
    1UNL    H20   45   0.147  -0.002  -0.168
    1UNL    H21   46   0.116  -0.127  -0.286
    1UNL    H22   47  -0.076   0.048  -0.232
    1UNL    H23   48  -0.103  -0.124  -0.272
    1UNL    H24   49  -0.245  -0.066  -0.070
   0.00000   0.00000   0.00000   0.00000   0.00000   0.00000   0.00000   0.00000   0.00000
Generated with MDTraj, t= 16.0
 49
    1UNL     C1    1  -0.273   0.280  -0.235
    1UNL     O1    2  -0.239   0.164  -0.165
    1UNL     C2    3  -0.168   0.196  -0.049
    1UNL     O2    4  -0.136   0.306  -0.012
    1UNL     C3    5  -0.132   0.077   0.042
    1UNL     C4    6  -0.242   0.062   0.152
    1UNL     O3    7  -0.252  -0.062   0.225
    1UNL     C5    8  -0.304  -0.181   0.165
    1UNL     C6    9  -0.188  -0.272   0.103
    1UNL     C7   10  -0.082  -0.162   0.064
    1UNL     C8   11   0.075  -0.148   0.053
    1UNL     C9   12   0.102  -0.005   0.089
    1UNL    C10   13   0.009   0.093   0.089
    1UNL     N1   14   0.078   0.209   0.079
    1UNL    C11   15   0.215   0.189   0.065
    1UNL    C12   16   0.322   0.280   0.059
    1UNL    C13   17   0.451   0.228   0.052
    1UNL    C14   18   0.469   0.083   0.061
    1UNL    C15   19   0.363  -0.002   0.072
    1UNL    C16   20   0.234   0.051   0.075
    1UNL     N2   21   0.131  -0.180  -0.086
    1UNL    C17   22   0.129  -0.319  -0.123
    1UNL    C18   23   0.081  -0.079  -0.177
    1UNL    C19   24  -0.078  -0.093  -0.173
    1UNL    C20   25  -0.142  -0.063  -0.032
    1UNL     H1   26  -0.319   0.350  -0.161
    1UNL     H2   27  -0.334   0.242  -0.320
    1UNL     H3   28  -0.180   0.331  -0.263
    1UNL     H4   29  -0.336   0.081   0.105
    1UNL     H5   30  -0.257   0.143   0.223
    1UNL     H6   31  -0.358  -0.237   0.246
    1UNL     H7   32  -0.371  -0.141   0.088
    1UNL     H8   33  -0.140  -0.351   0.168
    1UNL     H9   34  -0.227  -0.318   0.009
    1UNL    H10   35  -0.091  -0.114   0.166
    1UNL    H11   36   0.140  -0.208   0.118
    1UNL    H12   37   0.032   0.294   0.048
    1UNL    H13   38   0.302   0.379   0.062
    1UNL    H14   39   0.535   0.295   0.035
    1UNL    H15   40   0.572   0.044   0.055
    1UNL    H16   41   0.382  -0.114   0.077
    1UNL    H17   42   0.047  -0.354  -0.191
    1UNL    H18   43   0.147  -0.380  -0.030
    1UNL    H19   44   0.218  -0.344  -0.189
    1UNL    H20   45   0.124   0.021  -0.166
    1UNL    H21   46   0.108  -0.098  -0.283
    1UNL    H22   47  -0.112  -0.024  -0.258
    1UNL    H23   48  -0.106  -0.198  -0.207
    1UNL    H24   49  -0.251  -0.092  -0.051
   0.00000   0.00000   0.00000   0.00000   0.00000   0.00000   0.00000   0.00000   0.00000
Generated with MDTraj, t= 17.0
 49
    1UNL     C1    1  -0.255   0.293  -0.249
    1UNL     O1    2  -0.227   0.174  -0.179
    1UNL     C2    3  -0.184   0.199  -0.051
    1UNL     O2    4  -0.178   0.304   0.005
    1UNL     C3    5  -0.139   0.077   0.034
    1UNL     C4    6  -0.237   0.067   0.152
    1UNL     O3    7  -0.240  -0.057   0.237
    1UNL     C5    8  -0.298  -0.179   0.174
    1UNL     C6    9  -0.177  -0.263   0.122
    1UNL     C7   10  -0.078  -0.162   0.064
    1UNL     C8   11   0.083  -0.158   0.044
    1UNL     C9   12   0.111  -0.010   0.075
    1UNL    C10   13   0.012   0.090   0.071
    1UNL     N1   14   0.081   0.210   0.073
    1UNL    C11   15   0.218   0.190   0.088
    1UNL    C12   16   0.324   0.280   0.068
    1UNL    C13   17   0.449   0.234   0.059
    1UNL    C14   18   0.470   0.090   0.062
    1UNL    C15   19   0.367  -0.002   0.080
    1UNL    C16   20   0.233   0.049   0.096
    1UNL     N2   21   0.114  -0.198  -0.099
    1UNL    C17   22   0.149  -0.340  -0.126
    1UNL    C18   23   0.056  -0.103  -0.197
    1UNL    C19   24  -0.091  -0.071  -0.182
    1UNL    C20   25  -0.143  -0.066  -0.036
    1UNL     H1   26  -0.325   0.359  -0.195
    1UNL     H2   27  -0.285   0.258  -0.350
    1UNL     H3   28  -0.161   0.348  -0.239
    1UNL     H4   29  -0.337   0.091   0.127
    1UNL     H5   30  -0.225   0.159   0.212
    1UNL     H6   31  -0.345  -0.236   0.258
    1UNL     H7   32  -0.365  -0.141   0.094
    1UNL     H8   33  -0.124  -0.307   0.214
    1UNL     H9   34  -0.210  -0.345   0.056
    1UNL    H10   35  -0.065  -0.101   0.157
    1UNL    H11   36   0.137  -0.225   0.111
    1UNL    H12   37   0.038   0.302   0.054
    1UNL    H13   38   0.291   0.387   0.072
    1UNL    H14   39   0.532   0.297   0.044
    1UNL    H15   40   0.573   0.056   0.064
    1UNL    H16   41   0.373  -0.105   0.090
    1UNL    H17   42   0.102  -0.363  -0.224
    1UNL    H18   43   0.102  -0.409  -0.053
    1UNL    H19   44   0.257  -0.362  -0.151
    1UNL    H20   45   0.114  -0.008  -0.196
    1UNL    H21   46   0.086  -0.135  -0.296
    1UNL    H22   47  -0.134   0.018  -0.239
    1UNL    H23   48  -0.134  -0.166  -0.233
    1UNL    H24   49  -0.253  -0.093  -0.054
   0.00000   0.00000   0.00000   0.00000   0.00000   0.00000   0.00000   0.00000   0.00000
Generated with MDTraj, t= 18.0
 49
    1UNL     C1    1  -0.257   0.295  -0.254
    1UNL     O1    2  -0.208   0.176  -0.196
    1UNL     C2    3  -0.177   0.194  -0.060
    1UNL     O2    4  -0.180   0.302  -0.006
    1UNL     C3    5  -0.135   0.068   0.020
    1UNL     C4    6  -0.220   0.058   0.152
    1UNL     O3    7  -0.210  -0.047   0.253
    1UNL     C5    8  -0.264  -0.177   0.216
    1UNL     C6    9  -0.171  -0.264   0.132
    1UNL     C7   10  -0.078  -0.169   0.054
    1UNL     C8   11   0.081  -0.163   0.032
    1UNL     C9   12   0.110  -0.015   0.055
    1UNL    C10   13   0.012   0.088   0.047
    1UNL     N1   14   0.068   0.213   0.063
    1UNL    C11   15   0.207   0.196   0.083
    1UNL    C12   16   0.318   0.280   0.106
    1UNL    C13   17   0.447   0.226   0.116
    1UNL    C14   18   0.472   0.088   0.082
    1UNL    C15   19   0.366   0.011   0.055
    1UNL    C16   20   0.235   0.061   0.073
    1UNL     N2   21   0.118  -0.185  -0.104
    1UNL    C17   22   0.103  -0.339  -0.123
    1UNL    C18   23   0.044  -0.095  -0.196
    1UNL    C19   24  -0.105  -0.086  -0.188
    1UNL    C20   25  -0.154  -0.073  -0.040
    1UNL     H1   26  -0.346   0.338  -0.208
    1UNL     H2   27  -0.267   0.277  -0.360
    1UNL     H3   28  -0.176   0.363  -0.227
    1UNL     H4   29  -0.321   0.076   0.128
    1UNL     H5   30  -0.205   0.151   0.212
    1UNL     H6   31  -0.285  -0.221   0.317
    1UNL     H7   32  -0.358  -0.148   0.164
    1UNL     H8   33  -0.123  -0.347   0.194
    1UNL     H9   34  -0.236  -0.321   0.063
    1UNL    H10   35  -0.058  -0.108   0.146
    1UNL    H11   36   0.144  -0.216   0.104
    1UNL    H12   37   0.012   0.301   0.061
    1UNL    H13   38   0.296   0.387   0.107
    1UNL    H14   39   0.523   0.301   0.146
    1UNL    H15   40   0.573   0.051   0.083
    1UNL    H16   41   0.378  -0.097   0.038
    1UNL    H17   42   0.117  -0.380  -0.226
    1UNL    H18   43   0.004  -0.377  -0.092
    1UNL    H19   44   0.193  -0.392  -0.077
    1UNL    H20   45   0.096   0.006  -0.196
    1UNL    H21   46   0.075  -0.123  -0.294
    1UNL    H22   47  -0.136   0.005  -0.253
    1UNL    H23   48  -0.168  -0.170  -0.229
    1UNL    H24   49  -0.264  -0.103  -0.039
   0.00000   0.00000   0.00000   0.00000   0.00000   0.00000   0.00000   0.00000   0.00000
Generated with MDTraj, t= 19.0
 49
    1UNL     C1    1  -0.251   0.267  -0.266
    1UNL     O1    2  -0.215   0.155  -0.191
    1UNL     C2    3  -0.179   0.185  -0.065
    1UNL     O2    4  -0.182   0.292  -0.013
    1UNL     C3    5  -0.129   0.071   0.023
    1UNL     C4    6  -0.214   0.074   0.153
    1UNL     O3    7  -0.205  -0.035   0.245
    1UNL     C5    8  -0.258  -0.170   0.216
    1UNL     C6    9  -0.149  -0.263   0.146
    1UNL     C7   10  -0.065  -0.162   0.065
    1UNL     C8   11   0.084  -0.153   0.004
    1UNL     C9   12   0.125  -0.003   0.030
    1UNL    C10   13   0.025   0.091   0.051
    1UNL     N1   14   0.084   0.213   0.089
    1UNL    C11   15   0.219   0.194   0.097
    1UNL    C12   16   0.316   0.290   0.122
    1UNL    C13   17   0.447   0.244   0.135
    1UNL    C14   18   0.475   0.108   0.125
    1UNL    C15   19   0.375   0.016   0.086
    1UNL    C16   20   0.246   0.058   0.068
    1UNL     N2   21   0.088  -0.195  -0.140
    1UNL    C17   22   0.055  -0.341  -0.157
    1UNL    C18   23   0.018  -0.110  -0.234
    1UNL    C19   24  -0.128  -0.096  -0.183
    1UNL    C20   25  -0.151  -0.075  -0.030
    1UNL     H1   26  -0.326   0.332  -0.219
    1UNL     H2   27  -0.283   0.229  -0.362
    1UNL     H3   28  -0.159   0.323  -0.275
    1UNL     H4   29  -0.314   0.110   0.154
    1UNL     H5   30  -0.161   0.159   0.206
    1UNL     H6   31  -0.291  -0.199   0.318
    1UNL     H7   32  -0.345  -0.147   0.149
    1UNL     H8   33  -0.095  -0.336   0.215
    1UNL     H9   34  -0.193  -0.340   0.079
    1UNL    H10   35  -0.037  -0.103   0.158
    1UNL    H11   36   0.132  -0.228   0.068
    1UNL    H12   37   0.047   0.309   0.093
    1UNL    H13   38   0.300   0.391   0.105
    1UNL    H14   39   0.527   0.312   0.135
    1UNL    H15   40   0.574   0.069   0.145
    1UNL    H16   41   0.400  -0.089   0.067
    1UNL    H17   42   0.138  -0.411  -0.181
    1UNL    H18   43  -0.027  -0.357  -0.227
    1UNL    H19   44   0.038  -0.385  -0.055
    1UNL    H20   45   0.073  -0.011  -0.225
    1UNL    H21   46   0.040  -0.134  -0.333
    1UNL    H22   47  -0.193  -0.023  -0.243
    1UNL    H23   48  -0.176  -0.196  -0.206
    1UNL    H24   49  -0.264  -0.092  -0.020
   0.00000   0.00000   0.00000   0.00000   0.00000   0.00000   0.00000   0.00000   0.00000
Generated with MDTraj, t= 20.0
 49
    1UNL     C1    1  -0.262   0.279  -0.267
    1UNL     O1    2  -0.241   0.158  -0.189
    1UNL     C2    3  -0.185   0.186  -0.069
    1UNL     O2    4  -0.170   0.299  -0.026
    1UNL     C3    5  -0.135   0.068   0.015
    1UNL     C4    6  -0.199   0.079   0.160
    1UNL     O3    7  -0.180  -0.030   0.250
    1UNL     C5    8  -0.231  -0.166   0.237
    1UNL     C6    9  -0.149  -0.257   0.155
    1UNL     C7   10  -0.066  -0.157   0.064
    1UNL     C8   11   0.079  -0.155   0.012
    1UNL     C9   12   0.115  -0.003   0.025
    1UNL    C10   13   0.018   0.097   0.029
    1UNL     N1   14   0.073   0.219   0.065
    1UNL    C11   15   0.210   0.196   0.078
    1UNL    C12   16   0.309   0.278   0.138
    1UNL    C13   17   0.431   0.216   0.160
    1UNL    C14   18   0.460   0.084   0.128
    1UNL    C15   19   0.363  -0.002   0.080
    1UNL    C16   20   0.238   0.058   0.060
    1UNL     N2   21   0.107  -0.190  -0.135
    1UNL    C17   22   0.094  -0.335  -0.160
    1UNL    C18   23   0.020  -0.107  -0.225
    1UNL    C19   24  -0.127  -0.097  -0.181
    1UNL    C20   25  -0.154  -0.071  -0.034
    1UNL     H1   26  -0.335   0.341  -0.214
    1UNL     H2   27  -0.302   0.260  -0.367
    1UNL     H3   28  -0.167   0.333  -0.278
    1UNL     H4   29  -0.303   0.094   0.145
    1UNL     H5   30  -0.159   0.164   0.226
    1UNL     H6   31  -0.246  -0.206   0.339
    1UNL     H7   32  -0.330  -0.151   0.188
    1UNL     H8   33  -0.090  -0.324   0.224
    1UNL     H9   34  -0.206  -0.341   0.105
    1UNL    H10   35  -0.041  -0.097   0.157
    1UNL    H11   36   0.150  -0.218   0.067
    1UNL    H12   37   0.024   0.307   0.075
    1UNL    H13   38   0.288   0.389   0.162
    1UNL    H14   39   0.519   0.272   0.201
    1UNL    H15   40   0.555   0.039   0.149
    1UNL    H16   41   0.389  -0.103   0.065
    1UNL    H17   42   0.127  -0.400  -0.076
    1UNL    H18   43   0.153  -0.358  -0.249
    1UNL    H19   44  -0.009  -0.373  -0.168
    1UNL    H20   45   0.061  -0.003  -0.238
    1UNL    H21   46   0.031  -0.144  -0.322
    1UNL    H22   47  -0.172  -0.017  -0.247
    1UNL    H23   48  -0.178  -0.191  -0.216
    1UNL    H24   49  -0.259  -0.105  -0.009
   0.00000   0.00000   0.00000   0.00000   0.00000   0.00000   0.00000   0.00000   0.00000
Generated with MDTraj, t= 21.0
 49
    1UNL     C1    1  -0.316   0.273  -0.245
    1UNL     O1    2  -0.249   0.162  -0.186
    1UNL     C2    3  -0.179   0.194  -0.074
    1UNL     O2    4  -0.165   0.308  -0.035
    1UNL     C3    5  -0.122   0.077   0.008
    1UNL     C4    6  -0.199   0.080   0.147
    1UNL     O3    7  -0.189  -0.024   0.248
    1UNL     C5    8  -0.244  -0.154   0.227
    1UNL     C6    9  -0.150  -0.255   0.140
    1UNL     C7   10  -0.065  -0.153   0.060
    1UNL     C8   11   0.082  -0.155   0.022
    1UNL     C9   12   0.121  -0.013   0.037
    1UNL    C10   13   0.029   0.091   0.023
    1UNL     N1   14   0.084   0.211   0.061
    1UNL    C11   15   0.212   0.190   0.090
    1UNL    C12   16   0.319   0.272   0.140
    1UNL    C13   17   0.443   0.220   0.151
    1UNL    C14   18   0.471   0.085   0.131
    1UNL    C15   19   0.372   0.001   0.095
    1UNL    C16   20   0.241   0.048   0.077
    1UNL     N2   21   0.100  -0.189  -0.123
    1UNL    C17   22   0.115  -0.333  -0.163
    1UNL    C18   23   0.016  -0.112  -0.224
    1UNL    C19   24  -0.139  -0.104  -0.188
    1UNL    C20   25  -0.154  -0.075  -0.041
    1UNL     H1   26  -0.382   0.309  -0.164
    1UNL     H2   27  -0.391   0.243  -0.320
    1UNL     H3   28  -0.250   0.350  -0.289
    1UNL     H4   29  -0.308   0.072   0.137
    1UNL     H5   30  -0.171   0.181   0.195
    1UNL     H6   31  -0.263  -0.191   0.328
    1UNL     H7   32  -0.337  -0.139   0.167
    1UNL     H8   33  -0.090  -0.328   0.202
    1UNL     H9   34  -0.200  -0.334   0.075
    1UNL    H10   35  -0.051  -0.085   0.145
    1UNL    H11   36   0.135  -0.233   0.079
    1UNL    H12   37   0.026   0.293   0.058
    1UNL    H13   38   0.308   0.370   0.168
    1UNL    H14   39   0.520   0.285   0.182
    1UNL    H15   40   0.574   0.058   0.155
    1UNL    H16   41   0.397  -0.109   0.092
    1UNL    H17   42   0.120  -0.404  -0.081
    1UNL    H18   43   0.213  -0.335  -0.212
    1UNL    H19   44   0.034  -0.373  -0.223
    1UNL    H20   45   0.052  -0.010  -0.229
    1UNL    H21   46   0.033  -0.148  -0.321
    1UNL    H22   47  -0.182  -0.026  -0.253
    1UNL    H23   48  -0.181  -0.202  -0.223
    1UNL    H24   49  -0.263  -0.093  -0.018
   0.00000   0.00000   0.00000   0.00000   0.00000   0.00000   0.00000   0.00000   0.00000
Generated with MDTraj, t= 22.0
 49
    1UNL     C1    1  -0.321   0.245  -0.231
    1UNL     O1    2  -0.283   0.145  -0.142
    1UNL     C2    3  -0.180   0.182  -0.064
    1UNL     O2    4  -0.140   0.297  -0.052
    1UNL     C3    5  -0.125   0.076   0.021
    1UNL     C4    6  -0.214   0.089   0.150
    1UNL     O3    7  -0.213  -0.031   0.234
    1UNL     C5    8  -0.269  -0.155   0.198
    1UNL     C6    9  -0.164  -0.247   0.132
    1UNL     C7   10  -0.065  -0.148   0.057
    1UNL     C8   11   0.086  -0.152   0.025
    1UNL     C9   12   0.119  -0.010   0.040
    1UNL    C10   13   0.027   0.091   0.049
    1UNL     N1   14   0.089   0.212   0.069
    1UNL    C11   15   0.226   0.187   0.086
    1UNL    C12   16   0.331   0.273   0.114
    1UNL    C13   17   0.447   0.222   0.137
    1UNL    C14   18   0.469   0.086   0.133
    1UNL    C15   19   0.373  -0.002   0.095
    1UNL    C16   20   0.242   0.048   0.071
    1UNL     N2   21   0.110  -0.184  -0.122
    1UNL    C17   22   0.088  -0.328  -0.157
    1UNL    C18   23   0.053  -0.097  -0.219
    1UNL    C19   24  -0.103  -0.082  -0.198
    1UNL    C20   25  -0.144  -0.068  -0.044
    1UNL     H1   26  -0.401   0.301  -0.180
    1UNL     H2   27  -0.386   0.202  -0.307
    1UNL     H3   28  -0.237   0.303  -0.277
    1UNL     H4   29  -0.315   0.094   0.105
    1UNL     H5   30  -0.190   0.174   0.227
    1UNL     H6   31  -0.291  -0.204   0.290
    1UNL     H7   32  -0.359  -0.155   0.131
    1UNL     H8   33  -0.109  -0.302   0.211
    1UNL     H9   34  -0.200  -0.334   0.068
    1UNL    H10   35  -0.053  -0.078   0.143
    1UNL    H11   36   0.156  -0.206   0.091
    1UNL    H12   37   0.044   0.304   0.060
    1UNL    H13   38   0.310   0.381   0.119
    1UNL    H14   39   0.539   0.283   0.150
    1UNL    H15   40   0.567   0.053   0.161
    1UNL    H16   41   0.391  -0.103   0.082
    1UNL    H17   42   0.182  -0.378  -0.139
    1UNL    H18   43   0.073  -0.347  -0.264
    1UNL    H19   44   0.016  -0.369  -0.089
    1UNL    H20   45   0.097  -0.004  -0.210
    1UNL    H21   46   0.080  -0.132  -0.316
    1UNL    H22   47  -0.132   0.005  -0.259
    1UNL    H23   48  -0.151  -0.176  -0.239
    1UNL    H24   49  -0.255  -0.091  -0.047
   0.00000   0.00000   0.00000   0.00000   0.00000   0.00000   0.00000   0.00000   0.00000
Generated with MDTraj, t= 23.0
 49
    1UNL     C1    1  -0.333   0.265  -0.216
    1UNL     O1    2  -0.292   0.156  -0.133
    1UNL     C2    3  -0.172   0.178  -0.073
    1UNL     O2    4  -0.106   0.278  -0.097
    1UNL     C3    5  -0.120   0.078   0.028
    1UNL     C4    6  -0.217   0.073   0.154
    1UNL     O3    7  -0.224  -0.053   0.231
    1UNL     C5    8  -0.276  -0.185   0.183
    1UNL     C6    9  -0.169  -0.264   0.098
    1UNL     C7   10  -0.074  -0.151   0.049
    1UNL     C8   11   0.079  -0.143   0.035
    1UNL     C9   12   0.110  -0.003   0.066
    1UNL    C10   13   0.019   0.101   0.061
    1UNL     N1   14   0.083   0.223   0.082
    1UNL    C11   15   0.220   0.192   0.086
    1UNL    C12   16   0.333   0.278   0.096
    1UNL    C13   17   0.459   0.224   0.114
    1UNL    C14   18   0.474   0.088   0.104
    1UNL    C15   19   0.373   0.000   0.090
    1UNL    C16   20   0.239   0.051   0.088
    1UNL     N2   21   0.120  -0.185  -0.100
    1UNL    C17   22   0.069  -0.327  -0.125
    1UNL    C18   23   0.069  -0.090  -0.196
    1UNL    C19   24  -0.083  -0.070  -0.188
    1UNL    C20   25  -0.140  -0.060  -0.041
    1UNL     H1   26  -0.334   0.359  -0.161
    1UNL     H2   27  -0.439   0.262  -0.242
    1UNL     H3   28  -0.274   0.275  -0.308
    1UNL     H4   29  -0.322   0.072   0.116
    1UNL     H5   30  -0.190   0.168   0.217
    1UNL     H6   31  -0.300  -0.258   0.256
    1UNL     H7   32  -0.364  -0.164   0.118
    1UNL     H8   33  -0.106  -0.333   0.159
    1UNL     H9   34  -0.205  -0.329   0.013
    1UNL    H10   35  -0.069  -0.096   0.149
    1UNL    H11   36   0.130  -0.209   0.105
    1UNL    H12   37   0.043   0.317   0.057
    1UNL    H13   38   0.321   0.388   0.086
    1UNL    H14   39   0.541   0.288   0.135
    1UNL    H15   40   0.576   0.049   0.103
    1UNL    H16   41   0.401  -0.107   0.083
    1UNL    H17   42   0.138  -0.373  -0.195
    1UNL    H18   43  -0.013  -0.319  -0.194
    1UNL    H19   44   0.048  -0.378  -0.033
    1UNL    H20   45   0.124  -0.006  -0.182
    1UNL    H21   46   0.097  -0.121  -0.294
    1UNL    H22   47  -0.112   0.025  -0.234
    1UNL    H23   48  -0.136  -0.154  -0.239
    1UNL    H24   49  -0.248  -0.087  -0.059
   0.00000   0.00000   0.00000   0.00000   0.00000   0.00000   0.00000   0.00000   0.00000
Generated with MDTraj, t= 24.0
 49
    1UNL     C1    1  -0.332   0.299  -0.192
    1UNL     O1    2  -0.300   0.195  -0.105
    1UNL     C2    3  -0.172   0.188  -0.074
    1UNL     O2    4  -0.094   0.273  -0.111
    1UNL     C3    5  -0.130   0.068   0.020
    1UNL     C4    6  -0.231   0.074   0.141
    1UNL     O3    7  -0.257  -0.039   0.222
    1UNL     C5    8  -0.299  -0.168   0.162
    1UNL     C6    9  -0.172  -0.256   0.118
    1UNL     C7   10  -0.075  -0.161   0.055
    1UNL     C8   11   0.081  -0.161   0.050
    1UNL     C9   12   0.117  -0.020   0.085
    1UNL    C10   13   0.017   0.079   0.067
    1UNL     N1   14   0.077   0.200   0.082
    1UNL    C11   15   0.217   0.184   0.103
    1UNL    C12   16   0.320   0.281   0.100
    1UNL    C13   17   0.450   0.238   0.084
    1UNL    C14   18   0.479   0.102   0.079
    1UNL    C15   19   0.376   0.010   0.077
    1UNL    C16   20   0.246   0.048   0.092
    1UNL     N2   21   0.122  -0.197  -0.094
    1UNL    C17   22   0.135  -0.342  -0.144
    1UNL    C18   23   0.077  -0.097  -0.186
    1UNL    C19   24  -0.074  -0.091  -0.191
    1UNL    C20   25  -0.141  -0.067  -0.050
    1UNL     H1   26  -0.298   0.397  -0.160
    1UNL     H2   27  -0.439   0.305  -0.209
    1UNL     H3   28  -0.289   0.280  -0.289
    1UNL     H4   29  -0.328   0.103   0.096
    1UNL     H5   30  -0.192   0.153   0.216
    1UNL     H6   31  -0.346  -0.219   0.241
    1UNL     H7   32  -0.368  -0.160   0.073
    1UNL     H8   33  -0.119  -0.313   0.200
    1UNL     H9   34  -0.209  -0.334   0.047
    1UNL    H10   35  -0.073  -0.101   0.153
    1UNL    H11   36   0.122  -0.235   0.121
    1UNL    H12   37   0.030   0.292   0.073
    1UNL    H13   38   0.301   0.381   0.099
    1UNL    H14   39   0.528   0.314   0.079
    1UNL    H15   40   0.580   0.071   0.085
    1UNL    H16   41   0.396  -0.094   0.068
    1UNL    H17   42   0.057  -0.356  -0.218
    1UNL    H18   43   0.105  -0.402  -0.061
    1UNL    H19   44   0.236  -0.363  -0.167
    1UNL    H20   45   0.117  -0.008  -0.155
    1UNL    H21   46   0.127  -0.115  -0.275
    1UNL    H22   47  -0.104  -0.006  -0.255
    1UNL    H23   48  -0.124  -0.181  -0.230
    1UNL    H24   49  -0.246  -0.095  -0.071
   0.00000   0.00000   0.00000   0.00000   0.00000   0.00000   0.00000   0.00000   0.00000
Generated with MDTraj, t= 25.0
 49
    1UNL     C1    1  -0.315   0.323  -0.171
    1UNL     O1    2  -0.299   0.207  -0.098
    1UNL     C2    3  -0.166   0.179  -0.076
    1UNL     O2    4  -0.079   0.226  -0.147
    1UNL     C3    5  -0.139   0.071   0.023
    1UNL     C4    6  -0.243   0.058   0.137
    1UNL     O3    7  -0.238  -0.056   0.227
    1UNL     C5    8  -0.277  -0.186   0.175
    1UNL     C6    9  -0.171  -0.262   0.099
    1UNL     C7   10  -0.079  -0.158   0.050
    1UNL     C8   11   0.078  -0.150   0.043
    1UNL     C9   12   0.104  -0.001   0.079
    1UNL    C10   13   0.010   0.097   0.073
    1UNL     N1   14   0.077   0.219   0.097
    1UNL    C11   15   0.214   0.199   0.084
    1UNL    C12   16   0.323   0.280   0.089
    1UNL    C13   17   0.448   0.222   0.096
    1UNL    C14   18   0.465   0.081   0.082
    1UNL    C15   19   0.357  -0.003   0.080
    1UNL    C16   20   0.231   0.058   0.084
    1UNL     N2   21   0.121  -0.184  -0.088
    1UNL    C17   22   0.148  -0.330  -0.101
    1UNL    C18   23   0.072  -0.091  -0.200
    1UNL    C19   24  -0.080  -0.079  -0.200
    1UNL    C20   25  -0.142  -0.066  -0.052
    1UNL     H1   26  -0.277   0.411  -0.119
    1UNL     H2   27  -0.417   0.327  -0.212
    1UNL     H3   28  -0.261   0.313  -0.266
    1UNL     H4   29  -0.349   0.057   0.108
    1UNL     H5   30  -0.216   0.149   0.204
    1UNL     H6   31  -0.310  -0.241   0.259
    1UNL     H7   32  -0.367  -0.159   0.110
    1UNL     H8   33  -0.135  -0.347   0.167
    1UNL     H9   34  -0.219  -0.320   0.018
    1UNL    H10   35  -0.084  -0.104   0.147
    1UNL    H11   36   0.137  -0.212   0.113
    1UNL    H12   37   0.040   0.301   0.047
    1UNL    H13   38   0.293   0.392   0.092
    1UNL    H14   39   0.537   0.284   0.103
    1UNL    H15   40   0.563   0.032   0.081
    1UNL    H16   41   0.364  -0.110   0.080
    1UNL    H17   42   0.100  -0.381  -0.020
    1UNL    H18   43   0.255  -0.336  -0.108
    1UNL    H19   44   0.121  -0.361  -0.197
    1UNL    H20   45   0.118  -0.002  -0.177
    1UNL    H21   46   0.114  -0.120  -0.288
    1UNL    H22   47  -0.115   0.008  -0.260
    1UNL    H23   48  -0.117  -0.169  -0.252
    1UNL    H24   49  -0.250  -0.091  -0.062
   0.00000   0.00000   0.00000   0.00000   0.00000   0.00000   0.00000   0.00000   0.00000
Generated with MDTraj, t= 26.0
 49
    1UNL     C1    1  -0.321   0.324  -0.161
    1UNL     O1    2  -0.289   0.238  -0.055
    1UNL     C2    3  -0.167   0.177  -0.083
    1UNL     O2    4  -0.096   0.194  -0.180
    1UNL     C3    5  -0.126   0.067   0.015
    1UNL     C4    6  -0.232   0.068   0.128
    1UNL     O3    7  -0.239  -0.049   0.218
    1UNL     C5    8  -0.293  -0.172   0.165
    1UNL     C6    9  -0.171  -0.258   0.121
    1UNL     C7   10  -0.077  -0.162   0.060
    1UNL     C8   11   0.083  -0.160   0.043
    1UNL     C9   12   0.114  -0.013   0.078
    1UNL    C10   13   0.015   0.089   0.059
    1UNL     N1   14   0.074   0.212   0.069
    1UNL    C11   15   0.207   0.188   0.086
    1UNL    C12   16   0.312   0.283   0.098
    1UNL    C13   17   0.444   0.244   0.110
    1UNL    C14   18   0.475   0.100   0.113
    1UNL    C15   19   0.372   0.008   0.100
    1UNL    C16   20   0.238   0.055   0.096
    1UNL     N2   21   0.129  -0.192  -0.098
    1UNL    C17   22   0.116  -0.334  -0.150
    1UNL    C18   23   0.077  -0.085  -0.195
    1UNL    C19   24  -0.073  -0.100  -0.189
    1UNL    C20   25  -0.135  -0.074  -0.053
    1UNL     H1   26  -0.232   0.380  -0.192
    1UNL     H2   27  -0.418   0.379  -0.152
    1UNL     H3   28  -0.357   0.265  -0.249
    1UNL     H4   29  -0.331   0.085   0.085
    1UNL     H5   30  -0.202   0.142   0.211
    1UNL     H6   31  -0.354  -0.201   0.247
    1UNL     H7   32  -0.361  -0.136   0.082
    1UNL     H8   33  -0.119  -0.315   0.208
    1UNL     H9   34  -0.193  -0.348   0.059
    1UNL    H10   35  -0.073  -0.097   0.148
    1UNL    H11   36   0.123  -0.235   0.113
    1UNL    H12   37   0.030   0.305   0.067
    1UNL    H13   38   0.295   0.386   0.081
    1UNL    H14   39   0.517   0.320   0.098
    1UNL    H15   40   0.577   0.075   0.110
    1UNL    H16   41   0.384  -0.102   0.105
    1UNL    H17   42   0.174  -0.394  -0.084
    1UNL    H18   43   0.120  -0.343  -0.257
    1UNL    H19   44   0.016  -0.364  -0.128
    1UNL    H20   45   0.106   0.013  -0.177
    1UNL    H21   46   0.111  -0.117  -0.283
    1UNL    H22   47  -0.104  -0.027  -0.270
    1UNL    H23   48  -0.094  -0.202  -0.224
    1UNL    H24   49  -0.244  -0.086  -0.068
   0.00000   0.00000   0.00000   0.00000   0.00000   0.00000   0.00000   0.00000   0.00000
Generated with MDTraj, t= 27.0
 49
    1UNL     C1    1  -0.304   0.350  -0.158
    1UNL     O1    2  -0.277   0.273  -0.053
    1UNL     C2    3  -0.185   0.177  -0.095
    1UNL     O2    4  -0.128   0.181  -0.202
    1UNL     C3    5  -0.131   0.068   0.008
    1UNL     C4    6  -0.226   0.060   0.134
    1UNL     O3    7  -0.217  -0.054   0.227
    1UNL     C5    8  -0.263  -0.184   0.179
    1UNL     C6    9  -0.153  -0.267   0.115
    1UNL     C7   10  -0.067  -0.163   0.047
    1UNL     C8   11   0.083  -0.159   0.030
    1UNL     C9   12   0.116  -0.004   0.049
    1UNL    C10   13   0.018   0.093   0.040
    1UNL     N1   14   0.082   0.214   0.056
    1UNL    C11   15   0.211   0.201   0.095
    1UNL    C12   16   0.310   0.293   0.123
    1UNL    C13   17   0.441   0.252   0.143
    1UNL    C14   18   0.466   0.107   0.140
    1UNL    C15   19   0.370   0.012   0.113
    1UNL    C16   20   0.237   0.062   0.090
    1UNL     N2   21   0.127  -0.210  -0.100
    1UNL    C17   22   0.100  -0.348  -0.134
    1UNL    C18   23   0.063  -0.121  -0.209
    1UNL    C19   24  -0.097  -0.106  -0.196
    1UNL    C20   25  -0.149  -0.073  -0.052
    1UNL     H1   26  -0.210   0.370  -0.209
    1UNL     H2   27  -0.358   0.439  -0.123
    1UNL     H3   28  -0.374   0.300  -0.229
    1UNL     H4   29  -0.327   0.051   0.098
    1UNL     H5   30  -0.216   0.155   0.195
    1UNL     H6   31  -0.301  -0.229   0.268
    1UNL     H7   32  -0.346  -0.143   0.111
    1UNL     H8   33  -0.088  -0.325   0.189
    1UNL     H9   34  -0.189  -0.345   0.046
    1UNL    H10   35  -0.056  -0.099   0.140
    1UNL    H11   36   0.142  -0.204   0.111
    1UNL    H12   37   0.040   0.304   0.027
    1UNL    H13   38   0.283   0.394   0.115
    1UNL    H14   39   0.531   0.316   0.147
    1UNL    H15   40   0.566   0.069   0.167
    1UNL    H16   41   0.390  -0.090   0.110
    1UNL    H17   42   0.185  -0.405  -0.110
    1UNL    H18   43   0.062  -0.354  -0.233
    1UNL    H19   44   0.025  -0.394  -0.073
    1UNL    H20   45   0.114  -0.033  -0.200
    1UNL    H21   46   0.084  -0.163  -0.300
    1UNL    H22   47  -0.127  -0.024  -0.267
    1UNL    H23   48  -0.127  -0.206  -0.236
    1UNL    H24   49  -0.256  -0.096  -0.053
   0.00000   0.00000   0.00000   0.00000   0.00000   0.00000   0.00000   0.00000   0.00000
Generated with MDTraj, t= 28.0
 49
    1UNL     C1    1  -0.276   0.361  -0.127
    1UNL     O1    2  -0.243   0.264  -0.038
    1UNL     C2    3  -0.186   0.159  -0.108
    1UNL     O2    4  -0.155   0.152  -0.225
    1UNL     C3    5  -0.136   0.054  -0.009
    1UNL     C4    6  -0.225   0.068   0.123
    1UNL     O3    7  -0.198  -0.027   0.227
    1UNL     C5    8  -0.254  -0.163   0.202
    1UNL     C6    9  -0.152  -0.253   0.137
    1UNL     C7   10  -0.062  -0.162   0.051
    1UNL     C8   11   0.095  -0.146   0.019
    1UNL     C9   12   0.115   0.006   0.024
    1UNL    C10   13   0.012   0.092   0.031
    1UNL     N1   14   0.066   0.215   0.058
    1UNL    C11   15   0.205   0.206   0.085
    1UNL    C12   16   0.299   0.286   0.152
    1UNL    C13   17   0.422   0.232   0.184
    1UNL    C14   18   0.463   0.100   0.151
    1UNL    C15   19   0.364   0.021   0.094
    1UNL    C16   20   0.235   0.071   0.066
    1UNL     N2   21   0.122  -0.203  -0.117
    1UNL    C17   22   0.114  -0.344  -0.130
    1UNL    C18   23   0.044  -0.122  -0.222
    1UNL    C19   24  -0.103  -0.128  -0.205
    1UNL    C20   25  -0.146  -0.089  -0.057
    1UNL     H1   26  -0.191   0.426  -0.137
    1UNL     H2   27  -0.357   0.421  -0.084
    1UNL     H3   28  -0.282   0.320  -0.229
    1UNL     H4   29  -0.328   0.061   0.095
    1UNL     H5   30  -0.202   0.167   0.174
    1UNL     H6   31  -0.275  -0.201   0.301
    1UNL     H7   32  -0.343  -0.147   0.129
    1UNL     H8   33  -0.080  -0.293   0.217
    1UNL     H9   34  -0.184  -0.333   0.066
    1UNL    H10   35  -0.050  -0.080   0.135
    1UNL    H11   36   0.152  -0.200   0.095
    1UNL    H12   37   0.005   0.297   0.079
    1UNL    H13   38   0.275   0.395   0.183
    1UNL    H14   39   0.479   0.291   0.248
    1UNL    H15   40   0.552   0.058   0.189
    1UNL    H16   41   0.376  -0.088   0.071
    1UNL    H17   42   0.127  -0.393  -0.037
    1UNL    H18   43   0.189  -0.365  -0.201
    1UNL    H19   44   0.025  -0.386  -0.174
    1UNL    H20   45   0.085  -0.029  -0.234
    1UNL    H21   46   0.074  -0.177  -0.310
    1UNL    H22   47  -0.146  -0.052  -0.281
    1UNL    H23   48  -0.142  -0.231  -0.224
    1UNL    H24   49  -0.252  -0.116  -0.056
   0.00000   0.00000   0.00000   0.00000   0.00000   0.00000   0.00000   0.00000   0.00000
Generated with MDTraj, t= 29.0
 49
    1UNL     C1    1  -0.259   0.373  -0.161
    1UNL     O1    2  -0.215   0.294  -0.056
    1UNL     C2    3  -0.185   0.168  -0.107
    1UNL     O2    4  -0.200   0.136  -0.223
    1UNL     C3    5  -0.128   0.065  -0.006
    1UNL     C4    6  -0.214   0.067   0.129
    1UNL     O3    7  -0.184  -0.030   0.234
    1UNL     C5    8  -0.236  -0.163   0.210
    1UNL     C6    9  -0.129  -0.260   0.145
    1UNL     C7   10  -0.056  -0.171   0.046
    1UNL     C8   11   0.088  -0.156   0.014
    1UNL     C9   12   0.117  -0.009   0.029
    1UNL    C10   13   0.012   0.087   0.031
    1UNL     N1   14   0.058   0.202   0.079
    1UNL    C11   15   0.194   0.193   0.103
    1UNL    C12   16   0.282   0.288   0.156
    1UNL    C13   17   0.414   0.246   0.178
    1UNL    C14   18   0.450   0.114   0.159
    1UNL    C15   19   0.363   0.021   0.112
    1UNL    C16   20   0.233   0.059   0.080
    1UNL     N2   21   0.104  -0.207  -0.132
    1UNL    C17   22   0.120  -0.351  -0.149
    1UNL    C18   23   0.039  -0.118  -0.232
    1UNL    C19   24  -0.109  -0.117  -0.205
    1UNL    C20   25  -0.144  -0.085  -0.053
    1UNL     H1   26  -0.180   0.376  -0.235
    1UNL     H2   27  -0.273   0.475  -0.125
    1UNL     H3   28  -0.328   0.313  -0.223
    1UNL     H4   29  -0.320   0.060   0.119
    1UNL     H5   30  -0.185   0.166   0.173
    1UNL     H6   31  -0.277  -0.203   0.304
    1UNL     H7   32  -0.317  -0.152   0.128
    1UNL     H8   33  -0.064  -0.309   0.223
    1UNL     H9   34  -0.183  -0.335   0.080
    1UNL    H10   35  -0.053  -0.085   0.123
    1UNL    H11   36   0.159  -0.215   0.075
    1UNL    H12   37  -0.005   0.284   0.078
    1UNL    H13   38   0.243   0.380   0.177
    1UNL    H14   39   0.482   0.319   0.228
    1UNL    H15   40   0.549   0.078   0.193
    1UNL    H16   41   0.400  -0.077   0.109
    1UNL    H17   42   0.213  -0.385  -0.111
    1UNL    H18   43   0.108  -0.371  -0.252
    1UNL    H19   44   0.051  -0.415  -0.096
    1UNL    H20   45   0.095  -0.030  -0.231
    1UNL    H21   46   0.062  -0.156  -0.330
    1UNL    H22   47  -0.161  -0.034  -0.262
    1UNL    H23   48  -0.158  -0.214  -0.232
    1UNL    H24   49  -0.252  -0.103  -0.049
   0.00000   0.00000   0.00000   0.00000   0.00000   0.00000   0.00000   0.00000   0.00000
Generated with MDTraj, t= 30.0
 49
    1UNL     C1    1  -0.225   0.382  -0.150
    1UNL     O1    2  -0.166   0.285  -0.070
    1UNL     C2    3  -0.183   0.158  -0.114
    1UNL     O2    4  -0.248   0.116  -0.207
    1UNL     C3    5  -0.132   0.060  -0.010
    1UNL     C4    6  -0.223   0.059   0.120
    1UNL     O3    7  -0.207  -0.050   0.222
    1UNL     C5    8  -0.253  -0.188   0.201
    1UNL     C6    9  -0.136  -0.267   0.143
    1UNL     C7   10  -0.056  -0.169   0.060
    1UNL     C8   11   0.094  -0.146   0.017
    1UNL     C9   12   0.118  -0.001   0.040
    1UNL    C10   13   0.017   0.088   0.031
    1UNL     N1   14   0.068   0.214   0.053
    1UNL    C11   15   0.205   0.200   0.089
    1UNL    C12   16   0.293   0.295   0.145
    1UNL    C13   17   0.411   0.247   0.188
    1UNL    C14   18   0.443   0.114   0.164
    1UNL    C15   19   0.365   0.020   0.104
    1UNL    C16   20   0.238   0.063   0.074
    1UNL     N2   21   0.116  -0.185  -0.130
    1UNL    C17   22   0.115  -0.329  -0.147
    1UNL    C18   23   0.033  -0.097  -0.208
    1UNL    C19   24  -0.117  -0.122  -0.190
    1UNL    C20   25  -0.150  -0.093  -0.046
    1UNL     H1   26  -0.221   0.348  -0.253
    1UNL     H2   27  -0.161   0.469  -0.140
    1UNL     H3   28  -0.334   0.392  -0.129
    1UNL     H4   29  -0.324   0.068   0.089
    1UNL     H5   30  -0.188   0.141   0.186
    1UNL     H6   31  -0.274  -0.241   0.295
    1UNL     H7   32  -0.349  -0.190   0.137
    1UNL     H8   33  -0.080  -0.311   0.229
    1UNL     H9   34  -0.174  -0.355   0.083
    1UNL    H10   35  -0.050  -0.096   0.139
    1UNL    H11   36   0.171  -0.209   0.066
    1UNL    H12   37   0.012   0.302   0.049
    1UNL    H13   38   0.260   0.400   0.159
    1UNL    H14   39   0.485   0.313   0.219
    1UNL    H15   40   0.543   0.089   0.189
    1UNL    H16   41   0.398  -0.083   0.087
    1UNL    H17   42   0.179  -0.377  -0.075
    1UNL    H18   43   0.136  -0.355  -0.248
    1UNL    H19   44   0.019  -0.371  -0.124
    1UNL    H20   45   0.067   0.004  -0.185
    1UNL    H21   46   0.071  -0.113  -0.307
    1UNL    H22   47  -0.176  -0.058  -0.264
    1UNL    H23   48  -0.143  -0.232  -0.204
    1UNL    H24   49  -0.255  -0.122  -0.030
   0.00000   0.00000   0.00000   0.00000   0.00000   0.00000   0.00000   0.00000   0.00000
Generated with MDTraj, t= 31.0
 49
    1UNL     C1    1  -0.197   0.377  -0.181
    1UNL     O1    2  -0.142   0.289  -0.081
    1UNL     C2    3  -0.199   0.166  -0.086
    1UNL     O2    4  -0.302   0.128  -0.140
    1UNL     C3    5  -0.138   0.062   0.006
    1UNL     C4    6  -0.229   0.060   0.136
    1UNL     O3    7  -0.204  -0.057   0.224
    1UNL     C5    8  -0.260  -0.186   0.190
    1UNL     C6    9  -0.161  -0.279   0.104
    1UNL     C7   10  -0.068  -0.174   0.043
    1UNL     C8   11   0.089  -0.151   0.021
    1UNL     C9   12   0.111  -0.002   0.042
    1UNL    C10   13   0.005   0.089   0.033
    1UNL     N1   14   0.055   0.209   0.077
    1UNL    C11   15   0.191   0.204   0.101
    1UNL    C12   16   0.296   0.298   0.121
    1UNL    C13   17   0.418   0.257   0.148
    1UNL    C14   18   0.454   0.123   0.150
    1UNL    C15   19   0.360   0.029   0.115
    1UNL    C16   20   0.224   0.068   0.092
    1UNL     N2   21   0.124  -0.205  -0.113
    1UNL    C17   22   0.134  -0.354  -0.137
    1UNL    C18   23   0.070  -0.118  -0.221
    1UNL    C19   24  -0.081  -0.090  -0.199
    1UNL    C20   25  -0.140  -0.087  -0.059
    1UNL     H1   26  -0.152   0.346  -0.275
    1UNL     H2   27  -0.166   0.482  -0.171
    1UNL     H3   28  -0.308   0.368  -0.182
    1UNL     H4   29  -0.331   0.054   0.112
    1UNL     H5   30  -0.204   0.152   0.190
    1UNL     H6   31  -0.291  -0.236   0.282
    1UNL     H7   32  -0.357  -0.177   0.129
    1UNL     H8   33  -0.107  -0.360   0.159
    1UNL     H9   34  -0.215  -0.345   0.028
    1UNL    H10   35  -0.066  -0.113   0.132
    1UNL    H11   36   0.152  -0.214   0.088
    1UNL    H12   37   0.001   0.295   0.060
    1UNL    H13   38   0.278   0.407   0.113
    1UNL    H14   39   0.502   0.329   0.155
    1UNL    H15   40   0.560   0.099   0.159
    1UNL    H16   41   0.396  -0.073   0.111
    1UNL    H17   42   0.180  -0.410  -0.054
    1UNL    H18   43   0.174  -0.373  -0.235
    1UNL    H19   44   0.037  -0.396  -0.140
    1UNL    H20   45   0.128  -0.022  -0.205
    1UNL    H21   46   0.092  -0.160  -0.317
    1UNL    H22   47  -0.100   0.016  -0.240
    1UNL    H23   48  -0.126  -0.171  -0.265
    1UNL    H24   49  -0.245  -0.121  -0.066
   0.00000   0.00000   0.00000   0.00000   0.00000   0.00000   0.00000   0.00000   0.00000
Generated with MDTraj, t= 32.0
 49
    1UNL     C1    1  -0.192   0.363  -0.199
    1UNL     O1    2  -0.118   0.270  -0.116
    1UNL     C2    3  -0.198   0.167  -0.075
    1UNL     O2    4  -0.312   0.143  -0.110
    1UNL     C3    5  -0.134   0.060   0.013
    1UNL     C4    6  -0.242   0.042   0.130
    1UNL     O3    7  -0.263  -0.081   0.209
    1UNL     C5    8  -0.286  -0.211   0.159
    1UNL     C6    9  -0.152  -0.288   0.109
    1UNL     C7   10  -0.063  -0.170   0.059
    1UNL     C8   11   0.097  -0.154   0.040
    1UNL     C9   12   0.107  -0.002   0.074
    1UNL    C10   13   0.008   0.094   0.054
    1UNL     N1   14   0.062   0.218   0.080
    1UNL    C11   15   0.198   0.211   0.097
    1UNL    C12   16   0.305   0.302   0.121
    1UNL    C13   17   0.430   0.249   0.125
    1UNL    C14   18   0.457   0.113   0.114
    1UNL    C15   19   0.361   0.025   0.088
    1UNL    C16   20   0.230   0.075   0.083
    1UNL     N2   21   0.142  -0.180  -0.097
    1UNL    C17   22   0.118  -0.322  -0.143
    1UNL    C18   23   0.078  -0.083  -0.191
    1UNL    C19   24  -0.077  -0.096  -0.188
    1UNL    C20   25  -0.133  -0.084  -0.045
    1UNL     H1   26  -0.171   0.343  -0.306
    1UNL     H2   27  -0.146   0.463  -0.196
    1UNL     H3   28  -0.295   0.372  -0.155
    1UNL     H4   29  -0.330   0.041   0.074
    1UNL     H5   30  -0.240   0.123   0.204
    1UNL     H6   31  -0.336  -0.269   0.235
    1UNL     H7   32  -0.367  -0.210   0.078
    1UNL     H8   33  -0.101  -0.342   0.193
    1UNL     H9   34  -0.165  -0.378   0.039
    1UNL    H10   35  -0.070  -0.108   0.152
    1UNL    H11   36   0.164  -0.202   0.115
    1UNL    H12   37   0.005   0.298   0.057
    1UNL    H13   38   0.289   0.403   0.128
    1UNL    H14   39   0.512   0.314   0.144
    1UNL    H15   40   0.560   0.085   0.137
    1UNL    H16   41   0.385  -0.077   0.079
    1UNL    H17   42   0.156  -0.391  -0.067
    1UNL    H18   43   0.148  -0.336  -0.247
    1UNL    H19   44   0.014  -0.349  -0.142
    1UNL    H20   45   0.102   0.020  -0.148
    1UNL    H21   46   0.125  -0.097  -0.288
    1UNL    H22   47  -0.104  -0.004  -0.253
    1UNL    H23   48  -0.105  -0.195  -0.237
    1UNL    H24   49  -0.238  -0.123  -0.049
   0.00000   0.00000   0.00000   0.00000   0.00000   0.00000   0.00000   0.00000   0.00000
Generated with MDTraj, t= 33.0
 49
    1UNL     C1    1  -0.147   0.344  -0.221
    1UNL     O1    2  -0.099   0.267  -0.111
    1UNL     C2    3  -0.190   0.174  -0.063
    1UNL     O2    4  -0.301   0.152  -0.105
    1UNL     C3    5  -0.144   0.054   0.026
    1UNL     C4    6  -0.236   0.036   0.149
    1UNL     O3    7  -0.239  -0.088   0.219
    1UNL     C5    8  -0.283  -0.212   0.168
    1UNL     C6    9  -0.181  -0.289   0.083
    1UNL     C7   10  -0.073  -0.179   0.050
    1UNL     C8   11   0.085  -0.149   0.037
    1UNL     C9   12   0.102  -0.008   0.085
    1UNL    C10   13  -0.000   0.086   0.076
    1UNL     N1   14   0.046   0.212   0.097
    1UNL    C11   15   0.185   0.201   0.104
    1UNL    C12   16   0.287   0.301   0.103
    1UNL    C13   17   0.415   0.262   0.094
    1UNL    C14   18   0.450   0.128   0.087
    1UNL    C15   19   0.357   0.024   0.104
    1UNL    C16   20   0.222   0.061   0.102
    1UNL     N2   21   0.137  -0.171  -0.100
    1UNL    C17   22   0.143  -0.317  -0.128
    1UNL    C18   23   0.080  -0.077  -0.197
    1UNL    C19   24  -0.077  -0.069  -0.200
    1UNL    C20   25  -0.141  -0.082  -0.058
    1UNL     H1   26  -0.214   0.287  -0.286
    1UNL     H2   27  -0.066   0.358  -0.293
    1UNL     H3   28  -0.183   0.440  -0.181
    1UNL     H4   29  -0.334   0.036   0.114
    1UNL     H5   30  -0.211   0.113   0.223
    1UNL     H6   31  -0.308  -0.280   0.247
    1UNL     H7   32  -0.376  -0.192   0.108
    1UNL     H8   33  -0.126  -0.371   0.138
    1UNL     H9   34  -0.229  -0.343  -0.004
    1UNL    H10   35  -0.071  -0.127   0.156
    1UNL    H11   36   0.131  -0.220   0.109
    1UNL    H12   37   0.003   0.301   0.077
    1UNL    H13   38   0.263   0.412   0.094
    1UNL    H14   39   0.494   0.335   0.093
    1UNL    H15   40   0.552   0.101   0.085
    1UNL    H16   41   0.382  -0.084   0.103
    1UNL    H17   42   0.195  -0.357  -0.041
    1UNL    H18   43   0.191  -0.333  -0.226
    1UNL    H19   44   0.047  -0.367  -0.129
    1UNL    H20   45   0.129   0.020  -0.163
    1UNL    H21   46   0.133  -0.101  -0.293
    1UNL    H22   47  -0.116   0.030  -0.243
    1UNL    H23   48  -0.109  -0.157  -0.269
    1UNL    H24   49  -0.248  -0.106  -0.075
   0.00000   0.00000   0.00000   0.00000   0.00000   0.00000   0.00000   0.00000   0.00000
Generated with MDTraj, t= 34.0
 49
    1UNL     C1    1  -0.131   0.345  -0.206
    1UNL     O1    2  -0.085   0.230  -0.142
    1UNL     C2    3  -0.183   0.163  -0.071
    1UNL     O2    4  -0.301   0.183  -0.087
    1UNL     C3    5  -0.142   0.049   0.021
    1UNL     C4    6  -0.260   0.032   0.127
    1UNL     O3    7  -0.267  -0.078   0.214
    1UNL     C5    8  -0.286  -0.215   0.168
    1UNL     C6    9  -0.146  -0.289   0.122
    1UNL     C7   10  -0.066  -0.174   0.059
    1UNL     C8   11   0.083  -0.153   0.039
    1UNL     C9   12   0.106  -0.011   0.073
    1UNL    C10   13  -0.000   0.077   0.080
    1UNL     N1   14   0.045   0.208   0.102
    1UNL    C11   15   0.181   0.199   0.108
    1UNL    C12   16   0.279   0.299   0.117
    1UNL    C13   17   0.417   0.262   0.103
    1UNL    C14   18   0.450   0.128   0.088
    1UNL    C15   19   0.356   0.032   0.081
    1UNL    C16   20   0.222   0.068   0.090
    1UNL     N2   21   0.136  -0.165  -0.102
    1UNL    C17   22   0.137  -0.310  -0.145
    1UNL    C18   23   0.075  -0.068  -0.200
    1UNL    C19   24  -0.078  -0.079  -0.191
    1UNL    C20   25  -0.139  -0.085  -0.048
    1UNL     H1   26  -0.212   0.326  -0.275
    1UNL     H2   27  -0.042   0.383  -0.255
    1UNL     H3   28  -0.154   0.423  -0.133
    1UNL     H4   29  -0.348   0.023   0.073
    1UNL     H5   30  -0.263   0.119   0.197
    1UNL     H6   31  -0.341  -0.270   0.241
    1UNL     H7   32  -0.339  -0.206   0.072
    1UNL     H8   33  -0.095  -0.331   0.215
    1UNL     H9   34  -0.159  -0.370   0.046
    1UNL    H10   35  -0.074  -0.104   0.152
    1UNL    H11   36   0.146  -0.214   0.106
    1UNL    H12   37  -0.003   0.294   0.074
    1UNL    H13   38   0.248   0.398   0.128
    1UNL    H14   39   0.494   0.342   0.102
    1UNL    H15   40   0.555   0.092   0.070
    1UNL    H16   41   0.390  -0.067   0.077
    1UNL    H17   42   0.192  -0.366  -0.071
    1UNL    H18   43   0.182  -0.309  -0.246
    1UNL    H19   44   0.037  -0.358  -0.158
    1UNL    H20   45   0.118   0.033  -0.175
    1UNL    H21   46   0.119  -0.081  -0.307
    1UNL    H22   47  -0.113   0.024  -0.228
    1UNL    H23   48  -0.137  -0.153  -0.258
    1UNL    H24   49  -0.240  -0.130  -0.061
   0.00000   0.00000   0.00000   0.00000   0.00000   0.00000   0.00000   0.00000   0.00000
Generated with MDTraj, t= 35.0
 49
    1UNL     C1    1  -0.122   0.326  -0.245
    1UNL     O1    2  -0.093   0.217  -0.145
    1UNL     C2    3  -0.192   0.170  -0.064
    1UNL     O2    4  -0.305   0.213  -0.062
    1UNL     C3    5  -0.141   0.055   0.026
    1UNL     C4    6  -0.237   0.038   0.145
    1UNL     O3    7  -0.227  -0.090   0.223
    1UNL     C5    8  -0.272  -0.216   0.164
    1UNL     C6    9  -0.163  -0.285   0.083
    1UNL     C7   10  -0.068  -0.171   0.047
    1UNL     C8   11   0.090  -0.152   0.026
    1UNL     C9   12   0.107  -0.002   0.054
    1UNL    C10   13  -0.001   0.088   0.064
    1UNL     N1   14   0.044   0.217   0.097
    1UNL    C11   15   0.183   0.203   0.116
    1UNL    C12   16   0.272   0.308   0.134
    1UNL    C13   17   0.406   0.273   0.133
    1UNL    C14   18   0.454   0.138   0.112
    1UNL    C15   19   0.359   0.038   0.083
    1UNL    C16   20   0.223   0.071   0.088
    1UNL     N2   21   0.137  -0.183  -0.111
    1UNL    C17   22   0.124  -0.328  -0.134
    1UNL    C18   23   0.059  -0.096  -0.199
    1UNL    C19   24  -0.093  -0.092  -0.194
    1UNL    C20   25  -0.143  -0.075  -0.048
    1UNL     H1   26  -0.195   0.285  -0.315
    1UNL     H2   27  -0.022   0.361  -0.276
    1UNL     H3   28  -0.166   0.416  -0.203
    1UNL     H4   29  -0.336   0.036   0.109
    1UNL     H5   30  -0.223   0.129   0.210
    1UNL     H6   31  -0.301  -0.270   0.253
    1UNL     H7   32  -0.351  -0.190   0.094
    1UNL     H8   33  -0.122  -0.363   0.157
    1UNL     H9   34  -0.199  -0.334  -0.010
    1UNL    H10   35  -0.072  -0.118   0.141
    1UNL    H11   36   0.150  -0.220   0.090
    1UNL    H12   37  -0.006   0.302   0.118
    1UNL    H13   38   0.242   0.408   0.159
    1UNL    H14   39   0.476   0.351   0.138
    1UNL    H15   40   0.557   0.120   0.117
    1UNL    H16   41   0.385  -0.067   0.057
    1UNL    H17   42   0.189  -0.382  -0.065
    1UNL    H18   43   0.138  -0.349  -0.242
    1UNL    H19   44   0.019  -0.361  -0.115
    1UNL    H20   45   0.098   0.008  -0.186
    1UNL    H21   46   0.101  -0.122  -0.306
    1UNL    H22   47  -0.142  -0.011  -0.259
    1UNL    H23   48  -0.129  -0.196  -0.230
    1UNL    H24   49  -0.252  -0.097  -0.068
   0.00000   0.00000   0.00000   0.00000   0.00000   0.00000   0.00000   0.00000   0.00000
Generated with MDTraj, t= 36.0
 49
    1UNL     C1    1  -0.173   0.310  -0.263
    1UNL     O1    2  -0.120   0.211  -0.175
    1UNL     C2    3  -0.199   0.166  -0.071
    1UNL     O2    4  -0.307   0.218  -0.043
    1UNL     C3    5  -0.143   0.057   0.016
    1UNL     C4    6  -0.248   0.049   0.135
    1UNL     O3    7  -0.223  -0.070   0.225
    1UNL     C5    8  -0.265  -0.198   0.173
    1UNL     C6    9  -0.143  -0.274   0.109
    1UNL     C7   10  -0.056  -0.163   0.056
    1UNL     C8   11   0.091  -0.151   0.017
    1UNL     C9   12   0.111  -0.000   0.041
    1UNL    C10   13   0.005   0.089   0.049
    1UNL     N1   14   0.054   0.208   0.098
    1UNL    C11   15   0.193   0.200   0.113
    1UNL    C12   16   0.285   0.297   0.150
    1UNL    C13   17   0.415   0.268   0.169
    1UNL    C14   18   0.456   0.132   0.144
    1UNL    C15   19   0.370   0.032   0.107
    1UNL    C16   20   0.228   0.066   0.094
    1UNL     N2   21   0.128  -0.185  -0.124
    1UNL    C17   22   0.119  -0.331  -0.164
    1UNL    C18   23   0.067  -0.090  -0.214
    1UNL    C19   24  -0.091  -0.097  -0.195
    1UNL    C20   25  -0.140  -0.082  -0.049
    1UNL     H1   26  -0.267   0.270  -0.304
    1UNL     H2   27  -0.081   0.327  -0.324
    1UNL     H3   28  -0.189   0.408  -0.215
    1UNL     H4   29  -0.350   0.053   0.102
    1UNL     H5   30  -0.234   0.136   0.206
    1UNL     H6   31  -0.288  -0.249   0.266
    1UNL     H7   32  -0.352  -0.173   0.114
    1UNL     H8   33  -0.088  -0.346   0.179
    1UNL     H9   34  -0.178  -0.341   0.027
    1UNL    H10   35  -0.054  -0.108   0.146
    1UNL    H11   36   0.155  -0.217   0.078
    1UNL    H12   37   0.002   0.295   0.101
    1UNL    H13   38   0.228   0.391   0.171
    1UNL    H14   39   0.483   0.343   0.216
    1UNL    H15   40   0.563   0.105   0.159
    1UNL    H16   41   0.402  -0.065   0.081
    1UNL    H17   42   0.162  -0.402  -0.090
    1UNL    H18   43   0.158  -0.345  -0.266
    1UNL    H19   44   0.012  -0.359  -0.177
    1UNL    H20   45   0.106   0.013  -0.191
    1UNL    H21   46   0.096  -0.107  -0.326
    1UNL    H22   47  -0.137  -0.025  -0.272
    1UNL    H23   48  -0.118  -0.205  -0.225
    1UNL    H24   49  -0.245  -0.121  -0.059
   0.00000   0.00000   0.00000   0.00000   0.00000   0.00000   0.00000   0.00000   0.00000
Generated with MDTraj, t= 37.0
 49
    1UNL     C1    1  -0.205   0.289  -0.279
    1UNL     O1    2  -0.141   0.194  -0.195
    1UNL     C2    3  -0.206   0.166  -0.076
    1UNL     O2    4  -0.312   0.220  -0.047
    1UNL     C3    5  -0.135   0.065   0.015
    1UNL     C4    6  -0.227   0.046   0.139
    1UNL     O3    7  -0.210  -0.060   0.236
    1UNL     C5    8  -0.246  -0.193   0.194
    1UNL     C6    9  -0.135  -0.265   0.115
    1UNL     C7   10  -0.057  -0.161   0.040
    1UNL     C8   11   0.099  -0.145   0.017
    1UNL     C9   12   0.117   0.004   0.046
    1UNL    C10   13   0.012   0.098   0.041
    1UNL     N1   14   0.059   0.220   0.084
    1UNL    C11   15   0.193   0.204   0.113
    1UNL    C12   16   0.290   0.286   0.172
    1UNL    C13   17   0.416   0.239   0.188
    1UNL    C14   18   0.448   0.097   0.172
    1UNL    C15   19   0.355   0.016   0.119
    1UNL    C16   20   0.232   0.070   0.089
    1UNL     N2   21   0.125  -0.168  -0.133
    1UNL    C17   22   0.147  -0.317  -0.158
    1UNL    C18   23   0.045  -0.080  -0.228
    1UNL    C19   24  -0.106  -0.087  -0.203
    1UNL    C20   25  -0.140  -0.076  -0.058
    1UNL     H1   26  -0.313   0.270  -0.282
    1UNL     H2   27  -0.149   0.293  -0.374
    1UNL     H3   28  -0.189   0.385  -0.227
    1UNL     H4   29  -0.331   0.041   0.108
    1UNL     H5   30  -0.218   0.139   0.206
    1UNL     H6   31  -0.263  -0.249   0.289
    1UNL     H7   32  -0.340  -0.169   0.144
    1UNL     H8   33  -0.060  -0.337   0.165
    1UNL     H9   34  -0.181  -0.341   0.044
    1UNL    H10   35  -0.054  -0.097   0.130
    1UNL    H11   36   0.162  -0.210   0.080
    1UNL    H12   37   0.002   0.304   0.078
    1UNL    H13   38   0.262   0.383   0.191
    1UNL    H14   39   0.481   0.311   0.227
    1UNL    H15   40   0.542   0.063   0.208
    1UNL    H16   41   0.364  -0.091   0.094
    1UNL    H17   42   0.244  -0.353  -0.110
    1UNL    H18   43   0.141  -0.353  -0.263
    1UNL    H19   44   0.066  -0.373  -0.110
    1UNL    H20   45   0.072   0.031  -0.218
    1UNL    H21   46   0.073  -0.103  -0.338
    1UNL    H22   47  -0.154  -0.004  -0.266
    1UNL    H23   48  -0.137  -0.187  -0.250
    1UNL    H24   49  -0.249  -0.100  -0.056
   0.00000   0.00000   0.00000   0.00000   0.00000   0.00000   0.00000   0.00000   0.00000
Generated with MDTraj, t= 38.0
 49
    1UNL     C1    1  -0.219   0.269  -0.283
    1UNL     O1    2  -0.128   0.193  -0.206
    1UNL     C2    3  -0.183   0.163  -0.086
    1UNL     O2    4  -0.286   0.211  -0.048
    1UNL     C3    5  -0.133   0.057   0.014
    1UNL     C4    6  -0.207   0.059   0.149
    1UNL     O3    7  -0.195  -0.053   0.238
    1UNL     C5    8  -0.246  -0.190   0.193
    1UNL     C6    9  -0.142  -0.269   0.119
    1UNL     C7   10  -0.063  -0.166   0.044
    1UNL     C8   11   0.094  -0.147   0.002
    1UNL     C9   12   0.114   0.002   0.038
    1UNL    C10   13   0.014   0.097   0.032
    1UNL     N1   14   0.064   0.217   0.075
    1UNL    C11   15   0.195   0.200   0.115
    1UNL    C12   16   0.276   0.288   0.184
    1UNL    C13   17   0.403   0.241   0.220
    1UNL    C14   18   0.448   0.114   0.178
    1UNL    C15   19   0.357   0.022   0.126
    1UNL    C16   20   0.231   0.068   0.088
    1UNL     N2   21   0.114  -0.166  -0.141
    1UNL    C17   22   0.136  -0.308  -0.174
    1UNL    C18   23   0.034  -0.072  -0.228
    1UNL    C19   24  -0.120  -0.085  -0.200
    1UNL    C20   25  -0.152  -0.085  -0.045
    1UNL     H1   26  -0.317   0.221  -0.287
    1UNL     H2   27  -0.181   0.287  -0.385
    1UNL     H3   28  -0.228   0.354  -0.214
    1UNL     H4   29  -0.315   0.072   0.137
    1UNL     H5   30  -0.167   0.151   0.208
    1UNL     H6   31  -0.280  -0.235   0.290
    1UNL     H7   32  -0.330  -0.171   0.126
    1UNL     H8   33  -0.070  -0.329   0.183
    1UNL     H9   34  -0.174  -0.349   0.045
    1UNL    H10   35  -0.044  -0.105   0.142
    1UNL    H11   36   0.173  -0.206   0.051
    1UNL    H12   37   0.003   0.295   0.098
    1UNL    H13   38   0.251   0.398   0.199
    1UNL    H14   39   0.484   0.305   0.261
    1UNL    H15   40   0.552   0.087   0.192
    1UNL    H16   41   0.387  -0.077   0.101
    1UNL    H17   42   0.200  -0.361  -0.096
    1UNL    H18   43   0.187  -0.311  -0.273
    1UNL    H19   44   0.043  -0.365  -0.191
    1UNL    H20   45   0.083   0.035  -0.233
    1UNL    H21   46   0.056  -0.109  -0.333
    1UNL    H22   47  -0.185  -0.016  -0.266
    1UNL    H23   48  -0.148  -0.189  -0.240
    1UNL    H24   49  -0.257  -0.114  -0.031
   0.00000   0.00000   0.00000   0.00000   0.00000   0.00000   0.00000   0.00000   0.00000
Generated with MDTraj, t= 39.0
 49
    1UNL     C1    1  -0.184   0.285  -0.276
    1UNL     O1    2  -0.136   0.177  -0.210
    1UNL     C2    3  -0.195   0.161  -0.086
    1UNL     O2    4  -0.283   0.232  -0.045
    1UNL     C3    5  -0.138   0.065   0.009
    1UNL     C4    6  -0.225   0.053   0.141
    1UNL     O3    7  -0.197  -0.055   0.228
    1UNL     C5    8  -0.232  -0.195   0.202
    1UNL     C6    9  -0.118  -0.269   0.127
    1UNL     C7   10  -0.055  -0.161   0.039
    1UNL     C8   11   0.098  -0.137   0.002
    1UNL     C9   12   0.114   0.012   0.030
    1UNL    C10   13   0.007   0.100   0.045
    1UNL     N1   14   0.050   0.217   0.104
    1UNL    C11   15   0.184   0.201   0.128
    1UNL    C12   16   0.277   0.288   0.184
    1UNL    C13   17   0.409   0.243   0.207
    1UNL    C14   18   0.440   0.114   0.177
    1UNL    C15   19   0.354   0.028   0.113
    1UNL    C16   20   0.226   0.075   0.083
    1UNL     N2   21   0.120  -0.180  -0.148
    1UNL    C17   22   0.112  -0.325  -0.176
    1UNL    C18   23   0.035  -0.087  -0.231
    1UNL    C19   24  -0.110  -0.091  -0.198
    1UNL    C20   25  -0.147  -0.083  -0.047
    1UNL     H1   26  -0.268   0.257  -0.339
    1UNL     H2   27  -0.100   0.313  -0.341
    1UNL     H3   28  -0.214   0.346  -0.190
    1UNL     H4   29  -0.331   0.037   0.115
    1UNL     H5   30  -0.223   0.146   0.210
    1UNL     H6   31  -0.250  -0.244   0.303
    1UNL     H7   32  -0.325  -0.191   0.144
    1UNL     H8   33  -0.042  -0.318   0.194
    1UNL     H9   34  -0.160  -0.353   0.063
    1UNL    H10   35  -0.034  -0.095   0.137
    1UNL    H11   36   0.168  -0.189   0.067
    1UNL    H12   37  -0.009   0.297   0.128
    1UNL    H13   38   0.260   0.387   0.210
    1UNL    H14   39   0.483   0.310   0.246
    1UNL    H15   40   0.538   0.067   0.188
    1UNL    H16   41   0.379  -0.077   0.108
    1UNL    H17   42   0.208  -0.373  -0.145
    1UNL    H18   43   0.095  -0.339  -0.287
    1UNL    H19   44   0.025  -0.375  -0.129
    1UNL    H20   45   0.086   0.020  -0.239
    1UNL    H21   46   0.057  -0.113  -0.339
    1UNL    H22   47  -0.171  -0.005  -0.246
    1UNL    H23   48  -0.162  -0.179  -0.250
    1UNL    H24   49  -0.249  -0.119  -0.039
   0.00000   0.00000   0.00000   0.00000   0.00000   0.00000   0.00000   0.00000   0.00000
Generated with MDTraj, t= 40.0
 49
    1UNL     C1    1  -0.165   0.301  -0.265
    1UNL     O1    2  -0.117   0.190  -0.185
    1UNL     C2    3  -0.195   0.175  -0.077
    1UNL     O2    4  -0.296   0.233  -0.044
    1UNL     C3    5  -0.134   0.062   0.012
    1UNL     C4    6  -0.230   0.049   0.136
    1UNL     O3    7  -0.204  -0.061   0.229
    1UNL     C5    8  -0.248  -0.196   0.196
    1UNL     C6    9  -0.139  -0.281   0.107
    1UNL     C7   10  -0.057  -0.166   0.044
    1UNL     C8   11   0.090  -0.148   0.013
    1UNL     C9   12   0.115  -0.001   0.037
    1UNL    C10   13   0.011   0.092   0.043
    1UNL     N1   14   0.049   0.209   0.093
    1UNL    C11   15   0.186   0.206   0.122
    1UNL    C12   16   0.275   0.296   0.182
    1UNL    C13   17   0.403   0.255   0.201
    1UNL    C14   18   0.447   0.131   0.156
    1UNL    C15   19   0.367   0.043   0.088
    1UNL    C16   20   0.231   0.078   0.074
    1UNL     N2   21   0.113  -0.187  -0.130
    1UNL    C17   22   0.126  -0.329  -0.168
    1UNL    C18   23   0.036  -0.097  -0.222
    1UNL    C19   24  -0.112  -0.107  -0.203
    1UNL    C20   25  -0.144  -0.081  -0.048
    1UNL     H1   26  -0.273   0.311  -0.257
    1UNL     H2   27  -0.140   0.288  -0.373
    1UNL     H3   28  -0.127   0.384  -0.204
    1UNL     H4   29  -0.333   0.046   0.098
    1UNL     H5   30  -0.226   0.145   0.201
    1UNL     H6   31  -0.264  -0.252   0.294
    1UNL     H7   32  -0.348  -0.185   0.151
    1UNL     H8   33  -0.077  -0.343   0.178
    1UNL     H9   34  -0.193  -0.349   0.034
    1UNL    H10   35  -0.045  -0.114   0.147
    1UNL    H11   36   0.151  -0.207   0.082
    1UNL    H12   37  -0.009   0.292   0.110
    1UNL    H13   38   0.244   0.387   0.236
    1UNL    H14   39   0.474   0.314   0.258
    1UNL    H15   40   0.549   0.111   0.179
    1UNL    H16   41   0.401  -0.056   0.056
    1UNL    H17   42   0.182  -0.381  -0.089
    1UNL    H18   43   0.181  -0.334  -0.267
    1UNL    H19   44   0.022  -0.372  -0.187
    1UNL    H20   45   0.078   0.013  -0.212
    1UNL    H21   46   0.062  -0.110  -0.331
    1UNL    H22   47  -0.162  -0.033  -0.276
    1UNL    H23   48  -0.158  -0.210  -0.226
    1UNL    H24   49  -0.248  -0.109  -0.047
   0.00000   0.00000   0.00000   0.00000   0.00000   0.00000   0.00000   0.00000   0.00000
Generated with MDTraj, t= 41.0
 49
    1UNL     C1    1  -0.166   0.311  -0.248
    1UNL     O1    2  -0.105   0.212  -0.167
    1UNL     C2    3  -0.196   0.169  -0.072
    1UNL     O2    4  -0.310   0.209  -0.054
    1UNL     C3    5  -0.144   0.056   0.008
    1UNL     C4    6  -0.231   0.050   0.135
    1UNL     O3    7  -0.219  -0.074   0.221
    1UNL     C5    8  -0.258  -0.200   0.171
    1UNL     C6    9  -0.143  -0.276   0.109
    1UNL     C7   10  -0.060  -0.165   0.052
    1UNL     C8   11   0.091  -0.144   0.022
    1UNL     C9   12   0.105  -0.001   0.056
    1UNL    C10   13  -0.004   0.085   0.052
    1UNL     N1   14   0.051   0.206   0.092
    1UNL    C11   15   0.187   0.203   0.120
    1UNL    C12   16   0.286   0.299   0.144
    1UNL    C13   17   0.413   0.255   0.156
    1UNL    C14   18   0.456   0.125   0.130
    1UNL    C15   19   0.369   0.030   0.109
    1UNL    C16   20   0.226   0.065   0.103
    1UNL     N2   21   0.125  -0.174  -0.119
    1UNL    C17   22   0.123  -0.314  -0.158
    1UNL    C18   23   0.055  -0.078  -0.204
    1UNL    C19   24  -0.097  -0.104  -0.204
    1UNL    C20   25  -0.149  -0.088  -0.054
    1UNL     H1   26  -0.268   0.283  -0.277
    1UNL     H2   27  -0.104   0.318  -0.339
    1UNL     H3   28  -0.155   0.404  -0.191
    1UNL     H4   29  -0.337   0.070   0.116
    1UNL     H5   30  -0.199   0.139   0.201
    1UNL     H6   31  -0.295  -0.257   0.263
    1UNL     H7   32  -0.345  -0.197   0.102
    1UNL     H8   33  -0.099  -0.336   0.196
    1UNL     H9   34  -0.179  -0.349   0.031
    1UNL    H10   35  -0.048  -0.109   0.144
    1UNL    H11   36   0.157  -0.202   0.087
    1UNL    H12   37  -0.004   0.293   0.093
    1UNL    H13   38   0.252   0.399   0.161
    1UNL    H14   39   0.486   0.327   0.194
    1UNL    H15   40   0.564   0.113   0.131
    1UNL    H16   41   0.394  -0.062   0.063
    1UNL    H17   42   0.172  -0.367  -0.073
    1UNL    H18   43   0.184  -0.322  -0.252
    1UNL    H19   44   0.018  -0.350  -0.182
    1UNL    H20   45   0.063   0.034  -0.174
    1UNL    H21   46   0.098  -0.079  -0.307
    1UNL    H22   47  -0.142  -0.026  -0.275
    1UNL    H23   48  -0.108  -0.207  -0.253
    1UNL    H24   49  -0.250  -0.115  -0.071
   0.00000   0.00000   0.00000   0.00000   0.00000   0.00000   0.00000   0.00000   0.00000
Generated with MDTraj, t= 42.0
 49
    1UNL     C1    1  -0.153   0.314  -0.228
    1UNL     O1    2  -0.103   0.224  -0.141
    1UNL     C2    3  -0.206   0.168  -0.069
    1UNL     O2    4  -0.327   0.180  -0.078
    1UNL     C3    5  -0.143   0.060   0.026
    1UNL     C4    6  -0.244   0.036   0.141
    1UNL     O3    7  -0.242  -0.080   0.228
    1UNL     C5    8  -0.272  -0.211   0.169
    1UNL     C6    9  -0.150  -0.286   0.091
    1UNL     C7   10  -0.076  -0.168   0.037
    1UNL     C8   11   0.079  -0.146   0.038
    1UNL     C9   12   0.105  -0.005   0.073
    1UNL    C10   13   0.001   0.087   0.071
    1UNL     N1   14   0.054   0.213   0.087
    1UNL    C11   15   0.196   0.203   0.102
    1UNL    C12   16   0.298   0.298   0.104
    1UNL    C13   17   0.422   0.257   0.109
    1UNL    C14   18   0.450   0.120   0.128
    1UNL    C15   19   0.356   0.026   0.107
    1UNL    C16   20   0.225   0.067   0.093
    1UNL     N2   21   0.134  -0.175  -0.098
    1UNL    C17   22   0.137  -0.316  -0.147
    1UNL    C18   23   0.082  -0.069  -0.192
    1UNL    C19   24  -0.073  -0.064  -0.193
    1UNL    C20   25  -0.142  -0.070  -0.056
    1UNL     H1   26  -0.152   0.263  -0.328
    1UNL     H2   27  -0.088   0.405  -0.220
    1UNL     H3   28  -0.246   0.359  -0.191
    1UNL     H4   29  -0.345   0.039   0.103
    1UNL     H5   30  -0.237   0.125   0.212
    1UNL     H6   31  -0.322  -0.285   0.239
    1UNL     H7   32  -0.353  -0.198   0.096
    1UNL     H8   33  -0.095  -0.361   0.159
    1UNL     H9   34  -0.172  -0.341  -0.005
    1UNL    H10   35  -0.076  -0.119   0.133
    1UNL    H11   36   0.122  -0.219   0.107
    1UNL    H12   37   0.004   0.302   0.070
    1UNL    H13   38   0.275   0.401   0.099
    1UNL    H14   39   0.502   0.326   0.120
    1UNL    H15   40   0.550   0.083   0.137
    1UNL    H16   41   0.384  -0.081   0.085
    1UNL    H17   42   0.240  -0.351  -0.123
    1UNL    H18   43   0.108  -0.329  -0.256
    1UNL    H19   44   0.064  -0.375  -0.085
    1UNL    H20   45   0.117   0.034  -0.161
    1UNL    H21   46   0.117  -0.074  -0.300
    1UNL    H22   47  -0.090   0.035  -0.248
    1UNL    H23   48  -0.108  -0.143  -0.269
    1UNL    H24   49  -0.241  -0.097  -0.075
   0.00000   0.00000   0.00000   0.00000   0.00000   0.00000   0.00000   0.00000   0.00000
Generated with MDTraj, t= 43.0
 49
    1UNL     C1    1  -0.174   0.352  -0.201
    1UNL     O1    2  -0.096   0.265  -0.125
    1UNL     C2    3  -0.183   0.169  -0.077
    1UNL     O2    4  -0.304   0.163  -0.095
    1UNL     C3    5  -0.139   0.059   0.026
    1UNL     C4    6  -0.243   0.042   0.138
    1UNL     O3    7  -0.260  -0.085   0.206
    1UNL     C5    8  -0.290  -0.224   0.151
    1UNL     C6    9  -0.168  -0.285   0.091
    1UNL     C7   10  -0.074  -0.170   0.053
    1UNL     C8   11   0.079  -0.155   0.047
    1UNL     C9   12   0.105  -0.007   0.086
    1UNL    C10   13   0.000   0.085   0.078
    1UNL     N1   14   0.054   0.214   0.091
    1UNL    C11   15   0.192   0.199   0.102
    1UNL    C12   16   0.287   0.299   0.096
    1UNL    C13   17   0.426   0.264   0.095
    1UNL    C14   18   0.461   0.132   0.094
    1UNL    C15   19   0.367   0.028   0.097
    1UNL    C16   20   0.232   0.064   0.096
    1UNL     N2   21   0.135  -0.179  -0.086
    1UNL    C17   22   0.144  -0.319  -0.136
    1UNL    C18   23   0.078  -0.081  -0.180
    1UNL    C19   24  -0.074  -0.092  -0.191
    1UNL    C20   25  -0.143  -0.076  -0.056
    1UNL     H1   26  -0.168   0.308  -0.302
    1UNL     H2   27  -0.145   0.458  -0.189
    1UNL     H3   28  -0.275   0.362  -0.162
    1UNL     H4   29  -0.342   0.063   0.102
    1UNL     H5   30  -0.221   0.123   0.215
    1UNL     H6   31  -0.334  -0.295   0.226
    1UNL     H7   32  -0.368  -0.228   0.073
    1UNL     H8   33  -0.111  -0.350   0.166
    1UNL     H9   34  -0.188  -0.362   0.010
    1UNL    H10   35  -0.086  -0.122   0.151
    1UNL    H11   36   0.143  -0.214   0.113
    1UNL    H12   37  -0.004   0.296   0.063
    1UNL    H13   38   0.256   0.406   0.104
    1UNL    H14   39   0.507   0.337   0.090
    1UNL    H15   40   0.566   0.106   0.094
    1UNL    H16   41   0.393  -0.070   0.096
    1UNL    H17   42   0.153  -0.390  -0.047
    1UNL    H18   43   0.230  -0.332  -0.207
    1UNL    H19   44   0.053  -0.345  -0.193
    1UNL    H20   45   0.109   0.025  -0.160
    1UNL    H21   46   0.135  -0.096  -0.279
    1UNL    H22   47  -0.119  -0.025  -0.273
    1UNL    H23   48  -0.092  -0.196  -0.240
    1UNL    H24   49  -0.245  -0.092  -0.066
   0.00000   0.00000   0.00000   0.00000   0.00000   0.00000   0.00000   0.00000   0.00000
Generated with MDTraj, t= 44.0
 49
    1UNL     C1    1  -0.166   0.370  -0.176
    1UNL     O1    2  -0.122   0.285  -0.074
    1UNL     C2    3  -0.191   0.166  -0.073
    1UNL     O2    4  -0.288   0.140  -0.141
    1UNL     C3    5  -0.147   0.057   0.015
    1UNL     C4    6  -0.247   0.041   0.135
    1UNL     O3    7  -0.246  -0.082   0.219
    1UNL     C5    8  -0.278  -0.210   0.162
    1UNL     C6    9  -0.153  -0.282   0.101
    1UNL     C7   10  -0.072  -0.168   0.046
    1UNL     C8   11   0.086  -0.152   0.045
    1UNL     C9   12   0.096  -0.002   0.068
    1UNL    C10   13  -0.004   0.095   0.065
    1UNL     N1   14   0.053   0.216   0.096
    1UNL    C11   15   0.188   0.209   0.095
    1UNL    C12   16   0.287   0.305   0.109
    1UNL    C13   17   0.416   0.256   0.109
    1UNL    C14   18   0.448   0.118   0.082
    1UNL    C15   19   0.346   0.023   0.077
    1UNL    C16   20   0.218   0.071   0.079
    1UNL     N2   21   0.140  -0.192  -0.088
    1UNL    C17   22   0.135  -0.336  -0.110
    1UNL    C18   23   0.094  -0.101  -0.196
    1UNL    C19   24  -0.057  -0.083  -0.203
    1UNL    C20   25  -0.136  -0.082  -0.063
    1UNL     H1   26  -0.240   0.311  -0.230
    1UNL     H2   27  -0.080   0.392  -0.239
    1UNL     H3   28  -0.200   0.465  -0.139
    1UNL     H4   29  -0.347   0.059   0.107
    1UNL     H5   30  -0.230   0.123   0.209
    1UNL     H6   31  -0.323  -0.280   0.237
    1UNL     H7   32  -0.357  -0.197   0.088
    1UNL     H8   33  -0.083  -0.336   0.174
    1UNL     H9   34  -0.164  -0.363   0.021
    1UNL    H10   35  -0.090  -0.102   0.140
    1UNL    H11   36   0.137  -0.214   0.119
    1UNL    H12   37   0.002   0.304   0.090
    1UNL    H13   38   0.268   0.403   0.139
    1UNL    H14   39   0.496   0.325   0.133
    1UNL    H15   40   0.549   0.078   0.070
    1UNL    H16   41   0.365  -0.088   0.086
    1UNL    H17   42   0.164  -0.400  -0.019
    1UNL    H18   43   0.195  -0.364  -0.200
    1UNL    H19   44   0.032  -0.361  -0.136
    1UNL    H20   45   0.157  -0.009  -0.195
    1UNL    H21   46   0.134  -0.134  -0.299
    1UNL    H22   47  -0.092   0.011  -0.259
    1UNL    H23   48  -0.103  -0.167  -0.269
    1UNL    H24   49  -0.234  -0.114  -0.077
   0.00000   0.00000   0.00000   0.00000   0.00000   0.00000   0.00000   0.00000   0.00000
Generated with MDTraj, t= 45.0
 49
    1UNL     C1    1  -0.219   0.367  -0.153
    1UNL     O1    2  -0.157   0.284  -0.058
    1UNL     C2    3  -0.180   0.157  -0.089
    1UNL     O2    4  -0.238   0.119  -0.189
    1UNL     C3    5  -0.126   0.052   0.009
    1UNL     C4    6  -0.240   0.051   0.123
    1UNL     O3    7  -0.253  -0.063   0.214
    1UNL     C5    8  -0.284  -0.185   0.165
    1UNL     C6    9  -0.156  -0.274   0.116
    1UNL     C7   10  -0.068  -0.162   0.057
    1UNL     C8   11   0.087  -0.157   0.038
    1UNL     C9   12   0.116  -0.007   0.073
    1UNL    C10   13   0.016   0.086   0.060
    1UNL     N1   14   0.062   0.212   0.078
    1UNL    C11   15   0.192   0.204   0.112
    1UNL    C12   16   0.292   0.300   0.134
    1UNL    C13   17   0.426   0.268   0.120
    1UNL    C14   18   0.471   0.132   0.109
    1UNL    C15   19   0.376   0.035   0.094
    1UNL    C16   20   0.237   0.071   0.090
    1UNL     N2   21   0.126  -0.194  -0.110
    1UNL    C17   22   0.112  -0.341  -0.139
    1UNL    C18   23   0.063  -0.100  -0.206
    1UNL    C19   24  -0.086  -0.107  -0.196
    1UNL    C20   25  -0.138  -0.087  -0.051
    1UNL     H1   26  -0.320   0.388  -0.115
    1UNL     H2   27  -0.218   0.309  -0.246
    1UNL     H3   28  -0.165   0.459  -0.169
    1UNL     H4   29  -0.333   0.070   0.078
    1UNL     H5   30  -0.222   0.133   0.194
    1UNL     H6   31  -0.329  -0.233   0.254
    1UNL     H7   32  -0.358  -0.166   0.085
    1UNL     H8   33  -0.099  -0.338   0.193
    1UNL     H9   34  -0.191  -0.347   0.035
    1UNL    H10   35  -0.068  -0.087   0.147
    1UNL    H11   36   0.134  -0.222   0.110
    1UNL    H12   37   0.011   0.297   0.059
    1UNL    H13   38   0.254   0.404   0.132
    1UNL    H14   39   0.497   0.349   0.118
    1UNL    H15   40   0.572   0.104   0.095
    1UNL    H16   41   0.391  -0.072   0.083
    1UNL    H17   42   0.188  -0.409  -0.091
    1UNL    H18   43   0.120  -0.353  -0.249
    1UNL    H19   44   0.012  -0.384  -0.115
    1UNL    H20   45   0.100   0.004  -0.206
    1UNL    H21   46   0.102  -0.125  -0.312
    1UNL    H22   47  -0.137  -0.031  -0.266
    1UNL    H23   48  -0.123  -0.211  -0.229
    1UNL    H24   49  -0.239  -0.115  -0.053
   0.00000   0.00000   0.00000   0.00000   0.00000   0.00000   0.00000   0.00000   0.00000
Generated with MDTraj, t= 46.0
 49
    1UNL     C1    1  -0.248   0.381  -0.131
    1UNL     O1    2  -0.200   0.288  -0.040
    1UNL     C2    3  -0.192   0.165  -0.098
    1UNL     O2    4  -0.206   0.154  -0.218
    1UNL     C3    5  -0.143   0.058  -0.005
    1UNL     C4    6  -0.240   0.054   0.122
    1UNL     O3    7  -0.197  -0.044   0.225
    1UNL     C5    8  -0.240  -0.182   0.204
    1UNL     C6    9  -0.148  -0.269   0.121
    1UNL     C7   10  -0.063  -0.163   0.052
    1UNL     C8   11   0.091  -0.158   0.032
    1UNL     C9   12   0.107  -0.008   0.043
    1UNL    C10   13   0.005   0.091   0.026
    1UNL     N1   14   0.065   0.216   0.042
    1UNL    C11   15   0.196   0.198   0.080
    1UNL    C12   16   0.293   0.297   0.119
    1UNL    C13   17   0.413   0.252   0.168
    1UNL    C14   18   0.450   0.110   0.148
    1UNL    C15   19   0.358   0.012   0.116
    1UNL    C16   20   0.228   0.059   0.081
    1UNL     N2   21   0.126  -0.198  -0.109
    1UNL    C17   22   0.134  -0.345  -0.130
    1UNL    C18   23   0.064  -0.115  -0.207
    1UNL    C19   24  -0.098  -0.122  -0.202
    1UNL    C20   25  -0.149  -0.088  -0.058
    1UNL     H1   26  -0.335   0.432  -0.085
    1UNL     H2   27  -0.265   0.336  -0.231
    1UNL     H3   28  -0.184   0.468  -0.146
    1UNL     H4   29  -0.340   0.036   0.099
    1UNL     H5   30  -0.235   0.154   0.167
    1UNL     H6   31  -0.243  -0.223   0.306
    1UNL     H7   32  -0.337  -0.169   0.152
    1UNL     H8   33  -0.080  -0.320   0.198
    1UNL     H9   34  -0.214  -0.347   0.069
    1UNL    H10   35  -0.054  -0.091   0.136
    1UNL    H11   36   0.140  -0.217   0.110
    1UNL    H12   37   0.009   0.301   0.033
    1UNL    H13   38   0.267   0.400   0.108
    1UNL    H14   39   0.492   0.318   0.203
    1UNL    H15   40   0.557   0.090   0.157
    1UNL    H16   41   0.379  -0.084   0.079
    1UNL    H17   42   0.195  -0.394  -0.051
    1UNL    H18   43   0.185  -0.357  -0.229
    1UNL    H19   44   0.036  -0.400  -0.140
    1UNL    H20   45   0.102  -0.014  -0.196
    1UNL    H21   46   0.103  -0.139  -0.313
    1UNL    H22   47  -0.145  -0.056  -0.285
    1UNL    H23   48  -0.118  -0.234  -0.222
    1UNL    H24   49  -0.250  -0.119  -0.063
   0.00000   0.00000   0.00000   0.00000   0.00000   0.00000   0.00000   0.00000   0.00000
Generated with MDTraj, t= 47.0
 49
    1UNL     C1    1  -0.265   0.369  -0.120
    1UNL     O1    2  -0.242   0.269  -0.032
    1UNL     C2    3  -0.195   0.161  -0.102
    1UNL     O2    4  -0.193   0.157  -0.223
    1UNL     C3    5  -0.134   0.060  -0.004
    1UNL     C4    6  -0.211   0.071   0.134
    1UNL     O3    7  -0.183  -0.030   0.224
    1UNL     C5    8  -0.249  -0.161   0.195
    1UNL     C6    9  -0.137  -0.254   0.128
    1UNL     C7   10  -0.057  -0.159   0.043
    1UNL     C8   11   0.098  -0.157   0.013
    1UNL     C9   12   0.118  -0.007   0.022
    1UNL    C10   13   0.017   0.088   0.013
    1UNL     N1   14   0.065   0.218   0.047
    1UNL    C11   15   0.200   0.198   0.079
    1UNL    C12   16   0.294   0.289   0.119
    1UNL    C13   17   0.412   0.249   0.174
    1UNL    C14   18   0.441   0.109   0.190
    1UNL    C15   19   0.354   0.023   0.124
    1UNL    C16   20   0.232   0.063   0.072
    1UNL     N2   21   0.127  -0.210  -0.123
    1UNL    C17   22   0.130  -0.364  -0.133
    1UNL    C18   23   0.049  -0.133  -0.222
    1UNL    C19   24  -0.106  -0.118  -0.196
    1UNL    C20   25  -0.142  -0.083  -0.056
    1UNL     H1   26  -0.314   0.454  -0.069
    1UNL     H2   27  -0.319   0.332  -0.209
    1UNL     H3   28  -0.179   0.425  -0.161
    1UNL     H4   29  -0.314   0.072   0.111
    1UNL     H5   30  -0.193   0.165   0.188
    1UNL     H6   31  -0.286  -0.198   0.291
    1UNL     H7   32  -0.327  -0.137   0.121
    1UNL     H8   33  -0.086  -0.316   0.211
    1UNL     H9   34  -0.191  -0.321   0.054
    1UNL    H10   35  -0.042  -0.087   0.123
    1UNL    H11   36   0.145  -0.216   0.092
    1UNL    H12   37   0.003   0.297   0.063
    1UNL    H13   38   0.260   0.392   0.131
    1UNL    H14   39   0.468   0.316   0.235
    1UNL    H15   40   0.526   0.064   0.236
    1UNL    H16   41   0.384  -0.087   0.118
    1UNL    H17   42   0.202  -0.406  -0.061
    1UNL    H18   43   0.150  -0.398  -0.238
    1UNL    H19   44   0.028  -0.403  -0.103
    1UNL    H20   45   0.085  -0.032  -0.229
    1UNL    H21   46   0.071  -0.168  -0.329
    1UNL    H22   47  -0.138  -0.040  -0.276
    1UNL    H23   48  -0.153  -0.223  -0.215
    1UNL    H24   49  -0.242  -0.119  -0.050
   0.00000   0.00000   0.00000   0.00000   0.00000   0.00000   0.00000   0.00000   0.00000
Generated with MDTraj, t= 48.0
 49
    1UNL     C1    1  -0.310   0.336  -0.153
    1UNL     O1    2  -0.230   0.274  -0.058
    1UNL     C2    3  -0.171   0.162  -0.106
    1UNL     O2    4  -0.168   0.144  -0.225
    1UNL     C3    5  -0.123   0.063   0.004
    1UNL     C4    6  -0.217   0.067   0.127
    1UNL     O3    7  -0.206  -0.035   0.228
    1UNL     C5    8  -0.243  -0.177   0.194
    1UNL     C6    9  -0.132  -0.261   0.128
    1UNL     C7   10  -0.056  -0.156   0.056
    1UNL     C8   11   0.091  -0.152   0.014
    1UNL     C9   12   0.126  -0.007   0.029
    1UNL    C10   13   0.024   0.088   0.032
    1UNL     N1   14   0.073   0.214   0.065
    1UNL    C11   15   0.207   0.195   0.094
    1UNL    C12   16   0.297   0.293   0.145
    1UNL    C13   17   0.422   0.246   0.183
    1UNL    C14   18   0.456   0.114   0.171
    1UNL    C15   19   0.372   0.021   0.108
    1UNL    C16   20   0.247   0.062   0.069
    1UNL     N2   21   0.108  -0.193  -0.124
    1UNL    C17   22   0.086  -0.345  -0.138
    1UNL    C18   23   0.038  -0.109  -0.221
    1UNL    C19   24  -0.110  -0.110  -0.192
    1UNL    C20   25  -0.146  -0.084  -0.048
    1UNL     H1   26  -0.302   0.445  -0.142
    1UNL     H2   27  -0.412   0.297  -0.149
    1UNL     H3   28  -0.284   0.328  -0.258
    1UNL     H4   29  -0.319   0.069   0.100
    1UNL     H5   30  -0.198   0.168   0.169
    1UNL     H6   31  -0.266  -0.211   0.295
    1UNL     H7   32  -0.330  -0.180   0.128
    1UNL     H8   33  -0.076  -0.317   0.212
    1UNL     H9   34  -0.172  -0.342   0.059
    1UNL    H10   35  -0.050  -0.087   0.139
    1UNL    H11   36   0.160  -0.215   0.072
    1UNL    H12   37   0.026   0.303   0.058
    1UNL    H13   38   0.252   0.382   0.189
    1UNL    H14   39   0.486   0.312   0.243
    1UNL    H15   40   0.554   0.077   0.205
    1UNL    H16   41   0.401  -0.076   0.093
    1UNL    H17   42   0.151  -0.397  -0.066
    1UNL    H18   43   0.098  -0.382  -0.243
    1UNL    H19   44  -0.019  -0.364  -0.105
    1UNL    H20   45   0.072  -0.008  -0.213
    1UNL    H21   46   0.070  -0.126  -0.328
    1UNL    H22   47  -0.159  -0.027  -0.257
    1UNL    H23   48  -0.144  -0.213  -0.235
    1UNL    H24   49  -0.248  -0.110  -0.040
   0.00000   0.00000   0.00000   0.00000   0.00000   0.00000   0.00000   0.00000   0.00000
Generated with MDTraj, t= 49.0
 49
    1UNL     C1    1  -0.299   0.352  -0.163
    1UNL     O1    2  -0.276   0.256  -0.065
    1UNL     C2    3  -0.180   0.165  -0.105
    1UNL     O2    4  -0.153   0.157  -0.222
    1UNL     C3    5  -0.131   0.066  -0.001
    1UNL     C4    6  -0.213   0.079   0.126
    1UNL     O3    7  -0.210  -0.033   0.227
    1UNL     C5    8  -0.249  -0.171   0.210
    1UNL     C6    9  -0.144  -0.256   0.136
    1UNL     C7   10  -0.063  -0.159   0.056
    1UNL     C8   11   0.087  -0.150   0.022
    1UNL     C9   12   0.118  -0.008   0.039
    1UNL    C10   13   0.018   0.091   0.031
    1UNL     N1   14   0.066   0.212   0.076
    1UNL    C11   15   0.199   0.191   0.115
    1UNL    C12   16   0.300   0.279   0.159
    1UNL    C13   17   0.428   0.233   0.165
    1UNL    C14   18   0.462   0.107   0.118
    1UNL    C15   19   0.371   0.007   0.096
    1UNL    C16   20   0.239   0.055   0.082
    1UNL     N2   21   0.115  -0.193  -0.112
    1UNL    C17   22   0.130  -0.339  -0.135
    1UNL    C18   23   0.054  -0.108  -0.216
    1UNL    C19   24  -0.100  -0.105  -0.203
    1UNL    C20   25  -0.146  -0.082  -0.051
    1UNL     H1   26  -0.363   0.435  -0.134
    1UNL     H2   27  -0.338   0.313  -0.258
    1UNL     H3   28  -0.209   0.404  -0.190
    1UNL     H4   29  -0.314   0.093   0.094
    1UNL     H5   30  -0.187   0.167   0.190
    1UNL     H6   31  -0.254  -0.217   0.308
    1UNL     H7   32  -0.351  -0.169   0.167
    1UNL     H8   33  -0.066  -0.302   0.209
    1UNL     H9   34  -0.167  -0.353   0.076
    1UNL    H10   35  -0.056  -0.085   0.142
    1UNL    H11   36   0.142  -0.220   0.085
    1UNL    H12   37   0.011   0.292   0.101
    1UNL    H13   38   0.271   0.377   0.191
    1UNL    H14   39   0.505   0.302   0.195
    1UNL    H15   40   0.566   0.092   0.097
    1UNL    H16   41   0.404  -0.094   0.060
    1UNL    H17   42   0.201  -0.375  -0.056
    1UNL    H18   43   0.165  -0.361  -0.238
    1UNL    H19   44   0.032  -0.385  -0.117
    1UNL    H20   45   0.099  -0.013  -0.207
    1UNL    H21   46   0.098  -0.125  -0.318
    1UNL    H22   47  -0.140  -0.026  -0.277
    1UNL    H23   48  -0.144  -0.204  -0.244
    1UNL    H24   49  -0.245  -0.117  -0.035
   0.00000   0.00000   0.00000   0.00000   0.00000   0.00000   0.00000   0.00000   0.00000
Generated with MDTraj, t= 50.0
 49
    1UNL     C1    1  -0.294   0.349  -0.146
    1UNL     O1    2  -0.275   0.244  -0.056
    1UNL     C2    3  -0.169   0.172  -0.093
    1UNL     O2    4  -0.093   0.192  -0.184
    1UNL     C3    5  -0.130   0.067   0.008
    1UNL     C4    6  -0.228   0.075   0.133
    1UNL     O3    7  -0.236  -0.041   0.225
    1UNL     C5    8  -0.275  -0.169   0.193
    1UNL     C6    9  -0.164  -0.267   0.129
    1UNL     C7   10  -0.068  -0.164   0.058
    1UNL     C8   11   0.080  -0.158   0.029
    1UNL     C9   12   0.111  -0.004   0.049
    1UNL    C10   13   0.016   0.092   0.038
    1UNL     N1   14   0.069   0.215   0.071
    1UNL    C11   15   0.203   0.198   0.088
    1UNL    C12   16   0.306   0.285   0.117
    1UNL    C13   17   0.429   0.241   0.135
    1UNL    C14   18   0.454   0.106   0.131
    1UNL    C15   19   0.363   0.018   0.092
    1UNL    C16   20   0.233   0.063   0.061
    1UNL     N2   21   0.127  -0.197  -0.116
    1UNL    C17   22   0.162  -0.338  -0.140
    1UNL    C18   23   0.044  -0.125  -0.217
    1UNL    C19   24  -0.098  -0.127  -0.187
    1UNL    C20   25  -0.146  -0.081  -0.044
    1UNL     H1   26  -0.396   0.355  -0.186
    1UNL     H2   27  -0.238   0.337  -0.239
    1UNL     H3   28  -0.265   0.444  -0.105
    1UNL     H4   29  -0.331   0.082   0.103
    1UNL     H5   30  -0.210   0.171   0.188
    1UNL     H6   31  -0.319  -0.210   0.283
    1UNL     H7   32  -0.359  -0.154   0.123
    1UNL     H8   33  -0.102  -0.340   0.194
    1UNL     H9   34  -0.207  -0.345   0.057
    1UNL    H10   35  -0.068  -0.090   0.149
    1UNL    H11   36   0.139  -0.212   0.103
    1UNL    H12   37   0.022   0.304   0.083
    1UNL    H13   38   0.292   0.394   0.118
    1UNL    H14   39   0.507   0.306   0.172
    1UNL    H15   40   0.554   0.069   0.142
    1UNL    H16   41   0.381  -0.089   0.090
    1UNL    H17   42   0.221  -0.372  -0.052
    1UNL    H18   43   0.215  -0.352  -0.236
    1UNL    H19   44   0.070  -0.395  -0.140
    1UNL    H20   45   0.072  -0.025  -0.236
    1UNL    H21   46   0.078  -0.160  -0.317
    1UNL    H22   47  -0.145  -0.047  -0.255
    1UNL    H23   48  -0.140  -0.230  -0.219
    1UNL    H24   49  -0.252  -0.095  -0.040
   0.00000   0.00000   0.00000   0.00000   0.00000   0.00000   0.00000   0.00000   0.00000
Generated with MDTraj, t= 51.0
 49
    1UNL     C1    1  -0.302   0.332  -0.166
    1UNL     O1    2  -0.297   0.232  -0.073
    1UNL     C2    3  -0.173   0.175  -0.086
    1UNL     O2    4  -0.094   0.207  -0.173
    1UNL     C3    5  -0.140   0.063   0.011
    1UNL     C4    6  -0.242   0.058   0.137
    1UNL     O3    7  -0.230  -0.055   0.230
    1UNL     C5    8  -0.281  -0.187   0.187
    1UNL     C6    9  -0.176  -0.267   0.109
    1UNL     C7   10  -0.070  -0.166   0.052
    1UNL     C8   11   0.090  -0.155   0.034
    1UNL     C9   12   0.111  -0.009   0.076
    1UNL    C10   13   0.008   0.090   0.056
    1UNL     N1   14   0.071   0.213   0.071
    1UNL    C11   15   0.210   0.197   0.090
    1UNL    C12   16   0.316   0.289   0.080
    1UNL    C13   17   0.442   0.239   0.100
    1UNL    C14   18   0.471   0.104   0.120
    1UNL    C15   19   0.372   0.013   0.117
    1UNL    C16   20   0.237   0.060   0.091
    1UNL     N2   21   0.139  -0.194  -0.102
    1UNL    C17   22   0.107  -0.328  -0.136
    1UNL    C18   23   0.075  -0.094  -0.192
    1UNL    C19   24  -0.079  -0.091  -0.194
    1UNL    C20   25  -0.143  -0.078  -0.046
    1UNL     H1   26  -0.404   0.377  -0.171
    1UNL     H2   27  -0.295   0.287  -0.266
    1UNL     H3   28  -0.222   0.403  -0.146
    1UNL     H4   29  -0.347   0.070   0.108
    1UNL     H5   30  -0.222   0.146   0.205
    1UNL     H6   31  -0.314  -0.245   0.272
    1UNL     H7   32  -0.368  -0.180   0.119
    1UNL     H8   33  -0.116  -0.335   0.178
    1UNL     H9   34  -0.216  -0.338   0.028
    1UNL    H10   35  -0.066  -0.103   0.149
    1UNL    H11   36   0.139  -0.227   0.102
    1UNL    H12   37   0.034   0.289   0.014
    1UNL    H13   38   0.308   0.392   0.062
    1UNL    H14   39   0.532   0.300   0.102
    1UNL    H15   40   0.578   0.081   0.137
    1UNL    H16   41   0.396  -0.089   0.121
    1UNL    H17   42   0.177  -0.404  -0.094
    1UNL    H18   43   0.115  -0.327  -0.243
    1UNL    H19   44   0.007  -0.358  -0.107
    1UNL    H20   45   0.128  -0.003  -0.177
    1UNL    H21   46   0.108  -0.097  -0.298
    1UNL    H22   47  -0.113  -0.009  -0.267
    1UNL    H23   48  -0.118  -0.192  -0.233
    1UNL    H24   49  -0.246  -0.105  -0.050
   0.00000   0.00000   0.00000   0.00000   0.00000   0.00000   0.00000   0.00000   0.00000
Generated with MDTraj, t= 52.0
 49
    1UNL     C1    1  -0.342   0.301  -0.180
    1UNL     O1    2  -0.310   0.227  -0.068
    1UNL     C2    3  -0.177   0.186  -0.080
    1UNL     O2    4  -0.099   0.231  -0.164
    1UNL     C3    5  -0.128   0.075   0.020
    1UNL     C4    6  -0.237   0.053   0.136
    1UNL     O3    7  -0.252  -0.058   0.221
    1UNL     C5    8  -0.291  -0.182   0.160
    1UNL     C6    9  -0.168  -0.264   0.108
    1UNL     C7   10  -0.074  -0.158   0.058
    1UNL     C8   11   0.085  -0.154   0.054
    1UNL     C9   12   0.116  -0.008   0.077
    1UNL    C10   13   0.020   0.091   0.064
    1UNL     N1   14   0.082   0.211   0.069
    1UNL    C11   15   0.216   0.195   0.098
    1UNL    C12   16   0.319   0.288   0.093
    1UNL    C13   17   0.448   0.232   0.095
    1UNL    C14   18   0.473   0.094   0.088
    1UNL    C15   19   0.376   0.001   0.092
    1UNL    C16   20   0.244   0.052   0.100
    1UNL     N2   21   0.132  -0.193  -0.089
    1UNL    C17   22   0.104  -0.337  -0.115
    1UNL    C18   23   0.097  -0.087  -0.185
    1UNL    C19   24  -0.060  -0.078  -0.195
    1UNL    C20   25  -0.129  -0.065  -0.055
    1UNL     H1   26  -0.423   0.375  -0.156
    1UNL     H2   27  -0.402   0.233  -0.244
    1UNL     H3   28  -0.252   0.343  -0.226
    1UNL     H4   29  -0.338   0.074   0.098
    1UNL     H5   30  -0.216   0.139   0.207
    1UNL     H6   31  -0.341  -0.252   0.224
    1UNL     H7   32  -0.356  -0.164   0.071
    1UNL     H8   33  -0.126  -0.328   0.194
    1UNL     H9   34  -0.204  -0.332   0.023
    1UNL    H10   35  -0.079  -0.097   0.148
    1UNL    H11   36   0.129  -0.215   0.135
    1UNL    H12   37   0.034   0.301   0.066
    1UNL    H13   38   0.310   0.398   0.093
    1UNL    H14   39   0.531   0.298   0.094
    1UNL    H15   40   0.569   0.064   0.062
    1UNL    H16   41   0.397  -0.107   0.065
    1UNL    H17   42   0.120  -0.390  -0.021
    1UNL    H18   43   0.169  -0.379  -0.190
    1UNL    H19   44   0.002  -0.363  -0.142
    1UNL    H20   45   0.145   0.007  -0.188
    1UNL    H21   46   0.144  -0.124  -0.278
    1UNL    H22   47  -0.080   0.021  -0.248
    1UNL    H23   48  -0.097  -0.165  -0.260
    1UNL    H24   49  -0.232  -0.081  -0.076
   0.00000   0.00000   0.00000   0.00000   0.00000   0.00000   0.00000   0.00000   0.00000
Generated with MDTraj, t= 53.0
 49
    1UNL     C1    1  -0.343   0.300  -0.161
    1UNL     O1    2  -0.306   0.187  -0.087
    1UNL     C2    3  -0.171   0.184  -0.082
    1UNL     O2    4  -0.087   0.249  -0.145
    1UNL     C3    5  -0.120   0.074   0.019
    1UNL     C4    6  -0.224   0.064   0.133
    1UNL     O3    7  -0.248  -0.055   0.219
    1UNL     C5    8  -0.305  -0.172   0.152
    1UNL     C6    9  -0.174  -0.260   0.100
    1UNL     C7   10  -0.076  -0.155   0.060
    1UNL     C8   11   0.080  -0.153   0.047
    1UNL     C9   12   0.112  -0.008   0.068
    1UNL    C10   13   0.021   0.096   0.071
    1UNL     N1   14   0.077   0.218   0.079
    1UNL    C11   15   0.216   0.195   0.088
    1UNL    C12   16   0.322   0.280   0.103
    1UNL    C13   17   0.449   0.230   0.101
    1UNL    C14   18   0.471   0.095   0.090
    1UNL    C15   19   0.367   0.006   0.072
    1UNL    C16   20   0.237   0.056   0.078
    1UNL     N2   21   0.125  -0.197  -0.088
    1UNL    C17   22   0.137  -0.340  -0.090
    1UNL    C18   23   0.081  -0.106  -0.200
    1UNL    C19   24  -0.076  -0.072  -0.191
    1UNL    C20   25  -0.128  -0.063  -0.051
    1UNL     H1   26  -0.453   0.294  -0.179
    1UNL     H2   27  -0.297   0.288  -0.260
    1UNL     H3   28  -0.301   0.387  -0.112
    1UNL     H4   29  -0.319   0.106   0.093
    1UNL     H5   30  -0.189   0.143   0.204
    1UNL     H6   31  -0.363  -0.235   0.216
    1UNL     H7   32  -0.370  -0.148   0.064
    1UNL     H8   33  -0.145  -0.336   0.179
    1UNL     H9   34  -0.208  -0.314   0.006
    1UNL    H10   35  -0.078  -0.105   0.154
    1UNL    H11   36   0.135  -0.204   0.130
    1UNL    H12   37   0.035   0.308   0.051
    1UNL    H13   38   0.300   0.381   0.135
    1UNL    H14   39   0.530   0.299   0.132
    1UNL    H15   40   0.572   0.049   0.074
    1UNL    H16   41   0.372  -0.093   0.052
    1UNL    H17   42   0.204  -0.377  -0.016
    1UNL    H18   43   0.165  -0.372  -0.189
    1UNL    H19   44   0.043  -0.390  -0.067
    1UNL    H20   45   0.147  -0.025  -0.200
    1UNL    H21   46   0.097  -0.135  -0.305
    1UNL    H22   47  -0.089   0.024  -0.252
    1UNL    H23   48  -0.122  -0.164  -0.239
    1UNL    H24   49  -0.231  -0.086  -0.063
   0.00000   0.00000   0.00000   0.00000   0.00000   0.00000   0.00000   0.00000   0.00000
Generated with MDTraj, t= 54.0
 49
    1UNL     C1    1  -0.332   0.309  -0.195
    1UNL     O1    2  -0.303   0.196  -0.119
    1UNL     C2    3  -0.170   0.189  -0.082
    1UNL     O2    4  -0.094   0.278  -0.115
    1UNL     C3    5  -0.132   0.076   0.009
    1UNL     C4    6  -0.233   0.071   0.129
    1UNL     O3    7  -0.221  -0.049   0.225
    1UNL     C5    8  -0.268  -0.175   0.187
    1UNL     C6    9  -0.166  -0.264   0.128
    1UNL     C7   10  -0.072  -0.170   0.059
    1UNL     C8   11   0.094  -0.160   0.038
    1UNL     C9   12   0.107  -0.014   0.065
    1UNL    C10   13   0.009   0.089   0.065
    1UNL     N1   14   0.076   0.210   0.074
    1UNL    C11   15   0.211   0.190   0.090
    1UNL    C12   16   0.316   0.281   0.090
    1UNL    C13   17   0.448   0.235   0.102
    1UNL    C14   18   0.474   0.095   0.111
    1UNL    C15   19   0.369   0.005   0.107
    1UNL    C16   20   0.235   0.051   0.089
    1UNL     N2   21   0.128  -0.194  -0.099
    1UNL    C17   22   0.111  -0.332  -0.142
    1UNL    C18   23   0.067  -0.096  -0.189
    1UNL    C19   24  -0.083  -0.100  -0.189
    1UNL    C20   25  -0.137  -0.074  -0.050
    1UNL     H1   26  -0.396   0.269  -0.275
    1UNL     H2   27  -0.238   0.347  -0.235
    1UNL     H3   28  -0.376   0.381  -0.129
    1UNL     H4   29  -0.337   0.070   0.094
    1UNL     H5   30  -0.226   0.166   0.188
    1UNL     H6   31  -0.297  -0.220   0.280
    1UNL     H7   32  -0.358  -0.168   0.118
    1UNL     H8   33  -0.120  -0.331   0.209
    1UNL     H9   34  -0.212  -0.339   0.056
    1UNL    H10   35  -0.068  -0.104   0.149
    1UNL    H11   36   0.149  -0.221   0.114
    1UNL    H12   37   0.020   0.294   0.059
    1UNL    H13   38   0.288   0.384   0.103
    1UNL    H14   39   0.523   0.307   0.119
    1UNL    H15   40   0.572   0.065   0.132
    1UNL    H16   41   0.386  -0.106   0.100
    1UNL    H17   42   0.137  -0.408  -0.074
    1UNL    H18   43   0.159  -0.343  -0.239
    1UNL    H19   44   0.006  -0.346  -0.164
    1UNL    H20   45   0.104   0.002  -0.188
    1UNL    H21   46   0.110  -0.121  -0.288
    1UNL    H22   47  -0.122  -0.018  -0.259
    1UNL    H23   48  -0.108  -0.205  -0.224
    1UNL    H24   49  -0.239  -0.103  -0.062
   0.00000   0.00000   0.00000   0.00000   0.00000   0.00000   0.00000   0.00000   0.00000
Generated with MDTraj, t= 55.0
 49
    1UNL     C1    1  -0.334   0.256  -0.235
    1UNL     O1    2  -0.296   0.152  -0.143
    1UNL     C2    3  -0.177   0.181  -0.081
    1UNL     O2    4  -0.110   0.277  -0.110
    1UNL     C3    5  -0.124   0.076   0.023
    1UNL     C4    6  -0.221   0.075   0.150
    1UNL     O3    7  -0.207  -0.040   0.237
    1UNL     C5    8  -0.273  -0.166   0.202
    1UNL     C6    9  -0.167  -0.263   0.120
    1UNL     C7   10  -0.072  -0.163   0.049
    1UNL     C8   11   0.079  -0.152   0.024
    1UNL     C9   12   0.121  -0.005   0.051
    1UNL    C10   13   0.024   0.091   0.054
    1UNL     N1   14   0.086   0.212   0.081
    1UNL    C11   15   0.224   0.194   0.099
    1UNL    C12   16   0.329   0.285   0.119
    1UNL    C13   17   0.456   0.236   0.134
    1UNL    C14   18   0.478   0.090   0.130
    1UNL    C15   19   0.374   0.004   0.108
    1UNL    C16   20   0.248   0.058   0.084
    1UNL     N2   21   0.116  -0.185  -0.117
    1UNL    C17   22   0.090  -0.324  -0.160
    1UNL    C18   23   0.050  -0.093  -0.212
    1UNL    C19   24  -0.103  -0.076  -0.181
    1UNL    C20   25  -0.149  -0.066  -0.034
    1UNL     H1   26  -0.441   0.251  -0.258
    1UNL     H2   27  -0.268   0.237  -0.319
    1UNL     H3   28  -0.304   0.348  -0.190
    1UNL     H4   29  -0.325   0.099   0.123
    1UNL     H5   30  -0.189   0.155   0.222
    1UNL     H6   31  -0.317  -0.205   0.291
    1UNL     H7   32  -0.364  -0.130   0.141
    1UNL     H8   33  -0.105  -0.334   0.186
    1UNL     H9   34  -0.211  -0.349   0.058
    1UNL    H10   35  -0.066  -0.099   0.147
    1UNL    H11   36   0.137  -0.215   0.095
    1UNL    H12   37   0.043   0.302   0.062
    1UNL    H13   38   0.312   0.392   0.121
    1UNL    H14   39   0.542   0.294   0.171
    1UNL    H15   40   0.578   0.043   0.147
    1UNL    H16   41   0.381  -0.103   0.103
    1UNL    H17   42   0.160  -0.390  -0.115
    1UNL    H18   43   0.082  -0.338  -0.267
    1UNL    H19   44  -0.006  -0.348  -0.119
    1UNL    H20   45   0.107  -0.006  -0.209
    1UNL    H21   46   0.074  -0.115  -0.320
    1UNL    H22   47  -0.141   0.016  -0.236
    1UNL    H23   48  -0.157  -0.166  -0.219
    1UNL    H24   49  -0.255  -0.079  -0.022
   0.00000   0.00000   0.00000   0.00000   0.00000   0.00000   0.00000   0.00000   0.00000
Generated with MDTraj, t= 56.0
 49
    1UNL     C1    1  -0.332   0.220  -0.247
    1UNL     O1    2  -0.296   0.135  -0.144
    1UNL     C2    3  -0.186   0.183  -0.078
    1UNL     O2    4  -0.138   0.294  -0.089
    1UNL     C3    5  -0.125   0.075   0.014
    1UNL     C4    6  -0.205   0.077   0.153
    1UNL     O3    7  -0.206  -0.027   0.241
    1UNL     C5    8  -0.258  -0.156   0.202
    1UNL     C6    9  -0.161  -0.243   0.136
    1UNL     C7   10  -0.061  -0.151   0.055
    1UNL     C8   11   0.087  -0.138   0.012
    1UNL     C9   12   0.120   0.009   0.037
    1UNL    C10   13   0.023   0.109   0.040
    1UNL     N1   14   0.091   0.224   0.079
    1UNL    C11   15   0.222   0.193   0.103
    1UNL    C12   16   0.329   0.267   0.161
    1UNL    C13   17   0.454   0.214   0.174
    1UNL    C14   18   0.482   0.077   0.134
    1UNL    C15   19   0.378  -0.000   0.081
    1UNL    C16   20   0.247   0.060   0.065
    1UNL     N2   21   0.107  -0.182  -0.130
    1UNL    C17   22   0.089  -0.335  -0.143
    1UNL    C18   23   0.037  -0.101  -0.229
    1UNL    C19   24  -0.106  -0.076  -0.195
    1UNL    C20   25  -0.148  -0.066  -0.047
    1UNL     H1   26  -0.443   0.225  -0.240
    1UNL     H2   27  -0.291   0.169  -0.335
    1UNL     H3   28  -0.283   0.315  -0.232
    1UNL     H4   29  -0.313   0.090   0.138
    1UNL     H5   30  -0.178   0.169   0.209
    1UNL     H6   31  -0.299  -0.201   0.288
    1UNL     H7   32  -0.346  -0.134   0.129
    1UNL     H8   33  -0.097  -0.306   0.208
    1UNL     H9   34  -0.210  -0.333   0.084
    1UNL    H10   35  -0.042  -0.081   0.146
    1UNL    H11   36   0.139  -0.221   0.066
    1UNL    H12   37   0.047   0.315   0.084
    1UNL    H13   38   0.304   0.369   0.182
    1UNL    H14   39   0.536   0.275   0.205
    1UNL    H15   40   0.579   0.036   0.137
    1UNL    H16   41   0.388  -0.102   0.056
    1UNL    H17   42   0.143  -0.377  -0.060
    1UNL    H18   43   0.124  -0.376  -0.234
    1UNL    H19   44  -0.013  -0.358  -0.132
    1UNL    H20   45   0.097  -0.018  -0.254
    1UNL    H21   46   0.050  -0.152  -0.330
    1UNL    H22   47  -0.138   0.023  -0.241
    1UNL    H23   48  -0.171  -0.153  -0.242
    1UNL    H24   49  -0.251  -0.089  -0.037
   0.00000   0.00000   0.00000   0.00000   0.00000   0.00000   0.00000   0.00000   0.00000
Generated with MDTraj, t= 57.0
 49
    1UNL     C1    1  -0.340   0.261  -0.233
    1UNL     O1    2  -0.282   0.150  -0.165
    1UNL     C2    3  -0.182   0.190  -0.081
    1UNL     O2    4  -0.139   0.303  -0.071
    1UNL     C3    5  -0.127   0.070  -0.003
    1UNL     C4    6  -0.202   0.078   0.136
    1UNL     O3    7  -0.181  -0.018   0.237
    1UNL     C5    8  -0.242  -0.152   0.226
    1UNL     C6    9  -0.142  -0.244   0.147
    1UNL     C7   10  -0.059  -0.154   0.049
    1UNL     C8   11   0.094  -0.155   0.016
    1UNL     C9   12   0.118  -0.008   0.040
    1UNL    C10   13   0.027   0.096   0.020
    1UNL     N1   14   0.086   0.212   0.070
    1UNL    C11   15   0.217   0.192   0.106
    1UNL    C12   16   0.316   0.277   0.159
    1UNL    C13   17   0.439   0.219   0.179
    1UNL    C14   18   0.465   0.084   0.134
    1UNL    C15   19   0.365   0.000   0.092
    1UNL    C16   20   0.242   0.055   0.081
    1UNL     N2   21   0.110  -0.189  -0.128
    1UNL    C17   22   0.078  -0.337  -0.141
    1UNL    C18   23   0.038  -0.105  -0.230
    1UNL    C19   24  -0.116  -0.106  -0.202
    1UNL    C20   25  -0.145  -0.072  -0.054
    1UNL     H1   26  -0.420   0.213  -0.295
    1UNL     H2   27  -0.260   0.320  -0.282
    1UNL     H3   28  -0.394   0.318  -0.156
    1UNL     H4   29  -0.308   0.073   0.113
    1UNL     H5   30  -0.187   0.177   0.182
    1UNL     H6   31  -0.260  -0.187   0.323
    1UNL     H7   32  -0.342  -0.139   0.165
    1UNL     H8   33  -0.071  -0.290   0.224
    1UNL     H9   34  -0.177  -0.335   0.089
    1UNL    H10   35  -0.038  -0.080   0.130
    1UNL    H11   36   0.159  -0.230   0.067
    1UNL    H12   37   0.039   0.302   0.063
    1UNL    H13   38   0.286   0.381   0.179
    1UNL    H14   39   0.518   0.288   0.201
    1UNL    H15   40   0.570   0.054   0.133
    1UNL    H16   41   0.381  -0.108   0.067
    1UNL    H17   42   0.150  -0.396  -0.086
    1UNL    H18   43   0.092  -0.355  -0.243
    1UNL    H19   44  -0.022  -0.361  -0.116
    1UNL    H20   45   0.069  -0.005  -0.226
    1UNL    H21   46   0.078  -0.137  -0.333
    1UNL    H22   47  -0.166  -0.032  -0.271
    1UNL    H23   48  -0.152  -0.209  -0.225
    1UNL    H24   49  -0.245  -0.104  -0.032
   0.00000   0.00000   0.00000   0.00000   0.00000   0.00000   0.00000   0.00000   0.00000
Generated with MDTraj, t= 58.0
 49
    1UNL     C1    1  -0.331   0.268  -0.244
    1UNL     O1    2  -0.256   0.160  -0.174
    1UNL     C2    3  -0.173   0.194  -0.073
    1UNL     O2    4  -0.135   0.304  -0.050
    1UNL     C3    5  -0.123   0.080   0.019
    1UNL     C4    6  -0.196   0.080   0.155
    1UNL     O3    7  -0.190  -0.038   0.243
    1UNL     C5    8  -0.249  -0.162   0.214
    1UNL     C6    9  -0.153  -0.260   0.134
    1UNL     C7   10  -0.068  -0.159   0.056
    1UNL     C8   11   0.084  -0.157   0.020
    1UNL     C9   12   0.125  -0.010   0.037
    1UNL    C10   13   0.028   0.092   0.032
    1UNL     N1   14   0.081   0.215   0.061
    1UNL    C11   15   0.217   0.194   0.072
    1UNL    C12   16   0.316   0.282   0.111
    1UNL    C13   17   0.431   0.237   0.165
    1UNL    C14   18   0.461   0.102   0.168
    1UNL    C15   19   0.374   0.007   0.108
    1UNL    C16   20   0.248   0.056   0.071
    1UNL     N2   21   0.100  -0.201  -0.128
    1UNL    C17   22   0.085  -0.351  -0.170
    1UNL    C18   23   0.028  -0.109  -0.223
    1UNL    C19   24  -0.122  -0.100  -0.183
    1UNL    C20   25  -0.144  -0.071  -0.038
    1UNL     H1   26  -0.377   0.238  -0.341
    1UNL     H2   27  -0.271   0.359  -0.257
    1UNL     H3   28  -0.412   0.294  -0.177
    1UNL     H4   29  -0.299   0.084   0.123
    1UNL     H5   30  -0.176   0.175   0.206
    1UNL     H6   31  -0.263  -0.196   0.313
    1UNL     H7   32  -0.346  -0.140   0.149
    1UNL     H8   33  -0.095  -0.326   0.208
    1UNL     H9   34  -0.212  -0.324   0.062
    1UNL    H10   35  -0.046  -0.094   0.139
    1UNL    H11   36   0.149  -0.224   0.081
    1UNL    H12   37   0.046   0.310   0.045
    1UNL    H13   38   0.297   0.385   0.099
    1UNL    H14   39   0.500   0.311   0.207
    1UNL    H15   40   0.553   0.059   0.202
    1UNL    H16   41   0.397  -0.094   0.108
    1UNL    H17   42   0.154  -0.405  -0.109
    1UNL    H18   43   0.116  -0.370  -0.268
    1UNL    H19   44  -0.013  -0.391  -0.159
    1UNL    H20   45   0.083  -0.019  -0.220
    1UNL    H21   46   0.036  -0.144  -0.331
    1UNL    H22   47  -0.166  -0.018  -0.246
    1UNL    H23   48  -0.164  -0.201  -0.208
    1UNL    H24   49  -0.249  -0.084  -0.026
   0.00000   0.00000   0.00000   0.00000   0.00000   0.00000   0.00000   0.00000   0.00000
Generated with MDTraj, t= 59.0
 49
    1UNL     C1    1  -0.286   0.265  -0.276
    1UNL     O1    2  -0.273   0.159  -0.177
    1UNL     C2    3  -0.194   0.180  -0.063
    1UNL     O2    4  -0.188   0.293  -0.024
    1UNL     C3    5  -0.134   0.074   0.021
    1UNL     C4    6  -0.210   0.078   0.158
    1UNL     O3    7  -0.199  -0.046   0.241
    1UNL     C5    8  -0.261  -0.168   0.198
    1UNL     C6    9  -0.153  -0.260   0.131
    1UNL     C7   10  -0.069  -0.158   0.066
    1UNL     C8   11   0.086  -0.147   0.020
    1UNL     C9   12   0.114  -0.003   0.048
    1UNL    C10   13   0.018   0.096   0.048
    1UNL     N1   14   0.087   0.219   0.066
    1UNL    C11   15   0.224   0.195   0.082
    1UNL    C12   16   0.338   0.277   0.099
    1UNL    C13   17   0.459   0.222   0.130
    1UNL    C14   18   0.468   0.085   0.135
    1UNL    C15   19   0.366   0.001   0.098
    1UNL    C16   20   0.241   0.058   0.077
    1UNL     N2   21   0.120  -0.186  -0.118
    1UNL    C17   22   0.086  -0.326  -0.143
    1UNL    C18   23   0.052  -0.095  -0.210
    1UNL    C19   24  -0.106  -0.086  -0.185
    1UNL    C20   25  -0.150  -0.073  -0.037
    1UNL     H1   26  -0.373   0.245  -0.342
    1UNL     H2   27  -0.198   0.280  -0.338
    1UNL     H3   28  -0.315   0.356  -0.226
    1UNL     H4   29  -0.314   0.101   0.143
    1UNL     H5   30  -0.171   0.165   0.211
    1UNL     H6   31  -0.286  -0.221   0.286
    1UNL     H7   32  -0.356  -0.134   0.133
    1UNL     H8   33  -0.087  -0.309   0.210
    1UNL     H9   34  -0.197  -0.339   0.060
    1UNL    H10   35  -0.047  -0.101   0.157
    1UNL    H11   36   0.146  -0.212   0.087
    1UNL    H12   37   0.041   0.310   0.070
    1UNL    H13   38   0.327   0.387   0.094
    1UNL    H14   39   0.542   0.282   0.159
    1UNL    H15   40   0.558   0.045   0.175
    1UNL    H16   41   0.384  -0.108   0.082
    1UNL    H17   42   0.151  -0.390  -0.091
    1UNL    H18   43   0.107  -0.348  -0.244
    1UNL    H19   44  -0.016  -0.350  -0.120
    1UNL    H20   45   0.095   0.000  -0.201
    1UNL    H21   46   0.090  -0.141  -0.309
    1UNL    H22   47  -0.140   0.001  -0.247
    1UNL    H23   48  -0.151  -0.182  -0.225
    1UNL    H24   49  -0.249  -0.110  -0.043
   0.00000   0.00000   0.00000   0.00000   0.00000   0.00000   0.00000   0.00000   0.00000
Generated with MDTraj, t= 60.0
 49
    1UNL     C1    1  -0.293   0.263  -0.253
    1UNL     O1    2  -0.221   0.162  -0.185
    1UNL     C2    3  -0.164   0.184  -0.062
    1UNL     O2    4  -0.151   0.296  -0.018
    1UNL     C3    5  -0.127   0.061   0.025
    1UNL     C4    6  -0.233   0.070   0.147
    1UNL     O3    7  -0.224  -0.041   0.238
    1UNL     C5    8  -0.279  -0.171   0.199
    1UNL     C6    9  -0.174  -0.259   0.125
    1UNL     C7   10  -0.079  -0.163   0.054
    1UNL     C8   11   0.082  -0.156   0.036
    1UNL     C9   12   0.110  -0.010   0.068
    1UNL    C10   13   0.011   0.089   0.074
    1UNL     N1   14   0.076   0.210   0.091
    1UNL    C11   15   0.214   0.193   0.098
    1UNL    C12   16   0.322   0.282   0.110
    1UNL    C13   17   0.446   0.236   0.096
    1UNL    C14   18   0.473   0.101   0.064
    1UNL    C15   19   0.372   0.015   0.064
    1UNL    C16   20   0.237   0.053   0.085
    1UNL     N2   21   0.122  -0.184  -0.102
    1UNL    C17   22   0.100  -0.331  -0.123
    1UNL    C18   23   0.057  -0.095  -0.202
    1UNL    C19   24  -0.096  -0.085  -0.193
    1UNL    C20   25  -0.148  -0.072  -0.045
    1UNL     H1   26  -0.338   0.217  -0.343
    1UNL     H2   27  -0.238   0.352  -0.283
    1UNL     H3   28  -0.381   0.292  -0.199
    1UNL     H4   29  -0.331   0.082   0.107
    1UNL     H5   30  -0.212   0.157   0.210
    1UNL     H6   31  -0.327  -0.219   0.282
    1UNL     H7   32  -0.364  -0.137   0.121
    1UNL     H8   33  -0.122  -0.338   0.187
    1UNL     H9   34  -0.233  -0.320   0.049
    1UNL    H10   35  -0.074  -0.097   0.151
    1UNL    H11   36   0.145  -0.218   0.103
    1UNL    H12   37   0.026   0.295   0.062
    1UNL    H13   38   0.307   0.382   0.140
    1UNL    H14   39   0.537   0.294   0.110
    1UNL    H15   40   0.577   0.067   0.053
    1UNL    H16   41   0.392  -0.085   0.038
    1UNL    H17   42   0.142  -0.394  -0.051
    1UNL    H18   43   0.144  -0.366  -0.214
    1UNL    H19   44  -0.005  -0.353  -0.128
    1UNL    H20   45   0.114  -0.007  -0.187
    1UNL    H21   46   0.086  -0.128  -0.307
    1UNL    H22   47  -0.124   0.011  -0.238
    1UNL    H23   48  -0.137  -0.172  -0.253
    1UNL    H24   49  -0.251  -0.085  -0.060
   0.00000   0.00000   0.00000   0.00000   0.00000   0.00000   0.00000   0.00000   0.00000
Generated with MDTraj, t= 61.0
 49
    1UNL     C1    1  -0.271   0.287  -0.244
    1UNL     O1    2  -0.251   0.179  -0.164
    1UNL     C2    3  -0.168   0.192  -0.051
    1UNL     O2    4  -0.119   0.299  -0.016
    1UNL     C3    5  -0.124   0.066   0.034
    1UNL     C4    6  -0.246   0.061   0.147
    1UNL     O3    7  -0.256  -0.052   0.226
    1UNL     C5    8  -0.295  -0.183   0.168
    1UNL     C6    9  -0.173  -0.265   0.120
    1UNL     C7   10  -0.076  -0.162   0.069
    1UNL     C8   11   0.082  -0.162   0.053
    1UNL     C9   12   0.116  -0.011   0.081
    1UNL    C10   13   0.021   0.086   0.073
    1UNL     N1   14   0.075   0.208   0.080
    1UNL    C11   15   0.208   0.195   0.094
    1UNL    C12   16   0.316   0.293   0.102
    1UNL    C13   17   0.440   0.248   0.069
    1UNL    C14   18   0.464   0.116   0.044
    1UNL    C15   19   0.375   0.018   0.057
    1UNL    C16   20   0.239   0.055   0.088
    1UNL     N2   21   0.114  -0.207  -0.093
    1UNL    C17   22   0.111  -0.352  -0.112
    1UNL    C18   23   0.066  -0.115  -0.202
    1UNL    C19   24  -0.083  -0.073  -0.189
    1UNL    C20   25  -0.132  -0.067  -0.041
    1UNL     H1   26  -0.202   0.289  -0.332
    1UNL     H2   27  -0.266   0.382  -0.192
    1UNL     H3   28  -0.365   0.278  -0.296
    1UNL     H4   29  -0.345   0.079   0.111
    1UNL     H5   30  -0.222   0.139   0.221
    1UNL     H6   31  -0.361  -0.225   0.245
    1UNL     H7   32  -0.364  -0.174   0.072
    1UNL     H8   33  -0.122  -0.327   0.201
    1UNL     H9   34  -0.194  -0.350   0.047
    1UNL    H10   35  -0.082  -0.097   0.164
    1UNL    H11   36   0.128  -0.234   0.121
    1UNL    H12   37   0.027   0.298   0.077
    1UNL    H13   38   0.299   0.399   0.123
    1UNL    H14   39   0.521   0.315   0.056
    1UNL    H15   40   0.559   0.087   0.003
    1UNL    H16   41   0.392  -0.088   0.043
    1UNL    H17   42   0.177  -0.407  -0.052
    1UNL    H18   43   0.135  -0.376  -0.213
    1UNL    H19   44   0.009  -0.379  -0.095
    1UNL    H20   45   0.129  -0.028  -0.211
    1UNL    H21   46   0.098  -0.171  -0.296
    1UNL    H22   47  -0.096   0.020  -0.246
    1UNL    H23   48  -0.148  -0.156  -0.229
    1UNL    H24   49  -0.235  -0.085  -0.050
   0.00000   0.00000   0.00000   0.00000   0.00000   0.00000   0.00000   0.00000   0.00000
Generated with MDTraj, t= 62.0
 49
    1UNL     C1    1  -0.290   0.262  -0.252
    1UNL     O1    2  -0.242   0.159  -0.172
    1UNL     C2    3  -0.180   0.193  -0.050
    1UNL     O2    4  -0.152   0.307  -0.015
    1UNL     C3    5  -0.130   0.079   0.036
    1UNL     C4    6  -0.229   0.058   0.155
    1UNL     O3    7  -0.232  -0.065   0.232
    1UNL     C5    8  -0.286  -0.183   0.170
    1UNL     C6    9  -0.178  -0.264   0.095
    1UNL     C7   10  -0.073  -0.161   0.069
    1UNL     C8   11   0.085  -0.152   0.056
    1UNL     C9   12   0.104  -0.004   0.090
    1UNL    C10   13   0.014   0.104   0.077
    1UNL     N1   14   0.078   0.224   0.077
    1UNL    C11   15   0.214   0.201   0.077
    1UNL    C12   16   0.324   0.282   0.078
    1UNL    C13   17   0.449   0.220   0.072
    1UNL    C14   18   0.465   0.082   0.060
    1UNL    C15   19   0.358  -0.003   0.067
    1UNL    C16   20   0.232   0.058   0.083
    1UNL     N2   21   0.131  -0.191  -0.085
    1UNL    C17   22   0.090  -0.328  -0.120
    1UNL    C18   23   0.085  -0.086  -0.181
    1UNL    C19   24  -0.075  -0.074  -0.182
    1UNL    C20   25  -0.134  -0.058  -0.040
    1UNL     H1   26  -0.223   0.351  -0.253
    1UNL     H2   27  -0.390   0.295  -0.224
    1UNL     H3   28  -0.285   0.233  -0.357
    1UNL     H4   29  -0.329   0.070   0.118
    1UNL     H5   30  -0.214   0.125   0.243
    1UNL     H6   31  -0.326  -0.257   0.243
    1UNL     H7   32  -0.374  -0.145   0.101
    1UNL     H8   33  -0.144  -0.351   0.160
    1UNL     H9   34  -0.206  -0.314  -0.003
    1UNL    H10   35  -0.071  -0.108   0.166
    1UNL    H11   36   0.136  -0.219   0.124
    1UNL    H12   37   0.030   0.305   0.038
    1UNL    H13   38   0.320   0.388   0.078
    1UNL    H14   39   0.537   0.282   0.059
    1UNL    H15   40   0.567   0.044   0.049
    1UNL    H16   41   0.376  -0.112   0.060
    1UNL    H17   42   0.101  -0.400  -0.041
    1UNL    H18   43   0.150  -0.361  -0.203
    1UNL    H19   44  -0.010  -0.318  -0.150
    1UNL    H20   45   0.155  -0.003  -0.172
    1UNL    H21   46   0.121  -0.123  -0.281
    1UNL    H22   47  -0.102   0.013  -0.242
    1UNL    H23   48  -0.118  -0.164  -0.234
    1UNL    H24   49  -0.236  -0.078  -0.043
   0.00000   0.00000   0.00000   0.00000   0.00000   0.00000   0.00000   0.00000   0.00000
Generated with MDTraj, t= 63.0
 49
    1UNL     C1    1  -0.316   0.266  -0.240
    1UNL     O1    2  -0.236   0.164  -0.184
    1UNL     C2    3  -0.191   0.189  -0.059
    1UNL     O2    4  -0.192   0.299  -0.008
    1UNL     C3    5  -0.133   0.074   0.027
    1UNL     C4    6  -0.231   0.072   0.141
    1UNL     O3    7  -0.238  -0.042   0.238
    1UNL     C5    8  -0.289  -0.163   0.183
    1UNL     C6    9  -0.175  -0.258   0.120
    1UNL     C7   10  -0.072  -0.162   0.070
    1UNL     C8   11   0.081  -0.157   0.043
    1UNL     C9   12   0.114  -0.011   0.077
    1UNL    C10   13   0.015   0.087   0.070
    1UNL     N1   14   0.088   0.207   0.079
    1UNL    C11   15   0.226   0.187   0.080
    1UNL    C12   16   0.332   0.270   0.059
    1UNL    C13   17   0.460   0.220   0.079
    1UNL    C14   18   0.483   0.086   0.101
    1UNL    C15   19   0.376  -0.003   0.098
    1UNL    C16   20   0.248   0.053   0.090
    1UNL     N2   21   0.133  -0.183  -0.102
    1UNL    C17   22   0.113  -0.319  -0.147
    1UNL    C18   23   0.072  -0.081  -0.195
    1UNL    C19   24  -0.082  -0.083  -0.179
    1UNL    C20   25  -0.143  -0.072  -0.047
    1UNL     H1   26  -0.253   0.357  -0.250
    1UNL     H2   27  -0.404   0.290  -0.178
    1UNL     H3   28  -0.343   0.243  -0.342
    1UNL     H4   29  -0.331   0.072   0.098
    1UNL     H5   30  -0.219   0.166   0.201
    1UNL     H6   31  -0.350  -0.221   0.256
    1UNL     H7   32  -0.357  -0.134   0.092
    1UNL     H8   33  -0.139  -0.330   0.200
    1UNL     H9   34  -0.211  -0.322   0.034
    1UNL    H10   35  -0.069  -0.094   0.154
    1UNL    H11   36   0.143  -0.211   0.114
    1UNL    H12   37   0.043   0.297   0.065
    1UNL    H13   38   0.322   0.369   0.017
    1UNL    H14   39   0.536   0.295   0.069
    1UNL    H15   40   0.581   0.050   0.121
    1UNL    H16   41   0.381  -0.106   0.109
    1UNL    H17   42   0.191  -0.384  -0.107
    1UNL    H18   43   0.120  -0.320  -0.253
    1UNL    H19   44   0.014  -0.345  -0.117
    1UNL    H20   45   0.127   0.014  -0.180
    1UNL    H21   46   0.105  -0.104  -0.297
    1UNL    H22   47  -0.122   0.002  -0.234
    1UNL    H23   48  -0.112  -0.177  -0.236
    1UNL    H24   49  -0.244  -0.091  -0.052
   0.00000   0.00000   0.00000   0.00000   0.00000   0.00000   0.00000   0.00000   0.00000
Generated with MDTraj, t= 64.0
 49
    1UNL     C1    1  -0.285   0.287  -0.248
    1UNL     O1    2  -0.263   0.169  -0.173
    1UNL     C2    3  -0.184   0.195  -0.065
    1UNL     O2    4  -0.151   0.305  -0.029
    1UNL     C3    5  -0.132   0.072   0.026
    1UNL     C4    6  -0.213   0.068   0.165
    1UNL     O3    7  -0.210  -0.058   0.249
    1UNL     C5    8  -0.268  -0.178   0.204
    1UNL     C6    9  -0.166  -0.267   0.125
    1UNL     C7   10  -0.081  -0.161   0.058
    1UNL     C8   11   0.082  -0.146   0.023
    1UNL     C9   12   0.116  -0.003   0.043
    1UNL    C10   13   0.014   0.090   0.044
    1UNL     N1   14   0.077   0.211   0.052
    1UNL    C11   15   0.216   0.192   0.081
    1UNL    C12   16   0.320   0.279   0.099
    1UNL    C13   17   0.444   0.234   0.123
    1UNL    C14   18   0.469   0.093   0.120
    1UNL    C15   19   0.373  -0.001   0.086
    1UNL    C16   20   0.242   0.056   0.072
    1UNL     N2   21   0.121  -0.190  -0.110
    1UNL    C17   22   0.119  -0.337  -0.122
    1UNL    C18   23   0.043  -0.112  -0.215
    1UNL    C19   24  -0.109  -0.079  -0.190
    1UNL    C20   25  -0.153  -0.066  -0.040
    1UNL     H1   26  -0.182   0.320  -0.276
    1UNL     H2   27  -0.333   0.367  -0.191
    1UNL     H3   28  -0.336   0.268  -0.340
    1UNL     H4   29  -0.319   0.090   0.149
    1UNL     H5   30  -0.166   0.151   0.227
    1UNL     H6   31  -0.295  -0.231   0.297
    1UNL     H7   32  -0.359  -0.167   0.133
    1UNL     H8   33  -0.102  -0.324   0.198
    1UNL     H9   34  -0.197  -0.336   0.041
    1UNL    H10   35  -0.068  -0.100   0.148
    1UNL    H11   36   0.136  -0.213   0.089
    1UNL    H12   37   0.029   0.300   0.044
    1UNL    H13   38   0.289   0.381   0.079
    1UNL    H14   39   0.526   0.297   0.154
    1UNL    H15   40   0.565   0.051   0.152
    1UNL    H16   41   0.391  -0.113   0.079
    1UNL    H17   42   0.169  -0.379  -0.034
    1UNL    H18   43   0.182  -0.363  -0.203
    1UNL    H19   44   0.017  -0.371  -0.134
    1UNL    H20   45   0.100  -0.020  -0.246
    1UNL    H21   46   0.054  -0.170  -0.304
    1UNL    H22   47  -0.125   0.010  -0.250
    1UNL    H23   48  -0.170  -0.164  -0.231
    1UNL    H24   49  -0.255  -0.086  -0.037
   0.00000   0.00000   0.00000   0.00000   0.00000   0.00000   0.00000   0.00000   0.00000
Generated with MDTraj, t= 65.0
 49
    1UNL     C1    1  -0.296   0.259  -0.246
    1UNL     O1    2  -0.249   0.148  -0.182
    1UNL     C2    3  -0.174   0.192  -0.071
    1UNL     O2    4  -0.149   0.309  -0.044
    1UNL     C3    5  -0.122   0.075   0.013
    1UNL     C4    6  -0.213   0.079   0.150
    1UNL     O3    7  -0.204  -0.034   0.245
    1UNL     C5    8  -0.256  -0.166   0.215
    1UNL     C6    9  -0.150  -0.255   0.146
    1UNL     C7   10  -0.065  -0.163   0.057
    1UNL     C8   11   0.088  -0.157   0.013
    1UNL     C9   12   0.118  -0.006   0.031
    1UNL    C10   13   0.021   0.093   0.034
    1UNL     N1   14   0.079   0.208   0.082
    1UNL    C11   15   0.214   0.186   0.103
    1UNL    C12   16   0.311   0.280   0.151
    1UNL    C13   17   0.441   0.245   0.149
    1UNL    C14   18   0.472   0.106   0.109
    1UNL    C15   19   0.378   0.014   0.079
    1UNL    C16   20   0.245   0.051   0.076
    1UNL     N2   21   0.111  -0.194  -0.129
    1UNL    C17   22   0.064  -0.341  -0.147
    1UNL    C18   23   0.034  -0.113  -0.223
    1UNL    C19   24  -0.116  -0.098  -0.193
    1UNL    C20   25  -0.145  -0.064  -0.038
    1UNL     H1   26  -0.210   0.290  -0.308
    1UNL     H2   27  -0.328   0.336  -0.176
    1UNL     H3   28  -0.378   0.224  -0.306
    1UNL     H4   29  -0.317   0.091   0.121
    1UNL     H5   30  -0.178   0.173   0.206
    1UNL     H6   31  -0.294  -0.222   0.302
    1UNL     H7   32  -0.346  -0.149   0.147
    1UNL     H8   33  -0.083  -0.309   0.219
    1UNL     H9   34  -0.202  -0.338   0.090
    1UNL    H10   35  -0.049  -0.091   0.146
    1UNL    H11   36   0.161  -0.217   0.066
    1UNL    H12   37   0.034   0.301   0.078
    1UNL    H13   38   0.273   0.369   0.195
    1UNL    H14   39   0.520   0.314   0.180
    1UNL    H15   40   0.573   0.075   0.117
    1UNL    H16   41   0.395  -0.085   0.050
    1UNL    H17   42   0.141  -0.402  -0.103
    1UNL    H18   43   0.061  -0.373  -0.250
    1UNL    H19   44  -0.034  -0.361  -0.101
    1UNL    H20   45   0.076  -0.007  -0.225
    1UNL    H21   46   0.052  -0.145  -0.323
    1UNL    H22   47  -0.164  -0.024  -0.256
    1UNL    H23   48  -0.152  -0.199  -0.224
    1UNL    H24   49  -0.250  -0.068  -0.037
   0.00000   0.00000   0.00000   0.00000   0.00000   0.00000   0.00000   0.00000   0.00000
Generated with MDTraj, t= 66.0
 49
    1UNL     C1    1  -0.304   0.234  -0.256
    1UNL     O1    2  -0.264   0.137  -0.170
    1UNL     C2    3  -0.184   0.192  -0.077
    1UNL     O2    4  -0.161   0.311  -0.064
    1UNL     C3    5  -0.129   0.078   0.016
    1UNL     C4    6  -0.216   0.079   0.147
    1UNL     O3    7  -0.190  -0.021   0.245
    1UNL     C5    8  -0.245  -0.160   0.232
    1UNL     C6    9  -0.150  -0.247   0.142
    1UNL     C7   10  -0.058  -0.159   0.057
    1UNL     C8   11   0.091  -0.145   0.008
    1UNL     C9   12   0.117   0.001   0.033
    1UNL    C10   13   0.019   0.101   0.047
    1UNL     N1   14   0.082   0.212   0.089
    1UNL    C11   15   0.215   0.195   0.098
    1UNL    C12   16   0.319   0.269   0.159
    1UNL    C13   17   0.450   0.218   0.160
    1UNL    C14   18   0.477   0.084   0.125
    1UNL    C15   19   0.371   0.007   0.085
    1UNL    C16   20   0.241   0.060   0.072
    1UNL     N2   21   0.109  -0.188  -0.137
    1UNL    C17   22   0.075  -0.333  -0.164
    1UNL    C18   23   0.031  -0.108  -0.229
    1UNL    C19   24  -0.114  -0.096  -0.190
    1UNL    C20   25  -0.143  -0.066  -0.040
    1UNL     H1   26  -0.226   0.314  -0.248
    1UNL     H2   27  -0.402   0.266  -0.222
    1UNL     H3   28  -0.308   0.189  -0.354
    1UNL     H4   29  -0.320   0.067   0.114
    1UNL     H5   30  -0.194   0.180   0.195
    1UNL     H6   31  -0.262  -0.207   0.328
    1UNL     H7   32  -0.346  -0.140   0.183
    1UNL     H8   33  -0.072  -0.319   0.183
    1UNL     H9   34  -0.221  -0.314   0.086
    1UNL    H10   35  -0.038  -0.091   0.150
    1UNL    H11   36   0.151  -0.212   0.067
    1UNL    H12   37   0.033   0.300   0.111
    1UNL    H13   38   0.286   0.364   0.206
    1UNL    H14   39   0.531   0.284   0.185
    1UNL    H15   40   0.575   0.042   0.111
    1UNL    H16   41   0.386  -0.098   0.052
    1UNL    H17   42   0.142  -0.394  -0.108
    1UNL    H18   43   0.098  -0.361  -0.268
    1UNL    H19   44  -0.030  -0.359  -0.145
    1UNL    H20   45   0.070   0.000  -0.222
    1UNL    H21   46   0.049  -0.131  -0.332
    1UNL    H22   47  -0.159  -0.030  -0.263
    1UNL    H23   48  -0.159  -0.198  -0.197
    1UNL    H24   49  -0.250  -0.079  -0.044
   0.00000   0.00000   0.00000   0.00000   0.00000   0.00000   0.00000   0.00000   0.00000
Generated with MDTraj, t= 67.0
 49
    1UNL     C1    1  -0.317   0.265  -0.247
    1UNL     O1    2  -0.289   0.153  -0.161
    1UNL     C2    3  -0.188   0.191  -0.076
    1UNL     O2    4  -0.154   0.306  -0.070
    1UNL     C3    5  -0.128   0.079   0.014
    1UNL     C4    6  -0.198   0.077   0.159
    1UNL     O3    7  -0.186  -0.037   0.250
    1UNL     C5    8  -0.250  -0.159   0.209
    1UNL     C6    9  -0.159  -0.258   0.138
    1UNL     C7   10  -0.071  -0.157   0.058
    1UNL     C8   11   0.082  -0.149   0.015
    1UNL     C9   12   0.119  -0.005   0.035
    1UNL    C10   13   0.027   0.096   0.036
    1UNL     N1   14   0.091   0.214   0.051
    1UNL    C11   15   0.224   0.196   0.080
    1UNL    C12   16   0.321   0.278   0.133
    1UNL    C13   17   0.440   0.217   0.164
    1UNL    C14   18   0.463   0.079   0.146
    1UNL    C15   19   0.362  -0.012   0.101
    1UNL    C16   20   0.246   0.054   0.067
    1UNL     N2   21   0.101  -0.181  -0.125
    1UNL    C17   22   0.141  -0.329  -0.154
    1UNL    C18   23   0.026  -0.103  -0.219
    1UNL    C19   24  -0.123  -0.098  -0.184
    1UNL    C20   25  -0.152  -0.068  -0.034
    1UNL     H1   26  -0.228   0.331  -0.235
    1UNL     H2   27  -0.405   0.314  -0.204
    1UNL     H3   28  -0.336   0.231  -0.349
    1UNL     H4   29  -0.305   0.082   0.142
    1UNL     H5   30  -0.154   0.169   0.210
    1UNL     H6   31  -0.287  -0.194   0.304
    1UNL     H7   32  -0.337  -0.123   0.144
    1UNL     H8   33  -0.093  -0.317   0.210
    1UNL     H9   34  -0.218  -0.337   0.077
    1UNL    H10   35  -0.051  -0.091   0.146
    1UNL    H11   36   0.156  -0.208   0.067
    1UNL    H12   37   0.044   0.305   0.039
    1UNL    H13   38   0.310   0.381   0.144
    1UNL    H14   39   0.525   0.280   0.189
    1UNL    H15   40   0.557   0.034   0.169
    1UNL    H16   41   0.365  -0.121   0.096
    1UNL    H17   42   0.229  -0.363  -0.102
    1UNL    H18   43   0.170  -0.340  -0.260
    1UNL    H19   44   0.058  -0.400  -0.139
    1UNL    H20   45   0.078  -0.003  -0.236
    1UNL    H21   46   0.046  -0.151  -0.315
    1UNL    H22   47  -0.167  -0.024  -0.250
    1UNL    H23   48  -0.173  -0.194  -0.213
    1UNL    H24   49  -0.259  -0.088  -0.020
   0.00000   0.00000   0.00000   0.00000   0.00000   0.00000   0.00000   0.00000   0.00000
Generated with MDTraj, t= 68.0
 49
    1UNL     C1    1  -0.344   0.273  -0.197
    1UNL     O1    2  -0.270   0.152  -0.172
    1UNL     C2    3  -0.177   0.184  -0.080
    1UNL     O2    4  -0.142   0.296  -0.056
    1UNL     C3    5  -0.128   0.072   0.004
    1UNL     C4    6  -0.214   0.077   0.133
    1UNL     O3    7  -0.199  -0.031   0.228
    1UNL     C5    8  -0.269  -0.153   0.198
    1UNL     C6    9  -0.159  -0.254   0.149
    1UNL     C7   10  -0.073  -0.158   0.056
    1UNL     C8   11   0.084  -0.158   0.024
    1UNL     C9   12   0.119  -0.016   0.054
    1UNL    C10   13   0.021   0.084   0.043
    1UNL     N1   14   0.083   0.208   0.060
    1UNL    C11   15   0.217   0.186   0.085
    1UNL    C12   16   0.323   0.275   0.100
    1UNL    C13   17   0.451   0.234   0.135
    1UNL    C14   18   0.477   0.097   0.145
    1UNL    C15   19   0.379  -0.001   0.122
    1UNL    C16   20   0.249   0.048   0.088
    1UNL     N2   21   0.105  -0.190  -0.125
    1UNL    C17   22   0.123  -0.333  -0.159
    1UNL    C18   23   0.043  -0.096  -0.220
    1UNL    C19   24  -0.114  -0.084  -0.191
    1UNL    C20   25  -0.150  -0.075  -0.047
    1UNL     H1   26  -0.309   0.316  -0.295
    1UNL     H2   27  -0.310   0.350  -0.125
    1UNL     H3   28  -0.450   0.260  -0.176
    1UNL     H4   29  -0.315   0.076   0.095
    1UNL     H5   30  -0.187   0.167   0.196
    1UNL     H6   31  -0.322  -0.169   0.289
    1UNL     H7   32  -0.344  -0.120   0.119
    1UNL     H8   33  -0.111  -0.293   0.245
    1UNL     H9   34  -0.190  -0.345   0.086
    1UNL    H10   35  -0.055  -0.088   0.137
    1UNL    H11   36   0.140  -0.231   0.082
    1UNL    H12   37   0.032   0.296   0.049
    1UNL    H13   38   0.311   0.383   0.075
    1UNL    H14   39   0.525   0.309   0.162
    1UNL    H15   40   0.568   0.069   0.198
    1UNL    H16   41   0.393  -0.100   0.160
    1UNL    H17   42   0.182  -0.387  -0.083
    1UNL    H18   43   0.175  -0.349  -0.255
    1UNL    H19   44   0.023  -0.373  -0.171
    1UNL    H20   45   0.098  -0.001  -0.200
    1UNL    H21   46   0.082  -0.117  -0.322
    1UNL    H22   47  -0.165  -0.006  -0.244
    1UNL    H23   48  -0.160  -0.175  -0.235
    1UNL    H24   49  -0.256  -0.111  -0.034
   0.00000   0.00000   0.00000   0.00000   0.00000   0.00000   0.00000   0.00000   0.00000
Generated with MDTraj, t= 69.0
 49
    1UNL     C1    1  -0.324   0.247  -0.230
    1UNL     O1    2  -0.301   0.152  -0.129
    1UNL     C2    3  -0.188   0.188  -0.064
    1UNL     O2    4  -0.131   0.293  -0.079
    1UNL     C3    5  -0.127   0.086   0.023
    1UNL     C4    6  -0.226   0.063   0.146
    1UNL     O3    7  -0.205  -0.053   0.228
    1UNL     C5    8  -0.266  -0.178   0.182
    1UNL     C6    9  -0.175  -0.267   0.104
    1UNL     C7   10  -0.070  -0.158   0.052
    1UNL     C8   11   0.083  -0.151   0.039
    1UNL     C9   12   0.111  -0.003   0.056
    1UNL    C10   13   0.021   0.105   0.051
    1UNL     N1   14   0.090   0.223   0.076
    1UNL    C11   15   0.224   0.198   0.092
    1UNL    C12   16   0.335   0.282   0.113
    1UNL    C13   17   0.454   0.223   0.125
    1UNL    C14   18   0.476   0.086   0.108
    1UNL    C15   19   0.371   0.008   0.076
    1UNL    C16   20   0.238   0.058   0.077
    1UNL     N2   21   0.123  -0.193  -0.095
    1UNL    C17   22   0.070  -0.331  -0.120
    1UNL    C18   23   0.078  -0.090  -0.194
    1UNL    C19   24  -0.081  -0.068  -0.191
    1UNL    C20   25  -0.136  -0.058  -0.059
    1UNL     H1   26  -0.274   0.210  -0.322
    1UNL     H2   27  -0.279   0.347  -0.215
    1UNL     H3   28  -0.429   0.268  -0.235
    1UNL     H4   29  -0.322   0.039   0.107
    1UNL     H5   30  -0.228   0.150   0.216
    1UNL     H6   31  -0.307  -0.219   0.271
    1UNL     H7   32  -0.352  -0.142   0.118
    1UNL     H8   33  -0.127  -0.345   0.173
    1UNL     H9   34  -0.234  -0.324   0.027
    1UNL    H10   35  -0.063  -0.104   0.147
    1UNL    H11   36   0.131  -0.220   0.111
    1UNL    H12   37   0.049   0.313   0.050
    1UNL    H13   38   0.320   0.386   0.102
    1UNL    H14   39   0.541   0.277   0.153
    1UNL    H15   40   0.569   0.036   0.127
    1UNL    H16   41   0.383  -0.100   0.064
    1UNL    H17   42   0.122  -0.407  -0.055
    1UNL    H18   43   0.080  -0.367  -0.223
    1UNL    H19   44  -0.037  -0.326  -0.099
    1UNL    H20   45   0.136   0.000  -0.177
    1UNL    H21   46   0.112  -0.123  -0.297
    1UNL    H22   47  -0.099   0.017  -0.254
    1UNL    H23   48  -0.132  -0.152  -0.242
    1UNL    H24   49  -0.247  -0.089  -0.073
   0.00000   0.00000   0.00000   0.00000   0.00000   0.00000   0.00000   0.00000   0.00000
Generated with MDTraj, t= 70.0
 49
    1UNL     C1    1  -0.316   0.245  -0.220
    1UNL     O1    2  -0.285   0.153  -0.121
    1UNL     C2    3  -0.169   0.186  -0.064
    1UNL     O2    4  -0.106   0.283  -0.100
    1UNL     C3    5  -0.122   0.075   0.035
    1UNL     C4    6  -0.232   0.075   0.153
    1UNL     O3    7  -0.252  -0.048   0.219
    1UNL     C5    8  -0.301  -0.176   0.155
    1UNL     C6    9  -0.175  -0.262   0.114
    1UNL     C7   10  -0.069  -0.149   0.066
    1UNL     C8   11   0.082  -0.154   0.039
    1UNL     C9   12   0.117  -0.007   0.066
    1UNL    C10   13   0.023   0.094   0.076
    1UNL     N1   14   0.082   0.218   0.099
    1UNL    C11   15   0.222   0.196   0.105
    1UNL    C12   16   0.333   0.288   0.115
    1UNL    C13   17   0.456   0.236   0.096
    1UNL    C14   18   0.478   0.100   0.079
    1UNL    C15   19   0.379   0.016   0.070
    1UNL    C16   20   0.246   0.054   0.087
    1UNL     N2   21   0.116  -0.197  -0.099
    1UNL    C17   22   0.101  -0.343  -0.148
    1UNL    C18   23   0.067  -0.095  -0.196
    1UNL    C19   24  -0.092  -0.069  -0.185
    1UNL    C20   25  -0.138  -0.061  -0.039
    1UNL     H1   26  -0.222   0.278  -0.268
    1UNL     H2   27  -0.365   0.333  -0.180
    1UNL     H3   28  -0.390   0.203  -0.286
    1UNL     H4   29  -0.328   0.098   0.115
    1UNL     H5   30  -0.197   0.136   0.239
    1UNL     H6   31  -0.365  -0.221   0.228
    1UNL     H7   32  -0.373  -0.141   0.076
    1UNL     H8   33  -0.144  -0.310   0.213
    1UNL     H9   34  -0.188  -0.342   0.039
    1UNL    H10   35  -0.064  -0.087   0.161
    1UNL    H11   36   0.141  -0.219   0.105
    1UNL    H12   37   0.023   0.301   0.088
    1UNL    H13   38   0.315   0.395   0.123
    1UNL    H14   39   0.542   0.298   0.066
    1UNL    H15   40   0.580   0.066   0.056
    1UNL    H16   41   0.384  -0.080   0.027
    1UNL    H17   42   0.103  -0.419  -0.064
    1UNL    H18   43   0.183  -0.376  -0.214
    1UNL    H19   44   0.008  -0.349  -0.206
    1UNL    H20   45   0.112  -0.003  -0.165
    1UNL    H21   46   0.109  -0.121  -0.300
    1UNL    H22   47  -0.124   0.020  -0.238
    1UNL    H23   48  -0.133  -0.158  -0.234
    1UNL    H24   49  -0.254  -0.075  -0.044
   0.00000   0.00000   0.00000   0.00000   0.00000   0.00000   0.00000   0.00000   0.00000
Generated with MDTraj, t= 71.0
 49
    1UNL     C1    1  -0.308   0.300  -0.203
    1UNL     O1    2  -0.277   0.174  -0.155
    1UNL     C2    3  -0.163   0.180  -0.076
    1UNL     O2    4  -0.104   0.286  -0.086
    1UNL     C3    5  -0.128   0.064   0.017
    1UNL     C4    6  -0.234   0.066   0.139
    1UNL     O3    7  -0.228  -0.044   0.235
    1UNL     C5    8  -0.271  -0.176   0.195
    1UNL     C6    9  -0.174  -0.268   0.125
    1UNL     C7   10  -0.082  -0.162   0.053
    1UNL     C8   11   0.075  -0.155   0.043
    1UNL     C9   12   0.104  -0.016   0.077
    1UNL    C10   13   0.010   0.088   0.072
    1UNL     N1   14   0.067   0.213   0.090
    1UNL    C11   15   0.205   0.191   0.093
    1UNL    C12   16   0.315   0.281   0.093
    1UNL    C13   17   0.441   0.231   0.080
    1UNL    C14   18   0.460   0.094   0.075
    1UNL    C15   19   0.365  -0.001   0.084
    1UNL    C16   20   0.231   0.048   0.101
    1UNL     N2   21   0.125  -0.185  -0.098
    1UNL    C17   22   0.140  -0.336  -0.132
    1UNL    C18   23   0.073  -0.082  -0.191
    1UNL    C19   24  -0.077  -0.077  -0.192
    1UNL    C20   25  -0.146  -0.073  -0.051
    1UNL     H1   26  -0.225   0.338  -0.266
    1UNL     H2   27  -0.325   0.366  -0.118
    1UNL     H3   28  -0.400   0.298  -0.257
    1UNL     H4   29  -0.333   0.049   0.109
    1UNL     H5   30  -0.218   0.155   0.203
    1UNL     H6   31  -0.312  -0.212   0.288
    1UNL     H7   32  -0.354  -0.164   0.121
    1UNL     H8   33  -0.110  -0.325   0.199
    1UNL     H9   34  -0.213  -0.333   0.045
    1UNL    H10   35  -0.082  -0.097   0.150
    1UNL    H11   36   0.113  -0.234   0.108
    1UNL    H12   37   0.023   0.302   0.063
    1UNL    H13   38   0.305   0.389   0.112
    1UNL    H14   39   0.528   0.293   0.074
    1UNL    H15   40   0.559   0.061   0.055
    1UNL    H16   41   0.394  -0.108   0.073
    1UNL    H17   42   0.245  -0.365  -0.108
    1UNL    H18   43   0.126  -0.364  -0.239
    1UNL    H19   44   0.063  -0.395  -0.074
    1UNL    H20   45   0.112   0.012  -0.154
    1UNL    H21   46   0.120  -0.092  -0.296
    1UNL    H22   47  -0.104   0.005  -0.258
    1UNL    H23   48  -0.114  -0.169  -0.237
    1UNL    H24   49  -0.260  -0.099  -0.062
   0.00000   0.00000   0.00000   0.00000   0.00000   0.00000   0.00000   0.00000   0.00000
Generated with MDTraj, t= 72.0
 49
    1UNL     C1    1  -0.323   0.267  -0.230
    1UNL     O1    2  -0.295   0.170  -0.131
    1UNL     C2    3  -0.181   0.188  -0.063
    1UNL     O2    4  -0.121   0.292  -0.071
    1UNL     C3    5  -0.132   0.072   0.026
    1UNL     C4    6  -0.234   0.072   0.145
    1UNL     O3    7  -0.235  -0.051   0.232
    1UNL     C5    8  -0.288  -0.175   0.183
    1UNL     C6    9  -0.170  -0.260   0.109
    1UNL     C7   10  -0.072  -0.153   0.054
    1UNL     C8   11   0.077  -0.152   0.035
    1UNL     C9   12   0.114  -0.008   0.066
    1UNL    C10   13   0.021   0.091   0.060
    1UNL     N1   14   0.090   0.213   0.073
    1UNL    C11   15   0.223   0.192   0.086
    1UNL    C12   16   0.330   0.275   0.099
    1UNL    C13   17   0.455   0.223   0.104
    1UNL    C14   18   0.478   0.091   0.102
    1UNL    C15   19   0.373   0.001   0.088
    1UNL    C16   20   0.243   0.054   0.082
    1UNL     N2   21   0.118  -0.182  -0.101
    1UNL    C17   22   0.141  -0.334  -0.122
    1UNL    C18   23   0.059  -0.089  -0.203
    1UNL    C19   24  -0.090  -0.086  -0.197
    1UNL    C20   25  -0.146  -0.060  -0.047
    1UNL     H1   26  -0.253   0.267  -0.316
    1UNL     H2   27  -0.324   0.364  -0.178
    1UNL     H3   28  -0.422   0.258  -0.270
    1UNL     H4   29  -0.335   0.077   0.111
    1UNL     H5   30  -0.203   0.147   0.219
    1UNL     H6   31  -0.323  -0.235   0.264
    1UNL     H7   32  -0.378  -0.149   0.122
    1UNL     H8   33  -0.113  -0.321   0.182
    1UNL     H9   34  -0.218  -0.325   0.031
    1UNL    H10   35  -0.075  -0.096   0.152
    1UNL    H11   36   0.133  -0.217   0.104
    1UNL    H12   37   0.051   0.304   0.046
    1UNL    H13   38   0.325   0.379   0.117
    1UNL    H14   39   0.537   0.292   0.127
    1UNL    H15   40   0.573   0.048   0.136
    1UNL    H16   41   0.379  -0.101   0.111
    1UNL    H17   42   0.216  -0.341  -0.202
    1UNL    H18   43   0.048  -0.378  -0.167
    1UNL    H19   44   0.162  -0.394  -0.027
    1UNL    H20   45   0.098   0.011  -0.183
    1UNL    H21   46   0.110  -0.118  -0.301
    1UNL    H22   47  -0.134  -0.012  -0.263
    1UNL    H23   48  -0.130  -0.181  -0.229
    1UNL    H24   49  -0.261  -0.077  -0.063
   0.00000   0.00000   0.00000   0.00000   0.00000   0.00000   0.00000   0.00000   0.00000
Generated with MDTraj, t= 73.0
 49
    1UNL     C1    1  -0.356   0.229  -0.220
    1UNL     O1    2  -0.289   0.132  -0.145
    1UNL     C2    3  -0.182   0.180  -0.074
    1UNL     O2    4  -0.141   0.294  -0.077
    1UNL     C3    5  -0.126   0.081   0.027
    1UNL     C4    6  -0.213   0.089   0.151
    1UNL     O3    7  -0.237  -0.039   0.229
    1UNL     C5    8  -0.278  -0.158   0.168
    1UNL     C6    9  -0.164  -0.244   0.112
    1UNL     C7   10  -0.065  -0.151   0.058
    1UNL     C8   11   0.092  -0.154   0.030
    1UNL     C9   12   0.123  -0.004   0.043
    1UNL    C10   13   0.028   0.100   0.048
    1UNL     N1   14   0.092   0.217   0.079
    1UNL    C11   15   0.226   0.192   0.095
    1UNL    C12   16   0.336   0.271   0.117
    1UNL    C13   17   0.464   0.227   0.133
    1UNL    C14   18   0.482   0.088   0.125
    1UNL    C15   19   0.378  -0.001   0.105
    1UNL    C16   20   0.251   0.056   0.079
    1UNL     N2   21   0.114  -0.194  -0.112
    1UNL    C17   22   0.079  -0.335  -0.152
    1UNL    C18   23   0.063  -0.088  -0.201
    1UNL    C19   24  -0.087  -0.074  -0.190
    1UNL    C20   25  -0.133  -0.054  -0.043
    1UNL     H1   26  -0.292   0.291  -0.288
    1UNL     H2   27  -0.405   0.289  -0.142
    1UNL     H3   28  -0.433   0.193  -0.286
    1UNL     H4   29  -0.315   0.109   0.125
    1UNL     H5   30  -0.163   0.159   0.220
    1UNL     H6   31  -0.321  -0.224   0.242
    1UNL     H7   32  -0.357  -0.130   0.097
    1UNL     H8   33  -0.119  -0.308   0.188
    1UNL     H9   34  -0.209  -0.311   0.034
    1UNL    H10   35  -0.050  -0.103   0.157
    1UNL    H11   36   0.150  -0.221   0.097
    1UNL    H12   37   0.056   0.311   0.064
    1UNL    H13   38   0.327   0.382   0.099
    1UNL    H14   39   0.551   0.290   0.141
    1UNL    H15   40   0.578   0.053   0.155
    1UNL    H16   41   0.388  -0.112   0.113
    1UNL    H17   42   0.019  -0.342  -0.244
    1UNL    H18   43   0.019  -0.380  -0.067
    1UNL    H19   44   0.174  -0.397  -0.146
    1UNL    H20   45   0.123   0.003  -0.179
    1UNL    H21   46   0.088  -0.118  -0.305
    1UNL    H22   47  -0.124   0.010  -0.248
    1UNL    H23   48  -0.137  -0.160  -0.230
    1UNL    H24   49  -0.244  -0.085  -0.054
   0.00000   0.00000   0.00000   0.00000   0.00000   0.00000   0.00000   0.00000   0.00000
Generated with MDTraj, t= 74.0
 49
    1UNL     C1    1  -0.339   0.269  -0.224
    1UNL     O1    2  -0.289   0.152  -0.167
    1UNL     C2    3  -0.184   0.183  -0.083
    1UNL     O2    4  -0.127   0.290  -0.074
    1UNL     C3    5  -0.132   0.072   0.011
    1UNL     C4    6  -0.211   0.075   0.141
    1UNL     O3    7  -0.181  -0.028   0.245
    1UNL     C5    8  -0.236  -0.164   0.221
    1UNL     C6    9  -0.149  -0.248   0.116
    1UNL     C7   10  -0.071  -0.151   0.046
    1UNL     C8   11   0.087  -0.154   0.019
    1UNL     C9   12   0.118  -0.005   0.037
    1UNL    C10   13   0.018   0.094   0.031
    1UNL     N1   14   0.080   0.215   0.061
    1UNL    C11   15   0.212   0.190   0.088
    1UNL    C12   16   0.315   0.276   0.137
    1UNL    C13   17   0.441   0.226   0.158
    1UNL    C14   18   0.461   0.084   0.137
    1UNL    C15   19   0.366  -0.003   0.101
    1UNL    C16   20   0.240   0.053   0.079
    1UNL     N2   21   0.116  -0.198  -0.115
    1UNL    C17   22   0.073  -0.334  -0.139
    1UNL    C18   23   0.062  -0.095  -0.207
    1UNL    C19   24  -0.096  -0.084  -0.191
    1UNL    C20   25  -0.143  -0.065  -0.048
    1UNL     H1   26  -0.260   0.336  -0.267
    1UNL     H2   27  -0.395   0.311  -0.139
    1UNL     H3   28  -0.405   0.252  -0.308
    1UNL     H4   29  -0.317   0.057   0.120
    1UNL     H5   30  -0.185   0.170   0.191
    1UNL     H6   31  -0.225  -0.201   0.322
    1UNL     H7   32  -0.339  -0.167   0.191
    1UNL     H8   33  -0.092  -0.328   0.163
    1UNL     H9   34  -0.205  -0.307   0.039
    1UNL    H10   35  -0.051  -0.090   0.138
    1UNL    H11   36   0.145  -0.218   0.090
    1UNL    H12   37   0.032   0.305   0.077
    1UNL    H13   38   0.299   0.376   0.117
    1UNL    H14   39   0.525   0.292   0.175
    1UNL    H15   40   0.560   0.040   0.137
    1UNL    H16   41   0.380  -0.104   0.078
    1UNL    H17   42   0.049  -0.344  -0.247
    1UNL    H18   43  -0.014  -0.377  -0.081
    1UNL    H19   44   0.162  -0.395  -0.108
    1UNL    H20   45   0.114   0.006  -0.193
    1UNL    H21   46   0.085  -0.138  -0.306
    1UNL    H22   47  -0.126   0.004  -0.247
    1UNL    H23   48  -0.144  -0.168  -0.233
    1UNL    H24   49  -0.254  -0.094  -0.050
   0.00000   0.00000   0.00000   0.00000   0.00000   0.00000   0.00000   0.00000   0.00000
Generated with MDTraj, t= 75.0
 49
    1UNL     C1    1  -0.300   0.268  -0.243
    1UNL     O1    2  -0.284   0.160  -0.162
    1UNL     C2    3  -0.182   0.186  -0.072
    1UNL     O2    4  -0.124   0.291  -0.049
    1UNL     C3    5  -0.131   0.069   0.014
    1UNL     C4    6  -0.211   0.088   0.146
    1UNL     O3    7  -0.201  -0.018   0.236
    1UNL     C5    8  -0.245  -0.154   0.204
    1UNL     C6    9  -0.135  -0.243   0.140
    1UNL     C7   10  -0.058  -0.152   0.060
    1UNL     C8   11   0.092  -0.149   0.008
    1UNL     C9   12   0.125  -0.005   0.027
    1UNL    C10   13   0.023   0.088   0.027
    1UNL     N1   14   0.082   0.204   0.066
    1UNL    C11   15   0.218   0.186   0.093
    1UNL    C12   16   0.303   0.281   0.145
    1UNL    C13   17   0.430   0.237   0.165
    1UNL    C14   18   0.472   0.097   0.150
    1UNL    C15   19   0.381   0.010   0.100
    1UNL    C16   20   0.251   0.052   0.076
    1UNL     N2   21   0.084  -0.201  -0.134
    1UNL    C17   22   0.123  -0.340  -0.167
    1UNL    C18   23   0.007  -0.119  -0.231
    1UNL    C19   24  -0.140  -0.111  -0.184
    1UNL    C20   25  -0.153  -0.078  -0.033
    1UNL     H1   26  -0.220   0.269  -0.320
    1UNL     H2   27  -0.299   0.352  -0.172
    1UNL     H3   28  -0.391   0.266  -0.300
    1UNL     H4   29  -0.320   0.089   0.133
    1UNL     H5   30  -0.167   0.172   0.202
    1UNL     H6   31  -0.261  -0.205   0.298
    1UNL     H7   32  -0.337  -0.145   0.154
    1UNL     H8   33  -0.072  -0.299   0.211
    1UNL     H9   34  -0.180  -0.327   0.084
    1UNL    H10   35  -0.035  -0.076   0.143
    1UNL    H11   36   0.165  -0.209   0.066
    1UNL    H12   37   0.045   0.298   0.048
    1UNL    H13   38   0.259   0.378   0.178
    1UNL    H14   39   0.513   0.303   0.186
    1UNL    H15   40   0.569   0.060   0.182
    1UNL    H16   41   0.396  -0.097   0.078
    1UNL    H17   42   0.230  -0.330  -0.203
    1UNL    H18   43   0.072  -0.385  -0.255
    1UNL    H19   44   0.110  -0.408  -0.080
    1UNL    H20   45   0.052  -0.012  -0.237
    1UNL    H21   46   0.005  -0.167  -0.330
    1UNL    H22   47  -0.180  -0.022  -0.233
    1UNL    H23   48  -0.193  -0.196  -0.212
    1UNL    H24   49  -0.264  -0.086  -0.017
   0.00000   0.00000   0.00000   0.00000   0.00000   0.00000   0.00000   0.00000   0.00000
Generated with MDTraj, t= 76.0
 49
    1UNL     C1    1  -0.308   0.236  -0.263
    1UNL     O1    2  -0.255   0.136  -0.189
    1UNL     C2    3  -0.184   0.178  -0.077
    1UNL     O2    4  -0.156   0.290  -0.048
    1UNL     C3    5  -0.127   0.075   0.017
    1UNL     C4    6  -0.209   0.090   0.157
    1UNL     O3    7  -0.178  -0.017   0.252
    1UNL     C5    8  -0.246  -0.149   0.223
    1UNL     C6    9  -0.162  -0.247   0.130
    1UNL     C7   10  -0.067  -0.156   0.060
    1UNL     C8   11   0.082  -0.146   0.013
    1UNL     C9   12   0.110  -0.006   0.047
    1UNL    C10   13   0.017   0.097   0.042
    1UNL     N1   14   0.082   0.217   0.075
    1UNL    C11   15   0.217   0.196   0.086
    1UNL    C12   16   0.320   0.273   0.140
    1UNL    C13   17   0.440   0.206   0.160
    1UNL    C14   18   0.467   0.069   0.126
    1UNL    C15   19   0.362  -0.010   0.076
    1UNL    C16   20   0.236   0.055   0.071
    1UNL     N2   21   0.103  -0.174  -0.130
    1UNL    C17   22   0.141  -0.307  -0.160
    1UNL    C18   23   0.019  -0.088  -0.216
    1UNL    C19   24  -0.127  -0.098  -0.182
    1UNL    C20   25  -0.156  -0.065  -0.032
    1UNL     H1   26  -0.218   0.293  -0.294
    1UNL     H2   27  -0.371   0.296  -0.199
    1UNL     H3   28  -0.353   0.198  -0.353
    1UNL     H4   29  -0.317   0.080   0.135
    1UNL     H5   30  -0.195   0.188   0.205
    1UNL     H6   31  -0.258  -0.202   0.317
    1UNL     H7   32  -0.335  -0.132   0.176
    1UNL     H8   33  -0.095  -0.319   0.182
    1UNL     H9   34  -0.212  -0.316   0.065
    1UNL    H10   35  -0.040  -0.102   0.160
    1UNL    H11   36   0.144  -0.220   0.071
    1UNL    H12   37   0.018   0.294   0.098
    1UNL    H13   38   0.294   0.367   0.183
    1UNL    H14   39   0.516   0.266   0.207
    1UNL    H15   40   0.561   0.022   0.146
    1UNL    H16   41   0.369  -0.116   0.061
    1UNL    H17   42   0.223  -0.350  -0.091
    1UNL    H18   43   0.192  -0.303  -0.259
    1UNL    H19   44   0.049  -0.366  -0.170
    1UNL    H20   45   0.056   0.022  -0.207
    1UNL    H21   46   0.029  -0.117  -0.322
    1UNL    H22   47  -0.191  -0.043  -0.250
    1UNL    H23   48  -0.155  -0.198  -0.186
    1UNL    H24   49  -0.262  -0.092  -0.014
   0.00000   0.00000   0.00000   0.00000   0.00000   0.00000   0.00000   0.00000   0.00000
Generated with MDTraj, t= 77.0
 49
    1UNL     C1    1  -0.311   0.259  -0.270
    1UNL     O1    2  -0.254   0.151  -0.195
    1UNL     C2    3  -0.193   0.183  -0.074
    1UNL     O2    4  -0.182   0.293  -0.036
    1UNL     C3    5  -0.125   0.079   0.019
    1UNL     C4    6  -0.223   0.082   0.149
    1UNL     O3    7  -0.212  -0.033   0.240
    1UNL     C5    8  -0.254  -0.163   0.214
    1UNL     C6    9  -0.145  -0.252   0.144
    1UNL     C7   10  -0.064  -0.151   0.062
    1UNL     C8   11   0.084  -0.154   0.029
    1UNL     C9   12   0.113  -0.007   0.053
    1UNL    C10   13   0.020   0.094   0.061
    1UNL     N1   14   0.080   0.213   0.080
    1UNL    C11   15   0.218   0.187   0.098
    1UNL    C12   16   0.329   0.270   0.113
    1UNL    C13   17   0.458   0.222   0.123
    1UNL    C14   18   0.477   0.084   0.112
    1UNL    C15   19   0.368  -0.006   0.101
    1UNL    C16   20   0.240   0.050   0.090
    1UNL     N2   21   0.103  -0.193  -0.115
    1UNL    C17   22   0.111  -0.329  -0.170
    1UNL    C18   23   0.044  -0.092  -0.202
    1UNL    C19   24  -0.101  -0.077  -0.189
    1UNL    C20   25  -0.146  -0.067  -0.040
    1UNL     H1   26  -0.228   0.332  -0.257
    1UNL     H2   27  -0.398   0.304  -0.224
    1UNL     H3   28  -0.323   0.232  -0.373
    1UNL     H4   29  -0.329   0.101   0.117
    1UNL     H5   30  -0.194   0.172   0.206
    1UNL     H6   31  -0.277  -0.203   0.315
    1UNL     H7   32  -0.329  -0.154   0.149
    1UNL     H8   33  -0.094  -0.310   0.226
    1UNL     H9   34  -0.178  -0.328   0.076
    1UNL    H10   35  -0.052  -0.086   0.152
    1UNL    H11   36   0.152  -0.216   0.092
    1UNL    H12   37   0.035   0.292   0.031
    1UNL    H13   38   0.317   0.375   0.101
    1UNL    H14   39   0.538   0.295   0.132
    1UNL    H15   40   0.578   0.038   0.105
    1UNL    H16   41   0.375  -0.112   0.102
    1UNL    H17   42   0.176  -0.393  -0.102
    1UNL    H18   43   0.164  -0.337  -0.267
    1UNL    H19   44   0.006  -0.365  -0.177
    1UNL    H20   45   0.095   0.012  -0.183
    1UNL    H21   46   0.069  -0.116  -0.307
    1UNL    H22   47  -0.136   0.017  -0.224
    1UNL    H23   48  -0.156  -0.145  -0.245
    1UNL    H24   49  -0.255  -0.080  -0.027
   0.00000   0.00000   0.00000   0.00000   0.00000   0.00000   0.00000   0.00000   0.00000
Generated with MDTraj, t= 78.0
 49
    1UNL     C1    1  -0.288   0.289  -0.228
    1UNL     O1    2  -0.241   0.167  -0.170
    1UNL     C2    3  -0.170   0.187  -0.055
    1UNL     O2    4  -0.150   0.295  -0.008
    1UNL     C3    5  -0.122   0.072   0.022
    1UNL     C4    6  -0.217   0.065   0.155
    1UNL     O3    7  -0.231  -0.059   0.232
    1UNL     C5    8  -0.287  -0.180   0.172
    1UNL     C6    9  -0.179  -0.272   0.098
    1UNL     C7   10  -0.076  -0.164   0.061
    1UNL     C8   11   0.076  -0.157   0.041
    1UNL     C9   12   0.119  -0.007   0.058
    1UNL    C10   13   0.024   0.093   0.054
    1UNL     N1   14   0.086   0.214   0.050
    1UNL    C11   15   0.220   0.202   0.073
    1UNL    C12   16   0.321   0.295   0.088
    1UNL    C13   17   0.450   0.256   0.117
    1UNL    C14   18   0.472   0.118   0.107
    1UNL    C15   19   0.375   0.026   0.078
    1UNL    C16   20   0.245   0.062   0.066
    1UNL     N2   21   0.108  -0.212  -0.093
    1UNL    C17   22   0.078  -0.349  -0.105
    1UNL    C18   23   0.060  -0.121  -0.203
    1UNL    C19   24  -0.094  -0.092  -0.194
    1UNL    C20   25  -0.141  -0.070  -0.046
    1UNL     H1   26  -0.189   0.323  -0.270
    1UNL     H2   27  -0.316   0.364  -0.154
    1UNL     H3   28  -0.364   0.263  -0.301
    1UNL     H4   29  -0.314   0.113   0.122
    1UNL     H5   30  -0.175   0.132   0.230
    1UNL     H6   31  -0.319  -0.243   0.258
    1UNL     H7   32  -0.362  -0.148   0.115
    1UNL     H8   33  -0.155  -0.351   0.172
    1UNL     H9   34  -0.214  -0.326   0.011
    1UNL    H10   35  -0.079  -0.117   0.159
    1UNL    H11   36   0.126  -0.224   0.115
    1UNL    H12   37   0.028   0.297   0.071
    1UNL    H13   38   0.295   0.402   0.064
    1UNL    H14   39   0.535   0.320   0.134
    1UNL    H15   40   0.566   0.080   0.136
    1UNL    H16   41   0.398  -0.084   0.073
    1UNL    H17   42   0.144  -0.404  -0.036
    1UNL    H18   43   0.109  -0.386  -0.206
    1UNL    H19   44  -0.033  -0.362  -0.087
    1UNL    H20   45   0.118  -0.022  -0.193
    1UNL    H21   46   0.086  -0.161  -0.304
    1UNL    H22   47  -0.118  -0.005  -0.248
    1UNL    H23   48  -0.164  -0.160  -0.233
    1UNL    H24   49  -0.251  -0.082  -0.039
   0.00000   0.00000   0.00000   0.00000   0.00000   0.00000   0.00000   0.00000   0.00000
Generated with MDTraj, t= 79.0
 49
    1UNL     C1    1  -0.278   0.287  -0.233
    1UNL     O1    2  -0.240   0.166  -0.169
    1UNL     C2    3  -0.175   0.192  -0.052
    1UNL     O2    4  -0.165   0.302  -0.001
    1UNL     C3    5  -0.132   0.073   0.020
    1UNL     C4    6  -0.231   0.059   0.143
    1UNL     O3    7  -0.234  -0.053   0.227
    1UNL     C5    8  -0.285  -0.185   0.177
    1UNL     C6    9  -0.168  -0.261   0.119
    1UNL     C7   10  -0.074  -0.159   0.054
    1UNL     C8   11   0.080  -0.151   0.044
    1UNL     C9   12   0.112  -0.002   0.071
    1UNL    C10   13   0.015   0.100   0.063
    1UNL     N1   14   0.070   0.223   0.085
    1UNL    C11   15   0.208   0.201   0.082
    1UNL    C12   16   0.319   0.290   0.079
    1UNL    C13   17   0.443   0.227   0.080
    1UNL    C14   18   0.469   0.087   0.075
    1UNL    C15   19   0.366   0.005   0.065
    1UNL    C16   20   0.236   0.065   0.086
    1UNL     N2   21   0.130  -0.206  -0.090
    1UNL    C17   22   0.097  -0.349  -0.107
    1UNL    C18   23   0.081  -0.115  -0.196
    1UNL    C19   24  -0.072  -0.073  -0.192
    1UNL    C20   25  -0.140  -0.068  -0.057
    1UNL     H1   26  -0.184   0.349  -0.227
    1UNL     H2   27  -0.352   0.343  -0.175
    1UNL     H3   28  -0.314   0.256  -0.332
    1UNL     H4   29  -0.338   0.071   0.103
    1UNL     H5   30  -0.220   0.150   0.199
    1UNL     H6   31  -0.336  -0.238   0.260
    1UNL     H7   32  -0.353  -0.167   0.102
    1UNL     H8   33  -0.110  -0.314   0.197
    1UNL     H9   34  -0.198  -0.345   0.055
    1UNL    H10   35  -0.067  -0.092   0.144
    1UNL    H11   36   0.117  -0.222   0.121
    1UNL    H12   37   0.019   0.311   0.068
    1UNL    H13   38   0.309   0.392   0.087
    1UNL    H14   39   0.527   0.292   0.103
    1UNL    H15   40   0.571   0.047   0.083
    1UNL    H16   41   0.374  -0.096   0.056
    1UNL    H17   42   0.096  -0.399  -0.011
    1UNL    H18   43   0.179  -0.404  -0.161
    1UNL    H19   44  -0.003  -0.357  -0.160
    1UNL    H20   45   0.146  -0.022  -0.195
    1UNL    H21   46   0.097  -0.163  -0.296
    1UNL    H22   47  -0.084   0.026  -0.224
    1UNL    H23   48  -0.124  -0.133  -0.261
    1UNL    H24   49  -0.248  -0.090  -0.079
   0.00000   0.00000   0.00000   0.00000   0.00000   0.00000   0.00000   0.00000   0.00000
Generated with MDTraj, t= 80.0
 49
    1UNL     C1    1  -0.275   0.262  -0.259
    1UNL     O1    2  -0.224   0.154  -0.184
    1UNL     C2    3  -0.177   0.193  -0.063
    1UNL     O2    4  -0.165   0.309  -0.025
    1UNL     C3    5  -0.134   0.069   0.033
    1UNL     C4    6  -0.233   0.067   0.156
    1UNL     O3    7  -0.243  -0.050   0.231
    1UNL     C5    8  -0.292  -0.183   0.182
    1UNL     C6    9  -0.175  -0.272   0.128
    1UNL     C7   10  -0.086  -0.164   0.066
    1UNL     C8   11   0.071  -0.162   0.053
    1UNL     C9   12   0.110  -0.015   0.090
    1UNL    C10   13   0.016   0.088   0.078
    1UNL     N1   14   0.081   0.212   0.094
    1UNL    C11   15   0.219   0.191   0.095
    1UNL    C12   16   0.324   0.281   0.081
    1UNL    C13   17   0.447   0.228   0.062
    1UNL    C14   18   0.468   0.087   0.061
    1UNL    C15   19   0.367  -0.003   0.071
    1UNL    C16   20   0.238   0.046   0.101
    1UNL     N2   21   0.116  -0.171  -0.087
    1UNL    C17   22   0.125  -0.312  -0.149
    1UNL    C18   23   0.075  -0.068  -0.184
    1UNL    C19   24  -0.082  -0.076  -0.186
    1UNL    C20   25  -0.147  -0.068  -0.038
    1UNL     H1   26  -0.204   0.349  -0.252
    1UNL     H2   27  -0.364   0.293  -0.205
    1UNL     H3   28  -0.296   0.221  -0.357
    1UNL     H4   29  -0.334   0.094   0.112
    1UNL     H5   30  -0.214   0.160   0.207
    1UNL     H6   31  -0.344  -0.228   0.268
    1UNL     H7   32  -0.363  -0.157   0.108
    1UNL     H8   33  -0.122  -0.339   0.196
    1UNL     H9   34  -0.199  -0.342   0.044
    1UNL    H10   35  -0.077  -0.098   0.159
    1UNL    H11   36   0.135  -0.230   0.113
    1UNL    H12   37   0.041   0.299   0.062
    1UNL    H13   38   0.309   0.392   0.079
    1UNL    H14   39   0.532   0.287   0.034
    1UNL    H15   40   0.564   0.052   0.031
    1UNL    H16   41   0.372  -0.112   0.041
    1UNL    H17   42   0.224  -0.356  -0.142
    1UNL    H18   43   0.111  -0.308  -0.260
    1UNL    H19   44   0.045  -0.380  -0.110
    1UNL    H20   45   0.106   0.036  -0.151
    1UNL    H21   46   0.116  -0.089  -0.287
    1UNL    H22   47  -0.112   0.006  -0.239
    1UNL    H23   48  -0.114  -0.162  -0.237
    1UNL    H24   49  -0.252  -0.101  -0.051
   0.00000   0.00000   0.00000   0.00000   0.00000   0.00000   0.00000   0.00000   0.00000
Generated with MDTraj, t= 81.0
 49
    1UNL     C1    1  -0.247   0.274  -0.260
    1UNL     O1    2  -0.252   0.165  -0.172
    1UNL     C2    3  -0.177   0.193  -0.058
    1UNL     O2    4  -0.136   0.306  -0.030
    1UNL     C3    5  -0.136   0.071   0.030
    1UNL     C4    6  -0.224   0.059   0.154
    1UNL     O3    7  -0.230  -0.064   0.237
    1UNL     C5    8  -0.287  -0.187   0.192
    1UNL     C6    9  -0.186  -0.270   0.117
    1UNL     C7   10  -0.088  -0.165   0.062
    1UNL     C8   11   0.075  -0.156   0.045
    1UNL     C9   12   0.107  -0.014   0.075
    1UNL    C10   13   0.014   0.090   0.076
    1UNL     N1   14   0.078   0.216   0.078
    1UNL    C11   15   0.212   0.190   0.081
    1UNL    C12   16   0.321   0.276   0.085
    1UNL    C13   17   0.452   0.236   0.083
    1UNL    C14   18   0.475   0.100   0.086
    1UNL    C15   19   0.374   0.007   0.084
    1UNL    C16   20   0.236   0.053   0.078
    1UNL     N2   21   0.117  -0.172  -0.097
    1UNL    C17   22   0.136  -0.311  -0.137
    1UNL    C18   23   0.045  -0.092  -0.192
    1UNL    C19   24  -0.109  -0.089  -0.188
    1UNL    C20   25  -0.154  -0.071  -0.037
    1UNL     H1   26  -0.149   0.292  -0.311
    1UNL     H2   27  -0.275   0.357  -0.195
    1UNL     H3   28  -0.320   0.244  -0.331
    1UNL     H4   29  -0.330   0.084   0.125
    1UNL     H5   30  -0.203   0.148   0.209
    1UNL     H6   31  -0.306  -0.234   0.289
    1UNL     H7   32  -0.381  -0.166   0.142
    1UNL     H8   33  -0.121  -0.334   0.176
    1UNL     H9   34  -0.233  -0.338   0.041
    1UNL    H10   35  -0.085  -0.103   0.158
    1UNL    H11   36   0.125  -0.228   0.112
    1UNL    H12   37   0.044   0.312   0.065
    1UNL    H13   38   0.304   0.380   0.076
    1UNL    H14   39   0.526   0.310   0.055
    1UNL    H15   40   0.581   0.073   0.085
    1UNL    H16   41   0.397  -0.095   0.070
    1UNL    H17   42   0.205  -0.364  -0.069
    1UNL    H18   43   0.185  -0.325  -0.236
    1UNL    H19   44   0.038  -0.358  -0.138
    1UNL    H20   45   0.069   0.014  -0.167
    1UNL    H21   46   0.088  -0.115  -0.295
    1UNL    H22   47  -0.151  -0.023  -0.257
    1UNL    H23   48  -0.143  -0.184  -0.214
    1UNL    H24   49  -0.265  -0.086  -0.042
   0.00000   0.00000   0.00000   0.00000   0.00000   0.00000   0.00000   0.00000   0.00000
Generated with MDTraj, t= 82.0
 49
    1UNL     C1    1  -0.291   0.277  -0.242
    1UNL     O1    2  -0.254   0.158  -0.173
    1UNL     C2    3  -0.180   0.191  -0.061
    1UNL     O2    4  -0.169   0.307  -0.020
    1UNL     C3    5  -0.131   0.075   0.018
    1UNL     C4    6  -0.221   0.071   0.142
    1UNL     O3    7  -0.218  -0.040   0.238
    1UNL     C5    8  -0.269  -0.163   0.197
    1UNL     C6    9  -0.151  -0.257   0.144
    1UNL     C7   10  -0.070  -0.159   0.056
    1UNL     C8   11   0.081  -0.156   0.025
    1UNL     C9   12   0.115  -0.007   0.034
    1UNL    C10   13   0.015   0.095   0.047
    1UNL     N1   14   0.077   0.212   0.092
    1UNL    C11   15   0.215   0.197   0.087
    1UNL    C12   16   0.323   0.283   0.111
    1UNL    C13   17   0.448   0.228   0.122
    1UNL    C14   18   0.471   0.095   0.105
    1UNL    C15   19   0.366   0.007   0.084
    1UNL    C16   20   0.238   0.059   0.065
    1UNL     N2   21   0.122  -0.198  -0.109
    1UNL    C17   22   0.090  -0.345  -0.143
    1UNL    C18   23   0.059  -0.122  -0.212
    1UNL    C19   24  -0.089  -0.091  -0.192
    1UNL    C20   25  -0.138  -0.067  -0.046
    1UNL     H1   26  -0.214   0.320  -0.311
    1UNL     H2   27  -0.324   0.345  -0.163
    1UNL     H3   28  -0.369   0.245  -0.308
    1UNL     H4   29  -0.324   0.085   0.099
    1UNL     H5   30  -0.218   0.159   0.203
    1UNL     H6   31  -0.329  -0.207   0.273
    1UNL     H7   32  -0.338  -0.131   0.117
    1UNL     H8   33  -0.081  -0.301   0.215
    1UNL     H9   34  -0.205  -0.338   0.089
    1UNL    H10   35  -0.065  -0.091   0.147
    1UNL    H11   36   0.146  -0.211   0.095
    1UNL    H12   37   0.024   0.300   0.093
    1UNL    H13   38   0.309   0.388   0.120
    1UNL    H14   39   0.522   0.292   0.169
    1UNL    H15   40   0.567   0.050   0.126
    1UNL    H16   41   0.371  -0.095   0.119
    1UNL    H17   42   0.078  -0.415  -0.056
    1UNL    H18   43   0.171  -0.390  -0.201
    1UNL    H19   44  -0.000  -0.346  -0.202
    1UNL    H20   45   0.123  -0.032  -0.212
    1UNL    H21   46   0.079  -0.169  -0.315
    1UNL    H22   47  -0.111  -0.003  -0.248
    1UNL    H23   48  -0.153  -0.159  -0.237
    1UNL    H24   49  -0.249  -0.086  -0.047
   0.00000   0.00000   0.00000   0.00000   0.00000   0.00000   0.00000   0.00000   0.00000
Generated with MDTraj, t= 83.0
 49
    1UNL     C1    1  -0.342   0.249  -0.234
    1UNL     O1    2  -0.248   0.149  -0.190
    1UNL     C2    3  -0.180   0.191  -0.083
    1UNL     O2    4  -0.171   0.307  -0.044
    1UNL     C3    5  -0.126   0.078   0.015
    1UNL     C4    6  -0.196   0.077   0.157
    1UNL     O3    7  -0.187  -0.043   0.239
    1UNL     C5    8  -0.262  -0.164   0.209
    1UNL     C6    9  -0.170  -0.258   0.123
    1UNL     C7   10  -0.069  -0.151   0.057
    1UNL     C8   11   0.089  -0.145   0.021
    1UNL     C9   12   0.124   0.006   0.037
    1UNL    C10   13   0.028   0.100   0.029
    1UNL     N1   14   0.091   0.217   0.055
    1UNL    C11   15   0.223   0.193   0.099
    1UNL    C12   16   0.321   0.278   0.150
    1UNL    C13   17   0.449   0.230   0.157
    1UNL    C14   18   0.479   0.093   0.129
    1UNL    C15   19   0.383   0.009   0.088
    1UNL    C16   20   0.254   0.060   0.070
    1UNL     N2   21   0.102  -0.199  -0.118
    1UNL    C17   22   0.059  -0.343  -0.135
    1UNL    C18   23   0.044  -0.112  -0.216
    1UNL    C19   24  -0.105  -0.096  -0.194
    1UNL    C20   25  -0.142  -0.067  -0.049
    1UNL     H1   26  -0.317   0.356  -0.207
    1UNL     H2   27  -0.437   0.224  -0.186
    1UNL     H3   28  -0.344   0.251  -0.342
    1UNL     H4   29  -0.301   0.113   0.167
    1UNL     H5   30  -0.152   0.157   0.212
    1UNL     H6   31  -0.293  -0.209   0.297
    1UNL     H7   32  -0.353  -0.131   0.155
    1UNL     H8   33  -0.111  -0.318   0.194
    1UNL     H9   34  -0.223  -0.322   0.048
    1UNL    H10   35  -0.059  -0.093   0.149
    1UNL    H11   36   0.146  -0.218   0.081
    1UNL    H12   37   0.044   0.307   0.068
    1UNL    H13   38   0.296   0.383   0.180
    1UNL    H14   39   0.532   0.284   0.196
    1UNL    H15   40   0.571   0.053   0.171
    1UNL    H16   41   0.402  -0.101   0.089
    1UNL    H17   42   0.143  -0.414  -0.113
    1UNL    H18   43   0.030  -0.364  -0.236
    1UNL    H19   44  -0.029  -0.358  -0.071
    1UNL    H20   45   0.088  -0.014  -0.200
    1UNL    H21   46   0.088  -0.150  -0.317
    1UNL    H22   47  -0.146  -0.021  -0.260
    1UNL    H23   48  -0.156  -0.179  -0.229
    1UNL    H24   49  -0.252  -0.093  -0.046
   0.00000   0.00000   0.00000   0.00000   0.00000   0.00000   0.00000   0.00000   0.00000
Generated with MDTraj, t= 84.0
 49
    1UNL     C1    1  -0.318   0.259  -0.249
    1UNL     O1    2  -0.295   0.151  -0.163
    1UNL     C2    3  -0.186   0.184  -0.081
    1UNL     O2    4  -0.141   0.296  -0.066
    1UNL     C3    5  -0.129   0.073   0.011
    1UNL     C4    6  -0.208   0.073   0.150
    1UNL     O3    7  -0.189  -0.026   0.254
    1UNL     C5    8  -0.240  -0.156   0.226
    1UNL     C6    9  -0.143  -0.248   0.155
    1UNL     C7   10  -0.065  -0.154   0.057
    1UNL     C8   11   0.083  -0.148   0.007
    1UNL     C9   12   0.124  -0.005   0.033
    1UNL    C10   13   0.024   0.095   0.020
    1UNL     N1   14   0.091   0.213   0.051
    1UNL    C11   15   0.224   0.192   0.080
    1UNL    C12   16   0.325   0.277   0.138
    1UNL    C13   17   0.444   0.221   0.171
    1UNL    C14   18   0.466   0.081   0.158
    1UNL    C15   19   0.368  -0.002   0.113
    1UNL    C16   20   0.246   0.054   0.077
    1UNL     N2   21   0.103  -0.184  -0.137
    1UNL    C17   22   0.109  -0.333  -0.167
    1UNL    C18   23   0.025  -0.098  -0.229
    1UNL    C19   24  -0.128  -0.095  -0.183
    1UNL    C20   25  -0.156  -0.069  -0.038
    1UNL     H1   26  -0.270   0.356  -0.218
    1UNL     H2   27  -0.422   0.280  -0.271
    1UNL     H3   28  -0.262   0.238  -0.339
    1UNL     H4   29  -0.317   0.062   0.134
    1UNL     H5   30  -0.216   0.164   0.205
    1UNL     H6   31  -0.283  -0.187   0.311
    1UNL     H7   32  -0.327  -0.159   0.156
    1UNL     H8   33  -0.076  -0.290   0.234
    1UNL     H9   34  -0.191  -0.330   0.097
    1UNL    H10   35  -0.040  -0.083   0.139
    1UNL    H11   36   0.143  -0.221   0.061
    1UNL    H12   37   0.033   0.297   0.033
    1UNL    H13   38   0.307   0.377   0.140
    1UNL    H14   39   0.533   0.285   0.180
    1UNL    H15   40   0.563   0.037   0.172
    1UNL    H16   41   0.381  -0.100   0.084
    1UNL    H17   42   0.152  -0.387  -0.083
    1UNL    H18   43   0.179  -0.353  -0.247
    1UNL    H19   44   0.010  -0.370  -0.194
    1UNL    H20   45   0.080  -0.005  -0.222
    1UNL    H21   46   0.034  -0.138  -0.336
    1UNL    H22   47  -0.173  -0.019  -0.247
    1UNL    H23   48  -0.178  -0.180  -0.213
    1UNL    H24   49  -0.264  -0.105  -0.023
   0.00000   0.00000   0.00000   0.00000   0.00000   0.00000   0.00000   0.00000   0.00000
Generated with MDTraj, t= 85.0
 49
    1UNL     C1    1  -0.326   0.253  -0.224
    1UNL     O1    2  -0.284   0.148  -0.148
    1UNL     C2    3  -0.168   0.181  -0.080
    1UNL     O2    4  -0.096   0.274  -0.105
    1UNL     C3    5  -0.132   0.074   0.016
    1UNL     C4    6  -0.214   0.083   0.144
    1UNL     O3    7  -0.178  -0.019   0.246
    1UNL     C5    8  -0.252  -0.144   0.229
    1UNL     C6    9  -0.161  -0.247   0.142
    1UNL     C7   10  -0.060  -0.161   0.050
    1UNL     C8   11   0.089  -0.151   0.004
    1UNL     C9   12   0.110  -0.008   0.033
    1UNL    C10   13   0.016   0.091   0.050
    1UNL     N1   14   0.075   0.212   0.079
    1UNL    C11   15   0.213   0.190   0.090
    1UNL    C12   16   0.317   0.276   0.124
    1UNL    C13   17   0.441   0.225   0.153
    1UNL    C14   18   0.465   0.083   0.152
    1UNL    C15   19   0.366  -0.002   0.108
    1UNL    C16   20   0.234   0.050   0.087
    1UNL     N2   21   0.106  -0.179  -0.143
    1UNL    C17   22   0.126  -0.329  -0.166
    1UNL    C18   23   0.021  -0.086  -0.227
    1UNL    C19   24  -0.130  -0.094  -0.185
    1UNL    C20   25  -0.153  -0.072  -0.038
    1UNL     H1   26  -0.376   0.334  -0.164
    1UNL     H2   27  -0.391   0.220  -0.303
    1UNL     H3   28  -0.241   0.303  -0.266
    1UNL     H4   29  -0.322   0.069   0.131
    1UNL     H5   30  -0.214   0.178   0.196
    1UNL     H6   31  -0.290  -0.188   0.311
    1UNL     H7   32  -0.349  -0.116   0.184
    1UNL     H8   33  -0.111  -0.309   0.222
    1UNL     H9   34  -0.211  -0.318   0.075
    1UNL    H10   35  -0.039  -0.092   0.137
    1UNL    H11   36   0.155  -0.210   0.068
    1UNL    H12   37   0.027   0.302   0.071
    1UNL    H13   38   0.301   0.388   0.120
    1UNL    H14   39   0.527   0.289   0.161
    1UNL    H15   40   0.566   0.047   0.146
    1UNL    H16   41   0.385  -0.110   0.079
    1UNL    H17   42   0.219  -0.354  -0.121
    1UNL    H18   43   0.145  -0.348  -0.272
    1UNL    H19   44   0.044  -0.392  -0.132
    1UNL    H20   45   0.055   0.014  -0.209
    1UNL    H21   46   0.048  -0.121  -0.333
    1UNL    H22   47  -0.186  -0.021  -0.242
    1UNL    H23   48  -0.171  -0.184  -0.218
    1UNL    H24   49  -0.267  -0.088  -0.027
   0.00000   0.00000   0.00000   0.00000   0.00000   0.00000   0.00000   0.00000   0.00000
Generated with MDTraj, t= 86.0
 49
    1UNL     C1    1  -0.354   0.255  -0.224
    1UNL     O1    2  -0.305   0.159  -0.140
    1UNL     C2    3  -0.185   0.192  -0.085
    1UNL     O2    4  -0.114   0.282  -0.119
    1UNL     C3    5  -0.120   0.082   0.016
    1UNL     C4    6  -0.219   0.088   0.142
    1UNL     O3    7  -0.217  -0.037   0.225
    1UNL     C5    8  -0.268  -0.161   0.180
    1UNL     C6    9  -0.165  -0.253   0.129
    1UNL     C7   10  -0.061  -0.156   0.068
    1UNL     C8   11   0.091  -0.154   0.026
    1UNL     C9   12   0.123  -0.010   0.046
    1UNL    C10   13   0.029   0.090   0.052
    1UNL     N1   14   0.093   0.209   0.081
    1UNL    C11   15   0.222   0.187   0.113
    1UNL    C12   16   0.323   0.275   0.147
    1UNL    C13   17   0.453   0.227   0.148
    1UNL    C14   18   0.483   0.098   0.106
    1UNL    C15   19   0.380   0.005   0.072
    1UNL    C16   20   0.249   0.050   0.080
    1UNL     N2   21   0.112  -0.192  -0.116
    1UNL    C17   22   0.088  -0.336  -0.144
    1UNL    C18   23   0.046  -0.084  -0.203
    1UNL    C19   24  -0.098  -0.092  -0.177
    1UNL    C20   25  -0.137  -0.065  -0.034
    1UNL     H1   26  -0.365   0.353  -0.170
    1UNL     H2   27  -0.443   0.223  -0.278
    1UNL     H3   28  -0.277   0.278  -0.295
    1UNL     H4   29  -0.326   0.092   0.113
    1UNL     H5   30  -0.218   0.171   0.214
    1UNL     H6   31  -0.299  -0.199   0.269
    1UNL     H7   32  -0.361  -0.155   0.121
    1UNL     H8   33  -0.118  -0.317   0.211
    1UNL     H9   34  -0.209  -0.325   0.059
    1UNL    H10   35  -0.039  -0.092   0.158
    1UNL    H11   36   0.151  -0.217   0.092
    1UNL    H12   37   0.063   0.303   0.056
    1UNL    H13   38   0.304   0.371   0.189
    1UNL    H14   39   0.534   0.291   0.184
    1UNL    H15   40   0.575   0.051   0.140
    1UNL    H16   41   0.393  -0.098   0.059
    1UNL    H17   42   0.174  -0.390  -0.114
    1UNL    H18   43   0.074  -0.356  -0.251
    1UNL    H19   44   0.001  -0.372  -0.091
    1UNL    H20   45   0.094   0.007  -0.169
    1UNL    H21   46   0.066  -0.100  -0.313
    1UNL    H22   47  -0.158  -0.053  -0.258
    1UNL    H23   48  -0.129  -0.194  -0.185
    1UNL    H24   49  -0.249  -0.090  -0.034
   0.00000   0.00000   0.00000   0.00000   0.00000   0.00000   0.00000   0.00000   0.00000
Generated with MDTraj, t= 87.0
 49
    1UNL     C1    1  -0.349   0.265  -0.219
    1UNL     O1    2  -0.306   0.173  -0.122
    1UNL     C2    3  -0.178   0.195  -0.068
    1UNL     O2    4  -0.109   0.290  -0.100
    1UNL     C3    5  -0.125   0.080   0.021
    1UNL     C4    6  -0.225   0.067   0.139
    1UNL     O3    7  -0.224  -0.048   0.234
    1UNL     C5    8  -0.272  -0.171   0.179
    1UNL     C6    9  -0.156  -0.262   0.106
    1UNL     C7   10  -0.069  -0.153   0.052
    1UNL     C8   11   0.089  -0.152   0.031
    1UNL     C9   12   0.114  -0.006   0.046
    1UNL    C10   13   0.018   0.098   0.060
    1UNL     N1   14   0.079   0.219   0.077
    1UNL    C11   15   0.214   0.191   0.090
    1UNL    C12   16   0.321   0.278   0.119
    1UNL    C13   17   0.452   0.229   0.123
    1UNL    C14   18   0.480   0.092   0.101
    1UNL    C15   19   0.376   0.003   0.083
    1UNL    C16   20   0.243   0.058   0.074
    1UNL     N2   21   0.117  -0.212  -0.100
    1UNL    C17   22   0.085  -0.359  -0.111
    1UNL    C18   23   0.076  -0.110  -0.207
    1UNL    C19   24  -0.068  -0.057  -0.187
    1UNL    C20   25  -0.137  -0.053  -0.043
    1UNL     H1   26  -0.288   0.358  -0.206
    1UNL     H2   27  -0.458   0.275  -0.229
    1UNL     H3   28  -0.325   0.224  -0.315
    1UNL     H4   29  -0.332   0.085   0.122
    1UNL     H5   30  -0.204   0.151   0.207
    1UNL     H6   31  -0.310  -0.219   0.261
    1UNL     H7   32  -0.358  -0.147   0.113
    1UNL     H8   33  -0.094  -0.328   0.175
    1UNL     H9   34  -0.194  -0.323   0.023
    1UNL    H10   35  -0.061  -0.102   0.151
    1UNL    H11   36   0.149  -0.202   0.106
    1UNL    H12   37   0.030   0.308   0.063
    1UNL    H13   38   0.303   0.383   0.129
    1UNL    H14   39   0.526   0.290   0.171
    1UNL    H15   40   0.575   0.047   0.128
    1UNL    H16   41   0.386  -0.107   0.098
    1UNL    H17   42   0.059  -0.399  -0.015
    1UNL    H18   43   0.171  -0.416  -0.143
    1UNL    H19   44   0.006  -0.377  -0.180
    1UNL    H20   45   0.151  -0.029  -0.198
    1UNL    H21   46   0.101  -0.163  -0.300
    1UNL    H22   47  -0.083   0.049  -0.211
    1UNL    H23   48  -0.130  -0.091  -0.267
    1UNL    H24   49  -0.249  -0.077  -0.051
   0.00000   0.00000   0.00000   0.00000   0.00000   0.00000   0.00000   0.00000   0.00000
Generated with MDTraj, t= 88.0
 49
    1UNL     C1    1  -0.335   0.285  -0.175
    1UNL     O1    2  -0.288   0.169  -0.124
    1UNL     C2    3  -0.167   0.181  -0.072
    1UNL     O2    4  -0.095   0.277  -0.086
    1UNL     C3    5  -0.129   0.062   0.019
    1UNL     C4    6  -0.222   0.068   0.140
    1UNL     O3    7  -0.245  -0.046   0.225
    1UNL     C5    8  -0.294  -0.173   0.169
    1UNL     C6    9  -0.186  -0.255   0.107
    1UNL     C7   10  -0.079  -0.161   0.056
    1UNL     C8   11   0.083  -0.155   0.038
    1UNL     C9   12   0.117  -0.007   0.069
    1UNL    C10   13   0.018   0.086   0.057
    1UNL     N1   14   0.084   0.208   0.067
    1UNL    C11   15   0.223   0.197   0.072
    1UNL    C12   16   0.329   0.286   0.081
    1UNL    C13   17   0.455   0.240   0.091
    1UNL    C14   18   0.470   0.097   0.110
    1UNL    C15   19   0.369   0.009   0.116
    1UNL    C16   20   0.243   0.056   0.086
    1UNL     N2   21   0.133  -0.188  -0.095
    1UNL    C17   22   0.106  -0.324  -0.122
    1UNL    C18   23   0.070  -0.090  -0.194
    1UNL    C19   24  -0.078  -0.096  -0.194
    1UNL    C20   25  -0.137  -0.076  -0.056
    1UNL     H1   26  -0.337   0.357  -0.088
    1UNL     H2   27  -0.424   0.263  -0.236
    1UNL     H3   28  -0.264   0.320  -0.249
    1UNL     H4   29  -0.323   0.102   0.109
    1UNL     H5   30  -0.196   0.151   0.211
    1UNL     H6   31  -0.347  -0.232   0.239
    1UNL     H7   32  -0.360  -0.135   0.088
    1UNL     H8   33  -0.142  -0.329   0.181
    1UNL     H9   34  -0.236  -0.311   0.025
    1UNL    H10   35  -0.082  -0.099   0.150
    1UNL    H11   36   0.135  -0.223   0.105
    1UNL    H12   37   0.031   0.293   0.056
    1UNL    H13   38   0.312   0.390   0.044
    1UNL    H14   39   0.546   0.295   0.070
    1UNL    H15   40   0.568   0.054   0.107
    1UNL    H16   41   0.370  -0.097   0.124
    1UNL    H17   42   0.163  -0.383  -0.050
    1UNL    H18   43   0.138  -0.356  -0.217
    1UNL    H19   44   0.002  -0.341  -0.111
    1UNL    H20   45   0.111   0.012  -0.170
    1UNL    H21   46   0.105  -0.126  -0.291
    1UNL    H22   47  -0.113  -0.022  -0.267
    1UNL    H23   48  -0.121  -0.188  -0.231
    1UNL    H24   49  -0.249  -0.097  -0.072
   0.00000   0.00000   0.00000   0.00000   0.00000   0.00000   0.00000   0.00000   0.00000
Generated with MDTraj, t= 89.0
 49
    1UNL     C1    1  -0.353   0.279  -0.203
    1UNL     O1    2  -0.310   0.170  -0.122
    1UNL     C2    3  -0.177   0.182  -0.076
    1UNL     O2    4  -0.103   0.276  -0.100
    1UNL     C3    5  -0.132   0.078   0.023
    1UNL     C4    6  -0.237   0.067   0.137
    1UNL     O3    7  -0.252  -0.042   0.227
    1UNL     C5    8  -0.292  -0.176   0.182
    1UNL     C6    9  -0.170  -0.261   0.122
    1UNL     C7   10  -0.077  -0.155   0.062
    1UNL     C8   11   0.079  -0.149   0.048
    1UNL     C9   12   0.110  -0.003   0.077
    1UNL    C10   13   0.020   0.103   0.049
    1UNL     N1   14   0.087   0.219   0.077
    1UNL    C11   15   0.220   0.189   0.094
    1UNL    C12   16   0.334   0.269   0.097
    1UNL    C13   17   0.459   0.213   0.082
    1UNL    C14   18   0.476   0.073   0.094
    1UNL    C15   19   0.370  -0.008   0.103
    1UNL    C16   20   0.241   0.054   0.095
    1UNL     N2   21   0.128  -0.184  -0.090
    1UNL    C17   22   0.145  -0.321  -0.138
    1UNL    C18   23   0.084  -0.087  -0.191
    1UNL    C19   24  -0.075  -0.077  -0.199
    1UNL    C20   25  -0.138  -0.060  -0.053
    1UNL     H1   26  -0.426   0.333  -0.136
    1UNL     H2   27  -0.391   0.244  -0.299
    1UNL     H3   28  -0.269   0.342  -0.227
    1UNL     H4   29  -0.337   0.089   0.099
    1UNL     H5   30  -0.222   0.156   0.203
    1UNL     H6   31  -0.330  -0.218   0.273
    1UNL     H7   32  -0.371  -0.167   0.108
    1UNL     H8   33  -0.114  -0.314   0.203
    1UNL     H9   34  -0.191  -0.343   0.048
    1UNL    H10   35  -0.083  -0.090   0.153
    1UNL    H11   36   0.129  -0.220   0.112
    1UNL    H12   37   0.069   0.306   0.025
    1UNL    H13   38   0.321   0.371   0.103
    1UNL    H14   39   0.539   0.268   0.035
    1UNL    H15   40   0.576   0.027   0.089
    1UNL    H16   41   0.372  -0.115   0.098
    1UNL    H17   42   0.245  -0.326  -0.179
    1UNL    H18   43   0.082  -0.340  -0.219
    1UNL    H19   44   0.126  -0.396  -0.064
    1UNL    H20   45   0.130   0.010  -0.154
    1UNL    H21   46   0.121  -0.122  -0.285
    1UNL    H22   47  -0.099   0.012  -0.257
    1UNL    H23   48  -0.112  -0.162  -0.257
    1UNL    H24   49  -0.246  -0.084  -0.081
   0.00000   0.00000   0.00000   0.00000   0.00000   0.00000   0.00000   0.00000   0.00000
Generated with MDTraj, t= 90.0
 49
    1UNL     C1    1  -0.339   0.247  -0.225
    1UNL     O1    2  -0.296   0.159  -0.127
    1UNL     C2    3  -0.172   0.186  -0.076
    1UNL     O2    4  -0.101   0.283  -0.100
    1UNL     C3    5  -0.127   0.080   0.026
    1UNL     C4    6  -0.219   0.077   0.157
    1UNL     O3    7  -0.226  -0.050   0.233
    1UNL     C5    8  -0.283  -0.175   0.182
    1UNL     C6    9  -0.184  -0.258   0.098
    1UNL     C7   10  -0.084  -0.149   0.059
    1UNL     C8   11   0.069  -0.152   0.046
    1UNL     C9   12   0.111  -0.008   0.069
    1UNL    C10   13   0.020   0.099   0.048
    1UNL     N1   14   0.085   0.216   0.085
    1UNL    C11   15   0.222   0.192   0.090
    1UNL    C12   16   0.329   0.278   0.109
    1UNL    C13   17   0.454   0.221   0.109
    1UNL    C14   18   0.474   0.085   0.098
    1UNL    C15   19   0.370  -0.003   0.073
    1UNL    C16   20   0.242   0.052   0.084
    1UNL     N2   21   0.116  -0.185  -0.099
    1UNL    C17   22   0.131  -0.332  -0.128
    1UNL    C18   23   0.072  -0.086  -0.199
    1UNL    C19   24  -0.084  -0.071  -0.189
    1UNL    C20   25  -0.146  -0.053  -0.040
    1UNL     H1   26  -0.388   0.331  -0.167
    1UNL     H2   27  -0.414   0.203  -0.289
    1UNL     H3   28  -0.253   0.273  -0.285
    1UNL     H4   29  -0.315   0.104   0.115
    1UNL     H5   30  -0.202   0.162   0.229
    1UNL     H6   31  -0.315  -0.231   0.268
    1UNL     H7   32  -0.366  -0.145   0.125
    1UNL     H8   33  -0.142  -0.339   0.161
    1UNL     H9   34  -0.208  -0.311  -0.000
    1UNL    H10   35  -0.081  -0.087   0.153
    1UNL    H11   36   0.120  -0.222   0.111
    1UNL    H12   37   0.036   0.306   0.084
    1UNL    H13   38   0.312   0.385   0.136
    1UNL    H14   39   0.533   0.291   0.134
    1UNL    H15   40   0.571   0.044   0.102
    1UNL    H16   41   0.377  -0.113   0.079
    1UNL    H17   42   0.087  -0.346  -0.223
    1UNL    H18   43   0.080  -0.393  -0.059
    1UNL    H19   44   0.234  -0.361  -0.128
    1UNL    H20   45   0.120   0.012  -0.168
    1UNL    H21   46   0.105  -0.124  -0.292
    1UNL    H22   47  -0.101   0.025  -0.236
    1UNL    H23   48  -0.130  -0.149  -0.251
    1UNL    H24   49  -0.256  -0.070  -0.060
   0.00000   0.00000   0.00000   0.00000   0.00000   0.00000   0.00000   0.00000   0.00000
Generated with MDTraj, t= 91.0
 49
    1UNL     C1    1  -0.315   0.268  -0.234
    1UNL     O1    2  -0.275   0.167  -0.149
    1UNL     C2    3  -0.165   0.191  -0.071
    1UNL     O2    4  -0.113   0.302  -0.067
    1UNL     C3    5  -0.122   0.065   0.013
    1UNL     C4    6  -0.217   0.079   0.137
    1UNL     O3    7  -0.222  -0.041   0.226
    1UNL     C5    8  -0.273  -0.170   0.182
    1UNL     C6    9  -0.153  -0.254   0.131
    1UNL     C7   10  -0.060  -0.156   0.061
    1UNL     C8   11   0.091  -0.153   0.026
    1UNL     C9   12   0.121  -0.009   0.046
    1UNL    C10   13   0.023   0.083   0.059
    1UNL     N1   14   0.075   0.206   0.090
    1UNL    C11   15   0.216   0.191   0.096
    1UNL    C12   16   0.314   0.285   0.107
    1UNL    C13   17   0.443   0.239   0.127
    1UNL    C14   18   0.475   0.104   0.117
    1UNL    C15   19   0.379   0.006   0.094
    1UNL    C16   20   0.248   0.051   0.079
    1UNL     N2   21   0.117  -0.197  -0.113
    1UNL    C17   22   0.067  -0.336  -0.137
    1UNL    C18   23   0.043  -0.095  -0.198
    1UNL    C19   24  -0.106  -0.100  -0.193
    1UNL    C20   25  -0.148  -0.083  -0.046
    1UNL     H1   26  -0.300   0.362  -0.175
    1UNL     H2   27  -0.422   0.260  -0.244
    1UNL     H3   28  -0.262   0.248  -0.327
    1UNL     H4   29  -0.319   0.089   0.104
    1UNL     H5   30  -0.197   0.186   0.172
    1UNL     H6   31  -0.312  -0.218   0.270
    1UNL     H7   32  -0.339  -0.154   0.107
    1UNL     H8   33  -0.093  -0.299   0.211
    1UNL     H9   34  -0.181  -0.343   0.066
    1UNL    H10   35  -0.055  -0.082   0.144
    1UNL    H11   36   0.141  -0.224   0.091
    1UNL    H12   37   0.029   0.297   0.072
    1UNL    H13   38   0.297   0.389   0.098
    1UNL    H14   39   0.525   0.309   0.143
    1UNL    H15   40   0.578   0.073   0.141
    1UNL    H16   41   0.400  -0.096   0.095
    1UNL    H17   42  -0.018  -0.360  -0.081
    1UNL    H18   43   0.149  -0.404  -0.121
    1UNL    H19   44   0.048  -0.342  -0.241
    1UNL    H20   45   0.077   0.004  -0.155
    1UNL    H21   46   0.077  -0.106  -0.297
    1UNL    H22   47  -0.149  -0.028  -0.262
    1UNL    H23   48  -0.148  -0.197  -0.221
    1UNL    H24   49  -0.257  -0.111  -0.034
   0.00000   0.00000   0.00000   0.00000   0.00000   0.00000   0.00000   0.00000   0.00000
Generated with MDTraj, t= 92.0
 49
    1UNL     C1    1  -0.294   0.273  -0.254
    1UNL     O1    2  -0.272   0.156  -0.172
    1UNL     C2    3  -0.183   0.188  -0.070
    1UNL     O2    4  -0.153   0.305  -0.049
    1UNL     C3    5  -0.123   0.076   0.015
    1UNL     C4    6  -0.209   0.075   0.149
    1UNL     O3    7  -0.187  -0.029   0.245
    1UNL     C5    8  -0.245  -0.160   0.223
    1UNL     C6    9  -0.155  -0.261   0.132
    1UNL     C7   10  -0.070  -0.158   0.054
    1UNL     C8   11   0.081  -0.159   0.019
    1UNL     C9   12   0.114  -0.015   0.032
    1UNL    C10   13   0.018   0.089   0.045
    1UNL     N1   14   0.076   0.213   0.073
    1UNL    C11   15   0.211   0.191   0.094
    1UNL    C12   16   0.316   0.280   0.135
    1UNL    C13   17   0.442   0.227   0.152
    1UNL    C14   18   0.465   0.093   0.130
    1UNL    C15   19   0.365   0.012   0.089
    1UNL    C16   20   0.232   0.055   0.063
    1UNL     N2   21   0.100  -0.204  -0.120
    1UNL    C17   22   0.099  -0.359  -0.135
    1UNL    C18   23   0.046  -0.108  -0.227
    1UNL    C19   24  -0.101  -0.074  -0.198
    1UNL    C20   25  -0.149  -0.058  -0.048
    1UNL     H1   26  -0.364   0.334  -0.191
    1UNL     H2   27  -0.345   0.249  -0.346
    1UNL     H3   28  -0.192   0.307  -0.270
    1UNL     H4   29  -0.309   0.089   0.115
    1UNL     H5   30  -0.198   0.171   0.207
    1UNL     H6   31  -0.236  -0.208   0.319
    1UNL     H7   32  -0.338  -0.143   0.193
    1UNL     H8   33  -0.089  -0.333   0.184
    1UNL     H9   34  -0.225  -0.328   0.072
    1UNL    H10   35  -0.055  -0.093   0.142
    1UNL    H11   36   0.143  -0.222   0.083
    1UNL    H12   37   0.016   0.296   0.074
    1UNL    H13   38   0.299   0.386   0.128
    1UNL    H14   39   0.524   0.289   0.174
    1UNL    H15   40   0.555   0.044   0.157
    1UNL    H16   41   0.389  -0.096   0.069
    1UNL    H17   42   0.048  -0.396  -0.050
    1UNL    H18   43   0.202  -0.388  -0.128
    1UNL    H19   44   0.062  -0.400  -0.224
    1UNL    H20   45   0.110  -0.017  -0.223
    1UNL    H21   46   0.068  -0.161  -0.315
    1UNL    H22   47  -0.130   0.022  -0.236
    1UNL    H23   48  -0.170  -0.137  -0.257
    1UNL    H24   49  -0.262  -0.066  -0.035
   0.00000   0.00000   0.00000   0.00000   0.00000   0.00000   0.00000   0.00000   0.00000
Generated with MDTraj, t= 93.0
 49
    1UNL     C1    1  -0.309   0.259  -0.248
    1UNL     O1    2  -0.240   0.145  -0.204
    1UNL     C2    3  -0.190   0.177  -0.083
    1UNL     O2    4  -0.192   0.291  -0.041
    1UNL     C3    5  -0.122   0.076   0.011
    1UNL     C4    6  -0.197   0.086   0.150
    1UNL     O3    7  -0.209  -0.028   0.239
    1UNL     C5    8  -0.259  -0.164   0.214
    1UNL     C6    9  -0.159  -0.255   0.145
    1UNL     C7   10  -0.063  -0.158   0.067
    1UNL     C8   11   0.087  -0.142   0.016
    1UNL     C9   12   0.120   0.005   0.038
    1UNL    C10   13   0.030   0.111   0.028
    1UNL     N1   14   0.096   0.230   0.058
    1UNL    C11   15   0.228   0.198   0.088
    1UNL    C12   16   0.334   0.270   0.148
    1UNL    C13   17   0.455   0.212   0.168
    1UNL    C14   18   0.474   0.076   0.129
    1UNL    C15   19   0.372   0.002   0.089
    1UNL    C16   20   0.243   0.057   0.081
    1UNL     N2   21   0.100  -0.188  -0.125
    1UNL    C17   22   0.110  -0.328  -0.157
    1UNL    C18   23   0.012  -0.102  -0.225
    1UNL    C19   24  -0.134  -0.102  -0.179
    1UNL    C20   25  -0.143  -0.073  -0.031
    1UNL     H1   26  -0.419   0.250  -0.223
    1UNL     H2   27  -0.295   0.263  -0.355
    1UNL     H3   28  -0.258   0.340  -0.197
    1UNL     H4   29  -0.294   0.130   0.139
    1UNL     H5   30  -0.146   0.172   0.203
    1UNL     H6   31  -0.282  -0.201   0.315
    1UNL     H7   32  -0.344  -0.158   0.159
    1UNL     H8   33  -0.116  -0.324   0.220
    1UNL     H9   34  -0.214  -0.324   0.076
    1UNL    H10   35  -0.056  -0.089   0.156
    1UNL    H11   36   0.157  -0.208   0.068
    1UNL    H12   37   0.054   0.322   0.057
    1UNL    H13   38   0.323   0.375   0.177
    1UNL    H14   39   0.536   0.257   0.227
    1UNL    H15   40   0.575   0.040   0.137
    1UNL    H16   41   0.379  -0.099   0.067
    1UNL    H17   42   0.010  -0.354  -0.184
    1UNL    H18   43   0.135  -0.383  -0.069
    1UNL    H19   44   0.181  -0.352  -0.231
    1UNL    H20   45   0.051  -0.001  -0.203
    1UNL    H21   46   0.022  -0.132  -0.325
    1UNL    H22   47  -0.202  -0.048  -0.241
    1UNL    H23   48  -0.168  -0.209  -0.191
    1UNL    H24   49  -0.251  -0.103  -0.005
   0.00000   0.00000   0.00000   0.00000   0.00000   0.00000   0.00000   0.00000   0.00000
Generated with MDTraj, t= 94.0
 49
    1UNL     C1    1  -0.279   0.240  -0.259
    1UNL     O1    2  -0.203   0.146  -0.187
    1UNL     C2    3  -0.182   0.188  -0.066
    1UNL     O2    4  -0.196   0.298  -0.023
    1UNL     C3    5  -0.133   0.077   0.020
    1UNL     C4    6  -0.210   0.079   0.150
    1UNL     O3    7  -0.185  -0.019   0.247
    1UNL     C5    8  -0.246  -0.151   0.233
    1UNL     C6    9  -0.155  -0.251   0.147
    1UNL     C7   10  -0.071  -0.160   0.053
    1UNL     C8   11   0.084  -0.157   0.005
    1UNL     C9   12   0.116  -0.008   0.043
    1UNL    C10   13   0.020   0.093   0.042
    1UNL     N1   14   0.079   0.214   0.073
    1UNL    C11   15   0.214   0.204   0.093
    1UNL    C12   16   0.324   0.287   0.119
    1UNL    C13   17   0.442   0.223   0.140
    1UNL    C14   18   0.460   0.082   0.135
    1UNL    C15   19   0.362  -0.005   0.102
    1UNL    C16   20   0.234   0.057   0.086
    1UNL     N2   21   0.100  -0.190  -0.138
    1UNL    C17   22   0.090  -0.339  -0.174
    1UNL    C18   23   0.032  -0.096  -0.230
    1UNL    C19   24  -0.118  -0.089  -0.188
    1UNL    C20   25  -0.153  -0.065  -0.041
    1UNL     H1   26  -0.356   0.296  -0.198
    1UNL     H2   27  -0.329   0.178  -0.334
    1UNL     H3   28  -0.198   0.312  -0.283
    1UNL     H4   29  -0.314   0.093   0.132
    1UNL     H5   30  -0.181   0.175   0.201
    1UNL     H6   31  -0.279  -0.181   0.333
    1UNL     H7   32  -0.333  -0.144   0.177
    1UNL     H8   33  -0.094  -0.306   0.221
    1UNL     H9   34  -0.204  -0.331   0.089
    1UNL    H10   35  -0.050  -0.089   0.142
    1UNL    H11   36   0.146  -0.225   0.063
    1UNL    H12   37   0.025   0.300   0.069
    1UNL    H13   38   0.307   0.389   0.141
    1UNL    H14   39   0.534   0.278   0.148
    1UNL    H15   40   0.557   0.039   0.162
    1UNL    H16   41   0.375  -0.113   0.086
    1UNL    H17   42   0.018  -0.367  -0.250
    1UNL    H18   43   0.064  -0.398  -0.091
    1UNL    H19   44   0.186  -0.374  -0.202
    1UNL    H20   45   0.079   0.002  -0.229
    1UNL    H21   46   0.036  -0.153  -0.321
    1UNL    H22   47  -0.160  -0.015  -0.250
    1UNL    H23   48  -0.172  -0.180  -0.228
    1UNL    H24   49  -0.264  -0.095  -0.044
   0.00000   0.00000   0.00000   0.00000   0.00000   0.00000   0.00000   0.00000   0.00000
Generated with MDTraj, t= 95.0
 49
    1UNL     C1    1  -0.231   0.307  -0.259
    1UNL     O1    2  -0.231   0.178  -0.195
    1UNL     C2    3  -0.184   0.193  -0.063
    1UNL     O2    4  -0.177   0.302  -0.011
    1UNL     C3    5  -0.140   0.067   0.016
    1UNL     C4    6  -0.223   0.063   0.146
    1UNL     O3    7  -0.201  -0.039   0.242
    1UNL     C5    8  -0.246  -0.169   0.216
    1UNL     C6    9  -0.147  -0.268   0.145
    1UNL     C7   10  -0.067  -0.169   0.060
    1UNL     C8   11   0.081  -0.153   0.028
    1UNL     C9   12   0.115  -0.008   0.045
    1UNL    C10   13   0.012   0.090   0.045
    1UNL     N1   14   0.074   0.211   0.054
    1UNL    C11   15   0.208   0.188   0.078
    1UNL    C12   16   0.307   0.279   0.114
    1UNL    C13   17   0.435   0.237   0.135
    1UNL    C14   18   0.470   0.105   0.120
    1UNL    C15   19   0.377   0.012   0.074
    1UNL    C16   20   0.244   0.057   0.063
    1UNL     N2   21   0.099  -0.199  -0.115
    1UNL    C17   22   0.091  -0.348  -0.130
    1UNL    C18   23   0.035  -0.113  -0.214
    1UNL    C19   24  -0.121  -0.100  -0.183
    1UNL    C20   25  -0.157  -0.080  -0.033
    1UNL     H1   26  -0.287   0.381  -0.195
    1UNL     H2   27  -0.279   0.292  -0.356
    1UNL     H3   28  -0.127   0.338  -0.251
    1UNL     H4   29  -0.326   0.066   0.122
    1UNL     H5   30  -0.205   0.157   0.204
    1UNL     H6   31  -0.292  -0.220   0.302
    1UNL     H7   32  -0.333  -0.151   0.158
    1UNL     H8   33  -0.083  -0.324   0.219
    1UNL     H9   34  -0.196  -0.345   0.085
    1UNL    H10   35  -0.058  -0.100   0.149
    1UNL    H11   36   0.141  -0.209   0.102
    1UNL    H12   37   0.024   0.300   0.053
    1UNL    H13   38   0.290   0.389   0.115
    1UNL    H14   39   0.507   0.318   0.141
    1UNL    H15   40   0.570   0.072   0.127
    1UNL    H16   41   0.395  -0.092   0.053
    1UNL    H17   42   0.092  -0.386  -0.232
    1UNL    H18   43   0.003  -0.389  -0.089
    1UNL    H19   44   0.174  -0.390  -0.077
    1UNL    H20   45   0.085  -0.019  -0.195
    1UNL    H21   46   0.053  -0.157  -0.311
    1UNL    H22   47  -0.166  -0.021  -0.239
    1UNL    H23   48  -0.174  -0.188  -0.232
    1UNL    H24   49  -0.266  -0.118  -0.028
   0.00000   0.00000   0.00000   0.00000   0.00000   0.00000   0.00000   0.00000   0.00000
Generated with MDTraj, t= 96.0
 49
    1UNL     C1    1  -0.242   0.294  -0.258
    1UNL     O1    2  -0.200   0.174  -0.194
    1UNL     C2    3  -0.178   0.197  -0.064
    1UNL     O2    4  -0.190   0.298   0.000
    1UNL     C3    5  -0.130   0.073   0.025
    1UNL     C4    6  -0.218   0.067   0.163
    1UNL     O3    7  -0.221  -0.064   0.238
    1UNL     C5    8  -0.283  -0.178   0.177
    1UNL     C6    9  -0.170  -0.264   0.119
    1UNL     C7   10  -0.072  -0.155   0.068
    1UNL     C8   11   0.083  -0.160   0.036
    1UNL     C9   12   0.115  -0.012   0.049
    1UNL    C10   13   0.017   0.084   0.061
    1UNL     N1   14   0.078   0.203   0.085
    1UNL    C11   15   0.214   0.195   0.079
    1UNL    C12   16   0.313   0.289   0.096
    1UNL    C13   17   0.449   0.251   0.110
    1UNL    C14   18   0.473   0.117   0.079
    1UNL    C15   19   0.376   0.017   0.064
    1UNL    C16   20   0.243   0.056   0.064
    1UNL     N2   21   0.106  -0.202  -0.104
    1UNL    C17   22   0.083  -0.352  -0.112
    1UNL    C18   23   0.038  -0.112  -0.203
    1UNL    C19   24  -0.108  -0.093  -0.177
    1UNL    C20   25  -0.149  -0.064  -0.030
    1UNL     H1   26  -0.342   0.316  -0.213
    1UNL     H2   27  -0.245   0.264  -0.361
    1UNL     H3   28  -0.178   0.377  -0.234
    1UNL     H4   29  -0.320   0.096   0.154
    1UNL     H5   30  -0.180   0.151   0.226
    1UNL     H6   31  -0.329  -0.229   0.261
    1UNL     H7   32  -0.364  -0.164   0.109
    1UNL     H8   33  -0.111  -0.315   0.199
    1UNL     H9   34  -0.208  -0.335   0.047
    1UNL    H10   35  -0.053  -0.093   0.157
    1UNL    H11   36   0.129  -0.231   0.109
    1UNL    H12   37   0.032   0.292   0.080
    1UNL    H13   38   0.288   0.390   0.087
    1UNL    H14   39   0.533   0.313   0.141
    1UNL    H15   40   0.579   0.084   0.069
    1UNL    H16   41   0.410  -0.084   0.060
    1UNL    H17   42   0.175  -0.407  -0.101
    1UNL    H18   43   0.055  -0.374  -0.212
    1UNL    H19   44   0.009  -0.393  -0.043
    1UNL    H20   45   0.088  -0.020  -0.194
    1UNL    H21   46   0.057  -0.159  -0.300
    1UNL    H22   47  -0.142  -0.022  -0.250
    1UNL    H23   48  -0.171  -0.183  -0.207
    1UNL    H24   49  -0.264  -0.083  -0.030
   0.00000   0.00000   0.00000   0.00000   0.00000   0.00000   0.00000   0.00000   0.00000
Generated with MDTraj, t= 97.0
 49
    1UNL     C1    1  -0.250   0.277  -0.262
    1UNL     O1    2  -0.187   0.164  -0.192
    1UNL     C2    3  -0.185   0.188  -0.052
    1UNL     O2    4  -0.221   0.288   0.005
    1UNL     C3    5  -0.135   0.072   0.034
    1UNL     C4    6  -0.241   0.063   0.154
    1UNL     O3    7  -0.234  -0.048   0.250
    1UNL     C5    8  -0.283  -0.169   0.194
    1UNL     C6    9  -0.166  -0.258   0.133
    1UNL     C7   10  -0.070  -0.161   0.057
    1UNL     C8   11   0.084  -0.152   0.047
    1UNL     C9   12   0.104  -0.005   0.074
    1UNL    C10   13   0.007   0.095   0.080
    1UNL     N1   14   0.071   0.219   0.096
    1UNL    C11   15   0.211   0.190   0.090
    1UNL    C12   16   0.323   0.277   0.079
    1UNL    C13   17   0.444   0.218   0.062
    1UNL    C14   18   0.472   0.079   0.056
    1UNL    C15   19   0.363  -0.004   0.063
    1UNL    C16   20   0.231   0.054   0.073
    1UNL     N2   21   0.122  -0.186  -0.093
    1UNL    C17   22   0.097  -0.333  -0.143
    1UNL    C18   23   0.077  -0.089  -0.193
    1UNL    C19   24  -0.068  -0.068  -0.190
    1UNL    C20   25  -0.132  -0.062  -0.043
    1UNL     H1   26  -0.344   0.278  -0.200
    1UNL     H2   27  -0.260   0.250  -0.366
    1UNL     H3   28  -0.203   0.372  -0.247
    1UNL     H4   29  -0.337   0.054   0.111
    1UNL     H5   30  -0.255   0.155   0.215
    1UNL     H6   31  -0.344  -0.226   0.262
    1UNL     H7   32  -0.358  -0.145   0.117
    1UNL     H8   33  -0.113  -0.316   0.213
    1UNL     H9   34  -0.205  -0.321   0.055
    1UNL    H10   35  -0.075  -0.092   0.146
    1UNL    H11   36   0.145  -0.218   0.113
    1UNL    H12   37   0.028   0.310   0.098
    1UNL    H13   38   0.312   0.386   0.090
    1UNL    H14   39   0.525   0.287   0.063
    1UNL    H15   40   0.564   0.036   0.082
    1UNL    H16   41   0.360  -0.115   0.058
    1UNL    H17   42   0.066  -0.401  -0.068
    1UNL    H18   43   0.198  -0.362  -0.169
    1UNL    H19   44   0.028  -0.343  -0.228
    1UNL    H20   45   0.125  -0.001  -0.167
    1UNL    H21   46   0.122  -0.126  -0.286
    1UNL    H22   47  -0.099   0.018  -0.252
    1UNL    H23   48  -0.120  -0.142  -0.260
    1UNL    H24   49  -0.246  -0.086  -0.046
   0.00000   0.00000   0.00000   0.00000   0.00000   0.00000   0.00000   0.00000   0.00000
Generated with MDTraj, t= 98.0
 49
    1UNL     C1    1  -0.240   0.305  -0.235
    1UNL     O1    2  -0.210   0.177  -0.190
    1UNL     C2    3  -0.183   0.184  -0.057
    1UNL     O2    4  -0.184   0.281   0.012
    1UNL     C3    5  -0.138   0.067   0.029
    1UNL     C4    6  -0.234   0.053   0.158
    1UNL     O3    7  -0.240  -0.067   0.243
    1UNL     C5    8  -0.296  -0.185   0.180
    1UNL     C6    9  -0.190  -0.263   0.105
    1UNL     C7   10  -0.086  -0.160   0.066
    1UNL     C8   11   0.069  -0.144   0.052
    1UNL     C9   12   0.111  -0.008   0.086
    1UNL    C10   13   0.014   0.089   0.064
    1UNL     N1   14   0.083   0.211   0.055
    1UNL    C11   15   0.220   0.203   0.073
    1UNL    C12   16   0.333   0.286   0.067
    1UNL    C13   17   0.456   0.229   0.049
    1UNL    C14   18   0.473   0.086   0.064
    1UNL    C15   19   0.367   0.006   0.084
    1UNL    C16   20   0.237   0.063   0.092
    1UNL     N2   21   0.114  -0.177  -0.088
    1UNL    C17   22   0.138  -0.321  -0.114
    1UNL    C18   23   0.057  -0.096  -0.193
    1UNL    C19   24  -0.094  -0.094  -0.179
    1UNL    C20   25  -0.152  -0.070  -0.043
    1UNL     H1   26  -0.339   0.318  -0.181
    1UNL     H2   27  -0.247   0.293  -0.343
    1UNL     H3   28  -0.171   0.383  -0.206
    1UNL     H4   29  -0.335   0.062   0.128
    1UNL     H5   30  -0.222   0.139   0.227
    1UNL     H6   31  -0.337  -0.245   0.256
    1UNL     H7   32  -0.386  -0.166   0.118
    1UNL     H8   33  -0.138  -0.333   0.171
    1UNL     H9   34  -0.233  -0.317   0.021
    1UNL    H10   35  -0.095  -0.102   0.161
    1UNL    H11   36   0.129  -0.215   0.114
    1UNL    H12   37   0.027   0.290   0.024
    1UNL    H13   38   0.310   0.390   0.076
    1UNL    H14   39   0.546   0.289   0.034
    1UNL    H15   40   0.574   0.044   0.051
    1UNL    H16   41   0.374  -0.097   0.087
    1UNL    H17   42   0.116  -0.371  -0.023
    1UNL    H18   43   0.247  -0.333  -0.131
    1UNL    H19   44   0.074  -0.362  -0.193
    1UNL    H20   45   0.095  -0.002  -0.170
    1UNL    H21   46   0.100  -0.127  -0.289
    1UNL    H22   47  -0.142  -0.035  -0.262
    1UNL    H23   48  -0.136  -0.193  -0.217
    1UNL    H24   49  -0.264  -0.100  -0.047
   0.00000   0.00000   0.00000   0.00000   0.00000   0.00000   0.00000   0.00000   0.00000
Generated with MDTraj, t= 99.0
 49
    1UNL     C1    1  -0.245   0.295  -0.248
    1UNL     O1    2  -0.222   0.173  -0.173
    1UNL     C2    3  -0.176   0.198  -0.049
    1UNL     O2    4  -0.154   0.303   0.002
    1UNL     C3    5  -0.140   0.078   0.040
    1UNL     C4    6  -0.240   0.057   0.159
    1UNL     O3    7  -0.246  -0.058   0.244
    1UNL     C5    8  -0.289  -0.181   0.183
    1UNL     C6    9  -0.173  -0.265   0.119
    1UNL     C7   10  -0.079  -0.157   0.064
    1UNL     C8   11   0.073  -0.157   0.043
    1UNL     C9   12   0.106  -0.011   0.071
    1UNL    C10   13   0.009   0.091   0.074
    1UNL     N1   14   0.073   0.211   0.063
    1UNL    C11   15   0.209   0.187   0.052
    1UNL    C12   16   0.310   0.284   0.060
    1UNL    C13   17   0.439   0.245   0.080
    1UNL    C14   18   0.470   0.104   0.085
    1UNL    C15   19   0.372   0.007   0.086
    1UNL    C16   20   0.237   0.048   0.074
    1UNL     N2   21   0.108  -0.210  -0.092
    1UNL    C17   22   0.139  -0.351  -0.143
    1UNL    C18   23   0.066  -0.109  -0.190
    1UNL    C19   24  -0.088  -0.073  -0.178
    1UNL    C20   25  -0.147  -0.064  -0.040
    1UNL     H1   26  -0.303   0.363  -0.181
    1UNL     H2   27  -0.294   0.272  -0.342
    1UNL     H3   28  -0.148   0.337  -0.275
    1UNL     H4   29  -0.341   0.077   0.131
    1UNL     H5   30  -0.218   0.139   0.231
    1UNL     H6   31  -0.350  -0.231   0.253
    1UNL     H7   32  -0.368  -0.152   0.108
    1UNL     H8   33  -0.123  -0.330   0.188
    1UNL     H9   34  -0.198  -0.325   0.030
    1UNL    H10   35  -0.084  -0.093   0.159
    1UNL    H11   36   0.134  -0.224   0.109
    1UNL    H12   37   0.036   0.305   0.043
    1UNL    H13   38   0.288   0.390   0.059
    1UNL    H14   39   0.519   0.317   0.073
    1UNL    H15   40   0.570   0.079   0.057
    1UNL    H16   41   0.388  -0.105   0.093
    1UNL    H17   42   0.218  -0.401  -0.087
    1UNL    H18   43   0.169  -0.350  -0.250
    1UNL    H19   44   0.048  -0.405  -0.125
    1UNL    H20   45   0.126  -0.026  -0.174
    1UNL    H21   46   0.094  -0.146  -0.288
    1UNL    H22   47  -0.083   0.034  -0.216
    1UNL    H23   48  -0.146  -0.121  -0.262
    1UNL    H24   49  -0.257  -0.090  -0.055
   0.00000   0.00000   0.00000   0.00000   0.00000   0.00000   0.00000   0.00000   0.00000
