[ moleculetype ]
; name        nrexcl
res           1

[ atoms ]
;    nr  type  resnr resid  atom  cgnr     charge       mass
      1 TC5       1 res   C1        1      0.000     36.000
      2 TC6       1 res   C2        2      0.000     36.000
      3 TC5       1 res   C3        3      0.000     36.000
      4 SN4a      1 res   C4        4      0.000     54.000

[ bonds ]
;  ai    aj   funct      b0(nm)          k(kJ/mol/nm^2)
    1     2     1      0.24264         174437.8
    1     3     1      0.28503         121825.9
    2     3     1      0.20961         168668.5
    3     4     1      0.31737          43935.2

[ angles ]
;  ai    aj    ak  funct     th0(deg)        k(kJ/mol/rad^2)
    1     2     3     1     77.78130          2088.35
    1     3     2     1     56.28811          4304.67
    1     3     4     1     79.05308          1089.12
    2     1     3     1     45.93063          7412.07
    2     3     4     1    134.92960           823.16

[ dihedrals ]
;  ai    aj    ak    al  funct   phi0(deg)        k(kJ/mol)   mult
    1     2     3     4     1   -179.05712       15.735      1
    1     2     3     4     1   -178.11820       14.715      2
    1     2     3     4     1   -177.18835       13.104      3
    2     1     3     4     1      0.94635       11.530      1
    2     1     3     4     1   -178.10949       11.146      2
    2     1     3     4     1      2.82999       10.524      3
