1TPCN00363
12
    1res  C1    1    0.464   0.107  -0.009
    1res  C2    2    0.120   0.133   0.130
    1res  C3    3   -0.136   0.078  -0.046
    1res  C4    4   -0.245   0.306  -0.060
    1res  C5    5   -0.342   0.129   0.093
    1res  C6    6   -0.164  -0.080   0.218
    1res  C7    7    0.025  -0.052   0.013
    1res  C8    8    0.004  -0.232  -0.035
    1res  C9    9   -0.210  -0.350  -0.091
    1res  C10   10    0.060  -0.461  -0.118
    1res  C11   11    0.219  -0.169  -0.020
    1res  C12   12    0.060   0.083  -0.203
  10.00000  10.00000  10.00000
