[ moleculetype ]
; name        nrexcl
res           1

[ atoms ]
;    nr  type  resnr resid  atom  cgnr     charge       mass
      1 TC3       1 res   C1        1      0.000     36.000
      2 TC3       1 res   C2        2      0.000     36.000
      3 SN6       1 res   C3        3      0.000     54.000
      4 TC3       1 res   C4        4      0.000     36.000
      5 TC5       1 res   C5        5      0.000     36.000
      6 TN6d      1 res   C6        6      0.000     36.000
      7 TC5       1 res   C7        7      0.000     36.000
      8 TC5       1 res   C8        8      0.000     36.000
      9 TC5       1 res   C9        9      0.000     36.000
     10 SC3       1 res   C10      10      0.000     54.000
     11 TN4a      1 res   C11      11      0.000     36.000
     12 N4a       1 res   C12      12      0.000     72.000

[ bonds ]
;  ai    aj   funct      b0(nm)          k(kJ/mol/nm^2)
    1     2     1      0.26401          30206.5
    2     3     1      0.25842          76281.5
    2    10     1      0.29267          47140.0
    3     4     1      0.28681         102887.1
    3     5     1      0.25984         130318.1
    3    10     1      0.28714         129375.7
    4     5     1      0.23526          97823.3
    5     6     1      0.17310         330680.6
    5     7     1      0.18405         330853.6
    5    10     1      0.26096         143817.3
    6     7     1      0.17917         246748.8
    7     8     1      0.24801         335502.2
    7     9     1      0.24844         255472.4
    8     9     1      0.28990         218211.5
   10    11     1      0.27362          26980.7
   10    12     1      0.44948          14486.7

[ angles ]
;  ai    aj    ak  funct     th0(deg)        k(kJ/mol/rad^2)
    1     2     3     1    156.81221           277.95
    1     2    10     1     99.49309           801.65
    2     3     4     1     68.77508          1254.98
    2     3     5     1     91.18330          1422.42
    2     3    10     1     64.62543          2905.73
    2    10     3     1     52.91362          5094.09
    2    10     5     1     83.71654          1849.25
    2    10    11     1    137.08843           397.06
    2    10    12     1     85.49988           199.01
    3     2    10     1     62.46100          2591.59
    3     4     5     1     58.71567          4067.19
    3     5     4     1     70.60782          3620.81
    3     5     6     1     90.23993           990.17
    3     5     7     1    146.29628           987.35
    3     5    10     1     66.92170          3994.60
    3    10     5     1     56.35095          6017.18
    3    10    11     1    122.51496           765.08
    3    10    12     1    118.85256           429.89
    4     3     5     1     50.67648          7147.44
    4     3    10     1     88.11099          2193.56
    4     5     6     1    120.59155           193.91
    4     5     7     1    109.22025           596.05
    4     5    10     1    106.97288          1500.96
    5     3    10     1     56.72733          5319.39
    5     6     7     1     62.97359          4518.04
    5     7     6     1     56.90275          5460.71
    5     7     8     1    157.45599          1115.96
    5     7     9     1    129.16885          1777.20
    5    10    11     1     68.37280          1172.89
    5    10    12     1     79.71059           607.08
    6     5     7     1     60.12371          4850.60
    6     5    10     1    115.84941           285.76
    6     7     8     1    101.49928          1636.62
    6     7     9     1    170.21947           487.64
    7     5    10     1    137.95294           539.55
    7     8     9     1     54.33738         10342.19
    7     9     8     1     54.20158         10360.97
    8     7     9     1     71.46102          6316.76
   11    10    12     1     58.98079           582.85
