116269-66-2
6
    1res  C1    1    0.238  -0.050   0.002
    1res  C2    2   -0.024  -0.101   0.003
    1res  C3    3   -0.241  -0.086   0.001
    1res  C4    4   -0.071   0.101  -0.003
    1res  C5    5   -0.179   0.292  -0.008
    1res  C6    6    0.138   0.168  -0.004
  10.00000  10.00000  10.00000
