Generated with MDTraj, t= 0.0
 122
    1UNL     C1    1  -0.438   0.087  -0.372
    1UNL     C2    2  -0.310   0.098  -0.341
    1UNL     C3    3  -0.254   0.067  -0.205
    1UNL     C4    4  -0.360  -0.001  -0.115
    1UNL     O1    5  -0.466   0.088  -0.085
    1UNL     C5    6  -0.566   0.021  -0.012
    1UNL     O2    7  -0.692   0.092  -0.011
    1UNL     C6    8  -0.682   0.207   0.072
    1UNL     C7    9  -0.791   0.310   0.045
    1UNL     O3   10  -0.773   0.425   0.126
    1UNL     C8   11  -0.678   0.167   0.223
    1UNL     O4   12  -0.603   0.262   0.296
    1UNL     C9   13  -0.620   0.023   0.242
    1UNL     O5   14  -0.564   0.012   0.372
    1UNL    C10   15  -0.513  -0.006   0.134
    1UNL     O6   16  -0.460  -0.136   0.145
    1UNL     O7   17  -0.404  -0.125  -0.173
    1UNL    C11   18  -0.300  -0.205  -0.211
    1UNL    C12   19  -0.169  -0.169  -0.224
    1UNL    C13   20  -0.069  -0.273  -0.249
    1UNL     O8   21   0.050  -0.247  -0.242
    1UNL     O9   22  -0.118  -0.397  -0.280
    1UNL    C14   23  -0.012  -0.485  -0.301
    1UNL    C15   24  -0.128  -0.025  -0.208
    1UNL    C16   25  -0.024   0.019  -0.312
    1UNL    C17   26   0.036   0.157  -0.285
    1UNL     N1   27   0.097   0.179  -0.148
    1UNL    C18   28   0.046   0.290  -0.062
    1UNL    C19   29  -0.040   0.242   0.056
    1UNL    C20   30  -0.011   0.100   0.094
    1UNL    C21   31   0.090   0.025   0.038
    1UNL     N2   32   0.082  -0.104   0.086
    1UNL    C22   33  -0.025  -0.113   0.173
    1UNL    C23   34  -0.078  -0.220   0.246
    1UNL    C24   35  -0.188  -0.198   0.324
    1UNL    C25   36  -0.247  -0.071   0.332
    1UNL    C26   37  -0.197   0.035   0.262
    1UNL    C27   38  -0.084   0.015   0.181
    1UNL    C28   39   0.178   0.080  -0.070
    1UNL    C29   40   0.246  -0.026  -0.159
    1UNL    C30   41   0.389  -0.065  -0.119
    1UNL    C31   42   0.466  -0.149  -0.218
    1UNL    C32   43   0.430  -0.161  -0.359
    1UNL    O10   44   0.488  -0.243  -0.428
    1UNL    O11   45   0.332  -0.080  -0.408
    1UNL    C33   46   0.308  -0.111  -0.542
    1UNL    C34   47   0.571  -0.221  -0.171
    1UNL    O12   48   0.619  -0.228  -0.044
    1UNL    C35   49   0.552  -0.143   0.052
    1UNL    O13   50   0.574  -0.179   0.187
    1UNL    C36   51   0.534  -0.079   0.279
    1UNL    O14   52   0.392  -0.052   0.283
    1UNL    C37   53   0.356   0.082   0.323
    1UNL    C38   54   0.208   0.087   0.362
    1UNL    O15   55   0.162   0.218   0.381
    1UNL    C39   56   0.449   0.137   0.435
    1UNL    O16   57   0.411   0.267   0.478
    1UNL    C40   58   0.597   0.144   0.383
    1UNL    O17   59   0.628   0.277   0.350
    1UNL    C41   60   0.616   0.052   0.259
    1UNL    O18   61   0.576   0.120   0.143
    1UNL    C42   62   0.401  -0.134   0.020
    1UNL    C43   63   0.341  -0.272   0.032
    1UNL    C44   64   0.281  -0.341  -0.062
    1UNL     H1   65  -0.509   0.053  -0.299
    1UNL     H2   66  -0.475   0.111  -0.470
    1UNL     H3   67  -0.242   0.135  -0.415
    1UNL     H4   68  -0.228   0.163  -0.158
    1UNL     H5   69  -0.314  -0.029  -0.019
    1UNL     H6   70  -0.585  -0.074  -0.063
    1UNL     H7   71  -0.584   0.253   0.048
    1UNL     H8   72  -0.889   0.266   0.066
    1UNL     H9   73  -0.789   0.340  -0.061
    1UNL    H10   74  -0.842   0.492   0.107
    1UNL    H11   75  -0.781   0.169   0.263
    1UNL    H12   76  -0.637   0.351   0.271
    1UNL    H13   77  -0.699  -0.052   0.235
    1UNL    H14   78  -0.531   0.101   0.398
    1UNL    H15   79  -0.429   0.063   0.151
    1UNL    H16   80  -0.533  -0.202   0.137
    1UNL    H17   81  -0.327  -0.308  -0.229
    1UNL    H18   82   0.045  -0.496  -0.208
    1UNL    H19   83   0.053  -0.443  -0.379
    1UNL    H20   84  -0.051  -0.582  -0.333
    1UNL    H21   85  -0.081  -0.019  -0.109
    1UNL    H22   86   0.055  -0.056  -0.316
    1UNL    H23   87  -0.069   0.016  -0.411
    1UNL    H24   88   0.114   0.180  -0.358
    1UNL    H25   89  -0.040   0.234  -0.299
    1UNL    H26   90   0.133   0.345  -0.026
    1UNL    H27   91  -0.009   0.361  -0.125
    1UNL    H28   92  -0.024   0.306   0.144
    1UNL    H29   93  -0.147   0.250   0.032
    1UNL    H30   94   0.140  -0.182   0.057
    1UNL    H31   95  -0.032  -0.317   0.239
    1UNL    H32   96  -0.231  -0.280   0.379
    1UNL    H33   97  -0.338  -0.059   0.389
    1UNL    H34   98  -0.242   0.132   0.268
    1UNL    H35   99   0.258   0.138  -0.021
    1UNL    H36  100   0.249   0.013  -0.261
    1UNL    H37  101   0.183  -0.116  -0.163
    1UNL    H38  102   0.445   0.030  -0.112
    1UNL    H39  103   0.273  -0.214  -0.548
    1UNL    H40  104   0.231  -0.044  -0.582
    1UNL    H41  105   0.401  -0.100  -0.598
    1UNL    H42  106   0.625  -0.283  -0.241
    1UNL    H43  107   0.599  -0.045   0.038
    1UNL    H44  108   0.557  -0.121   0.378
    1UNL    H45  109   0.371   0.145   0.234
    1UNL    H46  110   0.147   0.043   0.283
    1UNL    H47  111   0.191   0.029   0.453
    1UNL    H48  112   0.233   0.267   0.429
    1UNL    H49  113   0.442   0.070   0.521
    1UNL    H50  114   0.488   0.310   0.521
    1UNL    H51  115   0.667   0.114   0.463
    1UNL    H52  116   0.547   0.319   0.312
    1UNL    H53  117   0.722   0.025   0.246
    1UNL    H54  118   0.623   0.207   0.140
    1UNL    H55  119   0.352  -0.070   0.095
    1UNL    H56  120   0.356  -0.318   0.129
    1UNL    H57  121   0.245  -0.440  -0.044
    1UNL    H58  122   0.269  -0.303  -0.162
   0.00000   0.00000   0.00000   0.00000   0.00000   0.00000   0.00000   0.00000   0.00000
Generated with MDTraj, t= 1.0
 122
    1UNL     C1    1  -0.441   0.089  -0.363
    1UNL     C2    2  -0.317   0.110  -0.323
    1UNL     C3    3  -0.258   0.061  -0.186
    1UNL     C4    4  -0.362  -0.019  -0.109
    1UNL     O1    5  -0.459   0.071  -0.072
    1UNL     C5    6  -0.561   0.011   0.005
    1UNL     O2    7  -0.682   0.085  -0.001
    1UNL     C6    8  -0.681   0.206   0.082
    1UNL     C7    9  -0.768   0.309   0.030
    1UNL     O3   10  -0.740   0.442   0.087
    1UNL     C8   11  -0.701   0.162   0.225
    1UNL     O4   12  -0.661   0.260   0.318
    1UNL     C9   13  -0.615   0.026   0.256
    1UNL     O5   14  -0.564   0.030   0.388
    1UNL    C10   15  -0.509  -0.011   0.151
    1UNL     O6   16  -0.447  -0.133   0.171
    1UNL     O7   17  -0.403  -0.141  -0.184
    1UNL    C11   18  -0.301  -0.212  -0.226
    1UNL    C12   19  -0.172  -0.172  -0.236
    1UNL    C13   20  -0.065  -0.274  -0.255
    1UNL     O8   21   0.053  -0.249  -0.228
    1UNL     O9   22  -0.110  -0.402  -0.302
    1UNL    C14   23   0.002  -0.489  -0.310
    1UNL    C15   24  -0.130  -0.031  -0.202
    1UNL    C16   25  -0.031   0.022  -0.303
    1UNL    C17   26   0.040   0.161  -0.278
    1UNL     N1   27   0.104   0.182  -0.143
    1UNL    C18   28   0.067   0.299  -0.058
    1UNL    C19   29  -0.026   0.254   0.054
    1UNL    C20   30  -0.005   0.110   0.092
    1UNL    C21   31   0.088   0.026   0.040
    1UNL     N2   32   0.070  -0.095   0.085
    1UNL    C22   33  -0.039  -0.097   0.166
    1UNL    C23   34  -0.090  -0.200   0.245
    1UNL    C24   35  -0.189  -0.162   0.334
    1UNL    C25   36  -0.235  -0.032   0.344
    1UNL    C26   37  -0.190   0.065   0.262
    1UNL    C27   38  -0.095   0.035   0.168
    1UNL    C28   39   0.181   0.074  -0.062
    1UNL    C29   40   0.246  -0.037  -0.162
    1UNL    C30   41   0.388  -0.074  -0.118
    1UNL    C31   42   0.477  -0.149  -0.222
    1UNL    C32   43   0.444  -0.146  -0.365
    1UNL    O10   44   0.518  -0.201  -0.442
    1UNL    O11   45   0.332  -0.078  -0.402
    1UNL    C33   46   0.309  -0.084  -0.539
    1UNL    C34   47   0.587  -0.216  -0.174
    1UNL    O12   48   0.615  -0.236  -0.041
    1UNL    C35   49   0.552  -0.151   0.051
    1UNL    O13   50   0.580  -0.184   0.187
    1UNL    C36   51   0.543  -0.087   0.283
    1UNL    O14   52   0.402  -0.070   0.293
    1UNL    C37   53   0.351   0.063   0.311
    1UNL    C38   54   0.201   0.049   0.352
    1UNL    O15   55   0.145   0.177   0.344
    1UNL    C39   56   0.435   0.131   0.426
    1UNL    O16   57   0.380   0.260   0.458
    1UNL    C40   58   0.582   0.154   0.369
    1UNL    O17   59   0.600   0.285   0.321
    1UNL    C41   60   0.609   0.049   0.249
    1UNL    O18   61   0.556   0.110   0.136
    1UNL    C42   62   0.395  -0.146   0.024
    1UNL    C43   63   0.355  -0.294   0.038
    1UNL    C44   64   0.274  -0.364  -0.046
    1UNL     H1   65  -0.504   0.040  -0.293
    1UNL     H2   66  -0.478   0.110  -0.465
    1UNL     H3   67  -0.262   0.152  -0.407
    1UNL     H4   68  -0.234   0.145  -0.128
    1UNL     H5   69  -0.318  -0.052  -0.018
    1UNL     H6   70  -0.578  -0.087  -0.042
    1UNL     H7   71  -0.574   0.234   0.071
    1UNL     H8   72  -0.873   0.286   0.050
    1UNL     H9   73  -0.754   0.313  -0.080
    1UNL    H10   74  -0.673   0.484   0.030
    1UNL    H11   75  -0.811   0.147   0.242
    1UNL    H12   76  -0.717   0.339   0.301
    1UNL    H13   77  -0.685  -0.057   0.265
    1UNL    H14   78  -0.531   0.122   0.392
    1UNL    H15   79  -0.425   0.059   0.155
    1UNL    H16   80  -0.452  -0.166   0.269
    1UNL    H17   81  -0.317  -0.324  -0.240
    1UNL    H18   82   0.044  -0.507  -0.212
    1UNL    H19   83   0.076  -0.433  -0.369
    1UNL    H20   84  -0.020  -0.579  -0.365
    1UNL    H21   85  -0.070  -0.035  -0.104
    1UNL    H22   86   0.047  -0.055  -0.311
    1UNL    H23   87  -0.082   0.039  -0.395
    1UNL    H24   88   0.120   0.180  -0.347
    1UNL    H25   89  -0.041   0.233  -0.300
    1UNL    H26   90   0.163   0.343  -0.022
    1UNL    H27   91   0.027   0.380  -0.119
    1UNL    H28   92  -0.016   0.322   0.137
    1UNL    H29   93  -0.125   0.266   0.010
    1UNL    H30   94   0.127  -0.172   0.060
    1UNL    H31   95  -0.069  -0.304   0.218
    1UNL    H32   96  -0.230  -0.239   0.407
    1UNL    H33   97  -0.291  -0.007   0.433
    1UNL    H34   98  -0.237   0.157   0.262
    1UNL    H35   99   0.253   0.135  -0.010
    1UNL    H36  100   0.257   0.015  -0.265
    1UNL    H37  101   0.171  -0.113  -0.179
    1UNL    H38  102   0.439   0.024  -0.104
    1UNL    H39  103   0.289  -0.186  -0.564
    1UNL    H40  104   0.223  -0.025  -0.560
    1UNL    H41  105   0.391  -0.036  -0.591
    1UNL    H42  106   0.658  -0.262  -0.232
    1UNL    H43  107   0.593  -0.049   0.028
    1UNL    H44  108   0.571  -0.117   0.385
    1UNL    H45  109   0.375   0.108   0.214
    1UNL    H46  110   0.140  -0.014   0.286
    1UNL    H47  111   0.195   0.010   0.454
    1UNL    H48  112   0.219   0.244   0.348
    1UNL    H49  113   0.443   0.059   0.514
    1UNL    H50  114   0.398   0.274   0.553
    1UNL    H51  115   0.650   0.127   0.452
    1UNL    H52  116   0.545   0.335   0.382
    1UNL    H53  117   0.716   0.043   0.236
    1UNL    H54  118   0.582   0.207   0.144
    1UNL    H55  119   0.351  -0.089   0.109
    1UNL    H56  120   0.414  -0.339   0.120
    1UNL    H57  121   0.213  -0.446  -0.014
    1UNL    H58  122   0.252  -0.329  -0.149
   0.00000   0.00000   0.00000   0.00000   0.00000   0.00000   0.00000   0.00000   0.00000
Generated with MDTraj, t= 2.0
 122
    1UNL     C1    1  -0.422   0.105  -0.357
    1UNL     C2    2  -0.294   0.098  -0.315
    1UNL     C3    3  -0.250   0.062  -0.178
    1UNL     C4    4  -0.358  -0.013  -0.099
    1UNL     O1    5  -0.461   0.074  -0.067
    1UNL     C5    6  -0.561   0.006   0.012
    1UNL     O2    7  -0.690   0.069   0.000
    1UNL     C6    8  -0.684   0.197   0.077
    1UNL     C7    9  -0.772   0.309   0.030
    1UNL     O3   10  -0.722   0.433   0.081
    1UNL     C8   11  -0.710   0.162   0.227
    1UNL     O4   12  -0.679   0.268   0.316
    1UNL     C9   13  -0.625   0.027   0.267
    1UNL     O5   14  -0.566   0.041   0.388
    1UNL    C10   15  -0.515  -0.013   0.162
    1UNL     O6   16  -0.480  -0.147   0.179
    1UNL     O7   17  -0.397  -0.137  -0.169
    1UNL    C11   18  -0.296  -0.213  -0.216
    1UNL    C12   19  -0.166  -0.178  -0.227
    1UNL    C13   20  -0.059  -0.280  -0.261
    1UNL     O8   21   0.060  -0.256  -0.261
    1UNL     O9   22  -0.107  -0.408  -0.302
    1UNL    C14   23  -0.006  -0.490  -0.339
    1UNL    C15   24  -0.122  -0.035  -0.193
    1UNL    C16   25  -0.023   0.017  -0.298
    1UNL    C17   26   0.047   0.153  -0.278
    1UNL     N1   27   0.105   0.172  -0.146
    1UNL    C18   28   0.080   0.299  -0.062
    1UNL    C19   29  -0.007   0.264   0.064
    1UNL    C20   30  -0.009   0.114   0.088
    1UNL    C21   31   0.082   0.025   0.030
    1UNL     N2   32   0.053  -0.100   0.078
    1UNL    C22   33  -0.049  -0.085   0.176
    1UNL    C23   34  -0.108  -0.180   0.267
    1UNL    C24   35  -0.194  -0.142   0.365
    1UNL    C25   36  -0.231  -0.008   0.367
    1UNL    C26   37  -0.177   0.090   0.285
    1UNL    C27   38  -0.081   0.049   0.188
    1UNL    C28   39   0.178   0.066  -0.072
    1UNL    C29   40   0.251  -0.038  -0.166
    1UNL    C30   41   0.391  -0.070  -0.118
    1UNL    C31   42   0.480  -0.147  -0.219
    1UNL    C32   43   0.454  -0.145  -0.366
    1UNL    O10   44   0.539  -0.189  -0.442
    1UNL    O11   45   0.336  -0.087  -0.410
    1UNL    C33   46   0.344  -0.068  -0.552
    1UNL    C34   47   0.583  -0.224  -0.173
    1UNL    O12   48   0.622  -0.250  -0.047
    1UNL    C35   49   0.570  -0.156   0.046
    1UNL    O13   50   0.595  -0.179   0.186
    1UNL    C36   51   0.540  -0.084   0.278
    1UNL    O14   52   0.397  -0.082   0.285
    1UNL    C37   53   0.343   0.046   0.310
    1UNL    C38   54   0.199   0.039   0.362
    1UNL    O15   55   0.133   0.161   0.349
    1UNL    C39   56   0.426   0.123   0.413
    1UNL    O16   57   0.365   0.245   0.459
    1UNL    C40   58   0.564   0.157   0.357
    1UNL    O17   59   0.561   0.283   0.307
    1UNL    C41   60   0.601   0.057   0.242
    1UNL    O18   61   0.548   0.107   0.119
    1UNL    C42   62   0.407  -0.141   0.020
    1UNL    C43   63   0.348  -0.276   0.039
    1UNL    C44   64   0.272  -0.340  -0.051
    1UNL     H1   65  -0.493   0.066  -0.284
    1UNL     H2   66  -0.452   0.139  -0.452
    1UNL     H3   67  -0.225   0.108  -0.397
    1UNL     H4   68  -0.222   0.143  -0.119
    1UNL     H5   69  -0.315  -0.042  -0.008
    1UNL     H6   70  -0.570  -0.094  -0.036
    1UNL     H7   71  -0.577   0.223   0.062
    1UNL     H8   72  -0.870   0.307   0.080
    1UNL     H9   73  -0.785   0.320  -0.081
    1UNL    H10   74  -0.641   0.469   0.035
    1UNL    H11   75  -0.821   0.144   0.254
    1UNL    H12   76  -0.679   0.348   0.258
    1UNL    H13   77  -0.692  -0.056   0.281
    1UNL    H14   78  -0.623   0.113   0.430
    1UNL    H15   79  -0.427   0.048   0.185
    1UNL    H16   80  -0.462  -0.150   0.282
    1UNL    H17   81  -0.329  -0.314  -0.233
    1UNL    H18   82   0.045  -0.539  -0.256
    1UNL    H19   83   0.058  -0.427  -0.406
    1UNL    H20   84  -0.065  -0.559  -0.397
    1UNL    H21   85  -0.074  -0.032  -0.088
    1UNL    H22   86   0.053  -0.062  -0.304
    1UNL    H23   87  -0.067  -0.001  -0.391
    1UNL    H24   88   0.115   0.159  -0.359
    1UNL    H25   89  -0.015   0.246  -0.279
    1UNL    H26   90   0.166   0.373  -0.058
    1UNL    H27   91   0.019   0.360  -0.129
    1UNL    H28   92   0.046   0.311   0.143
    1UNL    H29   93  -0.111   0.294   0.042
    1UNL    H30   94   0.099  -0.180   0.043
    1UNL    H31   95  -0.092  -0.283   0.248
    1UNL    H32   96  -0.217  -0.206   0.439
    1UNL    H33   97  -0.306   0.018   0.439
    1UNL    H34   98  -0.208   0.200   0.305
    1UNL    H35   99   0.251   0.116  -0.012
    1UNL    H36  100   0.254   0.009  -0.272
    1UNL    H37  101   0.199  -0.137  -0.177
    1UNL    H38  102   0.438   0.030  -0.102
    1UNL    H39  103   0.356  -0.167  -0.598
    1UNL    H40  104   0.262  -0.016  -0.600
    1UNL    H41  105   0.426   0.003  -0.562
    1UNL    H42  106   0.642  -0.298  -0.242
    1UNL    H43  107   0.615  -0.056   0.010
    1UNL    H44  108   0.565  -0.118   0.380
    1UNL    H45  109   0.345   0.111   0.221
    1UNL    H46  110   0.145  -0.034   0.295
    1UNL    H47  111   0.176   0.005   0.465
    1UNL    H48  112   0.171   0.225   0.416
    1UNL    H49  113   0.420   0.061   0.511
    1UNL    H50  114   0.418   0.302   0.519
    1UNL    H51  115   0.647   0.158   0.434
    1UNL    H52  116   0.482   0.299   0.240
    1UNL    H53  117   0.702   0.040   0.221
    1UNL    H54  118   0.586   0.192   0.093
    1UNL    H55  119   0.365  -0.078   0.104
    1UNL    H56  120   0.405  -0.334   0.109
    1UNL    H57  121   0.264  -0.444  -0.044
    1UNL    H58  122   0.260  -0.307  -0.153
   0.00000   0.00000   0.00000   0.00000   0.00000   0.00000   0.00000   0.00000   0.00000
Generated with MDTraj, t= 3.0
 122
    1UNL     C1    1  -0.447   0.111  -0.320
    1UNL     C2    2  -0.311   0.094  -0.299
    1UNL     C3    3  -0.242   0.058  -0.177
    1UNL     C4    4  -0.340  -0.014  -0.078
    1UNL     O1    5  -0.444   0.077  -0.049
    1UNL     C5    6  -0.553   0.010   0.007
    1UNL     O2    7  -0.677   0.077  -0.013
    1UNL     C6    8  -0.665   0.201   0.062
    1UNL     C7    9  -0.762   0.305   0.011
    1UNL     O3   10  -0.768   0.418   0.094
    1UNL     C8   11  -0.686   0.168   0.207
    1UNL     O4   12  -0.640   0.264   0.294
    1UNL     C9   13  -0.628   0.026   0.247
    1UNL     O5   14  -0.578   0.026   0.375
    1UNL    C10   15  -0.511  -0.014   0.155
    1UNL     O6   16  -0.484  -0.151   0.184
    1UNL     O7   17  -0.391  -0.139  -0.133
    1UNL    C11   18  -0.297  -0.209  -0.204
    1UNL    C12   19  -0.169  -0.175  -0.228
    1UNL    C13   20  -0.071  -0.281  -0.271
    1UNL     O8   21   0.047  -0.256  -0.277
    1UNL     O9   22  -0.128  -0.405  -0.305
    1UNL    C14   23  -0.031  -0.497  -0.358
    1UNL    C15   24  -0.116  -0.036  -0.200
    1UNL    C16   25  -0.025   0.014  -0.303
    1UNL    C17   26   0.039   0.157  -0.284
    1UNL     N1   27   0.116   0.178  -0.159
    1UNL    C18   28   0.084   0.294  -0.064
    1UNL    C19   29  -0.001   0.265   0.057
    1UNL    C20   30   0.006   0.121   0.091
    1UNL    C21   31   0.086   0.025   0.034
    1UNL     N2   32   0.062  -0.102   0.095
    1UNL    C22   33  -0.036  -0.085   0.191
    1UNL    C23   34  -0.100  -0.177   0.267
    1UNL    C24   35  -0.197  -0.132   0.347
    1UNL    C25   36  -0.230   0.005   0.358
    1UNL    C26   37  -0.174   0.100   0.275
    1UNL    C27   38  -0.070   0.052   0.190
    1UNL    C28   39   0.173   0.062  -0.080
    1UNL    C29   40   0.245  -0.048  -0.164
    1UNL    C30   41   0.390  -0.076  -0.125
    1UNL    C31   42   0.475  -0.154  -0.223
    1UNL    C32   43   0.456  -0.139  -0.371
    1UNL    O10   44   0.539  -0.199  -0.435
    1UNL    O11   45   0.369  -0.048  -0.423
    1UNL    C33   46   0.360  -0.079  -0.560
    1UNL    C34   47   0.573  -0.234  -0.174
    1UNL    O12   48   0.610  -0.256  -0.046
    1UNL    C35   49   0.557  -0.162   0.048
    1UNL    O13   50   0.586  -0.178   0.182
    1UNL    C36   51   0.536  -0.080   0.268
    1UNL    O14   52   0.398  -0.075   0.277
    1UNL    C37   53   0.334   0.052   0.327
    1UNL    C38   54   0.192   0.031   0.388
    1UNL    O15   55   0.116   0.146   0.421
    1UNL    C39   56   0.425   0.132   0.419
    1UNL    O16   57   0.368   0.242   0.488
    1UNL    C40   58   0.561   0.165   0.345
    1UNL    O17   59   0.550   0.291   0.288
    1UNL    C41   60   0.594   0.060   0.227
    1UNL    O18   61   0.545   0.107   0.104
    1UNL    C42   62   0.405  -0.140   0.019
    1UNL    C43   63   0.327  -0.266   0.043
    1UNL    C44   64   0.318  -0.362  -0.044
    1UNL     H1   65  -0.511   0.066  -0.242
    1UNL     H2   66  -0.498   0.142  -0.410
    1UNL     H3   67  -0.249   0.126  -0.382
    1UNL     H4   68  -0.203   0.135  -0.124
    1UNL     H5   69  -0.287  -0.040   0.010
    1UNL     H6   70  -0.558  -0.086  -0.050
    1UNL     H7   71  -0.561   0.238   0.045
    1UNL     H8   72  -0.859   0.252   0.003
    1UNL     H9   73  -0.729   0.340  -0.091
    1UNL    H10   74  -0.695   0.482   0.077
    1UNL    H11   75  -0.800   0.163   0.238
    1UNL    H12   76  -0.694   0.345   0.279
    1UNL    H13   77  -0.692  -0.058   0.234
    1UNL    H14   78  -0.624   0.095   0.424
    1UNL    H15   79  -0.417   0.041   0.178
    1UNL    H16   80  -0.492  -0.162   0.284
    1UNL    H17   81  -0.333  -0.299  -0.241
    1UNL    H18   82   0.058  -0.500  -0.294
    1UNL    H19   83  -0.010  -0.452  -0.461
    1UNL    H20   84  -0.081  -0.592  -0.361
    1UNL    H21   85  -0.066  -0.045  -0.100
    1UNL    H22   86   0.048  -0.064  -0.328
    1UNL    H23   87  -0.076   0.020  -0.393
    1UNL    H24   88   0.117   0.189  -0.350
    1UNL    H25   89  -0.043   0.231  -0.299
    1UNL    H26   90   0.180   0.356  -0.051
    1UNL    H27   91   0.035   0.370  -0.124
    1UNL    H28   92   0.029   0.324   0.139
    1UNL    H29   93  -0.106   0.273   0.019
    1UNL    H30   94   0.097  -0.193   0.063
    1UNL    H31   95  -0.057  -0.277   0.277
    1UNL    H32   96  -0.267  -0.210   0.395
    1UNL    H33   97  -0.307   0.026   0.431
    1UNL    H34   98  -0.199   0.198   0.295
    1UNL    H35   99   0.253   0.104  -0.019
    1UNL    H36  100   0.237  -0.013  -0.271
    1UNL    H37  101   0.196  -0.152  -0.156
    1UNL    H38  102   0.440   0.025  -0.119
    1UNL    H39  103   0.360  -0.190  -0.575
    1UNL    H40  104   0.261  -0.042  -0.596
    1UNL    H41  105   0.432  -0.009  -0.613
    1UNL    H42  106   0.639  -0.285  -0.243
    1UNL    H43  107   0.606  -0.062   0.015
    1UNL    H44  108   0.564  -0.100   0.374
    1UNL    H45  109   0.328   0.115   0.235
    1UNL    H46  110   0.127  -0.039   0.325
    1UNL    H47  111   0.207  -0.032   0.479
    1UNL    H48  112   0.178   0.210   0.456
    1UNL    H49  113   0.460   0.058   0.501
    1UNL    H50  114   0.418   0.322   0.459
    1UNL    H51  115   0.656   0.168   0.407
    1UNL    H52  116   0.478   0.291   0.228
    1UNL    H53  117   0.697   0.060   0.217
    1UNL    H54  118   0.587   0.202   0.092
    1UNL    H55  119   0.367  -0.074   0.104
    1UNL    H56  120   0.285  -0.282   0.143
    1UNL    H57  121   0.258  -0.448   0.000
    1UNL    H58  122   0.389  -0.376  -0.123
   0.00000   0.00000   0.00000   0.00000   0.00000   0.00000   0.00000   0.00000   0.00000
Generated with MDTraj, t= 4.0
 122
    1UNL     C1    1  -0.448   0.106  -0.337
    1UNL     C2    2  -0.314   0.085  -0.326
    1UNL     C3    3  -0.235   0.056  -0.198
    1UNL     C4    4  -0.325  -0.004  -0.091
    1UNL     O1    5  -0.418   0.085  -0.031
    1UNL     C5    6  -0.532   0.028   0.028
    1UNL     O2    7  -0.653   0.086  -0.006
    1UNL     C6    8  -0.676   0.205   0.074
    1UNL     C7    9  -0.803   0.292   0.029
    1UNL     O3   10  -0.801   0.422   0.082
    1UNL     C8   11  -0.681   0.177   0.224
    1UNL     O4   12  -0.588   0.249   0.300
    1UNL     C9   13  -0.651   0.026   0.251
    1UNL     O5   14  -0.629   0.011   0.391
    1UNL    C10   15  -0.520  -0.011   0.179
    1UNL     O6   16  -0.498  -0.154   0.198
    1UNL     O7   17  -0.381  -0.127  -0.127
    1UNL    C11   18  -0.287  -0.207  -0.195
    1UNL    C12   19  -0.156  -0.179  -0.223
    1UNL    C13   20  -0.068  -0.286  -0.278
    1UNL     O8   21   0.048  -0.261  -0.294
    1UNL     O9   22  -0.133  -0.399  -0.312
    1UNL    C14   23  -0.043  -0.505  -0.365
    1UNL    C15   24  -0.111  -0.036  -0.216
    1UNL    C16   25  -0.019   0.006  -0.328
    1UNL    C17   26   0.055   0.151  -0.303
    1UNL     N1   27   0.108   0.170  -0.170
    1UNL    C18   28   0.074   0.294  -0.088
    1UNL    C19   29   0.001   0.262   0.045
    1UNL    C20   30   0.002   0.113   0.074
    1UNL    C21   31   0.095   0.029   0.023
    1UNL     N2   32   0.071  -0.094   0.075
    1UNL    C22   33  -0.037  -0.089   0.162
    1UNL    C23   34  -0.110  -0.177   0.244
    1UNL    C24   35  -0.198  -0.131   0.338
    1UNL    C25   36  -0.235   0.002   0.347
    1UNL    C26   37  -0.175   0.088   0.260
    1UNL    C27   38  -0.076   0.044   0.172
    1UNL    C28   39   0.187   0.068  -0.085
    1UNL    C29   40   0.248  -0.051  -0.169
    1UNL    C30   41   0.392  -0.076  -0.134
    1UNL    C31   42   0.470  -0.168  -0.223
    1UNL    C32   43   0.455  -0.160  -0.368
    1UNL    O10   44   0.521  -0.227  -0.444
    1UNL    O11   45   0.376  -0.053  -0.408
    1UNL    C33   46   0.376  -0.047  -0.550
    1UNL    C34   47   0.574  -0.240  -0.169
    1UNL    O12   48   0.621  -0.246  -0.040
    1UNL    C35   49   0.555  -0.157   0.050
    1UNL    O13   50   0.570  -0.180   0.185
    1UNL    C36   51   0.524  -0.074   0.273
    1UNL    O14   52   0.384  -0.054   0.281
    1UNL    C37   53   0.328   0.061   0.362
    1UNL    C38   54   0.208   0.016   0.445
    1UNL    O15   55   0.145   0.131   0.503
    1UNL    C39   56   0.440   0.133   0.437
    1UNL    O16   57   0.390   0.257   0.484
    1UNL    C40   58   0.558   0.173   0.333
    1UNL    O17   59   0.540   0.299   0.280
    1UNL    C41   60   0.581   0.068   0.221
    1UNL    O18   61   0.525   0.108   0.103
    1UNL    C42   62   0.408  -0.135   0.014
    1UNL    C43   63   0.328  -0.262   0.037
    1UNL    C44   64   0.306  -0.358  -0.047
    1UNL     H1   65  -0.502   0.113  -0.246
    1UNL     H2   66  -0.486   0.127  -0.436
    1UNL     H3   67  -0.247   0.099  -0.411
    1UNL     H4   68  -0.191   0.133  -0.146
    1UNL     H5   69  -0.261  -0.037  -0.011
    1UNL     H6   70  -0.538  -0.065  -0.035
    1UNL     H7   71  -0.596   0.278   0.046
    1UNL     H8   72  -0.894   0.240   0.058
    1UNL     H9   73  -0.803   0.284  -0.083
    1UNL    H10   74  -0.719   0.464   0.052
    1UNL    H11   75  -0.784   0.207   0.272
    1UNL    H12   76  -0.613   0.345   0.283
    1UNL    H13   77  -0.735  -0.026   0.217
    1UNL    H14   78  -0.573   0.091   0.421
    1UNL    H15   79  -0.443   0.050   0.230
    1UNL    H16   80  -0.518  -0.185   0.283
    1UNL    H17   81  -0.317  -0.310  -0.223
    1UNL    H18   82   0.042  -0.508  -0.294
    1UNL    H19   83  -0.009  -0.467  -0.470
    1UNL    H20   84  -0.099  -0.596  -0.371
    1UNL    H21   85  -0.061  -0.033  -0.122
    1UNL    H22   86   0.059  -0.067  -0.331
    1UNL    H23   87  -0.064   0.007  -0.422
    1UNL    H24   88   0.134   0.162  -0.372
    1UNL    H25   89  -0.015   0.235  -0.324
    1UNL    H26   90   0.176   0.347  -0.072
    1UNL    H27   91   0.036   0.377  -0.147
    1UNL    H28   92   0.067   0.293   0.119
    1UNL    H29   93  -0.101   0.309   0.048
    1UNL    H30   94   0.108  -0.190   0.051
    1UNL    H31   95  -0.079  -0.281   0.251
    1UNL    H32   96  -0.253  -0.206   0.390
    1UNL    H33   97  -0.320   0.026   0.409
    1UNL    H34   98  -0.198   0.194   0.255
    1UNL    H35   99   0.270   0.134  -0.057
    1UNL    H36  100   0.242  -0.011  -0.269
    1UNL    H37  101   0.176  -0.141  -0.165
    1UNL    H38  102   0.441   0.024  -0.148
    1UNL    H39  103   0.297  -0.117  -0.587
    1UNL    H40  104   0.351   0.056  -0.582
    1UNL    H41  105   0.482  -0.057  -0.586
    1UNL    H42  106   0.616  -0.310  -0.229
    1UNL    H43  107   0.604  -0.056   0.021
    1UNL    H44  108   0.562  -0.100   0.373
    1UNL    H45  109   0.280   0.127   0.286
    1UNL    H46  110   0.138  -0.050   0.380
    1UNL    H47  111   0.236  -0.058   0.526
    1UNL    H48  112   0.224   0.193   0.525
    1UNL    H49  113   0.458   0.065   0.532
    1UNL    H50  114   0.463   0.321   0.490
    1UNL    H51  115   0.659   0.169   0.390
    1UNL    H52  116   0.437   0.312   0.292
    1UNL    H53  117   0.681   0.054   0.207
    1UNL    H54  118   0.546   0.198   0.088
    1UNL    H55  119   0.369  -0.063   0.095
    1UNL    H56  120   0.296  -0.281   0.139
    1UNL    H57  121   0.238  -0.429  -0.009
    1UNL    H58  122   0.344  -0.356  -0.146
   0.00000   0.00000   0.00000   0.00000   0.00000   0.00000   0.00000   0.00000   0.00000
Generated with MDTraj, t= 5.0
 122
    1UNL     C1    1  -0.450   0.113  -0.317
    1UNL     C2    2  -0.320   0.077  -0.314
    1UNL     C3    3  -0.241   0.056  -0.193
    1UNL     C4    4  -0.320  -0.007  -0.081
    1UNL     O1    5  -0.408   0.089  -0.028
    1UNL     C5    6  -0.529   0.027   0.022
    1UNL     O2    7  -0.652   0.093  -0.006
    1UNL     C6    8  -0.672   0.214   0.073
    1UNL     C7    9  -0.800   0.292   0.026
    1UNL     O3   10  -0.818   0.411   0.091
    1UNL     C8   11  -0.672   0.184   0.222
    1UNL     O4   12  -0.561   0.252   0.286
    1UNL     C9   13  -0.646   0.032   0.244
    1UNL     O5   14  -0.654  -0.005   0.387
    1UNL    C10   15  -0.510  -0.003   0.175
    1UNL     O6   16  -0.484  -0.146   0.197
    1UNL     O7   17  -0.382  -0.127  -0.130
    1UNL    C11   18  -0.289  -0.215  -0.193
    1UNL    C12   19  -0.160  -0.181  -0.224
    1UNL    C13   20  -0.069  -0.287  -0.277
    1UNL     O8   21   0.045  -0.253  -0.290
    1UNL     O9   22  -0.129  -0.401  -0.317
    1UNL    C14   23  -0.038  -0.499  -0.357
    1UNL    C15   24  -0.116  -0.037  -0.220
    1UNL    C16   25  -0.031   0.002  -0.337
    1UNL    C17   26   0.051   0.132  -0.326
    1UNL     N1   27   0.101   0.178  -0.194
    1UNL    C18   28   0.040   0.298  -0.111
    1UNL    C19   29  -0.001   0.270   0.035
    1UNL    C20   30   0.016   0.123   0.076
    1UNL    C21   31   0.095   0.031   0.011
    1UNL     N2   32   0.073  -0.094   0.061
    1UNL    C22   33  -0.034  -0.090   0.151
    1UNL    C23   34  -0.098  -0.190   0.229
    1UNL    C24   35  -0.199  -0.152   0.316
    1UNL    C25   36  -0.218  -0.014   0.334
    1UNL    C26   37  -0.163   0.086   0.259
    1UNL    C27   38  -0.070   0.047   0.163
    1UNL    C28   39   0.184   0.082  -0.101
    1UNL    C29   40   0.255  -0.038  -0.175
    1UNL    C30   41   0.391  -0.074  -0.125
    1UNL    C31   42   0.477  -0.157  -0.219
    1UNL    C32   43   0.457  -0.158  -0.362
    1UNL    O10   44   0.492  -0.252  -0.429
    1UNL    O11   45   0.409  -0.039  -0.418
    1UNL    C33   46   0.396  -0.061  -0.559
    1UNL    C34   47   0.564  -0.245  -0.163
    1UNL    O12   48   0.608  -0.255  -0.030
    1UNL    C35   49   0.540  -0.151   0.057
    1UNL    O13   50   0.571  -0.169   0.195
    1UNL    C36   51   0.523  -0.061   0.274
    1UNL    O14   52   0.383  -0.054   0.287
    1UNL    C37   53   0.341   0.059   0.372
    1UNL    C38   54   0.234   0.002   0.471
    1UNL    O15   55   0.176   0.107   0.545
    1UNL    C39   56   0.452   0.139   0.440
    1UNL    O16   57   0.395   0.260   0.492
    1UNL    C40   58   0.569   0.180   0.343
    1UNL    O17   59   0.533   0.311   0.301
    1UNL    C41   60   0.575   0.087   0.222
    1UNL    O18   61   0.497   0.121   0.108
    1UNL    C42   62   0.386  -0.147   0.019
    1UNL    C43   63   0.333  -0.285   0.026
    1UNL    C44   64   0.239  -0.347  -0.051
    1UNL     H1   65  -0.486   0.147  -0.221
    1UNL     H2   66  -0.497   0.136  -0.413
    1UNL     H3   67  -0.264   0.071  -0.408
    1UNL     H4   68  -0.204   0.147  -0.151
    1UNL     H5   69  -0.259  -0.047   0.001
    1UNL     H6   70  -0.536  -0.069  -0.038
    1UNL     H7   71  -0.589   0.284   0.052
    1UNL     H8   72  -0.884   0.227   0.048
    1UNL     H9   73  -0.806   0.302  -0.086
    1UNL    H10   74  -0.737   0.466   0.082
    1UNL    H11   75  -0.758   0.218   0.291
    1UNL    H12   76  -0.575   0.347   0.276
    1UNL    H13   77  -0.720  -0.021   0.194
    1UNL    H14   78  -0.578   0.029   0.436
    1UNL    H15   79  -0.424   0.055   0.215
    1UNL    H16   80  -0.526  -0.189   0.278
    1UNL    H17   81  -0.321  -0.319  -0.224
    1UNL    H18   82   0.006  -0.526  -0.260
    1UNL    H19   83   0.033  -0.458  -0.441
    1UNL    H20   84  -0.107  -0.571  -0.396
    1UNL    H21   85  -0.060  -0.023  -0.131
    1UNL    H22   86   0.038  -0.078  -0.345
    1UNL    H23   87  -0.087  -0.023  -0.425
    1UNL    H24   88   0.139   0.114  -0.382
    1UNL    H25   89   0.007   0.221  -0.379
    1UNL    H26   90   0.136   0.360  -0.097
    1UNL    H27   91  -0.032   0.344  -0.176
    1UNL    H28   92   0.055   0.332   0.095
    1UNL    H29   93  -0.111   0.290   0.047
    1UNL    H30   94   0.137  -0.175   0.043
    1UNL    H31   95  -0.074  -0.291   0.204
    1UNL    H32   96  -0.247  -0.220   0.381
    1UNL    H33   97  -0.284   0.025   0.410
    1UNL    H34   98  -0.189   0.195   0.274
    1UNL    H35   99   0.268   0.145  -0.060
    1UNL    H36  100   0.277  -0.006  -0.276
    1UNL    H37  101   0.194  -0.130  -0.182
    1UNL    H38  102   0.450   0.022  -0.118
    1UNL    H39  103   0.341  -0.155  -0.565
    1UNL    H40  104   0.339   0.015  -0.610
    1UNL    H41  105   0.497  -0.064  -0.601
    1UNL    H42  106   0.608  -0.326  -0.234
    1UNL    H43  107   0.582  -0.050   0.023
    1UNL    H44  108   0.556  -0.090   0.374
    1UNL    H45  109   0.291   0.134   0.308
    1UNL    H46  110   0.152  -0.055   0.412
    1UNL    H47  111   0.279  -0.084   0.532
    1UNL    H48  112   0.247   0.168   0.568
    1UNL    H49  113   0.487   0.088   0.536
    1UNL    H50  114   0.468   0.328   0.483
    1UNL    H51  115   0.677   0.209   0.383
    1UNL    H52  116   0.439   0.326   0.268
    1UNL    H53  117   0.669   0.075   0.186
    1UNL    H54  118   0.494   0.225   0.089
    1UNL    H55  119   0.333  -0.083   0.099
    1UNL    H56  120   0.365  -0.334   0.117
    1UNL    H57  121   0.216  -0.450  -0.028
    1UNL    H58  122   0.160  -0.308  -0.124
   0.00000   0.00000   0.00000   0.00000   0.00000   0.00000   0.00000   0.00000   0.00000
Generated with MDTraj, t= 6.0
 122
    1UNL     C1    1  -0.447   0.136  -0.302
    1UNL     C2    2  -0.319   0.090  -0.312
    1UNL     C3    3  -0.236   0.054  -0.191
    1UNL     C4    4  -0.321  -0.006  -0.079
    1UNL     O1    5  -0.417   0.088  -0.044
    1UNL     C5    6  -0.535   0.020   0.010
    1UNL     O2    7  -0.652   0.089  -0.017
    1UNL     C6    8  -0.663   0.213   0.063
    1UNL     C7    9  -0.781   0.302   0.021
    1UNL     O3   10  -0.809   0.402   0.116
    1UNL     C8   11  -0.668   0.184   0.210
    1UNL     O4   12  -0.578   0.262   0.288
    1UNL     C9   13  -0.640   0.035   0.242
    1UNL     O5   14  -0.615   0.010   0.380
    1UNL    C10   15  -0.518  -0.013   0.160
    1UNL     O6   16  -0.490  -0.150   0.185
    1UNL     O7   17  -0.378  -0.135  -0.121
    1UNL    C11   18  -0.288  -0.216  -0.192
    1UNL    C12   19  -0.166  -0.186  -0.243
    1UNL    C13   20  -0.068  -0.292  -0.274
    1UNL     O8   21   0.052  -0.265  -0.273
    1UNL     O9   22  -0.130  -0.416  -0.304
    1UNL    C14   23  -0.026  -0.507  -0.353
    1UNL    C15   24  -0.118  -0.045  -0.229
    1UNL    C16   25  -0.041   0.005  -0.343
    1UNL    C17   26   0.027   0.146  -0.328
    1UNL     N1   27   0.079   0.179  -0.190
    1UNL    C18   28   0.031   0.305  -0.104
    1UNL    C19   29  -0.018   0.276   0.034
    1UNL    C20   30   0.020   0.137   0.084
    1UNL    C21   31   0.106   0.053   0.015
    1UNL     N2   32   0.092  -0.077   0.061
    1UNL    C22   33  -0.005  -0.077   0.164
    1UNL    C23   34  -0.061  -0.184   0.233
    1UNL    C24   35  -0.170  -0.156   0.313
    1UNL    C25   36  -0.229  -0.027   0.319
    1UNL    C26   37  -0.162   0.076   0.258
    1UNL    C27   38  -0.051   0.053   0.178
    1UNL    C28   39   0.176   0.098  -0.113
    1UNL    C29   40   0.240  -0.027  -0.182
    1UNL    C30   41   0.378  -0.077  -0.130
    1UNL    C31   42   0.470  -0.164  -0.220
    1UNL    C32   43   0.448  -0.172  -0.368
    1UNL    O10   44   0.490  -0.265  -0.429
    1UNL    O11   45   0.393  -0.066  -0.426
    1UNL    C33   46   0.415  -0.069  -0.568
    1UNL    C34   47   0.560  -0.244  -0.155
    1UNL    O12   48   0.604  -0.246  -0.024
    1UNL    C35   49   0.533  -0.146   0.055
    1UNL    O13   50   0.553  -0.168   0.195
    1UNL    C36   51   0.503  -0.060   0.268
    1UNL    O14   52   0.368  -0.043   0.283
    1UNL    C37   53   0.333   0.063   0.377
    1UNL    C38   54   0.233  -0.002   0.486
    1UNL    O15   55   0.180   0.090   0.573
    1UNL    C39   56   0.449   0.139   0.445
    1UNL    O16   57   0.399   0.245   0.520
    1UNL    C40   58   0.561   0.187   0.340
    1UNL    O17   59   0.521   0.312   0.287
    1UNL    C41   60   0.566   0.077   0.224
    1UNL    O18   61   0.511   0.111   0.098
    1UNL    C42   62   0.389  -0.143   0.014
    1UNL    C43   63   0.326  -0.269   0.027
    1UNL    C44   64   0.269  -0.345  -0.070
    1UNL     H1   65  -0.493   0.136  -0.204
    1UNL     H2   66  -0.504   0.147  -0.390
    1UNL     H3   67  -0.275   0.098  -0.411
    1UNL     H4   68  -0.195   0.155  -0.165
    1UNL     H5   69  -0.265  -0.032   0.015
    1UNL     H6   70  -0.546  -0.084  -0.039
    1UNL     H7   71  -0.569   0.263   0.035
    1UNL     H8   72  -0.869   0.242   0.011
    1UNL     H9   73  -0.765   0.345  -0.080
    1UNL    H10   74  -0.738   0.472   0.125
    1UNL    H11   75  -0.773   0.212   0.247
    1UNL    H12   76  -0.607   0.351   0.285
    1UNL    H13   77  -0.715  -0.025   0.204
    1UNL    H14   78  -0.557   0.082   0.413
    1UNL    H15   79  -0.432   0.044   0.202
    1UNL    H16   80  -0.527  -0.181   0.273
    1UNL    H17   81  -0.318  -0.317  -0.196
    1UNL    H18   82   0.035  -0.512  -0.264
    1UNL    H19   83   0.026  -0.456  -0.443
    1UNL    H20   84  -0.077  -0.593  -0.379
    1UNL    H21   85  -0.056  -0.042  -0.139
    1UNL    H22   86   0.021  -0.077  -0.370
    1UNL    H23   87  -0.108   0.011  -0.430
    1UNL    H24   88   0.109   0.155  -0.392
    1UNL    H25   89  -0.049   0.223  -0.364
    1UNL    H26   90   0.136   0.357  -0.109
    1UNL    H27   91  -0.044   0.352  -0.164
    1UNL    H28   92   0.024   0.343   0.102
    1UNL    H29   93  -0.129   0.291   0.044
    1UNL    H30   94   0.116  -0.153   0.003
    1UNL    H31   95  -0.039  -0.289   0.210
    1UNL    H32   96  -0.211  -0.237   0.384
    1UNL    H33   97  -0.306  -0.004   0.392
    1UNL    H34   98  -0.199   0.169   0.252
    1UNL    H35   99   0.266   0.160  -0.081
    1UNL    H36  100   0.254  -0.011  -0.289
    1UNL    H37  101   0.185  -0.113  -0.178
    1UNL    H38  102   0.441   0.015  -0.125
    1UNL    H39  103   0.354  -0.153  -0.593
    1UNL    H40  104   0.375   0.019  -0.614
    1UNL    H41  105   0.517  -0.092  -0.589
    1UNL    H42  106   0.608  -0.319  -0.217
    1UNL    H43  107   0.576  -0.045   0.018
    1UNL    H44  108   0.534  -0.084   0.370
    1UNL    H45  109   0.281   0.133   0.309
    1UNL    H46  110   0.160  -0.080   0.441
    1UNL    H47  111   0.299  -0.069   0.552
    1UNL    H48  112   0.221   0.180   0.561
    1UNL    H49  113   0.503   0.073   0.515
    1UNL    H50  114   0.478   0.293   0.550
    1UNL    H51  115   0.662   0.204   0.403
    1UNL    H52  116   0.527   0.363   0.368
    1UNL    H53  117   0.665   0.063   0.208
    1UNL    H54  118   0.488   0.200   0.106
    1UNL    H55  119   0.338  -0.075   0.092
    1UNL    H56  120   0.296  -0.295   0.128
    1UNL    H57  121   0.226  -0.435  -0.044
    1UNL    H58  122   0.233  -0.324  -0.170
   0.00000   0.00000   0.00000   0.00000   0.00000   0.00000   0.00000   0.00000   0.00000
Generated with MDTraj, t= 7.0
 122
    1UNL     C1    1  -0.416   0.138  -0.339
    1UNL     C2    2  -0.298   0.070  -0.330
    1UNL     C3    3  -0.237   0.053  -0.190
    1UNL     C4    4  -0.336  -0.010  -0.096
    1UNL     O1    5  -0.430   0.082  -0.053
    1UNL     C5    6  -0.547   0.019   0.014
    1UNL     O2    7  -0.663   0.097  -0.005
    1UNL     C6    8  -0.660   0.215   0.076
    1UNL     C7    9  -0.775   0.301   0.024
    1UNL     O3   10  -0.784   0.426   0.098
    1UNL     C8   11  -0.674   0.174   0.223
    1UNL     O4   12  -0.596   0.261   0.308
    1UNL     C9   13  -0.629   0.026   0.259
    1UNL     O5   14  -0.585   0.017   0.384
    1UNL    C10   15  -0.518  -0.026   0.161
    1UNL     O6   16  -0.506  -0.158   0.185
    1UNL     O7   17  -0.384  -0.129  -0.152
    1UNL    C11   18  -0.290  -0.209  -0.201
    1UNL    C12   19  -0.158  -0.187  -0.223
    1UNL    C13   20  -0.059  -0.287  -0.266
    1UNL     O8   21   0.056  -0.253  -0.289
    1UNL     O9   22  -0.122  -0.409  -0.283
    1UNL    C14   23  -0.021  -0.500  -0.334
    1UNL    C15   24  -0.108  -0.041  -0.213
    1UNL    C16   25  -0.024  -0.002  -0.335
    1UNL    C17   26   0.046   0.138  -0.318
    1UNL     N1   27   0.099   0.175  -0.189
    1UNL    C18   28   0.043   0.301  -0.111
    1UNL    C19   29  -0.031   0.265   0.022
    1UNL    C20   30   0.013   0.128   0.074
    1UNL    C21   31   0.105   0.049   0.012
    1UNL     N2   32   0.084  -0.077   0.068
    1UNL    C22   33  -0.002  -0.080   0.170
    1UNL    C23   34  -0.047  -0.176   0.259
    1UNL    C24   35  -0.149  -0.144   0.350
    1UNL    C25   36  -0.216  -0.017   0.344
    1UNL    C26   37  -0.175   0.077   0.255
    1UNL    C27   38  -0.057   0.048   0.174
    1UNL    C28   39   0.190   0.087  -0.105
    1UNL    C29   40   0.251  -0.028  -0.185
    1UNL    C30   41   0.385  -0.066  -0.141
    1UNL    C31   42   0.471  -0.158  -0.232
    1UNL    C32   43   0.449  -0.162  -0.380
    1UNL    O10   44   0.502  -0.250  -0.439
    1UNL    O11   45   0.374  -0.068  -0.446
    1UNL    C33   46   0.370  -0.090  -0.586
    1UNL    C34   47   0.564  -0.235  -0.169
    1UNL    O12   48   0.587  -0.249  -0.035
    1UNL    C35   49   0.531  -0.143   0.044
    1UNL    O13   50   0.543  -0.173   0.190
    1UNL    C36   51   0.497  -0.060   0.273
    1UNL    O14   52   0.354  -0.032   0.278
    1UNL    C37   53   0.317   0.064   0.378
    1UNL    C38   54   0.210   0.004   0.479
    1UNL    O15   55   0.176   0.093   0.579
    1UNL    C39   56   0.438   0.123   0.452
    1UNL    O16   57   0.401   0.226   0.539
    1UNL    C40   58   0.537   0.184   0.345
    1UNL    O17   59   0.484   0.300   0.293
    1UNL    C41   60   0.568   0.077   0.237
    1UNL    O18   61   0.541   0.111   0.102
    1UNL    C42   62   0.390  -0.121   0.007
    1UNL    C43   63   0.320  -0.255   0.022
    1UNL    C44   64   0.295  -0.352  -0.063
    1UNL     H1   65  -0.462   0.173  -0.247
    1UNL     H2   66  -0.476   0.137  -0.428
    1UNL     H3   67  -0.280   0.006  -0.417
    1UNL     H4   68  -0.213   0.164  -0.162
    1UNL     H5   69  -0.281  -0.034   0.002
    1UNL     H6   70  -0.573  -0.076  -0.047
    1UNL     H7   71  -0.555   0.250   0.059
    1UNL     H8   72  -0.871   0.256   0.029
    1UNL     H9   73  -0.763   0.324  -0.083
    1UNL    H10   74  -0.713   0.491   0.074
    1UNL    H11   75  -0.778   0.189   0.263
    1UNL    H12   76  -0.626   0.353   0.307
    1UNL    H13   77  -0.708  -0.040   0.244
    1UNL    H14   78  -0.530   0.099   0.398
    1UNL    H15   79  -0.423   0.021   0.195
    1UNL    H16   80  -0.537  -0.174   0.275
    1UNL    H17   81  -0.324  -0.310  -0.205
    1UNL    H18   82   0.048  -0.502  -0.253
    1UNL    H19   83   0.023  -0.450  -0.427
    1UNL    H20   84  -0.071  -0.589  -0.350
    1UNL    H21   85  -0.049  -0.031  -0.118
    1UNL    H22   86   0.059  -0.072  -0.353
    1UNL    H23   87  -0.089  -0.004  -0.424
    1UNL    H24   88   0.113   0.147  -0.397
    1UNL    H25   89  -0.040   0.212  -0.331
    1UNL    H26   90   0.135   0.373  -0.093
    1UNL    H27   91  -0.016   0.345  -0.190
    1UNL    H28   92  -0.020   0.337   0.103
    1UNL    H29   93  -0.141   0.262   0.010
    1UNL    H30   94   0.143  -0.160   0.053
    1UNL    H31   95  -0.014  -0.276   0.250
    1UNL    H32   96  -0.181  -0.212   0.417
    1UNL    H33   97  -0.295   0.002   0.414
    1UNL    H34   98  -0.221   0.181   0.251
    1UNL    H35   99   0.270   0.165  -0.084
    1UNL    H36  100   0.267   0.003  -0.287
    1UNL    H37  101   0.183  -0.108  -0.191
    1UNL    H38  102   0.445   0.027  -0.144
    1UNL    H39  103   0.324  -0.189  -0.589
    1UNL    H40  104   0.305  -0.015  -0.631
    1UNL    H41  105   0.470  -0.104  -0.628
    1UNL    H42  106   0.602  -0.307  -0.229
    1UNL    H43  107   0.592  -0.051   0.011
    1UNL    H44  108   0.523  -0.095   0.373
    1UNL    H45  109   0.263   0.145   0.327
    1UNL    H46  110   0.114  -0.019   0.422
    1UNL    H47  111   0.240  -0.094   0.521
    1UNL    H48  112   0.253   0.157   0.591
    1UNL    H49  113   0.468   0.036   0.507
    1UNL    H50  114   0.429   0.310   0.501
    1UNL    H51  115   0.648   0.212   0.380
    1UNL    H52  116   0.429   0.270   0.208
    1UNL    H53  117   0.667   0.052   0.233
    1UNL    H54  118   0.567   0.211   0.089
    1UNL    H55  119   0.339  -0.049   0.082
    1UNL    H56  120   0.299  -0.289   0.122
    1UNL    H57  121   0.233  -0.445  -0.037
    1UNL    H58  122   0.313  -0.338  -0.166
   0.00000   0.00000   0.00000   0.00000   0.00000   0.00000   0.00000   0.00000   0.00000
Generated with MDTraj, t= 8.0
 122
    1UNL     C1    1  -0.436   0.158  -0.337
    1UNL     C2    2  -0.327   0.079  -0.338
    1UNL     C3    3  -0.252   0.055  -0.213
    1UNL     C4    4  -0.346  -0.015  -0.107
    1UNL     O1    5  -0.449   0.081  -0.080
    1UNL     C5    6  -0.550   0.016  -0.002
    1UNL     O2    7  -0.675   0.088  -0.009
    1UNL     C6    8  -0.664   0.205   0.073
    1UNL     C7    9  -0.765   0.311   0.036
    1UNL     O3   10  -0.724   0.436   0.099
    1UNL     C8   11  -0.672   0.162   0.224
    1UNL     O4   12  -0.600   0.258   0.302
    1UNL     C9   13  -0.616   0.018   0.255
    1UNL     O5   14  -0.572   0.020   0.386
    1UNL    C10   15  -0.501  -0.015   0.147
    1UNL     O6   16  -0.458  -0.146   0.163
    1UNL     O7   17  -0.387  -0.145  -0.147
    1UNL    C11   18  -0.285  -0.222  -0.185
    1UNL    C12   19  -0.160  -0.185  -0.224
    1UNL    C13   20  -0.058  -0.291  -0.254
    1UNL     O8   21   0.059  -0.264  -0.271
    1UNL     O9   22  -0.113  -0.415  -0.272
    1UNL    C14   23  -0.011  -0.512  -0.308
    1UNL    C15   24  -0.124  -0.032  -0.232
    1UNL    C16   25  -0.030   0.013  -0.341
    1UNL    C17   26   0.028   0.154  -0.318
    1UNL     N1   27   0.104   0.179  -0.183
    1UNL    C18   28   0.056   0.298  -0.107
    1UNL    C19   29  -0.026   0.263   0.016
    1UNL    C20   30  -0.008   0.124   0.069
    1UNL    C21   31   0.087   0.035   0.014
    1UNL     N2   32   0.079  -0.086   0.075
    1UNL    C22   33  -0.025  -0.077   0.170
    1UNL    C23   34  -0.061  -0.166   0.270
    1UNL    C24   35  -0.141  -0.126   0.369
    1UNL    C25   36  -0.195   0.007   0.372
    1UNL    C26   37  -0.176   0.100   0.270
    1UNL    C27   38  -0.080   0.055   0.173
    1UNL    C28   39   0.180   0.080  -0.097
    1UNL    C29   40   0.249  -0.024  -0.191
    1UNL    C30   41   0.385  -0.059  -0.138
    1UNL    C31   42   0.480  -0.143  -0.226
    1UNL    C32   43   0.454  -0.163  -0.365
    1UNL    O10   44   0.521  -0.236  -0.432
    1UNL    O11   45   0.349  -0.080  -0.415
    1UNL    C33   46   0.322  -0.105  -0.547
    1UNL    C34   47   0.581  -0.215  -0.169
    1UNL    O12   48   0.613  -0.223  -0.036
    1UNL    C35   49   0.536  -0.136   0.049
    1UNL    O13   50   0.558  -0.165   0.188
    1UNL    C36   51   0.510  -0.064   0.274
    1UNL    O14   52   0.373  -0.041   0.258
    1UNL    C37   53   0.310   0.041   0.360
    1UNL    C38   54   0.215  -0.031   0.455
    1UNL    O15   55   0.147   0.061   0.538
    1UNL    C39   56   0.421   0.117   0.444
    1UNL    O16   57   0.376   0.228   0.520
    1UNL    C40   58   0.539   0.179   0.352
    1UNL    O17   59   0.475   0.285   0.291
    1UNL    C41   60   0.587   0.074   0.247
    1UNL    O18   61   0.564   0.114   0.112
    1UNL    C42   62   0.389  -0.128   0.011
    1UNL    C43   63   0.339  -0.273   0.005
    1UNL    C44   64   0.257  -0.330  -0.079
    1UNL     H1   65  -0.475   0.193  -0.245
    1UNL     H2   66  -0.474   0.195  -0.433
    1UNL     H3   67  -0.320   0.019  -0.428
    1UNL     H4   68  -0.227   0.168  -0.181
    1UNL     H5   69  -0.289  -0.011  -0.006
    1UNL     H6   70  -0.575  -0.087  -0.052
    1UNL     H7   71  -0.559   0.236   0.052
    1UNL     H8   72  -0.865   0.293   0.065
    1UNL     H9   73  -0.775   0.337  -0.070
    1UNL    H10   74  -0.705   0.505   0.033
    1UNL    H11   75  -0.773   0.178   0.261
    1UNL    H12   76  -0.630   0.349   0.264
    1UNL    H13   77  -0.686  -0.061   0.247
    1UNL    H14   78  -0.520   0.103   0.390
    1UNL    H15   79  -0.410   0.043   0.176
    1UNL    H16   80  -0.463  -0.181   0.249
    1UNL    H17   81  -0.314  -0.331  -0.187
    1UNL    H18   82   0.053  -0.518  -0.223
    1UNL    H19   83   0.044  -0.467  -0.398
    1UNL    H20   84  -0.071  -0.596  -0.327
    1UNL    H21   85  -0.071  -0.011  -0.132
    1UNL    H22   86   0.048  -0.069  -0.341
    1UNL    H23   87  -0.084  -0.005  -0.438
    1UNL    H24   88   0.075   0.196  -0.401
    1UNL    H25   89  -0.065   0.222  -0.310
    1UNL    H26   90   0.156   0.351  -0.074
    1UNL    H27   91   0.004   0.365  -0.175
    1UNL    H28   92  -0.019   0.348   0.090
    1UNL    H29   93  -0.131   0.273  -0.017
    1UNL    H30   94   0.114  -0.180   0.042
    1UNL    H31   95  -0.010  -0.262   0.279
    1UNL    H32   96  -0.178  -0.204   0.441
    1UNL    H33   97  -0.264   0.034   0.452
    1UNL    H34   98  -0.190   0.208   0.273
    1UNL    H35   99   0.263   0.142  -0.049
    1UNL    H36  100   0.260   0.011  -0.289
    1UNL    H37  101   0.187  -0.116  -0.194
    1UNL    H38  102   0.441   0.035  -0.126
    1UNL    H39  103   0.294  -0.213  -0.544
    1UNL    H40  104   0.237  -0.040  -0.577
    1UNL    H41  105   0.418  -0.104  -0.606
    1UNL    H42  106   0.654  -0.270  -0.239
    1UNL    H43  107   0.590  -0.035   0.023
    1UNL    H44  108   0.529  -0.094   0.376
    1UNL    H45  109   0.262   0.124   0.306
    1UNL    H46  110   0.139  -0.090   0.398
    1UNL    H47  111   0.272  -0.101   0.517
    1UNL    H48  112   0.210   0.128   0.560
    1UNL    H49  113   0.453   0.054   0.523
    1UNL    H50  114   0.442   0.303   0.525
    1UNL    H51  115   0.631   0.238   0.403
    1UNL    H52  116   0.401   0.262   0.242
    1UNL    H53  117   0.686   0.062   0.265
    1UNL    H54  118   0.625   0.194   0.096
    1UNL    H55  119   0.329  -0.070   0.089
    1UNL    H56  120   0.376  -0.341   0.084
    1UNL    H57  121   0.234  -0.431  -0.055
    1UNL    H58  122   0.253  -0.291  -0.176
   0.00000   0.00000   0.00000   0.00000   0.00000   0.00000   0.00000   0.00000   0.00000
Generated with MDTraj, t= 9.0
 122
    1UNL     C1    1  -0.418   0.148  -0.364
    1UNL     C2    2  -0.321   0.057  -0.343
    1UNL     C3    3  -0.252   0.049  -0.214
    1UNL     C4    4  -0.354  -0.021  -0.114
    1UNL     O1    5  -0.465   0.069  -0.092
    1UNL     C5    6  -0.555   0.008  -0.003
    1UNL     O2    7  -0.679   0.085  -0.007
    1UNL     C6    8  -0.656   0.202   0.075
    1UNL     C7    9  -0.741   0.322   0.039
    1UNL     O3   10  -0.699   0.435   0.110
    1UNL     C8   11  -0.655   0.162   0.224
    1UNL     O4   12  -0.592   0.256   0.300
    1UNL     C9   13  -0.597   0.022   0.249
    1UNL     O5   14  -0.538   0.015   0.385
    1UNL    C10   15  -0.489   0.000   0.138
    1UNL     O6   16  -0.417  -0.120   0.150
    1UNL     O7   17  -0.398  -0.145  -0.152
    1UNL    C11   18  -0.294  -0.220  -0.207
    1UNL    C12   19  -0.168  -0.180  -0.237
    1UNL    C13   20  -0.071  -0.282  -0.263
    1UNL     O8   21   0.044  -0.251  -0.275
    1UNL     O9   22  -0.114  -0.413  -0.266
    1UNL    C14   23   0.000  -0.505  -0.276
    1UNL    C15   24  -0.124  -0.034  -0.218
    1UNL    C16   25  -0.029   0.016  -0.319
    1UNL    C17   26   0.029   0.157  -0.306
    1UNL     N1   27   0.094   0.182  -0.173
    1UNL    C18   28   0.027   0.302  -0.109
    1UNL    C19   29  -0.027   0.278   0.032
    1UNL    C20   30   0.006   0.135   0.078
    1UNL    C21   31   0.095   0.045   0.021
    1UNL     N2   32   0.076  -0.079   0.090
    1UNL    C22   33  -0.025  -0.067   0.184
    1UNL    C23   34  -0.073  -0.161   0.271
    1UNL    C24   35  -0.165  -0.118   0.366
    1UNL    C25   36  -0.211   0.014   0.369
    1UNL    C26   37  -0.158   0.106   0.287
    1UNL    C27   38  -0.061   0.070   0.189
    1UNL    C28   39   0.176   0.080  -0.097
    1UNL    C29   40   0.233  -0.037  -0.175
    1UNL    C30   41   0.372  -0.065  -0.131
    1UNL    C31   42   0.459  -0.143  -0.228
    1UNL    C32   43   0.443  -0.160  -0.373
    1UNL    O10   44   0.522  -0.218  -0.444
    1UNL    O11   45   0.326  -0.104  -0.425
    1UNL    C33   46   0.310  -0.138  -0.558
    1UNL    C34   47   0.572  -0.205  -0.181
    1UNL    O12   48   0.616  -0.211  -0.051
    1UNL    C35   49   0.545  -0.123   0.044
    1UNL    O13   50   0.582  -0.150   0.177
    1UNL    C36   51   0.516  -0.068   0.270
    1UNL    O14   52   0.384  -0.041   0.252
    1UNL    C37   53   0.307   0.036   0.353
    1UNL    C38   54   0.222  -0.055   0.438
    1UNL    O15   55   0.119   0.015   0.507
    1UNL    C39   56   0.397   0.124   0.447
    1UNL    O16   57   0.323   0.225   0.498
    1UNL    C40   58   0.522   0.185   0.367
    1UNL    O17   59   0.491   0.297   0.303
    1UNL    C41   60   0.588   0.074   0.269
    1UNL    O18   61   0.586   0.122   0.133
    1UNL    C42   62   0.391  -0.141   0.012
    1UNL    C43   63   0.360  -0.288   0.022
    1UNL    C44   64   0.274  -0.352  -0.059
    1UNL     H1   65  -0.455   0.214  -0.289
    1UNL     H2   66  -0.454   0.163  -0.465
    1UNL     H3   67  -0.316  -0.021  -0.418
    1UNL     H4   68  -0.221   0.160  -0.188
    1UNL     H5   69  -0.299  -0.034  -0.014
    1UNL     H6   70  -0.589  -0.093  -0.051
    1UNL     H7   71  -0.551   0.229   0.043
    1UNL     H8   72  -0.847   0.309   0.054
    1UNL     H9   73  -0.739   0.348  -0.070
    1UNL    H10   74  -0.774   0.498   0.114
    1UNL    H11   75  -0.756   0.167   0.261
    1UNL    H12   76  -0.621   0.341   0.270
    1UNL    H13   77  -0.675  -0.055   0.248
    1UNL    H14   78  -0.519   0.109   0.410
    1UNL    H15   79  -0.420   0.084   0.154
    1UNL    H16   80  -0.420  -0.163   0.245
    1UNL    H17   81  -0.327  -0.325  -0.218
    1UNL    H18   82   0.051  -0.506  -0.181
    1UNL    H19   83   0.066  -0.451  -0.355
    1UNL    H20   84  -0.045  -0.597  -0.306
    1UNL    H21   85  -0.078  -0.029  -0.115
    1UNL    H22   86   0.049  -0.070  -0.331
    1UNL    H23   87  -0.088   0.023  -0.416
    1UNL    H24   88   0.110   0.164  -0.371
    1UNL    H25   89  -0.045   0.237  -0.341
    1UNL    H26   90   0.099   0.392  -0.113
    1UNL    H27   91  -0.059   0.328  -0.171
    1UNL    H28   92   0.027   0.353   0.103
    1UNL    H29   93  -0.129   0.317   0.048
    1UNL    H30   94   0.146  -0.154   0.083
    1UNL    H31   95  -0.027  -0.258   0.258
    1UNL    H32   96  -0.213  -0.195   0.427
    1UNL    H33   97  -0.291   0.041   0.434
    1UNL    H34   98  -0.188   0.205   0.293
    1UNL    H35   99   0.265   0.134  -0.053
    1UNL    H36  100   0.235  -0.009  -0.276
    1UNL    H37  101   0.182  -0.141  -0.174
    1UNL    H38  102   0.430   0.028  -0.119
    1UNL    H39  103   0.299  -0.248  -0.562
    1UNL    H40  104   0.221  -0.085  -0.598
    1UNL    H41  105   0.408  -0.124  -0.610
    1UNL    H42  106   0.636  -0.267  -0.250
    1UNL    H43  107   0.581  -0.015   0.021
    1UNL    H44  108   0.534  -0.120   0.363
    1UNL    H45  109   0.250   0.108   0.291
    1UNL    H46  110   0.178  -0.136   0.376
    1UNL    H47  111   0.280  -0.093   0.518
    1UNL    H48  112   0.160   0.102   0.543
    1UNL    H49  113   0.436   0.063   0.526
    1UNL    H50  114   0.305   0.281   0.417
    1UNL    H51  115   0.606   0.206   0.447
    1UNL    H52  116   0.449   0.284   0.212
    1UNL    H53  117   0.685   0.052   0.296
    1UNL    H54  118   0.618   0.209   0.133
    1UNL    H55  119   0.331  -0.080   0.079
    1UNL    H56  120   0.431  -0.343   0.081
    1UNL    H57  121   0.284  -0.457  -0.046
    1UNL    H58  122   0.243  -0.316  -0.163
   0.00000   0.00000   0.00000   0.00000   0.00000   0.00000   0.00000   0.00000   0.00000
Generated with MDTraj, t= 10.0
 122
    1UNL     C1    1  -0.408   0.145  -0.395
    1UNL     C2    2  -0.303   0.065  -0.373
    1UNL     C3    3  -0.243   0.046  -0.239
    1UNL     C4    4  -0.351  -0.014  -0.150
    1UNL     O1    5  -0.457   0.076  -0.099
    1UNL     C5    6  -0.548   0.024  -0.001
    1UNL     O2    7  -0.669   0.104   0.008
    1UNL     C6    8  -0.650   0.217   0.091
    1UNL     C7    9  -0.756   0.323   0.065
    1UNL     O3   10  -0.734   0.448   0.127
    1UNL     C8   11  -0.643   0.179   0.242
    1UNL     O4   12  -0.571   0.274   0.317
    1UNL     C9   13  -0.576   0.034   0.256
    1UNL     O5   14  -0.504   0.015   0.384
    1UNL    C10   15  -0.479   0.009   0.138
    1UNL     O6   16  -0.435  -0.131   0.151
    1UNL     O7   17  -0.388  -0.143  -0.182
    1UNL    C11   18  -0.284  -0.227  -0.221
    1UNL    C12   19  -0.155  -0.194  -0.239
    1UNL    C13   20  -0.059  -0.302  -0.246
    1UNL     O8   21   0.057  -0.270  -0.245
    1UNL     O9   22  -0.107  -0.428  -0.248
    1UNL    C14   23  -0.002  -0.518  -0.287
    1UNL    C15   24  -0.114  -0.049  -0.236
    1UNL    C16   25  -0.014   0.000  -0.340
    1UNL    C17   26   0.038   0.142  -0.307
    1UNL     N1   27   0.060   0.149  -0.165
    1UNL    C18   28   0.035   0.288  -0.110
    1UNL    C19   29   0.004   0.278   0.041
    1UNL    C20   30   0.020   0.136   0.101
    1UNL    C21   31   0.103   0.042   0.041
    1UNL     N2   32   0.082  -0.083   0.093
    1UNL    C22   33  -0.019  -0.066   0.193
    1UNL    C23   34  -0.072  -0.163   0.276
    1UNL    C24   35  -0.176  -0.127   0.354
    1UNL    C25   36  -0.210   0.010   0.365
    1UNL    C26   37  -0.152   0.103   0.285
    1UNL    C27   38  -0.057   0.066   0.196
    1UNL    C28   39   0.169   0.078  -0.085
    1UNL    C29   40   0.236  -0.028  -0.172
    1UNL    C30   41   0.379  -0.058  -0.147
    1UNL    C31   42   0.464  -0.139  -0.233
    1UNL    C32   43   0.422  -0.165  -0.371
    1UNL    O10   44   0.498  -0.226  -0.440
    1UNL    O11   45   0.303  -0.125  -0.420
    1UNL    C33   46   0.292  -0.145  -0.557
    1UNL    C34   47   0.582  -0.192  -0.189
    1UNL    O12   48   0.632  -0.187  -0.063
    1UNL    C35   49   0.553  -0.111   0.034
    1UNL    O13   50   0.574  -0.140   0.170
    1UNL    C36   51   0.503  -0.062   0.264
    1UNL    O14   52   0.370  -0.038   0.241
    1UNL    C37   53   0.291   0.034   0.342
    1UNL    C38   54   0.211  -0.068   0.423
    1UNL    O15   55   0.119  -0.006   0.513
    1UNL    C39   56   0.380   0.116   0.439
    1UNL    O16   57   0.286   0.213   0.500
    1UNL    C40   58   0.508   0.183   0.371
    1UNL    O17   59   0.467   0.299   0.311
    1UNL    C41   60   0.579   0.079   0.276
    1UNL    O18   61   0.590   0.131   0.144
    1UNL    C42   62   0.400  -0.125  -0.001
    1UNL    C43   63   0.350  -0.256   0.030
    1UNL    C44   64   0.273  -0.326  -0.055
    1UNL     H1   65  -0.457   0.196  -0.311
    1UNL     H2   66  -0.459   0.147  -0.488
    1UNL     H3   67  -0.256   0.021  -0.460
    1UNL     H4   68  -0.207   0.148  -0.198
    1UNL     H5   69  -0.310  -0.048  -0.051
    1UNL     H6   70  -0.587  -0.079  -0.037
    1UNL     H7   71  -0.554   0.270   0.057
    1UNL     H8   72  -0.848   0.279   0.103
    1UNL     H9   73  -0.782   0.337  -0.044
    1UNL    H10   74  -0.802   0.516   0.100
    1UNL    H11   75  -0.738   0.170   0.286
    1UNL    H12   76  -0.599   0.369   0.291
    1UNL    H13   77  -0.656  -0.045   0.240
    1UNL    H14   78  -0.525   0.095   0.436
    1UNL    H15   79  -0.389   0.071   0.142
    1UNL    H16   80  -0.440  -0.161   0.248
    1UNL    H17   81  -0.304  -0.329  -0.223
    1UNL    H18   82   0.070  -0.528  -0.205
    1UNL    H19   83   0.043  -0.464  -0.379
    1UNL    H20   84  -0.059  -0.607  -0.315
    1UNL    H21   85  -0.072  -0.042  -0.134
    1UNL    H22   86   0.079  -0.064  -0.342
    1UNL    H23   87  -0.059  -0.006  -0.446
    1UNL    H24   88   0.126   0.163  -0.361
    1UNL    H25   89  -0.038   0.223  -0.330
    1UNL    H26   90   0.121   0.360  -0.123
    1UNL    H27   91  -0.043   0.345  -0.168
    1UNL    H28   92   0.049   0.371   0.098
    1UNL    H29   93  -0.097   0.319   0.060
    1UNL    H30   94   0.087  -0.169   0.041
    1UNL    H31   95  -0.045  -0.265   0.270
    1UNL    H32   96  -0.218  -0.193   0.422
    1UNL    H33   97  -0.274   0.044   0.447
    1UNL    H34   98  -0.190   0.211   0.282
    1UNL    H35   99   0.239   0.160  -0.057
    1UNL    H36  100   0.237  -0.001  -0.281
    1UNL    H37  101   0.175  -0.118  -0.161
    1UNL    H38  102   0.430   0.039  -0.155
    1UNL    H39  103   0.325  -0.245  -0.584
    1UNL    H40  104   0.194  -0.117  -0.591
    1UNL    H41  105   0.375  -0.087  -0.600
    1UNL    H42  106   0.632  -0.252  -0.252
    1UNL    H43  107   0.588  -0.001   0.016
    1UNL    H44  108   0.509  -0.119   0.357
    1UNL    H45  109   0.213   0.100   0.302
    1UNL    H46  110   0.139  -0.120   0.361
    1UNL    H47  111   0.267  -0.135   0.481
    1UNL    H48  112   0.151   0.079   0.539
    1UNL    H49  113   0.400   0.040   0.515
    1UNL    H50  114   0.322   0.300   0.481
    1UNL    H51  115   0.581   0.214   0.457
    1UNL    H52  116   0.377   0.303   0.264
    1UNL    H53  117   0.675   0.062   0.309
    1UNL    H54  118   0.628   0.227   0.154
    1UNL    H55  119   0.348  -0.059   0.060
    1UNL    H56  120   0.407  -0.296   0.117
    1UNL    H57  121   0.233  -0.421  -0.034
    1UNL    H58  122   0.256  -0.293  -0.156
   0.00000   0.00000   0.00000   0.00000   0.00000   0.00000   0.00000   0.00000   0.00000
Generated with MDTraj, t= 11.0
 122
    1UNL     C1    1  -0.418   0.135  -0.370
    1UNL     C2    2  -0.315   0.052  -0.357
    1UNL     C3    3  -0.242   0.047  -0.226
    1UNL     C4    4  -0.340  -0.009  -0.127
    1UNL     O1    5  -0.431   0.093  -0.095
    1UNL     C5    6  -0.534   0.035  -0.018
    1UNL     O2    7  -0.655   0.113  -0.012
    1UNL     C6    8  -0.640   0.225   0.076
    1UNL     C7    9  -0.749   0.336   0.064
    1UNL     O3   10  -0.751   0.414   0.182
    1UNL     C8   11  -0.633   0.181   0.228
    1UNL     O4   12  -0.547   0.278   0.286
    1UNL     C9   13  -0.565   0.039   0.245
    1UNL     O5   14  -0.492   0.033   0.363
    1UNL    C10   15  -0.474   0.013   0.128
    1UNL     O6   16  -0.413  -0.124   0.136
    1UNL     O7   17  -0.404  -0.127  -0.182
    1UNL    C11   18  -0.308  -0.223  -0.214
    1UNL    C12   19  -0.174  -0.192  -0.231
    1UNL    C13   20  -0.067  -0.300  -0.243
    1UNL     O8   21   0.051  -0.274  -0.228
    1UNL     O9   22  -0.113  -0.426  -0.284
    1UNL    C14   23  -0.005  -0.516  -0.270
    1UNL    C15   24  -0.122  -0.049  -0.223
    1UNL    C16   25  -0.021  -0.017  -0.331
    1UNL    C17   26   0.022   0.129  -0.315
    1UNL     N1   27   0.074   0.165  -0.179
    1UNL    C18   28   0.021   0.289  -0.116
    1UNL    C19   29   0.001   0.270   0.028
    1UNL    C20   30   0.017   0.128   0.079
    1UNL    C21   31   0.099   0.037   0.013
    1UNL     N2   32   0.066  -0.090   0.054
    1UNL    C22   33  -0.015  -0.078   0.167
    1UNL    C23   34  -0.076  -0.172   0.252
    1UNL    C24   35  -0.158  -0.137   0.357
    1UNL    C25   36  -0.182  -0.002   0.373
    1UNL    C26   37  -0.130   0.103   0.298
    1UNL    C27   38  -0.044   0.060   0.189
    1UNL    C28   39   0.178   0.085  -0.097
    1UNL    C29   40   0.251  -0.025  -0.183
    1UNL    C30   41   0.394  -0.048  -0.148
    1UNL    C31   42   0.464  -0.150  -0.232
    1UNL    C32   43   0.425  -0.175  -0.368
    1UNL    O10   44   0.487  -0.251  -0.434
    1UNL    O11   45   0.321  -0.108  -0.426
    1UNL    C33   46   0.269  -0.172  -0.538
    1UNL    C34   47   0.575  -0.200  -0.178
    1UNL    O12   48   0.624  -0.177  -0.057
    1UNL    C35   49   0.551  -0.100   0.035
    1UNL    O13   50   0.568  -0.127   0.172
    1UNL    C36   51   0.502  -0.043   0.266
    1UNL    O14   52   0.363  -0.033   0.255
    1UNL    C37   53   0.292   0.019   0.370
    1UNL    C38   54   0.212  -0.083   0.447
    1UNL    O15   55   0.114  -0.020   0.527
    1UNL    C39   56   0.388   0.103   0.460
    1UNL    O16   57   0.299   0.195   0.541
    1UNL    C40   58   0.486   0.190   0.369
    1UNL    O17   59   0.407   0.281   0.304
    1UNL    C41   60   0.565   0.102   0.271
    1UNL    O18   61   0.571   0.152   0.140
    1UNL    C42   62   0.406  -0.100  -0.003
    1UNL    C43   63   0.341  -0.236   0.029
    1UNL    C44   64   0.307  -0.330  -0.060
    1UNL     H1   65  -0.440   0.200  -0.289
    1UNL     H2   66  -0.471   0.136  -0.464
    1UNL     H3   67  -0.270  -0.001  -0.438
    1UNL     H4   68  -0.211   0.147  -0.191
    1UNL     H5   69  -0.308  -0.048  -0.032
    1UNL     H6   70  -0.568  -0.068  -0.061
    1UNL     H7   71  -0.538   0.272   0.052
    1UNL     H8   72  -0.843   0.283   0.047
    1UNL     H9   73  -0.723   0.389  -0.031
    1UNL    H10   74  -0.792   0.503   0.172
    1UNL    H11   75  -0.724   0.176   0.277
    1UNL    H12   76  -0.589   0.362   0.273
    1UNL    H13   77  -0.647  -0.040   0.240
    1UNL    H14   78  -0.469   0.128   0.388
    1UNL    H15   79  -0.390   0.081   0.146
    1UNL    H16   80  -0.361  -0.119   0.217
    1UNL    H17   81  -0.332  -0.326  -0.233
    1UNL    H18   82   0.046  -0.493  -0.175
    1UNL    H19   83   0.059  -0.490  -0.360
    1UNL    H20   84  -0.047  -0.617  -0.279
    1UNL    H21   85  -0.076  -0.043  -0.126
    1UNL    H22   86   0.063  -0.086  -0.314
    1UNL    H23   87  -0.054  -0.043  -0.441
    1UNL    H24   88   0.095   0.162  -0.385
    1UNL    H25   89  -0.067   0.195  -0.341
    1UNL    H26   90   0.085   0.373  -0.147
    1UNL    H27   91  -0.081   0.331  -0.153
    1UNL    H28   92   0.071   0.343   0.088
    1UNL    H29   93  -0.089   0.322   0.062
    1UNL    H30   94   0.074  -0.166  -0.009
    1UNL    H31   95  -0.062  -0.276   0.221
    1UNL    H32   96  -0.187  -0.214   0.439
    1UNL    H33   97  -0.244   0.026   0.457
    1UNL    H34   98  -0.166   0.198   0.315
    1UNL    H35   99   0.241   0.169  -0.066
    1UNL    H36  100   0.253   0.014  -0.293
    1UNL    H37  101   0.192  -0.113  -0.174
    1UNL    H38  102   0.448   0.047  -0.159
    1UNL    H39  103   0.280  -0.279  -0.531
    1UNL    H40  104   0.171  -0.141  -0.566
    1UNL    H41  105   0.344  -0.145  -0.612
    1UNL    H42  106   0.652  -0.251  -0.245
    1UNL    H43  107   0.599   0.003   0.015
    1UNL    H44  108   0.507  -0.093   0.364
    1UNL    H45  109   0.228   0.097   0.327
    1UNL    H46  110   0.160  -0.141   0.373
    1UNL    H47  111   0.275  -0.137   0.509
    1UNL    H48  112   0.168   0.057   0.569
    1UNL    H49  113   0.443   0.037   0.532
    1UNL    H50  114   0.293   0.282   0.491
    1UNL    H51  115   0.568   0.247   0.427
    1UNL    H52  116   0.379   0.247   0.220
    1UNL    H53  117   0.668   0.102   0.288
    1UNL    H54  118   0.575   0.257   0.146
    1UNL    H55  119   0.366  -0.028   0.060
    1UNL    H56  120   0.306  -0.249   0.130
    1UNL    H57  121   0.264  -0.431  -0.033
    1UNL    H58  122   0.313  -0.316  -0.164
   0.00000   0.00000   0.00000   0.00000   0.00000   0.00000   0.00000   0.00000   0.00000
Generated with MDTraj, t= 12.0
 122
    1UNL     C1    1  -0.439   0.139  -0.389
    1UNL     C2    2  -0.320   0.081  -0.379
    1UNL     C3    3  -0.257   0.057  -0.246
    1UNL     C4    4  -0.351  -0.004  -0.139
    1UNL     O1    5  -0.456   0.087  -0.112
    1UNL     C5    6  -0.538   0.044  -0.007
    1UNL     O2    7  -0.663   0.114   0.014
    1UNL     C6    8  -0.647   0.229   0.095
    1UNL     C7    9  -0.772   0.316   0.095
    1UNL     O3   10  -0.751   0.436   0.163
    1UNL     C8   11  -0.614   0.190   0.241
    1UNL     O4   12  -0.526   0.291   0.299
    1UNL     C9   13  -0.553   0.046   0.247
    1UNL     O5   14  -0.490   0.018   0.368
    1UNL    C10   15  -0.465   0.026   0.131
    1UNL     O6   16  -0.395  -0.101   0.147
    1UNL     O7   17  -0.398  -0.138  -0.177
    1UNL    C11   18  -0.285  -0.216  -0.195
    1UNL    C12   19  -0.157  -0.181  -0.225
    1UNL    C13   20  -0.061  -0.294  -0.224
    1UNL     O8   21   0.056  -0.285  -0.191
    1UNL     O9   22  -0.123  -0.413  -0.271
    1UNL    C14   23  -0.031  -0.513  -0.276
    1UNL    C15   24  -0.127  -0.033  -0.243
    1UNL    C16   25  -0.025   0.003  -0.354
    1UNL    C17   26   0.026   0.142  -0.336
    1UNL     N1   27   0.077   0.173  -0.203
    1UNL    C18   28   0.023   0.294  -0.132
    1UNL    C19   29   0.002   0.272   0.024
    1UNL    C20   30   0.016   0.126   0.064
    1UNL    C21   31   0.094   0.039  -0.005
    1UNL     N2   32   0.064  -0.092   0.029
    1UNL    C22   33  -0.015  -0.091   0.142
    1UNL    C23   34  -0.062  -0.191   0.224
    1UNL    C24   35  -0.124  -0.154   0.333
    1UNL    C25   36  -0.153  -0.023   0.367
    1UNL    C26   37  -0.112   0.079   0.285
    1UNL    C27   38  -0.044   0.043   0.169
    1UNL    C28   39   0.171   0.092  -0.123
    1UNL    C29   40   0.255  -0.011  -0.199
    1UNL    C30   41   0.394  -0.031  -0.145
    1UNL    C31   42   0.472  -0.133  -0.227
    1UNL    C32   43   0.437  -0.185  -0.355
    1UNL    O10   44   0.482  -0.287  -0.399
    1UNL    O11   45   0.337  -0.131  -0.434
    1UNL    C33   46   0.302  -0.202  -0.544
    1UNL    C34   47   0.577  -0.192  -0.167
    1UNL    O12   48   0.630  -0.169  -0.042
    1UNL    C35   49   0.549  -0.091   0.045
    1UNL    O13   50   0.564  -0.125   0.183
    1UNL    C36   51   0.496  -0.040   0.265
    1UNL    O14   52   0.358  -0.054   0.270
    1UNL    C37   53   0.290  -0.000   0.387
    1UNL    C38   54   0.214  -0.101   0.469
    1UNL    O15   55   0.141  -0.043   0.575
    1UNL    C39   56   0.383   0.096   0.461
    1UNL    O16   57   0.308   0.178   0.561
    1UNL    C40   58   0.457   0.194   0.359
    1UNL    O17   59   0.365   0.278   0.290
    1UNL    C41   60   0.540   0.111   0.251
    1UNL    O18   61   0.527   0.163   0.121
    1UNL    C42   62   0.399  -0.084  -0.001
    1UNL    C43   63   0.324  -0.213   0.032
    1UNL    C44   64   0.333  -0.319  -0.042
    1UNL     H1   65  -0.476   0.190  -0.303
    1UNL     H2   66  -0.472   0.176  -0.487
    1UNL     H3   67  -0.259   0.056  -0.465
    1UNL     H4   68  -0.218   0.145  -0.203
    1UNL     H5   69  -0.308  -0.012  -0.043
    1UNL     H6   70  -0.576  -0.057  -0.052
    1UNL     H7   71  -0.554   0.287   0.057
    1UNL     H8   72  -0.854   0.250   0.127
    1UNL     H9   73  -0.782   0.343  -0.014
    1UNL    H10   74  -0.817   0.502   0.139
    1UNL    H11   75  -0.701   0.189   0.296
    1UNL    H12   76  -0.579   0.377   0.278
    1UNL    H13   77  -0.637  -0.033   0.244
    1UNL    H14   78  -0.460   0.099   0.412
    1UNL    H15   79  -0.385   0.100   0.127
    1UNL    H16   80  -0.366  -0.104   0.237
    1UNL    H17   81  -0.309  -0.324  -0.167
    1UNL    H18   82  -0.037  -0.566  -0.182
    1UNL    H19   83   0.066  -0.464  -0.303
    1UNL    H20   84  -0.062  -0.570  -0.364
    1UNL    H21   85  -0.082  -0.006  -0.154
    1UNL    H22   86   0.051  -0.075  -0.363
    1UNL    H23   87  -0.079  -0.001  -0.456
    1UNL    H24   88   0.105   0.166  -0.404
    1UNL    H25   89  -0.049   0.221  -0.362
    1UNL    H26   90   0.082   0.383  -0.146
    1UNL    H27   91  -0.080   0.319  -0.183
    1UNL    H28   92   0.080   0.340   0.078
    1UNL    H29   93  -0.090   0.319   0.061
    1UNL    H30   94   0.065  -0.174  -0.037
    1UNL    H31   95  -0.035  -0.292   0.203
    1UNL    H32   96  -0.156  -0.234   0.388
    1UNL    H33   97  -0.207  -0.008   0.458
    1UNL    H34   98  -0.117   0.185   0.304
    1UNL    H35   99   0.240   0.148  -0.061
    1UNL    H36  100   0.260   0.036  -0.303
    1UNL    H37  101   0.213  -0.111  -0.201
    1UNL    H38  102   0.447   0.064  -0.146
    1UNL    H39  103   0.230  -0.280  -0.520
    1UNL    H40  104   0.267  -0.136  -0.621
    1UNL    H41  105   0.399  -0.242  -0.579
    1UNL    H42  106   0.639  -0.267  -0.225
    1UNL    H43  107   0.597   0.012   0.024
    1UNL    H44  108   0.516  -0.072   0.369
    1UNL    H45  109   0.221   0.067   0.337
    1UNL    H46  110   0.150  -0.153   0.400
    1UNL    H47  111   0.286  -0.163   0.509
    1UNL    H48  112   0.187   0.037   0.597
    1UNL    H49  113   0.454   0.032   0.523
    1UNL    H50  114   0.273   0.253   0.507
    1UNL    H51  115   0.521   0.265   0.422
    1UNL    H52  116   0.340   0.214   0.212
    1UNL    H53  117   0.644   0.122   0.269
    1UNL    H54  118   0.565   0.247   0.118
    1UNL    H55  119   0.351  -0.011   0.054
    1UNL    H56  120   0.253  -0.220   0.116
    1UNL    H57  121   0.298  -0.409   0.005
    1UNL    H58  122   0.372  -0.321  -0.141
   0.00000   0.00000   0.00000   0.00000   0.00000   0.00000   0.00000   0.00000   0.00000
Generated with MDTraj, t= 13.0
 122
    1UNL     C1    1  -0.420   0.123  -0.410
    1UNL     C2    2  -0.319   0.050  -0.370
    1UNL     C3    3  -0.264   0.062  -0.233
    1UNL     C4    4  -0.366   0.011  -0.130
    1UNL     O1    5  -0.465   0.101  -0.087
    1UNL     C5    6  -0.540   0.042   0.008
    1UNL     O2    7  -0.672   0.100   0.027
    1UNL     C6    8  -0.652   0.219   0.105
    1UNL     C7    9  -0.766   0.315   0.092
    1UNL     O3   10  -0.736   0.440   0.147
    1UNL     C8   11  -0.614   0.185   0.257
    1UNL     O4   12  -0.534   0.295   0.312
    1UNL     C9   13  -0.541   0.047   0.265
    1UNL     O5   14  -0.453   0.037   0.374
    1UNL    C10   15  -0.458   0.033   0.141
    1UNL     O6   16  -0.384  -0.085   0.142
    1UNL     O7   17  -0.415  -0.115  -0.175
    1UNL    C11   18  -0.318  -0.196  -0.218
    1UNL    C12   19  -0.188  -0.172  -0.237
    1UNL    C13   20  -0.084  -0.276  -0.240
    1UNL     O8   21   0.031  -0.237  -0.221
    1UNL     O9   22  -0.121  -0.407  -0.272
    1UNL    C14   23  -0.001  -0.473  -0.259
    1UNL    C15   24  -0.140  -0.031  -0.225
    1UNL    C16   25  -0.041  -0.003  -0.344
    1UNL    C17   26   0.032   0.135  -0.336
    1UNL     N1   27   0.087   0.173  -0.205
    1UNL    C18   28   0.022   0.286  -0.132
    1UNL    C19   29   0.004   0.266   0.022
    1UNL    C20   30   0.047   0.126   0.066
    1UNL    C21   31   0.120   0.043  -0.015
    1UNL     N2   32   0.094  -0.085   0.023
    1UNL    C22   33   0.014  -0.091   0.133
    1UNL    C23   34  -0.032  -0.194   0.209
    1UNL    C24   35  -0.120  -0.168   0.309
    1UNL    C25   36  -0.156  -0.038   0.343
    1UNL    C26   37  -0.110   0.069   0.271
    1UNL    C27   38  -0.025   0.044   0.162
    1UNL    C28   39   0.188   0.091  -0.134
    1UNL    C29   40   0.262  -0.020  -0.214
    1UNL    C30   41   0.407  -0.052  -0.167
    1UNL    C31   42   0.492  -0.154  -0.234
    1UNL    C32   43   0.454  -0.211  -0.364
    1UNL    O10   44   0.481  -0.327  -0.391
    1UNL    O11   45   0.358  -0.141  -0.445
    1UNL    C33   46   0.328  -0.211  -0.557
    1UNL    C34   47   0.596  -0.205  -0.166
    1UNL    O12   48   0.635  -0.160  -0.043
    1UNL    C35   49   0.547  -0.081   0.045
    1UNL    O13   50   0.539  -0.128   0.180
    1UNL    C36   51   0.476  -0.041   0.267
    1UNL    O14   52   0.334  -0.052   0.274
    1UNL    C37   53   0.276  -0.003   0.400
    1UNL    C38   54   0.251  -0.122   0.497
    1UNL    O15   55   0.180  -0.078   0.609
    1UNL    C39   56   0.356   0.111   0.468
    1UNL    O16   57   0.263   0.190   0.549
    1UNL    C40   58   0.423   0.196   0.359
    1UNL    O17   59   0.328   0.282   0.302
    1UNL    C41   60   0.506   0.117   0.251
    1UNL    O18   61   0.475   0.160   0.120
    1UNL    C42   62   0.406  -0.078  -0.011
    1UNL    C43   63   0.330  -0.198   0.035
    1UNL    C44   64   0.331  -0.312  -0.028
    1UNL     H1   65  -0.454   0.206  -0.350
    1UNL     H2   66  -0.476   0.093  -0.494
    1UNL     H3   67  -0.281  -0.037  -0.415
    1UNL     H4   68  -0.226   0.153  -0.207
    1UNL     H5   69  -0.314   0.006  -0.038
    1UNL     H6   70  -0.557  -0.069  -0.028
    1UNL     H7   71  -0.561   0.267   0.047
    1UNL     H8   72  -0.847   0.281   0.157
    1UNL     H9   73  -0.798   0.326  -0.014
    1UNL    H10   74  -0.819   0.492   0.147
    1UNL    H11   75  -0.704   0.178   0.307
    1UNL    H12   76  -0.569   0.373   0.272
    1UNL    H13   77  -0.614  -0.040   0.293
    1UNL    H14   78  -0.433   0.128   0.412
    1UNL    H15   79  -0.381   0.112   0.136
    1UNL    H16   80  -0.339  -0.093   0.238
    1UNL    H17   81  -0.349  -0.300  -0.223
    1UNL    H18   82   0.024  -0.467  -0.155
    1UNL    H19   83   0.073  -0.427  -0.326
    1UNL    H20   84  -0.012  -0.575  -0.298
    1UNL    H21   85  -0.087  -0.018  -0.133
    1UNL    H22   86   0.041  -0.076  -0.342
    1UNL    H23   87  -0.090  -0.008  -0.445
    1UNL    H24   88   0.107   0.150  -0.413
    1UNL    H25   89  -0.042   0.212  -0.361
    1UNL    H26   90   0.087   0.371  -0.148
    1UNL    H27   91  -0.085   0.306  -0.177
    1UNL    H28   92   0.066   0.343   0.080
    1UNL    H29   93  -0.099   0.281   0.057
    1UNL    H30   94   0.102  -0.166  -0.046
    1UNL    H31   95   0.008  -0.294   0.193
    1UNL    H32   96  -0.176  -0.249   0.361
    1UNL    H33   97  -0.231  -0.022   0.420
    1UNL    H34   98  -0.127   0.173   0.314
    1UNL    H35   99   0.258   0.165  -0.096
    1UNL    H36  100   0.254   0.002  -0.321
    1UNL    H37  101   0.205  -0.114  -0.200
    1UNL    H38  102   0.458   0.042  -0.189
    1UNL    H39  103   0.294  -0.314  -0.530
    1UNL    H40  104   0.254  -0.162  -0.623
    1UNL    H41  105   0.423  -0.213  -0.616
    1UNL    H42  106   0.649  -0.277  -0.212
    1UNL    H43  107   0.602   0.021   0.043
    1UNL    H44  108   0.503  -0.078   0.368
    1UNL    H45  109   0.178   0.040   0.380
    1UNL    H46  110   0.191  -0.201   0.454
    1UNL    H47  111   0.340  -0.167   0.525
    1UNL    H48  112   0.183   0.023   0.631
    1UNL    H49  113   0.430   0.056   0.537
    1UNL    H50  114   0.246   0.264   0.489
    1UNL    H51  115   0.482   0.277   0.409
    1UNL    H52  116   0.291   0.230   0.226
    1UNL    H53  117   0.613   0.126   0.263
    1UNL    H54  118   0.480   0.263   0.107
    1UNL    H55  119   0.359   0.001   0.038
    1UNL    H56  120   0.277  -0.208   0.128
    1UNL    H57  121   0.258  -0.381   0.002
    1UNL    H58  122   0.360  -0.323  -0.136
   0.00000   0.00000   0.00000   0.00000   0.00000   0.00000   0.00000   0.00000   0.00000
Generated with MDTraj, t= 14.0
 122
    1UNL     C1    1  -0.449   0.161  -0.411
    1UNL     C2    2  -0.361   0.068  -0.387
    1UNL     C3    3  -0.282   0.060  -0.256
    1UNL     C4    4  -0.368  -0.001  -0.142
    1UNL     O1    5  -0.478   0.078  -0.105
    1UNL     C5    6  -0.548   0.030   0.001
    1UNL     O2    7  -0.671   0.108   0.037
    1UNL     C6    8  -0.644   0.229   0.110
    1UNL     C7    9  -0.756   0.327   0.092
    1UNL     O3   10  -0.730   0.448   0.173
    1UNL     C8   11  -0.615   0.188   0.259
    1UNL     O4   12  -0.555   0.300   0.323
    1UNL     C9   13  -0.528   0.064   0.276
    1UNL     O5   14  -0.429   0.081   0.378
    1UNL    C10   15  -0.457   0.026   0.133
    1UNL     O6   16  -0.406  -0.103   0.145
    1UNL     O7   17  -0.405  -0.135  -0.177
    1UNL    C11   18  -0.293  -0.207  -0.192
    1UNL    C12   19  -0.168  -0.166  -0.220
    1UNL    C13   20  -0.058  -0.270  -0.226
    1UNL     O8   21   0.061  -0.245  -0.242
    1UNL     O9   22  -0.114  -0.399  -0.229
    1UNL    C14   23  -0.020  -0.490  -0.277
    1UNL    C15   24  -0.149  -0.017  -0.250
    1UNL    C16   25  -0.045   0.016  -0.362
    1UNL    C17   26   0.014   0.151  -0.338
    1UNL     N1   27   0.083   0.178  -0.209
    1UNL    C18   28   0.052   0.297  -0.118
    1UNL    C19   29   0.030   0.268   0.030
    1UNL    C20   30   0.044   0.120   0.057
    1UNL    C21   31   0.121   0.039  -0.025
    1UNL     N2   32   0.098  -0.090   0.007
    1UNL    C22   33   0.023  -0.086   0.125
    1UNL    C23   34  -0.020  -0.194   0.215
    1UNL    C24   35  -0.098  -0.163   0.326
    1UNL    C25   36  -0.134  -0.030   0.349
    1UNL    C26   37  -0.085   0.075   0.277
    1UNL    C27   38  -0.013   0.041   0.161
    1UNL    C28   39   0.191   0.089  -0.147
    1UNL    C29   40   0.266  -0.024  -0.225
    1UNL    C30   41   0.402  -0.048  -0.155
    1UNL    C31   42   0.486  -0.150  -0.217
    1UNL    C32   43   0.455  -0.212  -0.351
    1UNL    O10   44   0.500  -0.322  -0.376
    1UNL    O11   45   0.364  -0.146  -0.437
    1UNL    C33   46   0.355  -0.218  -0.553
    1UNL    C34   47   0.591  -0.204  -0.150
    1UNL    O12   48   0.624  -0.187  -0.025
    1UNL    C35   49   0.542  -0.088   0.048
    1UNL    O13   50   0.560  -0.101   0.190
    1UNL    C36   51   0.482  -0.016   0.271
    1UNL    O14   52   0.343  -0.060   0.269
    1UNL    C37   53   0.266  -0.016   0.389
    1UNL    C38   54   0.272  -0.135   0.491
    1UNL    O15   55   0.215  -0.092   0.614
    1UNL    C39   56   0.329   0.111   0.459
    1UNL    O16   57   0.223   0.168   0.533
    1UNL    C40   58   0.380   0.212   0.351
    1UNL    O17   59   0.263   0.255   0.284
    1UNL    C41   60   0.487   0.140   0.252
    1UNL    O18   61   0.457   0.169   0.121
    1UNL    C42   62   0.391  -0.090   0.004
    1UNL    C43   63   0.347  -0.244   0.022
    1UNL    C44   64   0.312  -0.336  -0.067
    1UNL     H1   65  -0.494   0.223  -0.331
    1UNL     H2   66  -0.511   0.159  -0.499
    1UNL     H3   67  -0.340  -0.012  -0.458
    1UNL     H4   68  -0.256   0.155  -0.228
    1UNL     H5   69  -0.310   0.000  -0.051
    1UNL     H6   70  -0.580  -0.076  -0.040
    1UNL     H7   71  -0.547   0.277   0.066
    1UNL     H8   72  -0.848   0.284   0.127
    1UNL     H9   73  -0.767   0.369  -0.009
    1UNL    H10   74  -0.817   0.492   0.191
    1UNL    H11   75  -0.708   0.174   0.302
    1UNL    H12   76  -0.597   0.394   0.308
    1UNL    H13   77  -0.591  -0.025   0.311
    1UNL    H14   78  -0.418   0.176   0.391
    1UNL    H15   79  -0.381   0.103   0.108
    1UNL    H16   80  -0.311  -0.092   0.189
    1UNL    H17   81  -0.306  -0.310  -0.190
    1UNL    H18   82   0.078  -0.458  -0.249
    1UNL    H19   83  -0.030  -0.508  -0.385
    1UNL    H20   84  -0.036  -0.591  -0.234
    1UNL    H21   85  -0.093   0.022  -0.160
    1UNL    H22   86   0.039  -0.056  -0.352
    1UNL    H23   87  -0.085   0.011  -0.463
    1UNL    H24   88   0.092   0.169  -0.412
    1UNL    H25   89  -0.059   0.227  -0.361
    1UNL    H26   90   0.142   0.354  -0.134
    1UNL    H27   91  -0.044   0.350  -0.155
    1UNL    H28   92   0.108   0.315   0.099
    1UNL    H29   93  -0.068   0.301   0.067
    1UNL    H30   94   0.091  -0.157  -0.068
    1UNL    H31   95  -0.000  -0.299   0.200
    1UNL    H32   96  -0.137  -0.238   0.398
    1UNL    H33   97  -0.205  -0.007   0.426
    1UNL    H34   98  -0.110   0.170   0.301
    1UNL    H35   99   0.257   0.175  -0.127
    1UNL    H36  100   0.281   0.003  -0.327
    1UNL    H37  101   0.206  -0.117  -0.241
    1UNL    H38  102   0.453   0.047  -0.171
    1UNL    H39  103   0.326  -0.322  -0.527
    1UNL    H40  104   0.287  -0.184  -0.632
    1UNL    H41  105   0.455  -0.217  -0.601
    1UNL    H42  106   0.667  -0.266  -0.205
    1UNL    H43  107   0.585   0.019   0.032
    1UNL    H44  108   0.515  -0.044   0.372
    1UNL    H45  109   0.167   0.015   0.355
    1UNL    H46  110   0.218  -0.219   0.446
    1UNL    H47  111   0.370  -0.172   0.506
    1UNL    H48  112   0.202   0.002   0.617
    1UNL    H49  113   0.412   0.080   0.531
    1UNL    H50  114   0.208   0.260   0.491
    1UNL    H51  115   0.416   0.309   0.390
    1UNL    H52  116   0.226   0.174   0.253
    1UNL    H53  117   0.591   0.166   0.283
    1UNL    H54  118   0.397   0.249   0.116
    1UNL    H55  119   0.339  -0.031   0.073
    1UNL    H56  120   0.340  -0.268   0.130
    1UNL    H57  121   0.300  -0.440  -0.039
    1UNL    H58  122   0.278  -0.309  -0.163
   0.00000   0.00000   0.00000   0.00000   0.00000   0.00000   0.00000   0.00000   0.00000
Generated with MDTraj, t= 15.0
 122
    1UNL     C1    1  -0.439   0.134  -0.378
    1UNL     C2    2  -0.330   0.067  -0.359
    1UNL     C3    3  -0.258   0.062  -0.227
    1UNL     C4    4  -0.358   0.004  -0.124
    1UNL     O1    5  -0.460   0.096  -0.092
    1UNL     C5    6  -0.540   0.048   0.004
    1UNL     O2    7  -0.668   0.117   0.031
    1UNL     C6    8  -0.646   0.231   0.110
    1UNL     C7    9  -0.762   0.326   0.102
    1UNL     O3   10  -0.732   0.455   0.172
    1UNL     C8   11  -0.606   0.192   0.260
    1UNL     O4   12  -0.544   0.304   0.319
    1UNL     C9   13  -0.521   0.072   0.272
    1UNL     O5   14  -0.418   0.089   0.368
    1UNL    C10   15  -0.452   0.036   0.134
    1UNL     O6   16  -0.382  -0.088   0.139
    1UNL     O7   17  -0.404  -0.125  -0.167
    1UNL    C11   18  -0.294  -0.207  -0.199
    1UNL    C12   19  -0.164  -0.171  -0.213
    1UNL    C13   20  -0.068  -0.272  -0.243
    1UNL     O8   21   0.046  -0.240  -0.269
    1UNL     O9   22  -0.105  -0.407  -0.243
    1UNL    C14   23   0.008  -0.480  -0.246
    1UNL    C15   24  -0.133  -0.028  -0.225
    1UNL    C16   25  -0.030   0.000  -0.339
    1UNL    C17   26   0.037   0.133  -0.333
    1UNL     N1   27   0.107   0.185  -0.213
    1UNL    C18   28   0.043   0.292  -0.121
    1UNL    C19   29   0.014   0.270   0.026
    1UNL    C20   30   0.037   0.125   0.061
    1UNL    C21   31   0.105   0.035  -0.018
    1UNL     N2   32   0.080  -0.092   0.024
    1UNL    C22   33   0.008  -0.086   0.139
    1UNL    C23   34  -0.025  -0.188   0.224
    1UNL    C24   35  -0.095  -0.150   0.334
    1UNL    C25   36  -0.112  -0.014   0.372
    1UNL    C26   37  -0.079   0.085   0.287
    1UNL    C27   38  -0.027   0.051   0.166
    1UNL    C28   39   0.185   0.088  -0.139
    1UNL    C29   40   0.259  -0.018  -0.220
    1UNL    C30   41   0.399  -0.054  -0.159
    1UNL    C31   42   0.492  -0.162  -0.222
    1UNL    C32   43   0.473  -0.210  -0.360
    1UNL    O10   44   0.537  -0.306  -0.399
    1UNL    O11   45   0.371  -0.147  -0.430
    1UNL    C33   46   0.348  -0.208  -0.546
    1UNL    C34   47   0.606  -0.196  -0.153
    1UNL    O12   48   0.640  -0.152  -0.029
    1UNL    C35   49   0.538  -0.077   0.046
    1UNL    O13   50   0.553  -0.101   0.186
    1UNL    C36   51   0.460  -0.021   0.261
    1UNL    O14   52   0.324  -0.072   0.264
    1UNL    C37   53   0.261  -0.037   0.392
    1UNL    C38   54   0.286  -0.142   0.499
    1UNL    O15   55   0.200  -0.132   0.616
    1UNL    C39   56   0.296   0.105   0.435
    1UNL    O16   57   0.195   0.157   0.512
    1UNL    C40   58   0.334   0.197   0.315
    1UNL    O17   59   0.229   0.227   0.227
    1UNL    C41   60   0.456   0.130   0.232
    1UNL    O18   61   0.435   0.157   0.095
    1UNL    C42   62   0.397  -0.099  -0.009
    1UNL    C43   63   0.352  -0.240   0.021
    1UNL    C44   64   0.284  -0.326  -0.050
    1UNL     H1   65  -0.488   0.177  -0.296
    1UNL     H2   66  -0.483   0.141  -0.477
    1UNL     H3   67  -0.303  -0.014  -0.423
    1UNL     H4   68  -0.234   0.161  -0.205
    1UNL     H5   69  -0.307  -0.025  -0.030
    1UNL     H6   70  -0.568  -0.064  -0.026
    1UNL     H7   71  -0.551   0.283   0.065
    1UNL     H8   72  -0.851   0.287   0.149
    1UNL     H9   73  -0.780   0.350  -0.005
    1UNL    H10   74  -0.813   0.511   0.178
    1UNL    H11   75  -0.699   0.178   0.306
    1UNL    H12   76  -0.591   0.379   0.285
    1UNL    H13   77  -0.573  -0.023   0.305
    1UNL    H14   78  -0.407   0.187   0.388
    1UNL    H15   79  -0.378   0.120   0.125
    1UNL    H16   80  -0.308  -0.072   0.203
    1UNL    H17   81  -0.324  -0.312  -0.201
    1UNL    H18   82   0.086  -0.440  -0.183
    1UNL    H19   83   0.042  -0.501  -0.347
    1UNL    H20   84  -0.018  -0.580  -0.204
    1UNL    H21   85  -0.078  -0.007  -0.122
    1UNL    H22   86   0.050  -0.075  -0.329
    1UNL    H23   87  -0.072  -0.026  -0.431
    1UNL    H24   88   0.108   0.137  -0.416
    1UNL    H25   89  -0.026   0.211  -0.363
    1UNL    H26   90   0.101   0.385  -0.120
    1UNL    H27   91  -0.055   0.299  -0.177
    1UNL    H28   92   0.087   0.323   0.090
    1UNL    H29   93  -0.089   0.292   0.061
    1UNL    H30   94   0.142  -0.164   0.002
    1UNL    H31   95  -0.004  -0.289   0.200
    1UNL    H32   96  -0.116  -0.219   0.406
    1UNL    H33   97  -0.137   0.009   0.475
    1UNL    H34   98  -0.110   0.191   0.307
    1UNL    H35   99   0.267   0.145  -0.085
    1UNL    H36  100   0.265   0.008  -0.321
    1UNL    H37  101   0.201  -0.111  -0.232
    1UNL    H38  102   0.450   0.041  -0.174
    1UNL    H39  103   0.282  -0.290  -0.524
    1UNL    H40  104   0.309  -0.148  -0.626
    1UNL    H41  105   0.445  -0.241  -0.583
    1UNL    H42  106   0.697  -0.256  -0.188
    1UNL    H43  107   0.549   0.038   0.030
    1UNL    H44  108   0.500  -0.035   0.363
    1UNL    H45  109   0.155  -0.031   0.365
    1UNL    H46  110   0.288  -0.245   0.459
    1UNL    H47  111   0.391  -0.126   0.523
    1UNL    H48  112   0.208  -0.035   0.647
    1UNL    H49  113   0.386   0.097   0.505
    1UNL    H50  114   0.123   0.173   0.449
    1UNL    H51  115   0.350   0.300   0.345
    1UNL    H52  116   0.212   0.137   0.186
    1UNL    H53  117   0.558   0.168   0.267
    1UNL    H54  118   0.399   0.244   0.087
    1UNL    H55  119   0.326  -0.043   0.045
    1UNL    H56  120   0.392  -0.258   0.119
    1UNL    H57  121   0.264  -0.425  -0.003
    1UNL    H58  122   0.242  -0.306  -0.143
   0.00000   0.00000   0.00000   0.00000   0.00000   0.00000   0.00000   0.00000   0.00000
Generated with MDTraj, t= 16.0
 122
    1UNL     C1    1  -0.435   0.120  -0.380
    1UNL     C2    2  -0.313   0.083  -0.371
    1UNL     C3    3  -0.238   0.060  -0.244
    1UNL     C4    4  -0.330   0.007  -0.129
    1UNL     O1    5  -0.426   0.097  -0.079
    1UNL     C5    6  -0.502   0.052   0.029
    1UNL     O2    7  -0.637   0.117   0.036
    1UNL     C6    8  -0.627   0.238   0.110
    1UNL     C7    9  -0.754   0.322   0.095
    1UNL     O3   10  -0.745   0.442   0.158
    1UNL     C8   11  -0.598   0.213   0.265
    1UNL     O4   12  -0.514   0.323   0.316
    1UNL     C9   13  -0.523   0.077   0.283
    1UNL     O5   14  -0.442   0.076   0.400
    1UNL    C10   15  -0.426   0.058   0.162
    1UNL     O6   16  -0.353  -0.067   0.163
    1UNL     O7   17  -0.383  -0.119  -0.160
    1UNL    C11   18  -0.289  -0.211  -0.202
    1UNL    C12   19  -0.162  -0.179  -0.238
    1UNL    C13   20  -0.059  -0.283  -0.229
    1UNL     O8   21   0.061  -0.260  -0.230
    1UNL     O9   22  -0.118  -0.409  -0.227
    1UNL    C14   23  -0.025  -0.509  -0.242
    1UNL    C15   24  -0.122  -0.035  -0.249
    1UNL    C16   25  -0.025  -0.000  -0.368
    1UNL    C17   26   0.040   0.134  -0.352
    1UNL     N1   27   0.080   0.166  -0.214
    1UNL    C18   28   0.040   0.294  -0.128
    1UNL    C19   29  -0.012   0.264   0.013
    1UNL    C20   30   0.001   0.118   0.043
    1UNL    C21   31   0.091   0.035  -0.016
    1UNL     N2   32   0.102  -0.082   0.057
    1UNL    C22   33   0.009  -0.079   0.158
    1UNL    C23   34  -0.029  -0.163   0.266
    1UNL    C24   35  -0.101  -0.119   0.375
    1UNL    C25   36  -0.156   0.007   0.372
    1UNL    C26   37  -0.130   0.095   0.271
    1UNL    C27   38  -0.044   0.053   0.165
    1UNL    C28   39   0.169   0.081  -0.135
    1UNL    C29   40   0.258  -0.023  -0.208
    1UNL    C30   41   0.400  -0.047  -0.153
    1UNL    C31   42   0.491  -0.134  -0.239
    1UNL    C32   43   0.467  -0.180  -0.371
    1UNL    O10   44   0.542  -0.259  -0.419
    1UNL    O11   45   0.352  -0.148  -0.434
    1UNL    C33   46   0.344  -0.211  -0.552
    1UNL    C34   47   0.596  -0.181  -0.172
    1UNL    O12   48   0.641  -0.152  -0.042
    1UNL    C35   49   0.549  -0.075   0.038
    1UNL    O13   50   0.571  -0.086   0.180
    1UNL    C36   51   0.471  -0.022   0.266
    1UNL    O14   52   0.347  -0.095   0.268
    1UNL    C37   53   0.256  -0.060   0.378
    1UNL    C38   54   0.253  -0.159   0.495
    1UNL    O15   55   0.176  -0.120   0.607
    1UNL    C39   56   0.275   0.084   0.425
    1UNL    O16   57   0.157   0.130   0.488
    1UNL    C40   58   0.318   0.180   0.315
    1UNL    O17   59   0.218   0.194   0.221
    1UNL    C41   60   0.449   0.129   0.240
    1UNL    O18   61   0.434   0.151   0.105
    1UNL    C42   62   0.404  -0.107  -0.004
    1UNL    C43   63   0.376  -0.250   0.018
    1UNL    C44   64   0.318  -0.324  -0.075
    1UNL     H1   65  -0.498   0.124  -0.293
    1UNL     H2   66  -0.484   0.115  -0.477
    1UNL     H3   67  -0.270   0.033  -0.456
    1UNL     H4   68  -0.209   0.160  -0.217
    1UNL     H5   69  -0.269  -0.023  -0.036
    1UNL     H6   70  -0.512  -0.066   0.009
    1UNL     H7   71  -0.528   0.288   0.070
    1UNL     H8   72  -0.841   0.268   0.133
    1UNL     H9   73  -0.763   0.341  -0.014
    1UNL    H10   74  -0.811   0.505   0.123
    1UNL    H11   75  -0.692   0.209   0.316
    1UNL    H12   76  -0.565   0.407   0.288
    1UNL    H13   77  -0.590  -0.010   0.294
    1UNL    H14   78  -0.453   0.159   0.448
    1UNL    H15   79  -0.363   0.151   0.151
    1UNL    H16   80  -0.315  -0.084   0.253
    1UNL    H17   81  -0.314  -0.321  -0.204
    1UNL    H18   82  -0.013  -0.573  -0.152
    1UNL    H19   83   0.073  -0.470  -0.259
    1UNL    H20   84  -0.041  -0.581  -0.328
    1UNL    H21   85  -0.063  -0.031  -0.148
    1UNL    H22   86   0.044  -0.080  -0.390
    1UNL    H23   87  -0.073  -0.002  -0.461
    1UNL    H24   88   0.134   0.146  -0.407
    1UNL    H25   89  -0.021   0.208  -0.389
    1UNL    H26   90   0.137   0.346  -0.126
    1UNL    H27   91  -0.042   0.353  -0.172
    1UNL    H28   92   0.036   0.321   0.095
    1UNL    H29   93  -0.124   0.275   0.006
    1UNL    H30   94   0.159  -0.164   0.038
    1UNL    H31   95   0.015  -0.264   0.269
    1UNL    H32   96  -0.097  -0.181   0.473
    1UNL    H33   97  -0.227   0.034   0.449
    1UNL    H34   98  -0.179   0.191   0.258
    1UNL    H35   99   0.249   0.148  -0.088
    1UNL    H36  100   0.252   0.005  -0.308
    1UNL    H37  101   0.203  -0.114  -0.204
    1UNL    H38  102   0.440   0.055  -0.143
    1UNL    H39  103   0.343  -0.316  -0.526
    1UNL    H40  104   0.255  -0.192  -0.608
    1UNL    H41  105   0.428  -0.179  -0.613
    1UNL    H42  106   0.652  -0.249  -0.222
    1UNL    H43  107   0.559   0.039   0.017
    1UNL    H44  108   0.520  -0.031   0.364
    1UNL    H45  109   0.156  -0.066   0.336
    1UNL    H46  110   0.220  -0.260   0.457
    1UNL    H47  111   0.353  -0.185   0.538
    1UNL    H48  112   0.160  -0.027   0.597
    1UNL    H49  113   0.347   0.076   0.512
    1UNL    H50  114   0.087   0.127   0.421
    1UNL    H51  115   0.330   0.281   0.344
    1UNL    H52  116   0.194   0.103   0.185
    1UNL    H53  117   0.536   0.190   0.286
    1UNL    H54  118   0.390   0.246   0.090
    1UNL    H55  119   0.341  -0.058   0.069
    1UNL    H56  120   0.419  -0.288   0.112
    1UNL    H57  121   0.282  -0.421  -0.051
    1UNL    H58  122   0.307  -0.300  -0.181
   0.00000   0.00000   0.00000   0.00000   0.00000   0.00000   0.00000   0.00000   0.00000
Generated with MDTraj, t= 17.0
 122
    1UNL     C1    1  -0.445   0.100  -0.362
    1UNL     C2    2  -0.322   0.061  -0.365
    1UNL     C3    3  -0.228   0.062  -0.239
    1UNL     C4    4  -0.317   0.012  -0.119
    1UNL     O1    5  -0.397   0.118  -0.071
    1UNL     C5    6  -0.497   0.060   0.012
    1UNL     O2    7  -0.629   0.116   0.026
    1UNL     C6    8  -0.615   0.237   0.093
    1UNL     C7    9  -0.736   0.332   0.080
    1UNL     O3   10  -0.725   0.436   0.166
    1UNL     C8   11  -0.591   0.216   0.245
    1UNL     O4   12  -0.508   0.323   0.296
    1UNL     C9   13  -0.521   0.080   0.269
    1UNL     O5   14  -0.454   0.079   0.393
    1UNL    C10   15  -0.434   0.041   0.154
    1UNL     O6   16  -0.372  -0.085   0.177
    1UNL     O7   17  -0.384  -0.114  -0.148
    1UNL    C11   18  -0.295  -0.210  -0.188
    1UNL    C12   19  -0.171  -0.187  -0.237
    1UNL    C13   20  -0.076  -0.301  -0.240
    1UNL     O8   21   0.043  -0.279  -0.239
    1UNL     O9   22  -0.126  -0.428  -0.238
    1UNL    C14   23  -0.029  -0.519  -0.230
    1UNL    C15   24  -0.115  -0.040  -0.237
    1UNL    C16   25  -0.015  -0.029  -0.357
    1UNL    C17   26   0.055   0.114  -0.356
    1UNL     N1   27   0.083   0.163  -0.220
    1UNL    C18   28   0.015   0.287  -0.157
    1UNL    C19   29  -0.065   0.252  -0.026
    1UNL    C20   30  -0.012   0.134   0.049
    1UNL    C21   31   0.087   0.049  -0.001
    1UNL     N2   32   0.091  -0.066   0.073
    1UNL    C22   33   0.005  -0.049   0.182
    1UNL    C23   34  -0.042  -0.138   0.280
    1UNL    C24   35  -0.115  -0.094   0.387
    1UNL    C25   36  -0.148   0.044   0.389
    1UNL    C26   37  -0.136   0.125   0.276
    1UNL    C27   38  -0.057   0.075   0.170
    1UNL    C28   39   0.172   0.079  -0.118
    1UNL    C29   40   0.246  -0.039  -0.186
    1UNL    C30   41   0.396  -0.050  -0.141
    1UNL    C31   42   0.490  -0.120  -0.233
    1UNL    C32   43   0.461  -0.158  -0.369
    1UNL    O10   44   0.544  -0.209  -0.441
    1UNL    O11   45   0.333  -0.140  -0.415
    1UNL    C33   46   0.322  -0.184  -0.552
    1UNL    C34   47   0.605  -0.160  -0.177
    1UNL    O12   48   0.657  -0.139  -0.050
    1UNL    C35   49   0.565  -0.084   0.039
    1UNL    O13   50   0.583  -0.092   0.180
    1UNL    C36   51   0.475  -0.035   0.262
    1UNL    O14   52   0.351  -0.095   0.260
    1UNL    C37   53   0.269  -0.068   0.378
    1UNL    C38   54   0.277  -0.171   0.494
    1UNL    O15   55   0.158  -0.166   0.555
    1UNL    C39   56   0.286   0.074   0.434
    1UNL    O16   57   0.156   0.117   0.479
    1UNL    C40   58   0.331   0.172   0.322
    1UNL    O17   59   0.228   0.181   0.231
    1UNL    C41   60   0.462   0.121   0.243
    1UNL    O18   61   0.446   0.163   0.113
    1UNL    C42   62   0.412  -0.110   0.004
    1UNL    C43   63   0.375  -0.258   0.026
    1UNL    C44   64   0.335  -0.336  -0.072
    1UNL     H1   65  -0.513   0.089  -0.276
    1UNL     H2   66  -0.506   0.108  -0.447
    1UNL     H3   67  -0.273   0.041  -0.463
    1UNL     H4   68  -0.193   0.171  -0.232
    1UNL     H5   69  -0.247  -0.018  -0.032
    1UNL     H6   70  -0.504  -0.053  -0.026
    1UNL     H7   71  -0.518   0.284   0.048
    1UNL     H8   72  -0.818   0.263   0.102
    1UNL     H9   73  -0.747   0.363  -0.026
    1UNL    H10   74  -0.782   0.512   0.142
    1UNL    H11   75  -0.688   0.206   0.294
    1UNL    H12   76  -0.545   0.403   0.258
    1UNL    H13   77  -0.601   0.010   0.285
    1UNL    H14   78  -0.441   0.172   0.428
    1UNL    H15   79  -0.350   0.116   0.149
    1UNL    H16   80  -0.426  -0.162   0.167
    1UNL    H17   81  -0.326  -0.310  -0.175
    1UNL    H18   82  -0.063  -0.626  -0.235
    1UNL    H19   83   0.025  -0.509  -0.141
    1UNL    H20   84   0.047  -0.512  -0.314
    1UNL    H21   85  -0.061  -0.035  -0.148
    1UNL    H22   86   0.058  -0.105  -0.359
    1UNL    H23   87  -0.065  -0.050  -0.447
    1UNL    H24   88   0.148   0.106  -0.413
    1UNL    H25   89   0.000   0.183  -0.408
    1UNL    H26   90   0.086   0.370  -0.130
    1UNL    H27   91  -0.050   0.321  -0.233
    1UNL    H28   92  -0.050   0.335   0.043
    1UNL    H29   93  -0.176   0.235  -0.042
    1UNL    H30   94   0.123  -0.156   0.031
    1UNL    H31   95  -0.001  -0.235   0.292
    1UNL    H32   96  -0.152  -0.160   0.457
    1UNL    H33   97  -0.213   0.081   0.466
    1UNL    H34   98  -0.180   0.218   0.267
    1UNL    H35   99   0.253   0.154  -0.095
    1UNL    H36  100   0.249  -0.002  -0.284
    1UNL    H37  101   0.181  -0.120  -0.178
    1UNL    H38  102   0.421   0.059  -0.146
    1UNL    H39  103   0.376  -0.280  -0.551
    1UNL    H40  104   0.225  -0.205  -0.598
    1UNL    H41  105   0.371  -0.108  -0.616
    1UNL    H42  106   0.667  -0.213  -0.251
    1UNL    H43  107   0.582   0.030   0.016
    1UNL    H44  108   0.521  -0.053   0.361
    1UNL    H45  109   0.165  -0.071   0.349
    1UNL    H46  110   0.290  -0.278   0.456
    1UNL    H47  111   0.361  -0.160   0.570
    1UNL    H48  112   0.128  -0.070   0.563
    1UNL    H49  113   0.351   0.078   0.523
    1UNL    H50  114   0.099   0.127   0.396
    1UNL    H51  115   0.358   0.265   0.362
    1UNL    H52  116   0.217   0.101   0.171
    1UNL    H53  117   0.556   0.177   0.286
    1UNL    H54  118   0.431   0.254   0.112
    1UNL    H55  119   0.348  -0.054   0.075
    1UNL    H56  120   0.387  -0.309   0.118
    1UNL    H57  121   0.328  -0.438  -0.053
    1UNL    H58  122   0.345  -0.319  -0.181
   0.00000   0.00000   0.00000   0.00000   0.00000   0.00000   0.00000   0.00000   0.00000
Generated with MDTraj, t= 18.0
 122
    1UNL     C1    1  -0.449   0.072  -0.367
    1UNL     C2    2  -0.326   0.028  -0.358
    1UNL     C3    3  -0.236   0.029  -0.232
    1UNL     C4    4  -0.330  -0.008  -0.115
    1UNL     O1    5  -0.425   0.095  -0.087
    1UNL     C5    6  -0.523   0.048   0.009
    1UNL     O2    7  -0.637   0.134   0.015
    1UNL     C6    8  -0.614   0.254   0.087
    1UNL     C7    9  -0.733   0.353   0.072
    1UNL     O3   10  -0.706   0.475   0.143
    1UNL     C8   11  -0.591   0.231   0.238
    1UNL     O4   12  -0.500   0.324   0.305
    1UNL     C9   13  -0.542   0.084   0.259
    1UNL     O5   14  -0.469   0.063   0.380
    1UNL    C10   15  -0.448   0.036   0.149
    1UNL     O6   16  -0.399  -0.093   0.172
    1UNL     O7   17  -0.386  -0.137  -0.141
    1UNL    C11   18  -0.294  -0.231  -0.181
    1UNL    C12   19  -0.162  -0.207  -0.213
    1UNL    C13   20  -0.068  -0.315  -0.240
    1UNL     O8   21   0.052  -0.305  -0.270
    1UNL     O9   22  -0.127  -0.446  -0.232
    1UNL    C14   23  -0.037  -0.549  -0.244
    1UNL    C15   24  -0.117  -0.059  -0.233
    1UNL    C16   25  -0.021  -0.038  -0.356
    1UNL    C17   26   0.029   0.112  -0.354
    1UNL     N1   27   0.063   0.155  -0.215
    1UNL    C18   28   0.016   0.291  -0.163
    1UNL    C19   29  -0.014   0.287  -0.016
    1UNL    C20   30   0.008   0.154   0.055
    1UNL    C21   31   0.088   0.055   0.005
    1UNL     N2   32   0.095  -0.057   0.092
    1UNL    C22   33  -0.004  -0.033   0.193
    1UNL    C23   34  -0.045  -0.116   0.295
    1UNL    C24   35  -0.130  -0.061   0.389
    1UNL    C25   36  -0.187   0.070   0.372
    1UNL    C26   37  -0.145   0.142   0.264
    1UNL    C27   38  -0.054   0.096   0.171
    1UNL    C28   39   0.160   0.080  -0.121
    1UNL    C29   40   0.236  -0.040  -0.177
    1UNL    C30   41   0.392  -0.044  -0.141
    1UNL    C31   42   0.483  -0.117  -0.229
    1UNL    C32   43   0.456  -0.140  -0.371
    1UNL    O10   44   0.549  -0.161  -0.445
    1UNL    O11   45   0.328  -0.133  -0.412
    1UNL    C33   46   0.314  -0.160  -0.547
    1UNL    C34   47   0.604  -0.152  -0.177
    1UNL    O12   48   0.647  -0.146  -0.042
    1UNL    C35   49   0.562  -0.066   0.041
    1UNL    O13   50   0.598  -0.083   0.177
    1UNL    C36   51   0.492  -0.044   0.267
    1UNL    O14   52   0.371  -0.106   0.254
    1UNL    C37   53   0.282  -0.087   0.370
    1UNL    C38   54   0.275  -0.208   0.460
    1UNL    O15   55   0.172  -0.199   0.556
    1UNL    C39   56   0.306   0.053   0.438
    1UNL    O16   57   0.188   0.100   0.504
    1UNL    C40   58   0.354   0.161   0.335
    1UNL    O17   59   0.252   0.194   0.242
    1UNL    C41   60   0.481   0.117   0.253
    1UNL    O18   61   0.469   0.169   0.122
    1UNL    C42   62   0.413  -0.094   0.000
    1UNL    C43   63   0.377  -0.239   0.023
    1UNL    C44   64   0.331  -0.321  -0.066
    1UNL     H1   65  -0.516   0.117  -0.297
    1UNL     H2   66  -0.491   0.092  -0.465
    1UNL     H3   67  -0.278  -0.010  -0.442
    1UNL     H4   68  -0.205   0.143  -0.221
    1UNL     H5   69  -0.265  -0.015  -0.021
    1UNL     H6   70  -0.553  -0.062  -0.029
    1UNL     H7   71  -0.526   0.314   0.043
    1UNL     H8   72  -0.829   0.305   0.096
    1UNL     H9   73  -0.739   0.365  -0.039
    1UNL    H10   74  -0.772   0.546   0.120
    1UNL    H11   75  -0.693   0.231   0.284
    1UNL    H12   76  -0.540   0.414   0.284
    1UNL    H13   77  -0.625   0.021   0.269
    1UNL    H14   78  -0.468   0.136   0.443
    1UNL    H15   79  -0.361   0.104   0.136
    1UNL    H16   80  -0.472  -0.148   0.175
    1UNL    H17   81  -0.333  -0.325  -0.159
    1UNL    H18   82  -0.062  -0.611  -0.335
    1UNL    H19   83  -0.041  -0.612  -0.161
    1UNL    H20   84   0.067  -0.514  -0.261
    1UNL    H21   85  -0.058  -0.033  -0.154
    1UNL    H22   86   0.062  -0.099  -0.344
    1UNL    H23   87  -0.070  -0.067  -0.446
    1UNL    H24   88   0.113   0.131  -0.420
    1UNL    H25   89  -0.048   0.173  -0.388
    1UNL    H26   90   0.098   0.365  -0.191
    1UNL    H27   91  -0.066   0.329  -0.218
    1UNL    H28   92   0.045   0.363   0.032
    1UNL    H29   93  -0.123   0.320   0.004
    1UNL    H30   94   0.168  -0.133   0.094
    1UNL    H31   95   0.005  -0.212   0.307
    1UNL    H32   96  -0.166  -0.120   0.475
    1UNL    H33   97  -0.272   0.101   0.429
    1UNL    H34   98  -0.197   0.242   0.244
    1UNL    H35   99   0.236   0.159  -0.100
    1UNL    H36  100   0.244  -0.018  -0.284
    1UNL    H37  101   0.192  -0.134  -0.167
    1UNL    H38  102   0.422   0.063  -0.156
    1UNL    H39  103   0.330  -0.270  -0.557
    1UNL    H40  104   0.213  -0.133  -0.584
    1UNL    H41  105   0.388  -0.099  -0.605
    1UNL    H42  106   0.685  -0.200  -0.244
    1UNL    H43  107   0.590   0.046   0.021
    1UNL    H44  108   0.530  -0.070   0.368
    1UNL    H45  109   0.186  -0.074   0.324
    1UNL    H46  110   0.272  -0.305   0.400
    1UNL    H47  111   0.379  -0.209   0.508
    1UNL    H48  112   0.183  -0.113   0.606
    1UNL    H49  113   0.383   0.043   0.514
    1UNL    H50  114   0.129   0.126   0.430
    1UNL    H51  115   0.378   0.245   0.391
    1UNL    H52  116   0.212   0.121   0.193
    1UNL    H53  117   0.576   0.174   0.296
    1UNL    H54  118   0.453   0.271   0.123
    1UNL    H55  119   0.348  -0.032   0.070
    1UNL    H56  120   0.397  -0.281   0.123
    1UNL    H57  121   0.310  -0.421  -0.023
    1UNL    H58  122   0.330  -0.312  -0.171
   0.00000   0.00000   0.00000   0.00000   0.00000   0.00000   0.00000   0.00000   0.00000
Generated with MDTraj, t= 19.0
 122
    1UNL     C1    1  -0.437   0.055  -0.388
    1UNL     C2    2  -0.326  -0.004  -0.359
    1UNL     C3    3  -0.255   0.009  -0.226
    1UNL     C4    4  -0.357  -0.030  -0.111
    1UNL     O1    5  -0.453   0.073  -0.085
    1UNL     C5    6  -0.548   0.036   0.011
    1UNL     O2    7  -0.656   0.137   0.005
    1UNL     C6    8  -0.617   0.255   0.073
    1UNL     C7    9  -0.700   0.376   0.042
    1UNL     O3   10  -0.654   0.487   0.120
    1UNL     C8   11  -0.610   0.227   0.229
    1UNL     O4   12  -0.521   0.312   0.299
    1UNL     C9   13  -0.577   0.081   0.255
    1UNL     O5   14  -0.521   0.067   0.382
    1UNL    C10   15  -0.469   0.037   0.152
    1UNL     O6   16  -0.406  -0.084   0.187
    1UNL     O7   17  -0.394  -0.164  -0.124
    1UNL    C11   18  -0.297  -0.246  -0.163
    1UNL    C12   19  -0.171  -0.223  -0.202
    1UNL    C13   20  -0.080  -0.332  -0.228
    1UNL     O8   21   0.035  -0.307  -0.267
    1UNL     O9   22  -0.123  -0.465  -0.223
    1UNL    C14   23  -0.027  -0.551  -0.274
    1UNL    C15   24  -0.126  -0.079  -0.213
    1UNL    C16   25  -0.021  -0.045  -0.325
    1UNL    C17   26   0.018   0.102  -0.335
    1UNL     N1   27   0.062   0.154  -0.206
    1UNL    C18   28   0.017   0.294  -0.166
    1UNL    C19   29  -0.018   0.300  -0.014
    1UNL    C20   30   0.023   0.179   0.063
    1UNL    C21   31   0.119   0.089   0.018
    1UNL     N2   32   0.113  -0.027   0.101
    1UNL    C22   33   0.002  -0.010   0.189
    1UNL    C23   34  -0.053  -0.095   0.289
    1UNL    C24   35  -0.150  -0.042   0.374
    1UNL    C25   36  -0.190   0.092   0.358
    1UNL    C26   37  -0.136   0.174   0.267
    1UNL    C27   38  -0.049   0.122   0.170
    1UNL    C28   39   0.177   0.106  -0.124
    1UNL    C29   40   0.244  -0.020  -0.185
    1UNL    C30   41   0.396  -0.033  -0.149
    1UNL    C31   42   0.488  -0.103  -0.243
    1UNL    C32   43   0.459  -0.125  -0.389
    1UNL    O10   44   0.551  -0.156  -0.461
    1UNL    O11   45   0.332  -0.112  -0.445
    1UNL    C33   46   0.323  -0.154  -0.576
    1UNL    C34   47   0.609  -0.144  -0.191
    1UNL    O12   48   0.649  -0.152  -0.060
    1UNL    C35   49   0.564  -0.068   0.030
    1UNL    O13   50   0.589  -0.097   0.166
    1UNL    C36   51   0.498  -0.048   0.270
    1UNL    O14   52   0.381  -0.123   0.263
    1UNL    C37   53   0.289  -0.100   0.376
    1UNL    C38   54   0.297  -0.216   0.472
    1UNL    O15   55   0.193  -0.213   0.572
    1UNL    C39   56   0.322   0.035   0.454
    1UNL    O16   57   0.213   0.082   0.534
    1UNL    C40   58   0.370   0.152   0.363
    1UNL    O17   59   0.267   0.199   0.279
    1UNL    C41   60   0.483   0.107   0.271
    1UNL    O18   61   0.467   0.161   0.142
    1UNL    C42   62   0.418  -0.093  -0.006
    1UNL    C43   63   0.378  -0.229   0.006
    1UNL    C44   64   0.319  -0.314  -0.077
    1UNL     H1   65  -0.479   0.129  -0.324
    1UNL     H2   66  -0.497   0.049  -0.479
    1UNL     H3   67  -0.263  -0.057  -0.437
    1UNL     H4   68  -0.234   0.126  -0.219
    1UNL     H5   69  -0.298  -0.030  -0.016
    1UNL     H6   70  -0.582  -0.076  -0.015
    1UNL     H7   71  -0.512   0.288   0.046
    1UNL     H8   72  -0.799   0.349   0.085
    1UNL     H9   73  -0.723   0.403  -0.064
    1UNL    H10   74  -0.703   0.569   0.094
    1UNL    H11   75  -0.713   0.242   0.275
    1UNL    H12   76  -0.549   0.399   0.269
    1UNL    H13   77  -0.666   0.026   0.254
    1UNL    H14   78  -0.460   0.144   0.400
    1UNL    H15   79  -0.384   0.111   0.147
    1UNL    H16   80  -0.466  -0.153   0.173
    1UNL    H17   81  -0.334  -0.350  -0.171
    1UNL    H18   82  -0.001  -0.519  -0.379
    1UNL    H19   83  -0.077  -0.641  -0.275
    1UNL    H20   84   0.067  -0.554  -0.218
    1UNL    H21   85  -0.072  -0.050  -0.129
    1UNL    H22   86   0.057  -0.115  -0.316
    1UNL    H23   87  -0.072  -0.066  -0.417
    1UNL    H24   88   0.099   0.121  -0.404
    1UNL    H25   89  -0.064   0.161  -0.372
    1UNL    H26   90   0.103   0.363  -0.195
    1UNL    H27   91  -0.056   0.337  -0.229
    1UNL    H28   92   0.006   0.390   0.036
    1UNL    H29   93  -0.134   0.309  -0.020
    1UNL    H30   94   0.139  -0.127   0.079
    1UNL    H31   95  -0.015  -0.197   0.288
    1UNL    H32   96  -0.171  -0.101   0.465
    1UNL    H33   97  -0.264   0.131   0.429
    1UNL    H34   98  -0.168   0.271   0.250
    1UNL    H35   99   0.251   0.189  -0.122
    1UNL    H36  100   0.235  -0.019  -0.296
    1UNL    H37  101   0.200  -0.114  -0.159
    1UNL    H38  102   0.442   0.072  -0.152
    1UNL    H39  103   0.368  -0.255  -0.580
    1UNL    H40  104   0.218  -0.154  -0.602
    1UNL    H41  105   0.376  -0.080  -0.640
    1UNL    H42  106   0.680  -0.195  -0.244
    1UNL    H43  107   0.598   0.043   0.016
    1UNL    H44  108   0.540  -0.090   0.365
    1UNL    H45  109   0.191  -0.093   0.332
    1UNL    H46  110   0.290  -0.304   0.399
    1UNL    H47  111   0.401  -0.227   0.519
    1UNL    H48  112   0.168  -0.124   0.599
    1UNL    H49  113   0.390   0.006   0.531
    1UNL    H50  114   0.150   0.110   0.467
    1UNL    H51  115   0.387   0.237   0.423
    1UNL    H52  116   0.223   0.129   0.224
    1UNL    H53  117   0.589   0.158   0.294
    1UNL    H54  118   0.421   0.252   0.141
    1UNL    H55  119   0.369  -0.031   0.078
    1UNL    H56  120   0.409  -0.266   0.100
    1UNL    H57  121   0.290  -0.412  -0.040
    1UNL    H58  122   0.272  -0.282  -0.166
   0.00000   0.00000   0.00000   0.00000   0.00000   0.00000   0.00000   0.00000   0.00000
Generated with MDTraj, t= 20.0
 122
    1UNL     C1    1  -0.428   0.051  -0.381
    1UNL     C2    2  -0.340  -0.026  -0.337
    1UNL     C3    3  -0.257   0.007  -0.210
    1UNL     C4    4  -0.348  -0.035  -0.090
    1UNL     O1    5  -0.450   0.066  -0.080
    1UNL     C5    6  -0.549   0.032   0.006
    1UNL     O2    7  -0.656   0.132   0.006
    1UNL     C6    8  -0.615   0.258   0.064
    1UNL     C7    9  -0.691   0.378   0.022
    1UNL     O3   10  -0.625   0.496   0.069
    1UNL     C8   11  -0.624   0.227   0.215
    1UNL     O4   12  -0.548   0.314   0.298
    1UNL     C9   13  -0.599   0.075   0.253
    1UNL     O5   14  -0.552   0.067   0.388
    1UNL    C10   15  -0.495   0.018   0.149
    1UNL     O6   16  -0.438  -0.106   0.183
    1UNL     O7   17  -0.390  -0.171  -0.104
    1UNL    C11   18  -0.291  -0.250  -0.145
    1UNL    C12   19  -0.170  -0.217  -0.194
    1UNL    C13   20  -0.078  -0.328  -0.220
    1UNL     O8   21   0.045  -0.311  -0.219
    1UNL     O9   22  -0.134  -0.453  -0.249
    1UNL    C14   23  -0.030  -0.551  -0.267
    1UNL    C15   24  -0.128  -0.070  -0.201
    1UNL    C16   25  -0.037  -0.046  -0.320
    1UNL    C17   26   0.010   0.099  -0.346
    1UNL     N1   27   0.060   0.161  -0.220
    1UNL    C18   28   0.002   0.298  -0.182
    1UNL    C19   29  -0.030   0.305  -0.028
    1UNL    C20   30   0.029   0.197   0.048
    1UNL    C21   31   0.124   0.102   0.001
    1UNL     N2   32   0.115  -0.002   0.087
    1UNL    C22   33   0.027   0.014   0.195
    1UNL    C23   34  -0.020  -0.073   0.298
    1UNL    C24   35  -0.132  -0.033   0.366
    1UNL    C25   36  -0.187   0.100   0.353
    1UNL    C26   37  -0.142   0.186   0.252
    1UNL    C27   38  -0.040   0.137   0.160
    1UNL    C28   39   0.178   0.116  -0.141
    1UNL    C29   40   0.249  -0.013  -0.194
    1UNL    C30   41   0.396  -0.023  -0.146
    1UNL    C31   42   0.492  -0.091  -0.244
    1UNL    C32   43   0.459  -0.125  -0.383
    1UNL    O10   44   0.546  -0.180  -0.450
    1UNL    O11   45   0.334  -0.083  -0.433
    1UNL    C33   46   0.326  -0.110  -0.572
    1UNL    C34   47   0.610  -0.126  -0.191
    1UNL    O12   48   0.652  -0.122  -0.065
    1UNL    C35   49   0.555  -0.074   0.041
    1UNL    O13   50   0.587  -0.129   0.166
    1UNL    C36   51   0.499  -0.073   0.262
    1UNL    O14   52   0.370  -0.125   0.257
    1UNL    C37   53   0.299  -0.106   0.384
    1UNL    C38   54   0.310  -0.235   0.470
    1UNL    O15   55   0.230  -0.212   0.581
    1UNL    C39   56   0.342   0.020   0.464
    1UNL    O16   57   0.242   0.067   0.551
    1UNL    C40   58   0.382   0.126   0.364
    1UNL    O17   59   0.270   0.181   0.304
    1UNL    C41   60   0.484   0.078   0.264
    1UNL    O18   61   0.446   0.145   0.146
    1UNL    C42   62   0.409  -0.093  -0.005
    1UNL    C43   63   0.364  -0.235  -0.000
    1UNL    C44   64   0.321  -0.316  -0.098
    1UNL     H1   65  -0.440   0.145  -0.328
    1UNL     H2   66  -0.492   0.027  -0.463
    1UNL     H3   67  -0.309  -0.104  -0.399
    1UNL     H4   68  -0.239   0.122  -0.206
    1UNL     H5   69  -0.288  -0.037   0.002
    1UNL     H6   70  -0.594  -0.073  -0.033
    1UNL     H7   71  -0.508   0.268   0.042
    1UNL     H8   72  -0.796   0.388   0.054
    1UNL     H9   73  -0.688   0.385  -0.088
    1UNL    H10   74  -0.667   0.575   0.030
    1UNL    H11   75  -0.735   0.246   0.235
    1UNL    H12   76  -0.543   0.402   0.246
    1UNL    H13   77  -0.687   0.019   0.250
    1UNL    H14   78  -0.525   0.157   0.413
    1UNL    H15   79  -0.410   0.089   0.155
    1UNL    H16   80  -0.484  -0.148   0.254
    1UNL    H17   81  -0.318  -0.359  -0.142
    1UNL    H18   82   0.054  -0.507  -0.329
    1UNL    H19   83  -0.074  -0.635  -0.308
    1UNL    H20   84   0.010  -0.585  -0.171
    1UNL    H21   85  -0.069  -0.043  -0.117
    1UNL    H22   86   0.056  -0.107  -0.314
    1UNL    H23   87  -0.093  -0.085  -0.404
    1UNL    H24   88   0.088   0.094  -0.417
    1UNL    H25   89  -0.069   0.168  -0.384
    1UNL    H26   90   0.057   0.392  -0.215
    1UNL    H27   91  -0.084   0.309  -0.244
    1UNL    H28   92   0.007   0.402  -0.004
    1UNL    H29   93  -0.143   0.319  -0.002
    1UNL    H30   94   0.150  -0.097   0.065
    1UNL    H31   95   0.016  -0.173   0.299
    1UNL    H32   96  -0.163  -0.098   0.442
    1UNL    H33   97  -0.264   0.127   0.419
    1UNL    H34   98  -0.200   0.276   0.233
    1UNL    H35   99   0.247   0.201  -0.145
    1UNL    H36  100   0.237  -0.019  -0.303
    1UNL    H37  101   0.177  -0.096  -0.158
    1UNL    H38  102   0.434   0.086  -0.147
    1UNL    H39  103   0.362  -0.212  -0.584
    1UNL    H40  104   0.228  -0.089  -0.611
    1UNL    H41  105   0.402  -0.047  -0.615
    1UNL    H42  106   0.687  -0.164  -0.255
    1UNL    H43  107   0.587   0.038   0.033
    1UNL    H44  108   0.533  -0.118   0.358
    1UNL    H45  109   0.198  -0.082   0.353
    1UNL    H46  110   0.272  -0.328   0.423
    1UNL    H47  111   0.417  -0.249   0.502
    1UNL    H48  112   0.225  -0.116   0.611
    1UNL    H49  113   0.420  -0.016   0.524
    1UNL    H50  114   0.192   0.128   0.488
    1UNL    H51  115   0.423   0.210   0.420
    1UNL    H52  116   0.232   0.113   0.236
    1UNL    H53  117   0.588   0.120   0.301
    1UNL    H54  118   0.415   0.229   0.168
    1UNL    H55  119   0.342  -0.030   0.065
    1UNL    H56  120   0.354  -0.271   0.104
    1UNL    H57  121   0.300  -0.418  -0.082
    1UNL    H58  122   0.288  -0.274  -0.195
   0.00000   0.00000   0.00000   0.00000   0.00000   0.00000   0.00000   0.00000   0.00000
Generated with MDTraj, t= 21.0
 122
    1UNL     C1    1  -0.434   0.073  -0.356
    1UNL     C2    2  -0.322   0.012  -0.337
    1UNL     C3    3  -0.242   0.018  -0.210
    1UNL     C4    4  -0.326  -0.014  -0.083
    1UNL     O1    5  -0.436   0.082  -0.061
    1UNL     C5    6  -0.542   0.029   0.011
    1UNL     O2    7  -0.657   0.115  -0.008
    1UNL     C6    8  -0.620   0.240   0.059
    1UNL     C7    9  -0.691   0.363   0.001
    1UNL     O3   10  -0.635   0.486   0.052
    1UNL     C8   11  -0.636   0.231   0.215
    1UNL     O4   12  -0.547   0.324   0.275
    1UNL     C9   13  -0.608   0.084   0.264
    1UNL     O5   14  -0.566   0.096   0.392
    1UNL    C10   15  -0.511   0.007   0.162
    1UNL     O6   16  -0.491  -0.131   0.190
    1UNL     O7   17  -0.381  -0.145  -0.099
    1UNL    C11   18  -0.285  -0.243  -0.125
    1UNL    C12   19  -0.155  -0.218  -0.170
    1UNL    C13   20  -0.063  -0.329  -0.193
    1UNL     O8   21   0.058  -0.310  -0.186
    1UNL     O9   22  -0.122  -0.447  -0.235
    1UNL    C14   23  -0.020  -0.542  -0.265
    1UNL    C15   24  -0.121  -0.072  -0.207
    1UNL    C16   25  -0.029  -0.068  -0.329
    1UNL    C17   26   0.013   0.080  -0.356
    1UNL     N1   27   0.056   0.152  -0.232
    1UNL    C18   28   0.000   0.287  -0.206
    1UNL    C19   29  -0.037   0.303  -0.055
    1UNL    C20   30   0.007   0.188   0.036
    1UNL    C21   31   0.095   0.098  -0.009
    1UNL     N2   32   0.111  -0.007   0.086
    1UNL    C22   33   0.013   0.014   0.178
    1UNL    C23   34  -0.030  -0.068   0.279
    1UNL    C24   35  -0.122  -0.016   0.367
    1UNL    C25   36  -0.199   0.099   0.349
    1UNL    C26   37  -0.155   0.184   0.246
    1UNL    C27   38  -0.047   0.139   0.159
    1UNL    C28   39   0.166   0.111  -0.142
    1UNL    C29   40   0.243  -0.018  -0.194
    1UNL    C30   41   0.393  -0.015  -0.153
    1UNL    C31   42   0.488  -0.080  -0.256
    1UNL    C32   43   0.455  -0.110  -0.396
    1UNL    O10   44   0.524  -0.189  -0.459
    1UNL    O11   45   0.348  -0.041  -0.450
    1UNL    C33   46   0.330  -0.088  -0.578
    1UNL    C34   47   0.590  -0.145  -0.196
    1UNL    O12   48   0.643  -0.153  -0.073
    1UNL    C35   49   0.562  -0.079   0.024
    1UNL    O13   50   0.582  -0.126   0.159
    1UNL    C36   51   0.499  -0.075   0.258
    1UNL    O14   52   0.370  -0.134   0.265
    1UNL    C37   53   0.307  -0.119   0.395
    1UNL    C38   54   0.310  -0.252   0.474
    1UNL    O15   55   0.251  -0.231   0.600
    1UNL    C39   56   0.353   0.007   0.473
    1UNL    O16   57   0.269   0.055   0.580
    1UNL    C40   58   0.387   0.128   0.381
    1UNL    O17   59   0.270   0.172   0.318
    1UNL    C41   60   0.493   0.082   0.275
    1UNL    O18   61   0.447   0.152   0.153
    1UNL    C42   62   0.413  -0.085  -0.014
    1UNL    C43   63   0.378  -0.236  -0.002
    1UNL    C44   64   0.339  -0.307  -0.108
    1UNL     H1   65  -0.469   0.156  -0.295
    1UNL     H2   66  -0.489   0.065  -0.446
    1UNL     H3   67  -0.275  -0.043  -0.423
    1UNL     H4   68  -0.214   0.125  -0.194
    1UNL     H5   69  -0.266  -0.019   0.006
    1UNL     H6   70  -0.574  -0.071  -0.047
    1UNL     H7   71  -0.513   0.239   0.043
    1UNL     H8   72  -0.797   0.363   0.022
    1UNL     H9   73  -0.679   0.375  -0.107
    1UNL    H10   74  -0.669   0.568   0.013
    1UNL    H11   75  -0.745   0.249   0.250
    1UNL    H12   76  -0.562   0.412   0.240
    1UNL    H13   77  -0.692   0.021   0.262
    1UNL    H14   78  -0.536   0.191   0.401
    1UNL    H15   79  -0.414   0.056   0.179
    1UNL    H16   80  -0.539  -0.159   0.278
    1UNL    H17   81  -0.313  -0.333  -0.074
    1UNL    H18   82   0.040  -0.509  -0.357
    1UNL    H19   83  -0.069  -0.634  -0.273
    1UNL    H20   84   0.045  -0.554  -0.176
    1UNL    H21   85  -0.059  -0.047  -0.120
    1UNL    H22   86   0.056  -0.143  -0.313
    1UNL    H23   87  -0.074  -0.112  -0.418
    1UNL    H24   88   0.090   0.095  -0.425
    1UNL    H25   89  -0.079   0.139  -0.390
    1UNL    H26   90   0.080   0.358  -0.243
    1UNL    H27   91  -0.084   0.316  -0.267
    1UNL    H28   92  -0.015   0.400  -0.016
    1UNL    H29   93  -0.152   0.304  -0.068
    1UNL    H30   94   0.168  -0.091   0.072
    1UNL    H31   95   0.019  -0.161   0.309
    1UNL    H32   96  -0.149  -0.085   0.455
    1UNL    H33   97  -0.299   0.106   0.399
    1UNL    H34   98  -0.216   0.274   0.224
    1UNL    H35   99   0.223   0.205  -0.146
    1UNL    H36  100   0.233  -0.019  -0.304
    1UNL    H37  101   0.191  -0.116  -0.155
    1UNL    H38  102   0.420   0.093  -0.135
    1UNL    H39  103   0.302  -0.193  -0.573
    1UNL    H40  104   0.261  -0.020  -0.623
    1UNL    H41  105   0.431  -0.087  -0.619
    1UNL    H42  106   0.634  -0.216  -0.278
    1UNL    H43  107   0.609   0.028   0.010
    1UNL    H44  108   0.547  -0.113   0.352
    1UNL    H45  109   0.206  -0.087   0.363
    1UNL    H46  110   0.255  -0.329   0.422
    1UNL    H47  111   0.414  -0.288   0.500
    1UNL    H48  112   0.261  -0.139   0.626
    1UNL    H49  113   0.437  -0.026   0.525
    1UNL    H50  114   0.226   0.137   0.552
    1UNL    H51  115   0.427   0.216   0.438
    1UNL    H52  116   0.240   0.100   0.255
    1UNL    H53  117   0.595   0.120   0.317
    1UNL    H54  118   0.414   0.247   0.178
    1UNL    H55  119   0.356  -0.021   0.065
    1UNL    H56  120   0.385  -0.283   0.092
    1UNL    H57  121   0.308  -0.406  -0.086
    1UNL    H58  122   0.311  -0.273  -0.208
   0.00000   0.00000   0.00000   0.00000   0.00000   0.00000   0.00000   0.00000   0.00000
Generated with MDTraj, t= 22.0
 122
    1UNL     C1    1  -0.441   0.088  -0.299
    1UNL     C2    2  -0.318   0.040  -0.303
    1UNL     C3    3  -0.228   0.025  -0.182
    1UNL     C4    4  -0.315  -0.024  -0.064
    1UNL     O1    5  -0.409   0.082  -0.030
    1UNL     C5    6  -0.531   0.034   0.014
    1UNL     O2    7  -0.639   0.128  -0.023
    1UNL     C6    8  -0.608   0.254   0.041
    1UNL     C7    9  -0.711   0.356  -0.012
    1UNL     O3   10  -0.689   0.485   0.040
    1UNL     C8   11  -0.629   0.244   0.197
    1UNL     O4   12  -0.533   0.323   0.262
    1UNL     C9   13  -0.620   0.092   0.254
    1UNL     O5   14  -0.570   0.098   0.383
    1UNL    C10   15  -0.519   0.010   0.170
    1UNL     O6   16  -0.522  -0.128   0.208
    1UNL     O7   17  -0.376  -0.146  -0.105
    1UNL    C11   18  -0.278  -0.242  -0.137
    1UNL    C12   19  -0.153  -0.219  -0.179
    1UNL    C13   20  -0.054  -0.329  -0.185
    1UNL     O8   21   0.061  -0.288  -0.204
    1UNL     O9   22  -0.102  -0.451  -0.189
    1UNL    C14   23   0.003  -0.536  -0.229
    1UNL    C15   24  -0.110  -0.073  -0.201
    1UNL    C16   25  -0.032  -0.066  -0.336
    1UNL    C17   26   0.015   0.082  -0.358
    1UNL     N1   27   0.071   0.157  -0.239
    1UNL    C18   28   0.001   0.292  -0.204
    1UNL    C19   29  -0.056   0.295  -0.058
    1UNL    C20   30  -0.006   0.177   0.024
    1UNL    C21   31   0.096   0.087  -0.008
    1UNL     N2   32   0.104  -0.017   0.093
    1UNL    C22   33   0.002   0.010   0.184
    1UNL    C23   34  -0.042  -0.074   0.285
    1UNL    C24   35  -0.144  -0.016   0.359
    1UNL    C25   36  -0.204   0.107   0.321
    1UNL    C26   37  -0.182   0.174   0.201
    1UNL    C27   38  -0.069   0.126   0.140
    1UNL    C28   39   0.167   0.100  -0.142
    1UNL    C29   40   0.242  -0.029  -0.188
    1UNL    C30   41   0.393  -0.029  -0.154
    1UNL    C31   42   0.480  -0.105  -0.253
    1UNL    C32   43   0.448  -0.112  -0.396
    1UNL    O10   44   0.510  -0.191  -0.467
    1UNL    O11   45   0.359  -0.017  -0.446
    1UNL    C33   46   0.346  -0.037  -0.580
    1UNL    C34   47   0.598  -0.154  -0.212
    1UNL    O12   48   0.640  -0.151  -0.081
    1UNL    C35   49   0.555  -0.088   0.015
    1UNL    O13   50   0.582  -0.130   0.150
    1UNL    C36   51   0.514  -0.074   0.261
    1UNL    O14   52   0.381  -0.134   0.270
    1UNL    C37   53   0.313  -0.122   0.395
    1UNL    C38   54   0.336  -0.253   0.469
    1UNL    O15   55   0.259  -0.260   0.594
    1UNL    C39   56   0.367   0.002   0.472
    1UNL    O16   57   0.278   0.041   0.576
    1UNL    C40   58   0.388   0.125   0.375
    1UNL    O17   59   0.272   0.180   0.314
    1UNL    C41   60   0.492   0.087   0.267
    1UNL    O18   61   0.446   0.153   0.147
    1UNL    C42   62   0.401  -0.094  -0.016
    1UNL    C43   63   0.339  -0.226   0.001
    1UNL    C44   64   0.344  -0.333  -0.075
    1UNL     H1   65  -0.481   0.145  -0.218
    1UNL     H2   66  -0.519   0.088  -0.377
    1UNL     H3   67  -0.273   0.000  -0.392
    1UNL     H4   68  -0.192   0.117  -0.158
    1UNL     H5   69  -0.261  -0.049   0.023
    1UNL     H6   70  -0.551  -0.070  -0.041
    1UNL     H7   71  -0.507   0.263   0.012
    1UNL     H8   72  -0.813   0.324   0.008
    1UNL     H9   73  -0.697   0.360  -0.120
    1UNL    H10   74  -0.742   0.553  -0.009
    1UNL    H11   75  -0.737   0.282   0.225
    1UNL    H12   76  -0.524   0.413   0.219
    1UNL    H13   77  -0.713   0.042   0.256
    1UNL    H14   78  -0.531   0.185   0.395
    1UNL    H15   79  -0.421   0.043   0.207
    1UNL    H16   80  -0.511  -0.139   0.312
    1UNL    H17   81  -0.310  -0.340  -0.125
    1UNL    H18   82   0.049  -0.504  -0.330
    1UNL    H19   83  -0.045  -0.630  -0.234
    1UNL    H20   84   0.074  -0.543  -0.143
    1UNL    H21   85  -0.033  -0.064  -0.118
    1UNL    H22   86   0.060  -0.136  -0.343
    1UNL    H23   87  -0.095  -0.109  -0.415
    1UNL    H24   88   0.085   0.095  -0.433
    1UNL    H25   89  -0.080   0.143  -0.387
    1UNL    H26   90   0.072   0.375  -0.215
    1UNL    H27   91  -0.073   0.316  -0.282
    1UNL    H28   92  -0.037   0.391  -0.014
    1UNL    H29   93  -0.170   0.289  -0.059
    1UNL    H30   94   0.144  -0.107   0.085
    1UNL    H31   95   0.013  -0.155   0.324
    1UNL    H32   96  -0.182  -0.058   0.444
    1UNL    H33   97  -0.295   0.133   0.368
    1UNL    H34   98  -0.238   0.257   0.180
    1UNL    H35   99   0.242   0.174  -0.114
    1UNL    H36  100   0.238  -0.027  -0.300
    1UNL    H37  101   0.198  -0.131  -0.158
    1UNL    H38  102   0.437   0.075  -0.154
    1UNL    H39  103   0.302  -0.137  -0.599
    1UNL    H40  104   0.290   0.052  -0.611
    1UNL    H41  105   0.452  -0.042  -0.616
    1UNL    H42  106   0.654  -0.212  -0.282
    1UNL    H43  107   0.594   0.022   0.009
    1UNL    H44  108   0.577  -0.096   0.349
    1UNL    H45  109   0.206  -0.108   0.374
    1UNL    H46  110   0.307  -0.335   0.410
    1UNL    H47  111   0.442  -0.261   0.498
    1UNL    H48  112   0.247  -0.161   0.616
    1UNL    H49  113   0.449  -0.032   0.524
    1UNL    H50  114   0.215   0.110   0.550
    1UNL    H51  115   0.432   0.223   0.418
    1UNL    H52  116   0.245   0.114   0.250
    1UNL    H53  117   0.593   0.132   0.296
    1UNL    H54  118   0.399   0.242   0.162
    1UNL    H55  119   0.348  -0.023   0.061
    1UNL    H56  120   0.312  -0.241   0.107
    1UNL    H57  121   0.297  -0.427  -0.040
    1UNL    H58  122   0.389  -0.326  -0.170
   0.00000   0.00000   0.00000   0.00000   0.00000   0.00000   0.00000   0.00000   0.00000
Generated with MDTraj, t= 23.0
 122
    1UNL     C1    1  -0.433   0.099  -0.307
    1UNL     C2    2  -0.318   0.033  -0.313
    1UNL     C3    3  -0.226   0.024  -0.197
    1UNL     C4    4  -0.304  -0.022  -0.067
    1UNL     O1    5  -0.401   0.075  -0.026
    1UNL     C5    6  -0.525   0.027   0.026
    1UNL     O2    7  -0.629   0.120  -0.019
    1UNL     C6    8  -0.615   0.251   0.035
    1UNL     C7    9  -0.730   0.338  -0.013
    1UNL     O3   10  -0.717   0.468   0.043
    1UNL     C8   11  -0.614   0.255   0.191
    1UNL     O4   12  -0.505   0.320   0.246
    1UNL     C9   13  -0.626   0.114   0.249
    1UNL     O5   14  -0.618   0.108   0.394
    1UNL    C10   15  -0.533   0.015   0.183
    1UNL     O6   16  -0.561  -0.116   0.230
    1UNL     O7   17  -0.358  -0.152  -0.077
    1UNL    C11   18  -0.265  -0.244  -0.121
    1UNL    C12   19  -0.154  -0.217  -0.199
    1UNL    C13   20  -0.049  -0.319  -0.200
    1UNL     O8   21   0.069  -0.294  -0.227
    1UNL     O9   22  -0.098  -0.448  -0.175
    1UNL    C14   23   0.015  -0.542  -0.157
    1UNL    C15   24  -0.111  -0.073  -0.214
    1UNL    C16   25  -0.031  -0.048  -0.344
    1UNL    C17   26   0.020   0.092  -0.360
    1UNL     N1   27   0.068   0.154  -0.231
    1UNL    C18   28   0.022   0.293  -0.193
    1UNL    C19   29  -0.039   0.305  -0.051
    1UNL    C20   30  -0.004   0.184   0.027
    1UNL    C21   31   0.099   0.095  -0.002
    1UNL     N2   32   0.101  -0.006   0.084
    1UNL    C22   33   0.006   0.020   0.179
    1UNL    C23   34  -0.053  -0.068   0.279
    1UNL    C24   35  -0.160  -0.022   0.352
    1UNL    C25   36  -0.225   0.096   0.323
    1UNL    C26   37  -0.185   0.173   0.220
    1UNL    C27   38  -0.067   0.138   0.146
    1UNL    C28   39   0.173   0.104  -0.129
    1UNL    C29   40   0.228  -0.030  -0.177
    1UNL    C30   41   0.380  -0.041  -0.145
    1UNL    C31   42   0.469  -0.103  -0.247
    1UNL    C32   43   0.443  -0.102  -0.390
    1UNL    O10   44   0.503  -0.178  -0.466
    1UNL    O11   45   0.366   0.000  -0.434
    1UNL    C33   46   0.373  -0.001  -0.576
    1UNL    C34   47   0.578  -0.171  -0.208
    1UNL    O12   48   0.635  -0.173  -0.084
    1UNL    C35   49   0.563  -0.100   0.016
    1UNL    O13   50   0.599  -0.132   0.144
    1UNL    C36   51   0.514  -0.079   0.249
    1UNL    O14   52   0.389  -0.138   0.248
    1UNL    C37   53   0.322  -0.123   0.378
    1UNL    C38   54   0.335  -0.252   0.466
    1UNL    O15   55   0.274  -0.243   0.596
    1UNL    C39   56   0.355   0.004   0.463
    1UNL    O16   57   0.255   0.042   0.557
    1UNL    C40   58   0.384   0.123   0.365
    1UNL    O17   59   0.260   0.163   0.300
    1UNL    C41   60   0.490   0.079   0.255
    1UNL    O18   61   0.450   0.132   0.135
    1UNL    C42   62   0.411  -0.107  -0.013
    1UNL    C43   63   0.379  -0.250  -0.008
    1UNL    C44   64   0.335  -0.337  -0.098
    1UNL     H1   65  -0.479   0.132  -0.218
    1UNL     H2   66  -0.511   0.090  -0.380
    1UNL     H3   67  -0.282  -0.014  -0.401
    1UNL     H4   68  -0.190   0.120  -0.181
    1UNL     H5   69  -0.238  -0.030   0.016
    1UNL     H6   70  -0.535  -0.079  -0.027
    1UNL     H7   71  -0.526   0.290  -0.003
    1UNL     H8   72  -0.819   0.291   0.031
    1UNL     H9   73  -0.737   0.333  -0.122
    1UNL    H10   74  -0.780   0.527  -0.008
    1UNL    H11   75  -0.700   0.326   0.224
    1UNL    H12   76  -0.501   0.415   0.207
    1UNL    H13   77  -0.728   0.087   0.224
    1UNL    H14   78  -0.552   0.169   0.436
    1UNL    H15   79  -0.434   0.044   0.223
    1UNL    H16   80  -0.562  -0.117   0.331
    1UNL    H17   81  -0.281  -0.350  -0.092
    1UNL    H18   82   0.075  -0.557  -0.253
    1UNL    H19   83  -0.028  -0.635  -0.132
    1UNL    H20   84   0.070  -0.505  -0.068
    1UNL    H21   85  -0.029  -0.060  -0.130
    1UNL    H22   86   0.058  -0.121  -0.351
    1UNL    H23   87  -0.095  -0.070  -0.432
    1UNL    H24   88   0.092   0.088  -0.435
    1UNL    H25   89  -0.065   0.164  -0.391
    1UNL    H26   90   0.108   0.358  -0.204
    1UNL    H27   91  -0.049   0.331  -0.269
    1UNL    H28   92   0.015   0.386  -0.002
    1UNL    H29   93  -0.148   0.327  -0.049
    1UNL    H30   94   0.150  -0.093   0.076
    1UNL    H31   95   0.001  -0.159   0.304
    1UNL    H32   96  -0.185  -0.074   0.449
    1UNL    H33   97  -0.308   0.129   0.386
    1UNL    H34   98  -0.255   0.250   0.174
    1UNL    H35   99   0.249   0.183  -0.125
    1UNL    H36  100   0.197  -0.043  -0.284
    1UNL    H37  101   0.176  -0.114  -0.127
    1UNL    H38  102   0.423   0.062  -0.153
    1UNL    H39  103   0.368  -0.107  -0.612
    1UNL    H40  104   0.297   0.068  -0.616
    1UNL    H41  105   0.479   0.027  -0.601
    1UNL    H42  106   0.648  -0.216  -0.267
    1UNL    H43  107   0.593   0.011   0.012
    1UNL    H44  108   0.564  -0.112   0.342
    1UNL    H45  109   0.216  -0.123   0.351
    1UNL    H46  110   0.294  -0.338   0.425
    1UNL    H47  111   0.441  -0.264   0.484
    1UNL    H48  112   0.277  -0.150   0.618
    1UNL    H49  113   0.438  -0.019   0.520
    1UNL    H50  114   0.192   0.110   0.518
    1UNL    H51  115   0.420   0.222   0.416
    1UNL    H52  116   0.228   0.096   0.239
    1UNL    H53  117   0.588   0.118   0.293
    1UNL    H54  118   0.421   0.217   0.157
    1UNL    H55  119   0.351  -0.045   0.066
    1UNL    H56  120   0.405  -0.298   0.083
    1UNL    H57  121   0.339  -0.444  -0.080
    1UNL    H58  122   0.325  -0.315  -0.201
   0.00000   0.00000   0.00000   0.00000   0.00000   0.00000   0.00000   0.00000   0.00000
Generated with MDTraj, t= 24.0
 122
    1UNL     C1    1  -0.440   0.079  -0.308
    1UNL     C2    2  -0.335   0.007  -0.296
    1UNL     C3    3  -0.236   0.025  -0.185
    1UNL     C4    4  -0.313  -0.010  -0.055
    1UNL     O1    5  -0.397   0.091  -0.007
    1UNL     C5    6  -0.522   0.039   0.025
    1UNL     O2    7  -0.628   0.115  -0.034
    1UNL     C6    8  -0.625   0.242   0.028
    1UNL     C7    9  -0.735   0.331  -0.028
    1UNL     O3   10  -0.733   0.464   0.026
    1UNL     C8   11  -0.611   0.249   0.183
    1UNL     O4   12  -0.473   0.294   0.215
    1UNL     C9   13  -0.635   0.108   0.244
    1UNL     O5   14  -0.626   0.114   0.393
    1UNL    C10   15  -0.532   0.011   0.176
    1UNL     O6   16  -0.558  -0.128   0.204
    1UNL     O7   17  -0.363  -0.144  -0.072
    1UNL    C11   18  -0.271  -0.236  -0.114
    1UNL    C12   19  -0.147  -0.208  -0.161
    1UNL    C13   20  -0.054  -0.310  -0.180
    1UNL     O8   21   0.050  -0.291  -0.245
    1UNL     O9   22  -0.086  -0.431  -0.122
    1UNL    C14   23   0.016  -0.529  -0.144
    1UNL    C15   24  -0.114  -0.069  -0.195
    1UNL    C16   25  -0.037  -0.039  -0.331
    1UNL    C17   26   0.022   0.095  -0.344
    1UNL     N1   27   0.079   0.165  -0.224
    1UNL    C18   28   0.013   0.294  -0.180
    1UNL    C19   29  -0.029   0.303  -0.037
    1UNL    C20   30   0.020   0.183   0.042
    1UNL    C21   31   0.107   0.081   0.006
    1UNL     N2   32   0.104  -0.021   0.097
    1UNL    C22   33   0.001   0.001   0.183
    1UNL    C23   34  -0.056  -0.068   0.290
    1UNL    C24   35  -0.164  -0.025   0.352
    1UNL    C25   36  -0.208   0.107   0.336
    1UNL    C26   37  -0.140   0.188   0.252
    1UNL    C27   38  -0.051   0.133   0.156
    1UNL    C28   39   0.180   0.091  -0.127
    1UNL    C29   40   0.244  -0.031  -0.186
    1UNL    C30   41   0.394  -0.041  -0.151
    1UNL    C31   42   0.485  -0.099  -0.256
    1UNL    C32   43   0.462  -0.084  -0.393
    1UNL    O10   44   0.519  -0.154  -0.475
    1UNL    O11   45   0.375   0.017  -0.426
    1UNL    C33   46   0.360   0.017  -0.565
    1UNL    C34   47   0.594  -0.164  -0.216
    1UNL    O12   48   0.634  -0.187  -0.090
    1UNL    C35   49   0.559  -0.109   0.015
    1UNL    O13   50   0.592  -0.148   0.145
    1UNL    C36   51   0.510  -0.089   0.253
    1UNL    O14   52   0.379  -0.143   0.256
    1UNL    C37   53   0.310  -0.122   0.380
    1UNL    C38   54   0.339  -0.242   0.474
    1UNL    O15   55   0.266  -0.226   0.586
    1UNL    C39   56   0.337   0.010   0.445
    1UNL    O16   57   0.222   0.045   0.518
    1UNL    C40   58   0.383   0.118   0.347
    1UNL    O17   59   0.271   0.175   0.285
    1UNL    C41   60   0.488   0.072   0.242
    1UNL    O18   61   0.445   0.107   0.115
    1UNL    C42   62   0.411  -0.116  -0.024
    1UNL    C43   63   0.370  -0.260  -0.023
    1UNL    C44   64   0.318  -0.330  -0.120
    1UNL     H1   65  -0.467   0.155  -0.231
    1UNL     H2   66  -0.506   0.060  -0.390
    1UNL     H3   67  -0.333  -0.093  -0.349
    1UNL     H4   68  -0.206   0.132  -0.178
    1UNL     H5   69  -0.240  -0.017   0.023
    1UNL     H6   70  -0.522  -0.067  -0.029
    1UNL     H7   71  -0.536   0.284  -0.007
    1UNL     H8   72  -0.830   0.280  -0.006
    1UNL     H9   73  -0.718   0.322  -0.136
    1UNL    H10   74  -0.794   0.520  -0.026
    1UNL    H11   75  -0.673   0.332   0.227
    1UNL    H12   76  -0.454   0.384   0.175
    1UNL    H13   77  -0.733   0.068   0.218
    1UNL    H14   78  -0.553   0.169   0.426
    1UNL    H15   79  -0.434   0.023   0.224
    1UNL    H16   80  -0.570  -0.137   0.297
    1UNL    H17   81  -0.289  -0.338  -0.069
    1UNL    H18   82   0.058  -0.527  -0.249
    1UNL    H19   83  -0.048  -0.614  -0.138
    1UNL    H20   84   0.081  -0.523  -0.057
    1UNL    H21   85  -0.031  -0.030  -0.123
    1UNL    H22   86   0.042  -0.118  -0.339
    1UNL    H23   87  -0.109  -0.069  -0.415
    1UNL    H24   88   0.104   0.096  -0.411
    1UNL    H25   89  -0.058   0.159  -0.397
    1UNL    H26   90   0.088   0.366  -0.208
    1UNL    H27   91  -0.075   0.318  -0.245
    1UNL    H28   92   0.010   0.387   0.021
    1UNL    H29   93  -0.137   0.298  -0.028
    1UNL    H30   94   0.164  -0.103   0.094
    1UNL    H31   95  -0.019  -0.169   0.311
    1UNL    H32   96  -0.193  -0.079   0.439
    1UNL    H33   97  -0.284   0.140   0.405
    1UNL    H34   98  -0.171   0.285   0.228
    1UNL    H35   99   0.255   0.168  -0.104
    1UNL    H36  100   0.245  -0.026  -0.295
    1UNL    H37  101   0.186  -0.118  -0.162
    1UNL    H38  102   0.432   0.062  -0.136
    1UNL    H39  103   0.319  -0.080  -0.600
    1UNL    H40  104   0.298   0.103  -0.590
    1UNL    H41  105   0.462   0.018  -0.608
    1UNL    H42  106   0.655  -0.224  -0.294
    1UNL    H43  107   0.588   0.001   0.015
    1UNL    H44  108   0.562  -0.129   0.339
    1UNL    H45  109   0.206  -0.121   0.350
    1UNL    H46  110   0.305  -0.329   0.427
    1UNL    H47  111   0.441  -0.246   0.509
    1UNL    H48  112   0.225  -0.132   0.587
    1UNL    H49  113   0.414   0.017   0.516
    1UNL    H50  114   0.156   0.075   0.454
    1UNL    H51  115   0.431   0.205   0.412
    1UNL    H52  116   0.217   0.111   0.226
    1UNL    H53  117   0.590   0.105   0.255
    1UNL    H54  118   0.416   0.205   0.121
    1UNL    H55  119   0.358  -0.064   0.064
    1UNL    H56  120   0.402  -0.315   0.067
    1UNL    H57  121   0.289  -0.429  -0.106
    1UNL    H58  122   0.307  -0.291  -0.224
   0.00000   0.00000   0.00000   0.00000   0.00000   0.00000   0.00000   0.00000   0.00000
Generated with MDTraj, t= 25.0
 122
    1UNL     C1    1  -0.448   0.065  -0.299
    1UNL     C2    2  -0.337   0.001  -0.295
    1UNL     C3    3  -0.234   0.016  -0.184
    1UNL     C4    4  -0.307   0.003  -0.045
    1UNL     O1    5  -0.413   0.091  -0.037
    1UNL     C5    6  -0.545   0.038   0.012
    1UNL     O2    7  -0.653   0.121  -0.036
    1UNL     C6    8  -0.633   0.252   0.024
    1UNL     C7    9  -0.759   0.339  -0.024
    1UNL     O3   10  -0.727   0.467   0.014
    1UNL     C8   11  -0.615   0.248   0.182
    1UNL     O4   12  -0.490   0.301   0.211
    1UNL     C9   13  -0.631   0.108   0.243
    1UNL     O5   14  -0.595   0.105   0.383
    1UNL    C10   15  -0.544   0.008   0.165
    1UNL     O6   16  -0.580  -0.127   0.187
    1UNL     O7   17  -0.341  -0.136  -0.022
    1UNL    C11   18  -0.244  -0.222  -0.057
    1UNL    C12   19  -0.141  -0.205  -0.141
    1UNL    C13   20  -0.041  -0.316  -0.159
    1UNL     O8   21   0.068  -0.297  -0.219
    1UNL     O9   22  -0.084  -0.439  -0.118
    1UNL    C14   23   0.010  -0.547  -0.141
    1UNL    C15   24  -0.107  -0.062  -0.184
    1UNL    C16   25  -0.038  -0.044  -0.321
    1UNL    C17   26   0.012   0.103  -0.336
    1UNL     N1   27   0.072   0.163  -0.213
    1UNL    C18   28   0.040   0.302  -0.167
    1UNL    C19   29   0.011   0.310  -0.020
    1UNL    C20   30   0.021   0.177   0.050
    1UNL    C21   31   0.120   0.083   0.009
    1UNL     N2   32   0.101  -0.034   0.084
    1UNL    C22   33   0.001  -0.010   0.181
    1UNL    C23   34  -0.030  -0.087   0.294
    1UNL    C24   35  -0.130  -0.038   0.373
    1UNL    C25   36  -0.174   0.093   0.352
    1UNL    C26   37  -0.132   0.176   0.255
    1UNL    C27   38  -0.052   0.116   0.161
    1UNL    C28   39   0.183   0.093  -0.132
    1UNL    C29   40   0.237  -0.029  -0.197
    1UNL    C30   41   0.386  -0.040  -0.156
    1UNL    C31   42   0.491  -0.084  -0.257
    1UNL    C32   43   0.470  -0.062  -0.399
    1UNL    O10   44   0.544  -0.117  -0.479
    1UNL    O11   45   0.363   0.017  -0.438
    1UNL    C33   46   0.362   0.028  -0.572
    1UNL    C34   47   0.600  -0.154  -0.215
    1UNL    O12   48   0.628  -0.196  -0.087
    1UNL    C35   49   0.547  -0.125   0.011
    1UNL    O13   50   0.573  -0.161   0.144
    1UNL    C36   51   0.494  -0.091   0.241
    1UNL    O14   52   0.365  -0.149   0.249
    1UNL    C37   53   0.297  -0.122   0.372
    1UNL    C38   54   0.305  -0.245   0.470
    1UNL    O15   55   0.226  -0.215   0.585
    1UNL    C39   56   0.327   0.017   0.431
    1UNL    O16   57   0.213   0.058   0.505
    1UNL    C40   58   0.378   0.125   0.326
    1UNL    O17   59   0.269   0.169   0.241
    1UNL    C41   60   0.491   0.070   0.236
    1UNL    O18   61   0.489   0.114   0.108
    1UNL    C42   62   0.399  -0.123  -0.026
    1UNL    C43   63   0.341  -0.259  -0.021
    1UNL    C44   64   0.352  -0.344  -0.121
    1UNL     H1   65  -0.479   0.116  -0.211
    1UNL     H2   66  -0.508   0.057  -0.386
    1UNL     H3   67  -0.324  -0.075  -0.364
    1UNL     H4   68  -0.204   0.127  -0.188
    1UNL     H5   69  -0.239   0.036   0.035
    1UNL     H6   70  -0.551  -0.065  -0.047
    1UNL     H7   71  -0.547   0.289  -0.021
    1UNL     H8   72  -0.849   0.298   0.026
    1UNL     H9   73  -0.771   0.330  -0.132
    1UNL    H10   74  -0.791   0.535  -0.015
    1UNL    H11   75  -0.692   0.309   0.230
    1UNL    H12   76  -0.482   0.392   0.180
    1UNL    H13   77  -0.737   0.079   0.230
    1UNL    H14   78  -0.529   0.178   0.385
    1UNL    H15   79  -0.441   0.016   0.198
    1UNL    H16   80  -0.588  -0.135   0.278
    1UNL    H17   81  -0.263  -0.321  -0.026
    1UNL    H18   82   0.020  -0.564  -0.249
    1UNL    H19   83  -0.044  -0.629  -0.099
    1UNL    H20   84   0.100  -0.519  -0.090
    1UNL    H21   85  -0.034  -0.016  -0.113
    1UNL    H22   86   0.045  -0.116  -0.317
    1UNL    H23   87  -0.099  -0.083  -0.413
    1UNL    H24   88   0.079   0.103  -0.421
    1UNL    H25   89  -0.075   0.169  -0.366
    1UNL    H26   90   0.116   0.371  -0.196
    1UNL    H27   91  -0.054   0.320  -0.227
    1UNL    H28   92   0.086   0.372   0.032
    1UNL    H29   93  -0.089   0.336   0.005
    1UNL    H30   94   0.145  -0.126   0.063
    1UNL    H31   95   0.000  -0.187   0.305
    1UNL    H32   96  -0.171  -0.087   0.463
    1UNL    H33   97  -0.258   0.125   0.409
    1UNL    H34   98  -0.171   0.277   0.241
    1UNL    H35   99   0.261   0.171  -0.116
    1UNL    H36  100   0.225  -0.009  -0.300
    1UNL    H37  101   0.187  -0.117  -0.174
    1UNL    H38  102   0.418   0.060  -0.124
    1UNL    H39  103   0.319  -0.060  -0.616
    1UNL    H40  104   0.304   0.116  -0.592
    1UNL    H41  105   0.463   0.031  -0.612
    1UNL    H42  106   0.659  -0.184  -0.305
    1UNL    H43  107   0.583  -0.022  -0.005
    1UNL    H44  108   0.545  -0.113   0.333
    1UNL    H45  109   0.193  -0.126   0.340
    1UNL    H46  110   0.262  -0.332   0.431
    1UNL    H47  111   0.407  -0.269   0.497
    1UNL    H48  112   0.222  -0.124   0.615
    1UNL    H49  113   0.403   0.012   0.506
    1UNL    H50  114   0.137   0.063   0.440
    1UNL    H51  115   0.395   0.223   0.389
    1UNL    H52  116   0.217   0.092   0.200
    1UNL    H53  117   0.575   0.117   0.279
    1UNL    H54  118   0.435   0.202   0.107
    1UNL    H55  119   0.348  -0.072   0.059
    1UNL    H56  120   0.310  -0.291   0.076
    1UNL    H57  121   0.323  -0.446  -0.126
    1UNL    H58  122   0.381  -0.298  -0.216
   0.00000   0.00000   0.00000   0.00000   0.00000   0.00000   0.00000   0.00000   0.00000
Generated with MDTraj, t= 26.0
 122
    1UNL     C1    1  -0.437   0.034  -0.339
    1UNL     C2    2  -0.350  -0.042  -0.274
    1UNL     C3    3  -0.256   0.019  -0.178
    1UNL     C4    4  -0.320   0.013  -0.034
    1UNL     O1    5  -0.420   0.103  -0.029
    1UNL     C5    6  -0.545   0.042   0.004
    1UNL     O2    7  -0.655   0.118  -0.038
    1UNL     C6    8  -0.632   0.247   0.027
    1UNL     C7    9  -0.751   0.335  -0.012
    1UNL     O3   10  -0.722   0.468   0.021
    1UNL     C8   11  -0.623   0.246   0.180
    1UNL     O4   12  -0.511   0.326   0.216
    1UNL     C9   13  -0.625   0.105   0.243
    1UNL     O5   14  -0.564   0.103   0.375
    1UNL    C10   15  -0.548  -0.001   0.158
    1UNL     O6   16  -0.604  -0.127   0.185
    1UNL     O7   17  -0.345  -0.124   0.005
    1UNL    C11   18  -0.259  -0.215  -0.045
    1UNL    C12   19  -0.144  -0.191  -0.117
    1UNL    C13   20  -0.050  -0.298  -0.138
    1UNL     O8   21   0.060  -0.268  -0.183
    1UNL     O9   22  -0.094  -0.427  -0.119
    1UNL    C14   23   0.006  -0.526  -0.148
    1UNL    C15   24  -0.124  -0.050  -0.175
    1UNL    C16   25  -0.050  -0.055  -0.312
    1UNL    C17   26   0.010   0.090  -0.338
    1UNL     N1   27   0.061   0.150  -0.215
    1UNL    C18   28   0.009   0.285  -0.175
    1UNL    C19   29  -0.015   0.292  -0.021
    1UNL    C20   30   0.038   0.172   0.057
    1UNL    C21   31   0.122   0.078  -0.001
    1UNL     N2   32   0.104  -0.042   0.065
    1UNL    C22   33   0.014  -0.022   0.170
    1UNL    C23   34  -0.050  -0.111   0.256
    1UNL    C24   35  -0.128  -0.055   0.366
    1UNL    C25   36  -0.161   0.076   0.370
    1UNL    C26   37  -0.108   0.160   0.275
    1UNL    C27   38  -0.025   0.113   0.173
    1UNL    C28   39   0.178   0.094  -0.138
    1UNL    C29   40   0.254  -0.024  -0.197
    1UNL    C30   41   0.402  -0.041  -0.158
    1UNL    C31   42   0.495  -0.095  -0.263
    1UNL    C32   43   0.481  -0.061  -0.408
    1UNL    O10   44   0.568  -0.097  -0.486
    1UNL    O11   45   0.373   0.016  -0.445
    1UNL    C33   46   0.384   0.047  -0.580
    1UNL    C34   47   0.604  -0.163  -0.219
    1UNL    O12   48   0.625  -0.199  -0.085
    1UNL    C35   49   0.554  -0.122   0.010
    1UNL    O13   50   0.574  -0.173   0.141
    1UNL    C36   51   0.495  -0.107   0.239
    1UNL    O14   52   0.350  -0.129   0.235
    1UNL    C37   53   0.285  -0.105   0.362
    1UNL    C38   54   0.262  -0.233   0.448
    1UNL    O15   55   0.176  -0.205   0.563
    1UNL    C39   56   0.327   0.023   0.436
    1UNL    O16   57   0.213   0.086   0.492
    1UNL    C40   58   0.391   0.122   0.332
    1UNL    O17   59   0.290   0.181   0.249
    1UNL    C41   60   0.508   0.050   0.253
    1UNL    O18   61   0.523   0.109   0.125
    1UNL    C42   62   0.412  -0.116  -0.025
    1UNL    C43   63   0.357  -0.265  -0.022
    1UNL    C44   64   0.381  -0.352  -0.120
    1UNL     H1   65  -0.457   0.132  -0.299
    1UNL     H2   66  -0.527  -0.005  -0.392
    1UNL     H3   67  -0.353  -0.154  -0.275
    1UNL     H4   68  -0.237   0.129  -0.211
    1UNL     H5   69  -0.244   0.049   0.040
    1UNL     H6   70  -0.549  -0.060  -0.056
    1UNL     H7   71  -0.540   0.278  -0.013
    1UNL     H8   72  -0.848   0.305   0.035
    1UNL     H9   73  -0.762   0.334  -0.120
    1UNL    H10   74  -0.799   0.530   0.018
    1UNL    H11   75  -0.711   0.297   0.211
    1UNL    H12   76  -0.521   0.409   0.173
    1UNL    H13   77  -0.731   0.075   0.267
    1UNL    H14   78  -0.514   0.187   0.370
    1UNL    H15   79  -0.448  -0.015   0.197
    1UNL    H16   80  -0.606  -0.136   0.279
    1UNL    H17   81  -0.280  -0.314  -0.016
    1UNL    H18   82   0.042  -0.500  -0.249
    1UNL    H19   83  -0.052  -0.617  -0.144
    1UNL    H20   84   0.085  -0.512  -0.078
    1UNL    H21   85  -0.065   0.001  -0.106
    1UNL    H22   86   0.033  -0.124  -0.331
    1UNL    H23   87  -0.127  -0.084  -0.395
    1UNL    H24   88   0.089   0.086  -0.416
    1UNL    H25   89  -0.077   0.145  -0.378
    1UNL    H26   90   0.077   0.356  -0.217
    1UNL    H27   91  -0.096   0.293  -0.215
    1UNL    H28   92   0.029   0.379   0.032
    1UNL    H29   93  -0.119   0.283  -0.007
    1UNL    H30   94   0.130  -0.138   0.032
    1UNL    H31   95  -0.024  -0.218   0.267
    1UNL    H32   96  -0.184  -0.124   0.426
    1UNL    H33   97  -0.230   0.125   0.441
    1UNL    H34   98  -0.127   0.269   0.286
    1UNL    H35   99   0.243   0.184  -0.125
    1UNL    H36  100   0.235  -0.012  -0.298
    1UNL    H37  101   0.197  -0.106  -0.171
    1UNL    H38  102   0.443   0.059  -0.152
    1UNL    H39  103   0.426  -0.039  -0.632
    1UNL    H40  104   0.290   0.074  -0.625
    1UNL    H41  105   0.459   0.122  -0.604
    1UNL    H42  106   0.677  -0.170  -0.289
    1UNL    H43  107   0.598  -0.025  -0.016
    1UNL    H44  108   0.537  -0.151   0.328
    1UNL    H45  109   0.185  -0.087   0.319
    1UNL    H46  110   0.232  -0.317   0.389
    1UNL    H47  111   0.363  -0.261   0.484
    1UNL    H48  112   0.164  -0.106   0.578
    1UNL    H49  113   0.394   0.004   0.519
    1UNL    H50  114   0.170   0.135   0.418
    1UNL    H51  115   0.436   0.216   0.381
    1UNL    H52  116   0.255   0.111   0.196
    1UNL    H53  117   0.606   0.076   0.283
    1UNL    H54  118   0.514   0.201   0.130
    1UNL    H55  119   0.356  -0.054   0.045
    1UNL    H56  120   0.297  -0.293   0.064
    1UNL    H57  121   0.361  -0.460  -0.111
    1UNL    H58  122   0.419  -0.322  -0.212
   0.00000   0.00000   0.00000   0.00000   0.00000   0.00000   0.00000   0.00000   0.00000
Generated with MDTraj, t= 27.0
 122
    1UNL     C1    1  -0.452   0.012  -0.357
    1UNL     C2    2  -0.376  -0.060  -0.273
    1UNL     C3    3  -0.272   0.008  -0.179
    1UNL     C4    4  -0.332   0.016  -0.031
    1UNL     O1    5  -0.440   0.100  -0.024
    1UNL     C5    6  -0.561   0.042   0.011
    1UNL     O2    7  -0.669   0.124  -0.024
    1UNL     C6    8  -0.651   0.251   0.040
    1UNL     C7    9  -0.752   0.354  -0.015
    1UNL     O3   10  -0.731   0.489   0.036
    1UNL     C8   11  -0.640   0.250   0.195
    1UNL     O4   12  -0.523   0.327   0.229
    1UNL     C9   13  -0.623   0.108   0.254
    1UNL     O5   14  -0.546   0.109   0.377
    1UNL    C10   15  -0.560   0.001   0.159
    1UNL     O6   16  -0.617  -0.126   0.180
    1UNL     O7   17  -0.349  -0.113   0.019
    1UNL    C11   18  -0.260  -0.214  -0.028
    1UNL    C12   19  -0.148  -0.194  -0.107
    1UNL    C13   20  -0.047  -0.299  -0.117
    1UNL     O8   21   0.071  -0.264  -0.132
    1UNL     O9   22  -0.093  -0.431  -0.113
    1UNL    C14   23   0.007  -0.527  -0.138
    1UNL    C15   24  -0.140  -0.056  -0.171
    1UNL    C16   25  -0.058  -0.051  -0.306
    1UNL    C17   26  -0.009   0.086  -0.343
    1UNL     N1   27   0.063   0.150  -0.233
    1UNL    C18   28   0.007   0.284  -0.184
    1UNL    C19   29  -0.005   0.291  -0.025
    1UNL    C20   30   0.045   0.172   0.047
    1UNL    C21   31   0.118   0.072  -0.010
    1UNL     N2   32   0.112  -0.042   0.054
    1UNL    C22   33   0.035  -0.031   0.169
    1UNL    C23   34  -0.025  -0.129   0.248
    1UNL    C24   35  -0.120  -0.082   0.339
    1UNL    C25   36  -0.169   0.049   0.337
    1UNL    C26   37  -0.124   0.143   0.242
    1UNL    C27   38  -0.015   0.107   0.162
    1UNL    C28   39   0.172   0.096  -0.151
    1UNL    C29   40   0.252  -0.014  -0.211
    1UNL    C30   41   0.396  -0.031  -0.151
    1UNL    C31   42   0.497  -0.088  -0.257
    1UNL    C32   43   0.501  -0.051  -0.397
    1UNL    O10   44   0.589  -0.099  -0.470
    1UNL    O11   45   0.397   0.027  -0.446
    1UNL    C33   46   0.424   0.044  -0.578
    1UNL    C34   47   0.609  -0.152  -0.216
    1UNL    O12   48   0.644  -0.187  -0.083
    1UNL    C35   49   0.560  -0.123   0.017
    1UNL    O13   50   0.581  -0.173   0.153
    1UNL    C36   51   0.503  -0.112   0.251
    1UNL    O14   52   0.358  -0.146   0.235
    1UNL    C37   53   0.279  -0.099   0.345
    1UNL    C38   54   0.242  -0.218   0.436
    1UNL    O15   55   0.137  -0.180   0.516
    1UNL    C39   56   0.340   0.012   0.427
    1UNL    O16   57   0.234   0.082   0.490
    1UNL    C40   58   0.400   0.115   0.328
    1UNL    O17   59   0.299   0.159   0.242
    1UNL    C41   60   0.525   0.044   0.257
    1UNL    O18   61   0.542   0.109   0.130
    1UNL    C42   62   0.410  -0.114  -0.024
    1UNL    C43   63   0.339  -0.248  -0.029
    1UNL    C44   64   0.367  -0.337  -0.125
    1UNL     H1   65  -0.453   0.119  -0.361
    1UNL     H2   66  -0.520  -0.030  -0.425
    1UNL     H3   67  -0.377  -0.162  -0.256
    1UNL     H4   68  -0.270   0.120  -0.217
    1UNL     H5   69  -0.259   0.057   0.046
    1UNL     H6   70  -0.564  -0.050  -0.064
    1UNL     H7   71  -0.551   0.279   0.018
    1UNL     H8   72  -0.854   0.330   0.022
    1UNL     H9   73  -0.760   0.357  -0.123
    1UNL    H10   74  -0.811   0.546   0.016
    1UNL    H11   75  -0.717   0.310   0.232
    1UNL    H12   76  -0.523   0.410   0.177
    1UNL    H13   77  -0.724   0.070   0.290
    1UNL    H14   78  -0.499   0.195   0.371
    1UNL    H15   79  -0.456  -0.017   0.184
    1UNL    H16   80  -0.608  -0.153   0.274
    1UNL    H17   81  -0.264  -0.309   0.033
    1UNL    H18   82   0.052  -0.490  -0.235
    1UNL    H19   83  -0.052  -0.619  -0.139
    1UNL    H20   84   0.083  -0.516  -0.063
    1UNL    H21   85  -0.079  -0.002  -0.097
    1UNL    H22   86   0.022  -0.130  -0.304
    1UNL    H23   87  -0.116  -0.093  -0.398
    1UNL    H24   88   0.061   0.081  -0.435
    1UNL    H25   89  -0.100   0.140  -0.372
    1UNL    H26   90   0.072   0.364  -0.217
    1UNL    H27   91  -0.091   0.296  -0.235
    1UNL    H28   92   0.049   0.381   0.011
    1UNL    H29   93  -0.105   0.300   0.002
    1UNL    H30   94   0.121  -0.135   0.004
    1UNL    H31   95   0.011  -0.229   0.257
    1UNL    H32   96  -0.164  -0.154   0.408
    1UNL    H33   97  -0.251   0.073   0.399
    1UNL    H34   98  -0.156   0.242   0.247
    1UNL    H35   99   0.235   0.187  -0.140
    1UNL    H36  100   0.258   0.009  -0.317
    1UNL    H37  101   0.197  -0.106  -0.197
    1UNL    H38  102   0.441   0.064  -0.130
    1UNL    H39  103   0.445  -0.056  -0.621
    1UNL    H40  104   0.344   0.092  -0.636
    1UNL    H41  105   0.520   0.097  -0.596
    1UNL    H42  106   0.681  -0.188  -0.290
    1UNL    H43  107   0.610  -0.023   0.017
    1UNL    H44  108   0.529  -0.159   0.345
    1UNL    H45  109   0.189  -0.062   0.290
    1UNL    H46  110   0.223  -0.306   0.374
    1UNL    H47  111   0.327  -0.256   0.501
    1UNL    H48  112   0.154  -0.088   0.541
    1UNL    H49  113   0.397  -0.026   0.514
    1UNL    H50  114   0.205   0.162   0.446
    1UNL    H51  115   0.428   0.201   0.395
    1UNL    H52  116   0.261   0.080   0.199
    1UNL    H53  117   0.610   0.075   0.315
    1UNL    H54  118   0.547   0.207   0.153
    1UNL    H55  119   0.374  -0.058   0.061
    1UNL    H56  120   0.265  -0.267   0.046
    1UNL    H57  121   0.314  -0.432  -0.142
    1UNL    H58  122   0.426  -0.310  -0.208
   0.00000   0.00000   0.00000   0.00000   0.00000   0.00000   0.00000   0.00000   0.00000
Generated with MDTraj, t= 28.0
 122
    1UNL     C1    1  -0.455  -0.011  -0.337
    1UNL     C2    2  -0.348  -0.062  -0.282
    1UNL     C3    3  -0.266   0.006  -0.178
    1UNL     C4    4  -0.348   0.010  -0.037
    1UNL     O1    5  -0.458   0.098  -0.045
    1UNL     C5    6  -0.578   0.046   0.014
    1UNL     O2    7  -0.698   0.131  -0.003
    1UNL     C6    8  -0.665   0.260   0.049
    1UNL     C7    9  -0.766   0.369   0.007
    1UNL     O3   10  -0.721   0.492   0.058
    1UNL     C8   11  -0.644   0.256   0.202
    1UNL     O4   12  -0.531   0.326   0.233
    1UNL     C9   13  -0.630   0.112   0.268
    1UNL     O5   14  -0.560   0.116   0.395
    1UNL    C10   15  -0.562   0.013   0.170
    1UNL     O6   16  -0.619  -0.121   0.181
    1UNL     O7   17  -0.369  -0.121   0.008
    1UNL    C11   18  -0.262  -0.212  -0.014
    1UNL    C12   19  -0.154  -0.189  -0.088
    1UNL    C13   20  -0.049  -0.299  -0.098
    1UNL     O8   21   0.067  -0.265  -0.131
    1UNL     O9   22  -0.097  -0.425  -0.086
    1UNL    C14   23   0.003  -0.525  -0.100
    1UNL    C15   24  -0.136  -0.055  -0.149
    1UNL    C16   25  -0.043  -0.066  -0.276
    1UNL    C17   26   0.007   0.060  -0.332
    1UNL     N1   27   0.084   0.159  -0.249
    1UNL    C18   28   0.006   0.277  -0.199
    1UNL    C19   29   0.003   0.285  -0.045
    1UNL    C20   30   0.037   0.167   0.031
    1UNL    C21   31   0.133   0.077  -0.017
    1UNL     N2   32   0.127  -0.042   0.060
    1UNL    C22   33   0.022  -0.032   0.141
    1UNL    C23   34  -0.041  -0.134   0.221
    1UNL    C24   35  -0.140  -0.101   0.308
    1UNL    C25   36  -0.192   0.033   0.302
    1UNL    C26   37  -0.141   0.127   0.220
    1UNL    C27   38  -0.026   0.099   0.136
    1UNL    C28   39   0.192   0.107  -0.156
    1UNL    C29   40   0.275  -0.006  -0.223
    1UNL    C30   41   0.415  -0.023  -0.162
    1UNL    C31   42   0.516  -0.086  -0.267
    1UNL    C32   43   0.525  -0.044  -0.407
    1UNL    O10   44   0.600  -0.099  -0.488
    1UNL    O11   45   0.437   0.052  -0.450
    1UNL    C33   46   0.437   0.056  -0.584
    1UNL    C34   47   0.609  -0.174  -0.217
    1UNL    O12   48   0.645  -0.202  -0.086
    1UNL    C35   49   0.572  -0.122   0.016
    1UNL    O13   50   0.585  -0.165   0.152
    1UNL    C36   51   0.502  -0.105   0.250
    1UNL    O14   52   0.361  -0.147   0.228
    1UNL    C37   53   0.272  -0.101   0.341
    1UNL    C38   54   0.243  -0.216   0.444
    1UNL    O15   55   0.126  -0.192   0.516
    1UNL    C39   56   0.325   0.016   0.427
    1UNL    O16   57   0.230   0.078   0.507
    1UNL    C40   58   0.399   0.116   0.336
    1UNL    O17   59   0.310   0.168   0.247
    1UNL    C41   60   0.524   0.046   0.262
    1UNL    O18   61   0.542   0.103   0.133
    1UNL    C42   62   0.423  -0.104  -0.028
    1UNL    C43   63   0.358  -0.241  -0.034
    1UNL    C44   64   0.351  -0.320  -0.139
    1UNL     H1   65  -0.481   0.096  -0.331
    1UNL     H2   66  -0.510  -0.064  -0.410
    1UNL     H3   67  -0.320  -0.166  -0.308
    1UNL     H4   68  -0.247   0.118  -0.207
    1UNL     H5   69  -0.278   0.040   0.049
    1UNL     H6   70  -0.591  -0.050  -0.056
    1UNL     H7   71  -0.569   0.289   0.011
    1UNL     H8   72  -0.868   0.351   0.047
    1UNL     H9   73  -0.778   0.373  -0.100
    1UNL    H10   74  -0.789   0.560   0.044
    1UNL    H11   75  -0.721   0.315   0.242
    1UNL    H12   76  -0.539   0.422   0.196
    1UNL    H13   77  -0.734   0.067   0.293
    1UNL    H14   78  -0.506   0.198   0.394
    1UNL    H15   79  -0.459   0.003   0.204
    1UNL    H16   80  -0.609  -0.153   0.278
    1UNL    H17   81  -0.276  -0.318   0.018
    1UNL    H18   82   0.056  -0.496  -0.196
    1UNL    H19   83  -0.059  -0.617  -0.097
    1UNL    H20   84   0.074  -0.513  -0.020
    1UNL    H21   85  -0.077   0.008  -0.071
    1UNL    H22   86   0.038  -0.145  -0.272
    1UNL    H23   87  -0.114  -0.131  -0.340
    1UNL    H24   88   0.062   0.035  -0.434
    1UNL    H25   89  -0.079   0.116  -0.367
    1UNL    H26   90   0.062   0.365  -0.235
    1UNL    H27   91  -0.094   0.276  -0.244
    1UNL    H28   92   0.074   0.366  -0.016
    1UNL    H29   93  -0.091   0.316  -0.017
    1UNL    H30   94   0.129  -0.133   0.009
    1UNL    H31   95  -0.011  -0.238   0.206
    1UNL    H32   96  -0.160  -0.168   0.390
    1UNL    H33   97  -0.283   0.047   0.363
    1UNL    H34   98  -0.193   0.224   0.201
    1UNL    H35   99   0.256   0.195  -0.138
    1UNL    H36  100   0.296   0.019  -0.329
    1UNL    H37  101   0.230  -0.109  -0.209
    1UNL    H38  102   0.456   0.075  -0.149
    1UNL    H39  103   0.373  -0.026  -0.623
    1UNL    H40  104   0.396   0.155  -0.616
    1UNL    H41  105   0.536   0.041  -0.632
    1UNL    H42  106   0.697  -0.220  -0.280
    1UNL    H43  107   0.637  -0.032   0.012
    1UNL    H44  108   0.527  -0.160   0.341
    1UNL    H45  109   0.178  -0.075   0.287
    1UNL    H46  110   0.228  -0.320   0.406
    1UNL    H47  111   0.330  -0.238   0.517
    1UNL    H48  112   0.125  -0.094   0.546
    1UNL    H49  113   0.399  -0.041   0.491
    1UNL    H50  114   0.189   0.156   0.461
    1UNL    H51  115   0.443   0.201   0.388
    1UNL    H52  116   0.259   0.090   0.204
    1UNL    H53  117   0.627   0.067   0.301
    1UNL    H54  118   0.450   0.139   0.102
    1UNL    H55  119   0.372  -0.054   0.051
    1UNL    H56  120   0.335  -0.285   0.063
    1UNL    H57  121   0.312  -0.416  -0.150
    1UNL    H58  122   0.384  -0.264  -0.228
   0.00000   0.00000   0.00000   0.00000   0.00000   0.00000   0.00000   0.00000   0.00000
Generated with MDTraj, t= 29.0
 122
    1UNL     C1    1  -0.480  -0.013  -0.314
    1UNL     C2    2  -0.355  -0.046  -0.293
    1UNL     C3    3  -0.273   0.012  -0.186
    1UNL     C4    4  -0.363  -0.001  -0.055
    1UNL     O1    5  -0.468   0.089  -0.061
    1UNL     C5    6  -0.581   0.046   0.012
    1UNL     O2    7  -0.693   0.131  -0.005
    1UNL     C6    8  -0.654   0.259   0.052
    1UNL     C7    9  -0.759   0.369   0.013
    1UNL     O3   10  -0.724   0.494   0.070
    1UNL     C8   11  -0.629   0.258   0.207
    1UNL     O4   12  -0.511   0.323   0.248
    1UNL     C9   13  -0.623   0.106   0.258
    1UNL     O5   14  -0.581   0.105   0.393
    1UNL    C10   15  -0.549   0.021   0.164
    1UNL     O6   16  -0.583  -0.116   0.202
    1UNL     O7   17  -0.396  -0.139  -0.034
    1UNL    C11   18  -0.289  -0.225  -0.036
    1UNL    C12   19  -0.168  -0.196  -0.086
    1UNL    C13   20  -0.060  -0.295  -0.067
    1UNL     O8   21   0.057  -0.266  -0.100
    1UNL     O9   22  -0.111  -0.416  -0.025
    1UNL    C14   23  -0.018  -0.522  -0.037
    1UNL    C15   24  -0.145  -0.062  -0.156
    1UNL    C16   25  -0.050  -0.077  -0.280
    1UNL    C17   26   0.003   0.062  -0.329
    1UNL     N1   27   0.087   0.149  -0.239
    1UNL    C18   28   0.025   0.279  -0.193
    1UNL    C19   29   0.003   0.289  -0.037
    1UNL    C20   30   0.054   0.169   0.036
    1UNL    C21   31   0.150   0.085  -0.018
    1UNL     N2   32   0.141  -0.036   0.046
    1UNL    C22   33   0.029  -0.032   0.137
    1UNL    C23   34  -0.049  -0.128   0.207
    1UNL    C24   35  -0.161  -0.100   0.277
    1UNL    C25   36  -0.206   0.040   0.277
    1UNL    C26   37  -0.137   0.130   0.203
    1UNL    C27   38  -0.017   0.099   0.131
    1UNL    C28   39   0.201   0.108  -0.160
    1UNL    C29   40   0.290  -0.001  -0.225
    1UNL    C30   41   0.425  -0.022  -0.160
    1UNL    C31   42   0.531  -0.083  -0.255
    1UNL    C32   43   0.525  -0.049  -0.398
    1UNL    O10   44   0.585  -0.122  -0.477
    1UNL    O11   45   0.446   0.055  -0.439
    1UNL    C33   46   0.477   0.087  -0.575
    1UNL    C34   47   0.637  -0.148  -0.199
    1UNL    O12   48   0.652  -0.182  -0.074
    1UNL    C35   49   0.567  -0.120   0.023
    1UNL    O13   50   0.582  -0.165   0.150
    1UNL    C36   51   0.488  -0.109   0.238
    1UNL    O14   52   0.349  -0.127   0.217
    1UNL    C37   53   0.264  -0.109   0.335
    1UNL    C38   54   0.248  -0.235   0.418
    1UNL    O15   55   0.169  -0.221   0.544
    1UNL    C39   56   0.318   0.004   0.418
    1UNL    O16   57   0.218   0.071   0.497
    1UNL    C40   58   0.397   0.105   0.319
    1UNL    O17   59   0.306   0.172   0.235
    1UNL    C41   60   0.511   0.044   0.237
    1UNL    O18   61   0.518   0.109   0.116
    1UNL    C42   62   0.423  -0.105  -0.036
    1UNL    C43   63   0.364  -0.245  -0.048
    1UNL    C44   64   0.349  -0.311  -0.161
    1UNL     H1   65  -0.519   0.070  -0.264
    1UNL     H2   66  -0.539  -0.067  -0.386
    1UNL     H3   67  -0.311  -0.121  -0.351
    1UNL     H4   68  -0.260   0.127  -0.197
    1UNL     H5   69  -0.296   0.020   0.036
    1UNL     H6   70  -0.608  -0.058  -0.039
    1UNL     H7   71  -0.561   0.288   0.001
    1UNL     H8   72  -0.857   0.333   0.049
    1UNL     H9   73  -0.766   0.375  -0.094
    1UNL    H10   74  -0.795   0.560   0.068
    1UNL    H11   75  -0.711   0.302   0.258
    1UNL    H12   76  -0.513   0.422   0.224
    1UNL    H13   77  -0.727   0.053   0.264
    1UNL    H14   78  -0.522   0.182   0.412
    1UNL    H15   79  -0.445   0.030   0.191
    1UNL    H16   80  -0.579  -0.120   0.307
    1UNL    H17   81  -0.302  -0.313   0.017
    1UNL    H18   82  -0.007  -0.541  -0.149
    1UNL    H19   83  -0.074  -0.598   0.020
    1UNL    H20   84   0.076  -0.491   0.008
    1UNL    H21   85  -0.084  -0.007  -0.083
    1UNL    H22   86   0.024  -0.153  -0.245
    1UNL    H23   87  -0.091  -0.125  -0.372
    1UNL    H24   88   0.069   0.044  -0.426
    1UNL    H25   89  -0.081   0.114  -0.371
    1UNL    H26   90   0.108   0.349  -0.221
    1UNL    H27   91  -0.060   0.305  -0.254
    1UNL    H28   92   0.061   0.376  -0.004
    1UNL    H29   93  -0.096   0.314  -0.014
    1UNL    H30   94   0.182  -0.122   0.016
    1UNL    H31   95  -0.015  -0.229   0.190
    1UNL    H32   96  -0.219  -0.171   0.338
    1UNL    H33   97  -0.280   0.068   0.352
    1UNL    H34   98  -0.194   0.210   0.159
    1UNL    H35   99   0.259   0.201  -0.158
    1UNL    H36  100   0.297   0.028  -0.335
    1UNL    H37  101   0.233  -0.102  -0.225
    1UNL    H38  102   0.462   0.076  -0.138
    1UNL    H39  103   0.466  -0.001  -0.639
    1UNL    H40  104   0.415   0.169  -0.615
    1UNL    H41  105   0.580   0.121  -0.586
    1UNL    H42  106   0.720  -0.174  -0.255
    1UNL    H43  107   0.629  -0.027   0.025
    1UNL    H44  108   0.510  -0.153   0.338
    1UNL    H45  109   0.165  -0.077   0.296
    1UNL    H46  110   0.216  -0.323   0.356
    1UNL    H47  111   0.349  -0.276   0.458
    1UNL    H48  112   0.173  -0.129   0.569
    1UNL    H49  113   0.387  -0.030   0.502
    1UNL    H50  114   0.164   0.138   0.445
    1UNL    H51  115   0.419   0.187   0.383
    1UNL    H52  116   0.257   0.104   0.176
    1UNL    H53  117   0.608   0.063   0.296
    1UNL    H54  118   0.526   0.200   0.134
    1UNL    H55  119   0.361  -0.049   0.027
    1UNL    H56  120   0.324  -0.295   0.038
    1UNL    H57  121   0.311  -0.410  -0.169
    1UNL    H58  122   0.403  -0.275  -0.250
   0.00000   0.00000   0.00000   0.00000   0.00000   0.00000   0.00000   0.00000   0.00000
Generated with MDTraj, t= 30.0
 122
    1UNL     C1    1  -0.468  -0.019  -0.338
    1UNL     C2    2  -0.335  -0.021  -0.315
    1UNL     C3    3  -0.265   0.013  -0.187
    1UNL     C4    4  -0.368  -0.007  -0.067
    1UNL     O1    5  -0.466   0.087  -0.063
    1UNL     C5    6  -0.578   0.047   0.019
    1UNL     O2    7  -0.691   0.132   0.002
    1UNL     C6    8  -0.659   0.264   0.060
    1UNL     C7    9  -0.762   0.377   0.032
    1UNL     O3   10  -0.714   0.503   0.074
    1UNL     C8   11  -0.627   0.254   0.210
    1UNL     O4   12  -0.500   0.308   0.245
    1UNL     C9   13  -0.629   0.101   0.258
    1UNL     O5   14  -0.587   0.099   0.388
    1UNL    C10   15  -0.537   0.031   0.169
    1UNL     O6   16  -0.537  -0.103   0.220
    1UNL     O7   17  -0.418  -0.143  -0.076
    1UNL    C11   18  -0.318  -0.231  -0.071
    1UNL    C12   19  -0.183  -0.213  -0.104
    1UNL    C13   20  -0.078  -0.303  -0.071
    1UNL     O8   21   0.037  -0.283  -0.110
    1UNL     O9   22  -0.117  -0.416   0.008
    1UNL    C14   23  -0.001  -0.485   0.059
    1UNL    C15   24  -0.143  -0.073  -0.160
    1UNL    C16   25  -0.042  -0.076  -0.278
    1UNL    C17   26  -0.002   0.070  -0.335
    1UNL     N1   27   0.090   0.160  -0.263
    1UNL    C18   28   0.020   0.283  -0.199
    1UNL    C19   29   0.015   0.294  -0.041
    1UNL    C20   30   0.041   0.161   0.021
    1UNL    C21   31   0.138   0.079  -0.030
    1UNL     N2   32   0.123  -0.043   0.041
    1UNL    C22   33   0.014  -0.024   0.134
    1UNL    C23   34  -0.046  -0.122   0.217
    1UNL    C24   35  -0.157  -0.083   0.293
    1UNL    C25   36  -0.197   0.054   0.298
    1UNL    C26   37  -0.139   0.146   0.213
    1UNL    C27   38  -0.034   0.106   0.128
    1UNL    C28   39   0.187   0.101  -0.169
    1UNL    C29   40   0.277  -0.007  -0.234
    1UNL    C30   41   0.417  -0.028  -0.172
    1UNL    C31   42   0.533  -0.078  -0.266
    1UNL    C32   43   0.540  -0.037  -0.405
    1UNL    O10   44   0.600  -0.111  -0.482
    1UNL    O11   45   0.474   0.074  -0.448
    1UNL    C33   46   0.494   0.093  -0.587
    1UNL    C34   47   0.630  -0.153  -0.213
    1UNL    O12   48   0.647  -0.199  -0.087
    1UNL    C35   49   0.564  -0.128   0.009
    1UNL    O13   50   0.582  -0.145   0.145
    1UNL    C36   51   0.482  -0.096   0.236
    1UNL    O14   52   0.351  -0.143   0.226
    1UNL    C37   53   0.283  -0.126   0.353
    1UNL    C38   54   0.282  -0.249   0.443
    1UNL    O15   55   0.189  -0.231   0.554
    1UNL    C39   56   0.314  -0.003   0.435
    1UNL    O16   57   0.195   0.048   0.487
    1UNL    C40   58   0.380   0.110   0.339
    1UNL    O17   59   0.275   0.143   0.253
    1UNL    C41   60   0.497   0.067   0.251
    1UNL    O18   61   0.505   0.125   0.124
    1UNL    C42   62   0.421  -0.117  -0.050
    1UNL    C43   63   0.366  -0.256  -0.054
    1UNL    C44   64   0.381  -0.327  -0.165
    1UNL     H1   65  -0.535   0.033  -0.273
    1UNL     H2   66  -0.509  -0.064  -0.429
    1UNL     H3   67  -0.265  -0.033  -0.399
    1UNL     H4   68  -0.235   0.124  -0.178
    1UNL     H5   69  -0.301  -0.008   0.026
    1UNL     H6   70  -0.605  -0.058  -0.027
    1UNL     H7   71  -0.567   0.294   0.001
    1UNL     H8   72  -0.858   0.347   0.081
    1UNL     H9   73  -0.774   0.377  -0.074
    1UNL    H10   74  -0.782   0.574   0.064
    1UNL    H11   75  -0.701   0.307   0.266
    1UNL    H12   76  -0.491   0.400   0.213
    1UNL    H13   77  -0.735   0.055   0.252
    1UNL    H14   78  -0.525   0.172   0.410
    1UNL    H15   79  -0.436   0.071   0.182
    1UNL    H16   80  -0.548  -0.104   0.324
    1UNL    H17   81  -0.352  -0.318  -0.015
    1UNL    H18   82   0.045  -0.548  -0.022
    1UNL    H19   83  -0.049  -0.544   0.138
    1UNL    H20   84   0.061  -0.414   0.107
    1UNL    H21   85  -0.088  -0.026  -0.088
    1UNL    H22   86   0.048  -0.129  -0.274
    1UNL    H23   87  -0.097  -0.134  -0.354
    1UNL    H24   88   0.053   0.052  -0.438
    1UNL    H25   89  -0.091   0.121  -0.365
    1UNL    H26   90   0.076   0.370  -0.244
    1UNL    H27   91  -0.074   0.295  -0.252
    1UNL    H28   92   0.079   0.372  -0.000
    1UNL    H29   93  -0.080   0.335  -0.008
    1UNL    H30   94   0.127  -0.130  -0.006
    1UNL    H31   95  -0.001  -0.219   0.217
    1UNL    H32   96  -0.200  -0.156   0.358
    1UNL    H33   97  -0.282   0.085   0.356
    1UNL    H34   98  -0.171   0.249   0.220
    1UNL    H35   99   0.259   0.181  -0.154
    1UNL    H36  100   0.291   0.023  -0.345
    1UNL    H37  101   0.220  -0.101  -0.238
    1UNL    H38  102   0.453   0.068  -0.139
    1UNL    H39  103   0.483   0.005  -0.649
    1UNL    H40  104   0.427   0.174  -0.613
    1UNL    H41  105   0.591   0.138  -0.600
    1UNL    H42  106   0.704  -0.173  -0.282
    1UNL    H43  107   0.613  -0.030  -0.008
    1UNL    H44  108   0.519  -0.144   0.331
    1UNL    H45  109   0.176  -0.117   0.319
    1UNL    H46  110   0.254  -0.341   0.387
    1UNL    H47  111   0.387  -0.267   0.487
    1UNL    H48  112   0.165  -0.133   0.554
    1UNL    H49  113   0.402  -0.019   0.509
    1UNL    H50  114   0.161   0.107   0.420
    1UNL    H51  115   0.403   0.200   0.387
    1UNL    H52  116   0.241   0.073   0.196
    1UNL    H53  117   0.605   0.085   0.290
    1UNL    H54  118   0.406   0.139   0.090
    1UNL    H55  119   0.361  -0.067   0.019
    1UNL    H56  120   0.329  -0.300   0.038
    1UNL    H57  121   0.340  -0.428  -0.168
    1UNL    H58  122   0.435  -0.297  -0.249
   0.00000   0.00000   0.00000   0.00000   0.00000   0.00000   0.00000   0.00000   0.00000
Generated with MDTraj, t= 31.0
 122
    1UNL     C1    1  -0.460  -0.006  -0.356
    1UNL     C2    2  -0.328   0.011  -0.330
    1UNL     C3    3  -0.265   0.015  -0.198
    1UNL     C4    4  -0.375  -0.019  -0.087
    1UNL     O1    5  -0.474   0.077  -0.075
    1UNL     C5    6  -0.571   0.042   0.023
    1UNL     O2    7  -0.682   0.136   0.021
    1UNL     C6    8  -0.648   0.271   0.063
    1UNL     C7    9  -0.749   0.378   0.022
    1UNL     O3   10  -0.719   0.504   0.077
    1UNL     C8   11  -0.625   0.258   0.218
    1UNL     O4   12  -0.513   0.323   0.257
    1UNL     C9   13  -0.614   0.105   0.264
    1UNL     O5   14  -0.569   0.100   0.393
    1UNL    C10   15  -0.513   0.037   0.167
    1UNL     O6   16  -0.493  -0.098   0.209
    1UNL     O7   17  -0.413  -0.158  -0.117
    1UNL    C11   18  -0.306  -0.234  -0.092
    1UNL    C12   19  -0.179  -0.211  -0.120
    1UNL    C13   20  -0.068  -0.291  -0.056
    1UNL     O8   21   0.042  -0.283  -0.112
    1UNL     O9   22  -0.104  -0.372   0.046
    1UNL    C14   23   0.001  -0.468   0.086
    1UNL    C15   24  -0.137  -0.071  -0.181
    1UNL    C16   25  -0.055  -0.090  -0.308
    1UNL    C17   26   0.010   0.039  -0.362
    1UNL     N1   27   0.075   0.133  -0.261
    1UNL    C18   28   0.012   0.265  -0.209
    1UNL    C19   29   0.008   0.277  -0.060
    1UNL    C20   30   0.035   0.157   0.011
    1UNL    C21   31   0.120   0.061  -0.036
    1UNL     N2   32   0.110  -0.046   0.048
    1UNL    C22   33   0.012  -0.024   0.147
    1UNL    C23   34  -0.050  -0.108   0.241
    1UNL    C24   35  -0.142  -0.054   0.331
    1UNL    C25   36  -0.182   0.076   0.311
    1UNL    C26   37  -0.118   0.159   0.215
    1UNL    C27   38  -0.025   0.107   0.130
    1UNL    C28   39   0.183   0.076  -0.170
    1UNL    C29   40   0.276  -0.035  -0.234
    1UNL    C30   41   0.415  -0.029  -0.168
    1UNL    C31   42   0.525  -0.071  -0.263
    1UNL    C32   43   0.531  -0.029  -0.400
    1UNL    O10   44   0.614  -0.087  -0.471
    1UNL    O11   45   0.442   0.064  -0.454
    1UNL    C33   46   0.485   0.109  -0.579
    1UNL    C34   47   0.631  -0.136  -0.215
    1UNL    O12   48   0.648  -0.176  -0.081
    1UNL    C35   49   0.565  -0.110   0.011
    1UNL    O13   50   0.576  -0.155   0.144
    1UNL    C36   51   0.472  -0.106   0.234
    1UNL    O14   52   0.334  -0.145   0.228
    1UNL    C37   53   0.274  -0.142   0.358
    1UNL    C38   54   0.305  -0.266   0.450
    1UNL    O15   55   0.210  -0.268   0.549
    1UNL    C39   56   0.310  -0.009   0.432
    1UNL    O16   57   0.192   0.034   0.497
    1UNL    C40   58   0.359   0.102   0.321
    1UNL    O17   59   0.250   0.140   0.241
    1UNL    C41   60   0.477   0.054   0.241
    1UNL    O18   61   0.477   0.109   0.114
    1UNL    C42   62   0.418  -0.106  -0.035
    1UNL    C43   63   0.358  -0.240  -0.036
    1UNL    C44   64   0.375  -0.316  -0.144
    1UNL     H1   65  -0.527  -0.006  -0.271
    1UNL     H2   66  -0.509   0.024  -0.443
    1UNL     H3   67  -0.265   0.039  -0.412
    1UNL     H4   68  -0.242   0.123  -0.170
    1UNL     H5   69  -0.322  -0.030   0.012
    1UNL     H6   70  -0.614  -0.063  -0.005
    1UNL     H7   71  -0.546   0.291   0.016
    1UNL     H8   72  -0.845   0.348   0.071
    1UNL     H9   73  -0.760   0.379  -0.086
    1UNL    H10   74  -0.774   0.574   0.033
    1UNL    H11   75  -0.706   0.311   0.268
    1UNL    H12   76  -0.509   0.407   0.214
    1UNL    H13   77  -0.717   0.056   0.254
    1UNL    H14   78  -0.516   0.178   0.418
    1UNL    H15   79  -0.418   0.093   0.174
    1UNL    H16   80  -0.490  -0.093   0.302
    1UNL    H17   81  -0.328  -0.331  -0.039
    1UNL    H18   82   0.041  -0.529   0.002
    1UNL    H19   83  -0.051  -0.536   0.154
    1UNL    H20   84   0.068  -0.418   0.148
    1UNL    H21   85  -0.068  -0.026  -0.114
    1UNL    H22   86   0.009  -0.172  -0.299
    1UNL    H23   87  -0.116  -0.129  -0.386
    1UNL    H24   88   0.077   0.012  -0.451
    1UNL    H25   89  -0.060   0.105  -0.413
    1UNL    H26   90   0.049   0.355  -0.267
    1UNL    H27   91  -0.091   0.256  -0.241
    1UNL    H28   92   0.073   0.358  -0.037
    1UNL    H29   93  -0.088   0.324  -0.034
    1UNL    H30   94   0.135  -0.142   0.025
    1UNL    H31   95  -0.007  -0.208   0.251
    1UNL    H32   96  -0.193  -0.125   0.397
    1UNL    H33   97  -0.263   0.120   0.368
    1UNL    H34   98  -0.134   0.265   0.224
    1UNL    H35   99   0.255   0.158  -0.168
    1UNL    H36  100   0.289  -0.024  -0.349
    1UNL    H37  101   0.231  -0.135  -0.231
    1UNL    H38  102   0.444   0.073  -0.145
    1UNL    H39  103   0.430   0.073  -0.665
    1UNL    H40  104   0.465   0.215  -0.564
    1UNL    H41  105   0.594   0.101  -0.581
    1UNL    H42  106   0.712  -0.152  -0.298
    1UNL    H43  107   0.602  -0.007   0.005
    1UNL    H44  108   0.506  -0.148   0.334
    1UNL    H45  109   0.162  -0.142   0.346
    1UNL    H46  110   0.284  -0.361   0.397
    1UNL    H47  111   0.409  -0.266   0.497
    1UNL    H48  112   0.175  -0.179   0.550
    1UNL    H49  113   0.388  -0.019   0.520
    1UNL    H50  114   0.125   0.067   0.436
    1UNL    H51  115   0.374   0.188   0.377
    1UNL    H52  116   0.211   0.070   0.185
    1UNL    H53  117   0.570   0.089   0.301
    1UNL    H54  118   0.430   0.191   0.122
    1UNL    H55  119   0.369  -0.057   0.044
    1UNL    H56  120   0.326  -0.277   0.060
    1UNL    H57  121   0.328  -0.414  -0.164
    1UNL    H58  122   0.424  -0.277  -0.229
   0.00000   0.00000   0.00000   0.00000   0.00000   0.00000   0.00000   0.00000   0.00000
Generated with MDTraj, t= 32.0
 122
    1UNL     C1    1  -0.456   0.007  -0.352
    1UNL     C2    2  -0.326   0.003  -0.343
    1UNL     C3    3  -0.261   0.020  -0.209
    1UNL     C4    4  -0.364  -0.004  -0.094
    1UNL     O1    5  -0.464   0.092  -0.082
    1UNL     C5    6  -0.557   0.043   0.009
    1UNL     O2    7  -0.676   0.121   0.016
    1UNL     C6    8  -0.653   0.253   0.067
    1UNL     C7    9  -0.740   0.365   0.023
    1UNL     O3   10  -0.698   0.491   0.086
    1UNL     C8   11  -0.634   0.246   0.219
    1UNL     O4   12  -0.554   0.349   0.264
    1UNL     C9   13  -0.578   0.104   0.264
    1UNL     O5   14  -0.513   0.121   0.387
    1UNL    C10   15  -0.480   0.043   0.149
    1UNL     O6   16  -0.437  -0.090   0.181
    1UNL     O7   17  -0.409  -0.145  -0.098
    1UNL    C11   18  -0.307  -0.236  -0.073
    1UNL    C12   19  -0.179  -0.206  -0.109
    1UNL    C13   20  -0.063  -0.282  -0.067
    1UNL     O8   21   0.050  -0.265  -0.115
    1UNL     O9   22  -0.099  -0.378   0.020
    1UNL    C14   23   0.015  -0.443   0.083
    1UNL    C15   24  -0.143  -0.079  -0.190
    1UNL    C16   25  -0.059  -0.099  -0.319
    1UNL    C17   26   0.009   0.025  -0.369
    1UNL     N1   27   0.057   0.113  -0.263
    1UNL    C18   28  -0.004   0.251  -0.233
    1UNL    C19   29  -0.020   0.278  -0.080
    1UNL    C20   30   0.030   0.164   0.004
    1UNL    C21   31   0.115   0.070  -0.039
    1UNL     N2   32   0.105  -0.045   0.036
    1UNL    C22   33   0.012  -0.018   0.136
    1UNL    C23   34  -0.044  -0.092   0.240
    1UNL    C24   35  -0.128  -0.038   0.333
    1UNL    C25   36  -0.166   0.095   0.323
    1UNL    C26   37  -0.129   0.174   0.209
    1UNL    C27   38  -0.039   0.116   0.117
    1UNL    C28   39   0.174   0.076  -0.170
    1UNL    C29   40   0.253  -0.039  -0.226
    1UNL    C30   41   0.400  -0.056  -0.162
    1UNL    C31   42   0.516  -0.082  -0.256
    1UNL    C32   43   0.524  -0.013  -0.389
    1UNL    O10   44   0.615  -0.054  -0.465
    1UNL    O11   45   0.421   0.072  -0.419
    1UNL    C33   46   0.423   0.094  -0.564
    1UNL    C34   47   0.629  -0.144  -0.208
    1UNL    O12   48   0.657  -0.175  -0.073
    1UNL    C35   49   0.561  -0.109   0.015
    1UNL    O13   50   0.590  -0.140   0.151
    1UNL    C36   51   0.488  -0.099   0.241
    1UNL    O14   52   0.361  -0.159   0.226
    1UNL    C37   53   0.278  -0.157   0.340
    1UNL    C38   54   0.274  -0.284   0.426
    1UNL    O15   55   0.221  -0.264   0.554
    1UNL    C39   56   0.290  -0.027   0.431
    1UNL    O16   57   0.176   0.004   0.495
    1UNL    C40   58   0.350   0.100   0.351
    1UNL    O17   59   0.251   0.166   0.280
    1UNL    C41   60   0.471   0.057   0.260
    1UNL    O18   61   0.451   0.098   0.124
    1UNL    C42   62   0.413  -0.127  -0.030
    1UNL    C43   63   0.368  -0.275  -0.031
    1UNL    C44   64   0.360  -0.343  -0.147
    1UNL     H1   65  -0.513   0.013  -0.259
    1UNL     H2   66  -0.513  -0.012  -0.441
    1UNL     H3   67  -0.270  -0.012  -0.432
    1UNL     H4   68  -0.225   0.125  -0.192
    1UNL     H5   69  -0.303  -0.011  -0.002
    1UNL     H6   70  -0.590  -0.066  -0.016
    1UNL     H7   71  -0.542   0.270   0.038
    1UNL     H8   72  -0.845   0.349   0.059
    1UNL     H9   73  -0.743   0.375  -0.086
    1UNL    H10   74  -0.749   0.567   0.050
    1UNL    H11   75  -0.733   0.261   0.268
    1UNL    H12   76  -0.590   0.441   0.240
    1UNL    H13   77  -0.661   0.030   0.273
    1UNL    H14   78  -0.503   0.218   0.406
    1UNL    H15   79  -0.387   0.103   0.135
    1UNL    H16   80  -0.410  -0.081   0.276
    1UNL    H17   81  -0.346  -0.328  -0.025
    1UNL    H18   82   0.048  -0.537   0.032
    1UNL    H19   83  -0.022  -0.476   0.182
    1UNL    H20   84   0.085  -0.372   0.114
    1UNL    H21   85  -0.061  -0.031  -0.120
    1UNL    H22   86   0.016  -0.167  -0.291
    1UNL    H23   87  -0.113  -0.150  -0.389
    1UNL    H24   88   0.098   0.011  -0.432
    1UNL    H25   89  -0.058   0.078  -0.438
    1UNL    H26   90   0.065   0.328  -0.277
    1UNL    H27   91  -0.098   0.262  -0.283
    1UNL    H28   92   0.021   0.371  -0.059
    1UNL    H29   93  -0.128   0.303  -0.070
    1UNL    H30   94   0.153  -0.139   0.020
    1UNL    H31   95  -0.017  -0.195   0.246
    1UNL    H32   96  -0.178  -0.106   0.404
    1UNL    H33   97  -0.225   0.139   0.405
    1UNL    H34   98  -0.152   0.281   0.209
    1UNL    H35   99   0.239   0.164  -0.175
    1UNL    H36  100   0.270  -0.029  -0.337
    1UNL    H37  101   0.203  -0.137  -0.224
    1UNL    H38  102   0.423   0.051  -0.148
    1UNL    H39  103   0.410   0.002  -0.622
    1UNL    H40  104   0.336   0.158  -0.590
    1UNL    H41  105   0.517   0.149  -0.585
    1UNL    H42  106   0.712  -0.160  -0.277
    1UNL    H43  107   0.572  -0.002   0.002
    1UNL    H44  108   0.527  -0.148   0.337
    1UNL    H45  109   0.176  -0.149   0.294
    1UNL    H46  110   0.213  -0.360   0.378
    1UNL    H47  111   0.377  -0.319   0.450
    1UNL    H48  112   0.184  -0.169   0.552
    1UNL    H49  113   0.372  -0.064   0.507
    1UNL    H50  114   0.117   0.069   0.445
    1UNL    H51  115   0.393   0.166   0.417
    1UNL    H52  116   0.213   0.108   0.204
    1UNL    H53  117   0.573   0.099   0.291
    1UNL    H54  118   0.441   0.199   0.118
    1UNL    H55  119   0.355  -0.076   0.041
    1UNL    H56  120   0.315  -0.312   0.056
    1UNL    H57  121   0.333  -0.443  -0.157
    1UNL    H58  122   0.390  -0.292  -0.239
   0.00000   0.00000   0.00000   0.00000   0.00000   0.00000   0.00000   0.00000   0.00000
Generated with MDTraj, t= 33.0
 122
    1UNL     C1    1  -0.467  -0.003  -0.362
    1UNL     C2    2  -0.344  -0.047  -0.348
    1UNL     C3    3  -0.263  -0.007  -0.232
    1UNL     C4    4  -0.352  -0.018  -0.108
    1UNL     O1    5  -0.446   0.084  -0.095
    1UNL     C5    6  -0.535   0.053   0.016
    1UNL     O2    7  -0.659   0.125   0.017
    1UNL     C6    8  -0.649   0.258   0.080
    1UNL     C7    9  -0.755   0.359   0.036
    1UNL     O3   10  -0.717   0.495   0.068
    1UNL     C8   11  -0.632   0.248   0.234
    1UNL     O4   12  -0.585   0.362   0.302
    1UNL     C9   13  -0.555   0.117   0.268
    1UNL     O5   14  -0.477   0.136   0.384
    1UNL    C10   15  -0.458   0.065   0.154
    1UNL     O6   16  -0.397  -0.059   0.186
    1UNL     O7   17  -0.397  -0.154  -0.091
    1UNL    C11   18  -0.289  -0.238  -0.086
    1UNL    C12   19  -0.159  -0.205  -0.129
    1UNL    C13   20  -0.053  -0.289  -0.082
    1UNL     O8   21   0.060  -0.267  -0.117
    1UNL     O9   22  -0.088  -0.384   0.014
    1UNL    C14   23   0.022  -0.470   0.060
    1UNL    C15   24  -0.130  -0.081  -0.202
    1UNL    C16   25  -0.041  -0.103  -0.325
    1UNL    C17   26   0.020   0.036  -0.369
    1UNL     N1   27   0.075   0.126  -0.273
    1UNL    C18   28   0.019   0.263  -0.249
    1UNL    C19   29  -0.037   0.282  -0.103
    1UNL    C20   30   0.011   0.171  -0.012
    1UNL    C21   31   0.114   0.082  -0.038
    1UNL     N2   32   0.107  -0.030   0.051
    1UNL    C22   33   0.011   0.006   0.143
    1UNL    C23   34  -0.039  -0.073   0.250
    1UNL    C24   35  -0.138  -0.017   0.324
    1UNL    C25   36  -0.187   0.114   0.298
    1UNL    C26   37  -0.137   0.188   0.197
    1UNL    C27   38  -0.039   0.132   0.115
    1UNL    C28   39   0.177   0.078  -0.171
    1UNL    C29   40   0.251  -0.045  -0.201
    1UNL    C30   41   0.397  -0.040  -0.138
    1UNL    C31   42   0.498  -0.074  -0.248
    1UNL    C32   43   0.489  -0.017  -0.385
    1UNL    O10   44   0.590  -0.043  -0.455
    1UNL    O11   45   0.368   0.044  -0.420
    1UNL    C33   46   0.387   0.100  -0.549
    1UNL    C34   47   0.617  -0.134  -0.209
    1UNL    O12   48   0.652  -0.168  -0.078
    1UNL    C35   49   0.566  -0.114   0.028
    1UNL    O13   50   0.589  -0.157   0.160
    1UNL    C36   51   0.487  -0.109   0.249
    1UNL    O14   52   0.362  -0.177   0.239
    1UNL    C37   53   0.277  -0.163   0.352
    1UNL    C38   54   0.282  -0.284   0.438
    1UNL    O15   55   0.168  -0.289   0.531
    1UNL    C39   56   0.308  -0.034   0.442
    1UNL    O16   57   0.194  -0.004   0.513
    1UNL    C40   58   0.350   0.088   0.347
    1UNL    O17   59   0.238   0.140   0.282
    1UNL    C41   60   0.466   0.048   0.252
    1UNL    O18   61   0.446   0.096   0.118
    1UNL    C42   62   0.419  -0.126  -0.015
    1UNL    C43   63   0.380  -0.267  -0.040
    1UNL    C44   64   0.381  -0.334  -0.155
    1UNL     H1   65  -0.519   0.038  -0.281
    1UNL     H2   66  -0.526  -0.041  -0.444
    1UNL     H3   67  -0.316  -0.124  -0.423
    1UNL     H4   68  -0.249   0.102  -0.229
    1UNL     H5   69  -0.289  -0.016  -0.021
    1UNL     H6   70  -0.570  -0.057   0.007
    1UNL     H7   71  -0.546   0.290   0.043
    1UNL     H8   72  -0.853   0.340   0.089
    1UNL     H9   73  -0.772   0.351  -0.072
    1UNL    H10   74  -0.779   0.559   0.030
    1UNL    H11   75  -0.741   0.233   0.264
    1UNL    H12   76  -0.593   0.436   0.243
    1UNL    H13   77  -0.629   0.045   0.307
    1UNL    H14   78  -0.499   0.225   0.418
    1UNL    H15   79  -0.378   0.142   0.132
    1UNL    H16   80  -0.398  -0.063   0.292
    1UNL    H17   81  -0.297  -0.321  -0.019
    1UNL    H18   82   0.086  -0.506  -0.025
    1UNL    H19   83  -0.018  -0.563   0.108
    1UNL    H20   84   0.076  -0.426   0.139
    1UNL    H21   85  -0.067  -0.021  -0.122
    1UNL    H22   86   0.036  -0.172  -0.301
    1UNL    H23   87  -0.101  -0.137  -0.400
    1UNL    H24   88   0.086   0.012  -0.449
    1UNL    H25   89  -0.057   0.100  -0.418
    1UNL    H26   90   0.106   0.333  -0.264
    1UNL    H27   91  -0.057   0.286  -0.324
    1UNL    H28   92  -0.006   0.373  -0.070
    1UNL    H29   93  -0.148   0.296  -0.109
    1UNL    H30   94   0.108  -0.130   0.013
    1UNL    H31   95  -0.036  -0.178   0.225
    1UNL    H32   96  -0.169  -0.069   0.410
    1UNL    H33   97  -0.269   0.145   0.353
    1UNL    H34   98  -0.186   0.281   0.175
    1UNL    H35   99   0.256   0.155  -0.161
    1UNL    H36  100   0.258  -0.063  -0.308
    1UNL    H37  101   0.200  -0.139  -0.168
    1UNL    H38  102   0.415   0.065  -0.110
    1UNL    H39  103   0.426   0.020  -0.616
    1UNL    H40  104   0.286   0.126  -0.586
    1UNL    H41  105   0.455   0.187  -0.538
    1UNL    H42  106   0.698  -0.136  -0.271
    1UNL    H43  107   0.587  -0.010   0.034
    1UNL    H44  108   0.520  -0.135   0.355
    1UNL    H45  109   0.177  -0.140   0.308
    1UNL    H46  110   0.269  -0.369   0.376
    1UNL    H47  111   0.374  -0.286   0.498
    1UNL    H48  112   0.163  -0.206   0.577
    1UNL    H49  113   0.385  -0.069   0.523
    1UNL    H50  114   0.127   0.052   0.473
    1UNL    H51  115   0.382   0.163   0.413
    1UNL    H52  116   0.209   0.084   0.205
    1UNL    H53  117   0.551   0.104   0.298
    1UNL    H54  118   0.433   0.197   0.120
    1UNL    H55  119   0.363  -0.081   0.065
    1UNL    H56  120   0.365  -0.334   0.043
    1UNL    H57  121   0.359  -0.437  -0.168
    1UNL    H58  122   0.384  -0.275  -0.248
   0.00000   0.00000   0.00000   0.00000   0.00000   0.00000   0.00000   0.00000   0.00000
Generated with MDTraj, t= 34.0
 122
    1UNL     C1    1  -0.447  -0.036  -0.399
    1UNL     C2    2  -0.334  -0.084  -0.345
    1UNL     C3    3  -0.260  -0.014  -0.233
    1UNL     C4    4  -0.337  -0.015  -0.093
    1UNL     O1    5  -0.449   0.077  -0.092
    1UNL     C5    6  -0.541   0.057   0.021
    1UNL     O2    7  -0.662   0.131   0.017
    1UNL     C6    8  -0.643   0.262   0.070
    1UNL     C7    9  -0.752   0.363   0.022
    1UNL     O3   10  -0.746   0.476   0.097
    1UNL     C8   11  -0.641   0.251   0.225
    1UNL     O4   12  -0.582   0.366   0.288
    1UNL     C9   13  -0.560   0.123   0.262
    1UNL     O5   14  -0.480   0.148   0.376
    1UNL    C10   15  -0.461   0.085   0.153
    1UNL     O6   16  -0.391  -0.029   0.203
    1UNL     O7   17  -0.382  -0.152  -0.073
    1UNL    C11   18  -0.274  -0.242  -0.064
    1UNL    C12   19  -0.158  -0.213  -0.119
    1UNL    C13   20  -0.041  -0.301  -0.082
    1UNL     O8   21   0.072  -0.262  -0.115
    1UNL     O9   22  -0.069  -0.418  -0.028
    1UNL    C14   23   0.040  -0.487   0.021
    1UNL    C15   24  -0.130  -0.086  -0.199
    1UNL    C16   25  -0.041  -0.096  -0.318
    1UNL    C17   26   0.004   0.043  -0.373
    1UNL     N1   27   0.067   0.126  -0.270
    1UNL    C18   28   0.012   0.263  -0.247
    1UNL    C19   29  -0.027   0.289  -0.105
    1UNL    C20   30   0.001   0.177  -0.009
    1UNL    C21   31   0.085   0.071  -0.043
    1UNL     N2   32   0.076  -0.026   0.053
    1UNL    C22   33  -0.011   0.019   0.153
    1UNL    C23   34  -0.062  -0.048   0.267
    1UNL    C24   35  -0.145   0.019   0.344
    1UNL    C25   36  -0.188   0.152   0.313
    1UNL    C26   37  -0.144   0.213   0.200
    1UNL    C27   38  -0.055   0.146   0.116
    1UNL    C28   39   0.161   0.076  -0.167
    1UNL    C29   40   0.250  -0.046  -0.200
    1UNL    C30   41   0.395  -0.037  -0.151
    1UNL    C31   42   0.504  -0.064  -0.259
    1UNL    C32   43   0.496  -0.012  -0.398
    1UNL    O10   44   0.591  -0.045  -0.473
    1UNL    O11   45   0.382   0.057  -0.429
    1UNL    C33   46   0.379   0.087  -0.566
    1UNL    C34   47   0.620  -0.111  -0.206
    1UNL    O12   48   0.657  -0.156  -0.082
    1UNL    C35   49   0.564  -0.114   0.020
    1UNL    O13   50   0.583  -0.171   0.145
    1UNL    C36   51   0.496  -0.122   0.250
    1UNL    O14   52   0.366  -0.180   0.244
    1UNL    C37   53   0.278  -0.161   0.356
    1UNL    C38   54   0.258  -0.295   0.429
    1UNL    O15   55   0.142  -0.292   0.514
    1UNL    C39   56   0.321  -0.045   0.458
    1UNL    O16   57   0.204  -0.004   0.524
    1UNL    C40   58   0.373   0.073   0.363
    1UNL    O17   59   0.249   0.128   0.314
    1UNL    C41   60   0.480   0.034   0.260
    1UNL    O18   61   0.452   0.095   0.134
    1UNL    C42   62   0.409  -0.130  -0.025
    1UNL    C43   63   0.390  -0.279  -0.039
    1UNL    C44   64   0.396  -0.357  -0.143
    1UNL     H1   65  -0.515   0.030  -0.344
    1UNL     H2   66  -0.489  -0.073  -0.491
    1UNL     H3   67  -0.308  -0.182  -0.373
    1UNL     H4   68  -0.243   0.085  -0.267
    1UNL     H5   69  -0.270   0.000  -0.012
    1UNL     H6   70  -0.569  -0.054   0.030
    1UNL     H7   71  -0.541   0.302   0.045
    1UNL     H8   72  -0.854   0.317   0.038
    1UNL     H9   73  -0.745   0.393  -0.084
    1UNL    H10   74  -0.817   0.540   0.074
    1UNL    H11   75  -0.751   0.236   0.255
    1UNL    H12   76  -0.634   0.449   0.266
    1UNL    H13   77  -0.615   0.039   0.299
    1UNL    H14   78  -0.462   0.246   0.376
    1UNL    H15   79  -0.388   0.165   0.119
    1UNL    H16   80  -0.373  -0.017   0.301
    1UNL    H17   81  -0.284  -0.335  -0.018
    1UNL    H18   82   0.106  -0.529  -0.060
    1UNL    H19   83  -0.006  -0.574   0.076
    1UNL    H20   84   0.095  -0.431   0.091
    1UNL    H21   85  -0.072  -0.032  -0.124
    1UNL    H22   86   0.036  -0.163  -0.300
    1UNL    H23   87  -0.101  -0.139  -0.396
    1UNL    H24   88   0.068   0.045  -0.455
    1UNL    H25   89  -0.095   0.085  -0.407
    1UNL    H26   90   0.096   0.329  -0.279
    1UNL    H27   91  -0.069   0.281  -0.320
    1UNL    H28   92   0.024   0.374  -0.073
    1UNL    H29   93  -0.132   0.319  -0.086
    1UNL    H30   94   0.124  -0.116   0.051
    1UNL    H31   95  -0.040  -0.155   0.276
    1UNL    H32   96  -0.201  -0.024   0.432
    1UNL    H33   97  -0.236   0.211   0.397
    1UNL    H34   98  -0.186   0.308   0.174
    1UNL    H35   99   0.230   0.161  -0.149
    1UNL    H36  100   0.252  -0.060  -0.305
    1UNL    H37  101   0.204  -0.134  -0.150
    1UNL    H38  102   0.410   0.066  -0.108
    1UNL    H39  103   0.349  -0.006  -0.615
    1UNL    H40  104   0.290   0.151  -0.570
    1UNL    H41  105   0.467   0.139  -0.603
    1UNL    H42  106   0.706  -0.112  -0.281
    1UNL    H43  107   0.590  -0.011   0.037
    1UNL    H44  108   0.540  -0.158   0.346
    1UNL    H45  109   0.186  -0.119   0.310
    1UNL    H46  110   0.228  -0.367   0.359
    1UNL    H47  111   0.340  -0.326   0.491
    1UNL    H48  112   0.127  -0.198   0.550
    1UNL    H49  113   0.399  -0.101   0.523
    1UNL    H50  114   0.163   0.073   0.474
    1UNL    H51  115   0.420   0.142   0.431
    1UNL    H52  116   0.208   0.075   0.247
    1UNL    H53  117   0.578   0.074   0.282
    1UNL    H54  118   0.429   0.185   0.133
    1UNL    H55  119   0.349  -0.091   0.054
    1UNL    H56  120   0.372  -0.332   0.054
    1UNL    H57  121   0.347  -0.455  -0.142
    1UNL    H58  122   0.430  -0.310  -0.229
   0.00000   0.00000   0.00000   0.00000   0.00000   0.00000   0.00000   0.00000   0.00000
Generated with MDTraj, t= 35.0
 122
    1UNL     C1    1  -0.444  -0.029  -0.393
    1UNL     C2    2  -0.351  -0.090  -0.317
    1UNL     C3    3  -0.270  -0.022  -0.211
    1UNL     C4    4  -0.355  -0.030  -0.084
    1UNL     O1    5  -0.454   0.072  -0.093
    1UNL     C5    6  -0.548   0.056   0.012
    1UNL     O2    7  -0.666   0.129  -0.000
    1UNL     C6    8  -0.654   0.263   0.052
    1UNL     C7    9  -0.780   0.351   0.023
    1UNL     O3   10  -0.775   0.478   0.083
    1UNL     C8   11  -0.639   0.262   0.209
    1UNL     O4   12  -0.567   0.371   0.266
    1UNL     C9   13  -0.576   0.129   0.252
    1UNL     O5   14  -0.507   0.138   0.372
    1UNL    C10   15  -0.478   0.084   0.149
    1UNL     O6   16  -0.411  -0.034   0.196
    1UNL     O7   17  -0.389  -0.166  -0.052
    1UNL    C11   18  -0.276  -0.252  -0.057
    1UNL    C12   19  -0.155  -0.223  -0.115
    1UNL    C13   20  -0.039  -0.304  -0.079
    1UNL     O8   21   0.077  -0.267  -0.099
    1UNL     O9   22  -0.064  -0.437  -0.039
    1UNL    C14   23   0.046  -0.524  -0.029
    1UNL    C15   24  -0.134  -0.090  -0.192
    1UNL    C16   25  -0.042  -0.116  -0.318
    1UNL    C17   26   0.011   0.018  -0.359
    1UNL     N1   27   0.052   0.113  -0.248
    1UNL    C18   28  -0.003   0.252  -0.243
    1UNL    C19   29  -0.028   0.294  -0.097
    1UNL    C20   30   0.021   0.189   0.005
    1UNL    C21   31   0.104   0.088  -0.019
    1UNL     N2   32   0.113  -0.002   0.080
    1UNL    C22   33   0.011   0.038   0.169
    1UNL    C23   34  -0.030  -0.017   0.295
    1UNL    C24   35  -0.111   0.058   0.372
    1UNL    C25   36  -0.152   0.185   0.328
    1UNL    C26   37  -0.125   0.243   0.211
    1UNL    C27   38  -0.034   0.170   0.133
    1UNL    C28   39   0.166   0.085  -0.158
    1UNL    C29   40   0.254  -0.037  -0.197
    1UNL    C30   41   0.398  -0.016  -0.148
    1UNL    C31   42   0.515  -0.046  -0.252
    1UNL    C32   43   0.506  -0.017  -0.396
    1UNL    O10   44   0.585  -0.074  -0.476
    1UNL    O11   45   0.394   0.054  -0.427
    1UNL    C33   46   0.394   0.086  -0.570
    1UNL    C34   47   0.623  -0.113  -0.206
    1UNL    O12   48   0.649  -0.156  -0.080
    1UNL    C35   49   0.556  -0.122   0.021
    1UNL    O13   50   0.580  -0.172   0.147
    1UNL    C36   51   0.487  -0.128   0.243
    1UNL    O14   52   0.358  -0.182   0.224
    1UNL    C37   53   0.267  -0.163   0.331
    1UNL    C38   54   0.214  -0.302   0.385
    1UNL    O15   55   0.137  -0.298   0.503
    1UNL    C39   56   0.317  -0.058   0.438
    1UNL    O16   57   0.217  -0.035   0.536
    1UNL    C40   58   0.372   0.066   0.358
    1UNL    O17   59   0.253   0.134   0.311
    1UNL    C41   60   0.486   0.030   0.260
    1UNL    O18   61   0.474   0.105   0.136
    1UNL    C42   62   0.408  -0.116  -0.032
    1UNL    C43   63   0.370  -0.259  -0.052
    1UNL    C44   64   0.400  -0.325  -0.162
    1UNL     H1   65  -0.461   0.077  -0.376
    1UNL     H2   66  -0.525  -0.076  -0.441
    1UNL     H3   67  -0.375  -0.198  -0.296
    1UNL     H4   68  -0.266   0.079  -0.233
    1UNL     H5   69  -0.289  -0.002  -0.003
    1UNL     H6   70  -0.577  -0.055   0.022
    1UNL     H7   71  -0.566   0.321   0.018
    1UNL     H8   72  -0.869   0.301   0.064
    1UNL     H9   73  -0.795   0.354  -0.085
    1UNL    H10   74  -0.862   0.526   0.073
    1UNL    H11   75  -0.748   0.258   0.248
    1UNL    H12   76  -0.600   0.454   0.227
    1UNL    H13   77  -0.644   0.049   0.263
    1UNL    H14   78  -0.515   0.230   0.405
    1UNL    H15   79  -0.407   0.168   0.121
    1UNL    H16   80  -0.369   0.003   0.270
    1UNL    H17   81  -0.293  -0.346  -0.000
    1UNL    H18   82   0.092  -0.537  -0.129
    1UNL    H19   83   0.008  -0.623   0.007
    1UNL    H20   84   0.124  -0.487   0.032
    1UNL    H21   85  -0.084  -0.022  -0.132
    1UNL    H22   86   0.035  -0.191  -0.307
    1UNL    H23   87  -0.099  -0.170  -0.399
    1UNL    H24   88   0.082  -0.000  -0.432
    1UNL    H25   89  -0.070   0.078  -0.411
    1UNL    H26   90   0.077   0.317  -0.286
    1UNL    H27   91  -0.090   0.256  -0.312
    1UNL    H28   92   0.016   0.384  -0.057
    1UNL    H29   93  -0.135   0.314  -0.084
    1UNL    H30   94   0.118  -0.094   0.042
    1UNL    H31   95   0.009  -0.110   0.329
    1UNL    H32   96  -0.142   0.018   0.462
    1UNL    H33   97  -0.217   0.232   0.397
    1UNL    H34   98  -0.139   0.350   0.192
    1UNL    H35   99   0.227   0.177  -0.173
    1UNL    H36  100   0.252  -0.037  -0.304
    1UNL    H37  101   0.202  -0.121  -0.153
    1UNL    H38  102   0.405   0.089  -0.106
    1UNL    H39  103   0.384  -0.011  -0.615
    1UNL    H40  104   0.312   0.151  -0.597
    1UNL    H41  105   0.483   0.135  -0.604
    1UNL    H42  106   0.700  -0.148  -0.280
    1UNL    H43  107   0.582  -0.018   0.031
    1UNL    H44  108   0.516  -0.178   0.337
    1UNL    H45  109   0.187  -0.102   0.284
    1UNL    H46  110   0.156  -0.347   0.311
    1UNL    H47  111   0.296  -0.364   0.417
    1UNL    H48  112   0.184  -0.239   0.565
    1UNL    H49  113   0.405  -0.109   0.487
    1UNL    H50  114   0.143   0.016   0.490
    1UNL    H51  115   0.408   0.129   0.442
    1UNL    H52  116   0.224   0.093   0.225
    1UNL    H53  117   0.578   0.057   0.303
    1UNL    H54  118   0.445   0.204   0.148
    1UNL    H55  119   0.346  -0.073   0.044
    1UNL    H56  120   0.303  -0.300   0.024
    1UNL    H57  121   0.366  -0.430  -0.163
    1UNL    H58  122   0.476  -0.292  -0.226
   0.00000   0.00000   0.00000   0.00000   0.00000   0.00000   0.00000   0.00000   0.00000
Generated with MDTraj, t= 36.0
 122
    1UNL     C1    1  -0.440  -0.027  -0.384
    1UNL     C2    2  -0.325  -0.066  -0.327
    1UNL     C3    3  -0.261  -0.018  -0.193
    1UNL     C4    4  -0.364  -0.030  -0.077
    1UNL     O1    5  -0.469   0.059  -0.085
    1UNL     C5    6  -0.553   0.035   0.025
    1UNL     O2    7  -0.680   0.101   0.017
    1UNL     C6    8  -0.667   0.242   0.048
    1UNL     C7    9  -0.788   0.323   0.005
    1UNL     O3   10  -0.770   0.461   0.044
    1UNL     C8   11  -0.642   0.261   0.198
    1UNL     O4   12  -0.568   0.372   0.233
    1UNL     C9   13  -0.581   0.131   0.257
    1UNL     O5   14  -0.538   0.161   0.391
    1UNL    C10   15  -0.478   0.081   0.156
    1UNL     O6   16  -0.396  -0.025   0.214
    1UNL     O7   17  -0.393  -0.171  -0.059
    1UNL    C11   18  -0.284  -0.249  -0.046
    1UNL    C12   19  -0.155  -0.223  -0.088
    1UNL    C13   20  -0.045  -0.310  -0.064
    1UNL     O8   21   0.070  -0.270  -0.059
    1UNL     O9   22  -0.083  -0.445  -0.058
    1UNL    C14   23   0.026  -0.530  -0.053
    1UNL    C15   24  -0.135  -0.092  -0.152
    1UNL    C16   25  -0.035  -0.101  -0.275
    1UNL    C17   26  -0.000   0.024  -0.350
    1UNL     N1   27   0.053   0.125  -0.256
    1UNL    C18   28  -0.023   0.256  -0.235
    1UNL    C19   29  -0.011   0.308  -0.093
    1UNL    C20   30   0.027   0.205   0.003
    1UNL    C21   31   0.113   0.100  -0.034
    1UNL     N2   32   0.108   0.005   0.065
    1UNL    C22   33   0.018   0.045   0.163
    1UNL    C23   34  -0.034  -0.011   0.280
    1UNL    C24   35  -0.116   0.066   0.361
    1UNL    C25   36  -0.133   0.201   0.339
    1UNL    C26   37  -0.092   0.261   0.222
    1UNL    C27   38  -0.015   0.182   0.139
    1UNL    C28   39   0.163   0.095  -0.176
    1UNL    C29   40   0.255  -0.033  -0.199
    1UNL    C30   41   0.397  -0.023  -0.152
    1UNL    C31   42   0.504  -0.051  -0.260
    1UNL    C32   43   0.501  -0.023  -0.402
    1UNL    O10   44   0.583  -0.073  -0.482
    1UNL    O11   45   0.404   0.056  -0.439
    1UNL    C33   46   0.405   0.094  -0.575
    1UNL    C34   47   0.610  -0.125  -0.219
    1UNL    O12   48   0.645  -0.156  -0.090
    1UNL    C35   49   0.561  -0.112   0.014
    1UNL    O13   50   0.579  -0.172   0.136
    1UNL    C36   51   0.491  -0.139   0.242
    1UNL    O14   52   0.360  -0.179   0.218
    1UNL    C37   53   0.269  -0.166   0.324
    1UNL    C38   54   0.235  -0.302   0.377
    1UNL    O15   55   0.116  -0.299   0.451
    1UNL    C39   56   0.305  -0.070   0.440
    1UNL    O16   57   0.192  -0.032   0.509
    1UNL    C40   58   0.397   0.049   0.388
    1UNL    O17   59   0.305   0.153   0.345
    1UNL    C41   60   0.497   0.010   0.273
    1UNL    O18   61   0.477   0.084   0.158
    1UNL    C42   62   0.411  -0.109  -0.027
    1UNL    C43   63   0.373  -0.252  -0.045
    1UNL    C44   64   0.396  -0.332  -0.150
    1UNL     H1   65  -0.506   0.026  -0.319
    1UNL     H2   66  -0.480  -0.062  -0.479
    1UNL     H3   67  -0.265  -0.129  -0.385
    1UNL     H4   68  -0.241   0.081  -0.208
    1UNL     H5   69  -0.303   0.002   0.010
    1UNL     H6   70  -0.571  -0.076   0.039
    1UNL     H7   71  -0.582   0.287  -0.001
    1UNL     H8   72  -0.876   0.273   0.046
    1UNL     H9   73  -0.795   0.316  -0.103
    1UNL    H10   74  -0.854   0.513   0.032
    1UNL    H11   75  -0.749   0.266   0.246
    1UNL    H12   76  -0.603   0.452   0.183
    1UNL    H13   77  -0.654   0.055   0.265
    1UNL    H14   78  -0.518   0.259   0.398
    1UNL    H15   79  -0.419   0.171   0.120
    1UNL    H16   80  -0.440  -0.111   0.181
    1UNL    H17   81  -0.287  -0.331   0.034
    1UNL    H18   82   0.099  -0.505  -0.132
    1UNL    H19   83  -0.013  -0.635  -0.057
    1UNL    H20   84   0.086  -0.511   0.031
    1UNL    H21   85  -0.089  -0.031  -0.081
    1UNL    H22   86   0.054  -0.167  -0.245
    1UNL    H23   87  -0.079  -0.171  -0.355
    1UNL    H24   88   0.077   0.014  -0.419
    1UNL    H25   89  -0.092   0.060  -0.407
    1UNL    H26   90   0.021   0.329  -0.307
    1UNL    H27   91  -0.133   0.236  -0.256
    1UNL    H28   92   0.065   0.392  -0.093
    1UNL    H29   93  -0.098   0.347  -0.041
    1UNL    H30   94   0.104  -0.099   0.040
    1UNL    H31   95  -0.014  -0.111   0.314
    1UNL    H32   96  -0.172   0.017   0.442
    1UNL    H33   97  -0.193   0.257   0.410
    1UNL    H34   98  -0.105   0.364   0.205
    1UNL    H35   99   0.234   0.179  -0.197
    1UNL    H36  100   0.251  -0.048  -0.305
    1UNL    H37  101   0.211  -0.115  -0.148
    1UNL    H38  102   0.423   0.083  -0.120
    1UNL    H39  103   0.415   0.003  -0.633
    1UNL    H40  104   0.309   0.143  -0.591
    1UNL    H41  105   0.482   0.165  -0.601
    1UNL    H42  106   0.686  -0.144  -0.283
    1UNL    H43  107   0.598  -0.010   0.024
    1UNL    H44  108   0.513  -0.204   0.326
    1UNL    H45  109   0.177  -0.117   0.289
    1UNL    H46  110   0.220  -0.367   0.295
    1UNL    H47  111   0.319  -0.334   0.440
    1UNL    H48  112   0.124  -0.209   0.496
    1UNL    H49  113   0.369  -0.128   0.510
    1UNL    H50  114   0.165   0.053   0.476
    1UNL    H51  115   0.455   0.088   0.478
    1UNL    H52  116   0.238   0.115   0.277
    1UNL    H53  117   0.593   0.032   0.309
    1UNL    H54  118   0.456   0.181   0.176
    1UNL    H55  119   0.358  -0.064   0.055
    1UNL    H56  120   0.341  -0.289   0.051
    1UNL    H57  121   0.387  -0.436  -0.146
    1UNL    H58  122   0.449  -0.292  -0.237
   0.00000   0.00000   0.00000   0.00000   0.00000   0.00000   0.00000   0.00000   0.00000
Generated with MDTraj, t= 37.0
 122
    1UNL     C1    1  -0.473  -0.015  -0.323
    1UNL     C2    2  -0.349  -0.055  -0.299
    1UNL     C3    3  -0.271  -0.011  -0.176
    1UNL     C4    4  -0.363  -0.035  -0.053
    1UNL     O1    5  -0.474   0.053  -0.060
    1UNL     C5    6  -0.561   0.021   0.043
    1UNL     O2    7  -0.692   0.082   0.024
    1UNL     C6    8  -0.687   0.227   0.043
    1UNL     C7    9  -0.802   0.303  -0.021
    1UNL     O3   10  -0.768   0.441  -0.012
    1UNL     C8   11  -0.661   0.255   0.197
    1UNL     O4   12  -0.589   0.370   0.211
    1UNL     C9   13  -0.589   0.131   0.270
    1UNL     O5   14  -0.508   0.186   0.377
    1UNL    C10   15  -0.485   0.069   0.173
    1UNL     O6   16  -0.410  -0.038   0.237
    1UNL     O7   17  -0.397  -0.174  -0.053
    1UNL    C11   18  -0.284  -0.249  -0.056
    1UNL    C12   19  -0.165  -0.215  -0.094
    1UNL    C13   20  -0.057  -0.312  -0.056
    1UNL     O8   21   0.055  -0.269  -0.024
    1UNL     O9   22  -0.083  -0.449  -0.068
    1UNL    C14   23   0.016  -0.534  -0.029
    1UNL    C15   24  -0.133  -0.082  -0.156
    1UNL    C16   25  -0.042  -0.094  -0.281
    1UNL    C17   26  -0.004   0.040  -0.339
    1UNL     N1   27   0.072   0.142  -0.250
    1UNL    C18   28   0.013   0.281  -0.235
    1UNL    C19   29   0.044   0.336  -0.098
    1UNL    C20   30   0.064   0.223   0.006
    1UNL    C21   31   0.136   0.112  -0.030
    1UNL     N2   32   0.111   0.005   0.058
    1UNL    C22   33   0.020   0.050   0.153
    1UNL    C23   34  -0.035  -0.011   0.261
    1UNL    C24   35  -0.127   0.060   0.338
    1UNL    C25   36  -0.153   0.190   0.317
    1UNL    C26   37  -0.093   0.255   0.210
    1UNL    C27   38  -0.007   0.182   0.124
    1UNL    C28   39   0.188   0.102  -0.172
    1UNL    C29   40   0.257  -0.028  -0.202
    1UNL    C30   41   0.404  -0.026  -0.157
    1UNL    C31   42   0.515  -0.053  -0.259
    1UNL    C32   43   0.505  -0.010  -0.397
    1UNL    O10   44   0.585  -0.064  -0.477
    1UNL    O11   45   0.397   0.065  -0.431
    1UNL    C33   46   0.392   0.095  -0.568
    1UNL    C34   47   0.630  -0.119  -0.225
    1UNL    O12   48   0.649  -0.166  -0.096
    1UNL    C35   49   0.574  -0.106   0.007
    1UNL    O13   50   0.596  -0.172   0.133
    1UNL    C36   51   0.506  -0.142   0.239
    1UNL    O14   52   0.374  -0.188   0.207
    1UNL    C37   53   0.272  -0.166   0.310
    1UNL    C38   54   0.209  -0.295   0.355
    1UNL    O15   55   0.099  -0.272   0.445
    1UNL    C39   56   0.312  -0.084   0.441
    1UNL    O16   57   0.203  -0.046   0.519
    1UNL    C40   58   0.385   0.036   0.383
    1UNL    O17   59   0.293   0.122   0.319
    1UNL    C41   60   0.499   0.005   0.287
    1UNL    O18   61   0.495   0.082   0.173
    1UNL    C42   62   0.426  -0.114  -0.037
    1UNL    C43   63   0.358  -0.244  -0.055
    1UNL    C44   64   0.384  -0.342  -0.141
    1UNL     H1   65  -0.511   0.069  -0.270
    1UNL     H2   66  -0.516  -0.051  -0.416
    1UNL     H3   67  -0.311  -0.141  -0.358
    1UNL     H4   68  -0.253   0.091  -0.188
    1UNL     H5   69  -0.300  -0.009   0.038
    1UNL     H6   70  -0.574  -0.092   0.032
    1UNL     H7   71  -0.597   0.256  -0.004
    1UNL     H8   72  -0.889   0.291   0.043
    1UNL     H9   73  -0.820   0.264  -0.121
    1UNL    H10   74  -0.836   0.497  -0.053
    1UNL    H11   75  -0.763   0.269   0.254
    1UNL    H12   76  -0.629   0.434   0.154
    1UNL    H13   77  -0.653   0.057   0.312
    1UNL    H14   78  -0.512   0.282   0.374
    1UNL    H15   79  -0.413   0.148   0.140
    1UNL    H16   80  -0.390  -0.014   0.339
    1UNL    H17   81  -0.293  -0.341  -0.011
    1UNL    H18   82   0.104  -0.522  -0.095
    1UNL    H19   83  -0.031  -0.635  -0.037
    1UNL    H20   84   0.060  -0.511   0.062
    1UNL    H21   85  -0.074  -0.031  -0.084
    1UNL    H22   86   0.059  -0.149  -0.252
    1UNL    H23   87  -0.104  -0.154  -0.361
    1UNL    H24   88   0.062   0.014  -0.416
    1UNL    H25   89  -0.092   0.097  -0.383
    1UNL    H26   90   0.062   0.354  -0.304
    1UNL    H27   91  -0.101   0.271  -0.242
    1UNL    H28   92   0.148   0.386  -0.088
    1UNL    H29   93  -0.029   0.407  -0.066
    1UNL    H30   94   0.112  -0.094   0.036
    1UNL    H31   95  -0.031  -0.118   0.285
    1UNL    H32   96  -0.187   0.008   0.411
    1UNL    H33   97  -0.207   0.253   0.389
    1UNL    H34   98  -0.129   0.357   0.181
    1UNL    H35   99   0.262   0.184  -0.182
    1UNL    H36  100   0.256  -0.048  -0.310
    1UNL    H37  101   0.212  -0.104  -0.146
    1UNL    H38  102   0.431   0.080  -0.125
    1UNL    H39  103   0.367   0.005  -0.627
    1UNL    H40  104   0.317   0.175  -0.583
    1UNL    H41  105   0.489   0.132  -0.607
    1UNL    H42  106   0.703  -0.159  -0.298
    1UNL    H43  107   0.608  -0.003   0.014
    1UNL    H44  108   0.532  -0.199   0.324
    1UNL    H45  109   0.184  -0.108   0.277
    1UNL    H46  110   0.173  -0.345   0.267
    1UNL    H47  111   0.282  -0.365   0.405
    1UNL    H48  112   0.124  -0.194   0.496
    1UNL    H49  113   0.375  -0.148   0.504
    1UNL    H50  114   0.157   0.037   0.485
    1UNL    H51  115   0.432   0.102   0.467
    1UNL    H52  116   0.240   0.085   0.244
    1UNL    H53  117   0.588   0.030   0.336
    1UNL    H54  118   0.458   0.168   0.175
    1UNL    H55  119   0.387  -0.066   0.051
    1UNL    H56  120   0.274  -0.261   0.011
    1UNL    H57  121   0.323  -0.425  -0.166
    1UNL    H58  122   0.479  -0.337  -0.199
   0.00000   0.00000   0.00000   0.00000   0.00000   0.00000   0.00000   0.00000   0.00000
Generated with MDTraj, t= 38.0
 122
    1UNL     C1    1  -0.463  -0.016  -0.335
    1UNL     C2    2  -0.335  -0.045  -0.309
    1UNL     C3    3  -0.275  -0.006  -0.183
    1UNL     C4    4  -0.363  -0.039  -0.055
    1UNL     O1    5  -0.478   0.051  -0.040
    1UNL     C5    6  -0.560   0.020   0.070
    1UNL     O2    7  -0.694   0.065   0.053
    1UNL     C6    8  -0.691   0.212   0.054
    1UNL     C7    9  -0.799   0.279  -0.030
    1UNL     O3   10  -0.787   0.419  -0.040
    1UNL     C8   11  -0.673   0.264   0.199
    1UNL     O4   12  -0.618   0.392   0.202
    1UNL     C9   13  -0.591   0.157   0.289
    1UNL     O5   14  -0.510   0.234   0.379
    1UNL    C10   15  -0.498   0.060   0.210
    1UNL     O6   16  -0.453  -0.047   0.291
    1UNL     O7   17  -0.392  -0.176  -0.046
    1UNL    C11   18  -0.283  -0.253  -0.046
    1UNL    C12   19  -0.162  -0.210  -0.091
    1UNL    C13   20  -0.046  -0.292  -0.065
    1UNL     O8   21   0.070  -0.258  -0.092
    1UNL     O9   22  -0.075  -0.431  -0.036
    1UNL    C14   23   0.030  -0.511  -0.004
    1UNL    C15   24  -0.140  -0.078  -0.156
    1UNL    C16   25  -0.047  -0.079  -0.277
    1UNL    C17   26  -0.007   0.052  -0.340
    1UNL     N1   27   0.073   0.140  -0.241
    1UNL    C18   28   0.030   0.283  -0.231
    1UNL    C19   29   0.044   0.335  -0.086
    1UNL    C20   30   0.076   0.220   0.012
    1UNL    C21   31   0.145   0.104  -0.017
    1UNL     N2   32   0.121   0.003   0.065
    1UNL    C22   33   0.024   0.050   0.160
    1UNL    C23   34  -0.041  -0.017   0.261
    1UNL    C24   35  -0.146   0.051   0.323
    1UNL    C25   36  -0.176   0.182   0.280
    1UNL    C26   37  -0.099   0.255   0.196
    1UNL    C27   38   0.002   0.189   0.130
    1UNL    C28   39   0.197   0.099  -0.157
    1UNL    C29   40   0.269  -0.022  -0.203
    1UNL    C30   41   0.414  -0.022  -0.158
    1UNL    C31   42   0.521  -0.048  -0.256
    1UNL    C32   43   0.510  -0.007  -0.392
    1UNL    O10   44   0.587  -0.061  -0.473
    1UNL    O11   45   0.413   0.082  -0.419
    1UNL    C33   46   0.399   0.099  -0.557
    1UNL    C34   47   0.628  -0.124  -0.221
    1UNL    O12   48   0.664  -0.184  -0.101
    1UNL    C35   49   0.582  -0.127   0.007
    1UNL    O13   50   0.587  -0.196   0.129
    1UNL    C36   51   0.484  -0.155   0.219
    1UNL    O14   52   0.346  -0.188   0.194
    1UNL    C37   53   0.253  -0.169   0.313
    1UNL    C38   54   0.192  -0.304   0.356
    1UNL    O15   55   0.071  -0.282   0.425
    1UNL    C39   56   0.315  -0.080   0.426
    1UNL    O16   57   0.221  -0.047   0.525
    1UNL    C40   58   0.392   0.041   0.366
    1UNL    O17   59   0.307   0.136   0.300
    1UNL    C41   60   0.502  -0.006   0.263
    1UNL    O18   61   0.494   0.080   0.150
    1UNL    C42   62   0.434  -0.118  -0.045
    1UNL    C43   63   0.370  -0.256  -0.074
    1UNL    C44   64   0.431  -0.358  -0.131
    1UNL     H1   65  -0.517   0.064  -0.284
    1UNL     H2   66  -0.514  -0.061  -0.416
    1UNL     H3   67  -0.282  -0.104  -0.379
    1UNL     H4   68  -0.262   0.100  -0.189
    1UNL     H5   69  -0.296  -0.015   0.034
    1UNL     H6   70  -0.570  -0.093   0.065
    1UNL     H7   71  -0.596   0.232   0.011
    1UNL     H8   72  -0.893   0.254   0.017
    1UNL     H9   73  -0.794   0.240  -0.132
    1UNL    H10   74  -0.835   0.452  -0.118
    1UNL    H11   75  -0.784   0.275   0.238
    1UNL    H12   76  -0.656   0.440   0.121
    1UNL    H13   77  -0.663   0.111   0.356
    1UNL    H14   78  -0.497   0.325   0.337
    1UNL    H15   79  -0.403   0.112   0.187
    1UNL    H16   80  -0.531  -0.097   0.339
    1UNL    H17   81  -0.304  -0.357  -0.021
    1UNL    H18   82   0.119  -0.493  -0.067
    1UNL    H19   83  -0.010  -0.614  -0.023
    1UNL    H20   84   0.059  -0.499   0.095
    1UNL    H21   85  -0.090  -0.028  -0.073
    1UNL    H22   86   0.047  -0.128  -0.243
    1UNL    H23   87  -0.094  -0.152  -0.357
    1UNL    H24   88   0.052   0.042  -0.427
    1UNL    H25   89  -0.098   0.111  -0.369
    1UNL    H26   90   0.106   0.343  -0.286
    1UNL    H27   91  -0.078   0.298  -0.268
    1UNL    H28   92   0.120   0.421  -0.074
    1UNL    H29   93  -0.047   0.371  -0.047
    1UNL    H30   94   0.132  -0.090   0.022
    1UNL    H31   95  -0.050  -0.124   0.256
    1UNL    H32   96  -0.202   0.005   0.406
    1UNL    H33   97  -0.257   0.227   0.327
    1UNL    H34   98  -0.123   0.354   0.176
    1UNL    H35   99   0.253   0.189  -0.182
    1UNL    H36  100   0.269  -0.033  -0.312
    1UNL    H37  101   0.219  -0.101  -0.157
    1UNL    H38  102   0.427   0.088  -0.129
    1UNL    H39  103   0.380   0.007  -0.614
    1UNL    H40  104   0.318   0.174  -0.571
    1UNL    H41  105   0.492   0.138  -0.600
    1UNL    H42  106   0.708  -0.132  -0.303
    1UNL    H43  107   0.619  -0.024   0.022
    1UNL    H44  108   0.509  -0.208   0.306
    1UNL    H45  109   0.169  -0.109   0.279
    1UNL    H46  110   0.176  -0.369   0.269
    1UNL    H47  111   0.265  -0.363   0.422
    1UNL    H48  112   0.092  -0.228   0.507
    1UNL    H49  113   0.387  -0.147   0.472
    1UNL    H50  114   0.207   0.051   0.530
    1UNL    H51  115   0.451   0.086   0.458
    1UNL    H52  116   0.264   0.100   0.214
    1UNL    H53  117   0.594   0.002   0.319
    1UNL    H54  118   0.506   0.182   0.168
    1UNL    H55  119   0.384  -0.080   0.042
    1UNL    H56  120   0.269  -0.280  -0.045
    1UNL    H57  121   0.400  -0.462  -0.133
    1UNL    H58  122   0.529  -0.345  -0.162
   0.00000   0.00000   0.00000   0.00000   0.00000   0.00000   0.00000   0.00000   0.00000
Generated with MDTraj, t= 39.0
 122
    1UNL     C1    1  -0.470   0.005  -0.293
    1UNL     C2    2  -0.350  -0.050  -0.281
    1UNL     C3    3  -0.265   0.001  -0.164
    1UNL     C4    4  -0.345  -0.023  -0.036
    1UNL     O1    5  -0.462   0.062  -0.029
    1UNL     C5    6  -0.552   0.022   0.073
    1UNL     O2    7  -0.689   0.053   0.053
    1UNL     C6    8  -0.688   0.201   0.047
    1UNL     C7    9  -0.814   0.259  -0.021
    1UNL     O3   10  -0.810   0.401  -0.039
    1UNL     C8   11  -0.677   0.267   0.188
    1UNL     O4   12  -0.634   0.397   0.169
    1UNL     C9   13  -0.586   0.183   0.284
    1UNL     O5   14  -0.508   0.269   0.358
    1UNL    C10   15  -0.503   0.064   0.216
    1UNL     O6   16  -0.481  -0.048   0.298
    1UNL     O7   17  -0.377  -0.160  -0.024
    1UNL    C11   18  -0.267  -0.231  -0.037
    1UNL    C12   19  -0.145  -0.202  -0.090
    1UNL    C13   20  -0.028  -0.284  -0.062
    1UNL     O8   21   0.081  -0.241  -0.094
    1UNL     O9   22  -0.048  -0.408   0.001
    1UNL    C14   23   0.067  -0.486   0.008
    1UNL    C15   24  -0.127  -0.064  -0.145
    1UNL    C16   25  -0.049  -0.065  -0.279
    1UNL    C17   26  -0.000   0.071  -0.337
    1UNL     N1   27   0.084   0.162  -0.252
    1UNL    C18   28   0.019   0.294  -0.220
    1UNL    C19   29   0.030   0.337  -0.072
    1UNL    C20   30   0.060   0.221   0.021
    1UNL    C21   31   0.139   0.107  -0.026
    1UNL     N2   32   0.096  -0.007   0.045
    1UNL    C22   33   0.008   0.038   0.141
    1UNL    C23   34  -0.068  -0.034   0.239
    1UNL    C24   35  -0.159   0.028   0.318
    1UNL    C25   36  -0.187   0.164   0.293
    1UNL    C26   37  -0.126   0.234   0.201
    1UNL    C27   38  -0.021   0.175   0.128
    1UNL    C28   39   0.191   0.112  -0.164
    1UNL    C29   40   0.265  -0.017  -0.210
    1UNL    C30   41   0.407  -0.040  -0.159
    1UNL    C31   42   0.512  -0.068  -0.268
    1UNL    C32   43   0.515  -0.014  -0.403
    1UNL    O10   44   0.602  -0.055  -0.485
    1UNL    O11   45   0.422   0.084  -0.434
    1UNL    C33   46   0.437   0.134  -0.565
    1UNL    C34   47   0.627  -0.129  -0.234
    1UNL    O12   48   0.661  -0.172  -0.106
    1UNL    C35   49   0.568  -0.145   0.000
    1UNL    O13   50   0.587  -0.206   0.127
    1UNL    C36   51   0.494  -0.174   0.231
    1UNL    O14   52   0.354  -0.222   0.212
    1UNL    C37   53   0.250  -0.181   0.311
    1UNL    C38   54   0.179  -0.306   0.361
    1UNL    O15   55   0.080  -0.273   0.454
    1UNL    C39   56   0.308  -0.084   0.419
    1UNL    O16   57   0.200  -0.025   0.484
    1UNL    C40   58   0.400   0.031   0.367
    1UNL    O17   59   0.323   0.141   0.306
    1UNL    C41   60   0.503  -0.016   0.259
    1UNL    O18   61   0.470   0.065   0.143
    1UNL    C42   62   0.423  -0.156  -0.054
    1UNL    C43   63   0.386  -0.297  -0.110
    1UNL    C44   64   0.473  -0.394  -0.110
    1UNL     H1   65  -0.504   0.072  -0.215
    1UNL     H2   66  -0.540  -0.025  -0.368
    1UNL     H3   67  -0.315  -0.082  -0.379
    1UNL     H4   68  -0.253   0.109  -0.181
    1UNL     H5   69  -0.282   0.001   0.056
    1UNL     H6   70  -0.552  -0.091   0.071
    1UNL     H7   71  -0.600   0.227  -0.005
    1UNL     H8   72  -0.907   0.241   0.034
    1UNL     H9   73  -0.819   0.213  -0.120
    1UNL    H10   74  -0.876   0.426  -0.110
    1UNL    H11   75  -0.787   0.274   0.229
    1UNL    H12   76  -0.682   0.443   0.098
    1UNL    H13   77  -0.656   0.135   0.356
    1UNL    H14   78  -0.530   0.360   0.335
    1UNL    H15   79  -0.399   0.096   0.198
    1UNL    H16   80  -0.427  -0.116   0.252
    1UNL    H17   81  -0.266  -0.326   0.033
    1UNL    H18   82   0.075  -0.558  -0.078
    1UNL    H19   83   0.062  -0.556   0.095
    1UNL    H20   84   0.152  -0.425   0.017
    1UNL    H21   85  -0.070  -0.010  -0.064
    1UNL    H22   86   0.034  -0.129  -0.269
    1UNL    H23   87  -0.111  -0.116  -0.358
    1UNL    H24   88   0.063   0.059  -0.422
    1UNL    H25   89  -0.083   0.132  -0.372
    1UNL    H26   90   0.057   0.367  -0.294
    1UNL    H27   91  -0.096   0.289  -0.232
    1UNL    H28   92   0.124   0.401  -0.053
    1UNL    H29   93  -0.052   0.395  -0.035
    1UNL    H30   94   0.087  -0.110   0.022
    1UNL    H31   95  -0.065  -0.142   0.230
    1UNL    H32   96  -0.221  -0.027   0.386
    1UNL    H33   97  -0.255   0.213   0.366
    1UNL    H34   98  -0.129   0.342   0.193
    1UNL    H35   99   0.268   0.189  -0.158
    1UNL    H36  100   0.266  -0.012  -0.317
    1UNL    H37  101   0.203  -0.103  -0.180
    1UNL    H38  102   0.429   0.055  -0.102
    1UNL    H39  103   0.432   0.066  -0.650
    1UNL    H40  104   0.364   0.216  -0.574
    1UNL    H41  105   0.537   0.173  -0.573
    1UNL    H42  106   0.695  -0.135  -0.311
    1UNL    H43  107   0.585  -0.033   0.017
    1UNL    H44  108   0.537  -0.231   0.309
    1UNL    H45  109   0.184  -0.111   0.259
    1UNL    H46  110   0.143  -0.373   0.279
    1UNL    H47  111   0.255  -0.370   0.417
    1UNL    H48  112   0.103  -0.185   0.489
    1UNL    H49  113   0.362  -0.142   0.489
    1UNL    H50  114   0.143   0.026   0.426
    1UNL    H51  115   0.465   0.067   0.460
    1UNL    H52  116   0.269   0.101   0.233
    1UNL    H53  117   0.605   0.001   0.300
    1UNL    H54  118   0.458   0.159   0.159
    1UNL    H55  119   0.361  -0.146   0.034
    1UNL    H56  120   0.300  -0.310  -0.175
    1UNL    H57  121   0.469  -0.481  -0.178
    1UNL    H58  122   0.560  -0.373  -0.055
   0.00000   0.00000   0.00000   0.00000   0.00000   0.00000   0.00000   0.00000   0.00000
Generated with MDTraj, t= 40.0
 122
    1UNL     C1    1  -0.462   0.009  -0.289
    1UNL     C2    2  -0.350  -0.053  -0.258
    1UNL     C3    3  -0.260   0.011  -0.159
    1UNL     C4    4  -0.328   0.012  -0.024
    1UNL     O1    5  -0.459   0.079  -0.029
    1UNL     C5    6  -0.544   0.029   0.072
    1UNL     O2    7  -0.682   0.064   0.044
    1UNL     C6    8  -0.685   0.206   0.035
    1UNL     C7    9  -0.825   0.239  -0.023
    1UNL     O3   10  -0.844   0.378  -0.042
    1UNL     C8   11  -0.680   0.270   0.180
    1UNL     O4   12  -0.642   0.402   0.158
    1UNL     C9   13  -0.582   0.189   0.273
    1UNL     O5   14  -0.493   0.276   0.335
    1UNL    C10   15  -0.491   0.070   0.211
    1UNL     O6   16  -0.485  -0.048   0.289
    1UNL     O7   17  -0.342  -0.123   0.030
    1UNL    C11   18  -0.231  -0.202   0.006
    1UNL    C12   19  -0.124  -0.178  -0.071
    1UNL    C13   20  -0.006  -0.268  -0.063
    1UNL     O8   21   0.093  -0.241  -0.128
    1UNL     O9   22  -0.030  -0.380   0.011
    1UNL    C14   23   0.079  -0.464   0.027
    1UNL    C15   24  -0.120  -0.051  -0.159
    1UNL    C16   25  -0.052  -0.071  -0.304
    1UNL    C17   26  -0.005   0.065  -0.342
    1UNL     N1   27   0.069   0.144  -0.244
    1UNL    C18   28   0.028   0.283  -0.215
    1UNL    C19   29   0.025   0.325  -0.066
    1UNL    C20   30   0.054   0.202   0.020
    1UNL    C21   31   0.135   0.104  -0.019
    1UNL     N2   32   0.111  -0.009   0.059
    1UNL    C22   33   0.020   0.024   0.162
    1UNL    C23   34  -0.053  -0.056   0.251
    1UNL    C24   35  -0.148   0.001   0.321
    1UNL    C25   36  -0.193   0.135   0.301
    1UNL    C26   37  -0.129   0.209   0.206
    1UNL    C27   38  -0.004   0.162   0.146
    1UNL    C28   39   0.188   0.100  -0.160
    1UNL    C29   40   0.269  -0.021  -0.218
    1UNL    C30   41   0.406  -0.041  -0.159
    1UNL    C31   42   0.516  -0.065  -0.262
    1UNL    C32   43   0.516  -0.002  -0.394
    1UNL    O10   44   0.605  -0.037  -0.473
    1UNL    O11   45   0.425   0.094  -0.426
    1UNL    C33   46   0.434   0.151  -0.554
    1UNL    C34   47   0.627  -0.137  -0.226
    1UNL    O12   48   0.644  -0.192  -0.101
    1UNL    C35   49   0.553  -0.153   0.004
    1UNL    O13   50   0.564  -0.226   0.124
    1UNL    C36   51   0.477  -0.170   0.219
    1UNL    O14   52   0.340  -0.209   0.186
    1UNL    C37   53   0.252  -0.181   0.302
    1UNL    C38   54   0.197  -0.309   0.364
    1UNL    O15   55   0.082  -0.280   0.439
    1UNL    C39   56   0.309  -0.081   0.408
    1UNL    O16   57   0.207  -0.026   0.494
    1UNL    C40   58   0.380   0.031   0.339
    1UNL    O17   59   0.276   0.117   0.269
    1UNL    C41   60   0.477  -0.013   0.234
    1UNL    O18   61   0.449   0.060   0.121
    1UNL    C42   62   0.408  -0.156  -0.058
    1UNL    C43   63   0.391  -0.298  -0.118
    1UNL    C44   64   0.448  -0.411  -0.076
    1UNL     H1   65  -0.481   0.105  -0.249
    1UNL     H2   66  -0.539  -0.033  -0.353
    1UNL     H3   67  -0.323  -0.136  -0.323
    1UNL     H4   68  -0.250   0.116  -0.197
    1UNL     H5   69  -0.264   0.064   0.053
    1UNL     H6   70  -0.546  -0.083   0.063
    1UNL     H7   71  -0.605   0.247  -0.024
    1UNL     H8   72  -0.903   0.199   0.044
    1UNL     H9   73  -0.835   0.189  -0.121
    1UNL    H10   74  -0.925   0.395  -0.097
    1UNL    H11   75  -0.788   0.275   0.222
    1UNL    H12   76  -0.703   0.448   0.093
    1UNL    H13   77  -0.640   0.145   0.359
    1UNL    H14   78  -0.489   0.370   0.297
    1UNL    H15   79  -0.391   0.106   0.189
    1UNL    H16   80  -0.410  -0.096   0.263
    1UNL    H17   81  -0.220  -0.277   0.073
    1UNL    H18   82   0.078  -0.563  -0.027
    1UNL    H19   83   0.091  -0.496   0.134
    1UNL    H20   84   0.163  -0.401   0.017
    1UNL    H21   85  -0.053   0.027  -0.102
    1UNL    H22   86   0.029  -0.141  -0.291
    1UNL    H23   87  -0.117  -0.106  -0.379
    1UNL    H24   88   0.057   0.061  -0.430
    1UNL    H25   89  -0.089   0.123  -0.366
    1UNL    H26   90   0.091   0.361  -0.264
    1UNL    H27   91  -0.072   0.299  -0.269
    1UNL    H28   92   0.103   0.406  -0.040
    1UNL    H29   93  -0.068   0.364  -0.028
    1UNL    H30   94   0.120  -0.093  -0.002
    1UNL    H31   95  -0.023  -0.157   0.273
    1UNL    H32   96  -0.210  -0.066   0.380
    1UNL    H33   97  -0.271   0.175   0.360
    1UNL    H34   98  -0.149   0.315   0.185
    1UNL    H35   99   0.255   0.187  -0.164
    1UNL    H36  100   0.271  -0.013  -0.325
    1UNL    H37  101   0.202  -0.113  -0.202
    1UNL    H38  102   0.431   0.057  -0.107
    1UNL    H39  103   0.450   0.088  -0.640
    1UNL    H40  104   0.347   0.216  -0.564
    1UNL    H41  105   0.524   0.210  -0.558
    1UNL    H42  106   0.707  -0.154  -0.295
    1UNL    H43  107   0.577  -0.041   0.026
    1UNL    H44  108   0.504  -0.220   0.309
    1UNL    H45  109   0.167  -0.128   0.259
    1UNL    H46  110   0.180  -0.391   0.291
    1UNL    H47  111   0.275  -0.353   0.437
    1UNL    H48  112   0.099  -0.203   0.496
    1UNL    H49  113   0.368  -0.141   0.471
    1UNL    H50  114   0.179   0.070   0.473
    1UNL    H51  115   0.431   0.103   0.414
    1UNL    H52  116   0.225   0.059   0.215
    1UNL    H53  117   0.580   0.019   0.270
    1UNL    H54  118   0.395   0.139   0.131
    1UNL    H55  119   0.334  -0.138   0.019
    1UNL    H56  120   0.322  -0.301  -0.201
    1UNL    H57  121   0.445  -0.495  -0.137
    1UNL    H58  122   0.526  -0.402   0.000
   0.00000   0.00000   0.00000   0.00000   0.00000   0.00000   0.00000   0.00000   0.00000
Generated with MDTraj, t= 41.0
 122
    1UNL     C1    1  -0.441  -0.031  -0.341
    1UNL     C2    2  -0.353  -0.077  -0.252
    1UNL     C3    3  -0.264   0.013  -0.176
    1UNL     C4    4  -0.319   0.039  -0.033
    1UNL     O1    5  -0.450   0.093  -0.035
    1UNL     C5    6  -0.536   0.036   0.062
    1UNL     O2    7  -0.674   0.064   0.031
    1UNL     C6    8  -0.694   0.201   0.029
    1UNL     C7    9  -0.830   0.234  -0.028
    1UNL     O3   10  -0.854   0.373  -0.032
    1UNL     C8   11  -0.685   0.266   0.172
    1UNL     O4   12  -0.666   0.408   0.167
    1UNL     C9   13  -0.578   0.194   0.265
    1UNL     O5   14  -0.481   0.294   0.313
    1UNL    C10   15  -0.497   0.073   0.210
    1UNL     O6   16  -0.485  -0.037   0.301
    1UNL     O7   17  -0.319  -0.074   0.059
    1UNL    C11   18  -0.222  -0.172   0.032
    1UNL    C12   19  -0.131  -0.175  -0.068
    1UNL    C13   20  -0.017  -0.267  -0.066
    1UNL     O8   21   0.067  -0.267  -0.154
    1UNL     O9   22  -0.018  -0.364   0.032
    1UNL    C14   23   0.094  -0.452   0.035
    1UNL    C15   24  -0.128  -0.055  -0.159
    1UNL    C16   25  -0.049  -0.065  -0.303
    1UNL    C17   26   0.001   0.069  -0.357
    1UNL     N1   27   0.090   0.153  -0.268
    1UNL    C18   28   0.040   0.286  -0.221
    1UNL    C19   29   0.012   0.298  -0.069
    1UNL    C20   30   0.051   0.184   0.014
    1UNL    C21   31   0.127   0.078  -0.034
    1UNL     N2   32   0.107  -0.030   0.050
    1UNL    C22   33   0.010   0.003   0.139
    1UNL    C23   34  -0.042  -0.077   0.240
    1UNL    C24   35  -0.130  -0.022   0.334
    1UNL    C25   36  -0.144   0.120   0.331
    1UNL    C26   37  -0.094   0.208   0.232
    1UNL    C27   38  -0.009   0.144   0.138
    1UNL    C28   39   0.186   0.098  -0.162
    1UNL    C29   40   0.265  -0.023  -0.225
    1UNL    C30   41   0.406  -0.037  -0.160
    1UNL    C31   42   0.521  -0.059  -0.261
    1UNL    C32   43   0.519   0.011  -0.392
    1UNL    O10   44   0.608  -0.000  -0.476
    1UNL    O11   45   0.419   0.098  -0.417
    1UNL    C33   46   0.412   0.166  -0.543
    1UNL    C34   47   0.621  -0.150  -0.230
    1UNL    O12   48   0.639  -0.214  -0.109
    1UNL    C35   49   0.558  -0.161  -0.007
    1UNL    O13   50   0.567  -0.218   0.121
    1UNL    C36   51   0.481  -0.160   0.217
    1UNL    O14   52   0.345  -0.215   0.194
    1UNL    C37   53   0.251  -0.184   0.304
    1UNL    C38   54   0.212  -0.312   0.377
    1UNL    O15   55   0.098  -0.291   0.459
    1UNL    C39   56   0.292  -0.083   0.406
    1UNL    O16   57   0.191  -0.034   0.491
    1UNL    C40   58   0.373   0.031   0.349
    1UNL    O17   59   0.272   0.120   0.294
    1UNL    C41   60   0.473  -0.004   0.238
    1UNL    O18   61   0.448   0.076   0.126
    1UNL    C42   62   0.416  -0.154  -0.064
    1UNL    C43   63   0.380  -0.290  -0.122
    1UNL    C44   64   0.377  -0.403  -0.052
    1UNL     H1   65  -0.421   0.069  -0.375
    1UNL     H2   66  -0.507  -0.093  -0.399
    1UNL     H3   67  -0.360  -0.178  -0.217
    1UNL     H4   68  -0.254   0.108  -0.235
    1UNL     H5   69  -0.254   0.114   0.021
    1UNL     H6   70  -0.533  -0.075   0.062
    1UNL     H7   71  -0.620   0.251  -0.034
    1UNL     H8   72  -0.905   0.190   0.039
    1UNL     H9   73  -0.844   0.180  -0.124
    1UNL    H10   74  -0.944   0.393  -0.065
    1UNL    H11   75  -0.791   0.252   0.211
    1UNL    H12   76  -0.736   0.440   0.104
    1UNL    H13   77  -0.636   0.154   0.356
    1UNL    H14   78  -0.499   0.384   0.283
    1UNL    H15   79  -0.392   0.107   0.211
    1UNL    H16   80  -0.408  -0.093   0.288
    1UNL    H17   81  -0.228  -0.257   0.103
    1UNL    H18   82   0.127  -0.484  -0.068
    1UNL    H19   83   0.063  -0.549   0.083
    1UNL    H20   84   0.160  -0.414   0.107
    1UNL    H21   85  -0.076   0.020  -0.099
    1UNL    H22   86   0.030  -0.134  -0.296
    1UNL    H23   87  -0.115  -0.110  -0.366
    1UNL    H24   88   0.042   0.063  -0.458
    1UNL    H25   89  -0.083   0.125  -0.368
    1UNL    H26   90   0.105   0.363  -0.269
    1UNL    H27   91  -0.060   0.323  -0.266
    1UNL    H28   92   0.081   0.380  -0.029
    1UNL    H29   93  -0.092   0.330  -0.051
    1UNL    H30   94   0.123  -0.125   0.028
    1UNL    H31   95  -0.021  -0.182   0.260
    1UNL    H32   96  -0.186  -0.072   0.412
    1UNL    H33   97  -0.215   0.155   0.407
    1UNL    H34   98  -0.113   0.308   0.242
    1UNL    H35   99   0.257   0.182  -0.149
    1UNL    H36  100   0.273  -0.012  -0.334
    1UNL    H37  101   0.206  -0.109  -0.206
    1UNL    H38  102   0.428   0.059  -0.102
    1UNL    H39  103   0.401   0.102  -0.631
    1UNL    H40  104   0.331   0.241  -0.536
    1UNL    H41  105   0.505   0.215  -0.570
    1UNL    H42  106   0.712  -0.179  -0.298
    1UNL    H43  107   0.592  -0.049   0.006
    1UNL    H44  108   0.513  -0.213   0.306
    1UNL    H45  109   0.167  -0.147   0.251
    1UNL    H46  110   0.192  -0.393   0.303
    1UNL    H47  111   0.300  -0.347   0.440
    1UNL    H48  112   0.105  -0.199   0.498
    1UNL    H49  113   0.357  -0.139   0.467
    1UNL    H50  114   0.160   0.045   0.448
    1UNL    H51  115   0.427   0.080   0.437
    1UNL    H52  116   0.208   0.080   0.224
    1UNL    H53  117   0.575   0.038   0.277
    1UNL    H54  118   0.380   0.155   0.141
    1UNL    H55  119   0.353  -0.132   0.024
    1UNL    H56  120   0.344  -0.282  -0.224
    1UNL    H57  121   0.335  -0.491  -0.095
    1UNL    H58  122   0.411  -0.406   0.053
   0.00000   0.00000   0.00000   0.00000   0.00000   0.00000   0.00000   0.00000   0.00000
Generated with MDTraj, t= 42.0
 122
    1UNL     C1    1  -0.412  -0.090  -0.368
    1UNL     C2    2  -0.373  -0.092  -0.243
    1UNL     C3    3  -0.276   0.010  -0.185
    1UNL     C4    4  -0.325   0.042  -0.047
    1UNL     O1    5  -0.448   0.110  -0.045
    1UNL     C5    6  -0.536   0.048   0.052
    1UNL     O2    7  -0.673   0.073   0.021
    1UNL     C6    8  -0.703   0.210   0.037
    1UNL     C7    9  -0.833   0.243  -0.023
    1UNL     O3   10  -0.856   0.379  -0.031
    1UNL     C8   11  -0.688   0.259   0.185
    1UNL     O4   12  -0.714   0.401   0.204
    1UNL     C9   13  -0.563   0.210   0.255
    1UNL     O5   14  -0.469   0.322   0.257
    1UNL    C10   15  -0.499   0.080   0.203
    1UNL     O6   16  -0.497  -0.027   0.293
    1UNL     O7   17  -0.330  -0.080   0.031
    1UNL    C11   18  -0.230  -0.169   0.014
    1UNL    C12   19  -0.139  -0.166  -0.084
    1UNL    C13   20  -0.038  -0.270  -0.071
    1UNL     O8   21   0.049  -0.268  -0.154
    1UNL     O9   22  -0.047  -0.365   0.037
    1UNL    C14   23   0.052  -0.470   0.033
    1UNL    C15   24  -0.134  -0.046  -0.172
    1UNL    C16   25  -0.071  -0.058  -0.316
    1UNL    C17   26  -0.006   0.076  -0.355
    1UNL     N1   27   0.067   0.149  -0.259
    1UNL    C18   28   0.019   0.285  -0.210
    1UNL    C19   29   0.011   0.313  -0.053
    1UNL    C20   30   0.053   0.186   0.016
    1UNL    C21   31   0.137   0.089  -0.033
    1UNL     N2   32   0.132  -0.023   0.049
    1UNL    C22   33   0.031  -0.003   0.143
    1UNL    C23   34  -0.025  -0.075   0.252
    1UNL    C24   35  -0.111  -0.016   0.344
    1UNL    C25   36  -0.141   0.115   0.330
    1UNL    C26   37  -0.092   0.191   0.224
    1UNL    C27   38  -0.004   0.131   0.133
    1UNL    C28   39   0.182   0.096  -0.179
    1UNL    C29   40   0.253  -0.035  -0.227
    1UNL    C30   41   0.396  -0.042  -0.166
    1UNL    C31   42   0.508  -0.055  -0.266
    1UNL    C32   43   0.508   0.018  -0.391
    1UNL    O10   44   0.606  -0.001  -0.465
    1UNL    O11   45   0.408   0.108  -0.419
    1UNL    C33   46   0.435   0.184  -0.535
    1UNL    C34   47   0.620  -0.124  -0.235
    1UNL    O12   48   0.652  -0.173  -0.110
    1UNL    C35   49   0.557  -0.155  -0.000
    1UNL    O13   50   0.582  -0.216   0.129
    1UNL    C36   51   0.494  -0.173   0.225
    1UNL    O14   52   0.358  -0.234   0.214
    1UNL    C37   53   0.260  -0.192   0.317
    1UNL    C38   54   0.225  -0.329   0.386
    1UNL    O15   55   0.126  -0.324   0.487
    1UNL    C39   56   0.306  -0.086   0.410
    1UNL    O16   57   0.206  -0.045   0.501
    1UNL    C40   58   0.380   0.032   0.339
    1UNL    O17   59   0.287   0.116   0.272
    1UNL    C41   60   0.487  -0.015   0.238
    1UNL    O18   61   0.480   0.069   0.118
    1UNL    C42   62   0.405  -0.156  -0.058
    1UNL    C43   63   0.359  -0.297  -0.088
    1UNL    C44   64   0.407  -0.396  -0.011
    1UNL     H1   65  -0.396   0.001  -0.427
    1UNL     H2   66  -0.471  -0.169  -0.403
    1UNL     H3   67  -0.398  -0.172  -0.171
    1UNL     H4   68  -0.276   0.099  -0.255
    1UNL     H5   69  -0.253   0.109   0.005
    1UNL     H6   70  -0.528  -0.061   0.029
    1UNL     H7   71  -0.622   0.264  -0.019
    1UNL     H8   72  -0.911   0.195   0.038
    1UNL     H9   73  -0.840   0.195  -0.124
    1UNL    H10   74  -0.945   0.399  -0.065
    1UNL    H11   75  -0.774   0.213   0.238
    1UNL    H12   76  -0.775   0.430   0.136
    1UNL    H13   77  -0.606   0.189   0.362
    1UNL    H14   78  -0.517   0.407   0.274
    1UNL    H15   79  -0.396   0.112   0.191
    1UNL    H16   80  -0.440  -0.105   0.252
    1UNL    H17   81  -0.210  -0.242   0.100
    1UNL    H18   82   0.006  -0.556  -0.021
    1UNL    H19   83   0.082  -0.500   0.134
    1UNL    H20   84   0.144  -0.443  -0.011
    1UNL    H21   85  -0.075   0.017  -0.115
    1UNL    H22   86  -0.001  -0.139  -0.309
    1UNL    H23   87  -0.131  -0.086  -0.395
    1UNL    H24   88   0.069   0.056  -0.433
    1UNL    H25   89  -0.076   0.136  -0.400
    1UNL    H26   90   0.088   0.363  -0.250
    1UNL    H27   91  -0.076   0.317  -0.266
    1UNL    H28   92   0.081   0.400  -0.034
    1UNL    H29   93  -0.094   0.342  -0.026
    1UNL    H30   94   0.136  -0.114   0.008
    1UNL    H31   95  -0.017  -0.181   0.252
    1UNL    H32   96  -0.149  -0.083   0.421
    1UNL    H33   97  -0.190   0.177   0.401
    1UNL    H34   98  -0.134   0.296   0.203
    1UNL    H35   99   0.258   0.177  -0.177
    1UNL    H36  100   0.268  -0.037  -0.337
    1UNL    H37  101   0.201  -0.120  -0.202
    1UNL    H38  102   0.417   0.050  -0.106
    1UNL    H39  103   0.435   0.119  -0.624
    1UNL    H40  104   0.355   0.262  -0.541
    1UNL    H41  105   0.535   0.229  -0.541
    1UNL    H42  106   0.692  -0.151  -0.308
    1UNL    H43  107   0.585  -0.042   0.031
    1UNL    H44  108   0.534  -0.215   0.320
    1UNL    H45  109   0.171  -0.156   0.269
    1UNL    H46  110   0.200  -0.408   0.312
    1UNL    H47  111   0.319  -0.366   0.436
    1UNL    H48  112   0.130  -0.240   0.533
    1UNL    H49  113   0.370  -0.118   0.488
    1UNL    H50  114   0.132  -0.017   0.445
    1UNL    H51  115   0.432   0.083   0.423
    1UNL    H52  116   0.246   0.065   0.192
    1UNL    H53  117   0.589   0.023   0.283
    1UNL    H54  118   0.431   0.148   0.129
    1UNL    H55  119   0.354  -0.120   0.033
    1UNL    H56  120   0.298  -0.316  -0.176
    1UNL    H57  121   0.385  -0.503  -0.023
    1UNL    H58  122   0.463  -0.374   0.074
   0.00000   0.00000   0.00000   0.00000   0.00000   0.00000   0.00000   0.00000   0.00000
Generated with MDTraj, t= 43.0
 122
    1UNL     C1    1  -0.370  -0.119  -0.389
    1UNL     C2    2  -0.378  -0.087  -0.261
    1UNL     C3    3  -0.281   0.004  -0.189
    1UNL     C4    4  -0.338   0.030  -0.045
    1UNL     O1    5  -0.463   0.101  -0.052
    1UNL     C5    6  -0.553   0.057   0.047
    1UNL     O2    7  -0.684   0.099   0.023
    1UNL     C6    8  -0.710   0.240   0.050
    1UNL     C7    9  -0.842   0.269  -0.007
    1UNL     O3   10  -0.862   0.408  -0.006
    1UNL     C8   11  -0.700   0.259   0.205
    1UNL     O4   12  -0.749   0.383   0.258
    1UNL     C9   13  -0.552   0.236   0.229
    1UNL     O5   14  -0.482   0.340   0.161
    1UNL    C10   15  -0.503   0.097   0.189
    1UNL     O6   16  -0.560   0.004   0.277
    1UNL     O7   17  -0.350  -0.092   0.033
    1UNL    C11   18  -0.245  -0.169   0.013
    1UNL    C12   19  -0.145  -0.170  -0.079
    1UNL    C13   20  -0.039  -0.276  -0.070
    1UNL     O8   21   0.065  -0.257  -0.128
    1UNL     O9   22  -0.069  -0.393  -0.005
    1UNL    C14   23   0.038  -0.477   0.015
    1UNL    C15   24  -0.137  -0.055  -0.174
    1UNL    C16   25  -0.062  -0.079  -0.315
    1UNL    C17   26   0.010   0.053  -0.366
    1UNL     N1   27   0.064   0.139  -0.260
    1UNL    C18   28  -0.014   0.257  -0.205
    1UNL    C19   29   0.027   0.295  -0.064
    1UNL    C20   30   0.051   0.177   0.020
    1UNL    C21   31   0.134   0.079  -0.029
    1UNL     N2   32   0.113  -0.029   0.052
    1UNL    C22   33   0.018  -0.000   0.155
    1UNL    C23   34  -0.052  -0.077   0.248
    1UNL    C24   35  -0.144  -0.018   0.331
    1UNL    C25   36  -0.169   0.121   0.331
    1UNL    C26   37  -0.107   0.192   0.231
    1UNL    C27   38  -0.021   0.137   0.140
    1UNL    C28   39   0.181   0.098  -0.175
    1UNL    C29   40   0.256  -0.024  -0.217
    1UNL    C30   41   0.402  -0.029  -0.158
    1UNL    C31   42   0.513  -0.058  -0.257
    1UNL    C32   43   0.512   0.015  -0.384
    1UNL    O10   44   0.599  -0.006  -0.470
    1UNL    O11   45   0.415   0.113  -0.396
    1UNL    C33   46   0.421   0.181  -0.521
    1UNL    C34   47   0.612  -0.150  -0.236
    1UNL    O12   48   0.649  -0.201  -0.115
    1UNL    C35   49   0.578  -0.140  -0.010
    1UNL    O13   50   0.598  -0.201   0.111
    1UNL    C36   51   0.519  -0.159   0.223
    1UNL    O14   52   0.380  -0.207   0.211
    1UNL    C37   53   0.288  -0.190   0.331
    1UNL    C38   54   0.272  -0.339   0.388
    1UNL    O15   55   0.166  -0.337   0.483
    1UNL    C39   56   0.336  -0.090   0.439
    1UNL    O16   57   0.232  -0.050   0.520
    1UNL    C40   58   0.406   0.033   0.364
    1UNL    O17   59   0.302   0.099   0.286
    1UNL    C41   60   0.516  -0.008   0.260
    1UNL    O18   61   0.493   0.062   0.137
    1UNL    C42   62   0.425  -0.143  -0.052
    1UNL    C43   63   0.384  -0.274  -0.109
    1UNL    C44   64   0.424  -0.384  -0.049
    1UNL     H1   65  -0.339  -0.046  -0.462
    1UNL     H2   66  -0.436  -0.194  -0.432
    1UNL     H3   67  -0.438  -0.148  -0.199
    1UNL     H4   68  -0.265   0.105  -0.243
    1UNL     H5   69  -0.270   0.099   0.003
    1UNL     H6   70  -0.556  -0.053   0.036
    1UNL     H7   71  -0.621   0.293  -0.001
    1UNL     H8   72  -0.920   0.214   0.047
    1UNL     H9   73  -0.843   0.233  -0.111
    1UNL    H10   74  -0.943   0.436  -0.057
    1UNL    H11   75  -0.752   0.179   0.256
    1UNL    H12   76  -0.809   0.426   0.188
    1UNL    H13   77  -0.535   0.237   0.346
    1UNL    H14   78  -0.526   0.428   0.178
    1UNL    H15   79  -0.396   0.099   0.191
    1UNL    H16   80  -0.523  -0.093   0.265
    1UNL    H17   81  -0.247  -0.247   0.075
    1UNL    H18   82   0.046  -0.533  -0.081
    1UNL    H19   83   0.010  -0.532   0.105
    1UNL    H20   84   0.136  -0.440   0.033
    1UNL    H21   85  -0.081   0.013  -0.117
    1UNL    H22   86   0.018  -0.154  -0.311
    1UNL    H23   87  -0.137  -0.126  -0.381
    1UNL    H24   88   0.089   0.022  -0.433
    1UNL    H25   89  -0.057   0.110  -0.422
    1UNL    H26   90   0.005   0.343  -0.275
    1UNL    H27   91  -0.127   0.250  -0.216
    1UNL    H28   92   0.125   0.348  -0.078
    1UNL    H29   93  -0.055   0.367  -0.033
    1UNL    H30   94   0.119  -0.121   0.009
    1UNL    H31   95  -0.056  -0.185   0.231
    1UNL    H32   96  -0.206  -0.076   0.397
    1UNL    H33   97  -0.217   0.172   0.416
    1UNL    H34   98  -0.124   0.296   0.220
    1UNL    H35   99   0.253   0.183  -0.175
    1UNL    H36  100   0.263  -0.027  -0.326
    1UNL    H37  101   0.204  -0.119  -0.188
    1UNL    H38  102   0.418   0.071  -0.112
    1UNL    H39  103   0.451   0.111  -0.600
    1UNL    H40  104   0.314   0.213  -0.533
    1UNL    H41  105   0.486   0.268  -0.535
    1UNL    H42  106   0.670  -0.178  -0.317
    1UNL    H43  107   0.616  -0.026  -0.007
    1UNL    H44  108   0.568  -0.204   0.315
    1UNL    H45  109   0.188  -0.171   0.292
    1UNL    H46  110   0.249  -0.410   0.307
    1UNL    H47  111   0.359  -0.376   0.443
    1UNL    H48  112   0.182  -0.256   0.542
    1UNL    H49  113   0.401  -0.136   0.509
    1UNL    H50  114   0.157  -0.019   0.459
    1UNL    H51  115   0.447   0.102   0.436
    1UNL    H52  116   0.242   0.038   0.242
    1UNL    H53  117   0.618   0.038   0.290
    1UNL    H54  118   0.421   0.128   0.149
    1UNL    H55  119   0.364  -0.117   0.036
    1UNL    H56  120   0.321  -0.287  -0.194
    1UNL    H57  121   0.404  -0.483  -0.092
    1UNL    H58  122   0.489  -0.379   0.035
   0.00000   0.00000   0.00000   0.00000   0.00000   0.00000   0.00000   0.00000   0.00000
Generated with MDTraj, t= 44.0
 122
    1UNL     C1    1  -0.371  -0.089  -0.405
    1UNL     C2    2  -0.350  -0.096  -0.276
    1UNL     C3    3  -0.280  -0.012  -0.183
    1UNL     C4    4  -0.356   0.003  -0.049
    1UNL     O1    5  -0.475   0.089  -0.069
    1UNL     C5    6  -0.572   0.071   0.029
    1UNL     O2    7  -0.707   0.117   0.001
    1UNL     C6    8  -0.725   0.259   0.037
    1UNL     C7    9  -0.870   0.286   0.013
    1UNL     O3   10  -0.899   0.424   0.032
    1UNL     C8   11  -0.693   0.279   0.192
    1UNL     O4   12  -0.716   0.413   0.236
    1UNL     C9   13  -0.541   0.249   0.212
    1UNL     O5   14  -0.458   0.330   0.126
    1UNL    C10   15  -0.521   0.100   0.178
    1UNL     O6   16  -0.593   0.011   0.274
    1UNL     O7   17  -0.376  -0.122   0.022
    1UNL    C11   18  -0.268  -0.205   0.010
    1UNL    C12   19  -0.157  -0.189  -0.063
    1UNL    C13   20  -0.047  -0.291  -0.055
    1UNL     O8   21   0.065  -0.266  -0.100
    1UNL     O9   22  -0.078  -0.420  -0.008
    1UNL    C14   23   0.033  -0.508  -0.000
    1UNL    C15   24  -0.139  -0.065  -0.149
    1UNL    C16   25  -0.042  -0.079  -0.276
    1UNL    C17   26   0.012   0.046  -0.348
    1UNL     N1   27   0.074   0.145  -0.254
    1UNL    C18   28   0.004   0.281  -0.208
    1UNL    C19   29   0.005   0.309  -0.054
    1UNL    C20   30   0.047   0.195   0.032
    1UNL    C21   31   0.127   0.094  -0.017
    1UNL     N2   32   0.126  -0.015   0.073
    1UNL    C22   33   0.026   0.007   0.164
    1UNL    C23   34  -0.041  -0.079   0.262
    1UNL    C24   35  -0.146  -0.027   0.335
    1UNL    C25   36  -0.193   0.105   0.300
    1UNL    C26   37  -0.137   0.188   0.210
    1UNL    C27   38  -0.024   0.135   0.144
    1UNL    C28   39   0.182   0.098  -0.155
    1UNL    C29   40   0.263  -0.019  -0.209
    1UNL    C30   41   0.409  -0.036  -0.158
    1UNL    C31   42   0.522  -0.041  -0.259
    1UNL    C32   43   0.502   0.023  -0.387
    1UNL    O10   44   0.584  -0.016  -0.473
    1UNL    O11   45   0.406   0.120  -0.399
    1UNL    C33   46   0.420   0.175  -0.526
    1UNL    C34   47   0.640  -0.107  -0.236
    1UNL    O12   48   0.659  -0.177  -0.123
    1UNL    C35   49   0.577  -0.140  -0.011
    1UNL    O13   50   0.599  -0.214   0.100
    1UNL    C36   51   0.511  -0.167   0.209
    1UNL    O14   52   0.367  -0.191   0.190
    1UNL    C37   53   0.305  -0.197   0.328
    1UNL    C38   54   0.298  -0.340   0.381
    1UNL    O15   55   0.225  -0.331   0.504
    1UNL    C39   56   0.355  -0.103   0.432
    1UNL    O16   57   0.255  -0.063   0.521
    1UNL    C40   58   0.412   0.019   0.359
    1UNL    O17   59   0.309   0.101   0.300
    1UNL    C41   60   0.519  -0.016   0.254
    1UNL    O18   61   0.510   0.073   0.142
    1UNL    C42   62   0.429  -0.154  -0.055
    1UNL    C43   63   0.385  -0.294  -0.094
    1UNL    C44   64   0.432  -0.404  -0.035
    1UNL     H1   65  -0.327  -0.019  -0.470
    1UNL     H2   66  -0.435  -0.159  -0.457
    1UNL     H3   67  -0.422  -0.165  -0.225
    1UNL     H4   68  -0.268   0.098  -0.223
    1UNL     H5   69  -0.289   0.060   0.012
    1UNL     H6   70  -0.581  -0.039   0.026
    1UNL     H7   71  -0.659   0.324  -0.032
    1UNL     H8   72  -0.933   0.228   0.080
    1UNL     H9   73  -0.897   0.261  -0.090
    1UNL    H10   74  -0.993   0.443   0.003
    1UNL    H11   75  -0.760   0.220   0.250
    1UNL    H12   76  -0.799   0.441   0.197
    1UNL    H13   77  -0.512   0.272   0.324
    1UNL    H14   78  -0.487   0.421   0.125
    1UNL    H15   79  -0.417   0.078   0.184
    1UNL    H16   80  -0.586  -0.084   0.249
    1UNL    H17   81  -0.292  -0.297   0.076
    1UNL    H18   82   0.112  -0.471  -0.069
    1UNL    H19   83  -0.007  -0.608  -0.017
    1UNL    H20   84   0.079  -0.514   0.095
    1UNL    H21   85  -0.089   0.006  -0.084
    1UNL    H22   86   0.033  -0.157  -0.246
    1UNL    H23   87  -0.098  -0.135  -0.363
    1UNL    H24   88   0.085   0.018  -0.421
    1UNL    H25   89  -0.068   0.089  -0.406
    1UNL    H26   90   0.037   0.366  -0.276
    1UNL    H27   91  -0.102   0.271  -0.244
    1UNL    H28   92   0.075   0.395  -0.047
    1UNL    H29   93  -0.098   0.347  -0.019
    1UNL    H30   94   0.153  -0.107   0.030
    1UNL    H31   95  -0.007  -0.179   0.262
    1UNL    H32   96  -0.203  -0.079   0.410
    1UNL    H33   97  -0.282   0.140   0.345
    1UNL    H34   98  -0.153   0.294   0.214
    1UNL    H35   99   0.251   0.185  -0.157
    1UNL    H36  100   0.267  -0.008  -0.316
    1UNL    H37  101   0.203  -0.117  -0.193
    1UNL    H38  102   0.420   0.062  -0.106
    1UNL    H39  103   0.375   0.107  -0.597
    1UNL    H40  104   0.358   0.265  -0.521
    1UNL    H41  105   0.520   0.197  -0.561
    1UNL    H42  106   0.722  -0.103  -0.318
    1UNL    H43  107   0.605  -0.024   0.005
    1UNL    H44  108   0.539  -0.227   0.304
    1UNL    H45  109   0.203  -0.167   0.304
    1UNL    H46  110   0.254  -0.414   0.315
    1UNL    H47  111   0.397  -0.369   0.406
    1UNL    H48  112   0.217  -0.238   0.526
    1UNL    H49  113   0.427  -0.155   0.496
    1UNL    H50  114   0.200   0.009   0.489
    1UNL    H51  115   0.453   0.085   0.430
    1UNL    H52  116   0.261   0.060   0.221
    1UNL    H53  117   0.624   0.011   0.287
    1UNL    H54  118   0.441   0.148   0.167
    1UNL    H55  119   0.366  -0.115   0.027
    1UNL    H56  120   0.289  -0.312  -0.143
    1UNL    H57  121   0.388  -0.496  -0.055
    1UNL    H58  122   0.526  -0.402   0.022
   0.00000   0.00000   0.00000   0.00000   0.00000   0.00000   0.00000   0.00000   0.00000
Generated with MDTraj, t= 45.0
 122
    1UNL     C1    1  -0.370  -0.039  -0.414
    1UNL     C2    2  -0.344  -0.086  -0.292
    1UNL     C3    3  -0.278   0.000  -0.184
    1UNL     C4    4  -0.364   0.001  -0.050
    1UNL     O1    5  -0.486   0.079  -0.068
    1UNL     C5    6  -0.583   0.053   0.028
    1UNL     O2    7  -0.721   0.107   0.005
    1UNL     C6    8  -0.735   0.248   0.025
    1UNL     C7    9  -0.881   0.292   0.006
    1UNL     O3   10  -0.894   0.419   0.060
    1UNL     C8   11  -0.672   0.299   0.158
    1UNL     O4   12  -0.656   0.440   0.150
    1UNL     C9   13  -0.533   0.235   0.196
    1UNL     O5   14  -0.419   0.301   0.148
    1UNL    C10   15  -0.531   0.080   0.169
    1UNL     O6   16  -0.607   0.010   0.275
    1UNL     O7   17  -0.393  -0.132  -0.010
    1UNL    C11   18  -0.290  -0.218  -0.012
    1UNL    C12   19  -0.166  -0.192  -0.059
    1UNL    C13   20  -0.056  -0.291  -0.038
    1UNL     O8   21   0.061  -0.257  -0.057
    1UNL     O9   22  -0.104  -0.419   0.002
    1UNL    C14   23  -0.000  -0.513   0.003
    1UNL    C15   24  -0.142  -0.063  -0.134
    1UNL    C16   25  -0.049  -0.082  -0.250
    1UNL    C17   26  -0.007   0.049  -0.320
    1UNL     N1   27   0.065   0.145  -0.241
    1UNL    C18   28   0.023   0.287  -0.202
    1UNL    C19   29  -0.009   0.295  -0.058
    1UNL    C20   30   0.044   0.189   0.029
    1UNL    C21   31   0.129   0.094  -0.020
    1UNL     N2   32   0.127  -0.014   0.071
    1UNL    C22   33   0.024   0.007   0.166
    1UNL    C23   34  -0.037  -0.076   0.260
    1UNL    C24   35  -0.132  -0.035   0.338
    1UNL    C25   36  -0.200   0.087   0.307
    1UNL    C26   37  -0.146   0.169   0.207
    1UNL    C27   38  -0.024   0.138   0.144
    1UNL    C28   39   0.179   0.102  -0.158
    1UNL    C29   40   0.260  -0.014  -0.210
    1UNL    C30   41   0.405  -0.017  -0.154
    1UNL    C31   42   0.512  -0.028  -0.264
    1UNL    C32   43   0.498   0.023  -0.397
    1UNL    O10   44   0.575  -0.011  -0.488
    1UNL    O11   45   0.400   0.118  -0.406
    1UNL    C33   46   0.402   0.175  -0.534
    1UNL    C34   47   0.618  -0.110  -0.247
    1UNL    O12   48   0.659  -0.178  -0.138
    1UNL    C35   49   0.590  -0.135  -0.019
    1UNL    O13   50   0.610  -0.200   0.107
    1UNL    C36   51   0.522  -0.163   0.219
    1UNL    O14   52   0.389  -0.224   0.214
    1UNL    C37   53   0.323  -0.215   0.344
    1UNL    C38   54   0.312  -0.354   0.402
    1UNL    O15   55   0.240  -0.353   0.525
    1UNL    C39   56   0.360  -0.100   0.434
    1UNL    O16   57   0.252  -0.059   0.515
    1UNL    C40   58   0.428   0.028   0.372
    1UNL    O17   59   0.329   0.118   0.314
    1UNL    C41   60   0.524  -0.008   0.258
    1UNL    O18   61   0.499   0.068   0.143
    1UNL    C42   62   0.437  -0.133  -0.053
    1UNL    C43   63   0.398  -0.266  -0.108
    1UNL    C44   64   0.424  -0.384  -0.049
    1UNL     H1   65  -0.339   0.063  -0.440
    1UNL     H2   66  -0.411  -0.077  -0.506
    1UNL     H3   67  -0.360  -0.186  -0.268
    1UNL     H4   68  -0.269   0.114  -0.217
    1UNL     H5   69  -0.302   0.036   0.028
    1UNL     H6   70  -0.594  -0.057   0.016
    1UNL     H7   71  -0.675   0.292  -0.063
    1UNL     H8   72  -0.943   0.224   0.065
    1UNL     H9   73  -0.913   0.290  -0.099
    1UNL    H10   74  -0.988   0.443   0.058
    1UNL    H11   75  -0.741   0.281   0.236
    1UNL    H12   76  -0.733   0.481   0.103
    1UNL    H13   77  -0.523   0.246   0.314
    1UNL    H14   78  -0.444   0.394   0.121
    1UNL    H15   79  -0.431   0.047   0.174
    1UNL    H16   80  -0.636  -0.072   0.241
    1UNL    H17   81  -0.298  -0.307   0.051
    1UNL    H18   82   0.044  -0.530  -0.098
    1UNL    H19   83  -0.053  -0.602   0.041
    1UNL    H20   84   0.080  -0.473   0.060
    1UNL    H21   85  -0.094   0.019  -0.074
    1UNL    H22   86   0.045  -0.127  -0.213
    1UNL    H23   87  -0.093  -0.173  -0.316
    1UNL    H24   88   0.052   0.021  -0.403
    1UNL    H25   89  -0.091   0.106  -0.365
    1UNL    H26   90   0.111   0.352  -0.232
    1UNL    H27   91  -0.055   0.315  -0.278
    1UNL    H28   92   0.008   0.391  -0.008
    1UNL    H29   93  -0.125   0.276  -0.058
    1UNL    H30   94   0.166  -0.112   0.057
    1UNL    H31   95   0.009  -0.174   0.283
    1UNL    H32   96  -0.183  -0.109   0.400
    1UNL    H33   97  -0.299   0.118   0.350
    1UNL    H34   98  -0.189   0.267   0.170
    1UNL    H35   99   0.247   0.190  -0.160
    1UNL    H36  100   0.264  -0.010  -0.319
    1UNL    H37  101   0.208  -0.111  -0.195
    1UNL    H38  102   0.422   0.077  -0.099
    1UNL    H39  103   0.365   0.103  -0.606
    1UNL    H40  104   0.332   0.258  -0.530
    1UNL    H41  105   0.501   0.207  -0.561
    1UNL    H42  106   0.672  -0.142  -0.336
    1UNL    H43  107   0.638  -0.030   0.004
    1UNL    H44  108   0.561  -0.225   0.309
    1UNL    H45  109   0.219  -0.190   0.317
    1UNL    H46  110   0.263  -0.418   0.332
    1UNL    H47  111   0.404  -0.396   0.428
    1UNL    H48  112   0.236  -0.258   0.560
    1UNL    H49  113   0.427  -0.142   0.512
    1UNL    H50  114   0.258   0.037   0.535
    1UNL    H51  115   0.477   0.076   0.452
    1UNL    H52  116   0.266   0.064   0.251
    1UNL    H53  117   0.629   0.010   0.287
    1UNL    H54  118   0.458   0.143   0.177
    1UNL    H55  119   0.394  -0.114   0.047
    1UNL    H56  120   0.390  -0.266  -0.214
    1UNL    H57  121   0.423  -0.477  -0.101
    1UNL    H58  122   0.449  -0.380   0.058
   0.00000   0.00000   0.00000   0.00000   0.00000   0.00000   0.00000   0.00000   0.00000
Generated with MDTraj, t= 46.0
 122
    1UNL     C1    1  -0.370   0.030  -0.406
    1UNL     C2    2  -0.362  -0.037  -0.293
    1UNL     C3    3  -0.291   0.014  -0.172
    1UNL     C4    4  -0.385  -0.001  -0.048
    1UNL     O1    5  -0.499   0.080  -0.061
    1UNL     C5    6  -0.587   0.034   0.037
    1UNL     O2    7  -0.720   0.084   0.022
    1UNL     C6    8  -0.714   0.226   0.024
    1UNL     C7    9  -0.856   0.290   0.005
    1UNL     O3   10  -0.874   0.432   0.018
    1UNL     C8   11  -0.636   0.297   0.133
    1UNL     O4   12  -0.592   0.430   0.095
    1UNL     C9   13  -0.515   0.214   0.189
    1UNL     O5   14  -0.393   0.247   0.130
    1UNL    C10   15  -0.538   0.062   0.179
    1UNL     O6   16  -0.635   0.025   0.276
    1UNL     O7   17  -0.407  -0.138  -0.015
    1UNL    C11   18  -0.302  -0.219  -0.030
    1UNL    C12   19  -0.176  -0.184  -0.073
    1UNL    C13   20  -0.066  -0.272  -0.039
    1UNL     O8   21   0.048  -0.237  -0.057
    1UNL     O9   22  -0.118  -0.392   0.011
    1UNL    C14   23  -0.017  -0.486   0.032
    1UNL    C15   24  -0.155  -0.053  -0.139
    1UNL    C16   25  -0.053  -0.078  -0.250
    1UNL    C17   26   0.002   0.040  -0.327
    1UNL     N1   27   0.069   0.141  -0.240
    1UNL    C18   28   0.004   0.275  -0.197
    1UNL    C19   29  -0.040   0.282  -0.054
    1UNL    C20   30   0.024   0.184   0.030
    1UNL    C21   31   0.125   0.101  -0.009
    1UNL     N2   32   0.131  -0.007   0.080
    1UNL    C22   33   0.027  -0.001   0.172
    1UNL    C23   34  -0.021  -0.087   0.267
    1UNL    C24   35  -0.123  -0.049   0.355
    1UNL    C25   36  -0.185   0.074   0.330
    1UNL    C26   37  -0.153   0.152   0.223
    1UNL    C27   38  -0.039   0.120   0.150
    1UNL    C28   39   0.180   0.100  -0.149
    1UNL    C29   40   0.268  -0.023  -0.198
    1UNL    C30   41   0.417  -0.025  -0.151
    1UNL    C31   42   0.517  -0.034  -0.269
    1UNL    C32   43   0.490   0.026  -0.401
    1UNL    O10   44   0.571  -0.002  -0.489
    1UNL    O11   45   0.394   0.117  -0.404
    1UNL    C33   46   0.374   0.171  -0.535
    1UNL    C34   47   0.631  -0.103  -0.250
    1UNL    O12   48   0.667  -0.161  -0.126
    1UNL    C35   49   0.588  -0.124  -0.009
    1UNL    O13   50   0.623  -0.194   0.111
    1UNL    C36   51   0.540  -0.158   0.221
    1UNL    O14   52   0.406  -0.212   0.217
    1UNL    C37   53   0.329  -0.209   0.344
    1UNL    C38   54   0.335  -0.360   0.396
    1UNL    O15   55   0.251  -0.382   0.509
    1UNL    C39   56   0.378  -0.092   0.435
    1UNL    O16   57   0.272  -0.055   0.527
    1UNL    C40   58   0.422   0.030   0.351
    1UNL    O17   59   0.311   0.110   0.299
    1UNL    C41   60   0.523   0.001   0.244
    1UNL    O18   61   0.480   0.064   0.131
    1UNL    C42   62   0.440  -0.134  -0.047
    1UNL    C43   63   0.400  -0.269  -0.093
    1UNL    C44   64   0.379  -0.382  -0.023
    1UNL     H1   65  -0.324   0.125  -0.425
    1UNL     H2   66  -0.419  -0.013  -0.489
    1UNL     H3   67  -0.384  -0.147  -0.298
    1UNL     H4   68  -0.279   0.131  -0.182
    1UNL     H5   69  -0.328   0.026   0.037
    1UNL     H6   70  -0.594  -0.077   0.028
    1UNL     H7   71  -0.651   0.243  -0.070
    1UNL     H8   72  -0.921   0.241   0.077
    1UNL     H9   73  -0.884   0.256  -0.096
    1UNL    H10   74  -0.968   0.452   0.008
    1UNL    H11   75  -0.704   0.304   0.216
    1UNL    H12   76  -0.670   0.488   0.076
    1UNL    H13   77  -0.503   0.234   0.303
    1UNL    H14   78  -0.408   0.335   0.090
    1UNL    H15   79  -0.447   0.013   0.208
    1UNL    H16   80  -0.715   0.006   0.232
    1UNL    H17   81  -0.314  -0.315   0.003
    1UNL    H18   82   0.012  -0.562  -0.048
    1UNL    H19   83  -0.058  -0.551   0.113
    1UNL    H20   84   0.070  -0.429   0.058
    1UNL    H21   85  -0.105   0.017  -0.061
    1UNL    H22   86   0.030  -0.144  -0.220
    1UNL    H23   87  -0.108  -0.147  -0.328
    1UNL    H24   88   0.073   0.011  -0.399
    1UNL    H25   89  -0.084   0.080  -0.386
    1UNL    H26   90   0.083   0.353  -0.230
    1UNL    H27   91  -0.080   0.280  -0.269
    1UNL    H28   92  -0.011   0.382  -0.018
    1UNL    H29   93  -0.156   0.271  -0.043
    1UNL    H30   94   0.125  -0.100   0.028
    1UNL    H31   95   0.035  -0.175   0.273
    1UNL    H32   96  -0.160  -0.118   0.429
    1UNL    H33   97  -0.266   0.096   0.391
    1UNL    H34   98  -0.212   0.229   0.192
    1UNL    H35   99   0.243   0.189  -0.163
    1UNL    H36  100   0.267  -0.023  -0.311
    1UNL    H37  101   0.218  -0.113  -0.182
    1UNL    H38  102   0.440   0.072  -0.108
    1UNL    H39  103   0.383   0.089  -0.607
    1UNL    H40  104   0.272   0.212  -0.546
    1UNL    H41  105   0.451   0.245  -0.553
    1UNL    H42  106   0.697  -0.125  -0.324
    1UNL    H43  107   0.626  -0.015   0.006
    1UNL    H44  108   0.590  -0.206   0.315
    1UNL    H45  109   0.225  -0.195   0.316
    1UNL    H46  110   0.305  -0.433   0.323
    1UNL    H47  111   0.429  -0.388   0.434
    1UNL    H48  112   0.236  -0.298   0.558
    1UNL    H49  113   0.469  -0.119   0.496
    1UNL    H50  114   0.184  -0.052   0.478
    1UNL    H51  115   0.476   0.095   0.415
    1UNL    H52  116   0.257   0.056   0.237
    1UNL    H53  117   0.623   0.030   0.267
    1UNL    H54  118   0.462   0.164   0.160
    1UNL    H55  119   0.382  -0.108   0.043
    1UNL    H56  120   0.378  -0.264  -0.201
    1UNL    H57  121   0.334  -0.469  -0.074
    1UNL    H58  122   0.401  -0.380   0.079
   0.00000   0.00000   0.00000   0.00000   0.00000   0.00000   0.00000   0.00000   0.00000
Generated with MDTraj, t= 47.0
 122
    1UNL     C1    1  -0.373   0.096  -0.391
    1UNL     C2    2  -0.358  -0.002  -0.306
    1UNL     C3    3  -0.296   0.010  -0.170
    1UNL     C4    4  -0.399  -0.016  -0.051
    1UNL     O1    5  -0.516   0.049  -0.075
    1UNL     C5    6  -0.604   0.021   0.043
    1UNL     O2    7  -0.731   0.104   0.041
    1UNL     C6    8  -0.705   0.238   0.021
    1UNL     C7    9  -0.831   0.320  -0.013
    1UNL     O3   10  -0.798   0.449  -0.065
    1UNL     C8   11  -0.630   0.294   0.138
    1UNL     O4   12  -0.586   0.421   0.106
    1UNL     C9   13  -0.505   0.207   0.175
    1UNL     O5   14  -0.399   0.231   0.083
    1UNL    C10   15  -0.541   0.059   0.181
    1UNL     O6   16  -0.641   0.038   0.274
    1UNL     O7   17  -0.420  -0.156  -0.025
    1UNL    C11   18  -0.301  -0.228  -0.031
    1UNL    C12   19  -0.180  -0.194  -0.076
    1UNL    C13   20  -0.057  -0.280  -0.043
    1UNL     O8   21   0.052  -0.262  -0.096
    1UNL     O9   22  -0.083  -0.381   0.046
    1UNL    C14   23   0.030  -0.463   0.078
    1UNL    C15   24  -0.164  -0.061  -0.152
    1UNL    C16   25  -0.070  -0.069  -0.270
    1UNL    C17   26  -0.021   0.061  -0.329
    1UNL     N1   27   0.058   0.140  -0.230
    1UNL    C18   28  -0.006   0.269  -0.179
    1UNL    C19   29  -0.027   0.270  -0.026
    1UNL    C20   30   0.030   0.154   0.049
    1UNL    C21   31   0.120   0.065  -0.008
    1UNL     N2   32   0.128  -0.042   0.073
    1UNL    C22   33   0.036  -0.017   0.180
    1UNL    C23   34  -0.003  -0.107   0.285
    1UNL    C24   35  -0.109  -0.067   0.366
    1UNL    C25   36  -0.167   0.059   0.356
    1UNL    C26   37  -0.135   0.146   0.250
    1UNL    C27   38  -0.027   0.106   0.167
    1UNL    C28   39   0.163   0.080  -0.146
    1UNL    C29   40   0.239  -0.036  -0.204
    1UNL    C30   41   0.392  -0.031  -0.156
    1UNL    C31   42   0.501  -0.032  -0.266
    1UNL    C32   43   0.476   0.028  -0.397
    1UNL    O10   44   0.567   0.017  -0.478
    1UNL    O11   45   0.365   0.108  -0.412
    1UNL    C33   46   0.359   0.170  -0.542
    1UNL    C34   47   0.622  -0.097  -0.238
    1UNL    O12   48   0.667  -0.151  -0.115
    1UNL    C35   49   0.572  -0.118  -0.011
    1UNL    O13   50   0.612  -0.178   0.107
    1UNL    C36   51   0.531  -0.145   0.210
    1UNL    O14   52   0.407  -0.199   0.199
    1UNL    C37   53   0.340  -0.204   0.332
    1UNL    C38   54   0.365  -0.339   0.393
    1UNL    O15   55   0.265  -0.359   0.496
    1UNL    C39   56   0.379  -0.097   0.435
    1UNL    O16   57   0.272  -0.067   0.526
    1UNL    C40   58   0.428   0.033   0.369
    1UNL    O17   59   0.303   0.101   0.322
    1UNL    C41   60   0.526   0.013   0.249
    1UNL    O18   61   0.477   0.093   0.140
    1UNL    C42   62   0.423  -0.139  -0.049
    1UNL    C43   63   0.401  -0.279  -0.099
    1UNL    C44   64   0.350  -0.382  -0.029
    1UNL     H1   65  -0.320   0.188  -0.379
    1UNL     H2   66  -0.430   0.077  -0.482
    1UNL     H3   67  -0.400  -0.094  -0.327
    1UNL     H4   68  -0.269   0.123  -0.160
    1UNL     H5   69  -0.352   0.021   0.035
    1UNL     H6   70  -0.631  -0.088   0.049
    1UNL     H7   71  -0.636   0.244  -0.068
    1UNL     H8   72  -0.886   0.331   0.081
    1UNL     H9   73  -0.893   0.262  -0.085
    1UNL    H10   74  -0.878   0.493  -0.103
    1UNL    H11   75  -0.698   0.303   0.223
    1UNL    H12   76  -0.646   0.461   0.042
    1UNL    H13   77  -0.468   0.242   0.278
    1UNL    H14   78  -0.410   0.329   0.066
    1UNL    H15   79  -0.458  -0.002   0.215
    1UNL    H16   80  -0.719  -0.014   0.230
    1UNL    H17   81  -0.327  -0.330   0.011
    1UNL    H18   82   0.112  -0.472   0.002
    1UNL    H19   83  -0.015  -0.566   0.076
    1UNL    H20   84   0.070  -0.437   0.173
    1UNL    H21   85  -0.109  -0.007  -0.068
    1UNL    H22   86   0.011  -0.141  -0.242
    1UNL    H23   87  -0.119  -0.127  -0.352
    1UNL    H24   88   0.033   0.035  -0.413
    1UNL    H25   89  -0.103   0.125  -0.371
    1UNL    H26   90   0.077   0.344  -0.214
    1UNL    H27   91  -0.096   0.281  -0.240
    1UNL    H28   92   0.016   0.361   0.019
    1UNL    H29   93  -0.141   0.267  -0.011
    1UNL    H30   94   0.161  -0.135   0.051
    1UNL    H31   95   0.024  -0.212   0.287
    1UNL    H32   96  -0.125  -0.130   0.453
    1UNL    H33   97  -0.249   0.095   0.422
    1UNL    H34   98  -0.193   0.233   0.211
    1UNL    H35   99   0.230   0.168  -0.143
    1UNL    H36  100   0.236  -0.034  -0.317
    1UNL    H37  101   0.200  -0.125  -0.173
    1UNL    H38  102   0.405   0.065  -0.108
    1UNL    H39  103   0.340   0.092  -0.618
    1UNL    H40  104   0.276   0.244  -0.550
    1UNL    H41  105   0.456   0.217  -0.556
    1UNL    H42  106   0.691  -0.114  -0.327
    1UNL    H43  107   0.592  -0.006  -0.003
    1UNL    H44  108   0.581  -0.193   0.303
    1UNL    H45  109   0.235  -0.194   0.300
    1UNL    H46  110   0.345  -0.421   0.325
    1UNL    H47  111   0.468  -0.344   0.426
    1UNL    H48  112   0.229  -0.273   0.521
    1UNL    H49  113   0.464  -0.134   0.501
    1UNL    H50  114   0.212  -0.001   0.490
    1UNL    H51  115   0.468   0.105   0.441
    1UNL    H52  116   0.257   0.052   0.255
    1UNL    H53  117   0.621   0.045   0.281
    1UNL    H54  118   0.440   0.172   0.177
    1UNL    H55  119   0.359  -0.117   0.036
    1UNL    H56  120   0.430  -0.294  -0.200
    1UNL    H57  121   0.346  -0.478  -0.081
    1UNL    H58  122   0.324  -0.365   0.071
   0.00000   0.00000   0.00000   0.00000   0.00000   0.00000   0.00000   0.00000   0.00000
Generated with MDTraj, t= 48.0
 122
    1UNL     C1    1  -0.400   0.099  -0.363
    1UNL     C2    2  -0.365  -0.010  -0.297
    1UNL     C3    3  -0.297   0.004  -0.161
    1UNL     C4    4  -0.403  -0.036  -0.058
    1UNL     O1    5  -0.519   0.041  -0.076
    1UNL     C5    6  -0.607   0.029   0.041
    1UNL     O2    7  -0.722   0.110   0.012
    1UNL     C6    8  -0.674   0.243  -0.005
    1UNL     C7    9  -0.778   0.334  -0.076
    1UNL     O3   10  -0.733   0.468  -0.108
    1UNL     C8   11  -0.620   0.305   0.128
    1UNL     O4   12  -0.573   0.435   0.105
    1UNL     C9   13  -0.497   0.213   0.183
    1UNL     O5   14  -0.384   0.239   0.095
    1UNL    C10   15  -0.545   0.064   0.182
    1UNL     O6   16  -0.629   0.032   0.286
    1UNL     O7   17  -0.415  -0.182  -0.053
    1UNL    C11   18  -0.295  -0.247  -0.037
    1UNL    C12   19  -0.177  -0.199  -0.072
    1UNL    C13   20  -0.057  -0.278  -0.035
    1UNL     O8   21   0.042  -0.260  -0.104
    1UNL     O9   22  -0.069  -0.370   0.069
    1UNL    C14   23   0.059  -0.429   0.098
    1UNL    C15   24  -0.166  -0.072  -0.151
    1UNL    C16   25  -0.093  -0.076  -0.285
    1UNL    C17   26  -0.031   0.065  -0.317
    1UNL     N1   27   0.044   0.135  -0.210
    1UNL    C18   28  -0.016   0.261  -0.157
    1UNL    C19   29  -0.026   0.268  -0.004
    1UNL    C20   30   0.021   0.146   0.066
    1UNL    C21   31   0.109   0.051   0.009
    1UNL     N2   32   0.118  -0.059   0.087
    1UNL    C22   33   0.031  -0.047   0.193
    1UNL    C23   34  -0.016  -0.136   0.284
    1UNL    C24   35  -0.102  -0.097   0.388
    1UNL    C25   36  -0.155   0.035   0.378
    1UNL    C26   37  -0.105   0.125   0.289
    1UNL    C27   38  -0.023   0.084   0.185
    1UNL    C28   39   0.153   0.066  -0.138
    1UNL    C29   40   0.245  -0.037  -0.206
    1UNL    C30   41   0.390  -0.013  -0.163
    1UNL    C31   42   0.490  -0.022  -0.282
    1UNL    C32   43   0.462   0.034  -0.417
    1UNL    O10   44   0.552   0.034  -0.501
    1UNL    O11   45   0.339   0.105  -0.430
    1UNL    C33   46   0.336   0.173  -0.553
    1UNL    C34   47   0.609  -0.086  -0.257
    1UNL    O12   48   0.657  -0.139  -0.137
    1UNL    C35   49   0.576  -0.108  -0.020
    1UNL    O13   50   0.613  -0.167   0.104
    1UNL    C36   51   0.521  -0.141   0.213
    1UNL    O14   52   0.392  -0.207   0.208
    1UNL    C37   53   0.317  -0.204   0.338
    1UNL    C38   54   0.330  -0.340   0.401
    1UNL    O15   55   0.274  -0.346   0.533
    1UNL    C39   56   0.368  -0.096   0.438
    1UNL    O16   57   0.273  -0.060   0.539
    1UNL    C40   58   0.406   0.030   0.358
    1UNL    O17   59   0.287   0.088   0.313
    1UNL    C41   60   0.514   0.011   0.253
    1UNL    O18   61   0.485   0.105   0.142
    1UNL    C42   62   0.428  -0.126  -0.059
    1UNL    C43   63   0.413  -0.260  -0.117
    1UNL    C44   64   0.381  -0.365  -0.042
    1UNL     H1   65  -0.368   0.192  -0.322
    1UNL     H2   66  -0.451   0.097  -0.457
    1UNL     H3   67  -0.406  -0.114  -0.311
    1UNL     H4   68  -0.283   0.117  -0.147
    1UNL     H5   69  -0.364   0.001   0.032
    1UNL     H6   70  -0.642  -0.078   0.042
    1UNL     H7   71  -0.590   0.235  -0.075
    1UNL     H8   72  -0.857   0.349  -0.003
    1UNL     H9   73  -0.820   0.282  -0.166
    1UNL    H10   74  -0.804   0.516  -0.160
    1UNL    H11   75  -0.706   0.312   0.199
    1UNL    H12   76  -0.628   0.482   0.034
    1UNL    H13   77  -0.459   0.231   0.288
    1UNL    H14   78  -0.383   0.336   0.089
    1UNL    H15   79  -0.464  -0.009   0.197
    1UNL    H16   80  -0.728   0.009   0.258
    1UNL    H17   81  -0.307  -0.342   0.024
    1UNL    H18   82   0.144  -0.387   0.042
    1UNL    H19   83   0.051  -0.527   0.044
    1UNL    H20   84   0.085  -0.450   0.199
    1UNL    H21   85  -0.102  -0.016  -0.081
    1UNL    H22   86  -0.002  -0.142  -0.271
    1UNL    H23   87  -0.161  -0.126  -0.349
    1UNL    H24   88   0.034   0.055  -0.395
    1UNL    H25   89  -0.115   0.128  -0.355
    1UNL    H26   90   0.067   0.339  -0.188
    1UNL    H27   91  -0.104   0.267  -0.221
    1UNL    H28   92   0.031   0.356   0.034
    1UNL    H29   93  -0.137   0.277   0.022
    1UNL    H30   94   0.146  -0.143   0.047
    1UNL    H31   95   0.017  -0.242   0.273
    1UNL    H32   96  -0.126  -0.153   0.477
    1UNL    H33   97  -0.217   0.078   0.454
    1UNL    H34   98  -0.150   0.224   0.300
    1UNL    H35   99   0.225   0.147  -0.125
    1UNL    H36  100   0.247  -0.023  -0.315
    1UNL    H37  101   0.219  -0.139  -0.188
    1UNL    H38  102   0.404   0.079  -0.112
    1UNL    H39  103   0.338   0.100  -0.635
    1UNL    H40  104   0.240   0.228  -0.561
    1UNL    H41  105   0.420   0.243  -0.549
    1UNL    H42  106   0.662  -0.108  -0.354
    1UNL    H43  107   0.600   0.000  -0.010
    1UNL    H44  108   0.577  -0.205   0.291
    1UNL    H45  109   0.213  -0.184   0.309
    1UNL    H46  110   0.294  -0.419   0.330
    1UNL    H47  111   0.436  -0.362   0.423
    1UNL    H48  112   0.270  -0.258   0.582
    1UNL    H49  113   0.462  -0.136   0.492
    1UNL    H50  114   0.225   0.021   0.513
    1UNL    H51  115   0.448   0.112   0.423
    1UNL    H52  116   0.241   0.049   0.235
    1UNL    H53  117   0.608   0.040   0.288
    1UNL    H54  118   0.432   0.188   0.176
    1UNL    H55  119   0.367  -0.111   0.029
    1UNL    H56  120   0.439  -0.281  -0.221
    1UNL    H57  121   0.375  -0.462  -0.085
    1UNL    H58  122   0.357  -0.348   0.064
   0.00000   0.00000   0.00000   0.00000   0.00000   0.00000   0.00000   0.00000   0.00000
Generated with MDTraj, t= 49.0
 122
    1UNL     C1    1  -0.429   0.046  -0.345
    1UNL     C2    2  -0.342  -0.043  -0.296
    1UNL     C3    3  -0.281  -0.005  -0.166
    1UNL     C4    4  -0.379  -0.031  -0.052
    1UNL     O1    5  -0.495   0.047  -0.061
    1UNL     C5    6  -0.600   0.030   0.032
    1UNL     O2    7  -0.701   0.123  -0.005
    1UNL     C6    8  -0.646   0.255  -0.014
    1UNL     C7    9  -0.744   0.348  -0.089
    1UNL     O3   10  -0.688   0.461  -0.148
    1UNL     C8   11  -0.596   0.315   0.115
    1UNL     O4   12  -0.537   0.439   0.090
    1UNL     C9   13  -0.503   0.214   0.187
    1UNL     O5   14  -0.373   0.228   0.145
    1UNL    C10   15  -0.554   0.065   0.180
    1UNL     O6   16  -0.658   0.059   0.276
    1UNL     O7   17  -0.412  -0.167  -0.043
    1UNL    C11   18  -0.300  -0.240  -0.029
    1UNL    C12   19  -0.172  -0.211  -0.077
    1UNL    C13   20  -0.059  -0.289  -0.039
    1UNL     O8   21   0.044  -0.271  -0.095
    1UNL     O9   22  -0.078  -0.384   0.059
    1UNL    C14   23   0.039  -0.447   0.088
    1UNL    C15   24  -0.144  -0.076  -0.142
    1UNL    C16   25  -0.071  -0.062  -0.278
    1UNL    C17   26  -0.025   0.078  -0.311
    1UNL     N1   27   0.029   0.150  -0.189
    1UNL    C18   28  -0.044   0.265  -0.133
    1UNL    C19   29  -0.051   0.259   0.020
    1UNL    C20   30   0.009   0.136   0.081
    1UNL    C21   31   0.105   0.062   0.021
    1UNL     N2   32   0.109  -0.062   0.084
    1UNL    C22   33   0.028  -0.051   0.192
    1UNL    C23   34  -0.007  -0.155   0.287
    1UNL    C24   35  -0.090  -0.120   0.390
    1UNL    C25   36  -0.145   0.009   0.397
    1UNL    C26   37  -0.128   0.099   0.294
    1UNL    C27   38  -0.042   0.068   0.189
    1UNL    C28   39   0.152   0.101  -0.119
    1UNL    C29   40   0.226  -0.009  -0.188
    1UNL    C30   41   0.373  -0.016  -0.167
    1UNL    C31   42   0.484  -0.008  -0.275
    1UNL    C32   43   0.451   0.039  -0.415
    1UNL    O10   44   0.539   0.020  -0.498
    1UNL    O11   45   0.337   0.118  -0.426
    1UNL    C33   46   0.320   0.151  -0.560
    1UNL    C34   47   0.606  -0.057  -0.243
    1UNL    O12   48   0.655  -0.118  -0.133
    1UNL    C35   49   0.566  -0.107  -0.019
    1UNL    O13   50   0.606  -0.178   0.098
    1UNL    C36   51   0.517  -0.134   0.208
    1UNL    O14   52   0.393  -0.202   0.205
    1UNL    C37   53   0.318  -0.202   0.333
    1UNL    C38   54   0.342  -0.335   0.405
    1UNL    O15   55   0.260  -0.357   0.513
    1UNL    C39   56   0.364  -0.088   0.425
    1UNL    O16   57   0.274  -0.048   0.526
    1UNL    C40   58   0.404   0.049   0.339
    1UNL    O17   59   0.290   0.116   0.294
    1UNL    C41   60   0.501   0.013   0.224
    1UNL    O18   61   0.451   0.086   0.114
    1UNL    C42   62   0.419  -0.122  -0.061
    1UNL    C43   63   0.379  -0.262  -0.096
    1UNL    C44   64   0.445  -0.373  -0.055
    1UNL     H1   65  -0.465   0.128  -0.280
    1UNL     H2   66  -0.488   0.034  -0.433
    1UNL     H3   67  -0.321  -0.135  -0.344
    1UNL     H4   68  -0.265   0.107  -0.171
    1UNL     H5   69  -0.329   0.003   0.034
    1UNL     H6   70  -0.645  -0.073   0.035
    1UNL     H7   71  -0.561   0.242  -0.079
    1UNL     H8   72  -0.827   0.376  -0.024
    1UNL     H9   73  -0.788   0.289  -0.173
    1UNL    H10   74  -0.757   0.509  -0.199
    1UNL    H11   75  -0.685   0.336   0.185
    1UNL    H12   76  -0.565   0.474   0.006
    1UNL    H13   77  -0.499   0.244   0.292
    1UNL    H14   78  -0.363   0.323   0.113
    1UNL    H15   79  -0.475  -0.009   0.205
    1UNL    H16   80  -0.705  -0.031   0.274
    1UNL    H17   81  -0.313  -0.327   0.025
    1UNL    H18   82   0.110  -0.393   0.151
    1UNL    H19   83   0.091  -0.463  -0.010
    1UNL    H20   84   0.011  -0.545   0.117
    1UNL    H21   85  -0.082  -0.024  -0.076
    1UNL    H22   86   0.011  -0.139  -0.273
    1UNL    H23   87  -0.134  -0.086  -0.356
    1UNL    H24   88   0.030   0.078  -0.399
    1UNL    H25   89  -0.119   0.130  -0.342
    1UNL    H26   90   0.015   0.355  -0.179
    1UNL    H27   91  -0.144   0.260  -0.176
    1UNL    H28   92   0.008   0.346   0.059
    1UNL    H29   93  -0.156   0.264   0.055
    1UNL    H30   94   0.144  -0.153   0.055
    1UNL    H31   95   0.027  -0.253   0.292
    1UNL    H32   96  -0.112  -0.199   0.460
    1UNL    H33   97  -0.218   0.011   0.477
    1UNL    H34   98  -0.154   0.200   0.295
    1UNL    H35   99   0.215   0.188  -0.113
    1UNL    H36  100   0.212   0.016  -0.290
    1UNL    H37  101   0.181  -0.110  -0.176
    1UNL    H38  102   0.391   0.078  -0.119
    1UNL    H39  103   0.341   0.067  -0.626
    1UNL    H40  104   0.213   0.170  -0.573
    1UNL    H41  105   0.374   0.242  -0.580
    1UNL    H42  106   0.674  -0.053  -0.318
    1UNL    H43  107   0.587  -0.009   0.005
    1UNL    H44  108   0.571  -0.182   0.294
    1UNL    H45  109   0.211  -0.198   0.309
    1UNL    H46  110   0.315  -0.422   0.336
    1UNL    H47  111   0.451  -0.345   0.428
    1UNL    H48  112   0.272  -0.289   0.579
    1UNL    H49  113   0.447  -0.137   0.489
    1UNL    H50  114   0.217   0.027   0.490
    1UNL    H51  115   0.466   0.112   0.413
    1UNL    H52  116   0.227   0.060   0.234
    1UNL    H53  117   0.595   0.054   0.252
    1UNL    H54  118   0.429   0.172   0.151
    1UNL    H55  119   0.356  -0.088   0.021
    1UNL    H56  120   0.281  -0.278  -0.133
    1UNL    H57  121   0.396  -0.465  -0.041
    1UNL    H58  122   0.541  -0.365  -0.003
   0.00000   0.00000   0.00000   0.00000   0.00000   0.00000   0.00000   0.00000   0.00000
Generated with MDTraj, t= 50.0
 122
    1UNL     C1    1  -0.461  -0.030  -0.326
    1UNL     C2    2  -0.360  -0.093  -0.270
    1UNL     C3    3  -0.286  -0.019  -0.170
    1UNL     C4    4  -0.372  -0.019  -0.042
    1UNL     O1    5  -0.486   0.065  -0.070
    1UNL     C5    6  -0.590   0.049   0.024
    1UNL     O2    7  -0.694   0.138  -0.007
    1UNL     C6    8  -0.633   0.267  -0.025
    1UNL     C7    9  -0.728   0.364  -0.098
    1UNL     O3   10  -0.659   0.475  -0.150
    1UNL     C8   11  -0.591   0.324   0.109
    1UNL     O4   12  -0.508   0.437   0.084
    1UNL     C9   13  -0.507   0.223   0.189
    1UNL     O5   14  -0.375   0.229   0.151
    1UNL    C10   15  -0.556   0.077   0.175
    1UNL     O6   16  -0.668   0.049   0.266
    1UNL     O7   17  -0.400  -0.150   0.012
    1UNL    C11   18  -0.284  -0.229   0.001
    1UNL    C12   19  -0.170  -0.209  -0.066
    1UNL    C13   20  -0.056  -0.298  -0.051
    1UNL     O8   21   0.058  -0.268  -0.087
    1UNL     O9   22  -0.086  -0.425  -0.001
    1UNL    C14   23   0.030  -0.499   0.027
    1UNL    C15   24  -0.144  -0.079  -0.144
    1UNL    C16   25  -0.057  -0.069  -0.272
    1UNL    C17   26  -0.026   0.077  -0.298
    1UNL     N1   27   0.035   0.155  -0.182
    1UNL    C18   28  -0.031   0.278  -0.123
    1UNL    C19   29  -0.073   0.256   0.023
    1UNL    C20   30  -0.000   0.141   0.088
    1UNL    C21   31   0.102   0.064   0.033
    1UNL     N2   32   0.126  -0.052   0.096
    1UNL    C22   33   0.035  -0.061   0.203
    1UNL    C23   34  -0.007  -0.160   0.297
    1UNL    C24   35  -0.109  -0.140   0.384
    1UNL    C25   36  -0.180  -0.017   0.381
    1UNL    C26   37  -0.148   0.082   0.291
    1UNL    C27   38  -0.041   0.061   0.195
    1UNL    C28   39   0.153   0.102  -0.100
    1UNL    C29   40   0.233   0.000  -0.175
    1UNL    C30   41   0.385  -0.008  -0.151
    1UNL    C31   42   0.468  -0.042  -0.279
    1UNL    C32   43   0.443   0.022  -0.412
    1UNL    O10   44   0.534   0.010  -0.493
    1UNL    O11   45   0.330   0.105  -0.422
    1UNL    C33   46   0.318   0.154  -0.555
    1UNL    C34   47   0.582  -0.113  -0.263
    1UNL    O12   48   0.630  -0.152  -0.144
    1UNL    C35   49   0.570  -0.090  -0.028
    1UNL    O13   50   0.626  -0.126   0.095
    1UNL    C36   51   0.533  -0.109   0.208
    1UNL    O14   52   0.418  -0.193   0.201
    1UNL    C37   53   0.341  -0.192   0.322
    1UNL    C38   54   0.338  -0.326   0.398
    1UNL    O15   55   0.241  -0.333   0.494
    1UNL    C39   56   0.363  -0.078   0.420
    1UNL    O16   57   0.255  -0.066   0.513
    1UNL    C40   58   0.396   0.060   0.357
    1UNL    O17   59   0.280   0.117   0.316
    1UNL    C41   60   0.503   0.044   0.249
    1UNL    O18   61   0.436   0.100   0.133
    1UNL    C42   62   0.425  -0.106  -0.041
    1UNL    C43   63   0.379  -0.239  -0.089
    1UNL    C44   64   0.459  -0.341  -0.122
    1UNL     H1   65  -0.492   0.066  -0.294
    1UNL     H2   66  -0.522  -0.075  -0.401
    1UNL     H3   67  -0.357  -0.199  -0.301
    1UNL     H4   68  -0.275   0.088  -0.203
    1UNL     H5   69  -0.324   0.035   0.035
    1UNL     H6   70  -0.637  -0.055   0.021
    1UNL     H7   71  -0.547   0.250  -0.085
    1UNL     H8   72  -0.812   0.395  -0.036
    1UNL     H9   73  -0.772   0.311  -0.184
    1UNL    H10   74  -0.718   0.530  -0.203
    1UNL    H11   75  -0.690   0.352   0.163
    1UNL    H12   76  -0.548   0.477   0.001
    1UNL    H13   77  -0.508   0.256   0.290
    1UNL    H14   78  -0.355   0.318   0.121
    1UNL    H15   79  -0.466   0.013   0.192
    1UNL    H16   80  -0.728   0.121   0.262
    1UNL    H17   81  -0.288  -0.322   0.054
    1UNL    H18   82   0.115  -0.431   0.030
    1UNL    H19   83   0.046  -0.564  -0.062
    1UNL    H20   84   0.014  -0.561   0.113
    1UNL    H21   85  -0.095  -0.009  -0.084
    1UNL    H22   86   0.032  -0.122  -0.272
    1UNL    H23   87  -0.115  -0.119  -0.342
    1UNL    H24   88   0.027   0.092  -0.388
    1UNL    H25   89  -0.124   0.121  -0.320
    1UNL    H26   90   0.045   0.362  -0.129
    1UNL    H27   91  -0.114   0.300  -0.192
    1UNL    H28   92  -0.057   0.345   0.091
    1UNL    H29   93  -0.175   0.225   0.023
    1UNL    H30   94   0.146  -0.140   0.037
    1UNL    H31   95   0.059  -0.250   0.290
    1UNL    H32   96  -0.142  -0.215   0.455
    1UNL    H33   97  -0.280  -0.007   0.426
    1UNL    H34   98  -0.226   0.166   0.304
    1UNL    H35   99   0.218   0.188  -0.082
    1UNL    H36  100   0.220   0.012  -0.280
    1UNL    H37  101   0.192  -0.103  -0.156
    1UNL    H38  102   0.417   0.090  -0.126
    1UNL    H39  103   0.273   0.080  -0.620
    1UNL    H40  104   0.251   0.240  -0.557
    1UNL    H41  105   0.414   0.190  -0.587
    1UNL    H42  106   0.636  -0.162  -0.345
    1UNL    H43  107   0.597   0.009  -0.038
    1UNL    H44  108   0.595  -0.155   0.286
    1UNL    H45  109   0.242  -0.174   0.275
    1UNL    H46  110   0.324  -0.408   0.320
    1UNL    H47  111   0.438  -0.347   0.447
    1UNL    H48  112   0.250  -0.244   0.542
    1UNL    H49  113   0.455  -0.105   0.483
    1UNL    H50  114   0.173  -0.045   0.471
    1UNL    H51  115   0.440   0.129   0.439
    1UNL    H52  116   0.245   0.057   0.239
    1UNL    H53  117   0.593   0.105   0.267
    1UNL    H54  118   0.387   0.189   0.154
    1UNL    H55  119   0.373  -0.077   0.050
    1UNL    H56  120   0.271  -0.245  -0.101
    1UNL    H57  121   0.418  -0.430  -0.172
    1UNL    H58  122   0.564  -0.333  -0.112
   0.00000   0.00000   0.00000   0.00000   0.00000   0.00000   0.00000   0.00000   0.00000
Generated with MDTraj, t= 51.0
 122
    1UNL     C1    1  -0.482  -0.114  -0.294
    1UNL     C2    2  -0.358  -0.138  -0.254
    1UNL     C3    3  -0.297  -0.033  -0.167
    1UNL     C4    4  -0.381  -0.020  -0.039
    1UNL     O1    5  -0.509   0.033  -0.072
    1UNL     C5    6  -0.604   0.059   0.029
    1UNL     O2    7  -0.701   0.155  -0.015
    1UNL     C6    8  -0.632   0.281  -0.030
    1UNL     C7    9  -0.722   0.376  -0.111
    1UNL     O3   10  -0.654   0.501  -0.122
    1UNL     C8   11  -0.599   0.339   0.119
    1UNL     O4   12  -0.519   0.460   0.105
    1UNL     C9   13  -0.497   0.241   0.187
    1UNL     O5   14  -0.369   0.249   0.125
    1UNL    C10   15  -0.549   0.096   0.171
    1UNL     O6   16  -0.659   0.067   0.268
    1UNL     O7   17  -0.388  -0.141   0.028
    1UNL    C11   18  -0.274  -0.223   0.026
    1UNL    C12   19  -0.158  -0.198  -0.040
    1UNL    C13   20  -0.048  -0.291  -0.053
    1UNL     O8   21   0.065  -0.267  -0.092
    1UNL     O9   22  -0.090  -0.424  -0.030
    1UNL    C14   23   0.010  -0.518  -0.074
    1UNL    C15   24  -0.153  -0.070  -0.122
    1UNL    C16   25  -0.057  -0.072  -0.240
    1UNL    C17   26  -0.030   0.076  -0.289
    1UNL     N1   27   0.048   0.155  -0.194
    1UNL    C18   28  -0.022   0.271  -0.130
    1UNL    C19   29  -0.061   0.247   0.020
    1UNL    C20   30  -0.002   0.126   0.086
    1UNL    C21   31   0.096   0.055   0.024
    1UNL     N2   32   0.110  -0.064   0.098
    1UNL    C22   33   0.020  -0.062   0.206
    1UNL    C23   34  -0.014  -0.176   0.288
    1UNL    C24   35  -0.125  -0.156   0.359
    1UNL    C25   36  -0.204  -0.042   0.351
    1UNL    C26   37  -0.161   0.067   0.278
    1UNL    C27   38  -0.054   0.054   0.200
    1UNL    C28   39   0.154   0.095  -0.103
    1UNL    C29   40   0.233  -0.022  -0.171
    1UNL    C30   41   0.386  -0.015  -0.153
    1UNL    C31   42   0.473  -0.031  -0.278
    1UNL    C32   43   0.438   0.003  -0.416
    1UNL    O10   44   0.508  -0.031  -0.509
    1UNL    O11   45   0.336   0.101  -0.420
    1UNL    C33   46   0.329   0.154  -0.547
    1UNL    C34   47   0.601  -0.074  -0.253
    1UNL    O12   48   0.666  -0.108  -0.135
    1UNL    C35   49   0.588  -0.079  -0.017
    1UNL    O13   50   0.635  -0.124   0.112
    1UNL    C36   51   0.536  -0.110   0.210
    1UNL    O14   52   0.414  -0.174   0.206
    1UNL    C37   53   0.338  -0.177   0.322
    1UNL    C38   54   0.333  -0.320   0.377
    1UNL    O15   55   0.223  -0.335   0.466
    1UNL    C39   56   0.376  -0.077   0.428
    1UNL    O16   57   0.266  -0.062   0.517
    1UNL    C40   58   0.403   0.063   0.356
    1UNL    O17   59   0.281   0.124   0.303
    1UNL    C41   60   0.509   0.041   0.245
    1UNL    O18   61   0.450   0.108   0.137
    1UNL    C42   62   0.429  -0.099  -0.034
    1UNL    C43   63   0.396  -0.240  -0.033
    1UNL    C44   64   0.446  -0.330  -0.120
    1UNL     H1   65  -0.535  -0.025  -0.266
    1UNL     H2   66  -0.542  -0.175  -0.364
    1UNL     H3   67  -0.323  -0.237  -0.276
    1UNL     H4   68  -0.292   0.058  -0.230
    1UNL     H5   69  -0.346   0.048   0.031
    1UNL     H6   70  -0.665  -0.037   0.036
    1UNL     H7   71  -0.536   0.264  -0.071
    1UNL     H8   72  -0.815   0.393  -0.058
    1UNL     H9   73  -0.745   0.337  -0.210
    1UNL    H10   74  -0.704   0.568  -0.175
    1UNL    H11   75  -0.692   0.348   0.188
    1UNL    H12   76  -0.572   0.513   0.041
    1UNL    H13   77  -0.489   0.261   0.289
    1UNL    H14   78  -0.343   0.345   0.104
    1UNL    H15   79  -0.456   0.034   0.186
    1UNL    H16   80  -0.685  -0.023   0.267
    1UNL    H17   81  -0.267  -0.314   0.096
    1UNL    H18   82   0.107  -0.469  -0.057
    1UNL    H19   83  -0.001  -0.541  -0.184
    1UNL    H20   84  -0.008  -0.614  -0.030
    1UNL    H21   85  -0.106   0.009  -0.057
    1UNL    H22   86   0.027  -0.127  -0.212
    1UNL    H23   87  -0.090  -0.122  -0.326
    1UNL    H24   88   0.028   0.071  -0.381
    1UNL    H25   89  -0.120   0.127  -0.316
    1UNL    H26   90   0.048   0.356  -0.146
    1UNL    H27   91  -0.113   0.294  -0.191
    1UNL    H28   92  -0.036   0.342   0.077
    1UNL    H29   93  -0.164   0.231   0.024
    1UNL    H30   94   0.163  -0.154   0.071
    1UNL    H31   95   0.046  -0.264   0.299
    1UNL    H32   96  -0.151  -0.240   0.422
    1UNL    H33   97  -0.291  -0.052   0.408
    1UNL    H34   98  -0.228   0.139   0.248
    1UNL    H35   99   0.221   0.180  -0.082
    1UNL    H36  100   0.212  -0.027  -0.283
    1UNL    H37  101   0.189  -0.120  -0.143
    1UNL    H38  102   0.412   0.084  -0.123
    1UNL    H39  103   0.324   0.071  -0.619
    1UNL    H40  104   0.237   0.212  -0.558
    1UNL    H41  105   0.412   0.223  -0.562
    1UNL    H42  106   0.668  -0.094  -0.346
    1UNL    H43  107   0.617   0.021  -0.010
    1UNL    H44  108   0.585  -0.146   0.299
    1UNL    H45  109   0.235  -0.151   0.289
    1UNL    H46  110   0.319  -0.395   0.292
    1UNL    H47  111   0.430  -0.357   0.420
    1UNL    H48  112   0.223  -0.265   0.531
    1UNL    H49  113   0.465  -0.113   0.488
    1UNL    H50  114   0.223   0.028   0.514
    1UNL    H51  115   0.442   0.143   0.429
    1UNL    H52  116   0.240   0.069   0.236
    1UNL    H53  117   0.601   0.104   0.270
    1UNL    H54  118   0.402   0.190   0.162
    1UNL    H55  119   0.384  -0.058   0.056
    1UNL    H56  120   0.322  -0.268   0.041
    1UNL    H57  121   0.406  -0.432  -0.129
    1UNL    H58  122   0.499  -0.298  -0.204
   0.00000   0.00000   0.00000   0.00000   0.00000   0.00000   0.00000   0.00000   0.00000
Generated with MDTraj, t= 52.0
 122
    1UNL     C1    1  -0.504  -0.189  -0.277
    1UNL     C2    2  -0.376  -0.174  -0.246
    1UNL     C3    3  -0.317  -0.051  -0.177
    1UNL     C4    4  -0.391  -0.019  -0.046
    1UNL     O1    5  -0.512   0.049  -0.071
    1UNL     C5    6  -0.605   0.060   0.033
    1UNL     O2    7  -0.705   0.163   0.004
    1UNL     C6    8  -0.648   0.295  -0.015
    1UNL     C7    9  -0.744   0.393  -0.080
    1UNL     O3   10  -0.672   0.507  -0.120
    1UNL     C8   11  -0.590   0.342   0.125
    1UNL     O4   12  -0.539   0.481   0.132
    1UNL     C9   13  -0.481   0.242   0.174
    1UNL     O5   14  -0.366   0.263   0.097
    1UNL    C10   15  -0.538   0.096   0.173
    1UNL     O6   16  -0.637   0.085   0.283
    1UNL     O7   17  -0.387  -0.131   0.043
    1UNL    C11   18  -0.276  -0.219   0.024
    1UNL    C12   19  -0.167  -0.201  -0.056
    1UNL    C13   20  -0.066  -0.300  -0.067
    1UNL     O8   21   0.045  -0.263  -0.090
    1UNL     O9   22  -0.107  -0.431  -0.066
    1UNL    C14   23  -0.011  -0.526  -0.100
    1UNL    C15   24  -0.172  -0.071  -0.134
    1UNL    C16   25  -0.078  -0.077  -0.251
    1UNL    C17   26  -0.027   0.066  -0.287
    1UNL     N1   27   0.051   0.146  -0.192
    1UNL    C18   28  -0.020   0.265  -0.128
    1UNL    C19   29  -0.059   0.241   0.017
    1UNL    C20   30   0.008   0.120   0.080
    1UNL    C21   31   0.109   0.050   0.025
    1UNL     N2   32   0.132  -0.070   0.099
    1UNL    C22   33   0.024  -0.086   0.191
    1UNL    C23   34  -0.023  -0.183   0.277
    1UNL    C24   35  -0.141  -0.162   0.342
    1UNL    C25   36  -0.212  -0.045   0.337
    1UNL    C26   37  -0.171   0.055   0.256
    1UNL    C27   38  -0.054   0.034   0.178
    1UNL    C28   39   0.166   0.094  -0.104
    1UNL    C29   40   0.257  -0.006  -0.187
    1UNL    C30   41   0.410   0.005  -0.146
    1UNL    C31   42   0.501  -0.011  -0.271
    1UNL    C32   43   0.451   0.003  -0.414
    1UNL    O10   44   0.505  -0.064  -0.498
    1UNL    O11   45   0.360   0.107  -0.425
    1UNL    C33   46   0.315   0.121  -0.556
    1UNL    C34   47   0.632  -0.049  -0.243
    1UNL    O12   48   0.673  -0.106  -0.123
    1UNL    C35   49   0.588  -0.083  -0.009
    1UNL    O13   50   0.633  -0.122   0.122
    1UNL    C36   51   0.542  -0.100   0.229
    1UNL    O14   52   0.421  -0.173   0.213
    1UNL    C37   53   0.334  -0.178   0.330
    1UNL    C38   54   0.311  -0.324   0.386
    1UNL    O15   55   0.207  -0.325   0.488
    1UNL    C39   56   0.371  -0.074   0.444
    1UNL    O16   57   0.257  -0.051   0.526
    1UNL    C40   58   0.405   0.064   0.368
    1UNL    O17   59   0.294   0.127   0.308
    1UNL    C41   60   0.524   0.055   0.271
    1UNL    O18   61   0.494   0.132   0.159
    1UNL    C42   62   0.438  -0.100  -0.042
    1UNL    C43   63   0.406  -0.237  -0.079
    1UNL    C44   64   0.471  -0.312  -0.170
    1UNL     H1   65  -0.571  -0.106  -0.268
    1UNL     H2   66  -0.545  -0.281  -0.306
    1UNL     H3   67  -0.309  -0.254  -0.268
    1UNL     H4   68  -0.319   0.033  -0.251
    1UNL     H5   69  -0.347   0.059   0.009
    1UNL     H6   70  -0.659  -0.040   0.032
    1UNL     H7   71  -0.563   0.285  -0.077
    1UNL     H8   72  -0.830   0.421  -0.019
    1UNL     H9   73  -0.787   0.349  -0.171
    1UNL    H10   74  -0.730   0.579  -0.157
    1UNL    H11   75  -0.677   0.337   0.200
    1UNL    H12   76  -0.581   0.519   0.055
    1UNL    H13   77  -0.469   0.270   0.273
    1UNL    H14   78  -0.364   0.353   0.065
    1UNL    H15   79  -0.449   0.030   0.193
    1UNL    H16   80  -0.693   0.008   0.278
    1UNL    H17   81  -0.277  -0.310   0.080
    1UNL    H18   82   0.041  -0.549  -0.006
    1UNL    H19   83   0.058  -0.490  -0.183
    1UNL    H20   84  -0.071  -0.602  -0.149
    1UNL    H21   85  -0.137   0.021  -0.068
    1UNL    H22   86   0.019  -0.136  -0.232
    1UNL    H23   87  -0.127  -0.133  -0.325
    1UNL    H24   88   0.033   0.066  -0.381
    1UNL    H25   89  -0.111   0.125  -0.312
    1UNL    H26   90   0.040   0.353  -0.142
    1UNL    H27   91  -0.113   0.284  -0.191
    1UNL    H28   92  -0.026   0.331   0.077
    1UNL    H29   93  -0.165   0.237   0.024
    1UNL    H30   94   0.161  -0.156   0.038
    1UNL    H31   95   0.046  -0.266   0.284
    1UNL    H32   96  -0.160  -0.217   0.433
    1UNL    H33   97  -0.306  -0.031   0.396
    1UNL    H34   98  -0.245   0.135   0.251
    1UNL    H35   99   0.220   0.189  -0.090
    1UNL    H36  100   0.244   0.023  -0.300
    1UNL    H37  101   0.216  -0.109  -0.193
    1UNL    H38  102   0.430   0.101  -0.104
    1UNL    H39  103   0.321   0.022  -0.605
    1UNL    H40  104   0.205   0.143  -0.559
    1UNL    H41  105   0.365   0.201  -0.613
    1UNL    H42  106   0.701  -0.048  -0.319
    1UNL    H43  107   0.616   0.018   0.001
    1UNL    H44  108   0.591  -0.155   0.305
    1UNL    H45  109   0.234  -0.145   0.293
    1UNL    H46  110   0.288  -0.406   0.312
    1UNL    H47  111   0.403  -0.364   0.429
    1UNL    H48  112   0.204  -0.238   0.540
    1UNL    H49  113   0.456  -0.105   0.510
    1UNL    H50  114   0.247   0.043   0.556
    1UNL    H51  115   0.434   0.140   0.446
    1UNL    H52  116   0.243   0.070   0.250
    1UNL    H53  117   0.619   0.100   0.320
    1UNL    H54  118   0.444   0.213   0.181
    1UNL    H55  119   0.381  -0.070   0.046
    1UNL    H56  120   0.304  -0.265  -0.055
    1UNL    H57  121   0.440  -0.411  -0.193
    1UNL    H58  122   0.558  -0.275  -0.226
   0.00000   0.00000   0.00000   0.00000   0.00000   0.00000   0.00000   0.00000   0.00000
Generated with MDTraj, t= 53.0
 122
    1UNL     C1    1  -0.513  -0.180  -0.244
    1UNL     C2    2  -0.394  -0.131  -0.267
    1UNL     C3    3  -0.318  -0.035  -0.179
    1UNL     C4    4  -0.388  -0.005  -0.045
    1UNL     O1    5  -0.509   0.065  -0.066
    1UNL     C5    6  -0.597   0.065   0.039
    1UNL     O2    7  -0.704   0.151   0.027
    1UNL     C6    8  -0.660   0.286  -0.004
    1UNL     C7    9  -0.770   0.378  -0.047
    1UNL     O3   10  -0.725   0.503  -0.097
    1UNL     C8   11  -0.581   0.339   0.117
    1UNL     O4   12  -0.529   0.471   0.110
    1UNL     C9   13  -0.472   0.243   0.167
    1UNL     O5   14  -0.356   0.260   0.088
    1UNL    C10   15  -0.522   0.100   0.167
    1UNL     O6   16  -0.587   0.068   0.286
    1UNL     O7   17  -0.399  -0.125   0.029
    1UNL    C11   18  -0.294  -0.223   0.013
    1UNL    C12   19  -0.187  -0.201  -0.063
    1UNL    C13   20  -0.077  -0.301  -0.061
    1UNL     O8   21   0.040  -0.269  -0.071
    1UNL     O9   22  -0.133  -0.425  -0.074
    1UNL    C14   23  -0.036  -0.532  -0.075
    1UNL    C15   24  -0.177  -0.072  -0.148
    1UNL    C16   25  -0.074  -0.074  -0.263
    1UNL    C17   26  -0.023   0.061  -0.302
    1UNL     N1   27   0.043   0.139  -0.195
    1UNL    C18   28  -0.025   0.265  -0.139
    1UNL    C19   29  -0.058   0.240   0.007
    1UNL    C20   30   0.001   0.123   0.068
    1UNL    C21   31   0.117   0.065   0.017
    1UNL     N2   32   0.129  -0.058   0.078
    1UNL    C22   33   0.028  -0.075   0.178
    1UNL    C23   34  -0.013  -0.193   0.254
    1UNL    C24   35  -0.117  -0.178   0.333
    1UNL    C25   36  -0.194  -0.064   0.344
    1UNL    C26   37  -0.167   0.047   0.260
    1UNL    C27   38  -0.056   0.039   0.172
    1UNL    C28   39   0.168   0.112  -0.113
    1UNL    C29   40   0.250   0.008  -0.192
    1UNL    C30   41   0.403   0.004  -0.149
    1UNL    C31   42   0.506  -0.002  -0.259
    1UNL    C32   43   0.474   0.008  -0.408
    1UNL    O10   44   0.553  -0.044  -0.480
    1UNL    O11   45   0.361   0.082  -0.440
    1UNL    C33   46   0.339   0.084  -0.579
    1UNL    C34   47   0.632  -0.032  -0.222
    1UNL    O12   48   0.674  -0.091  -0.105
    1UNL    C35   49   0.579  -0.074   0.005
    1UNL    O13   50   0.606  -0.149   0.115
    1UNL    C36   51   0.523  -0.114   0.227
    1UNL    O14   52   0.390  -0.166   0.213
    1UNL    C37   53   0.315  -0.179   0.339
    1UNL    C38   54   0.318  -0.320   0.399
    1UNL    O15   55   0.218  -0.332   0.498
    1UNL    C39   56   0.353  -0.072   0.439
    1UNL    O16   57   0.252  -0.033   0.525
    1UNL    C40   58   0.406   0.057   0.358
    1UNL    O17   59   0.300   0.120   0.287
    1UNL    C41   60   0.533   0.040   0.265
    1UNL    O18   61   0.520   0.127   0.158
    1UNL    C42   62   0.433  -0.090  -0.035
    1UNL    C43   63   0.416  -0.234  -0.065
    1UNL    C44   64   0.505  -0.298  -0.142
    1UNL     H1   65  -0.585  -0.125  -0.180
    1UNL     H2   66  -0.540  -0.271  -0.296
    1UNL     H3   67  -0.324  -0.163  -0.344
    1UNL     H4   68  -0.310   0.060  -0.237
    1UNL     H5   69  -0.334   0.067   0.007
    1UNL     H6   70  -0.639  -0.041   0.045
    1UNL     H7   71  -0.595   0.272  -0.088
    1UNL     H8   72  -0.837   0.395   0.037
    1UNL     H9   73  -0.833   0.330  -0.122
    1UNL    H10   74  -0.801   0.563  -0.117
    1UNL    H11   75  -0.663   0.342   0.195
    1UNL    H12   76  -0.596   0.524   0.055
    1UNL    H13   77  -0.453   0.266   0.268
    1UNL    H14   78  -0.351   0.359   0.064
    1UNL    H15   79  -0.430   0.038   0.167
    1UNL    H16   80  -0.679   0.031   0.269
    1UNL    H17   81  -0.307  -0.315   0.059
    1UNL    H18   82   0.031  -0.512   0.011
    1UNL    H19   83   0.015  -0.530  -0.176
    1UNL    H20   84  -0.081  -0.629  -0.066
    1UNL    H21   85  -0.132   0.007  -0.078
    1UNL    H22   86   0.006  -0.153  -0.241
    1UNL    H23   87  -0.122  -0.113  -0.350
    1UNL    H24   88   0.053   0.045  -0.384
    1UNL    H25   89  -0.094   0.121  -0.349
    1UNL    H26   90   0.038   0.347  -0.160
    1UNL    H27   91  -0.118   0.289  -0.203
    1UNL    H28   92  -0.037   0.334   0.062
    1UNL    H29   93  -0.168   0.227   0.012
    1UNL    H30   94   0.196  -0.139   0.062
    1UNL    H31   95   0.044  -0.286   0.265
    1UNL    H32   96  -0.135  -0.264   0.398
    1UNL    H33   97  -0.276  -0.066   0.407
    1UNL    H34   98  -0.241   0.135   0.253
    1UNL    H35   99   0.225   0.204  -0.088
    1UNL    H36  100   0.246   0.020  -0.304
    1UNL    H37  101   0.203  -0.090  -0.171
    1UNL    H38  102   0.416   0.103  -0.110
    1UNL    H39  103   0.260   0.009  -0.600
    1UNL    H40  104   0.292   0.180  -0.608
    1UNL    H41  105   0.429   0.071  -0.642
    1UNL    H42  106   0.705  -0.050  -0.300
    1UNL    H43  107   0.605   0.021   0.029
    1UNL    H44  108   0.561  -0.188   0.291
    1UNL    H45  109   0.212  -0.159   0.303
    1UNL    H46  110   0.296  -0.390   0.318
    1UNL    H47  111   0.414  -0.356   0.434
    1UNL    H48  112   0.217  -0.246   0.542
    1UNL    H49  113   0.433  -0.108   0.505
    1UNL    H50  114   0.249   0.062   0.542
    1UNL    H51  115   0.429   0.133   0.435
    1UNL    H52  116   0.253   0.052   0.226
    1UNL    H53  117   0.635   0.059   0.321
    1UNL    H54  118   0.426   0.170   0.165
    1UNL    H55  119   0.371  -0.056   0.047
    1UNL    H56  120   0.324  -0.283  -0.040
    1UNL    H57  121   0.492  -0.400  -0.163
    1UNL    H58  122   0.598  -0.253  -0.182
   0.00000   0.00000   0.00000   0.00000   0.00000   0.00000   0.00000   0.00000   0.00000
Generated with MDTraj, t= 54.0
 122
    1UNL     C1    1  -0.465  -0.147  -0.293
    1UNL     C2    2  -0.368  -0.062  -0.294
    1UNL     C3    3  -0.299   0.002  -0.169
    1UNL     C4    4  -0.395   0.004  -0.041
    1UNL     O1    5  -0.505   0.082  -0.058
    1UNL     C5    6  -0.586   0.061   0.054
    1UNL     O2    7  -0.706   0.137   0.053
    1UNL     C6    8  -0.680   0.274   0.022
    1UNL     C7    9  -0.805   0.346  -0.019
    1UNL     O3   10  -0.767   0.477  -0.046
    1UNL     C8   11  -0.589   0.342   0.128
    1UNL     O4   12  -0.535   0.463   0.079
    1UNL     C9   13  -0.470   0.257   0.178
    1UNL     O5   14  -0.351   0.274   0.097
    1UNL    C10   15  -0.510   0.106   0.187
    1UNL     O6   16  -0.594   0.083   0.296
    1UNL     O7   17  -0.413  -0.124   0.013
    1UNL    C11   18  -0.310  -0.213  -0.014
    1UNL    C12   19  -0.193  -0.204  -0.081
    1UNL    C13   20  -0.084  -0.308  -0.072
    1UNL     O8   21   0.028  -0.288  -0.114
    1UNL     O9   22  -0.125  -0.426  -0.014
    1UNL    C14   23  -0.034  -0.535  -0.034
    1UNL    C15   24  -0.166  -0.070  -0.141
    1UNL    C16   25  -0.072  -0.080  -0.260
    1UNL    C17   26  -0.019   0.059  -0.314
    1UNL     N1   27   0.048   0.152  -0.217
    1UNL    C18   28  -0.041   0.259  -0.150
    1UNL    C19   29  -0.058   0.239   0.006
    1UNL    C20   30   0.012   0.122   0.064
    1UNL    C21   31   0.102   0.047  -0.003
    1UNL     N2   32   0.129  -0.077   0.065
    1UNL    C22   33   0.041  -0.085   0.165
    1UNL    C23   34  -0.005  -0.193   0.241
    1UNL    C24   35  -0.115  -0.175   0.327
    1UNL    C25   36  -0.181  -0.054   0.331
    1UNL    C26   37  -0.138   0.053   0.261
    1UNL    C27   38  -0.034   0.036   0.166
    1UNL    C28   39   0.162   0.102  -0.137
    1UNL    C29   40   0.256   0.015  -0.221
    1UNL    C30   41   0.402   0.002  -0.170
    1UNL    C31   42   0.510  -0.025  -0.274
    1UNL    C32   43   0.503   0.009  -0.416
    1UNL    O10   44   0.604   0.013  -0.482
    1UNL    O11   45   0.369   0.042  -0.465
    1UNL    C33   46   0.368   0.073  -0.600
    1UNL    C34   47   0.626  -0.074  -0.233
    1UNL    O12   48   0.662  -0.101  -0.102
    1UNL    C35   49   0.569  -0.072   0.004
    1UNL    O13   50   0.613  -0.132   0.123
    1UNL    C36   51   0.519  -0.108   0.230
    1UNL    O14   52   0.392  -0.164   0.211
    1UNL    C37   53   0.314  -0.170   0.337
    1UNL    C38   54   0.326  -0.306   0.399
    1UNL    O15   55   0.241  -0.323   0.509
    1UNL    C39   56   0.334  -0.070   0.446
    1UNL    O16   57   0.217  -0.056   0.522
    1UNL    C40   58   0.395   0.059   0.374
    1UNL    O17   59   0.294   0.122   0.301
    1UNL    C41   60   0.519   0.041   0.279
    1UNL    O18   61   0.507   0.127   0.176
    1UNL    C42   62   0.424  -0.096  -0.051
    1UNL    C43   63   0.402  -0.235  -0.089
    1UNL    C44   64   0.484  -0.332  -0.055
    1UNL     H1   65  -0.499  -0.172  -0.197
    1UNL     H2   66  -0.525  -0.163  -0.381
    1UNL     H3   67  -0.326  -0.018  -0.381
    1UNL     H4   68  -0.278   0.108  -0.190
    1UNL     H5   69  -0.346   0.057   0.034
    1UNL     H6   70  -0.619  -0.049   0.059
    1UNL     H7   71  -0.617   0.268  -0.069
    1UNL     H8   72  -0.870   0.348   0.070
    1UNL     H9   73  -0.867   0.295  -0.095
    1UNL    H10   74  -0.841   0.533  -0.069
    1UNL    H11   75  -0.654   0.372   0.213
    1UNL    H12   76  -0.597   0.504   0.019
    1UNL    H13   77  -0.442   0.286   0.278
    1UNL    H14   78  -0.350   0.367   0.076
    1UNL    H15   79  -0.420   0.047   0.208
    1UNL    H16   80  -0.686   0.052   0.256
    1UNL    H17   81  -0.309  -0.304   0.053
    1UNL    H18   82   0.058  -0.526   0.026
    1UNL    H19   83  -0.027  -0.556  -0.143
    1UNL    H20   84  -0.091  -0.619   0.003
    1UNL    H21   85  -0.106  -0.020  -0.069
    1UNL    H22   86   0.016  -0.139  -0.232
    1UNL    H23   87  -0.123  -0.140  -0.341
    1UNL    H24   88   0.056   0.042  -0.397
    1UNL    H25   89  -0.098   0.108  -0.360
    1UNL    H26   90  -0.009   0.355  -0.181
    1UNL    H27   91  -0.142   0.254  -0.207
    1UNL    H28   92  -0.022   0.334   0.050
    1UNL    H29   93  -0.171   0.235   0.032
    1UNL    H30   94   0.130  -0.155  -0.008
    1UNL    H31   95   0.054  -0.280   0.242
    1UNL    H32   96  -0.154  -0.255   0.387
    1UNL    H33   97  -0.281  -0.056   0.383
    1UNL    H34   98  -0.190   0.139   0.274
    1UNL    H35   99   0.219   0.194  -0.114
    1UNL    H36  100   0.264   0.076  -0.306
    1UNL    H37  101   0.220  -0.084  -0.255
    1UNL    H38  102   0.426   0.092  -0.117
    1UNL    H39  103   0.263   0.063  -0.627
    1UNL    H40  104   0.386   0.179  -0.617
    1UNL    H41  105   0.437   0.012  -0.657
    1UNL    H42  106   0.707  -0.091  -0.314
    1UNL    H43  107   0.585   0.032   0.016
    1UNL    H44  108   0.561  -0.161   0.312
    1UNL    H45  109   0.212  -0.156   0.294
    1UNL    H46  110   0.303  -0.386   0.330
    1UNL    H47  111   0.425  -0.325   0.428
    1UNL    H48  112   0.235  -0.229   0.546
    1UNL    H49  113   0.410  -0.107   0.513
    1UNL    H50  114   0.169   0.024   0.497
    1UNL    H51  115   0.414   0.136   0.446
    1UNL    H52  116   0.258   0.055   0.235
    1UNL    H53  117   0.618   0.073   0.332
    1UNL    H54  118   0.452   0.200   0.200
    1UNL    H55  119   0.350  -0.072   0.026
    1UNL    H56  120   0.303  -0.262  -0.124
    1UNL    H57  121   0.463  -0.437  -0.075
    1UNL    H58  122   0.569  -0.303   0.001
   0.00000   0.00000   0.00000   0.00000   0.00000   0.00000   0.00000   0.00000   0.00000
Generated with MDTraj, t= 55.0
 122
    1UNL     C1    1  -0.424  -0.115  -0.314
    1UNL     C2    2  -0.365  -0.007  -0.280
    1UNL     C3    3  -0.284   0.014  -0.153
    1UNL     C4    4  -0.382  -0.002  -0.035
    1UNL     O1    5  -0.489   0.092  -0.041
    1UNL     C5    6  -0.578   0.067   0.069
    1UNL     O2    7  -0.705   0.132   0.055
    1UNL     C6    8  -0.683   0.272   0.033
    1UNL     C7    9  -0.827   0.327   0.015
    1UNL     O3   10  -0.820   0.462  -0.020
    1UNL     C8   11  -0.603   0.349   0.145
    1UNL     O4   12  -0.557   0.474   0.092
    1UNL     C9   13  -0.477   0.266   0.194
    1UNL     O5   14  -0.362   0.275   0.100
    1UNL    C10   15  -0.522   0.117   0.207
    1UNL     O6   16  -0.607   0.098   0.316
    1UNL     O7   17  -0.415  -0.147  -0.032
    1UNL    C11   18  -0.311  -0.240  -0.032
    1UNL    C12   19  -0.191  -0.218  -0.096
    1UNL    C13   20  -0.079  -0.317  -0.086
    1UNL     O8   21   0.012  -0.319  -0.167
    1UNL     O9   22  -0.107  -0.412   0.022
    1UNL    C14   23  -0.006  -0.509   0.024
    1UNL    C15   24  -0.157  -0.072  -0.143
    1UNL    C16   25  -0.071  -0.068  -0.268
    1UNL    C17   26  -0.017   0.070  -0.320
    1UNL     N1   27   0.058   0.144  -0.214
    1UNL    C18   28   0.001   0.267  -0.150
    1UNL    C19   29  -0.011   0.257   0.003
    1UNL    C20   30   0.031   0.123   0.057
    1UNL    C21   31   0.122   0.042  -0.009
    1UNL     N2   32   0.127  -0.079   0.048
    1UNL    C22   33   0.036  -0.078   0.150
    1UNL    C23   34  -0.007  -0.193   0.223
    1UNL    C24   35  -0.107  -0.174   0.316
    1UNL    C25   36  -0.170  -0.045   0.335
    1UNL    C26   37  -0.132   0.062   0.253
    1UNL    C27   38  -0.028   0.049   0.157
    1UNL    C28   39   0.175   0.090  -0.145
    1UNL    C29   40   0.257  -0.015  -0.218
    1UNL    C30   41   0.407  -0.005  -0.175
    1UNL    C31   42   0.508  -0.041  -0.277
    1UNL    C32   43   0.506   0.009  -0.416
    1UNL    O10   44   0.614   0.040  -0.456
    1UNL    O11   45   0.384   0.029  -0.482
    1UNL    C33   46   0.406   0.056  -0.618
    1UNL    C34   47   0.627  -0.096  -0.233
    1UNL    O12   48   0.678  -0.115  -0.108
    1UNL    C35   49   0.585  -0.078  -0.004
    1UNL    O13   50   0.606  -0.132   0.124
    1UNL    C36   51   0.502  -0.100   0.221
    1UNL    O14   52   0.375  -0.164   0.210
    1UNL    C37   53   0.300  -0.169   0.333
    1UNL    C38   54   0.336  -0.303   0.395
    1UNL    O15   55   0.257  -0.352   0.501
    1UNL    C39   56   0.324  -0.061   0.437
    1UNL    O16   57   0.212  -0.041   0.524
    1UNL    C40   58   0.361   0.067   0.351
    1UNL    O17   59   0.250   0.109   0.276
    1UNL    C41   60   0.489   0.052   0.261
    1UNL    O18   61   0.468   0.128   0.145
    1UNL    C42   62   0.438  -0.093  -0.049
    1UNL    C43   63   0.404  -0.243  -0.071
    1UNL    C44   64   0.423  -0.336   0.020
    1UNL     H1   65  -0.437  -0.194  -0.241
    1UNL     H2   66  -0.485  -0.124  -0.405
    1UNL     H3   67  -0.357   0.079  -0.351
    1UNL     H4   68  -0.257   0.121  -0.150
    1UNL     H5   69  -0.333   0.021   0.054
    1UNL     H6   70  -0.607  -0.044   0.071
    1UNL     H7   71  -0.628   0.283  -0.063
    1UNL     H8   72  -0.891   0.308   0.106
    1UNL     H9   73  -0.880   0.266  -0.060
    1UNL    H10   74  -0.908   0.503  -0.036
    1UNL    H11   75  -0.670   0.380   0.223
    1UNL    H12   76  -0.627   0.523   0.041
    1UNL    H13   77  -0.437   0.298   0.292
    1UNL    H14   78  -0.397   0.336   0.026
    1UNL    H15   79  -0.437   0.055   0.231
    1UNL    H16   80  -0.657   0.011   0.301
    1UNL    H17   81  -0.336  -0.340   0.013
    1UNL    H18   82   0.085  -0.466   0.065
    1UNL    H19   83  -0.004  -0.559  -0.074
    1UNL    H20   84  -0.041  -0.577   0.099
    1UNL    H21   85  -0.098  -0.033  -0.067
    1UNL    H22   86   0.012  -0.132  -0.262
    1UNL    H23   87  -0.141  -0.121  -0.348
    1UNL    H24   88   0.054   0.048  -0.405
    1UNL    H25   89  -0.093   0.133  -0.354
    1UNL    H26   90   0.067   0.345  -0.180
    1UNL    H27   91  -0.094   0.299  -0.202
    1UNL    H28   92   0.040   0.338   0.057
    1UNL    H29   93  -0.125   0.269   0.019
    1UNL    H30   94   0.188  -0.168   0.039
    1UNL    H31   95   0.013  -0.301   0.201
    1UNL    H32   96  -0.149  -0.248   0.385
    1UNL    H33   97  -0.260  -0.035   0.387
    1UNL    H34   98  -0.189   0.158   0.254
    1UNL    H35   99   0.247   0.170  -0.124
    1UNL    H36  100   0.252   0.001  -0.321
    1UNL    H37  101   0.204  -0.106  -0.191
    1UNL    H38  102   0.431   0.099  -0.157
    1UNL    H39  103   0.322   0.118  -0.645
    1UNL    H40  104   0.491   0.122  -0.635
    1UNL    H41  105   0.421  -0.032  -0.678
    1UNL    H42  106   0.695  -0.118  -0.312
    1UNL    H43  107   0.606   0.028   0.006
    1UNL    H44  108   0.551  -0.135   0.310
    1UNL    H45  109   0.193  -0.168   0.309
    1UNL    H46  110   0.342  -0.381   0.323
    1UNL    H47  111   0.429  -0.296   0.443
    1UNL    H48  112   0.252  -0.294   0.577
    1UNL    H49  113   0.400  -0.085   0.507
    1UNL    H50  114   0.121  -0.060   0.485
    1UNL    H51  115   0.370   0.150   0.418
    1UNL    H52  116   0.226   0.040   0.215
    1UNL    H53  117   0.586   0.093   0.306
    1UNL    H54  118   0.406   0.208   0.169
    1UNL    H55  119   0.377  -0.053   0.035
    1UNL    H56  120   0.345  -0.273  -0.157
    1UNL    H57  121   0.391  -0.440  -0.001
    1UNL    H58  122   0.456  -0.304   0.114
   0.00000   0.00000   0.00000   0.00000   0.00000   0.00000   0.00000   0.00000   0.00000
Generated with MDTraj, t= 56.0
 122
    1UNL     C1    1  -0.403  -0.078  -0.342
    1UNL     C2    2  -0.353   0.029  -0.289
    1UNL     C3    3  -0.282   0.026  -0.153
    1UNL     C4    4  -0.381  -0.014  -0.037
    1UNL     O1    5  -0.483   0.077  -0.031
    1UNL     C5    6  -0.570   0.061   0.076
    1UNL     O2    7  -0.699   0.120   0.059
    1UNL     C6    8  -0.682   0.260   0.040
    1UNL     C7    9  -0.828   0.309   0.013
    1UNL     O3   10  -0.822   0.445  -0.001
    1UNL     C8   11  -0.617   0.338   0.160
    1UNL     O4   12  -0.591   0.470   0.126
    1UNL     C9   13  -0.490   0.266   0.196
    1UNL     O5   14  -0.383   0.303   0.114
    1UNL    C10   15  -0.506   0.115   0.205
    1UNL     O6   16  -0.568   0.085   0.327
    1UNL     O7   17  -0.419  -0.154  -0.019
    1UNL    C11   18  -0.303  -0.229  -0.023
    1UNL    C12   19  -0.188  -0.203  -0.088
    1UNL    C13   20  -0.070  -0.301  -0.086
    1UNL     O8   21   0.025  -0.293  -0.161
    1UNL     O9   22  -0.092  -0.400   0.011
    1UNL    C14   23   0.023  -0.477   0.032
    1UNL    C15   24  -0.161  -0.065  -0.151
    1UNL    C16   25  -0.068  -0.065  -0.268
    1UNL    C17   26  -0.021   0.072  -0.317
    1UNL     N1   27   0.068   0.149  -0.220
    1UNL    C18   28   0.009   0.272  -0.148
    1UNL    C19   29  -0.019   0.249   0.005
    1UNL    C20   30   0.029   0.115   0.048
    1UNL    C21   31   0.119   0.031  -0.022
    1UNL     N2   32   0.126  -0.094   0.044
    1UNL    C22   33   0.029  -0.091   0.143
    1UNL    C23   34  -0.029  -0.192   0.226
    1UNL    C24   35  -0.122  -0.153   0.326
    1UNL    C25   36  -0.174  -0.019   0.326
    1UNL    C26   37  -0.129   0.075   0.242
    1UNL    C27   38  -0.030   0.037   0.148
    1UNL    C28   39   0.179   0.077  -0.154
    1UNL    C29   40   0.272  -0.015  -0.230
    1UNL    C30   41   0.417  -0.017  -0.161
    1UNL    C31   42   0.531  -0.028  -0.260
    1UNL    C32   43   0.529  -0.005  -0.406
    1UNL    O10   44   0.634  -0.008  -0.464
    1UNL    O11   45   0.404   0.014  -0.458
    1UNL    C33   46   0.410   0.055  -0.596
    1UNL    C34   47   0.654  -0.080  -0.223
    1UNL    O12   48   0.680  -0.137  -0.104
    1UNL    C35   49   0.582  -0.093  -0.005
    1UNL    O13   50   0.611  -0.125   0.129
    1UNL    C36   51   0.506  -0.090   0.219
    1UNL    O14   52   0.383  -0.176   0.211
    1UNL    C37   53   0.304  -0.176   0.331
    1UNL    C38   54   0.339  -0.306   0.412
    1UNL    O15   55   0.250  -0.332   0.521
    1UNL    C39   56   0.317  -0.058   0.428
    1UNL    O16   57   0.200  -0.023   0.497
    1UNL    C40   58   0.344   0.075   0.335
    1UNL    O17   59   0.222   0.122   0.286
    1UNL    C41   60   0.467   0.065   0.232
    1UNL    O18   61   0.411   0.114   0.112
    1UNL    C42   62   0.435  -0.123  -0.051
    1UNL    C43   63   0.410  -0.261  -0.103
    1UNL    C44   64   0.365  -0.364  -0.032
    1UNL     H1   65  -0.408  -0.175  -0.299
    1UNL     H2   66  -0.432  -0.084  -0.442
    1UNL     H3   67  -0.360   0.119  -0.342
    1UNL     H4   68  -0.252   0.129  -0.121
    1UNL     H5   69  -0.326  -0.000   0.050
    1UNL     H6   70  -0.593  -0.051   0.088
    1UNL     H7   71  -0.618   0.270  -0.053
    1UNL     H8   72  -0.897   0.275   0.096
    1UNL     H9   73  -0.871   0.260  -0.075
    1UNL    H10   74  -0.913   0.485  -0.011
    1UNL    H11   75  -0.686   0.340   0.240
    1UNL    H12   76  -0.676   0.512   0.093
    1UNL    H13   77  -0.458   0.302   0.299
    1UNL    H14   78  -0.410   0.385   0.073
    1UNL    H15   79  -0.412   0.067   0.221
    1UNL    H16   80  -0.661   0.100   0.322
    1UNL    H17   81  -0.318  -0.318   0.025
    1UNL    H18   82   0.112  -0.415   0.040
    1UNL    H19   83   0.028  -0.562  -0.037
    1UNL    H20   84  -0.000  -0.507   0.133
    1UNL    H21   85  -0.092  -0.023  -0.068
    1UNL    H22   86   0.002  -0.145  -0.261
    1UNL    H23   87  -0.135  -0.102  -0.359
    1UNL    H24   88   0.033   0.075  -0.414
    1UNL    H25   89  -0.107   0.133  -0.329
    1UNL    H26   90   0.077   0.355  -0.161
    1UNL    H27   91  -0.077   0.304  -0.206
    1UNL    H28   92   0.032   0.329   0.063
    1UNL    H29   93  -0.130   0.246   0.030
    1UNL    H30   94   0.141  -0.177  -0.026
    1UNL    H31   95   0.001  -0.291   0.214
    1UNL    H32   96  -0.157  -0.229   0.391
    1UNL    H33   97  -0.240   0.020   0.408
    1UNL    H34   98  -0.181   0.173   0.230
    1UNL    H35   99   0.252   0.159  -0.138
    1UNL    H36  100   0.267   0.020  -0.333
    1UNL    H37  101   0.237  -0.114  -0.225
    1UNL    H38  102   0.430   0.082  -0.115
    1UNL    H39  103   0.311   0.048  -0.644
    1UNL    H40  104   0.430   0.163  -0.596
    1UNL    H41  105   0.493   0.008  -0.649
    1UNL    H42  106   0.717  -0.110  -0.300
    1UNL    H43  107   0.596   0.015  -0.007
    1UNL    H44  108   0.554  -0.111   0.317
    1UNL    H45  109   0.198  -0.181   0.299
    1UNL    H46  110   0.330  -0.390   0.344
    1UNL    H47  111   0.435  -0.302   0.456
    1UNL    H48  112   0.210  -0.249   0.562
    1UNL    H49  113   0.397  -0.073   0.495
    1UNL    H50  114   0.127  -0.016   0.433
    1UNL    H51  115   0.377   0.145   0.408
    1UNL    H52  116   0.193   0.063   0.213
    1UNL    H53  117   0.555   0.130   0.259
    1UNL    H54  118   0.359   0.188   0.138
    1UNL    H55  119   0.372  -0.101   0.040
    1UNL    H56  120   0.423  -0.275  -0.209
    1UNL    H57  121   0.331  -0.455  -0.073
    1UNL    H58  122   0.329  -0.339   0.067
   0.00000   0.00000   0.00000   0.00000   0.00000   0.00000   0.00000   0.00000   0.00000
Generated with MDTraj, t= 57.0
 122
    1UNL     C1    1  -0.405  -0.099  -0.331
    1UNL     C2    2  -0.361   0.015  -0.287
    1UNL     C3    3  -0.271   0.035  -0.172
    1UNL     C4    4  -0.367  -0.002  -0.051
    1UNL     O1    5  -0.473   0.092  -0.033
    1UNL     C5    6  -0.551   0.062   0.078
    1UNL     O2    7  -0.688   0.102   0.069
    1UNL     C6    8  -0.690   0.245   0.060
    1UNL     C7    9  -0.831   0.300   0.029
    1UNL     O3   10  -0.818   0.430  -0.011
    1UNL     C8   11  -0.631   0.324   0.180
    1UNL     O4   12  -0.611   0.459   0.161
    1UNL     C9   13  -0.493   0.267   0.220
    1UNL     O5   14  -0.396   0.318   0.135
    1UNL    C10   15  -0.490   0.113   0.212
    1UNL     O6   16  -0.549   0.051   0.327
    1UNL     O7   17  -0.401  -0.140  -0.041
    1UNL    C11   18  -0.291  -0.223  -0.046
    1UNL    C12   19  -0.171  -0.186  -0.099
    1UNL    C13   20  -0.050  -0.275  -0.075
    1UNL     O8   21   0.060  -0.245  -0.117
    1UNL     O9   22  -0.092  -0.392  -0.008
    1UNL    C14   23   0.017  -0.488  -0.003
    1UNL    C15   24  -0.144  -0.051  -0.170
    1UNL    C16   25  -0.058  -0.066  -0.296
    1UNL    C17   26   0.013   0.062  -0.337
    1UNL     N1   27   0.076   0.145  -0.223
    1UNL    C18   28   0.016   0.264  -0.162
    1UNL    C19   29  -0.023   0.254  -0.011
    1UNL    C20   30   0.020   0.128   0.052
    1UNL    C21   31   0.116   0.045  -0.008
    1UNL     N2   32   0.122  -0.071   0.066
    1UNL    C22   33   0.018  -0.072   0.162
    1UNL    C23   34  -0.027  -0.174   0.237
    1UNL    C24   35  -0.130  -0.146   0.322
    1UNL    C25   36  -0.186  -0.013   0.341
    1UNL    C26   37  -0.148   0.085   0.250
    1UNL    C27   38  -0.043   0.055   0.163
    1UNL    C28   39   0.183   0.081  -0.144
    1UNL    C29   40   0.263  -0.023  -0.219
    1UNL    C30   41   0.415  -0.029  -0.173
    1UNL    C31   42   0.528  -0.040  -0.277
    1UNL    C32   43   0.524  -0.026  -0.423
    1UNL    O10   44   0.620  -0.058  -0.486
    1UNL    O11   45   0.414   0.040  -0.466
    1UNL    C33   46   0.410   0.065  -0.608
    1UNL    C34   47   0.646  -0.081  -0.233
    1UNL    O12   48   0.681  -0.112  -0.098
    1UNL    C35   49   0.578  -0.089   0.002
    1UNL    O13   50   0.594  -0.146   0.133
    1UNL    C36   51   0.490  -0.109   0.219
    1UNL    O14   52   0.371  -0.200   0.220
    1UNL    C37   53   0.292  -0.182   0.341
    1UNL    C38   54   0.310  -0.307   0.436
    1UNL    O15   55   0.225  -0.291   0.550
    1UNL    C39   56   0.306  -0.049   0.424
    1UNL    O16   57   0.189  -0.008   0.493
    1UNL    C40   58   0.345   0.073   0.327
    1UNL    O17   59   0.227   0.123   0.270
    1UNL    C41   60   0.456   0.041   0.226
    1UNL    O18   61   0.410   0.082   0.107
    1UNL    C42   62   0.441  -0.129  -0.063
    1UNL    C43   63   0.447  -0.275  -0.086
    1UNL    C44   64   0.350  -0.367  -0.074
    1UNL     H1   65  -0.368  -0.192  -0.286
    1UNL     H2   66  -0.471  -0.129  -0.412
    1UNL     H3   67  -0.395   0.107  -0.341
    1UNL     H4   68  -0.247   0.143  -0.158
    1UNL     H5   69  -0.306  -0.002   0.033
    1UNL     H6   70  -0.552  -0.055   0.073
    1UNL     H7   71  -0.625   0.260  -0.034
    1UNL     H8   72  -0.904   0.289   0.115
    1UNL     H9   73  -0.871   0.247  -0.057
    1UNL    H10   74  -0.903   0.462  -0.051
    1UNL    H11   75  -0.695   0.314   0.261
    1UNL    H12   76  -0.671   0.494   0.095
    1UNL    H13   77  -0.464   0.311   0.324
    1UNL    H14   78  -0.426   0.409   0.099
    1UNL    H15   79  -0.390   0.079   0.214
    1UNL    H16   80  -0.640   0.071   0.325
    1UNL    H17   81  -0.293  -0.306   0.024
    1UNL    H18   82   0.081  -0.468   0.083
    1UNL    H19   83   0.075  -0.477  -0.099
    1UNL    H20   84  -0.033  -0.582   0.022
    1UNL    H21   85  -0.074  -0.006  -0.097
    1UNL    H22   86   0.016  -0.147  -0.282
    1UNL    H23   87  -0.124  -0.115  -0.378
    1UNL    H24   88   0.092   0.046  -0.411
    1UNL    H25   89  -0.055   0.135  -0.382
    1UNL    H26   90   0.095   0.339  -0.175
    1UNL    H27   91  -0.064   0.301  -0.218
    1UNL    H28   92   0.030   0.328   0.053
    1UNL    H29   93  -0.135   0.263  -0.008
    1UNL    H30   94   0.176  -0.165   0.058
    1UNL    H31   95   0.017  -0.274   0.221
    1UNL    H32   96  -0.161  -0.224   0.392
    1UNL    H33   97  -0.257  -0.004   0.415
    1UNL    H34   98  -0.175   0.184   0.249
    1UNL    H35   99   0.255   0.161  -0.120
    1UNL    H36  100   0.272   0.010  -0.325
    1UNL    H37  101   0.204  -0.109  -0.214
    1UNL    H38  102   0.430   0.071  -0.128
    1UNL    H39  103   0.302   0.068  -0.635
    1UNL    H40  104   0.447   0.167  -0.626
    1UNL    H41  105   0.471  -0.010  -0.661
    1UNL    H42  106   0.743  -0.083  -0.294
    1UNL    H43  107   0.583   0.019   0.014
    1UNL    H44  108   0.535  -0.135   0.319
    1UNL    H45  109   0.191  -0.176   0.299
    1UNL    H46  110   0.275  -0.395   0.380
    1UNL    H47  111   0.416  -0.305   0.460
    1UNL    H48  112   0.211  -0.195   0.555
    1UNL    H49  113   0.383  -0.058   0.495
    1UNL    H50  114   0.119   0.027   0.431
    1UNL    H51  115   0.377   0.154   0.393
    1UNL    H52  116   0.194   0.055   0.198
    1UNL    H53  117   0.548   0.098   0.246
    1UNL    H54  118   0.366   0.174   0.129
    1UNL    H55  119   0.364  -0.116   0.020
    1UNL    H56  120   0.550  -0.304  -0.109
    1UNL    H57  121   0.371  -0.471  -0.080
    1UNL    H58  122   0.243  -0.337  -0.068
   0.00000   0.00000   0.00000   0.00000   0.00000   0.00000   0.00000   0.00000   0.00000
Generated with MDTraj, t= 58.0
 122
    1UNL     C1    1  -0.417  -0.136  -0.319
    1UNL     C2    2  -0.347  -0.025  -0.312
    1UNL     C3    3  -0.267   0.031  -0.193
    1UNL     C4    4  -0.352   0.010  -0.062
    1UNL     O1    5  -0.466   0.094  -0.047
    1UNL     C5    6  -0.536   0.061   0.068
    1UNL     O2    7  -0.670   0.105   0.066
    1UNL     C6    8  -0.679   0.245   0.057
    1UNL     C7    9  -0.822   0.276  -0.001
    1UNL     O3   10  -0.834   0.418  -0.009
    1UNL     C8   11  -0.637   0.307   0.201
    1UNL     O4   12  -0.624   0.448   0.202
    1UNL     C9   13  -0.487   0.250   0.235
    1UNL     O5   14  -0.381   0.317   0.163
    1UNL    C10   15  -0.478   0.099   0.207
    1UNL     O6   16  -0.546   0.021   0.310
    1UNL     O7   17  -0.387  -0.120  -0.029
    1UNL    C11   18  -0.284  -0.212  -0.041
    1UNL    C12   19  -0.171  -0.192  -0.113
    1UNL    C13   20  -0.062  -0.289  -0.100
    1UNL     O8   21   0.046  -0.258  -0.141
    1UNL     O9   22  -0.104  -0.411  -0.053
    1UNL    C14   23   0.007  -0.499  -0.039
    1UNL    C15   24  -0.142  -0.052  -0.177
    1UNL    C16   25  -0.055  -0.058  -0.301
    1UNL    C17   26   0.000   0.079  -0.345
    1UNL     N1   27   0.072   0.153  -0.230
    1UNL    C18   28   0.025   0.282  -0.173
    1UNL    C19   29  -0.017   0.270  -0.026
    1UNL    C20   30   0.025   0.141   0.043
    1UNL    C21   31   0.116   0.054  -0.013
    1UNL     N2   32   0.123  -0.066   0.058
    1UNL    C22   33   0.029  -0.058   0.159
    1UNL    C23   34  -0.029  -0.152   0.246
    1UNL    C24   35  -0.131  -0.113   0.332
    1UNL    C25   36  -0.181   0.019   0.331
    1UNL    C26   37  -0.131   0.111   0.243
    1UNL    C27   38  -0.024   0.075   0.160
    1UNL    C28   39   0.180   0.082  -0.144
    1UNL    C29   40   0.256  -0.033  -0.214
    1UNL    C30   41   0.405  -0.033  -0.158
    1UNL    C31   42   0.508  -0.063  -0.265
    1UNL    C32   43   0.496  -0.046  -0.406
    1UNL    O10   44   0.580  -0.094  -0.477
    1UNL    O11   45   0.396   0.036  -0.448
    1UNL    C33   46   0.388   0.068  -0.587
    1UNL    C34   47   0.627  -0.103  -0.217
    1UNL    O12   48   0.662  -0.127  -0.082
    1UNL    C35   49   0.566  -0.091   0.016
    1UNL    O13   50   0.597  -0.141   0.142
    1UNL    C36   51   0.504  -0.110   0.241
    1UNL    O14   52   0.381  -0.181   0.228
    1UNL    C37   53   0.300  -0.162   0.343
    1UNL    C38   54   0.298  -0.292   0.417
    1UNL    O15   55   0.201  -0.286   0.520
    1UNL    C39   56   0.321  -0.038   0.436
    1UNL    O16   57   0.204  -0.005   0.506
    1UNL    C40   58   0.366   0.077   0.352
    1UNL    O17   59   0.254   0.142   0.286
    1UNL    C41   60   0.480   0.044   0.256
    1UNL    O18   61   0.436   0.091   0.136
    1UNL    C42   62   0.429  -0.131  -0.042
    1UNL    C43   63   0.444  -0.276  -0.093
    1UNL    C44   64   0.336  -0.348  -0.131
    1UNL     H1   65  -0.436  -0.194  -0.235
    1UNL     H2   66  -0.480  -0.171  -0.398
    1UNL     H3   67  -0.321   0.019  -0.404
    1UNL     H4   68  -0.245   0.139  -0.207
    1UNL     H5   69  -0.284   0.033   0.013
    1UNL     H6   70  -0.546  -0.056   0.054
    1UNL     H7   71  -0.600   0.277  -0.019
    1UNL     H8   72  -0.899   0.243   0.072
    1UNL     H9   73  -0.835   0.234  -0.099
    1UNL    H10   74  -0.892   0.445  -0.081
    1UNL    H11   75  -0.705   0.277   0.273
    1UNL    H12   76  -0.710   0.486   0.162
    1UNL    H13   77  -0.462   0.273   0.346
    1UNL    H14   78  -0.407   0.405   0.141
    1UNL    H15   79  -0.374   0.062   0.211
    1UNL    H16   80  -0.643   0.040   0.301
    1UNL    H17   81  -0.302  -0.311   0.016
    1UNL    H18   82   0.086  -0.447   0.018
    1UNL    H19   83   0.049  -0.521  -0.143
    1UNL    H20   84  -0.035  -0.573   0.031
    1UNL    H21   85  -0.086  -0.006  -0.104
    1UNL    H22   86   0.039  -0.123  -0.281
    1UNL    H23   87  -0.112  -0.103  -0.386
    1UNL    H24   88   0.070   0.067  -0.427
    1UNL    H25   89  -0.086   0.143  -0.375
    1UNL    H26   90   0.115   0.347  -0.173
    1UNL    H27   91  -0.041   0.335  -0.232
    1UNL    H28   92   0.024   0.354   0.036
    1UNL    H29   93  -0.127   0.258  -0.013
    1UNL    H30   94   0.154  -0.159   0.023
    1UNL    H31   95   0.019  -0.248   0.247
    1UNL    H32   96  -0.171  -0.188   0.394
    1UNL    H33   97  -0.259   0.059   0.400
    1UNL    H34   98  -0.163   0.222   0.238
    1UNL    H35   99   0.243   0.171  -0.131
    1UNL    H36  100   0.244  -0.019  -0.324
    1UNL    H37  101   0.205  -0.124  -0.191
    1UNL    H38  102   0.424   0.068  -0.110
    1UNL    H39  103   0.352   0.174  -0.585
    1UNL    H40  104   0.486   0.067  -0.635
    1UNL    H41  105   0.318  -0.002  -0.634
    1UNL    H42  106   0.709  -0.139  -0.283
    1UNL    H43  107   0.578   0.023   0.014
    1UNL    H44  108   0.553  -0.155   0.334
    1UNL    H45  109   0.199  -0.156   0.301
    1UNL    H46  110   0.266  -0.374   0.345
    1UNL    H47  111   0.391  -0.314   0.471
    1UNL    H48  112   0.182  -0.188   0.531
    1UNL    H49  113   0.396  -0.063   0.510
    1UNL    H50  114   0.147   0.062   0.462
    1UNL    H51  115   0.383   0.160   0.425
    1UNL    H52  116   0.221   0.083   0.208
    1UNL    H53  117   0.573   0.094   0.274
    1UNL    H54  118   0.408   0.183   0.148
    1UNL    H55  119   0.352  -0.123   0.043
    1UNL    H56  120   0.542  -0.318  -0.106
    1UNL    H57  121   0.348  -0.446  -0.170
    1UNL    H58  122   0.233  -0.322  -0.106
   0.00000   0.00000   0.00000   0.00000   0.00000   0.00000   0.00000   0.00000   0.00000
Generated with MDTraj, t= 59.0
 122
    1UNL     C1    1  -0.458  -0.121  -0.278
    1UNL     C2    2  -0.361  -0.039  -0.297
    1UNL     C3    3  -0.267   0.008  -0.191
    1UNL     C4    4  -0.344  -0.002  -0.059
    1UNL     O1    5  -0.454   0.087  -0.056
    1UNL     C5    6  -0.553   0.042   0.041
    1UNL     O2    7  -0.688   0.103   0.037
    1UNL     C6    8  -0.687   0.248   0.046
    1UNL     C7    9  -0.824   0.307   0.016
    1UNL     O3   10  -0.827   0.453   0.012
    1UNL     C8   11  -0.642   0.293   0.192
    1UNL     O4   12  -0.629   0.435   0.203
    1UNL     C9   13  -0.507   0.227   0.224
    1UNL     O5   14  -0.399   0.303   0.180
    1UNL    C10   15  -0.492   0.082   0.183
    1UNL     O6   16  -0.535  -0.012   0.281
    1UNL     O7   17  -0.368  -0.138  -0.015
    1UNL    C11   18  -0.265  -0.226  -0.049
    1UNL    C12   19  -0.153  -0.201  -0.119
    1UNL    C13   20  -0.054  -0.307  -0.125
    1UNL     O8   21   0.050  -0.288  -0.181
    1UNL     O9   22  -0.099  -0.428  -0.072
    1UNL    C14   23  -0.003  -0.533  -0.086
    1UNL    C15   24  -0.136  -0.065  -0.183
    1UNL    C16   25  -0.045  -0.057  -0.310
    1UNL    C17   26   0.011   0.083  -0.338
    1UNL     N1   27   0.078   0.160  -0.224
    1UNL    C18   28   0.008   0.291  -0.180
    1UNL    C19   29  -0.019   0.295  -0.025
    1UNL    C20   30   0.030   0.168   0.040
    1UNL    C21   31   0.127   0.074  -0.003
    1UNL     N2   32   0.113  -0.048   0.061
    1UNL    C22   33   0.009  -0.036   0.153
    1UNL    C23   34  -0.035  -0.128   0.256
    1UNL    C24   35  -0.121  -0.078   0.354
    1UNL    C25   36  -0.158   0.058   0.345
    1UNL    C26   37  -0.114   0.148   0.249
    1UNL    C27   38  -0.032   0.098   0.152
    1UNL    C28   39   0.187   0.097  -0.138
    1UNL    C29   40   0.254  -0.031  -0.192
    1UNL    C30   41   0.406  -0.045  -0.152
    1UNL    C31   42   0.510  -0.074  -0.258
    1UNL    C32   43   0.488  -0.051  -0.402
    1UNL    O10   44   0.552  -0.109  -0.484
    1UNL    O11   45   0.393   0.046  -0.434
    1UNL    C33   46   0.353   0.052  -0.575
    1UNL    C34   47   0.629  -0.132  -0.214
    1UNL    O12   48   0.670  -0.153  -0.086
    1UNL    C35   49   0.583  -0.107   0.016
    1UNL    O13   50   0.603  -0.145   0.149
    1UNL    C36   51   0.504  -0.101   0.241
    1UNL    O14   52   0.379  -0.165   0.220
    1UNL    C37   53   0.297  -0.153   0.341
    1UNL    C38   54   0.285  -0.286   0.405
    1UNL    O15   55   0.170  -0.291   0.482
    1UNL    C39   56   0.338  -0.043   0.444
    1UNL    O16   57   0.237  -0.012   0.535
    1UNL    C40   58   0.374   0.087   0.360
    1UNL    O17   59   0.259   0.146   0.290
    1UNL    C41   60   0.499   0.059   0.266
    1UNL    O18   61   0.481   0.132   0.150
    1UNL    C42   62   0.434  -0.131  -0.032
    1UNL    C43   63   0.418  -0.280  -0.045
    1UNL    C44   64   0.351  -0.336  -0.145
    1UNL     H1   65  -0.479  -0.174  -0.186
    1UNL     H2   66  -0.524  -0.147  -0.362
    1UNL     H3   67  -0.352   0.020  -0.392
    1UNL     H4   68  -0.250   0.117  -0.215
    1UNL     H5   69  -0.278   0.041   0.011
    1UNL     H6   70  -0.571  -0.074   0.025
    1UNL     H7   71  -0.612   0.294  -0.024
    1UNL     H8   72  -0.894   0.284   0.099
    1UNL     H9   73  -0.861   0.274  -0.079
    1UNL    H10   74  -0.919   0.489   0.006
    1UNL    H11   75  -0.715   0.262   0.259
    1UNL    H12   76  -0.707   0.464   0.152
    1UNL    H13   77  -0.494   0.236   0.338
    1UNL    H14   78  -0.424   0.400   0.159
    1UNL    H15   79  -0.382   0.064   0.179
    1UNL    H16   80  -0.638  -0.021   0.293
    1UNL    H17   81  -0.280  -0.323  -0.006
    1UNL    H18   82   0.096  -0.500  -0.051
    1UNL    H19   83   0.007  -0.566  -0.194
    1UNL    H20   84  -0.040  -0.604  -0.012
    1UNL    H21   85  -0.077  -0.002  -0.115
    1UNL    H22   86   0.037  -0.142  -0.305
    1UNL    H23   87  -0.110  -0.075  -0.396
    1UNL    H24   88   0.084   0.077  -0.416
    1UNL    H25   89  -0.072   0.150  -0.376
    1UNL    H26   90   0.051   0.385  -0.217
    1UNL    H27   91  -0.084   0.289  -0.229
    1UNL    H28   92   0.048   0.372   0.024
    1UNL    H29   93  -0.125   0.315   0.002
    1UNL    H30   94   0.163  -0.132   0.044
    1UNL    H31   95  -0.003  -0.231   0.259
    1UNL    H32   96  -0.171  -0.148   0.424
    1UNL    H33   97  -0.218   0.099   0.424
    1UNL    H34   98  -0.149   0.246   0.247
    1UNL    H35   99   0.258   0.181  -0.123
    1UNL    H36  100   0.246  -0.041  -0.300
    1UNL    H37  101   0.187  -0.112  -0.152
    1UNL    H38  102   0.438   0.061  -0.123
    1UNL    H39  103   0.371   0.152  -0.616
    1UNL    H40  104   0.409  -0.015  -0.639
    1UNL    H41  105   0.250   0.022  -0.583
    1UNL    H42  106   0.688  -0.171  -0.288
    1UNL    H43  107   0.603   0.007   0.016
    1UNL    H44  108   0.541  -0.144   0.342
    1UNL    H45  109   0.195  -0.130   0.307
    1UNL    H46  110   0.259  -0.372   0.331
    1UNL    H47  111   0.370  -0.319   0.469
    1UNL    H48  112   0.176  -0.219   0.546
    1UNL    H49  113   0.428  -0.070   0.499
    1UNL    H50  114   0.166   0.034   0.488
    1UNL    H51  115   0.403   0.166   0.436
    1UNL    H52  116   0.224   0.083   0.220
    1UNL    H53  117   0.593   0.089   0.302
    1UNL    H54  118   0.416   0.208   0.170
    1UNL    H55  119   0.361  -0.108   0.053
    1UNL    H56  120   0.449  -0.342   0.038
    1UNL    H57  121   0.333  -0.443  -0.154
    1UNL    H58  122   0.318  -0.270  -0.219
   0.00000   0.00000   0.00000   0.00000   0.00000   0.00000   0.00000   0.00000   0.00000
Generated with MDTraj, t= 60.0
 122
    1UNL     C1    1  -0.475  -0.084  -0.304
    1UNL     C2    2  -0.345  -0.073  -0.302
    1UNL     C3    3  -0.261  -0.008  -0.195
    1UNL     C4    4  -0.335   0.001  -0.057
    1UNL     O1    5  -0.438   0.090  -0.046
    1UNL     C5    6  -0.549   0.039   0.036
    1UNL     O2    7  -0.679   0.097   0.029
    1UNL     C6    8  -0.679   0.241   0.048
    1UNL     C7    9  -0.808   0.305   0.009
    1UNL     O3   10  -0.806   0.448   0.031
    1UNL     C8   11  -0.633   0.270   0.194
    1UNL     O4   12  -0.630   0.411   0.217
    1UNL     C9   13  -0.494   0.200   0.227
    1UNL     O5   14  -0.390   0.280   0.171
    1UNL    C10   15  -0.504   0.057   0.182
    1UNL     O6   16  -0.598  -0.003   0.266
    1UNL     O7   17  -0.353  -0.129  -0.003
    1UNL    C11   18  -0.253  -0.220  -0.023
    1UNL    C12   19  -0.148  -0.203  -0.105
    1UNL    C13   20  -0.049  -0.310  -0.136
    1UNL     O8   21   0.052  -0.282  -0.197
    1UNL     O9   22  -0.093  -0.437  -0.100
    1UNL    C14   23   0.008  -0.530  -0.139
    1UNL    C15   24  -0.125  -0.072  -0.172
    1UNL    C16   25  -0.044  -0.063  -0.309
    1UNL    C17   26   0.003   0.078  -0.340
    1UNL     N1   27   0.060   0.141  -0.219
    1UNL    C18   28   0.008   0.274  -0.178
    1UNL    C19   29   0.005   0.301  -0.025
    1UNL    C20   30   0.033   0.171   0.050
    1UNL    C21   31   0.117   0.075   0.004
    1UNL     N2   32   0.112  -0.038   0.089
    1UNL    C22   33   0.017  -0.013   0.186
    1UNL    C23   34  -0.024  -0.088   0.303
    1UNL    C24   35  -0.134  -0.041   0.371
    1UNL    C25   36  -0.189   0.085   0.347
    1UNL    C26   37  -0.132   0.165   0.249
    1UNL    C27   38  -0.027   0.122   0.168
    1UNL    C28   39   0.172   0.090  -0.135
    1UNL    C29   40   0.249  -0.027  -0.191
    1UNL    C30   41   0.400  -0.015  -0.158
    1UNL    C31   42   0.499  -0.065  -0.264
    1UNL    C32   43   0.472  -0.063  -0.412
    1UNL    O10   44   0.541  -0.130  -0.485
    1UNL    O11   45   0.375   0.029  -0.457
    1UNL    C33   46   0.377   0.046  -0.597
    1UNL    C34   47   0.612  -0.130  -0.225
    1UNL    O12   48   0.653  -0.157  -0.099
    1UNL    C35   49   0.577  -0.105   0.014
    1UNL    O13   50   0.604  -0.164   0.140
    1UNL    C36   51   0.511  -0.119   0.236
    1UNL    O14   52   0.380  -0.176   0.220
    1UNL    C37   53   0.286  -0.160   0.337
    1UNL    C38   54   0.251  -0.292   0.401
    1UNL    O15   55   0.156  -0.281   0.507
    1UNL    C39   56   0.337  -0.049   0.442
    1UNL    O16   57   0.225   0.006   0.516
    1UNL    C40   58   0.399   0.079   0.362
    1UNL    O17   59   0.292   0.148   0.306
    1UNL    C41   60   0.516   0.040   0.261
    1UNL    O18   61   0.494   0.120   0.148
    1UNL    C42   62   0.432  -0.089  -0.027
    1UNL    C43   63   0.366  -0.222  -0.036
    1UNL    C44   64   0.399  -0.321  -0.117
    1UNL     H1   65  -0.534  -0.049  -0.222
    1UNL     H2   66  -0.526  -0.134  -0.380
    1UNL     H3   67  -0.289  -0.099  -0.388
    1UNL     H4   68  -0.248   0.095  -0.240
    1UNL     H5   69  -0.265   0.053   0.007
    1UNL     H6   70  -0.565  -0.076   0.011
    1UNL     H7   71  -0.590   0.278  -0.008
    1UNL     H8   72  -0.897   0.259   0.056
    1UNL     H9   73  -0.807   0.303  -0.100
    1UNL    H10   74  -0.891   0.486  -0.006
    1UNL    H11   75  -0.702   0.223   0.261
    1UNL    H12   76  -0.693   0.456   0.159
    1UNL    H13   77  -0.477   0.198   0.338
    1UNL    H14   78  -0.421   0.370   0.168
    1UNL    H15   79  -0.403   0.010   0.187
    1UNL    H16   80  -0.691  -0.010   0.219
    1UNL    H17   81  -0.254  -0.308   0.032
    1UNL    H18   82   0.083  -0.517  -0.063
    1UNL    H19   83   0.056  -0.516  -0.239
    1UNL    H20   84  -0.044  -0.623  -0.124
    1UNL    H21   85  -0.063   0.001  -0.107
    1UNL    H22   86   0.046  -0.116  -0.287
    1UNL    H23   87  -0.097  -0.118  -0.385
    1UNL    H24   88   0.083   0.085  -0.409
    1UNL    H25   89  -0.078   0.147  -0.383
    1UNL    H26   90   0.067   0.346  -0.232
    1UNL    H27   91  -0.090   0.291  -0.212
    1UNL    H28   92   0.070   0.385   0.014
    1UNL    H29   93  -0.101   0.322  -0.001
    1UNL    H30   94   0.103  -0.133   0.048
    1UNL    H31   95   0.005  -0.193   0.311
    1UNL    H32   96  -0.181  -0.093   0.449
    1UNL    H33   97  -0.275   0.121   0.402
    1UNL    H34   98  -0.170   0.266   0.231
    1UNL    H35   99   0.240   0.176  -0.123
    1UNL    H36  100   0.236  -0.032  -0.298
    1UNL    H37  101   0.226  -0.128  -0.149
    1UNL    H38  102   0.436   0.092  -0.142
    1UNL    H39  103   0.411   0.145  -0.627
    1UNL    H40  104   0.435  -0.025  -0.654
    1UNL    H41  105   0.276   0.031  -0.630
    1UNL    H42  106   0.683  -0.154  -0.305
    1UNL    H43  107   0.622  -0.000   0.037
    1UNL    H44  108   0.542  -0.160   0.340
    1UNL    H45  109   0.198  -0.118   0.290
    1UNL    H46  110   0.209  -0.373   0.330
    1UNL    H47  111   0.345  -0.337   0.445
    1UNL    H48  112   0.171  -0.187   0.539
    1UNL    H49  113   0.415  -0.083   0.515
    1UNL    H50  114   0.159   0.054   0.457
    1UNL    H51  115   0.453   0.142   0.439
    1UNL    H52  116   0.244   0.099   0.242
    1UNL    H53  117   0.605   0.067   0.305
    1UNL    H54  118   0.455   0.204   0.175
    1UNL    H55  119   0.384  -0.038   0.064
    1UNL    H56  120   0.281  -0.239   0.027
    1UNL    H57  121   0.338  -0.414  -0.122
    1UNL    H58  122   0.489  -0.309  -0.168
   0.00000   0.00000   0.00000   0.00000   0.00000   0.00000   0.00000   0.00000   0.00000
Generated with MDTraj, t= 61.0
 122
    1UNL     C1    1  -0.479  -0.017  -0.295
    1UNL     C2    2  -0.368  -0.079  -0.264
    1UNL     C3    3  -0.267  -0.002  -0.183
    1UNL     C4    4  -0.334  -0.004  -0.037
    1UNL     O1    5  -0.442   0.083  -0.044
    1UNL     C5    6  -0.551   0.033   0.035
    1UNL     O2    7  -0.676   0.091   0.016
    1UNL     C6    8  -0.677   0.228   0.049
    1UNL     C7    9  -0.801   0.308  -0.008
    1UNL     O3   10  -0.801   0.451   0.012
    1UNL     C8   11  -0.622   0.256   0.197
    1UNL     O4   12  -0.606   0.397   0.210
    1UNL     C9   13  -0.490   0.179   0.231
    1UNL     O5   14  -0.376   0.233   0.169
    1UNL    C10   15  -0.511   0.032   0.186
    1UNL     O6   16  -0.611  -0.039   0.253
    1UNL     O7   17  -0.343  -0.141   0.011
    1UNL    C11   18  -0.241  -0.223  -0.039
    1UNL    C12   19  -0.140  -0.204  -0.125
    1UNL    C13   20  -0.037  -0.309  -0.131
    1UNL     O8   21   0.078  -0.277  -0.143
    1UNL     O9   22  -0.089  -0.439  -0.131
    1UNL    C14   23   0.009  -0.540  -0.154
    1UNL    C15   24  -0.126  -0.064  -0.180
    1UNL    C16   25  -0.041  -0.051  -0.307
    1UNL    C17   26   0.004   0.097  -0.334
    1UNL     N1   27   0.063   0.171  -0.220
    1UNL    C18   28  -0.005   0.298  -0.178
    1UNL    C19   29  -0.028   0.308  -0.024
    1UNL    C20   30   0.019   0.192   0.052
    1UNL    C21   31   0.105   0.097   0.004
    1UNL     N2   32   0.103  -0.011   0.086
    1UNL    C22   33   0.015   0.014   0.187
    1UNL    C23   34  -0.043  -0.069   0.289
    1UNL    C24   35  -0.136  -0.022   0.370
    1UNL    C25   36  -0.184   0.111   0.360
    1UNL    C26   37  -0.137   0.194   0.265
    1UNL    C27   38  -0.036   0.143   0.176
    1UNL    C28   39   0.178   0.122  -0.130
    1UNL    C29   40   0.246  -0.009  -0.192
    1UNL    C30   41   0.393  -0.025  -0.158
    1UNL    C31   42   0.488  -0.084  -0.270
    1UNL    C32   43   0.475  -0.065  -0.419
    1UNL    O10   44   0.550  -0.121  -0.496
    1UNL    O11   45   0.379   0.024  -0.463
    1UNL    C33   46   0.372   0.026  -0.600
    1UNL    C34   47   0.603  -0.138  -0.229
    1UNL    O12   48   0.646  -0.163  -0.098
    1UNL    C35   49   0.564  -0.115   0.012
    1UNL    O13   50   0.593  -0.173   0.135
    1UNL    C36   51   0.507  -0.125   0.236
    1UNL    O14   52   0.367  -0.169   0.229
    1UNL    C37   53   0.282  -0.157   0.346
    1UNL    C38   54   0.268  -0.286   0.417
    1UNL    O15   55   0.158  -0.283   0.509
    1UNL    C39   56   0.330  -0.047   0.435
    1UNL    O16   57   0.225   0.014   0.508
    1UNL    C40   58   0.401   0.070   0.358
    1UNL    O17   59   0.309   0.155   0.295
    1UNL    C41   60   0.520   0.027   0.266
    1UNL    O18   61   0.503   0.101   0.141
    1UNL    C42   62   0.415  -0.109  -0.029
    1UNL    C43   63   0.363  -0.254  -0.058
    1UNL    C44   64   0.436  -0.362  -0.085
    1UNL     H1   65  -0.506   0.085  -0.267
    1UNL     H2   66  -0.556  -0.062  -0.355
    1UNL     H3   67  -0.360  -0.187  -0.269
    1UNL     H4   68  -0.263   0.103  -0.226
    1UNL     H5   69  -0.269   0.055   0.030
    1UNL     H6   70  -0.565  -0.081  -0.000
    1UNL     H7   71  -0.598   0.267  -0.015
    1UNL     H8   72  -0.886   0.280   0.057
    1UNL     H9   73  -0.815   0.279  -0.114
    1UNL    H10   74  -0.856   0.495  -0.056
    1UNL    H11   75  -0.702   0.214   0.258
    1UNL    H12   76  -0.670   0.442   0.145
    1UNL    H13   77  -0.480   0.185   0.340
    1UNL    H14   78  -0.375   0.332   0.192
    1UNL    H15   79  -0.417  -0.021   0.206
    1UNL    H16   80  -0.695  -0.018   0.219
    1UNL    H17   81  -0.256  -0.328   0.001
    1UNL    H18   82   0.092  -0.512  -0.093
    1UNL    H19   83   0.042  -0.565  -0.258
    1UNL    H20   84  -0.042  -0.626  -0.118
    1UNL    H21   85  -0.067  -0.010  -0.093
    1UNL    H22   86   0.039  -0.112  -0.298
    1UNL    H23   87  -0.086  -0.091  -0.396
    1UNL    H24   88   0.076   0.101  -0.411
    1UNL    H25   89  -0.085   0.157  -0.372
    1UNL    H26   90   0.035   0.386  -0.219
    1UNL    H27   91  -0.102   0.292  -0.224
    1UNL    H28   92   0.029   0.402   0.005
    1UNL    H29   93  -0.131   0.328   0.003
    1UNL    H30   94   0.137  -0.104   0.045
    1UNL    H31   95  -0.015  -0.169   0.291
    1UNL    H32   96  -0.191  -0.093   0.433
    1UNL    H33   97  -0.248   0.149   0.441
    1UNL    H34   98  -0.174   0.300   0.258
    1UNL    H35   99   0.248   0.208  -0.120
    1UNL    H36  100   0.244  -0.002  -0.301
    1UNL    H37  101   0.185  -0.097  -0.160
    1UNL    H38  102   0.439   0.080  -0.150
    1UNL    H39  103   0.469   0.035  -0.651
    1UNL    H40  104   0.312  -0.056  -0.639
    1UNL    H41  105   0.315   0.117  -0.619
    1UNL    H42  106   0.670  -0.191  -0.306
    1UNL    H43  107   0.591  -0.003   0.020
    1UNL    H44  108   0.547  -0.183   0.328
    1UNL    H45  109   0.184  -0.128   0.309
    1UNL    H46  110   0.253  -0.367   0.337
    1UNL    H47  111   0.359  -0.318   0.474
    1UNL    H48  112   0.152  -0.189   0.542
    1UNL    H49  113   0.407  -0.103   0.498
    1UNL    H50  114   0.219   0.112   0.519
    1UNL    H51  115   0.453   0.136   0.431
    1UNL    H52  116   0.250   0.100   0.237
    1UNL    H53  117   0.616   0.045   0.302
    1UNL    H54  118   0.482   0.199   0.161
    1UNL    H55  119   0.351  -0.058   0.051
    1UNL    H56  120   0.255  -0.275  -0.059
    1UNL    H57  121   0.387  -0.450  -0.116
    1UNL    H58  122   0.545  -0.356  -0.072
   0.00000   0.00000   0.00000   0.00000   0.00000   0.00000   0.00000   0.00000   0.00000
Generated with MDTraj, t= 62.0
 122
    1UNL     C1    1  -0.453   0.021  -0.318
    1UNL     C2    2  -0.332  -0.016  -0.291
    1UNL     C3    3  -0.255   0.021  -0.169
    1UNL     C4    4  -0.338  -0.002  -0.036
    1UNL     O1    5  -0.459   0.067  -0.045
    1UNL     C5    6  -0.562   0.009   0.042
    1UNL     O2    7  -0.692   0.072   0.034
    1UNL     C6    8  -0.675   0.212   0.040
    1UNL     C7    9  -0.790   0.297  -0.022
    1UNL     O3   10  -0.773   0.435  -0.008
    1UNL     C8   11  -0.637   0.247   0.188
    1UNL     O4   12  -0.594   0.380   0.191
    1UNL     C9   13  -0.513   0.169   0.241
    1UNL     O5   14  -0.385   0.218   0.203
    1UNL    C10   15  -0.517   0.016   0.190
    1UNL     O6   16  -0.609  -0.056   0.266
    1UNL     O7   17  -0.358  -0.135  -0.001
    1UNL    C11   18  -0.257  -0.224  -0.035
    1UNL    C12   19  -0.147  -0.194  -0.108
    1UNL    C13   20  -0.034  -0.287  -0.118
    1UNL     O8   21   0.078  -0.244  -0.134
    1UNL     O9   22  -0.081  -0.417  -0.120
    1UNL    C14   23   0.024  -0.501  -0.158
    1UNL    C15   24  -0.125  -0.052  -0.162
    1UNL    C16   25  -0.046  -0.056  -0.289
    1UNL    C17   26  -0.007   0.085  -0.329
    1UNL     N1   27   0.056   0.161  -0.224
    1UNL    C18   28   0.011   0.303  -0.187
    1UNL    C19   29  -0.019   0.314  -0.037
    1UNL    C20   30   0.042   0.203   0.051
    1UNL    C21   31   0.128   0.105  -0.003
    1UNL     N2   32   0.117  -0.011   0.069
    1UNL    C22   33   0.022   0.005   0.169
    1UNL    C23   34  -0.038  -0.080   0.265
    1UNL    C24   35  -0.109  -0.016   0.358
    1UNL    C25   36  -0.139   0.123   0.360
    1UNL    C26   37  -0.102   0.207   0.258
    1UNL    C27   38  -0.013   0.148   0.168
    1UNL    C28   39   0.173   0.110  -0.139
    1UNL    C29   40   0.245  -0.022  -0.194
    1UNL    C30   41   0.389  -0.037  -0.150
    1UNL    C31   42   0.488  -0.070  -0.257
    1UNL    C32   43   0.461  -0.053  -0.400
    1UNL    O10   44   0.539  -0.100  -0.482
    1UNL    O11   45   0.348   0.023  -0.439
    1UNL    C33   46   0.337   0.026  -0.585
    1UNL    C34   47   0.599  -0.132  -0.223
    1UNL    O12   48   0.637  -0.173  -0.095
    1UNL    C35   49   0.548  -0.139   0.008
    1UNL    O13   50   0.581  -0.179   0.141
    1UNL    C36   51   0.491  -0.121   0.229
    1UNL    O14   52   0.350  -0.161   0.214
    1UNL    C37   53   0.271  -0.143   0.333
    1UNL    C38   54   0.265  -0.276   0.413
    1UNL    O15   55   0.183  -0.271   0.523
    1UNL    C39   56   0.328  -0.042   0.429
    1UNL    O16   57   0.229   0.004   0.523
    1UNL    C40   58   0.393   0.077   0.350
    1UNL    O17   59   0.295   0.144   0.270
    1UNL    C41   60   0.503   0.030   0.258
    1UNL    O18   61   0.495   0.092   0.131
    1UNL    C42   62   0.400  -0.148  -0.040
    1UNL    C43   63   0.371  -0.289  -0.074
    1UNL    C44   64   0.451  -0.389  -0.035
    1UNL     H1   65  -0.510   0.080  -0.252
    1UNL     H2   66  -0.503   0.002  -0.412
    1UNL     H3   67  -0.289  -0.095  -0.355
    1UNL     H4   68  -0.230   0.131  -0.173
    1UNL     H5   69  -0.282   0.042   0.052
    1UNL     H6   70  -0.571  -0.103  -0.000
    1UNL     H7   71  -0.590   0.246  -0.014
    1UNL     H8   72  -0.876   0.260   0.035
    1UNL     H9   73  -0.803   0.269  -0.129
    1UNL    H10   74  -0.837   0.481  -0.064
    1UNL    H11   75  -0.732   0.246   0.248
    1UNL    H12   76  -0.648   0.443   0.139
    1UNL    H13   77  -0.523   0.165   0.348
    1UNL    H14   78  -0.382   0.312   0.225
    1UNL    H15   79  -0.419  -0.025   0.201
    1UNL    H16   80  -0.696  -0.031   0.224
    1UNL    H17   81  -0.266  -0.320   0.020
    1UNL    H18   82   0.086  -0.515  -0.072
    1UNL    H19   83   0.093  -0.458  -0.236
    1UNL    H20   84  -0.016  -0.593  -0.199
    1UNL    H21   85  -0.065  -0.006  -0.076
    1UNL    H22   86   0.043  -0.116  -0.286
    1UNL    H23   87  -0.093  -0.101  -0.371
    1UNL    H24   88   0.053   0.086  -0.416
    1UNL    H25   89  -0.101   0.140  -0.360
    1UNL    H26   90   0.080   0.371  -0.221
    1UNL    H27   91  -0.074   0.331  -0.247
    1UNL    H28   92   0.017   0.413   0.007
    1UNL    H29   93  -0.126   0.324  -0.026
    1UNL    H30   94   0.125  -0.106   0.019
    1UNL    H31   95  -0.028  -0.193   0.272
    1UNL    H32   96  -0.149  -0.071   0.442
    1UNL    H33   97  -0.197   0.155   0.444
    1UNL    H34   98  -0.113   0.309   0.259
    1UNL    H35   99   0.245   0.196  -0.142
    1UNL    H36  100   0.232  -0.026  -0.305
    1UNL    H37  101   0.191  -0.110  -0.154
    1UNL    H38  102   0.420   0.055  -0.089
    1UNL    H39  103   0.367  -0.073  -0.628
    1UNL    H40  104   0.237   0.061  -0.614
    1UNL    H41  105   0.413   0.100  -0.616
    1UNL    H42  106   0.669  -0.147  -0.299
    1UNL    H43  107   0.561  -0.023   0.007
    1UNL    H44  108   0.517  -0.175   0.325
    1UNL    H45  109   0.173  -0.106   0.311
    1UNL    H46  110   0.235  -0.361   0.344
    1UNL    H47  111   0.367  -0.303   0.444
    1UNL    H48  112   0.184  -0.180   0.563
    1UNL    H49  113   0.413  -0.096   0.485
    1UNL    H50  114   0.188   0.088   0.497
    1UNL    H51  115   0.414   0.150   0.428
    1UNL    H52  116   0.250   0.077   0.204
    1UNL    H53  117   0.591   0.054   0.314
    1UNL    H54  118   0.456   0.178   0.147
    1UNL    H55  119   0.335  -0.114   0.040
    1UNL    H56  120   0.299  -0.308  -0.150
    1UNL    H57  121   0.430  -0.487  -0.065
    1UNL    H58  122   0.531  -0.373   0.039
   0.00000   0.00000   0.00000   0.00000   0.00000   0.00000   0.00000   0.00000   0.00000
Generated with MDTraj, t= 63.0
 122
    1UNL     C1    1  -0.447   0.082  -0.325
    1UNL     C2    2  -0.360  -0.003  -0.283
    1UNL     C3    3  -0.266   0.021  -0.169
    1UNL     C4    4  -0.347  -0.023  -0.043
    1UNL     O1    5  -0.460   0.064  -0.026
    1UNL     C5    6  -0.565   0.004   0.049
    1UNL     O2    7  -0.694   0.063   0.034
    1UNL     C6    8  -0.683   0.210   0.046
    1UNL     C7    9  -0.807   0.301   0.005
    1UNL     O3   10  -0.762   0.427  -0.038
    1UNL     C8   11  -0.643   0.249   0.196
    1UNL     O4   12  -0.604   0.387   0.200
    1UNL     C9   13  -0.525   0.158   0.240
    1UNL     O5   14  -0.406   0.213   0.209
    1UNL    C10   15  -0.531   0.002   0.193
    1UNL     O6   16  -0.632  -0.054   0.280
    1UNL     O7   17  -0.374  -0.163  -0.038
    1UNL    C11   18  -0.264  -0.240  -0.061
    1UNL    C12   19  -0.146  -0.193  -0.108
    1UNL    C13   20  -0.029  -0.287  -0.105
    1UNL     O8   21   0.082  -0.239  -0.103
    1UNL     O9   22  -0.075  -0.415  -0.122
    1UNL    C14   23   0.031  -0.502  -0.116
    1UNL    C15   24  -0.134  -0.054  -0.167
    1UNL    C16   25  -0.054  -0.048  -0.297
    1UNL    C17   26  -0.002   0.095  -0.329
    1UNL     N1   27   0.083   0.165  -0.233
    1UNL    C18   28   0.033   0.302  -0.181
    1UNL    C19   29   0.060   0.321  -0.032
    1UNL    C20   30   0.061   0.186   0.038
    1UNL    C21   31   0.129   0.083  -0.012
    1UNL     N2   32   0.113  -0.030   0.069
    1UNL    C22   33   0.021   0.004   0.169
    1UNL    C23   34  -0.037  -0.074   0.262
    1UNL    C24   35  -0.118  -0.013   0.355
    1UNL    C25   36  -0.139   0.121   0.355
    1UNL    C26   37  -0.088   0.199   0.260
    1UNL    C27   38  -0.004   0.139   0.160
    1UNL    C28   39   0.186   0.100  -0.147
    1UNL    C29   40   0.249  -0.025  -0.212
    1UNL    C30   41   0.398  -0.036  -0.172
    1UNL    C31   42   0.494  -0.079  -0.278
    1UNL    C32   43   0.475  -0.048  -0.423
    1UNL    O10   44   0.555  -0.088  -0.502
    1UNL    O11   45   0.361   0.024  -0.446
    1UNL    C33   46   0.330   0.049  -0.580
    1UNL    C34   47   0.611  -0.144  -0.234
    1UNL    O12   48   0.644  -0.182  -0.108
    1UNL    C35   49   0.563  -0.122  -0.008
    1UNL    O13   50   0.588  -0.168   0.126
    1UNL    C36   51   0.495  -0.124   0.225
    1UNL    O14   52   0.357  -0.176   0.227
    1UNL    C37   53   0.279  -0.155   0.350
    1UNL    C38   54   0.260  -0.281   0.442
    1UNL    O15   55   0.179  -0.251   0.554
    1UNL    C39   56   0.328  -0.040   0.443
    1UNL    O16   57   0.215   0.009   0.511
    1UNL    C40   58   0.397   0.076   0.352
    1UNL    O17   59   0.286   0.143   0.283
    1UNL    C41   60   0.494   0.028   0.247
    1UNL    O18   61   0.459   0.085   0.125
    1UNL    C42   62   0.413  -0.130  -0.051
    1UNL    C43   63   0.377  -0.268  -0.080
    1UNL    C44   64   0.406  -0.366   0.007
    1UNL     H1   65  -0.454   0.176  -0.275
    1UNL     H2   66  -0.532   0.057  -0.387
    1UNL     H3   67  -0.365  -0.100  -0.319
    1UNL     H4   68  -0.246   0.130  -0.157
    1UNL     H5   69  -0.282  -0.019   0.053
    1UNL     H6   70  -0.581  -0.107   0.007
    1UNL     H7   71  -0.604   0.237  -0.017
    1UNL     H8   72  -0.880   0.307   0.085
    1UNL     H9   73  -0.849   0.237  -0.075
    1UNL    H10   74  -0.835   0.494  -0.035
    1UNL    H11   75  -0.739   0.241   0.257
    1UNL    H12   76  -0.632   0.436   0.119
    1UNL    H13   77  -0.534   0.144   0.343
    1UNL    H14   78  -0.415   0.314   0.215
    1UNL    H15   79  -0.443  -0.045   0.224
    1UNL    H16   80  -0.722  -0.032   0.233
    1UNL    H17   81  -0.263  -0.335  -0.024
    1UNL    H18   82   0.089  -0.493  -0.025
    1UNL    H19   83   0.094  -0.492  -0.210
    1UNL    H20   84  -0.011  -0.602  -0.129
    1UNL    H21   85  -0.071  -0.004  -0.096
    1UNL    H22   86   0.023  -0.134  -0.298
    1UNL    H23   87  -0.121  -0.078  -0.370
    1UNL    H24   88   0.047   0.099  -0.426
    1UNL    H25   89  -0.092   0.158  -0.355
    1UNL    H26   90   0.088   0.367  -0.238
    1UNL    H27   91  -0.069   0.324  -0.207
    1UNL    H28   92   0.159   0.379  -0.025
    1UNL    H29   93  -0.014   0.383   0.016
    1UNL    H30   94   0.121  -0.126   0.034
    1UNL    H31   95  -0.018  -0.174   0.252
    1UNL    H32   96  -0.165  -0.069   0.433
    1UNL    H33   97  -0.196   0.168   0.437
    1UNL    H34   98  -0.110   0.312   0.269
    1UNL    H35   99   0.267   0.174  -0.122
    1UNL    H36  100   0.237  -0.031  -0.323
    1UNL    H37  101   0.194  -0.111  -0.183
    1UNL    H38  102   0.428   0.069  -0.136
    1UNL    H39  103   0.229   0.012  -0.604
    1UNL    H40  104   0.335   0.158  -0.589
    1UNL    H41  105   0.410  -0.000  -0.641
    1UNL    H42  106   0.679  -0.178  -0.307
    1UNL    H43  107   0.594  -0.010  -0.008
    1UNL    H44  108   0.535  -0.174   0.316
    1UNL    H45  109   0.180  -0.120   0.322
    1UNL    H46  110   0.227  -0.371   0.389
    1UNL    H47  111   0.357  -0.306   0.479
    1UNL    H48  112   0.183  -0.155   0.577
    1UNL    H49  113   0.412  -0.075   0.516
    1UNL    H50  114   0.176   0.078   0.449
    1UNL    H51  115   0.438   0.149   0.418
    1UNL    H52  116   0.231   0.082   0.225
    1UNL    H53  117   0.599   0.059   0.259
    1UNL    H54  118   0.414   0.179   0.133
    1UNL    H55  119   0.357  -0.097   0.033
    1UNL    H56  120   0.311  -0.284  -0.166
    1UNL    H57  121   0.362  -0.466   0.003
    1UNL    H58  122   0.474  -0.352   0.086
   0.00000   0.00000   0.00000   0.00000   0.00000   0.00000   0.00000   0.00000   0.00000
Generated with MDTraj, t= 64.0
 122
    1UNL     C1    1  -0.410   0.115  -0.330
    1UNL     C2    2  -0.353   0.009  -0.279
    1UNL     C3    3  -0.264   0.016  -0.156
    1UNL     C4    4  -0.357  -0.032  -0.042
    1UNL     O1    5  -0.475   0.049  -0.031
    1UNL     C5    6  -0.575   0.002   0.060
    1UNL     O2    7  -0.702   0.064   0.029
    1UNL     C6    8  -0.681   0.208   0.051
    1UNL     C7    9  -0.793   0.290  -0.020
    1UNL     O3   10  -0.782   0.426  -0.003
    1UNL     C8   11  -0.644   0.244   0.201
    1UNL     O4   12  -0.619   0.381   0.219
    1UNL     C9   13  -0.523   0.166   0.245
    1UNL     O5   14  -0.408   0.216   0.200
    1UNL    C10   15  -0.543   0.016   0.208
    1UNL     O6   16  -0.642  -0.048   0.284
    1UNL     O7   17  -0.396  -0.168  -0.061
    1UNL    C11   18  -0.288  -0.250  -0.079
    1UNL    C12   19  -0.166  -0.212  -0.122
    1UNL    C13   20  -0.052  -0.303  -0.114
    1UNL     O8   21   0.056  -0.256  -0.143
    1UNL     O9   22  -0.081  -0.441  -0.092
    1UNL    C14   23   0.037  -0.510  -0.067
    1UNL    C15   24  -0.137  -0.067  -0.154
    1UNL    C16   25  -0.055  -0.051  -0.285
    1UNL    C17   26  -0.011   0.097  -0.312
    1UNL     N1   27   0.068   0.165  -0.204
    1UNL    C18   28   0.028   0.305  -0.153
    1UNL    C19   29   0.052   0.333  -0.006
    1UNL    C20   30   0.075   0.196   0.058
    1UNL    C21   31   0.142   0.087  -0.008
    1UNL     N2   32   0.121  -0.026   0.069
    1UNL    C22   33   0.028   0.010   0.177
    1UNL    C23   34  -0.049  -0.068   0.259
    1UNL    C24   35  -0.146  -0.015   0.334
    1UNL    C25   36  -0.160   0.121   0.332
    1UNL    C26   37  -0.079   0.207   0.258
    1UNL    C27   38   0.002   0.148   0.169
    1UNL    C28   39   0.190   0.111  -0.141
    1UNL    C29   40   0.248  -0.009  -0.217
    1UNL    C30   41   0.391  -0.044  -0.172
    1UNL    C31   42   0.494  -0.084  -0.275
    1UNL    C32   43   0.488  -0.049  -0.421
    1UNL    O10   44   0.573  -0.111  -0.482
    1UNL    O11   45   0.400   0.041  -0.468
    1UNL    C33   46   0.420   0.061  -0.604
    1UNL    C34   47   0.609  -0.152  -0.235
    1UNL    O12   48   0.642  -0.185  -0.111
    1UNL    C35   49   0.556  -0.126  -0.011
    1UNL    O13   50   0.592  -0.162   0.123
    1UNL    C36   51   0.506  -0.110   0.226
    1UNL    O14   52   0.374  -0.166   0.227
    1UNL    C37   53   0.301  -0.153   0.353
    1UNL    C38   54   0.289  -0.281   0.436
    1UNL    O15   55   0.178  -0.280   0.527
    1UNL    C39   56   0.346  -0.026   0.430
    1UNL    O16   57   0.243   0.016   0.516
    1UNL    C40   58   0.397   0.088   0.330
    1UNL    O17   59   0.281   0.144   0.269
    1UNL    C41   60   0.499   0.049   0.220
    1UNL    O18   61   0.448   0.091   0.092
    1UNL    C42   62   0.403  -0.136  -0.047
    1UNL    C43   63   0.356  -0.277  -0.073
    1UNL    C44   64   0.362  -0.372   0.020
    1UNL     H1   65  -0.397   0.212  -0.281
    1UNL     H2   66  -0.480   0.113  -0.409
    1UNL     H3   67  -0.371  -0.096  -0.320
    1UNL     H4   68  -0.240   0.123  -0.132
    1UNL     H5   69  -0.301  -0.044   0.061
    1UNL     H6   70  -0.580  -0.116   0.038
    1UNL     H7   71  -0.590   0.223   0.002
    1UNL     H8   72  -0.885   0.242   0.008
    1UNL     H9   73  -0.778   0.273  -0.129
    1UNL    H10   74  -0.858   0.474  -0.048
    1UNL    H11   75  -0.733   0.220   0.271
    1UNL    H12   76  -0.694   0.435   0.180
    1UNL    H13   77  -0.521   0.182   0.348
    1UNL    H14   78  -0.418   0.312   0.212
    1UNL    H15   79  -0.449  -0.026   0.229
    1UNL    H16   80  -0.719   0.000   0.256
    1UNL    H17   81  -0.313  -0.354  -0.060
    1UNL    H18   82   0.104  -0.471   0.009
    1UNL    H19   83   0.077  -0.519  -0.173
    1UNL    H20   84   0.014  -0.616  -0.048
    1UNL    H21   85  -0.076  -0.023  -0.084
    1UNL    H22   86   0.029  -0.131  -0.284
    1UNL    H23   87  -0.120  -0.088  -0.358
    1UNL    H24   88   0.043   0.096  -0.409
    1UNL    H25   89  -0.097   0.159  -0.345
    1UNL    H26   90   0.075   0.377  -0.211
    1UNL    H27   91  -0.076   0.311  -0.176
    1UNL    H28   92   0.152   0.386   0.006
    1UNL    H29   93  -0.021   0.407   0.026
    1UNL    H30   94   0.133  -0.113   0.028
    1UNL    H31   95  -0.049  -0.181   0.263
    1UNL    H32   96  -0.209  -0.089   0.384
    1UNL    H33   97  -0.236   0.161   0.395
    1UNL    H34   98  -0.095   0.310   0.253
    1UNL    H35   99   0.268   0.190  -0.143
    1UNL    H36  100   0.245   0.011  -0.323
    1UNL    H37  101   0.188  -0.098  -0.203
    1UNL    H38  102   0.424   0.062  -0.140
    1UNL    H39  103   0.369   0.151  -0.636
    1UNL    H40  104   0.526   0.082  -0.603
    1UNL    H41  105   0.397  -0.034  -0.656
    1UNL    H42  106   0.696  -0.189  -0.303
    1UNL    H43  107   0.589  -0.015  -0.009
    1UNL    H44  108   0.545  -0.142   0.321
    1UNL    H45  109   0.197  -0.137   0.324
    1UNL    H46  110   0.282  -0.369   0.373
    1UNL    H47  111   0.376  -0.304   0.491
    1UNL    H48  112   0.183  -0.192   0.565
    1UNL    H49  113   0.427  -0.051   0.510
    1UNL    H50  114   0.186   0.068   0.459
    1UNL    H51  115   0.429   0.160   0.405
    1UNL    H52  116   0.235   0.088   0.210
    1UNL    H53  117   0.599   0.101   0.231
    1UNL    H54  118   0.396   0.170   0.091
    1UNL    H55  119   0.357  -0.098   0.038
    1UNL    H56  120   0.300  -0.294  -0.163
    1UNL    H57  121   0.329  -0.475  -0.002
    1UNL    H58  122   0.413  -0.357   0.110
   0.00000   0.00000   0.00000   0.00000   0.00000   0.00000   0.00000   0.00000   0.00000
Generated with MDTraj, t= 65.0
 122
    1UNL     C1    1  -0.384   0.135  -0.328
    1UNL     C2    2  -0.328   0.026  -0.276
    1UNL     C3    3  -0.257   0.023  -0.148
    1UNL     C4    4  -0.364  -0.025  -0.049
    1UNL     O1    5  -0.482   0.057  -0.043
    1UNL     C5    6  -0.582   0.013   0.048
    1UNL     O2    7  -0.709   0.075   0.033
    1UNL     C6    8  -0.694   0.215   0.053
    1UNL     C7    9  -0.820   0.284   0.004
    1UNL     O3   10  -0.799   0.427   0.012
    1UNL     C8   11  -0.661   0.243   0.203
    1UNL     O4   12  -0.627   0.384   0.220
    1UNL     C9   13  -0.532   0.163   0.253
    1UNL     O5   14  -0.416   0.229   0.204
    1UNL    C10   15  -0.541   0.014   0.203
    1UNL     O6   16  -0.628  -0.061   0.286
    1UNL     O7   17  -0.394  -0.163  -0.071
    1UNL    C11   18  -0.286  -0.241  -0.083
    1UNL    C12   19  -0.160  -0.206  -0.112
    1UNL    C13   20  -0.046  -0.300  -0.097
    1UNL     O8   21   0.063  -0.268  -0.140
    1UNL     O9   22  -0.083  -0.425  -0.040
    1UNL    C14   23   0.006  -0.529  -0.051
    1UNL    C15   24  -0.133  -0.064  -0.153
    1UNL    C16   25  -0.062  -0.056  -0.289
    1UNL    C17   26  -0.017   0.087  -0.326
    1UNL     N1   27   0.056   0.160  -0.218
    1UNL    C18   28   0.010   0.300  -0.165
    1UNL    C19   29   0.035   0.317  -0.013
    1UNL    C20   30   0.057   0.180   0.047
    1UNL    C21   31   0.135   0.083  -0.006
    1UNL     N2   32   0.106  -0.037   0.055
    1UNL    C22   33   0.014  -0.011   0.154
    1UNL    C23   34  -0.052  -0.089   0.247
    1UNL    C24   35  -0.151  -0.037   0.333
    1UNL    C25   36  -0.165   0.097   0.336
    1UNL    C26   37  -0.105   0.184   0.254
    1UNL    C27   38  -0.019   0.123   0.154
    1UNL    C28   39   0.177   0.103  -0.147
    1UNL    C29   40   0.265  -0.005  -0.219
    1UNL    C30   41   0.412  -0.034  -0.179
    1UNL    C31   42   0.503  -0.099  -0.275
    1UNL    C32   43   0.501  -0.065  -0.416
    1UNL    O10   44   0.570  -0.127  -0.499
    1UNL    O11   45   0.433   0.054  -0.448
    1UNL    C33   46   0.452   0.086  -0.590
    1UNL    C34   47   0.591  -0.194  -0.239
    1UNL    O12   48   0.636  -0.218  -0.111
    1UNL    C35   49   0.573  -0.134  -0.013
    1UNL    O13   50   0.583  -0.170   0.125
    1UNL    C36   51   0.495  -0.104   0.218
    1UNL    O14   52   0.362  -0.139   0.208
    1UNL    C37   53   0.287  -0.134   0.335
    1UNL    C38   54   0.276  -0.271   0.403
    1UNL    O15   55   0.217  -0.264   0.534
    1UNL    C39   56   0.343  -0.023   0.430
    1UNL    O16   57   0.246   0.016   0.518
    1UNL    C40   58   0.409   0.093   0.346
    1UNL    O17   59   0.307   0.173   0.290
    1UNL    C41   60   0.511   0.046   0.235
    1UNL    O18   61   0.489   0.105   0.109
    1UNL    C42   62   0.421  -0.120  -0.048
    1UNL    C43   63   0.357  -0.253  -0.075
    1UNL    C44   64   0.381  -0.355   0.005
    1UNL     H1   65  -0.363   0.229  -0.280
    1UNL     H2   66  -0.431   0.133  -0.424
    1UNL     H3   67  -0.352  -0.069  -0.305
    1UNL     H4   68  -0.234   0.127  -0.112
    1UNL     H5   69  -0.314  -0.028   0.058
    1UNL     H6   70  -0.598  -0.101   0.015
    1UNL     H7   71  -0.607   0.241  -0.003
    1UNL     H8   72  -0.907   0.260   0.063
    1UNL     H9   73  -0.837   0.249  -0.098
    1UNL    H10   74  -0.861   0.478  -0.044
    1UNL    H11   75  -0.752   0.222   0.271
    1UNL    H12   76  -0.650   0.432   0.141
    1UNL    H13   77  -0.526   0.158   0.358
    1UNL    H14   78  -0.428   0.329   0.199
    1UNL    H15   79  -0.452  -0.040   0.220
    1UNL    H16   80  -0.719  -0.030   0.297
    1UNL    H17   81  -0.305  -0.347  -0.044
    1UNL    H18   82   0.090  -0.536   0.015
    1UNL    H19   83   0.033  -0.531  -0.160
    1UNL    H20   84  -0.048  -0.625  -0.043
    1UNL    H21   85  -0.065  -0.020  -0.088
    1UNL    H22   86   0.025  -0.123  -0.287
    1UNL    H23   87  -0.129  -0.094  -0.366
    1UNL    H24   88   0.046   0.082  -0.419
    1UNL    H25   89  -0.106   0.137  -0.364
    1UNL    H26   90   0.067   0.372  -0.220
    1UNL    H27   91  -0.090   0.314  -0.185
    1UNL    H28   92   0.116   0.397  -0.001
    1UNL    H29   93  -0.052   0.358   0.035
    1UNL    H30   94   0.092  -0.122   0.007
    1UNL    H31   95  -0.029  -0.194   0.233
    1UNL    H32   96  -0.199  -0.097   0.407
    1UNL    H33   97  -0.242   0.143   0.400
    1UNL    H34   98  -0.118   0.291   0.259
    1UNL    H35   99   0.245   0.191  -0.147
    1UNL    H36  100   0.271   0.021  -0.323
    1UNL    H37  101   0.209  -0.098  -0.216
    1UNL    H38  102   0.447   0.075  -0.164
    1UNL    H39  103   0.431   0.192  -0.598
    1UNL    H40  104   0.555   0.066  -0.604
    1UNL    H41  105   0.384   0.027  -0.651
    1UNL    H42  106   0.663  -0.238  -0.311
    1UNL    H43  107   0.628  -0.034  -0.021
    1UNL    H44  108   0.521  -0.151   0.309
    1UNL    H45  109   0.188  -0.099   0.307
    1UNL    H46  110   0.217  -0.344   0.350
    1UNL    H47  111   0.367  -0.321   0.410
    1UNL    H48  112   0.204  -0.165   0.547
    1UNL    H49  113   0.422  -0.075   0.495
    1UNL    H50  114   0.207   0.100   0.477
    1UNL    H51  115   0.470   0.155   0.415
    1UNL    H52  116   0.259   0.113   0.220
    1UNL    H53  117   0.620   0.078   0.256
    1UNL    H54  118   0.427   0.188   0.108
    1UNL    H55  119   0.374  -0.071   0.030
    1UNL    H56  120   0.317  -0.273  -0.175
    1UNL    H57  121   0.355  -0.455  -0.018
    1UNL    H58  122   0.421  -0.334   0.104
   0.00000   0.00000   0.00000   0.00000   0.00000   0.00000   0.00000   0.00000   0.00000
Generated with MDTraj, t= 66.0
 122
    1UNL     C1    1  -0.379   0.150  -0.344
    1UNL     C2    2  -0.333   0.040  -0.289
    1UNL     C3    3  -0.263   0.040  -0.156
    1UNL     C4    4  -0.364   0.004  -0.043
    1UNL     O1    5  -0.472   0.089  -0.036
    1UNL     C5    6  -0.569   0.020   0.037
    1UNL     O2    7  -0.694   0.077   0.022
    1UNL     C6    8  -0.688   0.214   0.061
    1UNL     C7    9  -0.820   0.270   0.029
    1UNL     O3   10  -0.825   0.415   0.022
    1UNL     C8   11  -0.661   0.236   0.209
    1UNL     O4   12  -0.642   0.379   0.231
    1UNL     C9   13  -0.529   0.159   0.249
    1UNL     O5   14  -0.416   0.232   0.202
    1UNL    C10   15  -0.532   0.014   0.194
    1UNL     O6   16  -0.621  -0.057   0.264
    1UNL     O7   17  -0.401  -0.137  -0.036
    1UNL    C11   18  -0.297  -0.218  -0.046
    1UNL    C12   19  -0.176  -0.192  -0.098
    1UNL    C13   20  -0.060  -0.288  -0.083
    1UNL     O8   21   0.054  -0.252  -0.108
    1UNL     O9   22  -0.099  -0.420  -0.054
    1UNL    C14   23   0.008  -0.504  -0.025
    1UNL    C15   24  -0.141  -0.059  -0.153
    1UNL    C16   25  -0.057  -0.063  -0.283
    1UNL    C17   26   0.010   0.064  -0.340
    1UNL     N1   27   0.086   0.159  -0.251
    1UNL    C18   28   0.018   0.285  -0.195
    1UNL    C19   29   0.015   0.291  -0.043
    1UNL    C20   30   0.039   0.158   0.026
    1UNL    C21   31   0.133   0.069  -0.027
    1UNL     N2   32   0.128  -0.040   0.053
    1UNL    C22   33   0.032  -0.031   0.153
    1UNL    C23   34  -0.029  -0.128   0.232
    1UNL    C24   35  -0.123  -0.085   0.317
    1UNL    C25   36  -0.176   0.049   0.313
    1UNL    C26   37  -0.118   0.138   0.227
    1UNL    C27   38  -0.015   0.102   0.143
    1UNL    C28   39   0.186   0.095  -0.163
    1UNL    C29   40   0.263  -0.022  -0.224
    1UNL    C30   41   0.404  -0.029  -0.177
    1UNL    C31   42   0.496  -0.088  -0.276
    1UNL    C32   43   0.491  -0.045  -0.416
    1UNL    O10   44   0.537  -0.121  -0.504
    1UNL    O11   45   0.444   0.082  -0.449
    1UNL    C33   46   0.447   0.105  -0.588
    1UNL    C34   47   0.597  -0.165  -0.231
    1UNL    O12   48   0.633  -0.202  -0.103
    1UNL    C35   49   0.561  -0.132   0.000
    1UNL    O13   50   0.569  -0.188   0.131
    1UNL    C36   51   0.494  -0.125   0.230
    1UNL    O14   52   0.353  -0.135   0.215
    1UNL    C37   53   0.283  -0.120   0.341
    1UNL    C38   54   0.263  -0.254   0.411
    1UNL    O15   55   0.217  -0.238   0.544
    1UNL    C39   56   0.350  -0.012   0.433
    1UNL    O16   57   0.246   0.037   0.517
    1UNL    C40   58   0.412   0.087   0.337
    1UNL    O17   59   0.309   0.153   0.268
    1UNL    C41   60   0.524   0.024   0.249
    1UNL    O18   61   0.540   0.100   0.130
    1UNL    C42   62   0.416  -0.123  -0.043
    1UNL    C43   63   0.342  -0.253  -0.051
    1UNL    C44   64   0.374  -0.364   0.009
    1UNL     H1   65  -0.355   0.242  -0.299
    1UNL     H2   66  -0.438   0.145  -0.436
    1UNL     H3   67  -0.349  -0.060  -0.339
    1UNL     H4   68  -0.224   0.142  -0.128
    1UNL     H5   69  -0.302   0.022   0.057
    1UNL     H6   70  -0.570  -0.086  -0.020
    1UNL     H7   71  -0.611   0.262   0.003
    1UNL     H8   72  -0.884   0.243   0.111
    1UNL     H9   73  -0.866   0.235  -0.063
    1UNL    H10   74  -0.900   0.445  -0.032
    1UNL    H11   75  -0.754   0.209   0.270
    1UNL    H12   76  -0.680   0.425   0.149
    1UNL    H13   77  -0.511   0.159   0.357
    1UNL    H14   78  -0.433   0.327   0.189
    1UNL    H15   79  -0.439  -0.034   0.201
    1UNL    H16   80  -0.718  -0.025   0.250
    1UNL    H17   81  -0.311  -0.313   0.000
    1UNL    H18   82   0.073  -0.469   0.051
    1UNL    H19   83   0.066  -0.532  -0.116
    1UNL    H20   84  -0.027  -0.604   0.001
    1UNL    H21   85  -0.066  -0.023  -0.071
    1UNL    H22   86   0.021  -0.129  -0.271
    1UNL    H23   87  -0.119  -0.114  -0.361
    1UNL    H24   88   0.083   0.024  -0.419
    1UNL    H25   89  -0.056   0.127  -0.399
    1UNL    H26   90   0.075   0.366  -0.237
    1UNL    H27   91  -0.077   0.286  -0.231
    1UNL    H28   92   0.091   0.363  -0.002
    1UNL    H29   93  -0.079   0.339  -0.016
    1UNL    H30   94   0.182  -0.121   0.030
    1UNL    H31   95   0.005  -0.224   0.245
    1UNL    H32   96  -0.166  -0.155   0.387
    1UNL    H33   97  -0.255   0.072   0.380
    1UNL    H34   98  -0.156   0.244   0.213
    1UNL    H35   99   0.267   0.169  -0.151
    1UNL    H36  100   0.271   0.003  -0.327
    1UNL    H37  101   0.215  -0.118  -0.212
    1UNL    H38  102   0.436   0.080  -0.161
    1UNL    H39  103   0.354   0.165  -0.596
    1UNL    H40  104   0.535   0.169  -0.600
    1UNL    H41  105   0.440   0.012  -0.649
    1UNL    H42  106   0.638  -0.220  -0.306
    1UNL    H43  107   0.611  -0.029   0.003
    1UNL    H44  108   0.513  -0.181   0.315
    1UNL    H45  109   0.186  -0.072   0.323
    1UNL    H46  110   0.191  -0.313   0.357
    1UNL    H47  111   0.352  -0.310   0.416
    1UNL    H48  112   0.224  -0.145   0.568
    1UNL    H49  113   0.425  -0.063   0.501
    1UNL    H50  114   0.226   0.131   0.506
    1UNL    H51  115   0.466   0.169   0.393
    1UNL    H52  116   0.272   0.094   0.205
    1UNL    H53  117   0.621   0.045   0.310
    1UNL    H54  118   0.454   0.112   0.094
    1UNL    H55  119   0.372  -0.069   0.035
    1UNL    H56  120   0.246  -0.257  -0.099
    1UNL    H57  121   0.309  -0.445   0.012
    1UNL    H58  122   0.469  -0.364   0.067
   0.00000   0.00000   0.00000   0.00000   0.00000   0.00000   0.00000   0.00000   0.00000
Generated with MDTraj, t= 67.0
 122
    1UNL     C1    1  -0.394   0.127  -0.359
    1UNL     C2    2  -0.357   0.018  -0.292
    1UNL     C3    3  -0.273   0.033  -0.171
    1UNL     C4    4  -0.358   0.006  -0.046
    1UNL     O1    5  -0.469   0.089  -0.044
    1UNL     C5    6  -0.572   0.036   0.036
    1UNL     O2    7  -0.691   0.103   0.013
    1UNL     C6    8  -0.695   0.237   0.066
    1UNL     C7    9  -0.828   0.294   0.034
    1UNL     O3   10  -0.842   0.427   0.068
    1UNL     C8   11  -0.667   0.247   0.212
    1UNL     O4   12  -0.659   0.386   0.239
    1UNL     C9   13  -0.537   0.172   0.247
    1UNL     O5   14  -0.431   0.249   0.204
    1UNL    C10   15  -0.542   0.031   0.194
    1UNL     O6   16  -0.628  -0.058   0.254
    1UNL     O7   17  -0.390  -0.135  -0.043
    1UNL    C11   18  -0.276  -0.217  -0.048
    1UNL    C12   19  -0.157  -0.188  -0.105
    1UNL    C13   20  -0.045  -0.283  -0.084
    1UNL     O8   21   0.067  -0.260  -0.127
    1UNL     O9   22  -0.087  -0.407  -0.026
    1UNL    C14   23   0.008  -0.506  -0.011
    1UNL    C15   24  -0.140  -0.052  -0.164
    1UNL    C16   25  -0.073  -0.053  -0.300
    1UNL    C17   26  -0.006   0.071  -0.349
    1UNL     N1   27   0.064   0.164  -0.251
    1UNL    C18   28  -0.004   0.289  -0.191
    1UNL    C19   29  -0.029   0.277  -0.040
    1UNL    C20   30   0.039   0.163   0.033
    1UNL    C21   31   0.130   0.084  -0.029
    1UNL     N2   32   0.141  -0.037   0.038
    1UNL    C22   33   0.053  -0.030   0.143
    1UNL    C23   34  -0.006  -0.136   0.214
    1UNL    C24   35  -0.122  -0.122   0.288
    1UNL    C25   36  -0.185   0.010   0.284
    1UNL    C26   37  -0.143   0.109   0.205
    1UNL    C27   38  -0.014   0.089   0.140
    1UNL    C28   39   0.177   0.108  -0.167
    1UNL    C29   40   0.253  -0.020  -0.221
    1UNL    C30   41   0.395  -0.040  -0.165
    1UNL    C31   42   0.508  -0.085  -0.263
    1UNL    C32   43   0.497  -0.046  -0.408
    1UNL    O10   44   0.561  -0.109  -0.494
    1UNL    O11   45   0.427   0.062  -0.431
    1UNL    C33   46   0.428   0.113  -0.566
    1UNL    C34   47   0.613  -0.164  -0.222
    1UNL    O12   48   0.649  -0.197  -0.096
    1UNL    C35   49   0.556  -0.136   0.004
    1UNL    O13   50   0.573  -0.198   0.135
    1UNL    C36   51   0.510  -0.139   0.244
    1UNL    O14   52   0.369  -0.166   0.241
    1UNL    C37   53   0.306  -0.128   0.363
    1UNL    C38   54   0.288  -0.243   0.467
    1UNL    O15   55   0.177  -0.229   0.556
    1UNL    C39   56   0.360   0.002   0.432
    1UNL    O16   57   0.251   0.066   0.502
    1UNL    C40   58   0.421   0.099   0.325
    1UNL    O17   59   0.310   0.144   0.245
    1UNL    C41   60   0.535   0.019   0.248
    1UNL    O18   61   0.562   0.088   0.125
    1UNL    C42   62   0.416  -0.140  -0.043
    1UNL    C43   63   0.387  -0.276  -0.090
    1UNL    C44   64   0.382  -0.382  -0.014
    1UNL     H1   65  -0.386   0.229  -0.324
    1UNL     H2   66  -0.439   0.107  -0.455
    1UNL     H3   67  -0.369  -0.078  -0.336
    1UNL     H4   68  -0.242   0.142  -0.163
    1UNL     H5   69  -0.294   0.041   0.046
    1UNL     H6   70  -0.582  -0.079   0.004
    1UNL     H7   71  -0.617   0.290   0.009
    1UNL     H8   72  -0.908   0.248   0.091
    1UNL     H9   73  -0.852   0.283  -0.074
    1UNL    H10   74  -0.928   0.461   0.035
    1UNL    H11   75  -0.745   0.196   0.274
    1UNL    H12   76  -0.741   0.434   0.228
    1UNL    H13   77  -0.531   0.170   0.360
    1UNL    H14   78  -0.450   0.348   0.215
    1UNL    H15   79  -0.448  -0.013   0.204
    1UNL    H16   80  -0.724  -0.031   0.245
    1UNL    H17   81  -0.290  -0.309  -0.001
    1UNL    H18   82   0.076  -0.475   0.064
    1UNL    H19   83   0.070  -0.532  -0.101
    1UNL    H20   84  -0.037  -0.603   0.010
    1UNL    H21   85  -0.069  -0.001  -0.088
    1UNL    H22   86  -0.007  -0.132  -0.299
    1UNL    H23   87  -0.145  -0.091  -0.380
    1UNL    H24   88   0.082   0.050  -0.420
    1UNL    H25   89  -0.072   0.129  -0.412
    1UNL    H26   90   0.049   0.381  -0.209
    1UNL    H27   91  -0.092   0.285  -0.245
    1UNL    H28   92   0.006   0.371   0.009
    1UNL    H29   93  -0.136   0.277  -0.014
    1UNL    H30   94   0.176  -0.128  -0.003
    1UNL    H31   95   0.052  -0.235   0.222
    1UNL    H32   96  -0.163  -0.196   0.355
    1UNL    H33   97  -0.273   0.026   0.347
    1UNL    H34   98  -0.201   0.192   0.196
    1UNL    H35   99   0.254   0.187  -0.163
    1UNL    H36  100   0.259  -0.004  -0.325
    1UNL    H37  101   0.193  -0.109  -0.206
    1UNL    H38  102   0.425   0.066  -0.135
    1UNL    H39  103   0.392   0.218  -0.567
    1UNL    H40  104   0.532   0.104  -0.600
    1UNL    H41  105   0.355   0.055  -0.628
    1UNL    H42  106   0.678  -0.198  -0.305
    1UNL    H43  107   0.592  -0.026   0.006
    1UNL    H44  108   0.551  -0.192   0.325
    1UNL    H45  109   0.207  -0.095   0.332
    1UNL    H46  110   0.268  -0.329   0.401
    1UNL    H47  111   0.378  -0.253   0.523
    1UNL    H48  112   0.165  -0.132   0.582
    1UNL    H49  113   0.435  -0.031   0.506
    1UNL    H50  114   0.215   0.137   0.447
    1UNL    H51  115   0.466   0.195   0.372
    1UNL    H52  116   0.267   0.071   0.190
    1UNL    H53  117   0.634   0.022   0.310
    1UNL    H54  118   0.590   0.184   0.146
    1UNL    H55  119   0.354  -0.115   0.043
    1UNL    H56  120   0.361  -0.289  -0.195
    1UNL    H57  121   0.379  -0.483  -0.055
    1UNL    H58  122   0.395  -0.372   0.090
   0.00000   0.00000   0.00000   0.00000   0.00000   0.00000   0.00000   0.00000   0.00000
Generated with MDTraj, t= 68.0
 122
    1UNL     C1    1  -0.419   0.058  -0.378
    1UNL     C2    2  -0.337  -0.020  -0.304
    1UNL     C3    3  -0.270   0.028  -0.187
    1UNL     C4    4  -0.365   0.010  -0.063
    1UNL     O1    5  -0.477   0.100  -0.062
    1UNL     C5    6  -0.577   0.058   0.032
    1UNL     O2    7  -0.697   0.121   0.019
    1UNL     C6    8  -0.692   0.253   0.067
    1UNL     C7    9  -0.834   0.315   0.036
    1UNL     O3   10  -0.851   0.447   0.087
    1UNL     C8   11  -0.669   0.256   0.220
    1UNL     O4   12  -0.665   0.391   0.262
    1UNL     C9   13  -0.538   0.174   0.254
    1UNL     O5   14  -0.427   0.253   0.216
    1UNL    C10   15  -0.544   0.037   0.185
    1UNL     O6   16  -0.641  -0.053   0.238
    1UNL     O7   17  -0.398  -0.126  -0.042
    1UNL    C11   18  -0.292  -0.216  -0.069
    1UNL    C12   19  -0.165  -0.190  -0.110
    1UNL    C13   20  -0.046  -0.280  -0.096
    1UNL     O8   21   0.057  -0.255  -0.154
    1UNL     O9   22  -0.063  -0.395  -0.022
    1UNL    C14   23   0.048  -0.476  -0.009
    1UNL    C15   24  -0.140  -0.053  -0.163
    1UNL    C16   25  -0.069  -0.065  -0.303
    1UNL    C17   26   0.013   0.061  -0.344
    1UNL     N1   27   0.074   0.143  -0.232
    1UNL    C18   28   0.023   0.277  -0.174
    1UNL    C19   29  -0.013   0.276  -0.027
    1UNL    C20   30   0.033   0.145   0.038
    1UNL    C21   31   0.132   0.068  -0.014
    1UNL     N2   32   0.131  -0.052   0.051
    1UNL    C22   33   0.026  -0.060   0.140
    1UNL    C23   34  -0.024  -0.164   0.220
    1UNL    C24   35  -0.127  -0.136   0.308
    1UNL    C25   36  -0.190  -0.011   0.308
    1UNL    C26   37  -0.145   0.087   0.218
    1UNL    C27   38  -0.032   0.070   0.138
    1UNL    C28   39   0.186   0.092  -0.148
    1UNL    C29   40   0.270  -0.021  -0.216
    1UNL    C30   41   0.408  -0.031  -0.155
    1UNL    C31   42   0.515  -0.064  -0.264
    1UNL    C32   43   0.510  -0.020  -0.400
    1UNL    O10   44   0.598  -0.056  -0.481
    1UNL    O11   45   0.411   0.068  -0.435
    1UNL    C33   46   0.406   0.099  -0.577
    1UNL    C34   47   0.615  -0.155  -0.230
    1UNL    O12   48   0.633  -0.223  -0.110
    1UNL    C35   49   0.562  -0.153   0.001
    1UNL    O13   50   0.587  -0.205   0.137
    1UNL    C36   51   0.517  -0.140   0.241
    1UNL    O14   52   0.371  -0.161   0.229
    1UNL    C37   53   0.296  -0.126   0.344
    1UNL    C38   54   0.270  -0.241   0.450
    1UNL    O15   55   0.207  -0.194   0.566
    1UNL    C39   56   0.352   0.001   0.420
    1UNL    O16   57   0.242   0.070   0.485
    1UNL    C40   58   0.424   0.098   0.320
    1UNL    O17   59   0.324   0.158   0.243
    1UNL    C41   60   0.538   0.023   0.235
    1UNL    O18   61   0.549   0.077   0.107
    1UNL    C42   62   0.415  -0.133  -0.035
    1UNL    C43   63   0.362  -0.270  -0.064
    1UNL    C44   64   0.379  -0.377   0.011
    1UNL     H1   65  -0.431   0.164  -0.358
    1UNL     H2   66  -0.478   0.020  -0.456
    1UNL     H3   67  -0.339  -0.126  -0.312
    1UNL     H4   68  -0.249   0.137  -0.207
    1UNL     H5   69  -0.305   0.043   0.031
    1UNL     H6   70  -0.606  -0.054   0.001
    1UNL     H7   71  -0.610   0.308   0.013
    1UNL     H8   72  -0.917   0.249   0.064
    1UNL     H9   73  -0.846   0.330  -0.074
    1UNL    H10   74  -0.930   0.490   0.045
    1UNL    H11   75  -0.746   0.194   0.264
    1UNL    H12   76  -0.728   0.450   0.210
    1UNL    H13   77  -0.538   0.160   0.368
    1UNL    H14   78  -0.439   0.346   0.236
    1UNL    H15   79  -0.453  -0.012   0.193
    1UNL    H16   80  -0.730  -0.024   0.223
    1UNL    H17   81  -0.315  -0.319  -0.029
    1UNL    H18   82   0.129  -0.409   0.006
    1UNL    H19   83   0.082  -0.536  -0.098
    1UNL    H20   84   0.041  -0.540   0.079
    1UNL    H21   85  -0.086  -0.001  -0.090
    1UNL    H22   86   0.005  -0.148  -0.298
    1UNL    H23   87  -0.134  -0.103  -0.389
    1UNL    H24   88   0.102   0.026  -0.409
    1UNL    H25   89  -0.037   0.138  -0.401
    1UNL    H26   90   0.110   0.334  -0.198
    1UNL    H27   91  -0.064   0.309  -0.225
    1UNL    H28   92   0.019   0.363   0.031
    1UNL    H29   93  -0.125   0.275  -0.016
    1UNL    H30   94   0.177  -0.140   0.011
    1UNL    H31   95   0.016  -0.259   0.208
    1UNL    H32   96  -0.152  -0.205   0.387
    1UNL    H33   97  -0.272   0.008   0.373
    1UNL    H34   98  -0.196   0.186   0.199
    1UNL    H35   99   0.255   0.177  -0.144
    1UNL    H36  100   0.283   0.002  -0.319
    1UNL    H37  101   0.211  -0.115  -0.214
    1UNL    H38  102   0.436   0.072  -0.113
    1UNL    H39  103   0.345   0.185  -0.612
    1UNL    H40  104   0.511   0.112  -0.599
    1UNL    H41  105   0.374   0.007  -0.631
    1UNL    H42  106   0.700  -0.177  -0.305
    1UNL    H43  107   0.619  -0.049  -0.005
    1UNL    H44  108   0.562  -0.175   0.332
    1UNL    H45  109   0.201  -0.095   0.303
    1UNL    H46  110   0.217  -0.330   0.407
    1UNL    H47  111   0.375  -0.257   0.477
    1UNL    H48  112   0.225  -0.100   0.574
    1UNL    H49  113   0.422  -0.038   0.494
    1UNL    H50  114   0.190   0.120   0.414
    1UNL    H51  115   0.463   0.190   0.379
    1UNL    H52  116   0.282   0.088   0.178
    1UNL    H53  117   0.636   0.037   0.290
    1UNL    H54  118   0.482   0.149   0.090
    1UNL    H55  119   0.364  -0.097   0.057
    1UNL    H56  120   0.330  -0.281  -0.166
    1UNL    H57  121   0.351  -0.480  -0.017
    1UNL    H58  122   0.432  -0.365   0.100
   0.00000   0.00000   0.00000   0.00000   0.00000   0.00000   0.00000   0.00000   0.00000
Generated with MDTraj, t= 69.0
 122
    1UNL     C1    1  -0.467   0.013  -0.388
    1UNL     C2    2  -0.376  -0.053  -0.314
    1UNL     C3    3  -0.292   0.018  -0.211
    1UNL     C4    4  -0.357   0.019  -0.070
    1UNL     O1    5  -0.469   0.107  -0.066
    1UNL     C5    6  -0.570   0.050   0.014
    1UNL     O2    7  -0.696   0.124   0.005
    1UNL     C6    8  -0.678   0.257   0.057
    1UNL     C7    9  -0.813   0.333   0.040
    1UNL     O3   10  -0.822   0.468   0.081
    1UNL     C8   11  -0.657   0.251   0.213
    1UNL     O4   12  -0.658   0.379   0.268
    1UNL     C9   13  -0.527   0.167   0.242
    1UNL     O5   14  -0.416   0.239   0.207
    1UNL    C10   15  -0.529   0.030   0.163
    1UNL     O6   16  -0.619  -0.063   0.221
    1UNL     O7   17  -0.382  -0.112  -0.022
    1UNL    C11   18  -0.286  -0.203  -0.062
    1UNL    C12   19  -0.163  -0.179  -0.116
    1UNL    C13   20  -0.043  -0.264  -0.088
    1UNL     O8   21   0.064  -0.239  -0.138
    1UNL     O9   22  -0.078  -0.374  -0.015
    1UNL    C14   23   0.022  -0.470   0.008
    1UNL    C15   24  -0.152  -0.045  -0.181
    1UNL    C16   25  -0.054  -0.042  -0.303
    1UNL    C17   26   0.006   0.099  -0.328
    1UNL     N1   27   0.080   0.154  -0.214
    1UNL    C18   28   0.029   0.281  -0.144
    1UNL    C19   29  -0.024   0.251   0.002
    1UNL    C20   30   0.024   0.124   0.051
    1UNL    C21   31   0.117   0.035  -0.004
    1UNL     N2   32   0.117  -0.082   0.067
    1UNL    C22   33   0.017  -0.072   0.168
    1UNL    C23   34  -0.033  -0.167   0.255
    1UNL    C24   35  -0.142  -0.140   0.335
    1UNL    C25   36  -0.205  -0.015   0.323
    1UNL    C26   37  -0.150   0.086   0.243
    1UNL    C27   38  -0.046   0.053   0.161
    1UNL    C28   39   0.183   0.081  -0.133
    1UNL    C29   40   0.260  -0.022  -0.220
    1UNL    C30   41   0.407  -0.042  -0.173
    1UNL    C31   42   0.512  -0.089  -0.281
    1UNL    C32   43   0.522  -0.026  -0.406
    1UNL    O10   44   0.628  -0.038  -0.469
    1UNL    O11   45   0.414   0.043  -0.442
    1UNL    C33   46   0.424   0.116  -0.555
    1UNL    C34   47   0.622  -0.161  -0.232
    1UNL    O12   48   0.643  -0.224  -0.104
    1UNL    C35   49   0.567  -0.154  -0.005
    1UNL    O13   50   0.590  -0.188   0.131
    1UNL    C36   51   0.512  -0.119   0.224
    1UNL    O14   52   0.367  -0.136   0.215
    1UNL    C37   53   0.293  -0.116   0.335
    1UNL    C38   54   0.297  -0.239   0.430
    1UNL    O15   55   0.222  -0.213   0.544
    1UNL    C39   56   0.348   0.008   0.408
    1UNL    O16   57   0.250   0.064   0.495
    1UNL    C40   58   0.402   0.109   0.301
    1UNL    O17   59   0.306   0.145   0.206
    1UNL    C41   60   0.526   0.042   0.219
    1UNL    O18   61   0.541   0.097   0.093
    1UNL    C42   62   0.418  -0.140  -0.047
    1UNL    C43   63   0.362  -0.282  -0.064
    1UNL    C44   64   0.364  -0.374   0.032
    1UNL     H1   65  -0.477   0.118  -0.367
    1UNL     H2   66  -0.530  -0.035  -0.461
    1UNL     H3   67  -0.367  -0.166  -0.326
    1UNL     H4   68  -0.278   0.119  -0.260
    1UNL     H5   69  -0.283   0.056   0.012
    1UNL     H6   70  -0.603  -0.050  -0.040
    1UNL     H7   71  -0.595   0.321   0.011
    1UNL     H8   72  -0.893   0.278   0.092
    1UNL     H9   73  -0.844   0.325  -0.068
    1UNL    H10   74  -0.903   0.512   0.046
    1UNL    H11   75  -0.742   0.201   0.253
    1UNL    H12   76  -0.688   0.435   0.194
    1UNL    H13   77  -0.525   0.162   0.358
    1UNL    H14   78  -0.430   0.338   0.205
    1UNL    H15   79  -0.431  -0.002   0.165
    1UNL    H16   80  -0.704  -0.032   0.198
    1UNL    H17   81  -0.303  -0.307  -0.025
    1UNL    H18   82   0.094  -0.428   0.073
    1UNL    H19   83   0.096  -0.476  -0.079
    1UNL    H20   84  -0.015  -0.560   0.058
    1UNL    H21   85  -0.110   0.016  -0.108
    1UNL    H22   86   0.039  -0.109  -0.280
    1UNL    H23   87  -0.105  -0.082  -0.396
    1UNL    H24   88   0.089   0.100  -0.408
    1UNL    H25   89  -0.073   0.168  -0.360
    1UNL    H26   90   0.105   0.352  -0.129
    1UNL    H27   91  -0.051   0.309  -0.213
    1UNL    H28   92   0.005   0.327   0.074
    1UNL    H29   93  -0.138   0.256   0.001
    1UNL    H30   94   0.160  -0.173   0.030
    1UNL    H31   95   0.013  -0.264   0.247
    1UNL    H32   96  -0.179  -0.226   0.384
    1UNL    H33   97  -0.296   0.007   0.381
    1UNL    H34   98  -0.207   0.174   0.233
    1UNL    H35   99   0.254   0.162  -0.107
    1UNL    H36  100   0.261   0.017  -0.324
    1UNL    H37  101   0.213  -0.120  -0.218
    1UNL    H38  102   0.445   0.059  -0.136
    1UNL    H39  103   0.326   0.138  -0.597
    1UNL    H40  104   0.474   0.206  -0.528
    1UNL    H41  105   0.488   0.062  -0.626
    1UNL    H42  106   0.698  -0.194  -0.297
    1UNL    H43  107   0.618  -0.048  -0.024
    1UNL    H44  108   0.552  -0.154   0.320
    1UNL    H45  109   0.189  -0.095   0.311
    1UNL    H46  110   0.243  -0.325   0.378
    1UNL    H47  111   0.397  -0.270   0.466
    1UNL    H48  112   0.192  -0.116   0.546
    1UNL    H49  113   0.429  -0.025   0.469
    1UNL    H50  114   0.254   0.162   0.483
    1UNL    H51  115   0.433   0.207   0.353
    1UNL    H52  116   0.241   0.076   0.193
    1UNL    H53  117   0.617   0.061   0.277
    1UNL    H54  118   0.463   0.139   0.059
    1UNL    H55  119   0.357  -0.094   0.038
    1UNL    H56  120   0.327  -0.304  -0.162
    1UNL    H57  121   0.312  -0.466   0.028
    1UNL    H58  122   0.426  -0.353   0.119
   0.00000   0.00000   0.00000   0.00000   0.00000   0.00000   0.00000   0.00000   0.00000
Generated with MDTraj, t= 70.0
 122
    1UNL     C1    1  -0.488  -0.037  -0.343
    1UNL     C2    2  -0.359  -0.055  -0.315
    1UNL     C3    3  -0.286   0.029  -0.212
    1UNL     C4    4  -0.364   0.031  -0.081
    1UNL     O1    5  -0.485   0.105  -0.087
    1UNL     C5    6  -0.576   0.046   0.002
    1UNL     O2    7  -0.702   0.115   0.009
    1UNL     C6    8  -0.681   0.251   0.060
    1UNL     C7    9  -0.797   0.348   0.035
    1UNL     O3   10  -0.759   0.482   0.054
    1UNL     C8   11  -0.649   0.248   0.213
    1UNL     O4   12  -0.632   0.378   0.255
    1UNL     C9   13  -0.513   0.157   0.226
    1UNL     O5   14  -0.402   0.231   0.184
    1UNL    C10   15  -0.527   0.019   0.146
    1UNL     O6   16  -0.616  -0.075   0.217
    1UNL     O7   17  -0.381  -0.100  -0.026
    1UNL    C11   18  -0.272  -0.180  -0.047
    1UNL    C12   19  -0.153  -0.156  -0.105
    1UNL    C13   20  -0.054  -0.259  -0.090
    1UNL     O8   21   0.041  -0.251  -0.165
    1UNL     O9   22  -0.092  -0.369  -0.011
    1UNL    C14   23   0.003  -0.471  -0.001
    1UNL    C15   24  -0.147  -0.022  -0.173
    1UNL    C16   25  -0.041  -0.029  -0.289
    1UNL    C17   26   0.015   0.101  -0.321
    1UNL     N1   27   0.091   0.164  -0.210
    1UNL    C18   28   0.030   0.283  -0.141
    1UNL    C19   29  -0.036   0.249  -0.006
    1UNL    C20   30   0.007   0.117   0.059
    1UNL    C21   31   0.098   0.039  -0.001
    1UNL     N2   32   0.115  -0.086   0.070
    1UNL    C22   33   0.020  -0.084   0.171
    1UNL    C23   34  -0.020  -0.181   0.270
    1UNL    C24   35  -0.129  -0.154   0.347
    1UNL    C25   36  -0.195  -0.033   0.341
    1UNL    C26   37  -0.154   0.066   0.250
    1UNL    C27   38  -0.051   0.039   0.162
    1UNL    C28   39   0.174   0.074  -0.124
    1UNL    C29   40   0.251  -0.037  -0.204
    1UNL    C30   41   0.396  -0.049  -0.169
    1UNL    C31   42   0.491  -0.100  -0.273
    1UNL    C32   43   0.498  -0.030  -0.403
    1UNL    O10   44   0.607  -0.054  -0.459
    1UNL    O11   45   0.410   0.059  -0.450
    1UNL    C33   46   0.456   0.122  -0.570
    1UNL    C34   47   0.594  -0.179  -0.240
    1UNL    O12   48   0.639  -0.199  -0.111
    1UNL    C35   49   0.565  -0.132  -0.010
    1UNL    O13   50   0.600  -0.161   0.115
    1UNL    C36   51   0.516  -0.104   0.218
    1UNL    O14   52   0.382  -0.154   0.227
    1UNL    C37   53   0.310  -0.120   0.350
    1UNL    C38   54   0.317  -0.237   0.450
    1UNL    O15   55   0.209  -0.235   0.546
    1UNL    C39   56   0.352   0.018   0.417
    1UNL    O16   57   0.242   0.074   0.481
    1UNL    C40   58   0.404   0.118   0.317
    1UNL    O17   59   0.304   0.157   0.240
    1UNL    C41   60   0.512   0.055   0.215
    1UNL    O18   61   0.499   0.104   0.087
    1UNL    C42   62   0.418  -0.139  -0.043
    1UNL    C43   63   0.379  -0.278  -0.080
    1UNL    C44   64   0.354  -0.369   0.009
    1UNL     H1   65  -0.548   0.016  -0.275
    1UNL     H2   66  -0.528  -0.087  -0.431
    1UNL     H3   67  -0.313  -0.111  -0.388
    1UNL     H4   68  -0.290   0.135  -0.253
    1UNL     H5   69  -0.307   0.088   0.002
    1UNL     H6   70  -0.621  -0.052  -0.043
    1UNL     H7   71  -0.586   0.294   0.011
    1UNL     H8   72  -0.875   0.322   0.109
    1UNL     H9   73  -0.837   0.328  -0.068
    1UNL    H10   74  -0.825   0.545   0.023
    1UNL    H11   75  -0.726   0.201   0.268
    1UNL    H12   76  -0.697   0.430   0.208
    1UNL    H13   77  -0.509   0.131   0.338
    1UNL    H14   78  -0.407   0.324   0.211
    1UNL    H15   79  -0.440  -0.036   0.151
    1UNL    H16   80  -0.706  -0.049   0.197
    1UNL    H17   81  -0.296  -0.271  -0.007
    1UNL    H18   82   0.054  -0.475   0.092
    1UNL    H19   83   0.087  -0.445  -0.075
    1UNL    H20   84  -0.043  -0.569   0.003
    1UNL    H21   85  -0.114   0.057  -0.095
    1UNL    H22   86   0.040  -0.097  -0.252
    1UNL    H23   87  -0.090  -0.067  -0.385
    1UNL    H24   88   0.085   0.085  -0.409
    1UNL    H25   89  -0.064   0.175  -0.353
    1UNL    H26   90   0.113   0.347  -0.132
    1UNL    H27   91  -0.054   0.326  -0.199
    1UNL    H28   92  -0.015   0.329   0.065
    1UNL    H29   93  -0.151   0.242  -0.009
    1UNL    H30   94   0.163  -0.175   0.043
    1UNL    H31   95   0.038  -0.278   0.267
    1UNL    H32   96  -0.165  -0.231   0.418
    1UNL    H33   97  -0.289  -0.012   0.390
    1UNL    H34   98  -0.200   0.164   0.251
    1UNL    H35   99   0.245   0.149  -0.081
    1UNL    H36  100   0.252  -0.017  -0.316
    1UNL    H37  101   0.211  -0.134  -0.183
    1UNL    H38  102   0.433   0.058  -0.151
    1UNL    H39  103   0.386   0.190  -0.620
    1UNL    H40  104   0.548   0.175  -0.558
    1UNL    H41  105   0.485   0.037  -0.634
    1UNL    H42  106   0.658  -0.210  -0.316
    1UNL    H43  107   0.605  -0.021  -0.027
    1UNL    H44  108   0.565  -0.140   0.312
    1UNL    H45  109   0.206  -0.105   0.324
    1UNL    H46  110   0.300  -0.338   0.399
    1UNL    H47  111   0.410  -0.242   0.513
    1UNL    H48  112   0.209  -0.147   0.584
    1UNL    H49  113   0.425  -0.001   0.491
    1UNL    H50  114   0.175   0.091   0.415
    1UNL    H51  115   0.450   0.212   0.362
    1UNL    H52  116   0.282   0.087   0.176
    1UNL    H53  117   0.607   0.083   0.256
    1UNL    H54  118   0.538   0.199   0.078
    1UNL    H55  119   0.354  -0.105   0.045
    1UNL    H56  120   0.387  -0.306  -0.184
    1UNL    H57  121   0.349  -0.468  -0.024
    1UNL    H58  122   0.352  -0.357   0.120
   0.00000   0.00000   0.00000   0.00000   0.00000   0.00000   0.00000   0.00000   0.00000
Generated with MDTraj, t= 71.0
 122
    1UNL     C1    1  -0.512  -0.061  -0.316
    1UNL     C2    2  -0.380  -0.044  -0.318
    1UNL     C3    3  -0.301   0.025  -0.214
    1UNL     C4    4  -0.374   0.007  -0.078
    1UNL     O1    5  -0.493   0.084  -0.078
    1UNL     C5    6  -0.592   0.043   0.016
    1UNL     O2    7  -0.705   0.125   0.010
    1UNL     C6    8  -0.673   0.262   0.053
    1UNL     C7    9  -0.775   0.365   0.013
    1UNL     O3   10  -0.742   0.502   0.036
    1UNL     C8   11  -0.629   0.260   0.200
    1UNL     O4   12  -0.593   0.390   0.237
    1UNL     C9   13  -0.509   0.162   0.221
    1UNL     O5   14  -0.392   0.214   0.167
    1UNL    C10   15  -0.547   0.025   0.159
    1UNL     O6   16  -0.646  -0.048   0.227
    1UNL     O7   17  -0.399  -0.127  -0.045
    1UNL    C11   18  -0.292  -0.207  -0.065
    1UNL    C12   19  -0.169  -0.173  -0.111
    1UNL    C13   20  -0.056  -0.272  -0.106
    1UNL     O8   21   0.043  -0.256  -0.178
    1UNL     O9   22  -0.085  -0.385  -0.034
    1UNL    C14   23   0.018  -0.477  -0.031
    1UNL    C15   24  -0.160  -0.037  -0.179
    1UNL    C16   25  -0.062  -0.025  -0.301
    1UNL    C17   26   0.005   0.108  -0.319
    1UNL     N1   27   0.072   0.160  -0.201
    1UNL    C18   28   0.017   0.282  -0.136
    1UNL    C19   29  -0.030   0.243   0.002
    1UNL    C20   30   0.024   0.120   0.057
    1UNL    C21   31   0.129   0.048   0.004
    1UNL     N2   32   0.139  -0.068   0.074
    1UNL    C22   33   0.042  -0.079   0.171
    1UNL    C23   34   0.007  -0.192   0.257
    1UNL    C24   35  -0.098  -0.169   0.339
    1UNL    C25   36  -0.179  -0.047   0.334
    1UNL    C26   37  -0.145   0.054   0.247
    1UNL    C27   38  -0.034   0.039   0.165
    1UNL    C28   39   0.191   0.099  -0.126
    1UNL    C29   40   0.270  -0.001  -0.207
    1UNL    C30   41   0.414  -0.028  -0.167
    1UNL    C31   42   0.523  -0.069  -0.264
    1UNL    C32   43   0.505  -0.026  -0.404
    1UNL    O10   44   0.564  -0.092  -0.493
    1UNL    O11   45   0.422   0.084  -0.426
    1UNL    C33   46   0.390   0.107  -0.558
    1UNL    C34   47   0.622  -0.160  -0.230
    1UNL    O12   48   0.651  -0.200  -0.106
    1UNL    C35   49   0.580  -0.127  -0.003
    1UNL    O13   50   0.600  -0.169   0.124
    1UNL    C36   51   0.508  -0.111   0.223
    1UNL    O14   52   0.374  -0.157   0.231
    1UNL    C37   53   0.302  -0.129   0.353
    1UNL    C38   54   0.311  -0.243   0.449
    1UNL    O15   55   0.231  -0.213   0.567
    1UNL    C39   56   0.353   0.006   0.426
    1UNL    O16   57   0.243   0.052   0.494
    1UNL    C40   58   0.391   0.111   0.321
    1UNL    O17   59   0.274   0.140   0.248
    1UNL    C41   60   0.502   0.048   0.218
    1UNL    O18   61   0.486   0.105   0.093
    1UNL    C42   62   0.425  -0.123  -0.043
    1UNL    C43   63   0.355  -0.254  -0.055
    1UNL    C44   64   0.365  -0.340   0.040
    1UNL     H1   65  -0.573  -0.005  -0.247
    1UNL     H2   66  -0.554  -0.137  -0.381
    1UNL     H3   67  -0.331  -0.114  -0.394
    1UNL     H4   68  -0.285   0.131  -0.251
    1UNL     H5   69  -0.312   0.058   0.004
    1UNL     H6   70  -0.633  -0.062  -0.013
    1UNL     H7   71  -0.574   0.284  -0.002
    1UNL     H8   72  -0.869   0.340   0.063
    1UNL     H9   73  -0.790   0.353  -0.097
    1UNL    H10   74  -0.804   0.564  -0.007
    1UNL    H11   75  -0.712   0.233   0.261
    1UNL    H12   76  -0.666   0.453   0.207
    1UNL    H13   77  -0.498   0.161   0.335
    1UNL    H14   78  -0.380   0.306   0.199
    1UNL    H15   79  -0.459  -0.029   0.155
    1UNL    H16   80  -0.728   0.009   0.206
    1UNL    H17   81  -0.306  -0.303  -0.015
    1UNL    H18   82   0.112  -0.440  -0.000
    1UNL    H19   83   0.016  -0.527  -0.133
    1UNL    H20   84  -0.001  -0.547   0.050
    1UNL    H21   85  -0.110   0.034  -0.104
    1UNL    H22   86   0.015  -0.093  -0.285
    1UNL    H23   87  -0.124  -0.050  -0.396
    1UNL    H24   88   0.080   0.111  -0.403
    1UNL    H25   89  -0.074   0.189  -0.346
    1UNL    H26   90   0.096   0.347  -0.120
    1UNL    H27   91  -0.062   0.327  -0.200
    1UNL    H28   92  -0.007   0.320   0.076
    1UNL    H29   93  -0.145   0.239   0.001
    1UNL    H30   94   0.206  -0.147   0.049
    1UNL    H31   95   0.066  -0.276   0.261
    1UNL    H32   96  -0.130  -0.236   0.412
    1UNL    H33   97  -0.266  -0.049   0.396
    1UNL    H34   98  -0.211   0.143   0.250
    1UNL    H35   99   0.246   0.194  -0.104
    1UNL    H36  100   0.276   0.044  -0.311
    1UNL    H37  101   0.218  -0.094  -0.215
    1UNL    H38  102   0.455   0.069  -0.124
    1UNL    H39  103   0.345   0.208  -0.569
    1UNL    H40  104   0.474   0.098  -0.625
    1UNL    H41  105   0.332   0.016  -0.585
    1UNL    H42  106   0.682  -0.193  -0.321
    1UNL    H43  107   0.625  -0.017  -0.003
    1UNL    H44  108   0.546  -0.148   0.325
    1UNL    H45  109   0.200  -0.108   0.322
    1UNL    H46  110   0.274  -0.341   0.404
    1UNL    H47  111   0.417  -0.252   0.481
    1UNL    H48  112   0.218  -0.113   0.566
    1UNL    H49  113   0.424  -0.021   0.498
    1UNL    H50  114   0.189   0.116   0.437
    1UNL    H51  115   0.423   0.211   0.358
    1UNL    H52  116   0.231   0.055   0.205
    1UNL    H53  117   0.596   0.082   0.250
    1UNL    H54  118   0.417   0.171   0.098
    1UNL    H55  119   0.381  -0.065   0.044
    1UNL    H56  120   0.265  -0.265  -0.113
    1UNL    H57  121   0.307  -0.432   0.042
    1UNL    H58  122   0.433  -0.331   0.119
   0.00000   0.00000   0.00000   0.00000   0.00000   0.00000   0.00000   0.00000   0.00000
Generated with MDTraj, t= 72.0
 122
    1UNL     C1    1  -0.489  -0.044  -0.353
    1UNL     C2    2  -0.361  -0.060  -0.310
    1UNL     C3    3  -0.301   0.014  -0.201
    1UNL     C4    4  -0.381  -0.015  -0.073
    1UNL     O1    5  -0.487   0.083  -0.067
    1UNL     C5    6  -0.595   0.043   0.025
    1UNL     O2    7  -0.702   0.135   0.018
    1UNL     C6    8  -0.662   0.274   0.040
    1UNL     C7    9  -0.777   0.375   0.010
    1UNL     O3   10  -0.738   0.515   0.022
    1UNL     C8   11  -0.605   0.283   0.183
    1UNL     O4   12  -0.546   0.412   0.195
    1UNL     C9   13  -0.506   0.175   0.223
    1UNL     O5   14  -0.384   0.197   0.166
    1UNL    C10   15  -0.553   0.034   0.177
    1UNL     O6   16  -0.667   0.001   0.250
    1UNL     O7   17  -0.405  -0.155  -0.053
    1UNL    C11   18  -0.296  -0.229  -0.074
    1UNL    C12   19  -0.178  -0.192  -0.131
    1UNL    C13   20  -0.060  -0.284  -0.113
    1UNL     O8   21   0.053  -0.246  -0.144
    1UNL     O9   22  -0.080  -0.419  -0.078
    1UNL    C14   23   0.039  -0.494  -0.062
    1UNL    C15   24  -0.159  -0.049  -0.172
    1UNL    C16   25  -0.073  -0.034  -0.299
    1UNL    C17   26  -0.021   0.110  -0.316
    1UNL     N1   27   0.058   0.173  -0.208
    1UNL    C18   28  -0.009   0.285  -0.137
    1UNL    C19   29  -0.033   0.253   0.016
    1UNL    C20   30   0.019   0.118   0.064
    1UNL    C21   31   0.110   0.049  -0.013
    1UNL     N2   32   0.127  -0.076   0.043
    1UNL    C22   33   0.031  -0.095   0.134
    1UNL    C23   34  -0.004  -0.207   0.216
    1UNL    C24   35  -0.095  -0.190   0.314
    1UNL    C25   36  -0.158  -0.067   0.334
    1UNL    C26   37  -0.133   0.041   0.255
    1UNL    C27   38  -0.039   0.028   0.153
    1UNL    C28   39   0.173   0.104  -0.140
    1UNL    C29   40   0.259   0.005  -0.215
    1UNL    C30   41   0.402  -0.011  -0.158
    1UNL    C31   42   0.497  -0.056  -0.261
    1UNL    C32   43   0.467  -0.038  -0.406
    1UNL    O10   44   0.510  -0.125  -0.486
    1UNL    O11   45   0.389   0.078  -0.443
    1UNL    C33   46   0.386   0.102  -0.572
    1UNL    C34   47   0.613  -0.123  -0.223
    1UNL    O12   48   0.646  -0.166  -0.098
    1UNL    C35   49   0.569  -0.109   0.010
    1UNL    O13   50   0.589  -0.154   0.139
    1UNL    C36   51   0.510  -0.102   0.250
    1UNL    O14   52   0.367  -0.138   0.242
    1UNL    C37   53   0.306  -0.127   0.373
    1UNL    C38   54   0.322  -0.252   0.465
    1UNL    O15   55   0.254  -0.236   0.587
    1UNL    C39   56   0.356   0.005   0.450
    1UNL    O16   57   0.262   0.055   0.541
    1UNL    C40   58   0.393   0.117   0.349
    1UNL    O17   59   0.292   0.153   0.261
    1UNL    C41   60   0.515   0.063   0.265
    1UNL    O18   61   0.515   0.121   0.133
    1UNL    C42   62   0.417  -0.124  -0.042
    1UNL    C43   63   0.386  -0.269  -0.081
    1UNL    C44   64   0.409  -0.363   0.005
    1UNL     H1   65  -0.554   0.024  -0.299
    1UNL     H2   66  -0.521  -0.079  -0.447
    1UNL     H3   67  -0.302  -0.135  -0.352
    1UNL     H4   68  -0.299   0.125  -0.227
    1UNL     H5   69  -0.325   0.024   0.015
    1UNL     H6   70  -0.632  -0.060  -0.012
    1UNL     H7   71  -0.576   0.291  -0.031
    1UNL     H8   72  -0.860   0.365   0.080
    1UNL     H9   73  -0.816   0.357  -0.091
    1UNL    H10   74  -0.807   0.573  -0.024
    1UNL    H11   75  -0.690   0.276   0.253
    1UNL    H12   76  -0.585   0.479   0.140
    1UNL    H13   77  -0.495   0.180   0.335
    1UNL    H14   78  -0.383   0.199   0.064
    1UNL    H15   79  -0.479  -0.035   0.207
    1UNL    H16   80  -0.756   0.036   0.215
    1UNL    H17   81  -0.302  -0.335  -0.030
    1UNL    H18   82   0.126  -0.432  -0.068
    1UNL    H19   83   0.031  -0.583  -0.133
    1UNL    H20   84   0.068  -0.537   0.034
    1UNL    H21   85  -0.108   0.002  -0.093
    1UNL    H22   86   0.011  -0.103  -0.298
    1UNL    H23   87  -0.133  -0.055  -0.393
    1UNL    H24   88   0.049   0.118  -0.402
    1UNL    H25   89  -0.107   0.186  -0.340
    1UNL    H26   90   0.054   0.366  -0.148
    1UNL    H27   91  -0.104   0.311  -0.189
    1UNL    H28   92   0.009   0.333   0.077
    1UNL    H29   93  -0.143   0.259   0.046
    1UNL    H30   94   0.154  -0.154  -0.025
    1UNL    H31   95   0.062  -0.299   0.208
    1UNL    H32   96  -0.116  -0.280   0.381
    1UNL    H33   97  -0.221  -0.051   0.423
    1UNL    H34   98  -0.189   0.127   0.266
    1UNL    H35   99   0.237   0.188  -0.102
    1UNL    H36  100   0.268   0.033  -0.320
    1UNL    H37  101   0.200  -0.090  -0.222
    1UNL    H38  102   0.447   0.084  -0.119
    1UNL    H39  103   0.349   0.206  -0.581
    1UNL    H40  104   0.484   0.096  -0.619
    1UNL    H41  105   0.324   0.024  -0.622
    1UNL    H42  106   0.671  -0.172  -0.305
    1UNL    H43  107   0.590   0.007   0.003
    1UNL    H44  108   0.548  -0.156   0.345
    1UNL    H45  109   0.204  -0.106   0.339
    1UNL    H46  110   0.282  -0.340   0.407
    1UNL    H47  111   0.429  -0.267   0.484
    1UNL    H48  112   0.235  -0.142   0.603
    1UNL    H49  113   0.441  -0.025   0.505
    1UNL    H50  114   0.230   0.143   0.505
    1UNL    H51  115   0.417   0.210   0.401
    1UNL    H52  116   0.246   0.076   0.234
    1UNL    H53  117   0.605   0.093   0.310
    1UNL    H54  118   0.434   0.175   0.115
    1UNL    H55  119   0.352  -0.092   0.043
    1UNL    H56  120   0.338  -0.297  -0.175
    1UNL    H57  121   0.380  -0.469  -0.008
    1UNL    H58  122   0.446  -0.341   0.100
   0.00000   0.00000   0.00000   0.00000   0.00000   0.00000   0.00000   0.00000   0.00000
Generated with MDTraj, t= 73.0
 122
    1UNL     C1    1  -0.474   0.030  -0.352
    1UNL     C2    2  -0.369  -0.041  -0.304
    1UNL     C3    3  -0.289   0.007  -0.186
    1UNL     C4    4  -0.373  -0.025  -0.063
    1UNL     O1    5  -0.488   0.062  -0.072
    1UNL     C5    6  -0.592   0.036   0.027
    1UNL     O2    7  -0.695   0.130   0.012
    1UNL     C6    8  -0.650   0.266   0.025
    1UNL     C7    9  -0.767   0.367   0.005
    1UNL     O3   10  -0.726   0.506  -0.002
    1UNL     C8   11  -0.583   0.288   0.166
    1UNL     O4   12  -0.517   0.415   0.157
    1UNL     C9   13  -0.470   0.183   0.204
    1UNL     O5   14  -0.357   0.208   0.124
    1UNL    C10   15  -0.532   0.045   0.172
    1UNL     O6   16  -0.638   0.028   0.261
    1UNL     O7   17  -0.402  -0.161  -0.035
    1UNL    C11   18  -0.292  -0.241  -0.059
    1UNL    C12   19  -0.176  -0.210  -0.125
    1UNL    C13   20  -0.061  -0.301  -0.120
    1UNL     O8   21   0.048  -0.272  -0.167
    1UNL     O9   22  -0.090  -0.426  -0.075
    1UNL    C14   23   0.012  -0.510  -0.105
    1UNL    C15   24  -0.155  -0.069  -0.168
    1UNL    C16   25  -0.075  -0.044  -0.299
    1UNL    C17   26  -0.017   0.097  -0.315
    1UNL     N1   27   0.043   0.160  -0.195
    1UNL    C18   28  -0.032   0.265  -0.120
    1UNL    C19   29  -0.057   0.236   0.032
    1UNL    C20   30   0.011   0.114   0.084
    1UNL    C21   31   0.109   0.048   0.011
    1UNL     N2   32   0.122  -0.075   0.064
    1UNL    C22   33   0.035  -0.092   0.170
    1UNL    C23   34  -0.005  -0.213   0.231
    1UNL    C24   35  -0.119  -0.207   0.305
    1UNL    C25   36  -0.188  -0.089   0.332
    1UNL    C26   37  -0.148   0.032   0.277
    1UNL    C27   38  -0.031   0.030   0.194
    1UNL    C28   39   0.157   0.101  -0.125
    1UNL    C29   40   0.237   0.013  -0.214
    1UNL    C30   41   0.386  -0.004  -0.171
    1UNL    C31   42   0.485  -0.052  -0.269
    1UNL    C32   43   0.464  -0.045  -0.418
    1UNL    O10   44   0.519  -0.133  -0.488
    1UNL    O11   45   0.395   0.064  -0.469
    1UNL    C33   46   0.389   0.076  -0.609
    1UNL    C34   47   0.593  -0.117  -0.227
    1UNL    O12   48   0.632  -0.124  -0.097
    1UNL    C35   49   0.541  -0.075   0.006
    1UNL    O13   50   0.567  -0.135   0.130
    1UNL    C36   51   0.502  -0.090   0.243
    1UNL    O14   52   0.362  -0.122   0.250
    1UNL    C37   53   0.307  -0.127   0.378
    1UNL    C38   54   0.328  -0.261   0.461
    1UNL    O15   55   0.266  -0.254   0.582
    1UNL    C39   56   0.365  -0.008   0.461
    1UNL    O16   57   0.271   0.044   0.553
    1UNL    C40   58   0.412   0.111   0.364
    1UNL    O17   59   0.307   0.161   0.285
    1UNL    C41   60   0.519   0.060   0.272
    1UNL    O18   61   0.521   0.143   0.157
    1UNL    C42   62   0.394  -0.086  -0.042
    1UNL    C43   63   0.360  -0.236  -0.071
    1UNL    C44   64   0.434  -0.331  -0.018
    1UNL     H1   65  -0.515   0.116  -0.304
    1UNL     H2   66  -0.516  -0.003  -0.446
    1UNL     H3   67  -0.339  -0.139  -0.342
    1UNL     H4   68  -0.267   0.117  -0.193
    1UNL     H5   69  -0.324   0.018   0.022
    1UNL     H6   70  -0.624  -0.069  -0.009
    1UNL     H7   71  -0.574   0.289  -0.055
    1UNL     H8   72  -0.829   0.360   0.093
    1UNL     H9   73  -0.831   0.350  -0.082
    1UNL    H10   74  -0.807   0.561  -0.017
    1UNL    H11   75  -0.675   0.291   0.233
    1UNL    H12   76  -0.576   0.487   0.118
    1UNL    H13   77  -0.443   0.179   0.310
    1UNL    H14   78  -0.369   0.205   0.029
    1UNL    H15   79  -0.460  -0.033   0.180
    1UNL    H16   80  -0.721   0.053   0.222
    1UNL    H17   81  -0.310  -0.332  -0.011
    1UNL    H18   82   0.106  -0.474  -0.067
    1UNL    H19   83   0.015  -0.528  -0.217
    1UNL    H20   84  -0.009  -0.611  -0.069
    1UNL    H21   85  -0.097  -0.028  -0.094
    1UNL    H22   86   0.009  -0.123  -0.319
    1UNL    H23   87  -0.141  -0.064  -0.384
    1UNL    H24   88   0.059   0.101  -0.397
    1UNL    H25   89  -0.093   0.176  -0.352
    1UNL    H26   90   0.022   0.352  -0.135
    1UNL    H27   91  -0.132   0.289  -0.164
    1UNL    H28   92  -0.033   0.328   0.090
    1UNL    H29   93  -0.166   0.232   0.054
    1UNL    H30   94   0.136  -0.168   0.008
    1UNL    H31   95   0.040  -0.307   0.205
    1UNL    H32   96  -0.158  -0.292   0.350
    1UNL    H33   97  -0.284  -0.099   0.375
    1UNL    H34   98  -0.219   0.118   0.280
    1UNL    H35   99   0.216   0.192  -0.098
    1UNL    H36  100   0.230   0.055  -0.311
    1UNL    H37  101   0.198  -0.094  -0.225
    1UNL    H38  102   0.434   0.089  -0.133
    1UNL    H39  103   0.314   0.150  -0.643
    1UNL    H40  104   0.485   0.106  -0.647
    1UNL    H41  105   0.369  -0.021  -0.658
    1UNL    H42  106   0.665  -0.152  -0.292
    1UNL    H43  107   0.564   0.041   0.012
    1UNL    H44  108   0.549  -0.145   0.332
    1UNL    H45  109   0.203  -0.103   0.357
    1UNL    H46  110   0.284  -0.353   0.416
    1UNL    H47  111   0.432  -0.285   0.473
    1UNL    H48  112   0.266  -0.167   0.633
    1UNL    H49  113   0.442  -0.051   0.522
    1UNL    H50  114   0.255   0.133   0.522
    1UNL    H51  115   0.444   0.191   0.426
    1UNL    H52  116   0.250   0.086   0.246
    1UNL    H53  117   0.613   0.073   0.319
    1UNL    H54  118   0.481   0.234   0.160
    1UNL    H55  119   0.337  -0.042   0.040
    1UNL    H56  120   0.295  -0.256  -0.152
    1UNL    H57  121   0.430  -0.434  -0.034
    1UNL    H58  122   0.501  -0.302   0.063
   0.00000   0.00000   0.00000   0.00000   0.00000   0.00000   0.00000   0.00000   0.00000
Generated with MDTraj, t= 74.0
 122
    1UNL     C1    1  -0.446   0.072  -0.362
    1UNL     C2    2  -0.366  -0.015  -0.306
    1UNL     C3    3  -0.291   0.001  -0.183
    1UNL     C4    4  -0.378  -0.033  -0.063
    1UNL     O1    5  -0.495   0.056  -0.063
    1UNL     C5    6  -0.582   0.031   0.041
    1UNL     O2    7  -0.695   0.119   0.031
    1UNL     C6    8  -0.650   0.256   0.032
    1UNL     C7    9  -0.763   0.354  -0.011
    1UNL     O3   10  -0.720   0.483  -0.038
    1UNL     C8   11  -0.569   0.296   0.159
    1UNL     O4   12  -0.514   0.422   0.128
    1UNL     C9   13  -0.449   0.201   0.184
    1UNL     O5   14  -0.346   0.229   0.100
    1UNL    C10   15  -0.509   0.057   0.181
    1UNL     O6   16  -0.592   0.030   0.294
    1UNL     O7   17  -0.402  -0.168  -0.033
    1UNL    C11   18  -0.294  -0.247  -0.061
    1UNL    C12   19  -0.176  -0.210  -0.121
    1UNL    C13   20  -0.070  -0.314  -0.128
    1UNL     O8   21   0.045  -0.284  -0.158
    1UNL     O9   22  -0.115  -0.442  -0.116
    1UNL    C14   23  -0.009  -0.526  -0.106
    1UNL    C15   24  -0.153  -0.070  -0.162
    1UNL    C16   25  -0.067  -0.051  -0.286
    1UNL    C17   26  -0.021   0.090  -0.298
    1UNL     N1   27   0.048   0.168  -0.182
    1UNL    C18   28  -0.039   0.263  -0.102
    1UNL    C19   29  -0.030   0.251   0.049
    1UNL    C20   30   0.002   0.111   0.085
    1UNL    C21   31   0.098   0.040   0.011
    1UNL     N2   32   0.096  -0.096   0.047
    1UNL    C22   33   0.008  -0.104   0.154
    1UNL    C23   34  -0.021  -0.213   0.238
    1UNL    C24   35  -0.118  -0.201   0.336
    1UNL    C25   36  -0.189  -0.083   0.345
    1UNL    C26   37  -0.166   0.027   0.267
    1UNL    C27   38  -0.061   0.019   0.173
    1UNL    C28   39   0.157   0.101  -0.107
    1UNL    C29   40   0.243   0.014  -0.203
    1UNL    C30   41   0.393   0.009  -0.157
    1UNL    C31   42   0.486  -0.042  -0.261
    1UNL    C32   43   0.463  -0.036  -0.412
    1UNL    O10   44   0.544  -0.095  -0.484
    1UNL    O11   45   0.362   0.032  -0.462
    1UNL    C33   46   0.354   0.036  -0.606
    1UNL    C34   47   0.597  -0.106  -0.226
    1UNL    O12   48   0.640  -0.130  -0.098
    1UNL    C35   49   0.561  -0.069   0.009
    1UNL    O13   50   0.588  -0.128   0.134
    1UNL    C36   51   0.508  -0.080   0.233
    1UNL    O14   52   0.372  -0.122   0.229
    1UNL    C37   53   0.315  -0.119   0.355
    1UNL    C38   54   0.314  -0.252   0.429
    1UNL    O15   55   0.261  -0.255   0.560
    1UNL    C39   56   0.371  -0.013   0.457
    1UNL    O16   57   0.275   0.019   0.555
    1UNL    C40   58   0.411   0.110   0.376
    1UNL    O17   59   0.296   0.160   0.320
    1UNL    C41   60   0.510   0.070   0.266
    1UNL    O18   61   0.489   0.154   0.152
    1UNL    C42   62   0.411  -0.072  -0.034
    1UNL    C43   63   0.364  -0.214  -0.054
    1UNL    C44   64   0.429  -0.322  -0.020
    1UNL     H1   65  -0.458   0.166  -0.314
    1UNL     H2   66  -0.500   0.039  -0.451
    1UNL     H3   67  -0.358  -0.117  -0.350
    1UNL     H4   68  -0.267   0.111  -0.172
    1UNL     H5   69  -0.319   0.002   0.019
    1UNL     H6   70  -0.620  -0.078   0.041
    1UNL     H7   71  -0.572   0.268  -0.047
    1UNL     H8   72  -0.839   0.360   0.067
    1UNL     H9   73  -0.810   0.307  -0.098
    1UNL    H10   74  -0.791   0.544  -0.058
    1UNL    H11   75  -0.639   0.309   0.249
    1UNL    H12   76  -0.571   0.476   0.066
    1UNL    H13   77  -0.413   0.231   0.281
    1UNL    H14   78  -0.369   0.195   0.008
    1UNL    H15   79  -0.425  -0.009   0.200
    1UNL    H16   80  -0.691   0.039   0.269
    1UNL    H17   81  -0.298  -0.342  -0.017
    1UNL    H18   82   0.057  -0.510  -0.016
    1UNL    H19   83   0.074  -0.496  -0.177
    1UNL    H20   84  -0.040  -0.625  -0.142
    1UNL    H21   85  -0.096  -0.029  -0.084
    1UNL    H22   86   0.022  -0.119  -0.280
    1UNL    H23   87  -0.110  -0.084  -0.380
    1UNL    H24   88   0.045   0.106  -0.390
    1UNL    H25   89  -0.115   0.148  -0.326
    1UNL    H26   90  -0.028   0.366  -0.119
    1UNL    H27   91  -0.141   0.243  -0.135
    1UNL    H28   92   0.040   0.326   0.098
    1UNL    H29   93  -0.123   0.281   0.090
    1UNL    H30   94   0.094  -0.168  -0.026
    1UNL    H31   95   0.030  -0.302   0.230
    1UNL    H32   96  -0.137  -0.293   0.394
    1UNL    H33   97  -0.265  -0.086   0.426
    1UNL    H34   98  -0.230   0.113   0.277
    1UNL    H35   99   0.219   0.181  -0.061
    1UNL    H36  100   0.246   0.045  -0.306
    1UNL    H37  101   0.188  -0.080  -0.209
    1UNL    H38  102   0.432   0.111  -0.136
    1UNL    H39  103   0.289   0.111  -0.654
    1UNL    H40  104   0.454   0.050  -0.639
    1UNL    H41  105   0.319  -0.056  -0.651
    1UNL    H42  106   0.660  -0.151  -0.303
    1UNL    H43  107   0.592   0.042   0.010
    1UNL    H44  108   0.543  -0.129   0.329
    1UNL    H45  109   0.214  -0.088   0.325
    1UNL    H46  110   0.269  -0.329   0.367
    1UNL    H47  111   0.411  -0.293   0.442
    1UNL    H48  112   0.271  -0.171   0.606
    1UNL    H49  113   0.455  -0.056   0.511
    1UNL    H50  114   0.221   0.091   0.519
    1UNL    H51  115   0.448   0.192   0.430
    1UNL    H52  116   0.254   0.087   0.259
    1UNL    H53  117   0.608   0.101   0.304
    1UNL    H54  118   0.444   0.237   0.171
    1UNL    H55  119   0.352  -0.032   0.048
    1UNL    H56  120   0.259  -0.220  -0.081
    1UNL    H57  121   0.401  -0.421  -0.042
    1UNL    H58  122   0.536  -0.312   0.009
   0.00000   0.00000   0.00000   0.00000   0.00000   0.00000   0.00000   0.00000   0.00000
Generated with MDTraj, t= 75.0
 122
    1UNL     C1    1  -0.419   0.052  -0.386
    1UNL     C2    2  -0.355  -0.028  -0.305
    1UNL     C3    3  -0.288   0.011  -0.178
    1UNL     C4    4  -0.377  -0.038  -0.056
    1UNL     O1    5  -0.491   0.057  -0.043
    1UNL     C5    6  -0.566   0.038   0.072
    1UNL     O2    7  -0.687   0.115   0.072
    1UNL     C6    8  -0.654   0.253   0.040
    1UNL     C7    9  -0.775   0.331  -0.010
    1UNL     O3   10  -0.743   0.450  -0.078
    1UNL     C8   11  -0.568   0.312   0.156
    1UNL     O4   12  -0.506   0.430   0.110
    1UNL     C9   13  -0.445   0.221   0.192
    1UNL     O5   14  -0.342   0.247   0.108
    1UNL    C10   15  -0.496   0.077   0.200
    1UNL     O6   16  -0.574   0.060   0.318
    1UNL     O7   17  -0.413  -0.175  -0.080
    1UNL    C11   18  -0.304  -0.257  -0.108
    1UNL    C12   19  -0.177  -0.220  -0.140
    1UNL    C13   20  -0.071  -0.318  -0.139
    1UNL     O8   21   0.046  -0.291  -0.162
    1UNL     O9   22  -0.124  -0.447  -0.136
    1UNL    C14   23  -0.018  -0.536  -0.131
    1UNL    C15   24  -0.156  -0.075  -0.161
    1UNL    C16   25  -0.067  -0.046  -0.279
    1UNL    C17   26  -0.042   0.107  -0.291
    1UNL     N1   27   0.042   0.164  -0.174
    1UNL    C18   28  -0.011   0.278  -0.092
    1UNL    C19   29  -0.037   0.249   0.061
    1UNL    C20   30   0.023   0.116   0.097
    1UNL    C21   31   0.104   0.042   0.018
    1UNL     N2   32   0.093  -0.093   0.045
    1UNL    C22   33   0.005  -0.100   0.160
    1UNL    C23   34  -0.055  -0.207   0.219
    1UNL    C24   35  -0.143  -0.184   0.317
    1UNL    C25   36  -0.172  -0.055   0.360
    1UNL    C26   37  -0.114   0.053   0.304
    1UNL    C27   38  -0.030   0.029   0.193
    1UNL    C28   39   0.163   0.100  -0.106
    1UNL    C29   40   0.243   0.002  -0.188
    1UNL    C30   41   0.396   0.002  -0.152
    1UNL    C31   42   0.487  -0.041  -0.263
    1UNL    C32   43   0.455  -0.029  -0.406
    1UNL    O10   44   0.543  -0.051  -0.489
    1UNL    O11   45   0.333   0.006  -0.448
    1UNL    C33   46   0.314   0.003  -0.579
    1UNL    C34   47   0.613  -0.090  -0.229
    1UNL    O12   48   0.663  -0.114  -0.103
    1UNL    C35   49   0.577  -0.069   0.008
    1UNL    O13   50   0.606  -0.117   0.137
    1UNL    C36   51   0.515  -0.081   0.243
    1UNL    O14   52   0.379  -0.134   0.234
    1UNL    C37   53   0.307  -0.122   0.354
    1UNL    C38   54   0.316  -0.258   0.421
    1UNL    O15   55   0.214  -0.279   0.523
    1UNL    C39   56   0.356  -0.011   0.453
    1UNL    O16   57   0.263   0.012   0.553
    1UNL    C40   58   0.395   0.119   0.370
    1UNL    O17   59   0.274   0.177   0.331
    1UNL    C41   60   0.495   0.075   0.249
    1UNL    O18   61   0.447   0.136   0.126
    1UNL    C42   62   0.432  -0.092  -0.037
    1UNL    C43   63   0.407  -0.243  -0.052
    1UNL    C44   64   0.470  -0.341   0.007
    1UNL     H1   65  -0.417   0.155  -0.359
    1UNL     H2   66  -0.463   0.019  -0.477
    1UNL     H3   67  -0.357  -0.129  -0.325
    1UNL     H4   68  -0.274   0.124  -0.167
    1UNL     H5   69  -0.320  -0.039   0.033
    1UNL     H6   70  -0.606  -0.069   0.076
    1UNL     H7   71  -0.577   0.246  -0.037
    1UNL     H8   72  -0.845   0.336   0.074
    1UNL     H9   73  -0.816   0.257  -0.082
    1UNL    H10   74  -0.818   0.503  -0.111
    1UNL    H11   75  -0.638   0.324   0.246
    1UNL    H12   76  -0.557   0.484   0.049
    1UNL    H13   77  -0.415   0.248   0.288
    1UNL    H14   78  -0.388   0.273   0.024
    1UNL    H15   79  -0.405   0.016   0.206
    1UNL    H16   80  -0.669   0.074   0.281
    1UNL    H17   81  -0.326  -0.368  -0.096
    1UNL    H18   82   0.062  -0.503  -0.059
    1UNL    H19   83   0.036  -0.539  -0.225
    1UNL    H20   84  -0.053  -0.637  -0.113
    1UNL    H21   85  -0.109  -0.030  -0.069
    1UNL    H22   86   0.027  -0.090  -0.280
    1UNL    H23   87  -0.106  -0.087  -0.371
    1UNL    H24   88   0.014   0.115  -0.391
    1UNL    H25   89  -0.135   0.167  -0.312
    1UNL    H26   90   0.051   0.361  -0.113
    1UNL    H27   91  -0.110   0.305  -0.123
    1UNL    H28   92  -0.001   0.335   0.128
    1UNL    H29   93  -0.139   0.248   0.088
    1UNL    H30   94   0.085  -0.157  -0.031
    1UNL    H31   95  -0.022  -0.313   0.184
    1UNL    H32   96  -0.188  -0.271   0.365
    1UNL    H33   97  -0.233  -0.040   0.444
    1UNL    H34   98  -0.123   0.151   0.342
    1UNL    H35   99   0.224   0.188  -0.083
    1UNL    H36  100   0.218   0.027  -0.292
    1UNL    H37  101   0.203  -0.092  -0.189
    1UNL    H38  102   0.427   0.100  -0.117
    1UNL    H39  103   0.207   0.025  -0.597
    1UNL    H40  104   0.385   0.069  -0.625
    1UNL    H41  105   0.313  -0.096  -0.623
    1UNL    H42  106   0.673  -0.121  -0.321
    1UNL    H43  107   0.589   0.044   0.008
    1UNL    H44  108   0.548  -0.121   0.340
    1UNL    H45  109   0.207  -0.096   0.318
    1UNL    H46  110   0.302  -0.334   0.347
    1UNL    H47  111   0.416  -0.279   0.446
    1UNL    H48  112   0.212  -0.187   0.562
    1UNL    H49  113   0.446  -0.047   0.507
    1UNL    H50  114   0.178   0.042   0.509
    1UNL    H51  115   0.443   0.194   0.424
    1UNL    H52  116   0.237   0.130   0.254
    1UNL    H53  117   0.597   0.120   0.268
    1UNL    H54  118   0.411   0.228   0.150
    1UNL    H55  119   0.372  -0.064   0.046
    1UNL    H56  120   0.324  -0.265  -0.118
    1UNL    H57  121   0.453  -0.447  -0.013
    1UNL    H58  122   0.559  -0.327   0.059
   0.00000   0.00000   0.00000   0.00000   0.00000   0.00000   0.00000   0.00000   0.00000
Generated with MDTraj, t= 76.0
 122
    1UNL     C1    1  -0.407   0.076  -0.390
    1UNL     C2    2  -0.371  -0.017  -0.299
    1UNL     C3    3  -0.294   0.008  -0.172
    1UNL     C4    4  -0.373  -0.035  -0.051
    1UNL     O1    5  -0.484   0.052  -0.039
    1UNL     C5    6  -0.555   0.031   0.085
    1UNL     O2    7  -0.680   0.102   0.090
    1UNL     C6    8  -0.659   0.235   0.030
    1UNL     C7    9  -0.793   0.300  -0.019
    1UNL     O3   10  -0.775   0.429  -0.077
    1UNL     C8   11  -0.565   0.314   0.139
    1UNL     O4   12  -0.512   0.435   0.092
    1UNL     C9   13  -0.436   0.237   0.182
    1UNL     O5   14  -0.328   0.262   0.103
    1UNL    C10   15  -0.470   0.083   0.206
    1UNL     O6   16  -0.547   0.080   0.325
    1UNL     O7   17  -0.409  -0.170  -0.051
    1UNL    C11   18  -0.308  -0.249  -0.098
    1UNL    C12   19  -0.187  -0.219  -0.151
    1UNL    C13   20  -0.076  -0.315  -0.150
    1UNL     O8   21   0.039  -0.279  -0.176
    1UNL     O9   22  -0.114  -0.445  -0.137
    1UNL    C14   23  -0.005  -0.524  -0.179
    1UNL    C15   24  -0.163  -0.074  -0.167
    1UNL    C16   25  -0.070  -0.040  -0.286
    1UNL    C17   26  -0.016   0.106  -0.282
    1UNL     N1   27   0.051   0.155  -0.158
    1UNL    C18   28   0.001   0.277  -0.080
    1UNL    C19   29   0.021   0.263   0.074
    1UNL    C20   30   0.038   0.119   0.111
    1UNL    C21   31   0.122   0.036   0.032
    1UNL     N2   32   0.110  -0.095   0.086
    1UNL    C22   33   0.014  -0.098   0.188
    1UNL    C23   34  -0.050  -0.201   0.255
    1UNL    C24   35  -0.155  -0.171   0.344
    1UNL    C25   36  -0.186  -0.036   0.368
    1UNL    C26   37  -0.118   0.065   0.312
    1UNL    C27   38  -0.024   0.038   0.213
    1UNL    C28   39   0.165   0.083  -0.101
    1UNL    C29   40   0.240  -0.017  -0.187
    1UNL    C30   41   0.391  -0.013  -0.161
    1UNL    C31   42   0.484  -0.052  -0.272
    1UNL    C32   43   0.462  -0.042  -0.411
    1UNL    O10   44   0.554  -0.032  -0.495
    1UNL    O11   45   0.330  -0.030  -0.458
    1UNL    C33   46   0.318  -0.019  -0.596
    1UNL    C34   47   0.615  -0.079  -0.236
    1UNL    O12   48   0.665  -0.066  -0.110
    1UNL    C35   49   0.571  -0.050   0.001
    1UNL    O13   50   0.608  -0.093   0.125
    1UNL    C36   51   0.522  -0.072   0.242
    1UNL    O14   52   0.408  -0.162   0.242
    1UNL    C37   53   0.301  -0.145   0.338
    1UNL    C38   54   0.276  -0.282   0.417
    1UNL    O15   55   0.178  -0.264   0.518
    1UNL    C39   56   0.331  -0.026   0.443
    1UNL    O16   57   0.218  -0.003   0.523
    1UNL    C40   58   0.373   0.105   0.366
    1UNL    O17   59   0.262   0.170   0.319
    1UNL    C41   60   0.476   0.082   0.245
    1UNL    O18   61   0.419   0.132   0.127
    1UNL    C42   62   0.425  -0.097  -0.036
    1UNL    C43   63   0.413  -0.252  -0.061
    1UNL    C44   64   0.485  -0.344  -0.000
    1UNL     H1   65  -0.376   0.181  -0.393
    1UNL     H2   66  -0.466   0.052  -0.476
    1UNL     H3   67  -0.406  -0.125  -0.309
    1UNL     H4   68  -0.277   0.121  -0.169
    1UNL     H5   69  -0.316  -0.026   0.036
    1UNL     H6   70  -0.576  -0.082   0.092
    1UNL     H7   71  -0.595   0.223  -0.054
    1UNL     H8   72  -0.856   0.309   0.071
    1UNL     H9   73  -0.842   0.225  -0.084
    1UNL    H10   74  -0.862   0.477  -0.088
    1UNL    H11   75  -0.641   0.332   0.222
    1UNL    H12   76  -0.576   0.478   0.027
    1UNL    H13   77  -0.414   0.276   0.276
    1UNL    H14   78  -0.340   0.354   0.073
    1UNL    H15   79  -0.377   0.025   0.224
    1UNL    H16   80  -0.637   0.081   0.297
    1UNL    H17   81  -0.321  -0.352  -0.065
    1UNL    H18   82   0.081  -0.501  -0.110
    1UNL    H19   83   0.012  -0.513  -0.285
    1UNL    H20   84  -0.010  -0.628  -0.149
    1UNL    H21   85  -0.102  -0.032  -0.078
    1UNL    H22   86   0.010  -0.107  -0.276
    1UNL    H23   87  -0.106  -0.073  -0.382
    1UNL    H24   88   0.055   0.130  -0.370
    1UNL    H25   89  -0.104   0.166  -0.311
    1UNL    H26   90   0.060   0.364  -0.104
    1UNL    H27   91  -0.099   0.299  -0.107
    1UNL    H28   92   0.116   0.318   0.111
    1UNL    H29   93  -0.054   0.314   0.130
    1UNL    H30   94   0.120  -0.185   0.041
    1UNL    H31   95  -0.026  -0.301   0.241
    1UNL    H32   96  -0.201  -0.243   0.405
    1UNL    H33   97  -0.269  -0.014   0.437
    1UNL    H34   98  -0.131   0.170   0.347
    1UNL    H35   99   0.242   0.156  -0.072
    1UNL    H36  100   0.219   0.007  -0.290
    1UNL    H37  101   0.198  -0.113  -0.169
    1UNL    H38  102   0.416   0.088  -0.137
    1UNL    H39  103   0.217  -0.054  -0.628
    1UNL    H40  104   0.347   0.079  -0.630
    1UNL    H41  105   0.377  -0.096  -0.646
    1UNL    H42  106   0.676  -0.092  -0.321
    1UNL    H43  107   0.562   0.063   0.007
    1UNL    H44  108   0.575  -0.102   0.332
    1UNL    H45  109   0.207  -0.128   0.286
    1UNL    H46  110   0.247  -0.366   0.355
    1UNL    H47  111   0.365  -0.319   0.460
    1UNL    H48  112   0.198  -0.177   0.554
    1UNL    H49  113   0.405  -0.060   0.522
    1UNL    H50  114   0.172   0.078   0.489
    1UNL    H51  115   0.415   0.169   0.434
    1UNL    H52  116   0.218   0.118   0.257
    1UNL    H53  117   0.579   0.131   0.266
    1UNL    H54  118   0.422   0.228   0.128
    1UNL    H55  119   0.357  -0.074   0.040
    1UNL    H56  120   0.375  -0.280  -0.159
    1UNL    H57  121   0.477  -0.452  -0.017
    1UNL    H58  122   0.532  -0.324   0.093
   0.00000   0.00000   0.00000   0.00000   0.00000   0.00000   0.00000   0.00000   0.00000
Generated with MDTraj, t= 77.0
 122
    1UNL     C1    1  -0.383   0.090  -0.372
    1UNL     C2    2  -0.358  -0.010  -0.288
    1UNL     C3    3  -0.284   0.010  -0.160
    1UNL     C4    4  -0.356  -0.034  -0.033
    1UNL     O1    5  -0.482   0.042  -0.028
    1UNL     C5    6  -0.556   0.035   0.097
    1UNL     O2    7  -0.683   0.093   0.100
    1UNL     C6    8  -0.676   0.227   0.042
    1UNL     C7    9  -0.810   0.310   0.017
    1UNL     O3   10  -0.786   0.424  -0.066
    1UNL     C8   11  -0.577   0.317   0.134
    1UNL     O4   12  -0.539   0.438   0.069
    1UNL     C9   13  -0.442   0.256   0.173
    1UNL     O5   14  -0.350   0.281   0.069
    1UNL    C10   15  -0.464   0.100   0.207
    1UNL     O6   16  -0.519   0.073   0.332
    1UNL     O7   17  -0.376  -0.177  -0.018
    1UNL    C11   18  -0.271  -0.244  -0.067
    1UNL    C12   19  -0.159  -0.201  -0.131
    1UNL    C13   20  -0.053  -0.300  -0.153
    1UNL     O8   21   0.063  -0.262  -0.168
    1UNL     O9   22  -0.102  -0.423  -0.178
    1UNL    C14   23   0.004  -0.505  -0.189
    1UNL    C15   24  -0.144  -0.056  -0.161
    1UNL    C16   25  -0.060  -0.028  -0.288
    1UNL    C17   26  -0.004   0.109  -0.297
    1UNL     N1   27   0.054   0.162  -0.175
    1UNL    C18   28  -0.018   0.269  -0.093
    1UNL    C19   29  -0.003   0.251   0.061
    1UNL    C20   30   0.021   0.108   0.100
    1UNL    C21   31   0.094   0.018   0.028
    1UNL     N2   32   0.075  -0.111   0.071
    1UNL    C22   33  -0.006  -0.101   0.185
    1UNL    C23   34  -0.047  -0.194   0.284
    1UNL    C24   35  -0.129  -0.151   0.387
    1UNL    C25   36  -0.169  -0.018   0.393
    1UNL    C26   37  -0.128   0.074   0.305
    1UNL    C27   38  -0.043   0.032   0.197
    1UNL    C28   39   0.160   0.079  -0.103
    1UNL    C29   40   0.237  -0.014  -0.196
    1UNL    C30   41   0.386  -0.015  -0.159
    1UNL    C31   42   0.495  -0.044  -0.262
    1UNL    C32   43   0.472  -0.044  -0.407
    1UNL    O10   44   0.568  -0.047  -0.490
    1UNL    O11   45   0.338  -0.049  -0.443
    1UNL    C33   46   0.320  -0.052  -0.584
    1UNL    C34   47   0.615  -0.073  -0.228
    1UNL    O12   48   0.664  -0.080  -0.098
    1UNL    C35   49   0.569  -0.052   0.008
    1UNL    O13   50   0.605  -0.100   0.129
    1UNL    C36   51   0.508  -0.075   0.231
    1UNL    O14   52   0.394  -0.152   0.212
    1UNL    C37   53   0.298  -0.148   0.321
    1UNL    C38   54   0.280  -0.287   0.392
    1UNL    O15   55   0.164  -0.286   0.468
    1UNL    C39   56   0.315  -0.037   0.434
    1UNL    O16   57   0.204  -0.008   0.511
    1UNL    C40   58   0.369   0.096   0.369
    1UNL    O17   59   0.263   0.167   0.312
    1UNL    C41   60   0.464   0.075   0.240
    1UNL    O18   61   0.398   0.115   0.124
    1UNL    C42   62   0.424  -0.099  -0.036
    1UNL    C43   63   0.438  -0.254  -0.068
    1UNL    C44   64   0.490  -0.335   0.020
    1UNL     H1   65  -0.359   0.191  -0.355
    1UNL     H2   66  -0.438   0.073  -0.463
    1UNL     H3   67  -0.374  -0.105  -0.323
    1UNL     H4   68  -0.271   0.124  -0.156
    1UNL     H5   69  -0.304  -0.001   0.051
    1UNL     H6   70  -0.558  -0.076   0.126
    1UNL     H7   71  -0.622   0.231  -0.048
    1UNL     H8   72  -0.851   0.344   0.113
    1UNL     H9   73  -0.886   0.246  -0.034
    1UNL    H10   74  -0.864   0.484  -0.060
    1UNL    H11   75  -0.638   0.354   0.220
    1UNL    H12   76  -0.609   0.475   0.010
    1UNL    H13   77  -0.403   0.304   0.258
    1UNL    H14   78  -0.367   0.366   0.020
    1UNL    H15   79  -0.364   0.053   0.218
    1UNL    H16   80  -0.619   0.062   0.333
    1UNL    H17   81  -0.276  -0.345  -0.047
    1UNL    H18   82   0.043  -0.511  -0.082
    1UNL    H19   83   0.071  -0.477  -0.269
    1UNL    H20   84  -0.023  -0.609  -0.193
    1UNL    H21   85  -0.084  -0.007  -0.072
    1UNL    H22   86   0.020  -0.102  -0.292
    1UNL    H23   87  -0.116  -0.057  -0.372
    1UNL    H24   88   0.064   0.106  -0.393
    1UNL    H25   89  -0.086   0.174  -0.331
    1UNL    H26   90   0.037   0.360  -0.119
    1UNL    H27   91  -0.117   0.285  -0.119
    1UNL    H28   92   0.082   0.309   0.106
    1UNL    H29   93  -0.090   0.292   0.113
    1UNL    H30   94   0.132  -0.189   0.024
    1UNL    H31   95  -0.014  -0.294   0.283
    1UNL    H32   96  -0.169  -0.229   0.457
    1UNL    H33   97  -0.230   0.016   0.475
    1UNL    H34   98  -0.160   0.171   0.294
    1UNL    H35   99   0.230   0.157  -0.071
    1UNL    H36  100   0.215   0.019  -0.295
    1UNL    H37  101   0.200  -0.121  -0.183
    1UNL    H38  102   0.403   0.087  -0.134
    1UNL    H39  103   0.215  -0.058  -0.623
    1UNL    H40  104   0.373   0.030  -0.632
    1UNL    H41  105   0.367  -0.146  -0.615
    1UNL    H42  106   0.685  -0.095  -0.301
    1UNL    H43  107   0.570   0.060   0.023
    1UNL    H44  108   0.550  -0.111   0.322
    1UNL    H45  109   0.208  -0.126   0.263
    1UNL    H46  110   0.275  -0.369   0.318
    1UNL    H47  111   0.364  -0.313   0.454
    1UNL    H48  112   0.122  -0.196   0.479
    1UNL    H49  113   0.397  -0.069   0.507
    1UNL    H50  114   0.163   0.066   0.463
    1UNL    H51  115   0.409   0.157   0.441
    1UNL    H52  116   0.195   0.118   0.256
    1UNL    H53  117   0.565   0.130   0.252
    1UNL    H54  118   0.362   0.208   0.140
    1UNL    H55  119   0.357  -0.089   0.042
    1UNL    H56  120   0.395  -0.294  -0.158
    1UNL    H57  121   0.486  -0.439   0.016
    1UNL    H58  122   0.525  -0.297   0.118
   0.00000   0.00000   0.00000   0.00000   0.00000   0.00000   0.00000   0.00000   0.00000
Generated with MDTraj, t= 78.0
 122
    1UNL     C1    1  -0.396   0.071  -0.380
    1UNL     C2    2  -0.372  -0.015  -0.286
    1UNL     C3    3  -0.289   0.013  -0.168
    1UNL     C4    4  -0.347  -0.030  -0.029
    1UNL     O1    5  -0.456   0.058  -0.011
    1UNL     C5    6  -0.531   0.045   0.112
    1UNL     O2    7  -0.661   0.098   0.101
    1UNL     C6    8  -0.664   0.234   0.049
    1UNL     C7    9  -0.812   0.268   0.017
    1UNL     O3   10  -0.820   0.401  -0.029
    1UNL     C8   11  -0.575   0.324   0.143
    1UNL     O4   12  -0.562   0.451   0.086
    1UNL     C9   13  -0.437   0.264   0.167
    1UNL     O5   14  -0.354   0.278   0.049
    1UNL    C10   15  -0.459   0.120   0.223
    1UNL     O6   16  -0.539   0.114   0.335
    1UNL     O7   17  -0.372  -0.174  -0.014
    1UNL    C11   18  -0.268  -0.246  -0.059
    1UNL    C12   19  -0.156  -0.201  -0.122
    1UNL    C13   20  -0.046  -0.298  -0.141
    1UNL     O8   21   0.067  -0.253  -0.160
    1UNL     O9   22  -0.078  -0.432  -0.168
    1UNL    C14   23   0.037  -0.499  -0.214
    1UNL    C15   24  -0.144  -0.057  -0.168
    1UNL    C16   25  -0.060  -0.040  -0.296
    1UNL    C17   26   0.002   0.105  -0.308
    1UNL     N1   27   0.052   0.162  -0.181
    1UNL    C18   28   0.011   0.289  -0.109
    1UNL    C19   29  -0.050   0.259   0.028
    1UNL    C20   30   0.014   0.135   0.091
    1UNL    C21   31   0.100   0.046   0.022
    1UNL     N2   32   0.087  -0.083   0.065
    1UNL    C22   33  -0.006  -0.083   0.167
    1UNL    C23   34  -0.044  -0.187   0.250
    1UNL    C24   35  -0.111  -0.159   0.369
    1UNL    C25   36  -0.148  -0.023   0.398
    1UNL    C26   37  -0.118   0.079   0.309
    1UNL    C27   38  -0.038   0.054   0.197
    1UNL    C28   39   0.162   0.095  -0.104
    1UNL    C29   40   0.242  -0.003  -0.186
    1UNL    C30   41   0.398  -0.008  -0.154
    1UNL    C31   42   0.498  -0.040  -0.268
    1UNL    C32   43   0.466  -0.055  -0.410
    1UNL    O10   44   0.562  -0.089  -0.477
    1UNL    O11   45   0.340  -0.050  -0.447
    1UNL    C33   46   0.323  -0.076  -0.578
    1UNL    C34   47   0.623  -0.077  -0.227
    1UNL    O12   48   0.665  -0.097  -0.095
    1UNL    C35   49   0.575  -0.060   0.007
    1UNL    O13   50   0.612  -0.091   0.140
    1UNL    C36   51   0.507  -0.074   0.240
    1UNL    O14   52   0.384  -0.154   0.220
    1UNL    C37   53   0.286  -0.150   0.322
    1UNL    C38   54   0.260  -0.292   0.371
    1UNL    O15   55   0.159  -0.303   0.460
    1UNL    C39   56   0.307  -0.051   0.434
    1UNL    O16   57   0.200  -0.041   0.525
    1UNL    C40   58   0.341   0.087   0.366
    1UNL    O17   59   0.234   0.141   0.303
    1UNL    C41   60   0.458   0.074   0.258
    1UNL    O18   61   0.414   0.134   0.140
    1UNL    C42   62   0.431  -0.097  -0.037
    1UNL    C43   63   0.416  -0.244  -0.065
    1UNL    C44   64   0.476  -0.340   0.003
    1UNL     H1   65  -0.338   0.160  -0.383
    1UNL     H2   66  -0.472   0.060  -0.457
    1UNL     H3   67  -0.437  -0.106  -0.290
    1UNL     H4   68  -0.276   0.126  -0.168
    1UNL     H5   69  -0.279  -0.004   0.046
    1UNL     H6   70  -0.535  -0.069   0.126
    1UNL     H7   71  -0.610   0.228  -0.041
    1UNL     H8   72  -0.877   0.260   0.106
    1UNL     H9   73  -0.849   0.206  -0.066
    1UNL    H10   74  -0.908   0.416  -0.068
    1UNL    H11   75  -0.630   0.319   0.237
    1UNL    H12   76  -0.644   0.481   0.048
    1UNL    H13   77  -0.386   0.320   0.242
    1UNL    H14   78  -0.394   0.349  -0.005
    1UNL    H15   79  -0.359   0.068   0.233
    1UNL    H16   80  -0.632   0.077   0.311
    1UNL    H17   81  -0.278  -0.352  -0.024
    1UNL    H18   82   0.103  -0.522  -0.126
    1UNL    H19   83   0.093  -0.437  -0.281
    1UNL    H20   84   0.015  -0.585  -0.274
    1UNL    H21   85  -0.090  -0.023  -0.083
    1UNL    H22   86   0.021  -0.116  -0.298
    1UNL    H23   87  -0.118  -0.063  -0.377
    1UNL    H24   88   0.087   0.099  -0.387
    1UNL    H25   89  -0.078   0.162  -0.355
    1UNL    H26   90   0.096   0.358  -0.109
    1UNL    H27   91  -0.062   0.334  -0.166
    1UNL    H28   92  -0.030   0.344   0.096
    1UNL    H29   93  -0.166   0.249   0.037
    1UNL    H30   94   0.077  -0.157  -0.010
    1UNL    H31   95  -0.014  -0.297   0.233
    1UNL    H32   96  -0.133  -0.228   0.442
    1UNL    H33   97  -0.219  -0.001   0.476
    1UNL    H34   98  -0.162   0.180   0.319
    1UNL    H35   99   0.226   0.178  -0.072
    1UNL    H36  100   0.235   0.020  -0.291
    1UNL    H37  101   0.197  -0.109  -0.172
    1UNL    H38  102   0.421   0.093  -0.134
    1UNL    H39  103   0.222  -0.039  -0.608
    1UNL    H40  104   0.395  -0.020  -0.637
    1UNL    H41  105   0.333  -0.184  -0.591
    1UNL    H42  106   0.701  -0.103  -0.303
    1UNL    H43  107   0.579   0.054   0.015
    1UNL    H44  108   0.545  -0.106   0.333
    1UNL    H45  109   0.201  -0.113   0.264
    1UNL    H46  110   0.231  -0.352   0.280
    1UNL    H47  111   0.356  -0.332   0.408
    1UNL    H48  112   0.170  -0.232   0.527
    1UNL    H49  113   0.394  -0.077   0.503
    1UNL    H50  114   0.137   0.024   0.483
    1UNL    H51  115   0.363   0.152   0.442
    1UNL    H52  116   0.183   0.080   0.235
    1UNL    H53  117   0.542   0.138   0.299
    1UNL    H54  118   0.341   0.199   0.156
    1UNL    H55  119   0.368  -0.083   0.046
    1UNL    H56  120   0.325  -0.269  -0.118
    1UNL    H57  121   0.477  -0.443  -0.022
    1UNL    H58  122   0.558  -0.313   0.070
   0.00000   0.00000   0.00000   0.00000   0.00000   0.00000   0.00000   0.00000   0.00000
Generated with MDTraj, t= 79.0
 122
    1UNL     C1    1  -0.401   0.023  -0.379
    1UNL     C2    2  -0.351  -0.048  -0.280
    1UNL     C3    3  -0.275   0.008  -0.161
    1UNL     C4    4  -0.349  -0.025  -0.033
    1UNL     O1    5  -0.465   0.061  -0.016
    1UNL     C5    6  -0.532   0.043   0.106
    1UNL     O2    7  -0.668   0.092   0.115
    1UNL     C6    8  -0.675   0.230   0.061
    1UNL     C7    9  -0.823   0.258   0.033
    1UNL     O3   10  -0.848   0.390  -0.020
    1UNL     C8   11  -0.595   0.331   0.148
    1UNL     O4   12  -0.587   0.459   0.078
    1UNL     C9   13  -0.453   0.282   0.181
    1UNL     O5   14  -0.351   0.333   0.090
    1UNL    C10   15  -0.451   0.130   0.207
    1UNL     O6   16  -0.489   0.097   0.340
    1UNL     O7   17  -0.363  -0.170  -0.019
    1UNL    C11   18  -0.258  -0.241  -0.071
    1UNL    C12   19  -0.140  -0.203  -0.130
    1UNL    C13   20  -0.028  -0.299  -0.155
    1UNL     O8   21   0.087  -0.260  -0.175
    1UNL     O9   22  -0.069  -0.427  -0.172
    1UNL    C14   23   0.042  -0.513  -0.185
    1UNL    C15   24  -0.130  -0.051  -0.158
    1UNL    C16   25  -0.055  -0.019  -0.288
    1UNL    C17   26  -0.017   0.129  -0.313
    1UNL     N1   27   0.050   0.188  -0.203
    1UNL    C18   28  -0.022   0.300  -0.125
    1UNL    C19   29  -0.016   0.283   0.033
    1UNL    C20   30   0.026   0.148   0.071
    1UNL    C21   31   0.111   0.068  -0.000
    1UNL     N2   32   0.117  -0.061   0.055
    1UNL    C22   33   0.031  -0.060   0.164
    1UNL    C23   34  -0.015  -0.166   0.243
    1UNL    C24   35  -0.115  -0.144   0.338
    1UNL    C25   36  -0.171  -0.015   0.348
    1UNL    C26   37  -0.132   0.086   0.263
    1UNL    C27   38  -0.026   0.065   0.177
    1UNL    C28   39   0.165   0.117  -0.132
    1UNL    C29   40   0.248   0.015  -0.209
    1UNL    C30   41   0.396  -0.000  -0.159
    1UNL    C31   42   0.484  -0.062  -0.264
    1UNL    C32   43   0.460  -0.086  -0.403
    1UNL    O10   44   0.546  -0.142  -0.469
    1UNL    O11   45   0.340  -0.052  -0.456
    1UNL    C33   46   0.325  -0.075  -0.596
    1UNL    C34   47   0.609  -0.100  -0.215
    1UNL    O12   48   0.657  -0.078  -0.089
    1UNL    C35   49   0.564  -0.045   0.010
    1UNL    O13   50   0.593  -0.112   0.134
    1UNL    C36   51   0.499  -0.090   0.241
    1UNL    O14   52   0.377  -0.184   0.237
    1UNL    C37   53   0.284  -0.183   0.337
    1UNL    C38   54   0.282  -0.320   0.412
    1UNL    O15   55   0.158  -0.345   0.480
    1UNL    C39   56   0.302  -0.064   0.441
    1UNL    O16   57   0.176  -0.056   0.514
    1UNL    C40   58   0.340   0.077   0.378
    1UNL    O17   59   0.233   0.130   0.305
    1UNL    C41   60   0.467   0.059   0.278
    1UNL    O18   61   0.440   0.139   0.168
    1UNL    C42   62   0.416  -0.071  -0.032
    1UNL    C43   63   0.381  -0.215  -0.029
    1UNL    C44   64   0.472  -0.308  -0.013
    1UNL     H1   65  -0.406   0.131  -0.386
    1UNL     H2   66  -0.435  -0.026  -0.467
    1UNL     H3   67  -0.370  -0.154  -0.277
    1UNL     H4   68  -0.276   0.122  -0.170
    1UNL     H5   69  -0.285   0.001   0.045
    1UNL     H6   70  -0.539  -0.065   0.144
    1UNL     H7   71  -0.621   0.226  -0.031
    1UNL     H8   72  -0.877   0.253   0.128
    1UNL     H9   73  -0.859   0.186  -0.040
    1UNL    H10   74  -0.938   0.397  -0.060
    1UNL    H11   75  -0.649   0.335   0.239
    1UNL    H12   76  -0.675   0.475   0.033
    1UNL    H13   77  -0.442   0.335   0.279
    1UNL    H14   78  -0.400   0.402   0.039
    1UNL    H15   79  -0.347   0.087   0.204
    1UNL    H16   80  -0.582   0.077   0.344
    1UNL    H17   81  -0.266  -0.346  -0.033
    1UNL    H18   82   0.135  -0.454  -0.154
    1UNL    H19   83   0.053  -0.528  -0.291
    1UNL    H20   84   0.020  -0.618  -0.158
    1UNL    H21   85  -0.088  -0.012  -0.074
    1UNL    H22   86   0.038  -0.076  -0.278
    1UNL    H23   87  -0.103  -0.064  -0.368
    1UNL    H24   88   0.046   0.141  -0.410
    1UNL    H25   89  -0.110   0.186  -0.331
    1UNL    H26   90   0.024   0.396  -0.148
    1UNL    H27   91  -0.120   0.304  -0.159
    1UNL    H28   92   0.033   0.361   0.093
    1UNL    H29   93  -0.128   0.286   0.071
    1UNL    H30   94   0.122  -0.131  -0.016
    1UNL    H31   95   0.029  -0.257   0.234
    1UNL    H32   96  -0.151  -0.230   0.401
    1UNL    H33   97  -0.255   0.002   0.414
    1UNL    H34   98  -0.181   0.179   0.254
    1UNL    H35   99   0.227   0.200  -0.095
    1UNL    H36  100   0.246   0.050  -0.315
    1UNL    H37  101   0.210  -0.088  -0.204
    1UNL    H38  102   0.433   0.097  -0.146
    1UNL    H39  103   0.225  -0.050  -0.635
    1UNL    H40  104   0.388   0.001  -0.638
    1UNL    H41  105   0.361  -0.174  -0.623
    1UNL    H42  106   0.681  -0.138  -0.294
    1UNL    H43  107   0.570   0.067   0.032
    1UNL    H44  108   0.551  -0.125   0.326
    1UNL    H45  109   0.187  -0.176   0.289
    1UNL    H46  110   0.294  -0.402   0.335
    1UNL    H47  111   0.361  -0.327   0.490
    1UNL    H48  112   0.149  -0.265   0.537
    1UNL    H49  113   0.369  -0.104   0.522
    1UNL    H50  114   0.129   0.021   0.481
    1UNL    H51  115   0.366   0.145   0.449
    1UNL    H52  116   0.212   0.066   0.235
    1UNL    H53  117   0.558   0.111   0.312
    1UNL    H54  118   0.368   0.201   0.184
    1UNL    H55  119   0.356  -0.035   0.050
    1UNL    H56  120   0.279  -0.239  -0.055
    1UNL    H57  121   0.459  -0.414  -0.039
    1UNL    H58  122   0.572  -0.283   0.003
   0.00000   0.00000   0.00000   0.00000   0.00000   0.00000   0.00000   0.00000   0.00000
Generated with MDTraj, t= 80.0
 122
    1UNL     C1    1  -0.413   0.010  -0.391
    1UNL     C2    2  -0.368  -0.059  -0.287
    1UNL     C3    3  -0.287   0.009  -0.182
    1UNL     C4    4  -0.348  -0.016  -0.043
    1UNL     O1    5  -0.470   0.060  -0.027
    1UNL     C5    6  -0.522   0.040   0.098
    1UNL     O2    7  -0.665   0.075   0.107
    1UNL     C6    8  -0.680   0.208   0.055
    1UNL     C7    9  -0.827   0.241   0.036
    1UNL     O3   10  -0.834   0.376  -0.017
    1UNL     C8   11  -0.614   0.311   0.152
    1UNL     O4   12  -0.618   0.444   0.102
    1UNL     C9   13  -0.466   0.280   0.190
    1UNL     O5   14  -0.374   0.353   0.099
    1UNL    C10   15  -0.440   0.126   0.196
    1UNL     O6   16  -0.456   0.078   0.330
    1UNL     O7   17  -0.359  -0.152  -0.007
    1UNL    C11   18  -0.251  -0.221  -0.055
    1UNL    C12   19  -0.142  -0.188  -0.130
    1UNL    C13   20  -0.027  -0.282  -0.132
    1UNL     O8   21   0.085  -0.243  -0.165
    1UNL     O9   22  -0.059  -0.412  -0.120
    1UNL    C14   23   0.044  -0.496  -0.162
    1UNL    C15   24  -0.137  -0.041  -0.171
    1UNL    C16   25  -0.059  -0.026  -0.299
    1UNL    C17   26  -0.013   0.117  -0.323
    1UNL     N1   27   0.051   0.190  -0.207
    1UNL    C18   28  -0.029   0.298  -0.133
    1UNL    C19   29  -0.005   0.300   0.017
    1UNL    C20   30   0.038   0.174   0.075
    1UNL    C21   31   0.124   0.094  -0.000
    1UNL     N2   32   0.114  -0.038   0.045
    1UNL    C22   33   0.012  -0.042   0.141
    1UNL    C23   34  -0.066  -0.149   0.184
    1UNL    C24   35  -0.154  -0.129   0.287
    1UNL    C25   36  -0.168  -0.002   0.345
    1UNL    C26   37  -0.108   0.113   0.287
    1UNL    C27   38  -0.023   0.091   0.177
    1UNL    C28   39   0.175   0.136  -0.138
    1UNL    C29   40   0.265   0.042  -0.221
    1UNL    C30   41   0.407   0.014  -0.164
    1UNL    C31   42   0.490  -0.063  -0.258
    1UNL    C32   43   0.458  -0.093  -0.391
    1UNL    O10   44   0.529  -0.178  -0.443
    1UNL    O11   45   0.352  -0.034  -0.458
    1UNL    C33   46   0.327  -0.091  -0.591
    1UNL    C34   47   0.606  -0.108  -0.206
    1UNL    O12   48   0.654  -0.090  -0.076
    1UNL    C35   49   0.558  -0.064   0.026
    1UNL    O13   50   0.586  -0.136   0.143
    1UNL    C36   51   0.494  -0.107   0.245
    1UNL    O14   52   0.358  -0.165   0.220
    1UNL    C37   53   0.284  -0.187   0.336
    1UNL    C38   54   0.309  -0.330   0.404
    1UNL    O15   55   0.225  -0.354   0.518
    1UNL    C39   56   0.301  -0.078   0.445
    1UNL    O16   57   0.180  -0.066   0.522
    1UNL    C40   58   0.338   0.055   0.385
    1UNL    O17   59   0.235   0.108   0.307
    1UNL    C41   60   0.477   0.044   0.293
    1UNL    O18   61   0.454   0.137   0.185
    1UNL    C42   62   0.413  -0.070  -0.030
    1UNL    C43   63   0.375  -0.219  -0.068
    1UNL    C44   64   0.452  -0.324  -0.048
    1UNL     H1   65  -0.427   0.118  -0.396
    1UNL     H2   66  -0.463  -0.038  -0.471
    1UNL     H3   67  -0.372  -0.165  -0.279
    1UNL     H4   68  -0.287   0.122  -0.205
    1UNL     H5   69  -0.273   0.015   0.023
    1UNL     H6   70  -0.529  -0.071   0.123
    1UNL     H7   71  -0.634   0.226  -0.043
    1UNL     H8   72  -0.872   0.248   0.135
    1UNL     H9   73  -0.875   0.165  -0.023
    1UNL    H10   74  -0.926   0.399  -0.050
    1UNL    H11   75  -0.663   0.311   0.244
    1UNL    H12   76  -0.705   0.458   0.060
    1UNL    H13   77  -0.435   0.326   0.292
    1UNL    H14   78  -0.409   0.434   0.058
    1UNL    H15   79  -0.334   0.114   0.166
    1UNL    H16   80  -0.545   0.046   0.329
    1UNL    H17   81  -0.252  -0.318  -0.026
    1UNL    H18   82   0.145  -0.457  -0.127
    1UNL    H19   83   0.050  -0.485  -0.268
    1UNL    H20   84   0.015  -0.603  -0.152
    1UNL    H21   85  -0.094   0.023  -0.095
    1UNL    H22   86   0.022  -0.097  -0.298
    1UNL    H23   87  -0.125  -0.059  -0.375
    1UNL    H24   88   0.070   0.118  -0.402
    1UNL    H25   89  -0.089   0.187  -0.370
    1UNL    H26   90  -0.000   0.392  -0.180
    1UNL    H27   91  -0.133   0.287  -0.148
    1UNL    H28   92   0.075   0.371   0.045
    1UNL    H29   93  -0.102   0.334   0.075
    1UNL    H30   94   0.124  -0.116  -0.014
    1UNL    H31   95  -0.039  -0.247   0.146
    1UNL    H32   96  -0.202  -0.212   0.330
    1UNL    H33   97  -0.229   0.024   0.427
    1UNL    H34   98  -0.127   0.216   0.313
    1UNL    H35   99   0.228   0.227  -0.106
    1UNL    H36  100   0.268   0.105  -0.318
    1UNL    H37  101   0.219  -0.047  -0.245
    1UNL    H38  102   0.452   0.107  -0.152
    1UNL    H39  103   0.249  -0.034  -0.644
    1UNL    H40  104   0.417  -0.064  -0.643
    1UNL    H41  105   0.315  -0.198  -0.594
    1UNL    H42  106   0.667  -0.156  -0.272
    1UNL    H43  107   0.569   0.049   0.048
    1UNL    H44  108   0.534  -0.159   0.331
    1UNL    H45  109   0.180  -0.184   0.302
    1UNL    H46  110   0.293  -0.421   0.336
    1UNL    H47  111   0.414  -0.325   0.445
    1UNL    H48  112   0.174  -0.271   0.525
    1UNL    H49  113   0.376  -0.122   0.513
    1UNL    H50  114   0.118  -0.008   0.470
    1UNL    H51  115   0.355   0.124   0.459
    1UNL    H52  116   0.217   0.050   0.235
    1UNL    H53  117   0.556   0.091   0.346
    1UNL    H54  118   0.381   0.199   0.217
    1UNL    H55  119   0.337  -0.032   0.038
    1UNL    H56  120   0.291  -0.230  -0.134
    1UNL    H57  121   0.423  -0.427  -0.064
    1UNL    H58  122   0.546  -0.312   0.001
   0.00000   0.00000   0.00000   0.00000   0.00000   0.00000   0.00000   0.00000   0.00000
Generated with MDTraj, t= 81.0
 122
    1UNL     C1    1  -0.422  -0.002  -0.396
    1UNL     C2    2  -0.357  -0.060  -0.301
    1UNL     C3    3  -0.283   0.015  -0.204
    1UNL     C4    4  -0.342  -0.002  -0.057
    1UNL     O1    5  -0.453   0.087  -0.030
    1UNL     C5    6  -0.507   0.051   0.093
    1UNL     O2    7  -0.653   0.077   0.085
    1UNL     C6    8  -0.679   0.212   0.053
    1UNL     C7    9  -0.831   0.227   0.034
    1UNL     O3   10  -0.858   0.351  -0.025
    1UNL     C8   11  -0.620   0.305   0.168
    1UNL     O4   12  -0.644   0.442   0.157
    1UNL     C9   13  -0.471   0.278   0.193
    1UNL     O5   14  -0.401   0.325   0.077
    1UNL    C10   15  -0.446   0.128   0.215
    1UNL     O6   16  -0.493   0.065   0.340
    1UNL     O7   17  -0.352  -0.137  -0.015
    1UNL    C11   18  -0.245  -0.216  -0.059
    1UNL    C12   19  -0.134  -0.179  -0.129
    1UNL    C13   20  -0.023  -0.268  -0.141
    1UNL     O8   21   0.082  -0.241  -0.196
    1UNL     O9   22  -0.051  -0.395  -0.094
    1UNL    C14   23   0.062  -0.478  -0.097
    1UNL    C15   24  -0.136  -0.036  -0.183
    1UNL    C16   25  -0.059  -0.012  -0.309
    1UNL    C17   26  -0.002   0.127  -0.326
    1UNL     N1   27   0.067   0.192  -0.209
    1UNL    C18   28  -0.014   0.302  -0.138
    1UNL    C19   29   0.013   0.309   0.012
    1UNL    C20   30   0.046   0.181   0.069
    1UNL    C21   31   0.128   0.089  -0.002
    1UNL     N2   32   0.119  -0.038   0.055
    1UNL    C22   33   0.017  -0.032   0.147
    1UNL    C23   34  -0.047  -0.134   0.216
    1UNL    C24   35  -0.140  -0.104   0.311
    1UNL    C25   36  -0.175   0.030   0.343
    1UNL    C26   37  -0.122   0.132   0.265
    1UNL    C27   38  -0.033   0.101   0.164
    1UNL    C28   39   0.177   0.128  -0.139
    1UNL    C29   40   0.255   0.026  -0.219
    1UNL    C30   41   0.398   0.012  -0.163
    1UNL    C31   42   0.503  -0.049  -0.257
    1UNL    C32   43   0.467  -0.088  -0.398
    1UNL    O10   44   0.527  -0.184  -0.448
    1UNL    O11   45   0.366  -0.025  -0.467
    1UNL    C33   46   0.313  -0.097  -0.573
    1UNL    C34   47   0.615  -0.097  -0.208
    1UNL    O12   48   0.661  -0.099  -0.075
    1UNL    C35   49   0.552  -0.081   0.028
    1UNL    O13   50   0.560  -0.163   0.140
    1UNL    C36   51   0.468  -0.121   0.242
    1UNL    O14   52   0.327  -0.158   0.215
    1UNL    C37   53   0.256  -0.188   0.335
    1UNL    C38   54   0.295  -0.335   0.377
    1UNL    O15   55   0.300  -0.351   0.515
    1UNL    C39   56   0.297  -0.091   0.450
    1UNL    O16   57   0.186  -0.059   0.536
    1UNL    C40   58   0.340   0.039   0.386
    1UNL    O17   59   0.237   0.100   0.310
    1UNL    C41   60   0.469   0.028   0.287
    1UNL    O18   61   0.456   0.114   0.177
    1UNL    C42   62   0.409  -0.083  -0.034
    1UNL    C43   63   0.370  -0.229  -0.068
    1UNL    C44   64   0.449  -0.331  -0.044
    1UNL     H1   65  -0.446   0.102  -0.388
    1UNL     H2   66  -0.471  -0.062  -0.473
    1UNL     H3   67  -0.345  -0.172  -0.299
    1UNL     H4   68  -0.276   0.128  -0.232
    1UNL     H5   69  -0.265   0.030   0.005
    1UNL     H6   70  -0.506  -0.060   0.113
    1UNL     H7   71  -0.640   0.238  -0.049
    1UNL     H8   72  -0.875   0.220   0.134
    1UNL     H9   73  -0.875   0.147  -0.024
    1UNL    H10   74  -0.951   0.354  -0.059
    1UNL    H11   75  -0.670   0.268   0.252
    1UNL    H12   76  -0.723   0.440   0.100
    1UNL    H13   77  -0.444   0.343   0.286
    1UNL    H14   78  -0.434   0.414   0.047
    1UNL    H15   79  -0.338   0.107   0.206
    1UNL    H16   80  -0.587   0.041   0.328
    1UNL    H17   81  -0.240  -0.317  -0.017
    1UNL    H18   82   0.131  -0.446  -0.014
    1UNL    H19   83   0.118  -0.453  -0.184
    1UNL    H20   84   0.038  -0.586  -0.089
    1UNL    H21   85  -0.096   0.035  -0.103
    1UNL    H22   86   0.024  -0.081  -0.301
    1UNL    H23   87  -0.117  -0.038  -0.398
    1UNL    H24   88   0.076   0.131  -0.408
    1UNL    H25   89  -0.079   0.204  -0.365
    1UNL    H26   90   0.014   0.400  -0.174
    1UNL    H27   91  -0.116   0.282  -0.161
    1UNL    H28   92   0.108   0.368   0.022
    1UNL    H29   93  -0.069   0.365   0.071
    1UNL    H30   94   0.138  -0.118  -0.006
    1UNL    H31   95  -0.017  -0.240   0.189
    1UNL    H32   96  -0.175  -0.185   0.374
    1UNL    H33   97  -0.248   0.049   0.424
    1UNL    H34   98  -0.139   0.238   0.292
    1UNL    H35   99   0.232   0.222  -0.117
    1UNL    H36  100   0.263   0.074  -0.321
    1UNL    H37  101   0.190  -0.059  -0.233
    1UNL    H38  102   0.428   0.109  -0.139
    1UNL    H39  103   0.258  -0.014  -0.623
    1UNL    H40  104   0.397  -0.121  -0.638
    1UNL    H41  105   0.249  -0.183  -0.547
    1UNL    H42  106   0.686  -0.148  -0.275
    1UNL    H43  107   0.571   0.022   0.072
    1UNL    H44  108   0.498  -0.179   0.330
    1UNL    H45  109   0.153  -0.166   0.307
    1UNL    H46  110   0.215  -0.401   0.333
    1UNL    H47  111   0.399  -0.354   0.340
    1UNL    H48  112   0.206  -0.347   0.544
    1UNL    H49  113   0.371  -0.136   0.514
    1UNL    H50  114   0.114  -0.013   0.484
    1UNL    H51  115   0.359   0.103   0.466
    1UNL    H52  116   0.216   0.044   0.225
    1UNL    H53  117   0.562   0.051   0.329
    1UNL    H54  118   0.446   0.204   0.211
    1UNL    H55  119   0.338  -0.054   0.048
    1UNL    H56  120   0.267  -0.251  -0.088
    1UNL    H57  121   0.421  -0.430  -0.056
    1UNL    H58  122   0.550  -0.318   0.000
   0.00000   0.00000   0.00000   0.00000   0.00000   0.00000   0.00000   0.00000   0.00000
Generated with MDTraj, t= 82.0
 122
    1UNL     C1    1  -0.425   0.026  -0.382
    1UNL     C2    2  -0.353  -0.043  -0.299
    1UNL     C3    3  -0.274   0.025  -0.195
    1UNL     C4    4  -0.341   0.003  -0.057
    1UNL     O1    5  -0.463   0.073  -0.048
    1UNL     C5    6  -0.529   0.042   0.074
    1UNL     O2    7  -0.669   0.070   0.072
    1UNL     C6    8  -0.693   0.213   0.050
    1UNL     C7    9  -0.842   0.229   0.027
    1UNL     O3   10  -0.879   0.357  -0.000
    1UNL     C8   11  -0.649   0.304   0.168
    1UNL     O4   12  -0.660   0.442   0.142
    1UNL     C9   13  -0.499   0.266   0.198
    1UNL     O5   14  -0.425   0.344   0.099
    1UNL    C10   15  -0.470   0.115   0.196
    1UNL     O6   16  -0.513   0.052   0.315
    1UNL     O7   17  -0.342  -0.129  -0.019
    1UNL    C11   18  -0.237  -0.204  -0.065
    1UNL    C12   19  -0.123  -0.172  -0.130
    1UNL    C13   20  -0.003  -0.262  -0.133
    1UNL     O8   21   0.106  -0.236  -0.184
    1UNL     O9   22  -0.026  -0.384  -0.074
    1UNL    C14   23   0.089  -0.454  -0.048
    1UNL    C15   24  -0.125  -0.029  -0.182
    1UNL    C16   25  -0.052  -0.005  -0.314
    1UNL    C17   26   0.008   0.133  -0.334
    1UNL     N1   27   0.074   0.200  -0.217
    1UNL    C18   28   0.006   0.318  -0.148
    1UNL    C19   29  -0.007   0.307   0.008
    1UNL    C20   30   0.033   0.172   0.055
    1UNL    C21   31   0.113   0.085  -0.011
    1UNL     N2   32   0.101  -0.045   0.047
    1UNL    C22   33   0.016  -0.033   0.153
    1UNL    C23   34  -0.054  -0.128   0.239
    1UNL    C24   35  -0.122  -0.082   0.345
    1UNL    C25   36  -0.145   0.056   0.359
    1UNL    C26   37  -0.096   0.147   0.269
    1UNL    C27   38  -0.025   0.100   0.161
    1UNL    C28   39   0.179   0.127  -0.144
    1UNL    C29   40   0.257   0.020  -0.219
    1UNL    C30   41   0.403  -0.003  -0.170
    1UNL    C31   42   0.497  -0.068  -0.265
    1UNL    C32   43   0.461  -0.102  -0.408
    1UNL    O10   44   0.545  -0.170  -0.471
    1UNL    O11   45   0.338  -0.056  -0.459
    1UNL    C33   46   0.329  -0.066  -0.599
    1UNL    C34   47   0.616  -0.122  -0.222
    1UNL    O12   48   0.645  -0.125  -0.087
    1UNL    C35   49   0.547  -0.084   0.016
    1UNL    O13   50   0.571  -0.151   0.138
    1UNL    C36   51   0.478  -0.126   0.243
    1UNL    O14   52   0.350  -0.188   0.218
    1UNL    C37   53   0.269  -0.200   0.338
    1UNL    C38   54   0.272  -0.346   0.390
    1UNL    O15   55   0.309  -0.357   0.522
    1UNL    C39   56   0.300  -0.095   0.453
    1UNL    O16   57   0.185  -0.081   0.535
    1UNL    C40   58   0.351   0.036   0.388
    1UNL    O17   59   0.252   0.119   0.339
    1UNL    C41   60   0.464   0.028   0.278
    1UNL    O18   61   0.452   0.114   0.176
    1UNL    C42   62   0.405  -0.096  -0.043
    1UNL    C43   63   0.373  -0.239  -0.068
    1UNL    C44   64   0.451  -0.340  -0.048
    1UNL     H1   65  -0.418   0.131  -0.390
    1UNL     H2   66  -0.485  -0.024  -0.456
    1UNL     H3   67  -0.370  -0.144  -0.288
    1UNL     H4   68  -0.267   0.140  -0.220
    1UNL     H5   69  -0.279   0.043   0.018
    1UNL     H6   70  -0.520  -0.069   0.092
    1UNL     H7   71  -0.634   0.238  -0.044
    1UNL     H8   72  -0.902   0.187   0.110
    1UNL     H9   73  -0.865   0.161  -0.055
    1UNL    H10   74  -0.969   0.355  -0.035
    1UNL    H11   75  -0.693   0.274   0.260
    1UNL    H12   76  -0.749   0.457   0.096
    1UNL    H13   77  -0.484   0.310   0.305
    1UNL    H14   78  -0.468   0.430   0.093
    1UNL    H15   79  -0.360   0.103   0.189
    1UNL    H16   80  -0.615   0.037   0.315
    1UNL    H17   81  -0.246  -0.312  -0.028
    1UNL    H18   82   0.157  -0.384   0.006
    1UNL    H19   83   0.144  -0.476  -0.136
    1UNL    H20   84   0.068  -0.533   0.026
    1UNL    H21   85  -0.077   0.031  -0.093
    1UNL    H22   86   0.034  -0.073  -0.324
    1UNL    H23   87  -0.125  -0.028  -0.394
    1UNL    H24   88   0.084   0.131  -0.417
    1UNL    H25   89  -0.066   0.217  -0.371
    1UNL    H26   90   0.081   0.391  -0.174
    1UNL    H27   91  -0.086   0.353  -0.192
    1UNL    H28   92   0.038   0.393   0.071
    1UNL    H29   93  -0.117   0.310   0.029
    1UNL    H30   94   0.119  -0.139   0.001
    1UNL    H31   95  -0.042  -0.226   0.219
    1UNL    H32   96  -0.178  -0.149   0.414
    1UNL    H33   97  -0.204   0.092   0.438
    1UNL    H34   98  -0.113   0.250   0.275
    1UNL    H35   99   0.238   0.216  -0.111
    1UNL    H36  100   0.257   0.048  -0.324
    1UNL    H37  101   0.203  -0.084  -0.228
    1UNL    H38  102   0.448   0.088  -0.148
    1UNL    H39  103   0.236  -0.015  -0.633
    1UNL    H40  104   0.414  -0.008  -0.639
    1UNL    H41  105   0.336  -0.173  -0.629
    1UNL    H42  106   0.694  -0.162  -0.294
    1UNL    H43  107   0.569   0.023   0.046
    1UNL    H44  108   0.520  -0.179   0.332
    1UNL    H45  109   0.168  -0.183   0.299
    1UNL    H46  110   0.177  -0.398   0.377
    1UNL    H47  111   0.358  -0.394   0.341
    1UNL    H48  112   0.239  -0.330   0.590
    1UNL    H49  113   0.374  -0.135   0.517
    1UNL    H50  114   0.114  -0.045   0.480
    1UNL    H51  115   0.387   0.096   0.469
    1UNL    H52  116   0.207   0.086   0.263
    1UNL    H53  117   0.558   0.046   0.317
    1UNL    H54  118   0.451   0.205   0.212
    1UNL    H55  119   0.331  -0.072   0.040
    1UNL    H56  120   0.285  -0.251  -0.131
    1UNL    H57  121   0.425  -0.440  -0.076
    1UNL    H58  122   0.544  -0.331   0.007
   0.00000   0.00000   0.00000   0.00000   0.00000   0.00000   0.00000   0.00000   0.00000
Generated with MDTraj, t= 83.0
 122
    1UNL     C1    1  -0.429   0.065  -0.367
    1UNL     C2    2  -0.356  -0.019  -0.296
    1UNL     C3    3  -0.273   0.041  -0.184
    1UNL     C4    4  -0.347   0.022  -0.052
    1UNL     O1    5  -0.471   0.086  -0.059
    1UNL     C5    6  -0.545   0.040   0.054
    1UNL     O2    7  -0.683   0.069   0.047
    1UNL     C6    8  -0.695   0.208   0.032
    1UNL     C7    9  -0.845   0.223   0.007
    1UNL     O3   10  -0.888   0.356   0.011
    1UNL     C8   11  -0.660   0.287   0.160
    1UNL     O4   12  -0.669   0.426   0.139
    1UNL     C9   13  -0.517   0.248   0.197
    1UNL     O5   14  -0.426   0.331   0.119
    1UNL    C10   15  -0.487   0.098   0.187
    1UNL     O6   16  -0.531   0.036   0.304
    1UNL     O7   17  -0.360  -0.120  -0.020
    1UNL    C11   18  -0.254  -0.195  -0.055
    1UNL    C12   19  -0.136  -0.163  -0.113
    1UNL    C13   20  -0.016  -0.253  -0.100
    1UNL     O8   21   0.077  -0.227  -0.177
    1UNL     O9   22  -0.020  -0.363  -0.015
    1UNL    C14   23   0.089  -0.446  -0.043
    1UNL    C15   24  -0.127  -0.024  -0.168
    1UNL    C16   25  -0.051  -0.019  -0.297
    1UNL    C17   26   0.011   0.115  -0.332
    1UNL     N1   27   0.081   0.188  -0.215
    1UNL    C18   28   0.039   0.320  -0.154
    1UNL    C19   29  -0.015   0.307  -0.011
    1UNL    C20   30   0.039   0.187   0.058
    1UNL    C21   31   0.125   0.092   0.000
    1UNL     N2   32   0.109  -0.029   0.059
    1UNL    C22   33   0.026  -0.013   0.167
    1UNL    C23   34  -0.030  -0.111   0.253
    1UNL    C24   35  -0.116  -0.075   0.350
    1UNL    C25   36  -0.161   0.058   0.361
    1UNL    C26   37  -0.111   0.154   0.274
    1UNL    C27   38  -0.020   0.122   0.170
    1UNL    C28   39   0.180   0.123  -0.137
    1UNL    C29   40   0.246   0.003  -0.204
    1UNL    C30   41   0.397  -0.028  -0.170
    1UNL    C31   42   0.489  -0.084  -0.272
    1UNL    C32   43   0.477  -0.091  -0.415
    1UNL    O10   44   0.569  -0.121  -0.491
    1UNL    O11   45   0.353  -0.059  -0.462
    1UNL    C33   46   0.337  -0.066  -0.606
    1UNL    C34   47   0.612  -0.128  -0.215
    1UNL    O12   48   0.656  -0.137  -0.089
    1UNL    C35   49   0.562  -0.092   0.007
    1UNL    O13   50   0.584  -0.152   0.128
    1UNL    C36   51   0.486  -0.130   0.226
    1UNL    O14   52   0.361  -0.194   0.216
    1UNL    C37   53   0.288  -0.209   0.336
    1UNL    C38   54   0.302  -0.347   0.385
    1UNL    O15   55   0.265  -0.358   0.522
    1UNL    C39   56   0.323  -0.095   0.447
    1UNL    O16   57   0.212  -0.077   0.532
    1UNL    C40   58   0.365   0.039   0.374
    1UNL    O17   59   0.241   0.082   0.315
    1UNL    C41   60   0.476   0.023   0.257
    1UNL    O18   61   0.442   0.100   0.147
    1UNL    C42   62   0.412  -0.107  -0.039
    1UNL    C43   63   0.376  -0.255  -0.061
    1UNL    C44   64   0.451  -0.353  -0.020
    1UNL     H1   65  -0.441   0.173  -0.349
    1UNL     H2   66  -0.478   0.033  -0.455
    1UNL     H3   67  -0.332  -0.125  -0.329
    1UNL     H4   68  -0.265   0.155  -0.209
    1UNL     H5   69  -0.300   0.065   0.032
    1UNL     H6   70  -0.543  -0.071   0.047
    1UNL     H7   71  -0.632   0.245  -0.055
    1UNL     H8   72  -0.903   0.166   0.086
    1UNL     H9   73  -0.885   0.177  -0.085
    1UNL    H10   74  -0.983   0.364  -0.013
    1UNL    H11   75  -0.729   0.262   0.242
    1UNL    H12   76  -0.754   0.436   0.097
    1UNL    H13   77  -0.490   0.283   0.302
    1UNL    H14   78  -0.451   0.428   0.110
    1UNL    H15   79  -0.375   0.096   0.187
    1UNL    H16   80  -0.631   0.022   0.304
    1UNL    H17   81  -0.272  -0.294  -0.027
    1UNL    H18   82   0.170  -0.412   0.026
    1UNL    H19   83   0.127  -0.420  -0.137
    1UNL    H20   84   0.079  -0.551  -0.011
    1UNL    H21   85  -0.069   0.027  -0.083
    1UNL    H22   86   0.024  -0.096  -0.297
    1UNL    H23   87  -0.120  -0.052  -0.379
    1UNL    H24   88   0.087   0.114  -0.415
    1UNL    H25   89  -0.073   0.191  -0.367
    1UNL    H26   90   0.120   0.391  -0.155
    1UNL    H27   91  -0.028   0.362  -0.230
    1UNL    H28   92   0.017   0.399   0.054
    1UNL    H29   93  -0.126   0.310   0.001
    1UNL    H30   94   0.107  -0.118  -0.001
    1UNL    H31   95  -0.015  -0.220   0.222
    1UNL    H32   96  -0.160  -0.143   0.414
    1UNL    H33   97  -0.256   0.079   0.416
    1UNL    H34   98  -0.164   0.251   0.285
    1UNL    H35   99   0.251   0.204  -0.110
    1UNL    H36  100   0.231   0.011  -0.311
    1UNL    H37  101   0.195  -0.084  -0.179
    1UNL    H38  102   0.440   0.066  -0.153
    1UNL    H39  103   0.231  -0.066  -0.640
    1UNL    H40  104   0.381   0.020  -0.656
    1UNL    H41  105   0.394  -0.155  -0.631
    1UNL    H42  106   0.681  -0.181  -0.281
    1UNL    H43  107   0.587   0.018   0.017
    1UNL    H44  108   0.535  -0.179   0.316
    1UNL    H45  109   0.184  -0.204   0.301
    1UNL    H46  110   0.236  -0.411   0.331
    1UNL    H47  111   0.407  -0.374   0.376
    1UNL    H48  112   0.240  -0.269   0.553
    1UNL    H49  113   0.401  -0.120   0.510
    1UNL    H50  114   0.142  -0.036   0.478
    1UNL    H51  115   0.389   0.120   0.442
    1UNL    H52  116   0.216   0.044   0.225
    1UNL    H53  117   0.571   0.054   0.285
    1UNL    H54  118   0.418   0.192   0.182
    1UNL    H55  119   0.336  -0.063   0.036
    1UNL    H56  120   0.282  -0.269  -0.108
    1UNL    H57  121   0.416  -0.458  -0.029
    1UNL    H58  122   0.548  -0.342   0.017
   0.00000   0.00000   0.00000   0.00000   0.00000   0.00000   0.00000   0.00000   0.00000
Generated with MDTraj, t= 84.0
 122
    1UNL     C1    1  -0.441   0.075  -0.343
    1UNL     C2    2  -0.335   0.008  -0.306
    1UNL     C3    3  -0.267   0.044  -0.183
    1UNL     C4    4  -0.348   0.021  -0.052
    1UNL     O1    5  -0.472   0.084  -0.044
    1UNL     C5    6  -0.561   0.039   0.059
    1UNL     O2    7  -0.692   0.075   0.026
    1UNL     C6    8  -0.717   0.217   0.036
    1UNL     C7    9  -0.867   0.237   0.019
    1UNL     O3   10  -0.892   0.372  -0.023
    1UNL     C8   11  -0.671   0.284   0.168
    1UNL     O4   12  -0.676   0.425   0.153
    1UNL     C9   13  -0.530   0.236   0.215
    1UNL     O5   14  -0.430   0.292   0.131
    1UNL    C10   15  -0.518   0.086   0.208
    1UNL     O6   16  -0.593   0.020   0.310
    1UNL     O7   17  -0.369  -0.123  -0.021
    1UNL    C11   18  -0.262  -0.197  -0.054
    1UNL    C12   19  -0.135  -0.160  -0.104
    1UNL    C13   20  -0.023  -0.256  -0.087
    1UNL     O8   21   0.088  -0.246  -0.142
    1UNL     O9   22  -0.066  -0.363  -0.011
    1UNL    C14   23   0.032  -0.450   0.020
    1UNL    C15   24  -0.125  -0.024  -0.171
    1UNL    C16   25  -0.036  -0.022  -0.296
    1UNL    C17   26   0.018   0.112  -0.334
    1UNL     N1   27   0.090   0.186  -0.221
    1UNL    C18   28   0.026   0.312  -0.165
    1UNL    C19   29   0.025   0.309  -0.005
    1UNL    C20   30   0.040   0.169   0.050
    1UNL    C21   31   0.125   0.077  -0.002
    1UNL     N2   32   0.119  -0.042   0.067
    1UNL    C22   33   0.021  -0.024   0.165
    1UNL    C23   34  -0.033  -0.107   0.269
    1UNL    C24   35  -0.141  -0.058   0.341
    1UNL    C25   36  -0.192   0.066   0.322
    1UNL    C26   37  -0.137   0.150   0.229
    1UNL    C27   38  -0.035   0.102   0.148
    1UNL    C28   39   0.194   0.118  -0.132
    1UNL    C29   40   0.276   0.007  -0.208
    1UNL    C30   41   0.426  -0.014  -0.165
    1UNL    C31   42   0.513  -0.072  -0.282
    1UNL    C32   43   0.480  -0.064  -0.426
    1UNL    O10   44   0.576  -0.079  -0.499
    1UNL    O11   45   0.355  -0.044  -0.464
    1UNL    C33   46   0.340  -0.068  -0.596
    1UNL    C34   47   0.624  -0.128  -0.237
    1UNL    O12   48   0.665  -0.149  -0.106
    1UNL    C35   49   0.581  -0.111   0.000
    1UNL    O13   50   0.608  -0.165   0.129
    1UNL    C36   51   0.515  -0.134   0.232
    1UNL    O14   52   0.387  -0.199   0.226
    1UNL    C37   53   0.314  -0.199   0.350
    1UNL    C38   54   0.338  -0.331   0.419
    1UNL    O15   55   0.219  -0.383   0.475
    1UNL    C39   56   0.343  -0.079   0.449
    1UNL    O16   57   0.224  -0.054   0.527
    1UNL    C40   58   0.384   0.047   0.367
    1UNL    O17   59   0.270   0.109   0.326
    1UNL    C41   60   0.492   0.022   0.253
    1UNL    O18   61   0.436   0.076   0.129
    1UNL    C42   62   0.437  -0.112  -0.046
    1UNL    C43   63   0.389  -0.252  -0.087
    1UNL    C44   64   0.424  -0.362  -0.026
    1UNL     H1   65  -0.474   0.164  -0.292
    1UNL     H2   66  -0.502   0.039  -0.422
    1UNL     H3   67  -0.298  -0.071  -0.363
    1UNL     H4   68  -0.253   0.159  -0.196
    1UNL     H5   69  -0.302   0.068   0.033
    1UNL     H6   70  -0.555  -0.070   0.047
    1UNL     H7   71  -0.660   0.257  -0.054
    1UNL     H8   72  -0.928   0.220   0.111
    1UNL     H9   73  -0.915   0.168  -0.054
    1UNL    H10   74  -0.987   0.392  -0.049
    1UNL    H11   75  -0.752   0.272   0.245
    1UNL    H12   76  -0.760   0.439   0.105
    1UNL    H13   77  -0.514   0.271   0.318
    1UNL    H14   78  -0.436   0.386   0.110
    1UNL    H15   79  -0.417   0.047   0.236
    1UNL    H16   80  -0.684   0.032   0.291
    1UNL    H17   81  -0.267  -0.286   0.003
    1UNL    H18   82   0.126  -0.391   0.039
    1UNL    H19   83   0.060  -0.509  -0.064
    1UNL    H20   84   0.018  -0.495   0.121
    1UNL    H21   85  -0.080   0.034  -0.100
    1UNL    H22   86   0.046  -0.091  -0.281
    1UNL    H23   87  -0.092  -0.075  -0.378
    1UNL    H24   88   0.089   0.094  -0.422
    1UNL    H25   89  -0.066   0.185  -0.367
    1UNL    H26   90   0.079   0.395  -0.207
    1UNL    H27   91  -0.077   0.325  -0.203
    1UNL    H28   92   0.118   0.371   0.035
    1UNL    H29   93  -0.060   0.365   0.037
    1UNL    H30   94   0.152  -0.133   0.021
    1UNL    H31   95   0.003  -0.207   0.293
    1UNL    H32   96  -0.182  -0.134   0.417
    1UNL    H33   97  -0.274   0.089   0.384
    1UNL    H34   98  -0.178   0.246   0.212
    1UNL    H35   99   0.253   0.204  -0.095
    1UNL    H36  100   0.286   0.061  -0.299
    1UNL    H37  101   0.222  -0.083  -0.223
    1UNL    H38  102   0.462   0.074  -0.121
    1UNL    H39  103   0.251  -0.014  -0.632
    1UNL    H40  104   0.422  -0.028  -0.653
    1UNL    H41  105   0.342  -0.177  -0.596
    1UNL    H42  106   0.689  -0.166  -0.305
    1UNL    H43  107   0.614  -0.001   0.012
    1UNL    H44  108   0.567  -0.182   0.321
    1UNL    H45  109   0.211  -0.197   0.312
    1UNL    H46  110   0.365  -0.404   0.347
    1UNL    H47  111   0.414  -0.320   0.495
    1UNL    H48  112   0.168  -0.302   0.501
    1UNL    H49  113   0.418  -0.091   0.520
    1UNL    H50  114   0.170   0.017   0.481
    1UNL    H51  115   0.431   0.124   0.433
    1UNL    H52  116   0.223   0.053   0.251
    1UNL    H53  117   0.581   0.071   0.276
    1UNL    H54  118   0.429   0.171   0.139
    1UNL    H55  119   0.369  -0.086   0.045
    1UNL    H56  120   0.312  -0.255  -0.163
    1UNL    H57  121   0.401  -0.460  -0.069
    1UNL    H58  122   0.495  -0.361   0.053
   0.00000   0.00000   0.00000   0.00000   0.00000   0.00000   0.00000   0.00000   0.00000
Generated with MDTraj, t= 85.0
 122
    1UNL     C1    1  -0.463   0.072  -0.313
    1UNL     C2    2  -0.356   0.006  -0.285
    1UNL     C3    3  -0.276   0.039  -0.164
    1UNL     C4    4  -0.365   0.011  -0.050
    1UNL     O1    5  -0.475   0.093  -0.054
    1UNL     C5    6  -0.570   0.046   0.042
    1UNL     O2    7  -0.703   0.081   0.012
    1UNL     C6    8  -0.718   0.228   0.024
    1UNL     C7    9  -0.853   0.267  -0.017
    1UNL     O3   10  -0.868   0.406  -0.022
    1UNL     C8   11  -0.680   0.278   0.163
    1UNL     O4   12  -0.676   0.419   0.160
    1UNL     C9   13  -0.545   0.219   0.220
    1UNL     O5   14  -0.441   0.290   0.157
    1UNL    C10   15  -0.541   0.072   0.191
    1UNL     O6   16  -0.619  -0.011   0.278
    1UNL     O7   17  -0.398  -0.130  -0.038
    1UNL    C11   18  -0.283  -0.209  -0.035
    1UNL    C12   19  -0.161  -0.174  -0.082
    1UNL    C13   20  -0.049  -0.259  -0.054
    1UNL     O8   21   0.061  -0.226  -0.100
    1UNL     O9   22  -0.067  -0.382   0.006
    1UNL    C14   23   0.050  -0.444   0.025
    1UNL    C15   24  -0.137  -0.037  -0.141
    1UNL    C16   25  -0.056  -0.043  -0.266
    1UNL    C17   26   0.004   0.095  -0.311
    1UNL     N1   27   0.077   0.171  -0.205
    1UNL    C18   28   0.028   0.304  -0.164
    1UNL    C19   29   0.014   0.305  -0.012
    1UNL    C20   30   0.050   0.180   0.057
    1UNL    C21   31   0.149   0.097   0.008
    1UNL     N2   32   0.138  -0.024   0.074
    1UNL    C22   33   0.031  -0.022   0.168
    1UNL    C23   34  -0.042  -0.118   0.231
    1UNL    C24   35  -0.155  -0.081   0.300
    1UNL    C25   36  -0.191   0.051   0.310
    1UNL    C26   37  -0.123   0.153   0.246
    1UNL    C27   38  -0.014   0.115   0.163
    1UNL    C28   39   0.199   0.118  -0.131
    1UNL    C29   40   0.267  -0.010  -0.196
    1UNL    C30   41   0.420  -0.032  -0.158
    1UNL    C31   42   0.515  -0.066  -0.273
    1UNL    C32   43   0.488  -0.060  -0.419
    1UNL    O10   44   0.586  -0.073  -0.493
    1UNL    O11   45   0.361  -0.036  -0.462
    1UNL    C33   46   0.361  -0.033  -0.602
    1UNL    C34   47   0.632  -0.118  -0.238
    1UNL    O12   48   0.687  -0.145  -0.114
    1UNL    C35   49   0.599  -0.115  -0.006
    1UNL    O13   50   0.617  -0.170   0.123
    1UNL    C36   51   0.519  -0.125   0.213
    1UNL    O14   52   0.392  -0.183   0.199
    1UNL    C37   53   0.309  -0.192   0.322
    1UNL    C38   54   0.314  -0.330   0.398
    1UNL    O15   55   0.194  -0.360   0.468
    1UNL    C39   56   0.359  -0.086   0.424
    1UNL    O16   57   0.254  -0.054   0.516
    1UNL    C40   58   0.394   0.051   0.352
    1UNL    O17   59   0.284   0.126   0.308
    1UNL    C41   60   0.508   0.024   0.245
    1UNL    O18   61   0.490   0.097   0.120
    1UNL    C42   62   0.445  -0.130  -0.045
    1UNL    C43   63   0.408  -0.271  -0.074
    1UNL    C44   64   0.429  -0.377  -0.002
    1UNL     H1   65  -0.477   0.156  -0.251
    1UNL     H2   66  -0.523   0.054  -0.403
    1UNL     H3   67  -0.336  -0.087  -0.337
    1UNL     H4   68  -0.254   0.152  -0.174
    1UNL     H5   69  -0.318   0.036   0.045
    1UNL     H6   70  -0.561  -0.060   0.010
    1UNL     H7   71  -0.635   0.255  -0.045
    1UNL     H8   72  -0.931   0.225   0.051
    1UNL     H9   73  -0.879   0.224  -0.116
    1UNL    H10   74  -0.944   0.439  -0.075
    1UNL    H11   75  -0.763   0.262   0.241
    1UNL    H12   76  -0.745   0.457   0.098
    1UNL    H13   77  -0.543   0.238   0.325
    1UNL    H14   78  -0.459   0.388   0.151
    1UNL    H15   79  -0.437   0.032   0.211
    1UNL    H16   80  -0.709  -0.010   0.237
    1UNL    H17   81  -0.299  -0.307   0.019
    1UNL    H18   82   0.118  -0.374   0.081
    1UNL    H19   83   0.094  -0.469  -0.069
    1UNL    H20   84   0.044  -0.526   0.100
    1UNL    H21   85  -0.079   0.018  -0.070
    1UNL    H22   86   0.031  -0.109  -0.236
    1UNL    H23   87  -0.110  -0.100  -0.348
    1UNL    H24   88   0.079   0.074  -0.396
    1UNL    H25   89  -0.084   0.155  -0.351
    1UNL    H26   90   0.108   0.370  -0.188
    1UNL    H27   91  -0.065   0.342  -0.212
    1UNL    H28   92   0.070   0.400   0.026
    1UNL    H29   93  -0.093   0.319   0.014
    1UNL    H30   94   0.177  -0.116   0.049
    1UNL    H31   95  -0.001  -0.212   0.242
    1UNL    H32   96  -0.206  -0.146   0.361
    1UNL    H33   97  -0.272   0.083   0.377
    1UNL    H34   98  -0.167   0.250   0.254
    1UNL    H35   99   0.266   0.204  -0.122
    1UNL    H36  100   0.258   0.001  -0.300
    1UNL    H37  101   0.210  -0.101  -0.161
    1UNL    H38  102   0.451   0.061  -0.119
    1UNL    H39  103   0.268   0.011  -0.641
    1UNL    H40  104   0.438   0.033  -0.638
    1UNL    H41  105   0.387  -0.135  -0.629
    1UNL    H42  106   0.707  -0.141  -0.317
    1UNL    H43  107   0.625  -0.004   0.010
    1UNL    H44  108   0.558  -0.174   0.305
    1UNL    H45  109   0.207  -0.180   0.282
    1UNL    H46  110   0.316  -0.411   0.330
    1UNL    H47  111   0.396  -0.340   0.469
    1UNL    H48  112   0.164  -0.272   0.503
    1UNL    H49  113   0.435  -0.124   0.485
    1UNL    H50  114   0.212   0.026   0.483
    1UNL    H51  115   0.437   0.116   0.435
    1UNL    H52  116   0.251   0.078   0.226
    1UNL    H53  117   0.599   0.059   0.288
    1UNL    H54  118   0.509   0.191   0.144
    1UNL    H55  119   0.372  -0.101   0.041
    1UNL    H56  120   0.371  -0.287  -0.173
    1UNL    H57  121   0.418  -0.473  -0.042
    1UNL    H58  122   0.474  -0.370   0.099
   0.00000   0.00000   0.00000   0.00000   0.00000   0.00000   0.00000   0.00000   0.00000
Generated with MDTraj, t= 86.0
 122
    1UNL     C1    1  -0.446   0.045  -0.332
    1UNL     C2    2  -0.343  -0.016  -0.283
    1UNL     C3    3  -0.273   0.025  -0.158
    1UNL     C4    4  -0.371  -0.004  -0.043
    1UNL     O1    5  -0.498   0.062  -0.056
    1UNL     C5    6  -0.605   0.034   0.036
    1UNL     O2    7  -0.725   0.101   0.016
    1UNL     C6    8  -0.710   0.245   0.026
    1UNL     C7    9  -0.825   0.315  -0.051
    1UNL     O3   10  -0.840   0.455  -0.031
    1UNL     C8   11  -0.699   0.285   0.172
    1UNL     O4   12  -0.679   0.422   0.179
    1UNL     C9   13  -0.580   0.204   0.229
    1UNL     O5   14  -0.459   0.267   0.200
    1UNL    C10   15  -0.571   0.056   0.184
    1UNL     O6   16  -0.657  -0.019   0.262
    1UNL     O7   17  -0.395  -0.143  -0.024
    1UNL    C11   18  -0.275  -0.211  -0.018
    1UNL    C12   19  -0.156  -0.179  -0.073
    1UNL    C13   20  -0.042  -0.264  -0.043
    1UNL     O8   21   0.068  -0.241  -0.096
    1UNL     O9   22  -0.071  -0.377   0.029
    1UNL    C14   23   0.035  -0.472   0.032
    1UNL    C15   24  -0.136  -0.048  -0.135
    1UNL    C16   25  -0.052  -0.044  -0.257
    1UNL    C17   26   0.002   0.090  -0.309
    1UNL     N1   27   0.083   0.162  -0.215
    1UNL    C18   28   0.043   0.301  -0.168
    1UNL    C19   29   0.006   0.296  -0.015
    1UNL    C20   30   0.054   0.168   0.053
    1UNL    C21   31   0.140   0.075  -0.005
    1UNL     N2   32   0.146  -0.040   0.078
    1UNL    C22   33   0.041  -0.027   0.175
    1UNL    C23   34  -0.025  -0.124   0.253
    1UNL    C24   35  -0.141  -0.087   0.314
    1UNL    C25   36  -0.183   0.046   0.311
    1UNL    C26   37  -0.122   0.137   0.234
    1UNL    C27   38  -0.007   0.101   0.162
    1UNL    C28   39   0.192   0.099  -0.141
    1UNL    C29   40   0.265  -0.015  -0.208
    1UNL    C30   41   0.416  -0.030  -0.173
    1UNL    C31   42   0.511  -0.068  -0.283
    1UNL    C32   43   0.496  -0.052  -0.429
    1UNL    O10   44   0.588  -0.082  -0.507
    1UNL    O11   45   0.371  -0.001  -0.467
    1UNL    C33   46   0.363   0.016  -0.608
    1UNL    C34   47   0.632  -0.120  -0.244
    1UNL    O12   48   0.674  -0.150  -0.119
    1UNL    C35   49   0.588  -0.099  -0.012
    1UNL    O13   50   0.621  -0.158   0.115
    1UNL    C36   51   0.531  -0.130   0.224
    1UNL    O14   52   0.397  -0.172   0.205
    1UNL    C37   53   0.304  -0.169   0.317
    1UNL    C38   54   0.249  -0.311   0.359
    1UNL    O15   55   0.184  -0.325   0.489
    1UNL    C39   56   0.361  -0.076   0.427
    1UNL    O16   57   0.246  -0.030   0.500
    1UNL    C40   58   0.417   0.053   0.361
    1UNL    O17   59   0.317   0.126   0.302
    1UNL    C41   60   0.539   0.013   0.270
    1UNL    O18   61   0.529   0.094   0.149
    1UNL    C42   62   0.437  -0.120  -0.054
    1UNL    C43   63   0.411  -0.262  -0.088
    1UNL    C44   64   0.449  -0.365  -0.018
    1UNL     H1   65  -0.484   0.132  -0.282
    1UNL     H2   66  -0.491   0.002  -0.421
    1UNL     H3   67  -0.320  -0.117  -0.323
    1UNL     H4   68  -0.258   0.139  -0.163
    1UNL     H5   69  -0.336   0.040   0.053
    1UNL     H6   70  -0.621  -0.074   0.017
    1UNL     H7   71  -0.616   0.265  -0.024
    1UNL     H8   72  -0.925   0.269  -0.033
    1UNL     H9   73  -0.818   0.295  -0.159
    1UNL    H10   74  -0.882   0.500  -0.105
    1UNL    H11   75  -0.803   0.259   0.218
    1UNL    H12   76  -0.731   0.466   0.113
    1UNL    H13   77  -0.584   0.208   0.334
    1UNL    H14   78  -0.468   0.363   0.191
    1UNL    H15   79  -0.471   0.023   0.223
    1UNL    H16   80  -0.750  -0.019   0.218
    1UNL    H17   81  -0.269  -0.316   0.022
    1UNL    H18   82   0.089  -0.459   0.131
    1UNL    H19   83   0.100  -0.450  -0.049
    1UNL    H20   84   0.017  -0.583   0.028
    1UNL    H21   85  -0.077   0.013  -0.061
    1UNL    H22   86   0.032  -0.119  -0.240
    1UNL    H23   87  -0.112  -0.088  -0.343
    1UNL    H24   88   0.064   0.056  -0.404
    1UNL    H25   89  -0.085   0.151  -0.344
    1UNL    H26   90   0.111   0.382  -0.185
    1UNL    H27   91  -0.049   0.326  -0.225
    1UNL    H28   92   0.056   0.381   0.040
    1UNL    H29   93  -0.104   0.319  -0.006
    1UNL    H30   94   0.178  -0.126   0.039
    1UNL    H31   95   0.019  -0.228   0.277
    1UNL    H32   96  -0.180  -0.160   0.389
    1UNL    H33   97  -0.272   0.064   0.365
    1UNL    H34   98  -0.159   0.241   0.227
    1UNL    H35   99   0.270   0.175  -0.128
    1UNL    H36  100   0.255   0.005  -0.317
    1UNL    H37  101   0.214  -0.115  -0.192
    1UNL    H38  102   0.447   0.067  -0.151
    1UNL    H39  103   0.258   0.017  -0.644
    1UNL    H40  104   0.402   0.116  -0.630
    1UNL    H41  105   0.430  -0.055  -0.658
    1UNL    H42  106   0.704  -0.174  -0.316
    1UNL    H43  107   0.611   0.009   0.004
    1UNL    H44  108   0.568  -0.192   0.305
    1UNL    H45  109   0.212  -0.128   0.274
    1UNL    H46  110   0.178  -0.351   0.288
    1UNL    H47  111   0.331  -0.383   0.366
    1UNL    H48  112   0.197  -0.243   0.539
    1UNL    H49  113   0.432  -0.122   0.488
    1UNL    H50  114   0.209   0.048   0.452
    1UNL    H51  115   0.457   0.124   0.441
    1UNL    H52  116   0.281   0.081   0.229
    1UNL    H53  117   0.637   0.033   0.311
    1UNL    H54  118   0.499   0.184   0.177
    1UNL    H55  119   0.371  -0.091   0.034
    1UNL    H56  120   0.357  -0.290  -0.177
    1UNL    H57  121   0.407  -0.460  -0.041
    1UNL    H58  122   0.507  -0.361   0.073
   0.00000   0.00000   0.00000   0.00000   0.00000   0.00000   0.00000   0.00000   0.00000
Generated with MDTraj, t= 87.0
 122
    1UNL     C1    1  -0.432   0.007  -0.359
    1UNL     C2    2  -0.357  -0.051  -0.266
    1UNL     C3    3  -0.284   0.019  -0.156
    1UNL     C4    4  -0.366   0.009  -0.027
    1UNL     O1    5  -0.471   0.102  -0.028
    1UNL     C5    6  -0.590   0.037   0.023
    1UNL     O2    7  -0.707   0.106  -0.020
    1UNL     C6    8  -0.699   0.246   0.015
    1UNL     C7    9  -0.812   0.343  -0.043
    1UNL     O3   10  -0.771   0.482  -0.060
    1UNL     C8   11  -0.694   0.266   0.173
    1UNL     O4   12  -0.681   0.405   0.201
    1UNL     C9   13  -0.580   0.176   0.234
    1UNL     O5   14  -0.450   0.228   0.210
    1UNL    C10   15  -0.588   0.030   0.181
    1UNL     O6   16  -0.711  -0.028   0.227
    1UNL     O7   17  -0.394  -0.121   0.019
    1UNL    C11   18  -0.292  -0.215   0.004
    1UNL    C12   19  -0.172  -0.190  -0.059
    1UNL    C13   20  -0.065  -0.285  -0.045
    1UNL     O8   21   0.042  -0.257  -0.098
    1UNL     O9   22  -0.089  -0.404   0.013
    1UNL    C14   23   0.024  -0.475   0.027
    1UNL    C15   24  -0.147  -0.061  -0.134
    1UNL    C16   25  -0.051  -0.056  -0.254
    1UNL    C17   26  -0.001   0.081  -0.304
    1UNL     N1   27   0.087   0.169  -0.220
    1UNL    C18   28   0.037   0.297  -0.164
    1UNL    C19   29  -0.000   0.290  -0.020
    1UNL    C20   30   0.030   0.155   0.043
    1UNL    C21   31   0.124   0.069  -0.007
    1UNL     N2   32   0.133  -0.045   0.071
    1UNL    C22   33   0.031  -0.033   0.167
    1UNL    C23   34  -0.018  -0.124   0.259
    1UNL    C24   35  -0.115  -0.082   0.347
    1UNL    C25   36  -0.175   0.045   0.330
    1UNL    C26   37  -0.137   0.133   0.238
    1UNL    C27   38  -0.032   0.093   0.150
    1UNL    C28   39   0.193   0.104  -0.134
    1UNL    C29   40   0.269   0.002  -0.215
    1UNL    C30   41   0.423  -0.011  -0.182
    1UNL    C31   42   0.520  -0.061  -0.288
    1UNL    C32   43   0.494  -0.042  -0.432
    1UNL    O10   44   0.578  -0.093  -0.507
    1UNL    O11   45   0.389   0.045  -0.466
    1UNL    C33   46   0.377   0.055  -0.599
    1UNL    C34   47   0.630  -0.131  -0.243
    1UNL    O12   48   0.669  -0.157  -0.117
    1UNL    C35   49   0.584  -0.115  -0.014
    1UNL    O13   50   0.613  -0.169   0.113
    1UNL    C36   51   0.520  -0.139   0.223
    1UNL    O14   52   0.384  -0.163   0.204
    1UNL    C37   53   0.315  -0.156   0.328
    1UNL    C38   54   0.289  -0.292   0.390
    1UNL    O15   55   0.174  -0.291   0.476
    1UNL    C39   56   0.373  -0.055   0.429
    1UNL    O16   57   0.249  -0.016   0.500
    1UNL    C40   58   0.438   0.070   0.361
    1UNL    O17   59   0.327   0.132   0.296
    1UNL    C41   60   0.549   0.006   0.266
    1UNL    O18   61   0.545   0.087   0.144
    1UNL    C42   62   0.435  -0.115  -0.058
    1UNL    C43   63   0.391  -0.256  -0.087
    1UNL    C44   64   0.454  -0.363  -0.043
    1UNL     H1   65  -0.456   0.113  -0.359
    1UNL     H2   66  -0.477  -0.056  -0.430
    1UNL     H3   67  -0.359  -0.154  -0.253
    1UNL     H4   68  -0.261   0.129  -0.184
    1UNL     H5   69  -0.294   0.049   0.050
    1UNL     H6   70  -0.588  -0.062  -0.026
    1UNL     H7   71  -0.605   0.291  -0.012
    1UNL     H8   72  -0.907   0.337   0.010
    1UNL     H9   73  -0.851   0.309  -0.138
    1UNL    H10   74  -0.836   0.531  -0.116
    1UNL    H11   75  -0.796   0.228   0.217
    1UNL    H12   76  -0.723   0.463   0.129
    1UNL    H13   77  -0.594   0.181   0.339
    1UNL    H14   78  -0.463   0.324   0.183
    1UNL    H15   79  -0.504  -0.027   0.228
    1UNL    H16   80  -0.773  -0.022   0.148
    1UNL    H17   81  -0.295  -0.298   0.065
    1UNL    H18   82   0.088  -0.416   0.101
    1UNL    H19   83   0.062  -0.502  -0.068
    1UNL    H20   84   0.002  -0.574   0.075
    1UNL    H21   85  -0.082   0.006  -0.063
    1UNL    H22   86   0.032  -0.122  -0.234
    1UNL    H23   87  -0.110  -0.123  -0.325
    1UNL    H24   88   0.063   0.063  -0.403
    1UNL    H25   89  -0.091   0.134  -0.339
    1UNL    H26   90   0.115   0.368  -0.187
    1UNL    H27   91  -0.049   0.343  -0.220
    1UNL    H28   92   0.038   0.379   0.034
    1UNL    H29   93  -0.113   0.304  -0.004
    1UNL    H30   94   0.157  -0.135   0.035
    1UNL    H31   95   0.030  -0.218   0.258
    1UNL    H32   96  -0.160  -0.152   0.414
    1UNL    H33   97  -0.263   0.064   0.393
    1UNL    H34   98  -0.195   0.218   0.217
    1UNL    H35   99   0.266   0.183  -0.118
    1UNL    H36  100   0.251   0.024  -0.329
    1UNL    H37  101   0.213  -0.093  -0.206
    1UNL    H38  102   0.448   0.085  -0.153
    1UNL    H39  103   0.307   0.143  -0.609
    1UNL    H40  104   0.478   0.078  -0.636
    1UNL    H41  105   0.334  -0.031  -0.654
    1UNL    H42  106   0.702  -0.158  -0.313
    1UNL    H43  107   0.614  -0.009   0.003
    1UNL    H44  108   0.546  -0.200   0.306
    1UNL    H45  109   0.215  -0.119   0.301
    1UNL    H46  110   0.264  -0.364   0.311
    1UNL    H47  111   0.383  -0.329   0.438
    1UNL    H48  112   0.156  -0.203   0.520
    1UNL    H49  113   0.440  -0.095   0.500
    1UNL    H50  114   0.195   0.051   0.449
    1UNL    H51  115   0.472   0.148   0.437
    1UNL    H52  116   0.272   0.074   0.227
    1UNL    H53  117   0.649   0.012   0.312
    1UNL    H54  118   0.470   0.146   0.161
    1UNL    H55  119   0.387  -0.079   0.036
    1UNL    H56  120   0.300  -0.276  -0.141
    1UNL    H57  121   0.422  -0.469  -0.060
    1UNL    H58  122   0.542  -0.359   0.013
   0.00000   0.00000   0.00000   0.00000   0.00000   0.00000   0.00000   0.00000   0.00000
Generated with MDTraj, t= 88.0
 122
    1UNL     C1    1  -0.418  -0.020  -0.365
    1UNL     C2    2  -0.369  -0.063  -0.248
    1UNL     C3    3  -0.280   0.012  -0.156
    1UNL     C4    4  -0.358   0.013  -0.020
    1UNL     O1    5  -0.471   0.095  -0.045
    1UNL     C5    6  -0.598   0.040   0.005
    1UNL     O2    7  -0.705   0.120  -0.041
    1UNL     C6    8  -0.680   0.258  -0.002
    1UNL     C7    9  -0.767   0.369  -0.067
    1UNL     O3   10  -0.734   0.498  -0.024
    1UNL     C8   11  -0.685   0.258   0.158
    1UNL     O4   12  -0.648   0.385   0.199
    1UNL     C9   13  -0.584   0.158   0.231
    1UNL     O5   14  -0.451   0.211   0.239
    1UNL    C10   15  -0.595   0.024   0.156
    1UNL     O6   16  -0.715  -0.052   0.186
    1UNL     O7   17  -0.380  -0.115   0.035
    1UNL    C11   18  -0.267  -0.194   0.026
    1UNL    C12   19  -0.155  -0.177  -0.051
    1UNL    C13   20  -0.055  -0.281  -0.042
    1UNL     O8   21   0.055  -0.265  -0.097
    1UNL     O9   22  -0.101  -0.401   0.012
    1UNL    C14   23  -0.008  -0.505   0.017
    1UNL    C15   24  -0.136  -0.048  -0.133
    1UNL    C16   25  -0.074  -0.070  -0.262
    1UNL    C17   26  -0.017   0.067  -0.312
    1UNL     N1   27   0.059   0.152  -0.221
    1UNL    C18   28  -0.004   0.277  -0.160
    1UNL    C19   29  -0.035   0.275  -0.013
    1UNL    C20   30   0.034   0.167   0.060
    1UNL    C21   31   0.123   0.080  -0.003
    1UNL     N2   32   0.133  -0.035   0.068
    1UNL    C22   33   0.043  -0.025   0.178
    1UNL    C23   34  -0.015  -0.125   0.255
    1UNL    C24   35  -0.121  -0.095   0.334
    1UNL    C25   36  -0.172   0.037   0.342
    1UNL    C26   37  -0.118   0.135   0.264
    1UNL    C27   38  -0.015   0.102   0.174
    1UNL    C28   39   0.177   0.097  -0.141
    1UNL    C29   40   0.259  -0.018  -0.199
    1UNL    C30   41   0.407  -0.020  -0.158
    1UNL    C31   42   0.507  -0.063  -0.265
    1UNL    C32   43   0.487  -0.029  -0.412
    1UNL    O10   44   0.553  -0.095  -0.492
    1UNL    O11   45   0.412   0.082  -0.451
    1UNL    C33   46   0.411   0.099  -0.591
    1UNL    C34   47   0.609  -0.140  -0.237
    1UNL    O12   48   0.653  -0.187  -0.118
    1UNL    C35   49   0.583  -0.121  -0.013
    1UNL    O13   50   0.610  -0.171   0.118
    1UNL    C36   51   0.520  -0.121   0.217
    1UNL    O14   52   0.384  -0.168   0.202
    1UNL    C37   53   0.308  -0.156   0.327
    1UNL    C38   54   0.299  -0.287   0.408
    1UNL    O15   55   0.192  -0.277   0.490
    1UNL    C39   56   0.373  -0.044   0.411
    1UNL    O16   57   0.274  -0.008   0.515
    1UNL    C40   58   0.417   0.078   0.323
    1UNL    O17   59   0.314   0.141   0.251
    1UNL    C41   60   0.535   0.029   0.239
    1UNL    O18   61   0.553   0.092   0.112
    1UNL    C42   62   0.424  -0.113  -0.034
    1UNL    C43   63   0.375  -0.252  -0.053
    1UNL    C44   64   0.442  -0.364  -0.081
    1UNL     H1   65  -0.409   0.083  -0.397
    1UNL     H2   66  -0.490  -0.073  -0.427
    1UNL     H3   67  -0.390  -0.168  -0.210
    1UNL     H4   68  -0.277   0.122  -0.187
    1UNL     H5   69  -0.294   0.074   0.050
    1UNL     H6   70  -0.613  -0.057  -0.048
    1UNL     H7   71  -0.577   0.283  -0.019
    1UNL     H8   72  -0.870   0.357  -0.038
    1UNL     H9   73  -0.770   0.360  -0.173
    1UNL    H10   74  -0.799   0.569  -0.054
    1UNL    H11   75  -0.792   0.222   0.188
    1UNL    H12   76  -0.650   0.445   0.125
    1UNL    H13   77  -0.623   0.134   0.329
    1UNL    H14   78  -0.471   0.304   0.254
    1UNL    H15   79  -0.509  -0.040   0.178
    1UNL    H16   80  -0.778  -0.018   0.124
    1UNL    H17   81  -0.278  -0.280   0.089
    1UNL    H18   82   0.088  -0.452   0.033
    1UNL    H19   83  -0.015  -0.558  -0.073
    1UNL    H20   84  -0.020  -0.585   0.093
    1UNL    H21   85  -0.079   0.021  -0.074
    1UNL    H22   86  -0.003  -0.143  -0.243
    1UNL    H23   87  -0.138  -0.127  -0.338
    1UNL    H24   88   0.039   0.047  -0.413
    1UNL    H25   89  -0.099   0.133  -0.341
    1UNL    H26   90   0.066   0.359  -0.174
    1UNL    H27   91  -0.086   0.312  -0.227
    1UNL    H28   92  -0.017   0.372   0.036
    1UNL    H29   93  -0.150   0.268  -0.002
    1UNL    H30   94   0.120  -0.127   0.022
    1UNL    H31   95   0.002  -0.227   0.231
    1UNL    H32   96  -0.169  -0.176   0.384
    1UNL    H33   97  -0.267   0.051   0.390
    1UNL    H34   98  -0.162   0.237   0.256
    1UNL    H35   99   0.249   0.179  -0.146
    1UNL    H36  100   0.262  -0.010  -0.313
    1UNL    H37  101   0.206  -0.114  -0.190
    1UNL    H38  102   0.423   0.078  -0.129
    1UNL    H39  103   0.366   0.196  -0.620
    1UNL    H40  104   0.514   0.092  -0.624
    1UNL    H41  105   0.353   0.028  -0.650
    1UNL    H42  106   0.663  -0.183  -0.316
    1UNL    H43  107   0.620  -0.020  -0.022
    1UNL    H44  108   0.556  -0.172   0.302
    1UNL    H45  109   0.210  -0.124   0.291
    1UNL    H46  110   0.292  -0.375   0.339
    1UNL    H47  111   0.394  -0.308   0.467
    1UNL    H48  112   0.199  -0.193   0.541
    1UNL    H49  113   0.465  -0.072   0.457
    1UNL    H50  114   0.193   0.021   0.472
    1UNL    H51  115   0.453   0.160   0.389
    1UNL    H52  116   0.263   0.084   0.187
    1UNL    H53  117   0.634   0.046   0.287
    1UNL    H54  118   0.528   0.188   0.126
    1UNL    H55  119   0.376  -0.070   0.056
    1UNL    H56  120   0.272  -0.262  -0.025
    1UNL    H57  121   0.397  -0.460  -0.097
    1UNL    H58  122   0.546  -0.360  -0.104
   0.00000   0.00000   0.00000   0.00000   0.00000   0.00000   0.00000   0.00000   0.00000
Generated with MDTraj, t= 89.0
 122
    1UNL     C1    1  -0.412  -0.032  -0.372
    1UNL     C2    2  -0.351  -0.078  -0.264
    1UNL     C3    3  -0.275   0.002  -0.167
    1UNL     C4    4  -0.345   0.024  -0.024
    1UNL     O1    5  -0.454   0.112  -0.041
    1UNL     C5    6  -0.582   0.053  -0.015
    1UNL     O2    7  -0.695   0.140  -0.040
    1UNL     C6    8  -0.670   0.272   0.014
    1UNL     C7    9  -0.748   0.381  -0.053
    1UNL     O3   10  -0.720   0.517  -0.025
    1UNL     C8   11  -0.669   0.258   0.169
    1UNL     O4   12  -0.620   0.377   0.222
    1UNL     C9   13  -0.592   0.141   0.228
    1UNL     O5   14  -0.458   0.184   0.248
    1UNL    C10   15  -0.596   0.012   0.132
    1UNL     O6   16  -0.724  -0.056   0.144
    1UNL     O7   17  -0.374  -0.104   0.035
    1UNL    C11   18  -0.276  -0.196   0.027
    1UNL    C12   19  -0.159  -0.196  -0.045
    1UNL    C13   20  -0.050  -0.296  -0.035
    1UNL     O8   21   0.056  -0.273  -0.093
    1UNL     O9   22  -0.087  -0.410   0.022
    1UNL    C14   23   0.003  -0.519   0.006
    1UNL    C15   24  -0.138  -0.069  -0.131
    1UNL    C16   25  -0.054  -0.085  -0.251
    1UNL    C17   26  -0.004   0.046  -0.316
    1UNL     N1   27   0.062   0.138  -0.224
    1UNL    C18   28  -0.019   0.256  -0.171
    1UNL    C19   29  -0.004   0.280  -0.018
    1UNL    C20   30   0.037   0.157   0.052
    1UNL    C21   31   0.123   0.070  -0.009
    1UNL     N2   32   0.127  -0.044   0.071
    1UNL    C22   33   0.036  -0.030   0.176
    1UNL    C23   34  -0.007  -0.125   0.269
    1UNL    C24   35  -0.112  -0.088   0.353
    1UNL    C25   36  -0.174   0.037   0.340
    1UNL    C26   37  -0.136   0.130   0.248
    1UNL    C27   38  -0.029   0.092   0.162
    1UNL    C28   39   0.178   0.101  -0.141
    1UNL    C29   40   0.256  -0.005  -0.213
    1UNL    C30   41   0.407  -0.028  -0.174
    1UNL    C31   42   0.499  -0.073  -0.286
    1UNL    C32   43   0.477  -0.021  -0.421
    1UNL    O10   44   0.525  -0.083  -0.515
    1UNL    O11   45   0.398   0.094  -0.428
    1UNL    C33   46   0.413   0.171  -0.549
    1UNL    C34   47   0.598  -0.162  -0.254
    1UNL    O12   48   0.634  -0.196  -0.126
    1UNL    C35   49   0.565  -0.127  -0.017
    1UNL    O13   50   0.606  -0.169   0.120
    1UNL    C36   51   0.524  -0.119   0.218
    1UNL    O14   52   0.392  -0.167   0.218
    1UNL    C37   53   0.317  -0.154   0.348
    1UNL    C38   54   0.299  -0.280   0.430
    1UNL    O15   55   0.230  -0.259   0.547
    1UNL    C39   56   0.354  -0.028   0.432
    1UNL    O16   57   0.238   0.038   0.490
    1UNL    C40   58   0.423   0.079   0.343
    1UNL    O17   59   0.322   0.159   0.278
    1UNL    C41   60   0.524   0.034   0.228
    1UNL    O18   61   0.497   0.090   0.098
    1UNL    C42   62   0.420  -0.126  -0.053
    1UNL    C43   63   0.361  -0.262  -0.083
    1UNL    C44   64   0.420  -0.380  -0.094
    1UNL     H1   65  -0.404   0.067  -0.405
    1UNL     H2   66  -0.474  -0.094  -0.436
    1UNL     H3   67  -0.369  -0.176  -0.238
    1UNL     H4   68  -0.256   0.106  -0.205
    1UNL     H5   69  -0.273   0.078   0.045
    1UNL     H6   70  -0.612  -0.035  -0.079
    1UNL     H7   71  -0.566   0.300  -0.002
    1UNL     H8   72  -0.851   0.362  -0.025
    1UNL     H9   73  -0.735   0.368  -0.160
    1UNL    H10   74  -0.781   0.582  -0.066
    1UNL    H11   75  -0.782   0.256   0.195
    1UNL    H12   76  -0.666   0.447   0.170
    1UNL    H13   77  -0.629   0.123   0.333
    1UNL    H14   78  -0.466   0.267   0.306
    1UNL    H15   79  -0.517  -0.056   0.163
    1UNL    H16   80  -0.785  -0.014   0.084
    1UNL    H17   81  -0.288  -0.286   0.096
    1UNL    H18   82   0.092  -0.491   0.067
    1UNL    H19   83   0.036  -0.510  -0.092
    1UNL    H20   84  -0.033  -0.623   0.014
    1UNL    H21   85  -0.092  -0.010  -0.060
    1UNL    H22   86   0.028  -0.155  -0.251
    1UNL    H23   87  -0.132  -0.127  -0.322
    1UNL    H24   88   0.067   0.028  -0.400
    1UNL    H25   89  -0.092   0.091  -0.367
    1UNL    H26   90   0.001   0.344  -0.235
    1UNL    H27   91  -0.125   0.237  -0.184
    1UNL    H28   92   0.072   0.355  -0.006
    1UNL    H29   93  -0.095   0.330   0.031
    1UNL    H30   94   0.143  -0.135   0.017
    1UNL    H31   95   0.040  -0.230   0.269
    1UNL    H32   96  -0.142  -0.164   0.430
    1UNL    H33   97  -0.252   0.066   0.409
    1UNL    H34   98  -0.173   0.228   0.243
    1UNL    H35   99   0.252   0.180  -0.133
    1UNL    H36  100   0.251   0.015  -0.321
    1UNL    H37  101   0.207  -0.104  -0.218
    1UNL    H38  102   0.442   0.063  -0.145
    1UNL    H39  103   0.327   0.235  -0.571
    1UNL    H40  104   0.507   0.225  -0.550
    1UNL    H41  105   0.419   0.108  -0.636
    1UNL    H42  106   0.653  -0.231  -0.326
    1UNL    H43  107   0.590  -0.022  -0.034
    1UNL    H44  108   0.564  -0.162   0.306
    1UNL    H45  109   0.216  -0.138   0.306
    1UNL    H46  110   0.250  -0.367   0.376
    1UNL    H47  111   0.399  -0.330   0.454
    1UNL    H48  112   0.219  -0.161   0.559
    1UNL    H49  113   0.418  -0.062   0.513
    1UNL    H50  114   0.188   0.081   0.417
    1UNL    H51  115   0.469   0.142   0.418
    1UNL    H52  116   0.276   0.101   0.222
    1UNL    H53  117   0.629   0.064   0.258
    1UNL    H54  118   0.479   0.182   0.119
    1UNL    H55  119   0.368  -0.087   0.035
    1UNL    H56  120   0.256  -0.254  -0.114
    1UNL    H57  121   0.355  -0.460  -0.111
    1UNL    H58  122   0.531  -0.395  -0.092
   0.00000   0.00000   0.00000   0.00000   0.00000   0.00000   0.00000   0.00000   0.00000
Generated with MDTraj, t= 90.0
 122
    1UNL     C1    1  -0.420  -0.043  -0.363
    1UNL     C2    2  -0.364  -0.086  -0.253
    1UNL     C3    3  -0.284  -0.001  -0.163
    1UNL     C4    4  -0.340   0.011  -0.021
    1UNL     O1    5  -0.436   0.112  -0.016
    1UNL     C5    6  -0.566   0.055  -0.018
    1UNL     O2    7  -0.660   0.153  -0.056
    1UNL     C6    8  -0.647   0.281   0.015
    1UNL     C7    9  -0.728   0.399  -0.042
    1UNL     O3   10  -0.709   0.530   0.023
    1UNL     C8   11  -0.665   0.250   0.165
    1UNL     O4   12  -0.626   0.368   0.242
    1UNL     C9   13  -0.589   0.130   0.215
    1UNL     O5   14  -0.457   0.177   0.230
    1UNL    C10   15  -0.602   0.003   0.122
    1UNL     O6   16  -0.737  -0.043   0.131
    1UNL     O7   17  -0.375  -0.122   0.026
    1UNL    C11   18  -0.280  -0.222  -0.002
    1UNL    C12   19  -0.160  -0.207  -0.070
    1UNL    C13   20  -0.052  -0.303  -0.047
    1UNL     O8   21   0.060  -0.274  -0.086
    1UNL     O9   22  -0.091  -0.422   0.003
    1UNL    C14   23   0.010  -0.506   0.047
    1UNL    C15   24  -0.144  -0.077  -0.149
    1UNL    C16   25  -0.067  -0.091  -0.280
    1UNL    C17   26  -0.014   0.045  -0.320
    1UNL     N1   27   0.047   0.131  -0.219
    1UNL    C18   28  -0.001   0.266  -0.181
    1UNL    C19   29   0.001   0.287  -0.027
    1UNL    C20   30   0.046   0.166   0.048
    1UNL    C21   31   0.128   0.070  -0.006
    1UNL     N2   32   0.126  -0.044   0.070
    1UNL    C22   33   0.030  -0.026   0.174
    1UNL    C23   34  -0.026  -0.120   0.255
    1UNL    C24   35  -0.129  -0.082   0.340
    1UNL    C25   36  -0.178   0.049   0.332
    1UNL    C26   37  -0.116   0.149   0.254
    1UNL    C27   38  -0.014   0.109   0.166
    1UNL    C28   39   0.166   0.087  -0.148
    1UNL    C29   40   0.242  -0.035  -0.216
    1UNL    C30   41   0.389  -0.043  -0.166
    1UNL    C31   42   0.490  -0.061  -0.274
    1UNL    C32   43   0.482   0.003  -0.407
    1UNL    O10   44   0.549  -0.040  -0.499
    1UNL    O11   45   0.409   0.117  -0.413
    1UNL    C33   46   0.399   0.171  -0.537
    1UNL    C34   47   0.598  -0.144  -0.240
    1UNL    O12   48   0.644  -0.186  -0.119
    1UNL    C35   49   0.561  -0.136  -0.015
    1UNL    O13   50   0.583  -0.186   0.114
    1UNL    C36   51   0.501  -0.126   0.207
    1UNL    O14   52   0.363  -0.174   0.222
    1UNL    C37   53   0.312  -0.141   0.358
    1UNL    C38   54   0.325  -0.264   0.440
    1UNL    O15   55   0.255  -0.252   0.567
    1UNL    C39   56   0.371  -0.009   0.420
    1UNL    O16   57   0.274   0.052   0.505
    1UNL    C40   58   0.401   0.086   0.305
    1UNL    O17   59   0.283   0.121   0.249
    1UNL    C41   60   0.505   0.033   0.203
    1UNL    O18   61   0.479   0.086   0.074
    1UNL    C42   62   0.411  -0.149  -0.049
    1UNL    C43   63   0.367  -0.288  -0.077
    1UNL    C44   64   0.442  -0.396  -0.055
    1UNL     H1   65  -0.408   0.057  -0.403
    1UNL     H2   66  -0.472  -0.114  -0.423
    1UNL     H3   67  -0.378  -0.195  -0.231
    1UNL     H4   68  -0.273   0.101  -0.207
    1UNL     H5   69  -0.264   0.037   0.060
    1UNL     H6   70  -0.578  -0.029  -0.092
    1UNL     H7   71  -0.540   0.308   0.007
    1UNL     H8   72  -0.833   0.370  -0.035
    1UNL     H9   73  -0.701   0.401  -0.149
    1UNL    H10   74  -0.778   0.589  -0.008
    1UNL    H11   75  -0.775   0.235   0.184
    1UNL    H12   76  -0.630   0.446   0.179
    1UNL    H13   77  -0.617   0.099   0.323
    1UNL    H14   78  -0.459   0.255   0.287
    1UNL    H15   79  -0.532  -0.075   0.148
    1UNL    H16   80  -0.794   0.020   0.075
    1UNL    H17   81  -0.297  -0.307   0.063
    1UNL    H18   82   0.086  -0.441   0.098
    1UNL    H19   83   0.053  -0.537  -0.043
    1UNL    H20   84  -0.030  -0.593   0.104
    1UNL    H21   85  -0.079  -0.020  -0.082
    1UNL    H22   86   0.020  -0.160  -0.252
    1UNL    H23   87  -0.117  -0.138  -0.369
    1UNL    H24   88   0.039   0.035  -0.412
    1UNL    H25   89  -0.100   0.109  -0.357
    1UNL    H26   90   0.070   0.340  -0.226
    1UNL    H27   91  -0.098   0.283  -0.221
    1UNL    H28   92   0.049   0.378   0.001
    1UNL    H29   93  -0.110   0.306  -0.002
    1UNL    H30   94   0.126  -0.141   0.025
    1UNL    H31   95   0.013  -0.214   0.260
    1UNL    H32   96  -0.182  -0.141   0.406
    1UNL    H33   97  -0.257   0.087   0.396
    1UNL    H34   98  -0.146   0.253   0.256
    1UNL    H35   99   0.241   0.167  -0.158
    1UNL    H36  100   0.240  -0.042  -0.322
    1UNL    H37  101   0.190  -0.133  -0.194
    1UNL    H38  102   0.410   0.052  -0.131
    1UNL    H39  103   0.355   0.270  -0.520
    1UNL    H40  104   0.487   0.174  -0.601
    1UNL    H41  105   0.319   0.119  -0.587
    1UNL    H42  106   0.675  -0.169  -0.319
    1UNL    H43  107   0.587  -0.029  -0.030
    1UNL    H44  108   0.549  -0.156   0.299
    1UNL    H45  109   0.201  -0.130   0.354
    1UNL    H46  110   0.291  -0.356   0.388
    1UNL    H47  111   0.436  -0.291   0.447
    1UNL    H48  112   0.227  -0.157   0.579
    1UNL    H49  113   0.458  -0.028   0.486
    1UNL    H50  114   0.213   0.110   0.450
    1UNL    H51  115   0.436   0.176   0.348
    1UNL    H52  116   0.235   0.048   0.196
    1UNL    H53  117   0.614   0.061   0.227
    1UNL    H54  118   0.443   0.179   0.081
    1UNL    H55  119   0.350  -0.121   0.037
    1UNL    H56  120   0.261  -0.302  -0.071
    1UNL    H57  121   0.403  -0.494  -0.067
    1UNL    H58  122   0.549  -0.385  -0.042
   0.00000   0.00000   0.00000   0.00000   0.00000   0.00000   0.00000   0.00000   0.00000
Generated with MDTraj, t= 91.0
 122
    1UNL     C1    1  -0.432  -0.015  -0.372
    1UNL     C2    2  -0.381  -0.080  -0.269
    1UNL     C3    3  -0.282  -0.015  -0.179
    1UNL     C4    4  -0.334  -0.000  -0.035
    1UNL     O1    5  -0.425   0.105  -0.019
    1UNL     C5    6  -0.568   0.065  -0.019
    1UNL     O2    7  -0.651   0.172  -0.060
    1UNL     C6    8  -0.625   0.287   0.027
    1UNL     C7    9  -0.703   0.412  -0.028
    1UNL     O3   10  -0.700   0.523   0.061
    1UNL     C8   11  -0.670   0.246   0.168
    1UNL     O4   12  -0.644   0.356   0.257
    1UNL     C9   13  -0.594   0.130   0.230
    1UNL     O5   14  -0.462   0.156   0.282
    1UNL    C10   15  -0.603   0.017   0.128
    1UNL     O6   16  -0.737  -0.034   0.123
    1UNL     O7   17  -0.378  -0.128   0.016
    1UNL    C11   18  -0.278  -0.225  -0.009
    1UNL    C12   19  -0.166  -0.218  -0.089
    1UNL    C13   20  -0.058  -0.312  -0.062
    1UNL     O8   21   0.041  -0.302  -0.136
    1UNL     O9   22  -0.071  -0.410   0.038
    1UNL    C14   23   0.033  -0.506   0.045
    1UNL    C15   24  -0.144  -0.092  -0.158
    1UNL    C16   25  -0.070  -0.093  -0.289
    1UNL    C17   26  -0.027   0.041  -0.346
    1UNL     N1   27   0.052   0.129  -0.252
    1UNL    C18   28  -0.008   0.256  -0.207
    1UNL    C19   29  -0.014   0.278  -0.052
    1UNL    C20   30   0.030   0.155   0.026
    1UNL    C21   31   0.112   0.061  -0.028
    1UNL     N2   32   0.103  -0.058   0.050
    1UNL    C22   33   0.009  -0.035   0.149
    1UNL    C23   34  -0.060  -0.118   0.245
    1UNL    C24   35  -0.150  -0.056   0.330
    1UNL    C25   36  -0.165   0.084   0.337
    1UNL    C26   37  -0.112   0.161   0.238
    1UNL    C27   38  -0.030   0.098   0.145
    1UNL    C28   39   0.165   0.080  -0.163
    1UNL    C29   40   0.244  -0.050  -0.216
    1UNL    C30   41   0.389  -0.046  -0.158
    1UNL    C31   42   0.494  -0.076  -0.269
    1UNL    C32   43   0.489   0.006  -0.394
    1UNL    O10   44   0.587   0.000  -0.468
    1UNL    O11   45   0.374   0.089  -0.408
    1UNL    C33   46   0.388   0.175  -0.523
    1UNL    C34   47   0.602  -0.150  -0.241
    1UNL    O12   48   0.638  -0.196  -0.121
    1UNL    C35   49   0.559  -0.138  -0.012
    1UNL    O13   50   0.593  -0.180   0.119
    1UNL    C36   51   0.512  -0.119   0.216
    1UNL    O14   52   0.380  -0.173   0.231
    1UNL    C37   53   0.316  -0.138   0.360
    1UNL    C38   54   0.348  -0.254   0.459
    1UNL    O15   55   0.273  -0.227   0.579
    1UNL    C39   56   0.373  -0.008   0.426
    1UNL    O16   57   0.281   0.031   0.527
    1UNL    C40   58   0.409   0.103   0.324
    1UNL    O17   59   0.289   0.164   0.273
    1UNL    C41   60   0.512   0.036   0.213
    1UNL    O18   61   0.477   0.088   0.092
    1UNL    C42   62   0.409  -0.157  -0.051
    1UNL    C43   63   0.377  -0.297  -0.096
    1UNL    C44   64   0.421  -0.406  -0.037
    1UNL     H1   65  -0.399   0.088  -0.386
    1UNL     H2   66  -0.503  -0.061  -0.435
    1UNL     H3   67  -0.393  -0.186  -0.261
    1UNL     H4   68  -0.270   0.088  -0.219
    1UNL     H5   69  -0.255   0.018   0.047
    1UNL     H6   70  -0.582  -0.023  -0.090
    1UNL     H7   71  -0.516   0.303   0.017
    1UNL     H8   72  -0.807   0.375  -0.043
    1UNL     H9   73  -0.666   0.446  -0.128
    1UNL    H10   74  -0.768   0.587   0.026
    1UNL    H11   75  -0.778   0.222   0.168
    1UNL    H12   76  -0.670   0.438   0.219
    1UNL    H13   77  -0.653   0.085   0.321
    1UNL    H14   78  -0.404   0.138   0.206
    1UNL    H15   79  -0.539  -0.068   0.146
    1UNL    H16   80  -0.806   0.036   0.101
    1UNL    H17   81  -0.294  -0.309   0.049
    1UNL    H18   82   0.128  -0.448   0.066
    1UNL    H19   83   0.040  -0.538  -0.056
    1UNL    H20   84   0.003  -0.593   0.110
    1UNL    H21   85  -0.084  -0.024  -0.090
    1UNL    H22   86   0.032  -0.145  -0.272
    1UNL    H23   87  -0.121  -0.168  -0.352
    1UNL    H24   88   0.033   0.034  -0.429
    1UNL    H25   89  -0.113   0.094  -0.399
    1UNL    H26   90   0.052   0.338  -0.254
    1UNL    H27   91  -0.104   0.259  -0.251
    1UNL    H28   92   0.054   0.358  -0.028
    1UNL    H29   93  -0.114   0.324  -0.020
    1UNL    H30   94   0.102  -0.152   0.002
    1UNL    H31   95  -0.057  -0.227   0.252
    1UNL    H32   96  -0.210  -0.124   0.399
    1UNL    H33   97  -0.238   0.131   0.397
    1UNL    H34   98  -0.128   0.269   0.226
    1UNL    H35   99   0.234   0.166  -0.176
    1UNL    H36  100   0.262  -0.038  -0.318
    1UNL    H37  101   0.197  -0.148  -0.205
    1UNL    H38  102   0.405   0.047  -0.109
    1UNL    H39  103   0.462   0.257  -0.508
    1UNL    H40  104   0.419   0.119  -0.612
    1UNL    H41  105   0.291   0.222  -0.546
    1UNL    H42  106   0.668  -0.167  -0.316
    1UNL    H43  107   0.598  -0.035  -0.021
    1UNL    H44  108   0.556  -0.142   0.314
    1UNL    H45  109   0.205  -0.134   0.347
    1UNL    H46  110   0.327  -0.348   0.408
    1UNL    H47  111   0.457  -0.263   0.478
    1UNL    H48  112   0.253  -0.134   0.578
    1UNL    H49  113   0.469  -0.033   0.479
    1UNL    H50  114   0.238   0.114   0.497
    1UNL    H51  115   0.462   0.180   0.373
    1UNL    H52  116   0.249   0.100   0.211
    1UNL    H53  117   0.620   0.075   0.234
    1UNL    H54  118   0.473   0.186   0.100
    1UNL    H55  119   0.352  -0.145   0.040
    1UNL    H56  120   0.331  -0.314  -0.193
    1UNL    H57  121   0.421  -0.508  -0.084
    1UNL    H58  122   0.470  -0.403   0.056
   0.00000   0.00000   0.00000   0.00000   0.00000   0.00000   0.00000   0.00000   0.00000
Generated with MDTraj, t= 92.0
 122
    1UNL     C1    1  -0.448   0.024  -0.343
    1UNL     C2    2  -0.380  -0.057  -0.264
    1UNL     C3    3  -0.278  -0.008  -0.174
    1UNL     C4    4  -0.339  -0.008  -0.029
    1UNL     O1    5  -0.417   0.107  -0.002
    1UNL     C5    6  -0.557   0.076  -0.015
    1UNL     O2    7  -0.642   0.186  -0.044
    1UNL     C6    8  -0.635   0.288   0.056
    1UNL     C7    9  -0.716   0.411   0.002
    1UNL     O3   10  -0.668   0.534   0.055
    1UNL     C8   11  -0.682   0.235   0.194
    1UNL     O4   12  -0.646   0.338   0.293
    1UNL     C9   13  -0.601   0.107   0.236
    1UNL     O5   14  -0.468   0.151   0.272
    1UNL    C10   15  -0.604   0.007   0.118
    1UNL     O6   16  -0.736  -0.044   0.091
    1UNL     O7   17  -0.380  -0.136   0.010
    1UNL    C11   18  -0.280  -0.225  -0.016
    1UNL    C12   19  -0.162  -0.209  -0.086
    1UNL    C13   20  -0.051  -0.307  -0.074
    1UNL     O8   21   0.042  -0.297  -0.153
    1UNL     O9   22  -0.065  -0.401   0.021
    1UNL    C14   23   0.050  -0.483   0.040
    1UNL    C15   24  -0.147  -0.094  -0.173
    1UNL    C16   25  -0.095  -0.109  -0.316
    1UNL    C17   26  -0.022   0.012  -0.374
    1UNL     N1   27   0.042   0.096  -0.267
    1UNL    C18   28  -0.015   0.230  -0.239
    1UNL    C19   29  -0.006   0.266  -0.088
    1UNL    C20   30   0.026   0.149  -0.003
    1UNL    C21   31   0.117   0.051  -0.037
    1UNL     N2   32   0.112  -0.053   0.055
    1UNL    C22   33   0.018  -0.021   0.152
    1UNL    C23   34  -0.033  -0.092   0.263
    1UNL    C24   35  -0.129  -0.041   0.341
    1UNL    C25   36  -0.183   0.086   0.312
    1UNL    C26   37  -0.144   0.159   0.203
    1UNL    C27   38  -0.036   0.108   0.122
    1UNL    C28   39   0.159   0.063  -0.179
    1UNL    C29   40   0.240  -0.060  -0.228
    1UNL    C30   41   0.382  -0.058  -0.172
    1UNL    C31   42   0.497  -0.060  -0.271
    1UNL    C32   43   0.493   0.018  -0.392
    1UNL    O10   44   0.597   0.022  -0.455
    1UNL    O11   45   0.380   0.085  -0.416
    1UNL    C33   46   0.384   0.160  -0.541
    1UNL    C34   47   0.610  -0.121  -0.233
    1UNL    O12   48   0.640  -0.180  -0.115
    1UNL    C35   49   0.553  -0.139  -0.001
    1UNL    O13   50   0.580  -0.194   0.126
    1UNL    C36   51   0.515  -0.125   0.232
    1UNL    O14   52   0.375  -0.162   0.233
    1UNL    C37   53   0.316  -0.134   0.364
    1UNL    C38   54   0.322  -0.264   0.456
    1UNL    O15   55   0.282  -0.246   0.587
    1UNL    C39   56   0.371  -0.009   0.431
    1UNL    O16   57   0.276   0.052   0.518
    1UNL    C40   58   0.422   0.096   0.338
    1UNL    O17   59   0.312   0.164   0.280
    1UNL    C41   60   0.526   0.034   0.229
    1UNL    O18   61   0.478   0.080   0.104
    1UNL    C42   62   0.405  -0.159  -0.043
    1UNL    C43   63   0.376  -0.305  -0.072
    1UNL    C44   64   0.389  -0.396   0.024
    1UNL     H1   65  -0.417   0.125  -0.353
    1UNL     H2   66  -0.526  -0.018  -0.405
    1UNL     H3   67  -0.412  -0.157  -0.236
    1UNL     H4   68  -0.254   0.093  -0.212
    1UNL     H5   69  -0.243   0.005   0.034
    1UNL     H6   70  -0.567   0.001  -0.102
    1UNL     H7   71  -0.526   0.314   0.053
    1UNL     H8   72  -0.823   0.404   0.029
    1UNL     H9   73  -0.698   0.422  -0.109
    1UNL    H10   74  -0.699   0.610  -0.002
    1UNL    H11   75  -0.790   0.237   0.197
    1UNL    H12   76  -0.641   0.426   0.244
    1UNL    H13   77  -0.638   0.065   0.339
    1UNL    H14   78  -0.425   0.150   0.181
    1UNL    H15   79  -0.538  -0.079   0.139
    1UNL    H16   80  -0.800   0.026   0.071
    1UNL    H17   81  -0.278  -0.324   0.035
    1UNL    H18   82   0.138  -0.415   0.021
    1UNL    H19   83   0.043  -0.551  -0.041
    1UNL    H20   84   0.042  -0.536   0.138
    1UNL    H21   85  -0.062  -0.035  -0.126
    1UNL    H22   86  -0.020  -0.195  -0.306
    1UNL    H23   87  -0.167  -0.141  -0.395
    1UNL    H24   88   0.047  -0.023  -0.442
    1UNL    H25   89  -0.076   0.079  -0.448
    1UNL    H26   90   0.042   0.298  -0.307
    1UNL    H27   91  -0.113   0.230  -0.275
    1UNL    H28   92   0.071   0.338  -0.064
    1UNL    H29   93  -0.097   0.314  -0.043
    1UNL    H30   94   0.134  -0.150   0.033
    1UNL    H31   95   0.016  -0.190   0.276
    1UNL    H32   96  -0.178  -0.092   0.417
    1UNL    H33   97  -0.266   0.126   0.374
    1UNL    H34   98  -0.201   0.238   0.167
    1UNL    H35   99   0.224   0.155  -0.190
    1UNL    H36  100   0.246  -0.071  -0.334
    1UNL    H37  101   0.190  -0.143  -0.190
    1UNL    H38  102   0.395   0.040  -0.126
    1UNL    H39  103   0.477   0.219  -0.555
    1UNL    H40  104   0.373   0.088  -0.623
    1UNL    H41  105   0.302   0.234  -0.544
    1UNL    H42  106   0.694  -0.135  -0.301
    1UNL    H43  107   0.584  -0.032  -0.001
    1UNL    H44  108   0.553  -0.161   0.331
    1UNL    H45  109   0.209  -0.108   0.349
    1UNL    H46  110   0.271  -0.348   0.413
    1UNL    H47  111   0.426  -0.293   0.458
    1UNL    H48  112   0.295  -0.150   0.615
    1UNL    H49  113   0.464  -0.038   0.489
    1UNL    H50  114   0.200   0.084   0.465
    1UNL    H51  115   0.470   0.176   0.392
    1UNL    H52  116   0.269   0.103   0.209
    1UNL    H53  117   0.635   0.079   0.240
    1UNL    H54  118   0.489   0.175   0.088
    1UNL    H55  119   0.336  -0.124   0.032
    1UNL    H56  120   0.364  -0.350  -0.168
    1UNL    H57  121   0.365  -0.499   0.007
    1UNL    H58  122   0.407  -0.370   0.126
   0.00000   0.00000   0.00000   0.00000   0.00000   0.00000   0.00000   0.00000   0.00000
Generated with MDTraj, t= 93.0
 122
    1UNL     C1    1  -0.474   0.049  -0.309
    1UNL     C2    2  -0.386  -0.043  -0.275
    1UNL     C3    3  -0.279  -0.004  -0.177
    1UNL     C4    4  -0.338   0.001  -0.035
    1UNL     O1    5  -0.426   0.107  -0.012
    1UNL     C5    6  -0.558   0.063  -0.015
    1UNL     O2    7  -0.637   0.174  -0.042
    1UNL     C6    8  -0.623   0.275   0.057
    1UNL     C7    9  -0.674   0.412   0.012
    1UNL     O3   10  -0.649   0.516   0.110
    1UNL     C8   11  -0.678   0.225   0.189
    1UNL     O4   12  -0.682   0.319   0.300
    1UNL     C9   13  -0.599   0.097   0.225
    1UNL     O5   14  -0.469   0.131   0.248
    1UNL    C10   15  -0.610  -0.007   0.113
    1UNL     O6   16  -0.748  -0.050   0.098
    1UNL     O7   17  -0.380  -0.126   0.016
    1UNL    C11   18  -0.280  -0.218  -0.001
    1UNL    C12   19  -0.170  -0.206  -0.079
    1UNL    C13   20  -0.057  -0.298  -0.063
    1UNL     O8   21   0.046  -0.274  -0.128
    1UNL     O9   22  -0.082  -0.414   0.006
    1UNL    C14   23   0.043  -0.473   0.036
    1UNL    C15   24  -0.157  -0.092  -0.178
    1UNL    C16   25  -0.098  -0.126  -0.319
    1UNL    C17   26  -0.024  -0.006  -0.383
    1UNL     N1   27   0.049   0.086  -0.281
    1UNL    C18   28  -0.005   0.227  -0.262
    1UNL    C19   29  -0.053   0.253  -0.119
    1UNL    C20   30   0.024   0.176  -0.016
    1UNL    C21   31   0.111   0.077  -0.051
    1UNL     N2   32   0.131  -0.023   0.046
    1UNL    C22   33   0.035   0.004   0.144
    1UNL    C23   34  -0.010  -0.077   0.254
    1UNL    C24   35  -0.107  -0.032   0.330
    1UNL    C25   36  -0.163   0.092   0.300
    1UNL    C26   37  -0.118   0.173   0.200
    1UNL    C27   38  -0.018   0.136   0.117
    1UNL    C28   39   0.164   0.067  -0.193
    1UNL    C29   40   0.247  -0.056  -0.227
    1UNL    C30   41   0.387  -0.043  -0.160
    1UNL    C31   42   0.499  -0.063  -0.261
    1UNL    C32   43   0.504   0.004  -0.390
    1UNL    O10   44   0.597  -0.001  -0.465
    1UNL    O11   45   0.396   0.073  -0.409
    1UNL    C33   46   0.379   0.136  -0.534
    1UNL    C34   47   0.614  -0.133  -0.229
    1UNL    O12   48   0.642  -0.187  -0.106
    1UNL    C35   49   0.562  -0.142  -0.003
    1UNL    O13   50   0.586  -0.187   0.126
    1UNL    C36   51   0.516  -0.117   0.230
    1UNL    O14   52   0.377  -0.162   0.240
    1UNL    C37   53   0.315  -0.139   0.371
    1UNL    C38   54   0.303  -0.264   0.457
    1UNL    O15   55   0.243  -0.247   0.583
    1UNL    C39   56   0.380  -0.022   0.440
    1UNL    O16   57   0.289   0.039   0.530
    1UNL    C40   58   0.409   0.087   0.331
    1UNL    O17   59   0.286   0.132   0.264
    1UNL    C41   60   0.516   0.038   0.228
    1UNL    O18   61   0.495   0.094   0.109
    1UNL    C42   62   0.414  -0.145  -0.037
    1UNL    C43   63   0.369  -0.279  -0.064
    1UNL    C44   64   0.369  -0.370   0.032
    1UNL     H1   65  -0.483   0.145  -0.263
    1UNL     H2   66  -0.536   0.034  -0.398
    1UNL     H3   67  -0.392  -0.147  -0.313
    1UNL     H4   68  -0.249   0.100  -0.195
    1UNL     H5   69  -0.246   0.041   0.020
    1UNL     H6   70  -0.572  -0.001  -0.113
    1UNL     H7   71  -0.512   0.272   0.075
    1UNL     H8   72  -0.784   0.408   0.004
    1UNL     H9   73  -0.612   0.442  -0.077
    1UNL    H10   74  -0.680   0.603   0.082
    1UNL    H11   75  -0.781   0.200   0.183
    1UNL    H12   76  -0.658   0.409   0.265
    1UNL    H13   77  -0.633   0.036   0.319
    1UNL    H14   78  -0.418   0.081   0.184
    1UNL    H15   79  -0.554  -0.101   0.136
    1UNL    H16   80  -0.802   0.023   0.070
    1UNL    H17   81  -0.293  -0.309   0.065
    1UNL    H18   82   0.107  -0.391   0.079
    1UNL    H19   83   0.077  -0.499  -0.061
    1UNL    H20   84   0.021  -0.564   0.096
    1UNL    H21   85  -0.082  -0.026  -0.130
    1UNL    H22   86  -0.006  -0.193  -0.313
    1UNL    H23   87  -0.178  -0.169  -0.383
    1UNL    H24   88   0.042  -0.034  -0.457
    1UNL    H25   89  -0.096   0.052  -0.447
    1UNL    H26   90   0.077   0.295  -0.285
    1UNL    H27   91  -0.083   0.243  -0.332
    1UNL    H28   92  -0.053   0.357  -0.084
    1UNL    H29   93  -0.156   0.222  -0.104
    1UNL    H30   94   0.151  -0.122   0.011
    1UNL    H31   95   0.037  -0.168   0.267
    1UNL    H32   96  -0.132  -0.082   0.427
    1UNL    H33   97  -0.239   0.125   0.365
    1UNL    H34   98  -0.162   0.272   0.171
    1UNL    H35   99   0.226   0.160  -0.198
    1UNL    H36  100   0.257  -0.055  -0.333
    1UNL    H37  101   0.206  -0.147  -0.198
    1UNL    H38  102   0.402   0.060  -0.121
    1UNL    H39  103   0.429   0.234  -0.539
    1UNL    H40  104   0.412   0.065  -0.609
    1UNL    H41  105   0.272   0.155  -0.545
    1UNL    H42  106   0.703  -0.155  -0.300
    1UNL    H43  107   0.591  -0.035  -0.010
    1UNL    H44  108   0.566  -0.155   0.326
    1UNL    H45  109   0.212  -0.102   0.353
    1UNL    H46  110   0.241  -0.335   0.406
    1UNL    H47  111   0.397  -0.309   0.481
    1UNL    H48  112   0.271  -0.179   0.645
    1UNL    H49  113   0.472  -0.055   0.500
    1UNL    H50  114   0.205   0.066   0.482
    1UNL    H51  115   0.438   0.176   0.391
    1UNL    H52  116   0.247   0.069   0.199
    1UNL    H53  117   0.627   0.067   0.254
    1UNL    H54  118   0.491   0.195   0.113
    1UNL    H55  119   0.353  -0.113   0.047
    1UNL    H56  120   0.341  -0.304  -0.166
    1UNL    H57  121   0.344  -0.470   0.010
    1UNL    H58  122   0.402  -0.346   0.136
   0.00000   0.00000   0.00000   0.00000   0.00000   0.00000   0.00000   0.00000   0.00000
Generated with MDTraj, t= 94.0
 122
    1UNL     C1    1  -0.455   0.013  -0.331
    1UNL     C2    2  -0.364  -0.063  -0.275
    1UNL     C3    3  -0.269  -0.006  -0.179
    1UNL     C4    4  -0.337  -0.004  -0.038
    1UNL     O1    5  -0.424   0.105  -0.013
    1UNL     C5    6  -0.565   0.074  -0.024
    1UNL     O2    7  -0.655   0.187  -0.040
    1UNL     C6    8  -0.632   0.278   0.065
    1UNL     C7    9  -0.699   0.415   0.048
    1UNL     O3   10  -0.638   0.513   0.129
    1UNL     C8   11  -0.684   0.221   0.197
    1UNL     O4   12  -0.665   0.312   0.303
    1UNL     C9   13  -0.617   0.083   0.229
    1UNL     O5   14  -0.487   0.091   0.279
    1UNL    C10   15  -0.613  -0.004   0.104
    1UNL     O6   16  -0.734  -0.073   0.082
    1UNL     O7   17  -0.391  -0.134  -0.009
    1UNL    C11   18  -0.280  -0.217  -0.012
    1UNL    C12   19  -0.159  -0.206  -0.076
    1UNL    C13   20  -0.051  -0.300  -0.040
    1UNL     O8   21   0.065  -0.276  -0.082
    1UNL     O9   22  -0.089  -0.416   0.029
    1UNL    C14   23   0.011  -0.511   0.028
    1UNL    C15   24  -0.132  -0.079  -0.159
    1UNL    C16   25  -0.066  -0.109  -0.288
    1UNL    C17   26  -0.020   0.014  -0.373
    1UNL     N1   27   0.056   0.119  -0.300
    1UNL    C18   28  -0.029   0.237  -0.260
    1UNL    C19   29  -0.006   0.285  -0.115
    1UNL    C20   30   0.032   0.180  -0.018
    1UNL    C21   31   0.122   0.083  -0.059
    1UNL     N2   32   0.115  -0.029   0.026
    1UNL    C22   33   0.028   0.005   0.126
    1UNL    C23   34  -0.007  -0.064   0.243
    1UNL    C24   35  -0.090  -0.001   0.335
    1UNL    C25   36  -0.141   0.124   0.309
    1UNL    C26   37  -0.118   0.190   0.195
    1UNL    C27   38  -0.028   0.132   0.107
    1UNL    C28   39   0.175   0.088  -0.206
    1UNL    C29   40   0.248  -0.044  -0.222
    1UNL    C30   41   0.388  -0.040  -0.170
    1UNL    C31   42   0.497  -0.066  -0.267
    1UNL    C32   43   0.494  -0.015  -0.399
    1UNL    O10   44   0.580  -0.054  -0.474
    1UNL    O11   45   0.398   0.077  -0.430
    1UNL    C33   46   0.421   0.136  -0.561
    1UNL    C34   47   0.604  -0.149  -0.238
    1UNL    O12   48   0.640  -0.196  -0.115
    1UNL    C35   49   0.560  -0.135  -0.010
    1UNL    O13   50   0.588  -0.178   0.126
    1UNL    C36   51   0.509  -0.114   0.227
    1UNL    O14   52   0.376  -0.172   0.237
    1UNL    C37   53   0.317  -0.140   0.370
    1UNL    C38   54   0.308  -0.260   0.458
    1UNL    O15   55   0.206  -0.247   0.557
    1UNL    C39   56   0.367  -0.014   0.447
    1UNL    O16   57   0.256   0.023   0.533
    1UNL    C40   58   0.413   0.096   0.346
    1UNL    O17   59   0.301   0.154   0.289
    1UNL    C41   60   0.508   0.042   0.231
    1UNL    O18   61   0.473   0.098   0.117
    1UNL    C42   62   0.404  -0.139  -0.047
    1UNL    C43   63   0.368  -0.282  -0.071
    1UNL    C44   64   0.373  -0.376   0.026
    1UNL     H1   65  -0.467   0.114  -0.293
    1UNL     H2   66  -0.539  -0.014  -0.389
    1UNL     H3   67  -0.354  -0.164  -0.300
    1UNL     H4   68  -0.247   0.096  -0.210
    1UNL     H5   69  -0.247   0.019   0.032
    1UNL     H6   70  -0.576   0.010  -0.125
    1UNL     H7   71  -0.520   0.284   0.067
    1UNL     H8   72  -0.806   0.408   0.078
    1UNL     H9   73  -0.677   0.444  -0.057
    1UNL    H10   74  -0.678   0.600   0.112
    1UNL    H11   75  -0.789   0.221   0.182
    1UNL    H12   76  -0.639   0.392   0.260
    1UNL    H13   77  -0.675   0.036   0.317
    1UNL    H14   78  -0.418   0.091   0.204
    1UNL    H15   79  -0.534  -0.082   0.127
    1UNL    H16   80  -0.800  -0.005   0.060
    1UNL    H17   81  -0.302  -0.294   0.057
    1UNL    H18   82   0.062  -0.500   0.127
    1UNL    H19   83   0.072  -0.485  -0.054
    1UNL    H20   84  -0.040  -0.605   0.010
    1UNL    H21   85  -0.070  -0.021  -0.100
    1UNL    H22   86   0.021  -0.176  -0.266
    1UNL    H23   87  -0.132  -0.156  -0.365
    1UNL    H24   88   0.035  -0.018  -0.457
    1UNL    H25   89  -0.101   0.059  -0.430
    1UNL    H26   90  -0.005   0.320  -0.322
    1UNL    H27   91  -0.132   0.211  -0.273
    1UNL    H28   92   0.081   0.353  -0.113
    1UNL    H29   93  -0.088   0.338  -0.074
    1UNL    H30   94   0.145  -0.123   0.011
    1UNL    H31   95   0.039  -0.166   0.264
    1UNL    H32   96  -0.105  -0.046   0.429
    1UNL    H33   97  -0.203   0.182   0.383
    1UNL    H34   98  -0.157   0.287   0.191
    1UNL    H35   99   0.240   0.176  -0.215
    1UNL    H36  100   0.262  -0.059  -0.325
    1UNL    H37  101   0.190  -0.127  -0.181
    1UNL    H38  102   0.405   0.065  -0.122
    1UNL    H39  103   0.516   0.188  -0.565
    1UNL    H40  104   0.416   0.051  -0.626
    1UNL    H41  105   0.343   0.210  -0.581
    1UNL    H42  106   0.668  -0.171  -0.319
    1UNL    H43  107   0.602  -0.032  -0.017
    1UNL    H44  108   0.563  -0.147   0.325
    1UNL    H45  109   0.217  -0.110   0.333
    1UNL    H46  110   0.294  -0.352   0.405
    1UNL    H47  111   0.402  -0.258   0.512
    1UNL    H48  112   0.222  -0.170   0.620
    1UNL    H49  113   0.456  -0.046   0.512
    1UNL    H50  114   0.221   0.104   0.489
    1UNL    H51  115   0.460   0.174   0.414
    1UNL    H52  116   0.263   0.098   0.219
    1UNL    H53  117   0.615   0.074   0.253
    1UNL    H54  118   0.460   0.192   0.130
    1UNL    H55  119   0.352  -0.107   0.042
    1UNL    H56  120   0.338  -0.305  -0.172
    1UNL    H57  121   0.366  -0.479  -0.002
    1UNL    H58  122   0.421  -0.352   0.118
   0.00000   0.00000   0.00000   0.00000   0.00000   0.00000   0.00000   0.00000   0.00000
Generated with MDTraj, t= 95.0
 122
    1UNL     C1    1  -0.407  -0.019  -0.367
    1UNL     C2    2  -0.360  -0.072  -0.259
    1UNL     C3    3  -0.276  -0.007  -0.159
    1UNL     C4    4  -0.336  -0.003  -0.022
    1UNL     O1    5  -0.428   0.105  -0.003
    1UNL     C5    6  -0.562   0.071  -0.020
    1UNL     O2    7  -0.648   0.183  -0.034
    1UNL     C6    8  -0.633   0.268   0.078
    1UNL     C7    9  -0.704   0.406   0.042
    1UNL     O3   10  -0.663   0.508   0.131
    1UNL     C8   11  -0.678   0.199   0.219
    1UNL     O4   12  -0.648   0.287   0.324
    1UNL     C9   13  -0.606   0.055   0.234
    1UNL     O5   14  -0.469   0.070   0.268
    1UNL    C10   15  -0.617  -0.018   0.095
    1UNL     O6   16  -0.750  -0.054   0.063
    1UNL     O7   17  -0.383  -0.136   0.008
    1UNL    C11   18  -0.289  -0.227  -0.002
    1UNL    C12   19  -0.165  -0.212  -0.067
    1UNL    C13   20  -0.058  -0.315  -0.043
    1UNL     O8   21   0.057  -0.282  -0.076
    1UNL     O9   22  -0.104  -0.439   0.004
    1UNL    C14   23   0.008  -0.512   0.041
    1UNL    C15   24  -0.141  -0.088  -0.145
    1UNL    C16   25  -0.073  -0.111  -0.281
    1UNL    C17   26  -0.020   0.025  -0.339
    1UNL     N1   27   0.059   0.116  -0.254
    1UNL    C18   28   0.021   0.265  -0.241
    1UNL    C19   29   0.002   0.306  -0.094
    1UNL    C20   30   0.068   0.202   0.006
    1UNL    C21   31   0.150   0.093  -0.031
    1UNL     N2   32   0.128  -0.008   0.057
    1UNL    C22   33   0.038   0.029   0.155
    1UNL    C23   34  -0.036  -0.042   0.255
    1UNL    C24   35  -0.135   0.029   0.321
    1UNL    C25   36  -0.171   0.159   0.302
    1UNL    C26   37  -0.097   0.228   0.200
    1UNL    C27   38   0.005   0.166   0.128
    1UNL    C28   39   0.186   0.079  -0.180
    1UNL    C29   40   0.256  -0.038  -0.236
    1UNL    C30   41   0.403  -0.042  -0.185
    1UNL    C31   42   0.506  -0.083  -0.282
    1UNL    C32   43   0.505  -0.037  -0.420
    1UNL    O10   44   0.571  -0.101  -0.498
    1UNL    O11   45   0.439   0.078  -0.442
    1UNL    C33   46   0.440   0.122  -0.581
    1UNL    C34   47   0.614  -0.153  -0.243
    1UNL    O12   48   0.647  -0.180  -0.112
    1UNL    C35   49   0.559  -0.120  -0.011
    1UNL    O13   50   0.573  -0.175   0.116
    1UNL    C36   51   0.491  -0.122   0.215
    1UNL    O14   52   0.353  -0.160   0.218
    1UNL    C37   53   0.285  -0.130   0.347
    1UNL    C38   54   0.275  -0.262   0.417
    1UNL    O15   55   0.213  -0.247   0.543
    1UNL    C39   56   0.340  -0.014   0.429
    1UNL    O16   57   0.246   0.025   0.529
    1UNL    C40   58   0.401   0.093   0.338
    1UNL    O17   59   0.294   0.163   0.276
    1UNL    C41   60   0.503   0.034   0.221
    1UNL    O18   61   0.449   0.089   0.100
    1UNL    C42   62   0.418  -0.131  -0.053
    1UNL    C43   63   0.363  -0.270  -0.076
    1UNL    C44   64   0.379  -0.363   0.019
    1UNL     H1   65  -0.376   0.083  -0.389
    1UNL     H2   66  -0.484  -0.052  -0.434
    1UNL     H3   67  -0.388  -0.178  -0.233
    1UNL     H4   68  -0.259   0.098  -0.187
    1UNL     H5   69  -0.256   0.011   0.064
    1UNL     H6   70  -0.568   0.006  -0.121
    1UNL     H7   71  -0.523   0.286   0.082
    1UNL     H8   72  -0.810   0.386   0.054
    1UNL     H9   73  -0.672   0.426  -0.061
    1UNL    H10   74  -0.695   0.591   0.087
    1UNL    H11   75  -0.785   0.182   0.226
    1UNL    H12   76  -0.622   0.378   0.285
    1UNL    H13   77  -0.666  -0.009   0.304
    1UNL    H14   78  -0.427   0.079   0.180
    1UNL    H15   79  -0.570  -0.123   0.102
    1UNL    H16   80  -0.797   0.029   0.023
    1UNL    H17   81  -0.293  -0.314   0.057
    1UNL    H18   82   0.080  -0.433   0.073
    1UNL    H19   83   0.041  -0.566  -0.044
    1UNL    H20   84  -0.021  -0.578   0.122
    1UNL    H21   85  -0.070  -0.025  -0.091
    1UNL    H22   86   0.019  -0.171  -0.271
    1UNL    H23   87  -0.148  -0.170  -0.340
    1UNL    H24   88   0.023   0.027  -0.437
    1UNL    H25   89  -0.100   0.086  -0.368
    1UNL    H26   90   0.105   0.311  -0.281
    1UNL    H27   91  -0.068   0.295  -0.297
    1UNL    H28   92   0.052   0.403  -0.074
    1UNL    H29   93  -0.099   0.320  -0.070
    1UNL    H30   94   0.138  -0.104   0.030
    1UNL    H31   95  -0.027  -0.142   0.282
    1UNL    H32   96  -0.205  -0.022   0.388
    1UNL    H33   97  -0.247   0.206   0.357
    1UNL    H34   98  -0.124   0.333   0.177
    1UNL    H35   99   0.245   0.164  -0.213
    1UNL    H36  100   0.254  -0.033  -0.341
    1UNL    H37  101   0.197  -0.126  -0.199
    1UNL    H38  102   0.431   0.069  -0.150
    1UNL    H39  103   0.542   0.120  -0.621
    1UNL    H40  104   0.377   0.050  -0.631
    1UNL    H41  105   0.401   0.224  -0.587
    1UNL    H42  106   0.683  -0.180  -0.315
    1UNL    H43  107   0.589  -0.012  -0.005
    1UNL    H44  108   0.537  -0.170   0.312
    1UNL    H45  109   0.181  -0.095   0.320
    1UNL    H46  110   0.205  -0.323   0.360
    1UNL    H47  111   0.374  -0.309   0.429
    1UNL    H48  112   0.219  -0.154   0.567
    1UNL    H49  113   0.425  -0.065   0.491
    1UNL    H50  114   0.219   0.118   0.518
    1UNL    H51  115   0.455   0.171   0.406
    1UNL    H52  116   0.248   0.112   0.198
    1UNL    H53  117   0.612   0.060   0.226
    1UNL    H54  118   0.438   0.188   0.107
    1UNL    H55  119   0.369  -0.092   0.036
    1UNL    H56  120   0.306  -0.290  -0.167
    1UNL    H57  121   0.317  -0.455   0.011
    1UNL    H58  122   0.443  -0.343   0.100
   0.00000   0.00000   0.00000   0.00000   0.00000   0.00000   0.00000   0.00000   0.00000
Generated with MDTraj, t= 96.0
 122
    1UNL     C1    1  -0.353  -0.029  -0.377
    1UNL     C2    2  -0.343  -0.074  -0.256
    1UNL     C3    3  -0.272   0.002  -0.147
    1UNL     C4    4  -0.333   0.001  -0.010
    1UNL     O1    5  -0.430   0.107   0.004
    1UNL     C5    6  -0.561   0.065  -0.025
    1UNL     O2    7  -0.652   0.177  -0.031
    1UNL     C6    8  -0.638   0.258   0.081
    1UNL     C7    9  -0.702   0.401   0.052
    1UNL     O3   10  -0.694   0.481   0.166
    1UNL     C8   11  -0.672   0.190   0.223
    1UNL     O4   12  -0.628   0.270   0.325
    1UNL     C9   13  -0.606   0.052   0.227
    1UNL     O5   14  -0.468   0.068   0.267
    1UNL    C10   15  -0.623  -0.024   0.086
    1UNL     O6   16  -0.759  -0.052   0.061
    1UNL     O7   17  -0.376  -0.134   0.029
    1UNL    C11   18  -0.269  -0.223   0.020
    1UNL    C12   19  -0.154  -0.200  -0.048
    1UNL    C13   20  -0.043  -0.302  -0.035
    1UNL     O8   21   0.070  -0.278  -0.084
    1UNL     O9   22  -0.086  -0.425   0.014
    1UNL    C14   23   0.023  -0.510   0.020
    1UNL    C15   24  -0.137  -0.075  -0.132
    1UNL    C16   25  -0.060  -0.093  -0.265
    1UNL    C17   26  -0.009   0.036  -0.330
    1UNL     N1   27   0.070   0.133  -0.255
    1UNL    C18   28   0.019   0.279  -0.222
    1UNL    C19   29   0.052   0.330  -0.078
    1UNL    C20   30   0.061   0.209   0.015
    1UNL    C21   31   0.128   0.094  -0.025
    1UNL     N2   32   0.096  -0.010   0.060
    1UNL    C22   33   0.001   0.038   0.143
    1UNL    C23   34  -0.069  -0.028   0.244
    1UNL    C24   35  -0.164   0.038   0.318
    1UNL    C25   36  -0.174   0.178   0.304
    1UNL    C26   37  -0.105   0.249   0.215
    1UNL    C27   38  -0.018   0.177   0.130
    1UNL    C28   39   0.191   0.099  -0.170
    1UNL    C29   40   0.263  -0.021  -0.234
    1UNL    C30   41   0.403  -0.037  -0.177
    1UNL    C31   42   0.510  -0.085  -0.272
    1UNL    C32   43   0.505  -0.059  -0.418
    1UNL    O10   44   0.561  -0.138  -0.491
    1UNL    O11   45   0.433   0.051  -0.455
    1UNL    C33   46   0.443   0.087  -0.590
    1UNL    C34   47   0.611  -0.170  -0.236
    1UNL    O12   48   0.650  -0.200  -0.108
    1UNL    C35   49   0.565  -0.131  -0.013
    1UNL    O13   50   0.578  -0.176   0.118
    1UNL    C36   51   0.497  -0.109   0.210
    1UNL    O14   52   0.361  -0.155   0.206
    1UNL    C37   53   0.274  -0.133   0.326
    1UNL    C38   54   0.258  -0.268   0.399
    1UNL    O15   55   0.182  -0.247   0.518
    1UNL    C39   56   0.333  -0.016   0.421
    1UNL    O16   57   0.229   0.030   0.508
    1UNL    C40   58   0.384   0.092   0.322
    1UNL    O17   59   0.291   0.164   0.247
    1UNL    C41   60   0.500   0.047   0.219
    1UNL    O18   61   0.471   0.102   0.094
    1UNL    C42   62   0.414  -0.138  -0.057
    1UNL    C43   63   0.376  -0.278  -0.093
    1UNL    C44   64   0.376  -0.380  -0.007
    1UNL     H1   65  -0.295   0.047  -0.420
    1UNL     H2   66  -0.404  -0.092  -0.449
    1UNL     H3   67  -0.398  -0.159  -0.232
    1UNL     H4   68  -0.255   0.106  -0.177
    1UNL     H5   69  -0.256   0.015   0.080
    1UNL     H6   70  -0.551   0.009  -0.128
    1UNL     H7   71  -0.531   0.283   0.082
    1UNL     H8   72  -0.804   0.382   0.017
    1UNL     H9   73  -0.638   0.447  -0.024
    1UNL    H10   74  -0.746   0.564   0.148
    1UNL    H11   75  -0.782   0.183   0.239
    1UNL    H12   76  -0.651   0.363   0.300
    1UNL    H13   77  -0.654   0.001   0.312
    1UNL    H14   78  -0.419   0.103   0.193
    1UNL    H15   79  -0.564  -0.120   0.104
    1UNL    H16   80  -0.801   0.024   0.021
    1UNL    H17   81  -0.285  -0.318   0.075
    1UNL    H18   82   0.108  -0.445   0.056
    1UNL    H19   83   0.042  -0.553  -0.077
    1UNL    H20   84   0.001  -0.587   0.094
    1UNL    H21   85  -0.068  -0.008  -0.074
    1UNL    H22   86   0.012  -0.171  -0.244
    1UNL    H23   87  -0.126  -0.134  -0.346
    1UNL    H24   88   0.032   0.024  -0.428
    1UNL    H25   89  -0.082   0.098  -0.366
    1UNL    H26   90   0.054   0.349  -0.289
    1UNL    H27   91  -0.089   0.272  -0.237
    1UNL    H28   92   0.146   0.390  -0.077
    1UNL    H29   93  -0.023   0.390  -0.038
    1UNL    H30   94   0.101  -0.116   0.033
    1UNL    H31   95  -0.070  -0.137   0.239
    1UNL    H32   96  -0.225  -0.021   0.388
    1UNL    H33   97  -0.249   0.222   0.371
    1UNL    H34   98  -0.114   0.355   0.213
    1UNL    H35   99   0.266   0.177  -0.173
    1UNL    H36  100   0.267  -0.000  -0.338
    1UNL    H37  101   0.198  -0.110  -0.221
    1UNL    H38  102   0.440   0.073  -0.146
    1UNL    H39  103   0.548   0.120  -0.609
    1UNL    H40  104   0.413   0.001  -0.649
    1UNL    H41  105   0.372   0.172  -0.603
    1UNL    H42  106   0.673  -0.230  -0.313
    1UNL    H43  107   0.590  -0.019  -0.017
    1UNL    H44  108   0.538  -0.141   0.316
    1UNL    H45  109   0.170  -0.094   0.305
    1UNL    H46  110   0.200  -0.340   0.338
    1UNL    H47  111   0.354  -0.309   0.440
    1UNL    H48  112   0.174  -0.148   0.532
    1UNL    H49  113   0.416  -0.058   0.491
    1UNL    H50  114   0.163   0.092   0.463
    1UNL    H51  115   0.432   0.180   0.383
    1UNL    H52  116   0.229   0.105   0.202
    1UNL    H53  117   0.594   0.092   0.250
    1UNL    H54  118   0.440   0.193   0.113
    1UNL    H55  119   0.349  -0.096   0.017
    1UNL    H56  120   0.379  -0.306  -0.198
    1UNL    H57  121   0.376  -0.485  -0.030
    1UNL    H58  122   0.384  -0.343   0.093
   0.00000   0.00000   0.00000   0.00000   0.00000   0.00000   0.00000   0.00000   0.00000
Generated with MDTraj, t= 97.0
 122
    1UNL     C1    1  -0.373  -0.044  -0.382
    1UNL     C2    2  -0.359  -0.073  -0.256
    1UNL     C3    3  -0.268   0.010  -0.159
    1UNL     C4    4  -0.325   0.015  -0.017
    1UNL     O1    5  -0.427   0.118   0.006
    1UNL     C5    6  -0.559   0.081  -0.020
    1UNL     O2    7  -0.656   0.186  -0.024
    1UNL     C6    8  -0.644   0.262   0.088
    1UNL     C7    9  -0.733   0.393   0.082
    1UNL     O3   10  -0.705   0.483   0.187
    1UNL     C8   11  -0.683   0.184   0.221
    1UNL     O4   12  -0.653   0.258   0.331
    1UNL     C9   13  -0.618   0.049   0.228
    1UNL     O5   14  -0.484   0.049   0.284
    1UNL    C10   15  -0.607  -0.014   0.087
    1UNL     O6   16  -0.727  -0.079   0.067
    1UNL     O7   17  -0.358  -0.117   0.029
    1UNL    C11   18  -0.250  -0.202   0.006
    1UNL    C12   19  -0.135  -0.183  -0.066
    1UNL    C13   20  -0.023  -0.275  -0.044
    1UNL     O8   21   0.089  -0.249  -0.092
    1UNL     O9   22  -0.060  -0.393   0.021
    1UNL    C14   23   0.035  -0.490   0.007
    1UNL    C15   24  -0.124  -0.055  -0.147
    1UNL    C16   25  -0.060  -0.077  -0.282
    1UNL    C17   26   0.010   0.052  -0.344
    1UNL     N1   27   0.087   0.145  -0.256
    1UNL    C18   28   0.021   0.280  -0.214
    1UNL    C19   29   0.026   0.322  -0.073
    1UNL    C20   30   0.065   0.204   0.015
    1UNL    C21   31   0.137   0.093  -0.029
    1UNL     N2   32   0.127  -0.008   0.066
    1UNL    C22   33   0.030   0.036   0.165
    1UNL    C23   34  -0.047  -0.032   0.260
    1UNL    C24   35  -0.148   0.032   0.320
    1UNL    C25   36  -0.181   0.170   0.289
    1UNL    C26   37  -0.109   0.241   0.199
    1UNL    C27   38  -0.001   0.171   0.132
    1UNL    C28   39   0.193   0.100  -0.167
    1UNL    C29   40   0.271  -0.027  -0.225
    1UNL    C30   41   0.412  -0.047  -0.171
    1UNL    C31   42   0.508  -0.092  -0.273
    1UNL    C32   43   0.494  -0.072  -0.415
    1UNL    O10   44   0.573  -0.136  -0.485
    1UNL    O11   45   0.396   0.015  -0.468
    1UNL    C33   46   0.406   0.045  -0.606
    1UNL    C34   47   0.612  -0.171  -0.238
    1UNL    O12   48   0.644  -0.199  -0.109
    1UNL    C35   49   0.564  -0.141  -0.002
    1UNL    O13   50   0.578  -0.193   0.130
    1UNL    C36   51   0.495  -0.121   0.217
    1UNL    O14   52   0.364  -0.167   0.206
    1UNL    C37   53   0.275  -0.145   0.324
    1UNL    C38   54   0.242  -0.261   0.410
    1UNL    O15   55   0.124  -0.240   0.489
    1UNL    C39   56   0.303  -0.016   0.411
    1UNL    O16   57   0.186   0.046   0.458
    1UNL    C40   58   0.381   0.090   0.322
    1UNL    O17   59   0.298   0.167   0.236
    1UNL    C41   60   0.503   0.038   0.227
    1UNL    O18   61   0.492   0.102   0.101
    1UNL    C42   62   0.417  -0.143  -0.047
    1UNL    C43   63   0.375  -0.279  -0.071
    1UNL    C44   64   0.391  -0.378   0.016
    1UNL     H1   65  -0.320   0.041  -0.424
    1UNL     H2   66  -0.440  -0.098  -0.447
    1UNL     H3   67  -0.388  -0.171  -0.209
    1UNL     H4   68  -0.259   0.115  -0.190
    1UNL     H5   69  -0.240   0.045   0.061
    1UNL     H6   70  -0.558   0.030  -0.124
    1UNL     H7   71  -0.541   0.294   0.085
    1UNL     H8   72  -0.837   0.360   0.089
    1UNL     H9   73  -0.705   0.443  -0.012
    1UNL    H10   74  -0.764   0.559   0.195
    1UNL    H11   75  -0.797   0.173   0.208
    1UNL    H12   76  -0.649   0.351   0.303
    1UNL    H13   77  -0.680  -0.020   0.280
    1UNL    H14   78  -0.423   0.103   0.227
    1UNL    H15   79  -0.529  -0.097   0.085
    1UNL    H16   80  -0.794  -0.015   0.041
    1UNL    H17   81  -0.260  -0.291   0.075
    1UNL    H18   82   0.100  -0.488   0.100
    1UNL    H19   83   0.093  -0.481  -0.086
    1UNL    H20   84  -0.015  -0.586   0.001
    1UNL    H21   85  -0.062   0.016  -0.081
    1UNL    H22   86   0.020  -0.145  -0.274
    1UNL    H23   87  -0.141  -0.113  -0.354
    1UNL    H24   88   0.077   0.038  -0.426
    1UNL    H25   89  -0.058   0.104  -0.402
    1UNL    H26   90   0.058   0.349  -0.282
    1UNL    H27   91  -0.087   0.274  -0.233
    1UNL    H28   92   0.104   0.400  -0.059
    1UNL    H29   93  -0.063   0.369  -0.044
    1UNL    H30   94   0.121  -0.105   0.025
    1UNL    H31   95  -0.035  -0.143   0.265
    1UNL    H32   96  -0.218  -0.028   0.376
    1UNL    H33   97  -0.253   0.215   0.353
    1UNL    H34   98  -0.127   0.342   0.178
    1UNL    H35   99   0.274   0.171  -0.161
    1UNL    H36  100   0.265  -0.023  -0.334
    1UNL    H37  101   0.214  -0.113  -0.196
    1UNL    H38  102   0.452   0.055  -0.124
    1UNL    H39  103   0.513   0.072  -0.617
    1UNL    H40  104   0.380  -0.042  -0.666
    1UNL    H41  105   0.335   0.128  -0.625
    1UNL    H42  106   0.680  -0.203  -0.318
    1UNL    H43  107   0.593  -0.030   0.004
    1UNL    H44  108   0.530  -0.154   0.325
    1UNL    H45  109   0.177  -0.111   0.283
    1UNL    H46  110   0.214  -0.346   0.343
    1UNL    H47  111   0.335  -0.280   0.474
    1UNL    H48  112   0.141  -0.153   0.528
    1UNL    H49  113   0.371  -0.046   0.500
    1UNL    H50  114   0.150   0.091   0.379
    1UNL    H51  115   0.438   0.164   0.391
    1UNL    H52  116   0.259   0.103   0.176
    1UNL    H53  117   0.599   0.065   0.263
    1UNL    H54  118   0.452   0.191   0.123
    1UNL    H55  119   0.356  -0.094   0.025
    1UNL    H56  120   0.311  -0.305  -0.153
    1UNL    H57  121   0.366  -0.479   0.001
    1UNL    H58  122   0.447  -0.352   0.109
   0.00000   0.00000   0.00000   0.00000   0.00000   0.00000   0.00000   0.00000   0.00000
Generated with MDTraj, t= 98.0
 122
    1UNL     C1    1  -0.407  -0.031  -0.363
    1UNL     C2    2  -0.370  -0.059  -0.241
    1UNL     C3    3  -0.276   0.018  -0.167
    1UNL     C4    4  -0.317   0.039  -0.018
    1UNL     O1    5  -0.417   0.140  -0.003
    1UNL     C5    6  -0.543   0.083  -0.024
    1UNL     O2    7  -0.649   0.184  -0.016
    1UNL     C6    8  -0.649   0.257   0.103
    1UNL     C7    9  -0.732   0.389   0.087
    1UNL     O3   10  -0.710   0.471   0.198
    1UNL     C8   11  -0.690   0.155   0.224
    1UNL     O4   12  -0.709   0.220   0.346
    1UNL     C9   13  -0.598   0.037   0.229
    1UNL     O5   14  -0.464   0.070   0.267
    1UNL    C10   15  -0.591  -0.026   0.086
    1UNL     O6   16  -0.717  -0.077   0.062
    1UNL     O7   17  -0.333  -0.083   0.048
    1UNL    C11   18  -0.244  -0.175   0.014
    1UNL    C12   19  -0.142  -0.169  -0.080
    1UNL    C13   20  -0.031  -0.266  -0.074
    1UNL     O8   21   0.073  -0.236  -0.130
    1UNL     O9   22  -0.054  -0.384  -0.010
    1UNL    C14   23   0.071  -0.439   0.022
    1UNL    C15   24  -0.135  -0.046  -0.163
    1UNL    C16   25  -0.072  -0.066  -0.296
    1UNL    C17   26  -0.010   0.062  -0.356
    1UNL     N1   27   0.074   0.141  -0.268
    1UNL    C18   28   0.043   0.288  -0.240
    1UNL    C19   29   0.010   0.319  -0.087
    1UNL    C20   30   0.057   0.206   0.005
    1UNL    C21   31   0.138   0.105  -0.042
    1UNL     N2   32   0.125  -0.003   0.046
    1UNL    C22   33   0.020   0.031   0.135
    1UNL    C23   34  -0.039  -0.054   0.226
    1UNL    C24   35  -0.123   0.005   0.320
    1UNL    C25   36  -0.156   0.143   0.311
    1UNL    C26   37  -0.112   0.221   0.207
    1UNL    C27   38  -0.011   0.162   0.123
    1UNL    C28   39   0.194   0.100  -0.174
    1UNL    C29   40   0.256  -0.034  -0.221
    1UNL    C30   41   0.407  -0.054  -0.163
    1UNL    C31   42   0.502  -0.109  -0.261
    1UNL    C32   43   0.495  -0.084  -0.408
    1UNL    O10   44   0.583  -0.126  -0.482
    1UNL    O11   45   0.384  -0.017  -0.456
    1UNL    C33   46   0.359  -0.014  -0.593
    1UNL    C34   47   0.610  -0.179  -0.216
    1UNL    O12   48   0.656  -0.206  -0.093
    1UNL    C35   49   0.578  -0.143   0.007
    1UNL    O13   50   0.593  -0.191   0.144
    1UNL    C36   51   0.501  -0.130   0.238
    1UNL    O14   52   0.369  -0.177   0.225
    1UNL    C37   53   0.269  -0.129   0.313
    1UNL    C38   54   0.212  -0.245   0.388
    1UNL    O15   55   0.105  -0.209   0.470
    1UNL    C39   56   0.310  -0.017   0.406
    1UNL    O16   57   0.185   0.046   0.451
    1UNL    C40   58   0.395   0.090   0.336
    1UNL    O17   59   0.311   0.170   0.259
    1UNL    C41   60   0.516   0.032   0.246
    1UNL    O18   61   0.496   0.094   0.122
    1UNL    C42   62   0.428  -0.140  -0.036
    1UNL    C43   63   0.372  -0.278  -0.058
    1UNL    C44   64   0.414  -0.383   0.017
    1UNL     H1   65  -0.396   0.073  -0.398
    1UNL     H2   66  -0.464  -0.092  -0.427
    1UNL     H3   67  -0.390  -0.147  -0.187
    1UNL     H4   68  -0.266   0.117  -0.211
    1UNL     H5   69  -0.220   0.095   0.024
    1UNL     H6   70  -0.548   0.039  -0.124
    1UNL     H7   71  -0.545   0.276   0.123
    1UNL     H8   72  -0.839   0.363   0.088
    1UNL     H9   73  -0.694   0.439  -0.005
    1UNL    H10   74  -0.770   0.548   0.205
    1UNL    H11   75  -0.798   0.114   0.216
    1UNL    H12   76  -0.736   0.319   0.332
    1UNL    H13   77  -0.638  -0.029   0.301
    1UNL    H14   78  -0.412   0.101   0.188
    1UNL    H15   79  -0.518  -0.113   0.074
    1UNL    H16   80  -0.780  -0.001   0.041
    1UNL    H17   81  -0.238  -0.263   0.076
    1UNL    H18   82   0.136  -0.362   0.070
    1UNL    H19   83   0.122  -0.485  -0.064
    1UNL    H20   84   0.063  -0.523   0.092
    1UNL    H21   85  -0.070   0.024  -0.104
    1UNL    H22   86   0.008  -0.136  -0.287
    1UNL    H23   87  -0.149  -0.101  -0.371
    1UNL    H24   88   0.042   0.031  -0.443
    1UNL    H25   89  -0.078   0.131  -0.402
    1UNL    H26   90   0.124   0.348  -0.268
    1UNL    H27   91  -0.037   0.313  -0.307
    1UNL    H28   92   0.053   0.416  -0.061
    1UNL    H29   93  -0.094   0.335  -0.077
    1UNL    H30   94   0.137  -0.094   0.013
    1UNL    H31   95  -0.021  -0.154   0.218
    1UNL    H32   96  -0.183  -0.055   0.391
    1UNL    H33   97  -0.227   0.185   0.384
    1UNL    H34   98  -0.128   0.334   0.199
    1UNL    H35   99   0.269   0.178  -0.192
    1UNL    H36  100   0.266  -0.036  -0.334
    1UNL    H37  101   0.183  -0.112  -0.194
    1UNL    H38  102   0.437   0.056  -0.145
    1UNL    H39  103   0.449   0.033  -0.633
    1UNL    H40  104   0.348  -0.111  -0.636
    1UNL    H41  105   0.266   0.044  -0.607
    1UNL    H42  106   0.665  -0.218  -0.292
    1UNL    H43  107   0.620  -0.036   0.017
    1UNL    H44  108   0.535  -0.171   0.342
    1UNL    H45  109   0.182  -0.085   0.257
    1UNL    H46  110   0.182  -0.320   0.310
    1UNL    H47  111   0.288  -0.287   0.462
    1UNL    H48  112   0.139  -0.130   0.521
    1UNL    H49  113   0.358  -0.064   0.501
    1UNL    H50  114   0.150   0.105   0.381
    1UNL    H51  115   0.423   0.157   0.424
    1UNL    H52  116   0.268   0.126   0.176
    1UNL    H53  117   0.612   0.059   0.287
    1UNL    H54  118   0.478   0.187   0.142
    1UNL    H55  119   0.382  -0.093   0.046
    1UNL    H56  120   0.278  -0.286  -0.113
    1UNL    H57  121   0.367  -0.479   0.008
    1UNL    H58  122   0.491  -0.384   0.091
   0.00000   0.00000   0.00000   0.00000   0.00000   0.00000   0.00000   0.00000   0.00000
Generated with MDTraj, t= 99.0
 122
    1UNL     C1    1  -0.436  -0.001  -0.341
    1UNL     C2    2  -0.367  -0.058  -0.246
    1UNL     C3    3  -0.268   0.028  -0.170
    1UNL     C4    4  -0.314   0.049  -0.023
    1UNL     O1    5  -0.413   0.146   0.002
    1UNL     C5    6  -0.540   0.091  -0.023
    1UNL     O2    7  -0.642   0.193  -0.020
    1UNL     C6    8  -0.663   0.256   0.110
    1UNL     C7    9  -0.740   0.385   0.109
    1UNL     O3   10  -0.731   0.460   0.232
    1UNL     C8   11  -0.708   0.145   0.223
    1UNL     O4   12  -0.706   0.204   0.352
    1UNL     C9   13  -0.605   0.036   0.218
    1UNL     O5   14  -0.472   0.090   0.250
    1UNL    C10   15  -0.590  -0.023   0.072
    1UNL     O6   16  -0.699  -0.099   0.029
    1UNL     O7   17  -0.323  -0.073   0.047
    1UNL    C11   18  -0.227  -0.166   0.016
    1UNL    C12   19  -0.128  -0.164  -0.078
    1UNL    C13   20  -0.021  -0.265  -0.069
    1UNL     O8   21   0.060  -0.283  -0.161
    1UNL     O9   22  -0.033  -0.346   0.039
    1UNL    C14   23   0.047  -0.459   0.028
    1UNL    C15   24  -0.127  -0.036  -0.163
    1UNL    C16   25  -0.062  -0.054  -0.299
    1UNL    C17   26  -0.002   0.075  -0.363
    1UNL     N1   27   0.085   0.158  -0.272
    1UNL    C18   28   0.059   0.302  -0.232
    1UNL    C19   29   0.013   0.316  -0.086
    1UNL    C20   30   0.058   0.202   0.005
    1UNL    C21   31   0.133   0.095  -0.041
    1UNL     N2   32   0.120  -0.014   0.044
    1UNL    C22   33   0.020   0.020   0.142
    1UNL    C23   34  -0.036  -0.056   0.239
    1UNL    C24   35  -0.124   0.007   0.327
    1UNL    C25   36  -0.162   0.144   0.307
    1UNL    C26   37  -0.112   0.214   0.201
    1UNL    C27   38  -0.010   0.157   0.126
    1UNL    C28   39   0.185   0.095  -0.178
    1UNL    C29   40   0.259  -0.038  -0.224
    1UNL    C30   41   0.409  -0.050  -0.170
    1UNL    C31   42   0.499  -0.113  -0.265
    1UNL    C32   43   0.491  -0.100  -0.412
    1UNL    O10   44   0.587  -0.154  -0.467
    1UNL    O11   45   0.390  -0.033  -0.481
    1UNL    C33   46   0.383  -0.057  -0.615
    1UNL    C34   47   0.607  -0.173  -0.215
    1UNL    O12   48   0.646  -0.187  -0.087
    1UNL    C35   49   0.563  -0.129   0.009
    1UNL    O13   50   0.585  -0.180   0.144
    1UNL    C36   51   0.496  -0.120   0.236
    1UNL    O14   52   0.364  -0.168   0.222
    1UNL    C37   53   0.266  -0.118   0.319
    1UNL    C38   54   0.203  -0.241   0.395
    1UNL    O15   55   0.081  -0.210   0.456
    1UNL    C39   56   0.327  -0.010   0.416
    1UNL    O16   57   0.229   0.033   0.518
    1UNL    C40   58   0.388   0.099   0.324
    1UNL    O17   59   0.289   0.158   0.241
    1UNL    C41   60   0.508   0.039   0.245
    1UNL    O18   61   0.500   0.099   0.124
    1UNL    C42   62   0.412  -0.133  -0.039
    1UNL    C43   63   0.363  -0.278  -0.062
    1UNL    C44   64   0.438  -0.382  -0.017
    1UNL     H1   65  -0.426   0.102  -0.372
    1UNL     H2   66  -0.507  -0.059  -0.398
    1UNL     H3   67  -0.408  -0.149  -0.197
    1UNL     H4   68  -0.252   0.128  -0.212
    1UNL     H5   69  -0.220   0.103   0.026
    1UNL     H6   70  -0.545   0.061  -0.123
    1UNL     H7   71  -0.559   0.277   0.137
    1UNL     H8   72  -0.844   0.367   0.076
    1UNL     H9   73  -0.691   0.450   0.035
    1UNL    H10   74  -0.791   0.540   0.222
    1UNL    H11   75  -0.817   0.127   0.196
    1UNL    H12   76  -0.709   0.299   0.338
    1UNL    H13   77  -0.623  -0.045   0.281
    1UNL    H14   78  -0.407   0.062   0.178
    1UNL    H15   79  -0.506  -0.098   0.078
    1UNL    H16   80  -0.785  -0.044   0.018
    1UNL    H17   81  -0.245  -0.253   0.072
    1UNL    H18   82   0.149  -0.443   0.065
    1UNL    H19   83   0.051  -0.500  -0.074
    1UNL    H20   84   0.009  -0.541   0.087
    1UNL    H21   85  -0.065   0.034  -0.115
    1UNL    H22   86   0.026  -0.118  -0.276
    1UNL    H23   87  -0.133  -0.112  -0.365
    1UNL    H24   88   0.058   0.059  -0.447
    1UNL    H25   89  -0.083   0.135  -0.412
    1UNL    H26   90   0.152   0.350  -0.251
    1UNL    H27   91  -0.010   0.346  -0.299
    1UNL    H28   92   0.048   0.415  -0.057
    1UNL    H29   93  -0.093   0.326  -0.086
    1UNL    H30   94   0.130  -0.106   0.018
    1UNL    H31   95  -0.014  -0.167   0.241
    1UNL    H32   96  -0.168  -0.056   0.397
    1UNL    H33   97  -0.235   0.188   0.368
    1UNL    H34   98  -0.132   0.314   0.186
    1UNL    H35   99   0.271   0.166  -0.185
    1UNL    H36  100   0.254  -0.054  -0.333
    1UNL    H37  101   0.209  -0.132  -0.187
    1UNL    H38  102   0.445   0.054  -0.166
    1UNL    H39  103   0.466  -0.003  -0.660
    1UNL    H40  104   0.393  -0.160  -0.637
    1UNL    H41  105   0.286  -0.022  -0.651
    1UNL    H42  106   0.688  -0.215  -0.281
    1UNL    H43  107   0.607  -0.023   0.018
    1UNL    H44  108   0.540  -0.168   0.333
    1UNL    H45  109   0.188  -0.066   0.261
    1UNL    H46  110   0.181  -0.328   0.330
    1UNL    H47  111   0.274  -0.276   0.475
    1UNL    H48  112   0.077  -0.115   0.478
    1UNL    H49  113   0.416  -0.069   0.460
    1UNL    H50  114   0.173   0.098   0.466
    1UNL    H51  115   0.423   0.184   0.385
    1UNL    H52  116   0.228   0.103   0.178
    1UNL    H53  117   0.612   0.058   0.279
    1UNL    H54  118   0.482   0.198   0.137
    1UNL    H55  119   0.353  -0.086   0.034
    1UNL    H56  120   0.286  -0.295  -0.131
    1UNL    H57  121   0.422  -0.488  -0.044
    1UNL    H58  122   0.522  -0.366   0.044
   0.00000   0.00000   0.00000   0.00000   0.00000   0.00000   0.00000   0.00000   0.00000
