[ moleculetype ]
; name        nrexcl
res           1

[ atoms ]
;    nr  type  resnr resid  atom  cgnr     charge       mass
      1 SN4a      1 res   C1        1      0.000     54.000
      2 TC5       1 res   C2        2      0.000     36.000
      3 TC5       1 res   C3        3      0.000     36.000
      4 TN6a      1 res   C4        4      0.000     36.000
      5 SC4       1 res   C5        5      0.000     54.000
      6 TC5       1 res   C6        6      0.000     36.000
      7 TC5       1 res   C7        7      0.000     36.000
      8 TC3       1 res   C8        8      0.000     36.000
      9 TN6d      1 res   C9        9      0.000     36.000
     10 TC3       1 res   C10      10      0.000     36.000

[ constraints ]
;  ai    aj   funct      b0(nm)
    2     3     1      0.29709
    4     5     1      0.15898
    2     9     1      0.28525
    5     7     1      0.30898
    3     4     1      0.25106
    5     8     1      0.33541
    5     6     1      0.27107
    9    10     1      0.24722
    6     7     1      0.29150
    2     4     1      0.22307
    2    10     1      0.28701

[ bonds ]
;  ai    aj   funct      b0(nm)          k(kJ/mol/nm^2)
    1     2     1      0.26294          14490.7
    8     9     1      0.27088          16940.5

[ angles ]
;  ai    aj    ak  funct     th0(deg)        k(kJ/mol/rad^2)
    1     2     3     1     77.17253           402.45
    1     2     4     1    119.72280           110.37
    1     2     9     1    146.95200           114.40
    1     2    10     1    103.96211           324.86
    2     3     4     1     47.10028          7024.08
    2     4     3     1     77.35288          2103.83
    2     4     5     1    138.18558          1814.42
    2     9     8     1     76.43170          1489.13
    2     9    10     1     64.75820          3786.78
    2    10     9     1     64.05921          2025.33
    3     2     4     1     55.54699          4339.85
    3     2     9     1    106.60548           114.48
    3     2    10     1     74.07603          1328.74
    3     4     5     1    142.77853           606.64
    4     2     9     1     84.60041           234.56
    4     2    10     1     96.34163           239.95
    4     5     6     1    165.75117          1250.16
    4     5     7     1    106.95489          2500.78
    4     5     8     1     83.60419          3683.71
    5     6     7     1     66.51453          6785.78
    5     7     6     1     53.57071         10301.18
    5     8     9     1     81.21102           236.35
    6     5     7     1     59.91476          6573.78
    6     5     8     1    108.77034          1587.69
    7     5     8     1    165.03894           409.41
    8     9    10     1    138.88489           563.77
    9     2    10     1     51.18259          3619.54

[ dihedrals ]
;  ai    aj    ak    al  funct   phi0(deg)        k(kJ/mol)   mult
    1     2     3     4     1    -42.54366       16.380      1
    1     2     4     3     1    134.95612       14.372      1
    1     2     4     5     1    -35.04276       17.127      1
    1     2     9     8     1     28.06719       20.207      1
    1     2     9    10     1   -150.37620       25.957      1
    1     2    10     9     1     19.10232       22.777      1
    2     3     4     5     1     -9.69209       17.624      1
    2     4     5     6     1     -0.67433       30.220      1
    2     4     5     7     1      1.12043       18.987      1
    2     4     5     8     1   -173.13496       12.885      1
    2     9     8     5     1    117.92257        9.340      1
    2    10     9     8     1   -179.61518       24.698      1
    3     2     4     5     1     10.22616       17.673      1
    3     2     9     8     1    -55.03121        8.563      1
    3     2     9    10     1    127.03234       15.818      1
    3     2    10     9     1    -53.38969       19.751      1
    3     4     2     9     1    -65.39479       12.937      1
    3     4     2    10     1   -116.04106       12.197      1
    3     4     5     6     1   -170.19265       28.871      1
    3     4     5     7     1   -165.01006       18.367      1
    3     4     5     8     1     18.94464       18.275      1
    4     2     9     8     1   -107.01439       10.053      1
    4     2     9    10     1     74.52826       15.723      1
    4     2    10     9     1   -103.88787       16.462      1
    4     3     2     9     1    108.17384        9.308      1
    4     3     2    10     1     67.63828       14.995      1
    4     5     6     7     1   -176.74348       27.951      1
    4     5     7     6     1      0.86469       11.493      1
    4     5     8     9     1   -129.08266       11.448      1
    5     4     2     9     1    122.08178       16.316      1
    5     4     2    10     1     74.24927       16.331      1
    5     8     9    10     1    120.37419       27.742      1
    6     5     8     9     1     52.80076       15.743      1
    6     7     5     8     1    164.40809       26.222      1
    7     5     8     9     1     66.71068       29.686      1
    7     6     5     8     1     -6.01568       16.425      1
    8     9     2    10     1     -1.94121       20.431      1
