1TPCN06170
38
    1res  C1    1    0.097  -0.481  -0.002
    1res  C2    2   -0.019  -0.336  -0.238
    1res  C3    3    0.192  -0.234  -0.090
    1res  C4    4   -0.093  -0.045  -0.143
    1res  C5    5   -0.262   0.046   0.134
    1res  C6    6   -0.359   0.259   0.162
    1res  C7    7   -0.609   0.377   0.050
    1res  C8    8   -0.636   0.619  -0.121
    1res  C9    9   -0.803   0.606   0.109
    1res  C10   10   -0.729   0.474   0.299
    1res  C11   11   -0.731   0.261   0.221
    1res  C12   12   -0.984   0.139   0.242
    1res  C13   13   -1.200   0.366   0.288
    1res  C14   14   -1.160   0.215   0.032
    1res  C15   15   -0.993   0.097  -0.060
    1res  C16   16   -0.886  -0.045   0.075
    1res  C17   17   -0.522  -0.010   0.208
    1res  C18   18   -0.412  -0.191   0.185
    1res  C19   19   -0.494  -0.391   0.056
    1res  C20   20   -0.559  -0.500  -0.238
    1res  C21   21   -0.751  -0.547  -0.021
    1res  C22   22   -0.762  -0.496   0.185
    1res  C23   23   -0.556  -0.511   0.260
    1res  C24   24   -0.305  -0.192  -0.035
    1res  C25   25    0.202  -0.059  -0.367
    1res  C26   26    0.344   0.091  -0.199
    1res  C27   27    0.460  -0.024   0.057
    1res  C28   28    0.547  -0.186  -0.245
    1res  C29   29    0.796  -0.152  -0.129
    1res  C30   30    0.876  -0.081   0.105
    1res  C31   31    1.029   0.092   0.016
    1res  C32   32    1.149   0.212   0.250
    1res  C33   33    1.276   0.401   0.353
    1res  C34   34    1.093   0.524   0.265
    1res  C35   35    0.948   0.400   0.141
    1res  C36   36    1.048  -0.065  -0.220
    1res  C37   37    0.993   0.255  -0.243
    1res  C38   38    0.688   0.039  -0.343
  10.00000  10.00000  10.00000
