[ moleculetype ]
; name        nrexcl
res           1

[ atoms ]
;    nr  type resnr resid  atom  cgnr     charge       mass
      1 SC4       1 res   C1        1      0.000     54.000
      2 SP2       1 res   C2        2      0.000     54.000
      3 TC3       1 res   C3        3      0.000     36.000
      4 SC4       1 res   C4        4      0.000     54.000
      5 TC3       1 res   C5        5      0.000     36.000
      6 SC4       1 res   C6        6      0.000     54.000
      7 SN6a      1 res   C7        7      0.000     54.000
      8 SC4       1 res   C8        8      0.000     54.000
      9 SC4       1 res   C9        9      0.000     54.000
     10 TC3       1 res   C10      10      0.000     36.000
     11 TN6       1 res   C11      11      0.000     36.000
     12 SN4a      1 res   C12      12      0.000     54.000
     13 SP2       1 res   C13      13      0.000     54.000
     14 TN6       1 res   C14      14      0.000     36.000
     15 TN6       1 res   C15      15      0.000     36.000
     16 TN6       1 res   C16      16      0.000     36.000
     17 SN4a      1 res   C17      17      0.000     54.000
     18 SP2       1 res   C18      18      0.000     54.000
     19 TN6       1 res   C19      19      0.000     36.000
     20 TN6       1 res   C20      20      0.000     36.000
     21 TN6       1 res   C21      21      0.000     36.000
     22 SC4       1 res   C22      22      0.000     54.000
     23 TC3       1 res   C23      23      0.000     36.000

[ bonds ]
;  ai    aj   funct      b0(nm)        k
    1     2     1      0.27435    20000
    1     3     1      0.30040    20000
    1     4     1      0.29485    20000
    3     4     1      0.28864    20000
    4     5     1      0.31238    20000
    4     6     1      0.43047    20000
    5     6     1      0.30305    20000
    6     7     1      0.39742    20000
    6     8     1      0.27428    20000
    7     8     1      0.28600    20000
    8     9     1      0.36506    20000
    8    23     1      0.25995    20000
    9    10     1      0.31715    20000
    9    22     1      0.32714    20000
    9    23     1      0.36551    20000
   10    11     1      0.25869    20000
   11    12     1      0.30628    20000
   11    22     1      0.24721    20000
   12    13     1      0.32935    20000
   12    14     1      0.28458    20000
   12    16     1      0.22811    20000
   14    15     1      0.23905    20000
   15    16     1      0.23212    20000
   16    17     1      0.29037    20000
   17    18     1      0.30881    20000
   17    19     1      0.27076    20000
   17    21     1      0.25719    20000
   19    20     1      0.24536    20000
   20    21     1      0.22386    20000
