Generated with MDTraj, t= 0.0
 62
    1UNL     C1    1  -0.203  -0.306  -0.159
    1UNL     C2    2  -0.063  -0.275  -0.108
    1UNL     C3    3  -0.008  -0.377  -0.004
    1UNL     C4    4   0.132  -0.326   0.044
    1UNL     O1    5   0.184  -0.403   0.151
    1UNL     O2    6   0.214  -0.322  -0.076
    1UNL     C5    7   0.155  -0.222  -0.160
    1UNL     O3    8   0.033  -0.273  -0.217
    1UNL     C6    9   0.108  -0.108  -0.061
    1UNL     C7   10   0.160   0.034  -0.084
    1UNL     O4   11   0.300   0.040  -0.069
    1UNL     C8   12   0.339   0.167  -0.036
    1UNL     O5   13   0.262   0.258  -0.017
    1UNL     C9   14   0.485   0.189  -0.024
    1UNL    C10   15   0.574   0.083  -0.038
    1UNL    C11   16   0.709   0.105  -0.027
    1UNL    C12   17   0.757   0.232  -0.002
    1UNL    C13   18   0.670   0.337   0.012
    1UNL    C14   19   0.534   0.316   0.001
    1UNL    C15   20   0.120  -0.172   0.081
    1UNL    C16   21  -0.024  -0.122   0.108
    1UNL    C17   22  -0.049  -0.128  -0.046
    1UNL     O6   23  -0.124  -0.025  -0.113
    1UNL    C18   24  -0.219   0.044  -0.033
    1UNL     O7   25  -0.284   0.151  -0.103
    1UNL    C19   26  -0.369   0.233  -0.021
    1UNL    C20   27  -0.289   0.317   0.080
    1UNL     O8   28  -0.369   0.412   0.145
    1UNL    C21   29  -0.482   0.148   0.046
    1UNL     O9   30  -0.564   0.221   0.135
    1UNL    C22   31  -0.423   0.025   0.118
    1UNL    O10   32  -0.527  -0.062   0.157
    1UNL    C23   33  -0.327  -0.051   0.023
    1UNL    O11   34  -0.401  -0.103  -0.085
    1UNL     H1   35  -0.275  -0.310  -0.077
    1UNL     H2   36  -0.234  -0.227  -0.227
    1UNL     H3   37  -0.204  -0.400  -0.212
    1UNL     H4   38  -0.076  -0.391   0.080
    1UNL     H5   39   0.006  -0.474  -0.053
    1UNL     H6   40   0.125  -0.396   0.229
    1UNL     H7   41   0.224  -0.188  -0.238
    1UNL     H8   42   0.115   0.104  -0.012
    1UNL     H9   43   0.135   0.069  -0.184
    1UNL    H10   44   0.534  -0.015  -0.058
    1UNL    H11   45   0.778   0.022  -0.039
    1UNL    H12   46   0.863   0.248   0.006
    1UNL    H13   47   0.707   0.436   0.032
    1UNL    H14   48   0.464   0.397   0.012
    1UNL    H15   49   0.202  -0.131   0.143
    1UNL    H16   50  -0.085  -0.192   0.167
    1UNL    H17   51  -0.028  -0.021   0.151
    1UNL    H18   52  -0.163   0.092   0.048
    1UNL    H19   53  -0.417   0.304  -0.090
    1UNL    H20   54  -0.208   0.370   0.030
    1UNL    H21   55  -0.244   0.253   0.157
    1UNL    H22   56  -0.456   0.370   0.163
    1UNL    H23   57  -0.548   0.111  -0.034
    1UNL    H24   58  -0.621   0.159   0.183
    1UNL    H25   59  -0.371   0.057   0.209
    1UNL    H26   60  -0.553  -0.114   0.078
    1UNL    H27   61  -0.283  -0.136   0.075
    1UNL    H28   62  -0.401  -0.035  -0.156
   0.00000   0.00000   0.00000   0.00000   0.00000   0.00000   0.00000   0.00000   0.00000
Generated with MDTraj, t= 1.0
 62
    1UNL     C1    1  -0.194  -0.320  -0.170
    1UNL     C2    2  -0.062  -0.283  -0.111
    1UNL     C3    3  -0.009  -0.375   0.002
    1UNL     C4    4   0.131  -0.317   0.050
    1UNL     O1    5   0.204  -0.381   0.154
    1UNL     O2    6   0.215  -0.312  -0.067
    1UNL     C5    7   0.154  -0.215  -0.159
    1UNL     O3    8   0.044  -0.279  -0.212
    1UNL     C6    9   0.102  -0.100  -0.060
    1UNL     C7   10   0.159   0.043  -0.080
    1UNL     O4   11   0.288   0.047  -0.040
    1UNL     C8   12   0.334   0.178  -0.047
    1UNL     O5   13   0.266   0.278  -0.055
    1UNL     C9   14   0.482   0.191  -0.022
    1UNL    C10   15   0.563   0.077  -0.020
    1UNL    C11   16   0.699   0.084  -0.009
    1UNL    C12   17   0.759   0.207  -0.007
    1UNL    C13   18   0.683   0.325  -0.005
    1UNL    C14   19   0.541   0.316  -0.015
    1UNL    C15   20   0.110  -0.159   0.082
    1UNL    C16   21  -0.039  -0.112   0.104
    1UNL    C17   22  -0.058  -0.132  -0.056
    1UNL     O6   23  -0.128  -0.028  -0.124
    1UNL    C18   24  -0.219   0.040  -0.044
    1UNL     O7   25  -0.284   0.159  -0.106
    1UNL    C19   26  -0.370   0.238  -0.019
    1UNL    C20   27  -0.285   0.299   0.099
    1UNL     O8   28  -0.358   0.385   0.190
    1UNL    C21   29  -0.480   0.152   0.041
    1UNL     O9   30  -0.566   0.229   0.124
    1UNL    C22   31  -0.423   0.023   0.112
    1UNL    O10   32  -0.524  -0.062   0.156
    1UNL    C23   33  -0.332  -0.051   0.013
    1UNL    O11   34  -0.411  -0.111  -0.090
    1UNL     H1   35  -0.279  -0.321  -0.102
    1UNL     H2   36  -0.226  -0.238  -0.240
    1UNL     H3   37  -0.168  -0.406  -0.229
    1UNL     H4   38  -0.073  -0.379   0.080
    1UNL     H5   39   0.007  -0.483  -0.035
    1UNL     H6   40   0.244  -0.318   0.221
    1UNL     H7   41   0.217  -0.185  -0.240
    1UNL     H8   42   0.106   0.120  -0.022
    1UNL     H9   43   0.170   0.054  -0.193
    1UNL    H10   44   0.509  -0.017  -0.014
    1UNL    H11   45   0.763   0.001   0.002
    1UNL    H12   46   0.868   0.206  -0.023
    1UNL    H13   47   0.727   0.427   0.003
    1UNL    H14   48   0.493   0.405   0.029
    1UNL    H15   49   0.183  -0.118   0.152
    1UNL    H16   50  -0.097  -0.195   0.159
    1UNL    H17   51  -0.053  -0.019   0.139
    1UNL    H18   52  -0.156   0.079   0.036
    1UNL    H19   53  -0.408   0.329  -0.061
    1UNL    H20   54  -0.216   0.377   0.060
    1UNL    H21   55  -0.226   0.228   0.158
    1UNL    H22   56  -0.442   0.336   0.196
    1UNL    H23   57  -0.528   0.116  -0.047
    1UNL    H24   58  -0.642   0.172   0.137
    1UNL    H25   59  -0.359   0.056   0.194
    1UNL    H26   60  -0.571  -0.125   0.096
    1UNL    H27   61  -0.287  -0.139   0.062
    1UNL    H28   62  -0.437  -0.049  -0.153
   0.00000   0.00000   0.00000   0.00000   0.00000   0.00000   0.00000   0.00000   0.00000
Generated with MDTraj, t= 2.0
 62
    1UNL     C1    1  -0.182  -0.324  -0.166
    1UNL     C2    2  -0.050  -0.274  -0.112
    1UNL     C3    3   0.006  -0.366  -0.006
    1UNL     C4    4   0.145  -0.310   0.048
    1UNL     O1    5   0.189  -0.395   0.161
    1UNL     O2    6   0.232  -0.295  -0.068
    1UNL     C5    7   0.159  -0.194  -0.147
    1UNL     O3    8   0.045  -0.260  -0.213
    1UNL     C6    9   0.105  -0.093  -0.048
    1UNL     C7   10   0.150   0.054  -0.070
    1UNL     O4   11   0.287   0.056  -0.051
    1UNL     C8   12   0.338   0.180  -0.063
    1UNL     O5   13   0.275   0.280  -0.086
    1UNL     C9   14   0.484   0.181  -0.045
    1UNL    C10   15   0.557   0.070  -0.012
    1UNL    C11   16   0.690   0.080   0.019
    1UNL    C12   17   0.757   0.203   0.013
    1UNL    C13   18   0.686   0.314  -0.022
    1UNL    C14   19   0.544   0.309  -0.040
    1UNL    C15   20   0.113  -0.160   0.091
    1UNL    C16   21  -0.044  -0.117   0.106
    1UNL    C17   22  -0.052  -0.126  -0.048
    1UNL     O6   23  -0.133  -0.030  -0.113
    1UNL    C18   24  -0.223   0.034  -0.034
    1UNL     O7   25  -0.284   0.145  -0.092
    1UNL    C19   26  -0.364   0.227  -0.009
    1UNL    C20   27  -0.278   0.299   0.099
    1UNL     O8   28  -0.350   0.385   0.192
    1UNL    C21   29  -0.488   0.146   0.040
    1UNL     O9   30  -0.565   0.222   0.130
    1UNL    C22   31  -0.442   0.015   0.112
    1UNL    O10   32  -0.554  -0.061   0.140
    1UNL    C23   33  -0.339  -0.054   0.017
    1UNL    O11   34  -0.412  -0.096  -0.098
    1UNL     H1   35  -0.260  -0.311  -0.094
    1UNL     H2   36  -0.231  -0.264  -0.249
    1UNL     H3   37  -0.150  -0.420  -0.208
    1UNL     H4   38  -0.054  -0.388   0.077
    1UNL     H5   39   0.027  -0.468  -0.054
    1UNL     H6   40   0.210  -0.488   0.130
    1UNL     H7   41   0.215  -0.153  -0.227
    1UNL     H8   42   0.112   0.106   0.019
    1UNL     H9   43   0.133   0.090  -0.180
    1UNL    H10   44   0.503  -0.023  -0.016
    1UNL    H11   45   0.731  -0.023   0.046
    1UNL    H12   46   0.863   0.197   0.009
    1UNL    H13   47   0.740   0.404  -0.008
    1UNL    H14   48   0.490   0.398  -0.063
    1UNL    H15   49   0.197  -0.126   0.154
    1UNL    H16   50  -0.091  -0.204   0.159
    1UNL    H17   51  -0.057  -0.026   0.161
    1UNL    H18   52  -0.173   0.067   0.057
    1UNL    H19   53  -0.396   0.311  -0.067
    1UNL    H20   54  -0.190   0.348   0.053
    1UNL    H21   55  -0.248   0.220   0.170
    1UNL    H22   56  -0.441   0.341   0.196
    1UNL    H23   57  -0.537   0.138  -0.054
    1UNL    H24   58  -0.651   0.175   0.150
    1UNL    H25   59  -0.389   0.042   0.203
    1UNL    H26   60  -0.595  -0.100   0.060
    1UNL    H27   61  -0.301  -0.143   0.072
    1UNL    H28   62  -0.398  -0.031  -0.170
   0.00000   0.00000   0.00000   0.00000   0.00000   0.00000   0.00000   0.00000   0.00000
Generated with MDTraj, t= 3.0
 62
    1UNL     C1    1  -0.185  -0.302  -0.158
    1UNL     C2    2  -0.050  -0.276  -0.108
    1UNL     C3    3   0.013  -0.377  -0.019
    1UNL     C4    4   0.144  -0.315   0.045
    1UNL     O1    5   0.195  -0.403   0.150
    1UNL     O2    6   0.230  -0.300  -0.066
    1UNL     C5    7   0.168  -0.200  -0.147
    1UNL     O3    8   0.050  -0.256  -0.215
    1UNL     C6    9   0.107  -0.097  -0.043
    1UNL     C7   10   0.156   0.052  -0.050
    1UNL     O4   11   0.300   0.051  -0.048
    1UNL     C8   12   0.345   0.177  -0.066
    1UNL     O5   13   0.280   0.268  -0.111
    1UNL     C9   14   0.491   0.184  -0.048
    1UNL    C10   15   0.558   0.076  -0.004
    1UNL    C11   16   0.688   0.088   0.042
    1UNL    C12   17   0.760   0.204   0.014
    1UNL    C13   18   0.688   0.317  -0.036
    1UNL    C14   19   0.556   0.306  -0.066
    1UNL    C15   20   0.116  -0.168   0.089
    1UNL    C16   21  -0.038  -0.139   0.112
    1UNL    C17   22  -0.051  -0.130  -0.047
    1UNL     O6   23  -0.129  -0.031  -0.104
    1UNL    C18   24  -0.227   0.033  -0.018
    1UNL     O7   25  -0.282   0.155  -0.086
    1UNL    C19   26  -0.371   0.237   0.001
    1UNL    C20   27  -0.296   0.302   0.120
    1UNL     O8   28  -0.368   0.414   0.171
    1UNL    C21   29  -0.494   0.149   0.044
    1UNL     O9   30  -0.569   0.216   0.145
    1UNL    C22   31  -0.450   0.010   0.109
    1UNL    O10   32  -0.572  -0.059   0.122
    1UNL    C23   33  -0.349  -0.060   0.013
    1UNL    O11   34  -0.411  -0.094  -0.112
    1UNL     H1   35  -0.252  -0.322  -0.078
    1UNL     H2   36  -0.244  -0.218  -0.203
    1UNL     H3   37  -0.166  -0.380  -0.232
    1UNL     H4   38  -0.057  -0.413   0.066
    1UNL     H5   39   0.042  -0.468  -0.073
    1UNL     H6   40   0.293  -0.412   0.152
    1UNL     H7   41   0.238  -0.172  -0.219
    1UNL     H8   42   0.126   0.103   0.042
    1UNL     H9   43   0.126   0.088  -0.157
    1UNL    H10   44   0.500  -0.014   0.002
    1UNL    H11   45   0.739   0.000   0.055
    1UNL    H12   46   0.857   0.204   0.068
    1UNL    H13   47   0.755   0.400  -0.065
    1UNL    H14   48   0.503   0.393  -0.105
    1UNL    H15   49   0.197  -0.141   0.160
    1UNL    H16   50  -0.082  -0.220   0.164
    1UNL    H17   51  -0.054  -0.047   0.186
    1UNL    H18   52  -0.170   0.083   0.064
    1UNL    H19   53  -0.427   0.309  -0.057
    1UNL    H20   54  -0.207   0.350   0.073
    1UNL    H21   55  -0.277   0.224   0.197
    1UNL    H22   56  -0.460   0.397   0.187
    1UNL    H23   57  -0.557   0.119  -0.038
    1UNL    H24   58  -0.613   0.145   0.200
    1UNL    H25   59  -0.405   0.011   0.210
    1UNL    H26   60  -0.606  -0.090   0.036
    1UNL    H27   61  -0.315  -0.159   0.053
    1UNL    H28   62  -0.408  -0.010  -0.175
   0.00000   0.00000   0.00000   0.00000   0.00000   0.00000   0.00000   0.00000   0.00000
Generated with MDTraj, t= 4.0
 62
    1UNL     C1    1  -0.197  -0.295  -0.167
    1UNL     C2    2  -0.059  -0.277  -0.114
    1UNL     C3    3  -0.009  -0.379  -0.012
    1UNL     C4    4   0.140  -0.324   0.043
    1UNL     O1    5   0.203  -0.403   0.140
    1UNL     O2    6   0.220  -0.310  -0.075
    1UNL     C5    7   0.157  -0.206  -0.154
    1UNL     O3    8   0.041  -0.258  -0.214
    1UNL     C6    9   0.105  -0.103  -0.043
    1UNL     C7   10   0.155   0.046  -0.052
    1UNL     O4   11   0.299   0.050  -0.004
    1UNL     C8   12   0.351   0.167  -0.056
    1UNL     O5   13   0.298   0.246  -0.132
    1UNL     C9   14   0.494   0.183  -0.032
    1UNL    C10   15   0.575   0.086   0.029
    1UNL    C11   16   0.711   0.104   0.038
    1UNL    C12   17   0.766   0.222   0.003
    1UNL    C13   18   0.690   0.322  -0.068
    1UNL    C14   19   0.557   0.304  -0.076
    1UNL    C15   20   0.120  -0.181   0.092
    1UNL    C16   21  -0.028  -0.138   0.121
    1UNL    C17   22  -0.055  -0.133  -0.034
    1UNL     O6   23  -0.127  -0.023  -0.093
    1UNL    C18   24  -0.228   0.046  -0.021
    1UNL     O7   25  -0.279   0.167  -0.081
    1UNL    C19   26  -0.374   0.244   0.004
    1UNL    C20   27  -0.312   0.317   0.122
    1UNL     O8   28  -0.392   0.412   0.178
    1UNL    C21   29  -0.490   0.143   0.043
    1UNL     O9   30  -0.580   0.211   0.132
    1UNL    C22   31  -0.440   0.008   0.106
    1UNL    O10   32  -0.553  -0.078   0.117
    1UNL    C23   33  -0.341  -0.049   0.007
    1UNL    O11   34  -0.406  -0.081  -0.110
    1UNL     H1   35  -0.276  -0.291  -0.098
    1UNL     H2   36  -0.218  -0.216  -0.239
    1UNL     H3   37  -0.195  -0.388  -0.226
    1UNL     H4   38  -0.083  -0.416   0.076
    1UNL     H5   39   0.007  -0.472  -0.065
    1UNL     H6   40   0.246  -0.471   0.085
    1UNL     H7   41   0.220  -0.166  -0.229
    1UNL     H8   42   0.115   0.106   0.029
    1UNL     H9   43   0.141   0.071  -0.163
    1UNL    H10   44   0.520  -0.007   0.040
    1UNL    H11   45   0.772   0.023   0.090
    1UNL    H12   46   0.869   0.238   0.022
    1UNL    H13   47   0.729   0.416  -0.098
    1UNL    H14   48   0.498   0.386  -0.112
    1UNL    H15   49   0.203  -0.166   0.166
    1UNL    H16   50  -0.096  -0.202   0.173
    1UNL    H17   51  -0.031  -0.035   0.179
    1UNL    H18   52  -0.188   0.084   0.075
    1UNL    H19   53  -0.430   0.310  -0.070
    1UNL    H20   54  -0.218   0.355   0.073
    1UNL    H21   55  -0.299   0.238   0.197
    1UNL    H22   56  -0.486   0.375   0.186
    1UNL    H23   57  -0.544   0.130  -0.051
    1UNL    H24   58  -0.619   0.151   0.196
    1UNL    H25   59  -0.400   0.034   0.207
    1UNL    H26   60  -0.570  -0.113   0.027
    1UNL    H27   61  -0.302  -0.146   0.054
    1UNL    H28   62  -0.362  -0.030  -0.178
   0.00000   0.00000   0.00000   0.00000   0.00000   0.00000   0.00000   0.00000   0.00000
Generated with MDTraj, t= 5.0
 62
    1UNL     C1    1  -0.201  -0.284  -0.183
    1UNL     C2    2  -0.068  -0.256  -0.110
    1UNL     C3    3  -0.014  -0.372  -0.024
    1UNL     C4    4   0.126  -0.329   0.036
    1UNL     O1    5   0.163  -0.418   0.142
    1UNL     O2    6   0.210  -0.321  -0.075
    1UNL     C5    7   0.155  -0.204  -0.147
    1UNL     O3    8   0.033  -0.245  -0.214
    1UNL     C6    9   0.111  -0.099  -0.037
    1UNL     C7   10   0.159   0.039  -0.046
    1UNL     O4   11   0.308   0.046  -0.007
    1UNL     C8   12   0.360   0.156  -0.066
    1UNL     O5   13   0.301   0.239  -0.134
    1UNL     C9   14   0.499   0.185  -0.034
    1UNL    C10   15   0.579   0.094   0.036
    1UNL    C11   16   0.713   0.120   0.056
    1UNL    C12   17   0.768   0.239   0.000
    1UNL    C13   18   0.694   0.322  -0.078
    1UNL    C14   19   0.559   0.294  -0.103
    1UNL    C15   20   0.116  -0.180   0.090
    1UNL    C16   21  -0.028  -0.132   0.129
    1UNL    C17   22  -0.047  -0.122  -0.029
    1UNL     O6   23  -0.119  -0.010  -0.086
    1UNL    C18   24  -0.222   0.054  -0.013
    1UNL     O7   25  -0.276   0.165  -0.084
    1UNL    C19   26  -0.372   0.235  -0.002
    1UNL    C20   27  -0.316   0.310   0.118
    1UNL     O8   28  -0.406   0.385   0.199
    1UNL    C21   29  -0.492   0.142   0.027
    1UNL     O9   30  -0.587   0.206   0.106
    1UNL    C22   31  -0.437   0.019   0.107
    1UNL    O10   32  -0.537  -0.078   0.132
    1UNL    C23   33  -0.328  -0.053   0.021
    1UNL    O11   34  -0.393  -0.092  -0.099
    1UNL     H1   35  -0.281  -0.302  -0.115
    1UNL     H2   36  -0.226  -0.212  -0.258
    1UNL     H3   37  -0.188  -0.380  -0.236
    1UNL     H4   38  -0.080  -0.392   0.060
    1UNL     H5   39  -0.002  -0.473  -0.072
    1UNL     H6   40   0.252  -0.453   0.130
    1UNL     H7   41   0.219  -0.168  -0.223
    1UNL     H8   42   0.091   0.089   0.024
    1UNL     H9   43   0.167   0.069  -0.150
    1UNL    H10   44   0.530   0.014   0.090
    1UNL    H11   45   0.774   0.053   0.103
    1UNL    H12   46   0.876   0.260  -0.011
    1UNL    H13   47   0.747   0.417  -0.106
    1UNL    H14   48   0.496   0.374  -0.140
    1UNL    H15   49   0.202  -0.165   0.159
    1UNL    H16   50  -0.081  -0.212   0.186
    1UNL    H17   51  -0.018  -0.035   0.182
    1UNL    H18   52  -0.183   0.095   0.083
    1UNL    H19   53  -0.411   0.329  -0.056
    1UNL    H20   54  -0.239   0.385   0.081
    1UNL    H21   55  -0.271   0.235   0.183
    1UNL    H22   56  -0.496   0.345   0.197
    1UNL    H23   57  -0.526   0.105  -0.074
    1UNL    H24   58  -0.640   0.128   0.134
    1UNL    H25   59  -0.399   0.055   0.206
    1UNL    H26   60  -0.556  -0.125   0.047
    1UNL    H27   61  -0.280  -0.141   0.078
    1UNL    H28   62  -0.357  -0.033  -0.163
   0.00000   0.00000   0.00000   0.00000   0.00000   0.00000   0.00000   0.00000   0.00000
Generated with MDTraj, t= 6.0
 62
    1UNL     C1    1  -0.188  -0.281  -0.191
    1UNL     C2    2  -0.057  -0.258  -0.122
    1UNL     C3    3  -0.018  -0.376  -0.028
    1UNL     C4    4   0.116  -0.336   0.049
    1UNL     O1    5   0.139  -0.435   0.151
    1UNL     O2    6   0.214  -0.317  -0.062
    1UNL     C5    7   0.167  -0.204  -0.137
    1UNL     O3    8   0.052  -0.240  -0.216
    1UNL     C6    9   0.116  -0.100  -0.031
    1UNL     C7   10   0.174   0.040  -0.038
    1UNL     O4   11   0.324   0.035  -0.037
    1UNL     C8   12   0.361   0.156  -0.078
    1UNL     O5   13   0.292   0.244  -0.129
    1UNL     C9   14   0.507   0.182  -0.062
    1UNL    C10   15   0.570   0.103   0.037
    1UNL    C11   16   0.702   0.133   0.072
    1UNL    C12   17   0.766   0.239   0.009
    1UNL    C13   18   0.701   0.317  -0.082
    1UNL    C14   19   0.573   0.288  -0.122
    1UNL    C15   20   0.116  -0.184   0.100
    1UNL    C16   21  -0.037  -0.135   0.119
    1UNL    C17   22  -0.044  -0.117  -0.037
    1UNL     O6   23  -0.119  -0.004  -0.097
    1UNL    C18   24  -0.221   0.055  -0.009
    1UNL     O7   25  -0.280   0.171  -0.082
    1UNL    C19   26  -0.386   0.240  -0.003
    1UNL    C20   27  -0.325   0.301   0.129
    1UNL     O8   28  -0.415   0.385   0.203
    1UNL    C21   29  -0.498   0.140   0.038
    1UNL     O9   30  -0.595   0.202   0.116
    1UNL    C22   31  -0.432   0.021   0.109
    1UNL    O10   32  -0.540  -0.068   0.130
    1UNL    C23   33  -0.328  -0.048   0.023
    1UNL    O11   34  -0.388  -0.094  -0.094
    1UNL     H1   35  -0.267  -0.323  -0.127
    1UNL     H2   36  -0.207  -0.190  -0.243
    1UNL     H3   37  -0.186  -0.356  -0.271
    1UNL     H4   38  -0.082  -0.427   0.032
    1UNL     H5   39   0.016  -0.462  -0.098
    1UNL     H6   40   0.216  -0.493   0.146
    1UNL     H7   41   0.246  -0.172  -0.203
    1UNL     H8   42   0.153   0.105   0.050
    1UNL     H9   43   0.144   0.084  -0.129
    1UNL    H10   44   0.515   0.022   0.086
    1UNL    H11   45   0.769   0.063   0.131
    1UNL    H12   46   0.869   0.247   0.022
    1UNL    H13   47   0.737   0.410  -0.115
    1UNL    H14   48   0.522   0.350  -0.194
    1UNL    H15   49   0.203  -0.154   0.165
    1UNL    H16   50  -0.099  -0.223   0.168
    1UNL    H17   51  -0.037  -0.042   0.167
    1UNL    H18   52  -0.174   0.096   0.083
    1UNL    H19   53  -0.426   0.333  -0.055
    1UNL    H20   54  -0.233   0.366   0.111
    1UNL    H21   55  -0.294   0.228   0.204
    1UNL    H22   56  -0.501   0.346   0.184
    1UNL    H23   57  -0.548   0.112  -0.061
    1UNL    H24   58  -0.670   0.138   0.139
    1UNL    H25   59  -0.388   0.048   0.209
    1UNL    H26   60  -0.551  -0.127   0.052
    1UNL    H27   61  -0.287  -0.148   0.065
    1UNL    H28   62  -0.395  -0.011  -0.159
   0.00000   0.00000   0.00000   0.00000   0.00000   0.00000   0.00000   0.00000   0.00000
Generated with MDTraj, t= 7.0
 62
    1UNL     C1    1  -0.185  -0.273  -0.200
    1UNL     C2    2  -0.057  -0.259  -0.121
    1UNL     C3    3  -0.016  -0.374  -0.023
    1UNL     C4    4   0.120  -0.329   0.048
    1UNL     O1    5   0.153  -0.421   0.149
    1UNL     O2    6   0.215  -0.311  -0.059
    1UNL     C5    7   0.164  -0.205  -0.142
    1UNL     O3    8   0.053  -0.246  -0.215
    1UNL     C6    9   0.110  -0.105  -0.027
    1UNL     C7   10   0.168   0.034  -0.040
    1UNL     O4   11   0.310   0.045  -0.012
    1UNL     C8   12   0.358   0.160  -0.063
    1UNL     O5   13   0.298   0.240  -0.135
    1UNL     C9   14   0.505   0.180  -0.053
    1UNL    C10   15   0.571   0.114   0.053
    1UNL    C11   16   0.709   0.132   0.066
    1UNL    C12   17   0.771   0.230  -0.009
    1UNL    C13   18   0.702   0.310  -0.094
    1UNL    C14   19   0.569   0.283  -0.118
    1UNL    C15   20   0.107  -0.176   0.105
    1UNL    C16   21  -0.040  -0.128   0.120
    1UNL    C17   22  -0.053  -0.121  -0.039
    1UNL     O6   23  -0.122  -0.012  -0.100
    1UNL    C18   24  -0.221   0.044  -0.018
    1UNL     O7   25  -0.277   0.164  -0.076
    1UNL    C19   26  -0.377   0.233   0.012
    1UNL    C20   27  -0.314   0.313   0.125
    1UNL     O8   28  -0.405   0.407   0.187
    1UNL    C21   29  -0.496   0.135   0.049
    1UNL     O9   30  -0.586   0.187   0.144
    1UNL    C22   31  -0.436   0.006   0.105
    1UNL    O10   32  -0.551  -0.081   0.116
    1UNL    C23   33  -0.331  -0.054   0.008
    1UNL    O11   34  -0.395  -0.076  -0.113
    1UNL     H1   35  -0.274  -0.300  -0.135
    1UNL     H2   36  -0.191  -0.182  -0.257
    1UNL     H3   37  -0.203  -0.353  -0.272
    1UNL     H4   38  -0.090  -0.400   0.047
    1UNL     H5   39  -0.005  -0.471  -0.077
    1UNL     H6   40   0.251  -0.439   0.150
    1UNL     H7   41   0.244  -0.169  -0.207
    1UNL     H8   42   0.122   0.108   0.031
    1UNL     H9   43   0.155   0.067  -0.141
    1UNL    H10   44   0.530   0.024   0.098
    1UNL    H11   45   0.769   0.069   0.125
    1UNL    H12   46   0.875   0.260   0.023
    1UNL    H13   47   0.746   0.393  -0.154
    1UNL    H14   48   0.502   0.345  -0.178
    1UNL    H15   49   0.168  -0.158   0.197
    1UNL    H16   50  -0.111  -0.212   0.159
    1UNL    H17   51  -0.050  -0.037   0.170
    1UNL    H18   52  -0.179   0.074   0.081
    1UNL    H19   53  -0.413   0.310  -0.061
    1UNL    H20   54  -0.223   0.372   0.086
    1UNL    H21   55  -0.287   0.253   0.213
    1UNL    H22   56  -0.484   0.347   0.211
    1UNL    H23   57  -0.554   0.117  -0.051
    1UNL    H24   58  -0.654   0.120   0.160
    1UNL    H25   59  -0.390   0.016   0.207
    1UNL    H26   60  -0.567  -0.116   0.026
    1UNL    H27   61  -0.293  -0.158   0.043
    1UNL    H28   62  -0.378   0.007  -0.168
   0.00000   0.00000   0.00000   0.00000   0.00000   0.00000   0.00000   0.00000   0.00000
Generated with MDTraj, t= 8.0
 62
    1UNL     C1    1  -0.193  -0.279  -0.185
    1UNL     C2    2  -0.059  -0.261  -0.110
    1UNL     C3    3  -0.010  -0.372  -0.016
    1UNL     C4    4   0.122  -0.326   0.042
    1UNL     O1    5   0.177  -0.411   0.141
    1UNL     O2    6   0.218  -0.305  -0.061
    1UNL     C5    7   0.164  -0.189  -0.137
    1UNL     O3    8   0.047  -0.244  -0.211
    1UNL     C6    9   0.109  -0.093  -0.027
    1UNL     C7   10   0.159   0.053  -0.027
    1UNL     O4   11   0.288   0.066   0.013
    1UNL     C8   12   0.356   0.162  -0.052
    1UNL     O5   13   0.297   0.234  -0.132
    1UNL     C9   14   0.500   0.185  -0.037
    1UNL    C10   15   0.570   0.106   0.051
    1UNL    C11   16   0.703   0.120   0.061
    1UNL    C12   17   0.768   0.216  -0.016
    1UNL    C13   18   0.701   0.298  -0.106
    1UNL    C14   19   0.562   0.278  -0.116
    1UNL    C15   20   0.107  -0.175   0.102
    1UNL    C16   21  -0.040  -0.133   0.123
    1UNL    C17   22  -0.052  -0.116  -0.031
    1UNL     O6   23  -0.117  -0.009  -0.103
    1UNL    C18   24  -0.225   0.048  -0.031
    1UNL     O7   25  -0.290   0.165  -0.096
    1UNL    C19   26  -0.376   0.229   0.008
    1UNL    C20   27  -0.303   0.301   0.116
    1UNL     O8   28  -0.376   0.402   0.192
    1UNL    C21   29  -0.495   0.142   0.048
    1UNL     O9   30  -0.575   0.191   0.162
    1UNL    C22   31  -0.442  -0.001   0.090
    1UNL    O10   32  -0.549  -0.093   0.114
    1UNL    C23   33  -0.337  -0.060  -0.007
    1UNL    O11   34  -0.394  -0.083  -0.135
    1UNL     H1   35  -0.276  -0.310  -0.113
    1UNL     H2   36  -0.214  -0.199  -0.256
    1UNL     H3   37  -0.205  -0.372  -0.236
    1UNL     H4   38  -0.082  -0.396   0.068
    1UNL     H5   39  -0.000  -0.466  -0.058
    1UNL     H6   40   0.234  -0.479   0.094
    1UNL     H7   41   0.233  -0.136  -0.207
    1UNL     H8   42   0.096   0.109   0.051
    1UNL     H9   43   0.157   0.104  -0.125
    1UNL    H10   44   0.534   0.028   0.117
    1UNL    H11   45   0.763   0.046   0.117
    1UNL    H12   46   0.866   0.244  -0.006
    1UNL    H13   47   0.751   0.376  -0.157
    1UNL    H14   48   0.491   0.344  -0.164
    1UNL    H15   49   0.190  -0.150   0.173
    1UNL    H16   50  -0.098  -0.213   0.173
    1UNL    H17   51  -0.047  -0.042   0.186
    1UNL    H18   52  -0.190   0.073   0.072
    1UNL    H19   53  -0.426   0.303  -0.053
    1UNL    H20   54  -0.220   0.372   0.077
    1UNL    H21   55  -0.276   0.224   0.188
    1UNL    H22   56  -0.469   0.382   0.192
    1UNL    H23   57  -0.569   0.131  -0.041
    1UNL    H24   58  -0.623   0.111   0.183
    1UNL    H25   59  -0.392   0.015   0.189
    1UNL    H26   60  -0.579  -0.114   0.022
    1UNL    H27   61  -0.292  -0.158   0.038
    1UNL    H28   62  -0.397   0.006  -0.169
   0.00000   0.00000   0.00000   0.00000   0.00000   0.00000   0.00000   0.00000   0.00000
Generated with MDTraj, t= 9.0
 62
    1UNL     C1    1  -0.177  -0.288  -0.186
    1UNL     C2    2  -0.042  -0.257  -0.124
    1UNL     C3    3   0.014  -0.372  -0.029
    1UNL     C4    4   0.136  -0.314   0.051
    1UNL     O1    5   0.168  -0.402   0.154
    1UNL     O2    6   0.230  -0.288  -0.058
    1UNL     C5    7   0.174  -0.180  -0.140
    1UNL     O3    8   0.061  -0.233  -0.219
    1UNL     C6    9   0.106  -0.091  -0.028
    1UNL     C7   10   0.155   0.058  -0.018
    1UNL     O4   11   0.289   0.063  -0.006
    1UNL     C8   12   0.347   0.167  -0.067
    1UNL     O5   13   0.288   0.253  -0.130
    1UNL     C9   14   0.494   0.182  -0.045
    1UNL    C10   15   0.556   0.088   0.039
    1UNL    C11   16   0.689   0.105   0.060
    1UNL    C12   17   0.761   0.202  -0.001
    1UNL    C13   18   0.701   0.281  -0.101
    1UNL    C14   19   0.564   0.275  -0.119
    1UNL    C15   20   0.103  -0.174   0.106
    1UNL    C16   21  -0.044  -0.147   0.120
    1UNL    C17   22  -0.052  -0.123  -0.039
    1UNL     O6   23  -0.128  -0.016  -0.105
    1UNL    C18   24  -0.230   0.037  -0.022
    1UNL     O7   25  -0.286   0.162  -0.084
    1UNL    C19   26  -0.376   0.233   0.003
    1UNL    C20   27  -0.300   0.298   0.122
    1UNL     O8   28  -0.377   0.382   0.196
    1UNL    C21   29  -0.493   0.141   0.046
    1UNL     O9   30  -0.579   0.220   0.142
    1UNL    C22   31  -0.440   0.001   0.100
    1UNL    O10   32  -0.559  -0.080   0.112
    1UNL    C23   33  -0.344  -0.056   0.002
    1UNL    O11   34  -0.399  -0.093  -0.112
    1UNL     H1   35  -0.251  -0.336  -0.119
    1UNL     H2   36  -0.204  -0.196  -0.242
    1UNL     H3   37  -0.168  -0.367  -0.257
    1UNL     H4   38  -0.058  -0.421   0.046
    1UNL     H5   39   0.039  -0.453  -0.084
    1UNL     H6   40   0.267  -0.401   0.163
    1UNL     H7   41   0.250  -0.134  -0.211
    1UNL     H8   42   0.128   0.116   0.077
    1UNL     H9   43   0.124   0.117  -0.109
    1UNL    H10   44   0.502   0.010   0.091
    1UNL    H11   45   0.743   0.035   0.125
    1UNL    H12   46   0.874   0.184  -0.008
    1UNL    H13   47   0.738   0.381  -0.134
    1UNL    H14   48   0.494   0.331  -0.181
    1UNL    H15   49   0.178  -0.135   0.178
    1UNL    H16   50  -0.103  -0.227   0.147
    1UNL    H17   51  -0.064  -0.053   0.186
    1UNL    H18   52  -0.187   0.064   0.079
    1UNL    H19   53  -0.422   0.305  -0.064
    1UNL    H20   54  -0.223   0.365   0.062
    1UNL    H21   55  -0.263   0.222   0.193
    1UNL    H22   56  -0.457   0.331   0.228
    1UNL    H23   57  -0.566   0.119  -0.037
    1UNL    H24   58  -0.630   0.155   0.194
    1UNL    H25   59  -0.398   0.012   0.202
    1UNL    H26   60  -0.571  -0.117   0.023
    1UNL    H27   61  -0.304  -0.158   0.042
    1UNL    H28   62  -0.431  -0.006  -0.161
   0.00000   0.00000   0.00000   0.00000   0.00000   0.00000   0.00000   0.00000   0.00000
Generated with MDTraj, t= 10.0
 62
    1UNL     C1    1  -0.157  -0.313  -0.217
    1UNL     C2    2  -0.040  -0.266  -0.127
    1UNL     C3    3   0.020  -0.375  -0.028
    1UNL     C4    4   0.143  -0.316   0.046
    1UNL     O1    5   0.184  -0.402   0.154
    1UNL     O2    6   0.239  -0.285  -0.052
    1UNL     C5    7   0.180  -0.181  -0.139
    1UNL     O3    8   0.073  -0.231  -0.217
    1UNL     C6    9   0.096  -0.086  -0.035
    1UNL     C7   10   0.146   0.064  -0.031
    1UNL     O4   11   0.282   0.070  -0.001
    1UNL     C8   12   0.344   0.175  -0.064
    1UNL     O5   13   0.293   0.260  -0.136
    1UNL     C9   14   0.490   0.183  -0.038
    1UNL    C10   15   0.554   0.083   0.037
    1UNL    C11   16   0.690   0.091   0.053
    1UNL    C12   17   0.769   0.185  -0.015
    1UNL    C13   18   0.696   0.280  -0.091
    1UNL    C14   19   0.562   0.276  -0.105
    1UNL    C15   20   0.099  -0.171   0.102
    1UNL    C16   21  -0.051  -0.143   0.105
    1UNL    C17   22  -0.054  -0.126  -0.053
    1UNL     O6   23  -0.135  -0.021  -0.106
    1UNL    C18   24  -0.228   0.039  -0.017
    1UNL     O7   25  -0.277   0.166  -0.077
    1UNL    C19   26  -0.366   0.234   0.010
    1UNL    C20   27  -0.302   0.299   0.137
    1UNL     O8   28  -0.390   0.386   0.203
    1UNL    C21   29  -0.491   0.148   0.041
    1UNL     O9   30  -0.593   0.218   0.117
    1UNL    C22   31  -0.448   0.019   0.115
    1UNL    O10   32  -0.559  -0.067   0.130
    1UNL    C23   33  -0.347  -0.059   0.019
    1UNL    O11   34  -0.416  -0.102  -0.098
    1UNL     H1   35  -0.242  -0.333  -0.153
    1UNL     H2   36  -0.169  -0.229  -0.287
    1UNL     H3   37  -0.138  -0.406  -0.267
    1UNL     H4   38  -0.058  -0.413   0.043
    1UNL     H5   39   0.059  -0.468  -0.071
    1UNL     H6   40   0.281  -0.390   0.157
    1UNL     H7   41   0.267  -0.129  -0.194
    1UNL     H8   42   0.100   0.130   0.044
    1UNL     H9   43   0.131   0.104  -0.131
    1UNL    H10   44   0.508  -0.009   0.073
    1UNL    H11   45   0.746   0.014   0.098
    1UNL    H12   46   0.872   0.188  -0.006
    1UNL    H13   47   0.754   0.348  -0.146
    1UNL    H14   48   0.502   0.356  -0.144
    1UNL    H15   49   0.140  -0.136   0.201
    1UNL    H16   50  -0.107  -0.225   0.136
    1UNL    H17   51  -0.067  -0.046   0.167
    1UNL    H18   52  -0.167   0.076   0.070
    1UNL    H19   53  -0.396   0.323  -0.046
    1UNL    H20   54  -0.204   0.357   0.106
    1UNL    H21   55  -0.290   0.214   0.206
    1UNL    H22   56  -0.480   0.371   0.171
    1UNL    H23   57  -0.530   0.114  -0.055
    1UNL    H24   58  -0.648   0.150   0.165
    1UNL    H25   59  -0.412   0.033   0.218
    1UNL    H26   60  -0.578  -0.091   0.038
    1UNL    H27   61  -0.311  -0.155   0.072
    1UNL    H28   62  -0.375  -0.065  -0.182
   0.00000   0.00000   0.00000   0.00000   0.00000   0.00000   0.00000   0.00000   0.00000
Generated with MDTraj, t= 11.0
 62
    1UNL     C1    1  -0.166  -0.304  -0.198
    1UNL     C2    2  -0.034  -0.259  -0.123
    1UNL     C3    3   0.017  -0.375  -0.030
    1UNL     C4    4   0.142  -0.317   0.041
    1UNL     O1    5   0.214  -0.397   0.133
    1UNL     O2    6   0.237  -0.283  -0.065
    1UNL     C5    7   0.173  -0.177  -0.134
    1UNL     O3    8   0.064  -0.234  -0.218
    1UNL     C6    9   0.099  -0.083  -0.028
    1UNL     C7   10   0.141   0.065  -0.021
    1UNL     O4   11   0.273   0.073   0.024
    1UNL     C8   12   0.338   0.172  -0.050
    1UNL     O5   13   0.286   0.244  -0.132
    1UNL     C9   14   0.480   0.170  -0.044
    1UNL    C10   15   0.554   0.077   0.029
    1UNL    C11   16   0.690   0.079   0.037
    1UNL    C12   17   0.759   0.186  -0.018
    1UNL    C13   18   0.691   0.280  -0.088
    1UNL    C14   19   0.553   0.281  -0.089
    1UNL    C15   20   0.102  -0.176   0.107
    1UNL    C16   21  -0.050  -0.142   0.120
    1UNL    C17   22  -0.047  -0.120  -0.034
    1UNL     O6   23  -0.127  -0.019  -0.105
    1UNL    C18   24  -0.225   0.046  -0.023
    1UNL     O7   25  -0.284   0.159  -0.083
    1UNL    C19   26  -0.369   0.235  -0.005
    1UNL    C20   27  -0.294   0.304   0.120
    1UNL     O8   28  -0.388   0.374   0.196
    1UNL    C21   29  -0.492   0.148   0.034
    1UNL     O9   30  -0.592   0.215   0.113
    1UNL    C22   31  -0.448   0.022   0.108
    1UNL    O10   32  -0.558  -0.058   0.134
    1UNL    C23   33  -0.340  -0.053   0.016
    1UNL    O11   34  -0.404  -0.101  -0.094
    1UNL     H1   35  -0.233  -0.319  -0.119
    1UNL     H2   36  -0.195  -0.223  -0.264
    1UNL     H3   37  -0.155  -0.395  -0.260
    1UNL     H4   38  -0.043  -0.419   0.048
    1UNL     H5   39   0.038  -0.460  -0.109
    1UNL     H6   40   0.307  -0.383   0.113
    1UNL     H7   41   0.249  -0.124  -0.203
    1UNL     H8   42   0.074   0.102   0.055
    1UNL     H9   43   0.132   0.116  -0.116
    1UNL    H10   44   0.501  -0.015   0.051
    1UNL    H11   45   0.740  -0.009   0.085
    1UNL    H12   46   0.864   0.216   0.006
    1UNL    H13   47   0.745   0.366  -0.131
    1UNL    H14   48   0.495   0.360  -0.135
    1UNL    H15   49   0.190  -0.131   0.163
    1UNL    H16   50  -0.106  -0.230   0.156
    1UNL    H17   51  -0.067  -0.053   0.172
    1UNL    H18   52  -0.174   0.082   0.069
    1UNL    H19   53  -0.391   0.328  -0.064
    1UNL    H20   54  -0.217   0.388   0.090
    1UNL    H21   55  -0.251   0.224   0.181
    1UNL    H22   56  -0.474   0.330   0.194
    1UNL    H23   57  -0.530   0.131  -0.063
    1UNL    H24   58  -0.634   0.149   0.169
    1UNL    H25   59  -0.401   0.051   0.202
    1UNL    H26   60  -0.590  -0.083   0.043
    1UNL    H27   61  -0.303  -0.148   0.073
    1UNL    H28   62  -0.358  -0.081  -0.174
   0.00000   0.00000   0.00000   0.00000   0.00000   0.00000   0.00000   0.00000   0.00000
Generated with MDTraj, t= 12.0
 62
    1UNL     C1    1  -0.184  -0.292  -0.170
    1UNL     C2    2  -0.043  -0.259  -0.122
    1UNL     C3    3   0.023  -0.378  -0.043
    1UNL     C4    4   0.148  -0.317   0.036
    1UNL     O1    5   0.204  -0.401   0.133
    1UNL     O2    6   0.238  -0.275  -0.068
    1UNL     C5    7   0.171  -0.169  -0.138
    1UNL     O3    8   0.059  -0.217  -0.225
    1UNL     C6    9   0.099  -0.086  -0.018
    1UNL     C7   10   0.137   0.063  -0.003
    1UNL     O4   11   0.280   0.070   0.024
    1UNL     C8   12   0.336   0.166  -0.056
    1UNL     O5   13   0.277   0.239  -0.133
    1UNL     C9   14   0.484   0.178  -0.041
    1UNL    C10   15   0.551   0.072   0.011
    1UNL    C11   16   0.688   0.078   0.035
    1UNL    C12   17   0.758   0.187  -0.017
    1UNL    C13   18   0.689   0.290  -0.077
    1UNL    C14   19   0.556   0.284  -0.087
    1UNL    C15   20   0.104  -0.175   0.107
    1UNL    C16   21  -0.045  -0.151   0.125
    1UNL    C17   22  -0.047  -0.128  -0.031
    1UNL     O6   23  -0.121  -0.025  -0.092
    1UNL    C18   24  -0.219   0.044  -0.014
    1UNL     O7   25  -0.278   0.153  -0.086
    1UNL    C19   26  -0.371   0.236  -0.011
    1UNL    C20   27  -0.302   0.300   0.111
    1UNL     O8   28  -0.385   0.397   0.171
    1UNL    C21   29  -0.486   0.145   0.046
    1UNL     O9   30  -0.587   0.217   0.118
    1UNL    C22   31  -0.444   0.014   0.111
    1UNL    O10   32  -0.554  -0.072   0.121
    1UNL    C23   33  -0.339  -0.054   0.017
    1UNL    O11   34  -0.395  -0.101  -0.100
    1UNL     H1   35  -0.232  -0.331  -0.086
    1UNL     H2   36  -0.232  -0.198  -0.196
    1UNL     H3   37  -0.185  -0.355  -0.261
    1UNL     H4   38  -0.050  -0.405   0.031
    1UNL     H5   39   0.042  -0.476  -0.108
    1UNL     H6   40   0.224  -0.486   0.090
    1UNL     H7   41   0.250  -0.115  -0.203
    1UNL     H8   42   0.086   0.101   0.083
    1UNL     H9   43   0.115   0.111  -0.098
    1UNL    H10   44   0.486  -0.005   0.049
    1UNL    H11   45   0.749  -0.002   0.062
    1UNL    H12   46   0.866   0.184  -0.000
    1UNL    H13   47   0.741   0.379  -0.105
    1UNL    H14   48   0.514   0.373  -0.131
    1UNL    H15   49   0.168  -0.130   0.191
    1UNL    H16   50  -0.098  -0.238   0.173
    1UNL    H17   51  -0.079  -0.064   0.163
    1UNL    H18   52  -0.168   0.084   0.076
    1UNL    H19   53  -0.398   0.318  -0.084
    1UNL    H20   54  -0.208   0.352   0.062
    1UNL    H21   55  -0.272   0.234   0.194
    1UNL    H22   56  -0.483   0.375   0.154
    1UNL    H23   57  -0.540   0.105  -0.034
    1UNL    H24   58  -0.642   0.150   0.162
    1UNL    H25   59  -0.411   0.029   0.214
    1UNL    H26   60  -0.570  -0.124   0.041
    1UNL    H27   61  -0.298  -0.153   0.058
    1UNL    H28   62  -0.378  -0.030  -0.161
   0.00000   0.00000   0.00000   0.00000   0.00000   0.00000   0.00000   0.00000   0.00000
Generated with MDTraj, t= 13.0
 62
    1UNL     C1    1  -0.161  -0.291  -0.199
    1UNL     C2    2  -0.033  -0.258  -0.126
    1UNL     C3    3   0.010  -0.376  -0.031
    1UNL     C4    4   0.143  -0.327   0.040
    1UNL     O1    5   0.192  -0.422   0.138
    1UNL     O2    6   0.244  -0.297  -0.062
    1UNL     C5    7   0.178  -0.186  -0.136
    1UNL     O3    8   0.068  -0.227  -0.214
    1UNL     C6    9   0.107  -0.095  -0.028
    1UNL     C7   10   0.143   0.056  -0.023
    1UNL     O4   11   0.282   0.068   0.017
    1UNL     C8   12   0.341   0.166  -0.058
    1UNL     O5   13   0.281   0.239  -0.133
    1UNL     C9   14   0.490   0.181  -0.035
    1UNL    C10   15   0.561   0.070   0.013
    1UNL    C11   16   0.701   0.083   0.024
    1UNL    C12   17   0.765   0.199  -0.016
    1UNL    C13   18   0.693   0.300  -0.071
    1UNL    C14   19   0.557   0.291  -0.087
    1UNL    C15   20   0.110  -0.183   0.105
    1UNL    C16   21  -0.039  -0.154   0.116
    1UNL    C17   22  -0.048  -0.122  -0.033
    1UNL     O6   23  -0.123  -0.019  -0.096
    1UNL    C18   24  -0.223   0.044  -0.014
    1UNL     O7   25  -0.289   0.156  -0.068
    1UNL    C19   26  -0.381   0.234   0.009
    1UNL    C20   27  -0.318   0.320   0.114
    1UNL     O8   28  -0.406   0.428   0.159
    1UNL    C21   29  -0.499   0.147   0.047
    1UNL     O9   30  -0.576   0.220   0.143
    1UNL    C22   31  -0.456   0.017   0.107
    1UNL    O10   32  -0.557  -0.077   0.123
    1UNL    C23   33  -0.343  -0.055   0.015
    1UNL    O11   34  -0.405  -0.103  -0.107
    1UNL     H1   35  -0.247  -0.259  -0.146
    1UNL     H2   36  -0.155  -0.224  -0.284
    1UNL     H3   37  -0.167  -0.385  -0.259
    1UNL     H4   38  -0.081  -0.413   0.026
    1UNL     H5   39   0.051  -0.463  -0.088
    1UNL     H6   40   0.281  -0.402   0.174
    1UNL     H7   41   0.252  -0.120  -0.191
    1UNL     H8   42   0.090   0.112   0.052
    1UNL     H9   43   0.127   0.097  -0.127
    1UNL    H10   44   0.496  -0.017   0.029
    1UNL    H11   45   0.748  -0.004   0.076
    1UNL    H12   46   0.870   0.191  -0.036
    1UNL    H13   47   0.749   0.391  -0.094
    1UNL    H14   48   0.508   0.380  -0.127
    1UNL    H15   49   0.174  -0.148   0.192
    1UNL    H16   50  -0.103  -0.236   0.149
    1UNL    H17   51  -0.066  -0.071   0.177
    1UNL    H18   52  -0.170   0.072   0.080
    1UNL    H19   53  -0.422   0.298  -0.073
    1UNL    H20   54  -0.225   0.380   0.077
    1UNL    H21   55  -0.290   0.249   0.190
    1UNL    H22   56  -0.496   0.398   0.164
    1UNL    H23   57  -0.567   0.134  -0.033
    1UNL    H24   58  -0.642   0.159   0.188
    1UNL    H25   59  -0.423   0.043   0.208
    1UNL    H26   60  -0.569  -0.130   0.040
    1UNL    H27   61  -0.301  -0.151   0.057
    1UNL    H28   62  -0.369  -0.044  -0.183
   0.00000   0.00000   0.00000   0.00000   0.00000   0.00000   0.00000   0.00000   0.00000
Generated with MDTraj, t= 14.0
 62
    1UNL     C1    1  -0.167  -0.289  -0.213
    1UNL     C2    2  -0.049  -0.256  -0.120
    1UNL     C3    3   0.004  -0.371  -0.025
    1UNL     C4    4   0.125  -0.325   0.052
    1UNL     O1    5   0.170  -0.418   0.144
    1UNL     O2    6   0.223  -0.294  -0.062
    1UNL     C5    7   0.165  -0.185  -0.128
    1UNL     O3    8   0.061  -0.229  -0.213
    1UNL     C6    9   0.104  -0.093  -0.021
    1UNL     C7   10   0.155   0.051  -0.021
    1UNL     O4   11   0.294   0.051  -0.003
    1UNL     C8   12   0.354   0.163  -0.058
    1UNL     O5   13   0.283   0.243  -0.116
    1UNL     C9   14   0.502   0.173  -0.044
    1UNL    C10   15   0.581   0.077   0.014
    1UNL    C11   16   0.722   0.094   0.023
    1UNL    C12   17   0.778   0.214  -0.015
    1UNL    C13   18   0.698   0.314  -0.071
    1UNL    C14   19   0.560   0.294  -0.088
    1UNL    C15   20   0.097  -0.185   0.105
    1UNL    C16   21  -0.054  -0.145   0.116
    1UNL    C17   22  -0.055  -0.120  -0.037
    1UNL     O6   23  -0.127  -0.017  -0.099
    1UNL    C18   24  -0.225   0.044  -0.022
    1UNL     O7   25  -0.286   0.155  -0.086
    1UNL    C19   26  -0.380   0.238  -0.008
    1UNL    C20   27  -0.315   0.316   0.108
    1UNL     O8   28  -0.404   0.405   0.171
    1UNL    C21   29  -0.493   0.137   0.047
    1UNL     O9   30  -0.583   0.202   0.137
    1UNL    C22   31  -0.442   0.015   0.115
    1UNL    O10   32  -0.539  -0.083   0.146
    1UNL    C23   33  -0.339  -0.049   0.010
    1UNL    O11   34  -0.403  -0.095  -0.111
    1UNL     H1   35  -0.243  -0.342  -0.157
    1UNL     H2   36  -0.220  -0.216  -0.270
    1UNL     H3   37  -0.132  -0.352  -0.295
    1UNL     H4   38  -0.086  -0.377   0.048
    1UNL     H5   39   0.021  -0.460  -0.081
    1UNL     H6   40   0.258  -0.389   0.178
    1UNL     H7   41   0.251  -0.141  -0.186
    1UNL     H8   42   0.106   0.113   0.054
    1UNL     H9   43   0.157   0.099  -0.125
    1UNL    H10   44   0.533  -0.013   0.043
    1UNL    H11   45   0.774   0.015   0.066
    1UNL    H12   46   0.885   0.242   0.005
    1UNL    H13   47   0.751   0.404  -0.102
    1UNL    H14   48   0.512   0.383  -0.126
    1UNL    H15   49   0.173  -0.138   0.176
    1UNL    H16   50  -0.114  -0.220   0.153
    1UNL    H17   51  -0.073  -0.046   0.168
    1UNL    H18   52  -0.179   0.076   0.077
    1UNL    H19   53  -0.423   0.297  -0.089
    1UNL    H20   54  -0.229   0.382   0.066
    1UNL    H21   55  -0.274   0.256   0.187
    1UNL    H22   56  -0.493   0.360   0.190
    1UNL    H23   57  -0.553   0.093  -0.032
    1UNL    H24   58  -0.657   0.142   0.159
    1UNL    H25   59  -0.389   0.037   0.209
    1UNL    H26   60  -0.570  -0.118   0.061
    1UNL    H27   61  -0.302  -0.145   0.055
    1UNL    H28   62  -0.380  -0.029  -0.184
   0.00000   0.00000   0.00000   0.00000   0.00000   0.00000   0.00000   0.00000   0.00000
Generated with MDTraj, t= 15.0
 62
    1UNL     C1    1  -0.190  -0.274  -0.187
    1UNL     C2    2  -0.052  -0.254  -0.119
    1UNL     C3    3  -0.019  -0.364  -0.021
    1UNL     C4    4   0.111  -0.321   0.052
    1UNL     O1    5   0.146  -0.413   0.153
    1UNL     O2    6   0.209  -0.312  -0.059
    1UNL     C5    7   0.168  -0.200  -0.131
    1UNL     O3    8   0.059  -0.243  -0.215
    1UNL     C6    9   0.110  -0.097  -0.035
    1UNL     C7   10   0.170   0.042  -0.025
    1UNL     O4   11   0.308   0.045  -0.008
    1UNL     C8   12   0.352   0.168  -0.051
    1UNL     O5   13   0.278   0.255  -0.094
    1UNL     C9   14   0.504   0.182  -0.047
    1UNL    C10   15   0.582   0.089   0.014
    1UNL    C11   16   0.720   0.102   0.025
    1UNL    C12   17   0.780   0.213  -0.022
    1UNL    C13   18   0.701   0.322  -0.072
    1UNL    C14   19   0.563   0.303  -0.084
    1UNL    C15   20   0.104  -0.176   0.104
    1UNL    C16   21  -0.038  -0.123   0.119
    1UNL    C17   22  -0.050  -0.116  -0.041
    1UNL     O6   23  -0.117  -0.009  -0.112
    1UNL    C18   24  -0.217   0.054  -0.034
    1UNL     O7   25  -0.296   0.163  -0.101
    1UNL    C19   26  -0.384   0.232  -0.012
    1UNL    C20   27  -0.309   0.296   0.105
    1UNL     O8   28  -0.394   0.370   0.179
    1UNL    C21   29  -0.488   0.130   0.045
    1UNL     O9   30  -0.591   0.188   0.126
    1UNL    C22   31  -0.428   0.012   0.114
    1UNL    O10   32  -0.531  -0.075   0.149
    1UNL    C23   33  -0.329  -0.050   0.011
    1UNL    O11   34  -0.407  -0.090  -0.104
    1UNL     H1   35  -0.279  -0.297  -0.123
    1UNL     H2   36  -0.216  -0.190  -0.246
    1UNL     H3   37  -0.180  -0.344  -0.267
    1UNL     H4   38  -0.111  -0.371   0.047
    1UNL     H5   39  -0.002  -0.452  -0.076
    1UNL     H6   40   0.192  -0.482   0.098
    1UNL     H7   41   0.251  -0.139  -0.172
    1UNL     H8   42   0.143   0.101   0.063
    1UNL     H9   43   0.152   0.103  -0.121
    1UNL    H10   44   0.526   0.008   0.060
    1UNL    H11   45   0.785   0.013   0.055
    1UNL    H12   46   0.877   0.225   0.012
    1UNL    H13   47   0.743   0.413  -0.109
    1UNL    H14   48   0.511   0.380  -0.139
    1UNL    H15   49   0.174  -0.146   0.188
    1UNL    H16   50  -0.093  -0.190   0.175
    1UNL    H17   51  -0.039  -0.019   0.164
    1UNL    H18   52  -0.156   0.104   0.049
    1UNL    H19   53  -0.439   0.306  -0.068
    1UNL    H20   54  -0.236   0.376   0.068
    1UNL    H21   55  -0.254   0.220   0.161
    1UNL    H22   56  -0.477   0.319   0.190
    1UNL    H23   57  -0.547   0.090  -0.040
    1UNL    H24   58  -0.648   0.114   0.152
    1UNL    H25   59  -0.377   0.043   0.208
    1UNL    H26   60  -0.557  -0.117   0.066
    1UNL    H27   61  -0.290  -0.146   0.055
    1UNL    H28   62  -0.408  -0.026  -0.170
   0.00000   0.00000   0.00000   0.00000   0.00000   0.00000   0.00000   0.00000   0.00000
Generated with MDTraj, t= 16.0
 62
    1UNL     C1    1  -0.196  -0.281  -0.183
    1UNL     C2    2  -0.059  -0.256  -0.118
    1UNL     C3    3  -0.023  -0.370  -0.017
    1UNL     C4    4   0.111  -0.327   0.052
    1UNL     O1    5   0.146  -0.410   0.165
    1UNL     O2    6   0.208  -0.328  -0.054
    1UNL     C5    7   0.166  -0.227  -0.140
    1UNL     O3    8   0.054  -0.258  -0.207
    1UNL     C6    9   0.109  -0.106  -0.048
    1UNL     C7   10   0.164   0.036  -0.069
    1UNL     O4   11   0.302   0.045  -0.037
    1UNL     C8   12   0.354   0.170  -0.045
    1UNL     O5   13   0.287   0.268  -0.068
    1UNL     C9   14   0.505   0.193  -0.032
    1UNL    C10   15   0.583   0.096   0.024
    1UNL    C11   16   0.717   0.103   0.020
    1UNL    C12   17   0.779   0.219  -0.029
    1UNL    C13   18   0.703   0.324  -0.071
    1UNL    C14   19   0.564   0.311  -0.075
    1UNL    C15   20   0.109  -0.175   0.093
    1UNL    C16   21  -0.034  -0.115   0.109
    1UNL    C17   22  -0.046  -0.114  -0.042
    1UNL     O6   23  -0.119  -0.001  -0.103
    1UNL    C18   24  -0.221   0.054  -0.030
    1UNL     O7   25  -0.282   0.167  -0.086
    1UNL    C19   26  -0.373   0.233   0.000
    1UNL    C20   27  -0.315   0.314   0.117
    1UNL     O8   28  -0.406   0.396   0.182
    1UNL    C21   29  -0.491   0.136   0.046
    1UNL     O9   30  -0.587   0.192   0.140
    1UNL    C22   31  -0.436   0.005   0.104
    1UNL    O10   32  -0.540  -0.088   0.125
    1UNL    C23   33  -0.325  -0.050   0.007
    1UNL    O11   34  -0.385  -0.105  -0.107
    1UNL     H1   35  -0.272  -0.264  -0.106
    1UNL     H2   36  -0.206  -0.210  -0.264
    1UNL     H3   37  -0.200  -0.373  -0.234
    1UNL     H4   38  -0.108  -0.387   0.044
    1UNL     H5   39   0.007  -0.466  -0.059
    1UNL     H6   40   0.226  -0.454   0.132
    1UNL     H7   41   0.239  -0.183  -0.204
    1UNL     H8   42   0.116   0.115  -0.015
    1UNL     H9   43   0.162   0.058  -0.181
    1UNL    H10   44   0.531   0.006   0.051
    1UNL    H11   45   0.763   0.023   0.067
    1UNL    H12   46   0.891   0.209  -0.048
    1UNL    H13   47   0.757   0.413  -0.107
    1UNL    H14   48   0.496   0.383  -0.119
    1UNL    H15   49   0.188  -0.144   0.171
    1UNL    H16   50  -0.109  -0.178   0.156
    1UNL    H17   51  -0.047  -0.016   0.154
    1UNL    H18   52  -0.166   0.101   0.058
    1UNL    H19   53  -0.408   0.314  -0.064
    1UNL    H20   54  -0.226   0.373   0.081
    1UNL    H21   55  -0.277   0.239   0.187
    1UNL    H22   56  -0.481   0.336   0.199
    1UNL    H23   57  -0.549   0.119  -0.050
    1UNL    H24   58  -0.655   0.122   0.156
    1UNL    H25   59  -0.405   0.032   0.208
    1UNL    H26   60  -0.575  -0.126   0.039
    1UNL    H27   61  -0.268  -0.135   0.053
    1UNL    H28   62  -0.379  -0.038  -0.185
   0.00000   0.00000   0.00000   0.00000   0.00000   0.00000   0.00000   0.00000   0.00000
Generated with MDTraj, t= 17.0
 62
    1UNL     C1    1  -0.204  -0.285  -0.159
    1UNL     C2    2  -0.064  -0.265  -0.103
    1UNL     C3    3  -0.006  -0.376  -0.002
    1UNL     C4    4   0.132  -0.328   0.056
    1UNL     O1    5   0.185  -0.408   0.168
    1UNL     O2    6   0.219  -0.319  -0.073
    1UNL     C5    7   0.154  -0.214  -0.149
    1UNL     O3    8   0.034  -0.259  -0.216
    1UNL     C6    9   0.110  -0.105  -0.050
    1UNL     C7   10   0.153   0.036  -0.064
    1UNL     O4   11   0.298   0.037  -0.055
    1UNL     C8   12   0.357   0.163  -0.051
    1UNL     O5   13   0.286   0.261  -0.037
    1UNL     C9   14   0.502   0.181  -0.042
    1UNL    C10   15   0.586   0.077   0.001
    1UNL    C11   16   0.718   0.105   0.023
    1UNL    C12   17   0.775   0.231  -0.013
    1UNL    C13   18   0.689   0.331  -0.056
    1UNL    C14   19   0.555   0.301  -0.080
    1UNL    C15   20   0.114  -0.174   0.092
    1UNL    C16   21  -0.028  -0.121   0.116
    1UNL    C17   22  -0.043  -0.123  -0.037
    1UNL     O6   23  -0.119  -0.007  -0.095
    1UNL    C18   24  -0.223   0.049  -0.016
    1UNL     O7   25  -0.279   0.169  -0.080
    1UNL    C19   26  -0.376   0.236   0.001
    1UNL    C20   27  -0.306   0.312   0.118
    1UNL     O8   28  -0.401   0.405   0.175
    1UNL    C21   29  -0.494   0.139   0.045
    1UNL     O9   30  -0.579   0.209   0.136
    1UNL    C22   31  -0.447  -0.001   0.089
    1UNL    O10   32  -0.546  -0.090   0.122
    1UNL    C23   33  -0.344  -0.059  -0.009
    1UNL    O11   34  -0.397  -0.079  -0.138
    1UNL     H1   35  -0.266  -0.296  -0.072
    1UNL     H2   36  -0.226  -0.201  -0.225
    1UNL     H3   37  -0.191  -0.368  -0.223
    1UNL     H4   38  -0.067  -0.397   0.076
    1UNL     H5   39   0.011  -0.469  -0.057
    1UNL     H6   40   0.276  -0.376   0.172
    1UNL     H7   41   0.225  -0.176  -0.217
    1UNL     H8   42   0.094   0.095   0.005
    1UNL     H9   43   0.146   0.068  -0.170
    1UNL    H10   44   0.549  -0.013   0.049
    1UNL    H11   45   0.784   0.030   0.075
    1UNL    H12   46   0.877   0.238  -0.010
    1UNL    H13   47   0.733   0.421  -0.090
    1UNL    H14   48   0.481   0.378  -0.097
    1UNL    H15   49   0.204  -0.133   0.150
    1UNL    H16   50  -0.091  -0.193   0.178
    1UNL    H17   51  -0.039  -0.027   0.151
    1UNL    H18   52  -0.181   0.083   0.084
    1UNL    H19   53  -0.409   0.325  -0.057
    1UNL    H20   54  -0.223   0.369   0.074
    1UNL    H21   55  -0.253   0.254   0.195
    1UNL    H22   56  -0.492   0.363   0.180
    1UNL    H23   57  -0.547   0.121  -0.056
    1UNL    H24   58  -0.644   0.142   0.169
    1UNL    H25   59  -0.398   0.008   0.189
    1UNL    H26   60  -0.584  -0.134   0.045
    1UNL    H27   61  -0.309  -0.156   0.035
    1UNL    H28   62  -0.381   0.007  -0.189
   0.00000   0.00000   0.00000   0.00000   0.00000   0.00000   0.00000   0.00000   0.00000
Generated with MDTraj, t= 18.0
 62
    1UNL     C1    1  -0.200  -0.311  -0.137
    1UNL     C2    2  -0.056  -0.273  -0.095
    1UNL     C3    3   0.004  -0.376   0.003
    1UNL     C4    4   0.140  -0.326   0.046
    1UNL     O1    5   0.211  -0.409   0.142
    1UNL     O2    6   0.219  -0.315  -0.079
    1UNL     C5    7   0.157  -0.218  -0.156
    1UNL     O3    8   0.028  -0.265  -0.206
    1UNL     C6    9   0.108  -0.103  -0.053
    1UNL     C7   10   0.162   0.039  -0.056
    1UNL     O4   11   0.307   0.040  -0.063
    1UNL     C8   12   0.347   0.169  -0.044
    1UNL     O5   13   0.270   0.263  -0.033
    1UNL     C9   14   0.494   0.189  -0.040
    1UNL    C10   15   0.582   0.078  -0.005
    1UNL    C11   16   0.719   0.095   0.006
    1UNL    C12   17   0.775   0.220  -0.014
    1UNL    C13   18   0.693   0.330  -0.048
    1UNL    C14   19   0.554   0.318  -0.045
    1UNL    C15   20   0.126  -0.168   0.091
    1UNL    C16   21  -0.025  -0.124   0.122
    1UNL    C17   22  -0.047  -0.124  -0.033
    1UNL     O6   23  -0.126  -0.018  -0.101
    1UNL    C18   24  -0.230   0.043  -0.029
    1UNL     O7   25  -0.277   0.158  -0.087
    1UNL    C19   26  -0.371   0.237  -0.007
    1UNL    C20   27  -0.296   0.299   0.117
    1UNL     O8   28  -0.389   0.389   0.181
    1UNL    C21   29  -0.496   0.151   0.038
    1UNL     O9   30  -0.585   0.235   0.118
    1UNL    C22   31  -0.454   0.014   0.097
    1UNL    O10   32  -0.570  -0.065   0.108
    1UNL    C23   33  -0.344  -0.053   0.001
    1UNL    O11   34  -0.412  -0.085  -0.113
    1UNL     H1   35  -0.265  -0.320  -0.054
    1UNL     H2   36  -0.225  -0.237  -0.213
    1UNL     H3   37  -0.191  -0.400  -0.197
    1UNL     H4   38  -0.054  -0.392   0.092
    1UNL     H5   39   0.016  -0.466  -0.053
    1UNL     H6   40   0.300  -0.429   0.111
    1UNL     H7   41   0.223  -0.181  -0.229
    1UNL     H8   42   0.135   0.090   0.036
    1UNL     H9   43   0.115   0.093  -0.137
    1UNL    H10   44   0.537  -0.014   0.032
    1UNL    H11   45   0.789   0.027   0.045
    1UNL    H12   46   0.886   0.239  -0.015
    1UNL    H13   47   0.724   0.436  -0.052
    1UNL    H14   48   0.485   0.396  -0.077
    1UNL    H15   49   0.208  -0.123   0.158
    1UNL    H16   50  -0.087  -0.200   0.175
    1UNL    H17   51  -0.046  -0.030   0.158
    1UNL    H18   52  -0.178   0.086   0.063
    1UNL    H19   53  -0.407   0.327  -0.067
    1UNL    H20   54  -0.206   0.354   0.101
    1UNL    H21   55  -0.262   0.224   0.187
    1UNL    H22   56  -0.478   0.357   0.172
    1UNL    H23   57  -0.553   0.138  -0.062
    1UNL    H24   58  -0.647   0.175   0.161
    1UNL    H25   59  -0.410   0.023   0.198
    1UNL    H26   60  -0.576  -0.125   0.032
    1UNL    H27   61  -0.302  -0.151   0.039
    1UNL    H28   62  -0.395  -0.028  -0.185
   0.00000   0.00000   0.00000   0.00000   0.00000   0.00000   0.00000   0.00000   0.00000
Generated with MDTraj, t= 19.0
 62
    1UNL     C1    1  -0.200  -0.327  -0.153
    1UNL     C2    2  -0.058  -0.281  -0.102
    1UNL     C3    3  -0.000  -0.375   0.005
    1UNL     C4    4   0.135  -0.324   0.037
    1UNL     O1    5   0.201  -0.395   0.142
    1UNL     O2    6   0.224  -0.308  -0.079
    1UNL     C5    7   0.159  -0.208  -0.160
    1UNL     O3    8   0.040  -0.271  -0.211
    1UNL     C6    9   0.105  -0.101  -0.060
    1UNL     C7   10   0.157   0.046  -0.079
    1UNL     O4   11   0.297   0.048  -0.038
    1UNL     C8   12   0.331   0.175  -0.031
    1UNL     O5   13   0.259   0.275  -0.042
    1UNL     C9   14   0.485   0.192  -0.022
    1UNL    C10   15   0.567   0.078  -0.026
    1UNL    C11   16   0.705   0.086  -0.020
    1UNL    C12   17   0.765   0.213  -0.023
    1UNL    C13   18   0.684   0.327  -0.022
    1UNL    C14   19   0.549   0.316  -0.020
    1UNL    C15   20   0.127  -0.167   0.081
    1UNL    C16   21  -0.013  -0.120   0.117
    1UNL    C17   22  -0.044  -0.129  -0.041
    1UNL     O6   23  -0.129  -0.034  -0.099
    1UNL    C18   24  -0.218   0.036  -0.021
    1UNL     O7   25  -0.258   0.155  -0.083
    1UNL    C19   26  -0.350   0.235   0.004
    1UNL    C20   27  -0.287   0.292   0.129
    1UNL     O8   28  -0.374   0.390   0.179
    1UNL    C21   29  -0.478   0.161   0.027
    1UNL     O9   30  -0.583   0.237   0.090
    1UNL    C22   31  -0.461   0.032   0.102
    1UNL    O10   32  -0.582  -0.041   0.100
    1UNL    C23   33  -0.343  -0.056   0.034
    1UNL    O11   34  -0.399  -0.119  -0.082
    1UNL     H1   35  -0.251  -0.344  -0.063
    1UNL     H2   36  -0.256  -0.258  -0.213
    1UNL     H3   37  -0.201  -0.418  -0.215
    1UNL     H4   38  -0.074  -0.370   0.092
    1UNL     H5   39   0.017  -0.471  -0.030
    1UNL     H6   40   0.289  -0.354   0.155
    1UNL     H7   41   0.223  -0.180  -0.240
    1UNL     H8   42   0.101   0.120  -0.018
    1UNL     H9   43   0.138   0.076  -0.181
    1UNL    H10   44   0.522  -0.018  -0.034
    1UNL    H11   45   0.770  -0.001  -0.027
    1UNL    H12   46   0.863   0.245  -0.002
    1UNL    H13   47   0.731   0.417  -0.053
    1UNL    H14   48   0.475   0.394  -0.033
    1UNL    H15   49   0.200  -0.123   0.157
    1UNL    H16   50  -0.080  -0.186   0.166
    1UNL    H17   51  -0.023  -0.017   0.158
    1UNL    H18   52  -0.155   0.069   0.071
    1UNL    H19   53  -0.384   0.322  -0.062
    1UNL    H20   54  -0.190   0.326   0.101
    1UNL    H21   55  -0.268   0.219   0.206
    1UNL    H22   56  -0.463   0.343   0.173
    1UNL    H23   57  -0.522   0.133  -0.077
    1UNL    H24   58  -0.651   0.169   0.112
    1UNL    H25   59  -0.444   0.047   0.210
    1UNL    H26   60  -0.579  -0.118   0.036
    1UNL    H27   61  -0.309  -0.137   0.103
    1UNL    H28   62  -0.383  -0.054  -0.155
   0.00000   0.00000   0.00000   0.00000   0.00000   0.00000   0.00000   0.00000   0.00000
Generated with MDTraj, t= 20.0
 62
    1UNL     C1    1  -0.187  -0.329  -0.149
    1UNL     C2    2  -0.048  -0.287  -0.102
    1UNL     C3    3   0.019  -0.385   0.002
    1UNL     C4    4   0.147  -0.323   0.050
    1UNL     O1    5   0.213  -0.409   0.141
    1UNL     O2    6   0.229  -0.307  -0.072
    1UNL     C5    7   0.163  -0.208  -0.151
    1UNL     O3    8   0.045  -0.278  -0.212
    1UNL     C6    9   0.106  -0.110  -0.045
    1UNL     C7   10   0.139   0.042  -0.071
    1UNL     O4   11   0.281   0.045  -0.066
    1UNL     C8   12   0.326   0.174  -0.043
    1UNL     O5   13   0.252   0.273  -0.042
    1UNL     C9   14   0.471   0.188  -0.029
    1UNL    C10   15   0.558   0.081  -0.052
    1UNL    C11   16   0.700   0.095  -0.041
    1UNL    C12   17   0.753   0.217  -0.005
    1UNL    C13   18   0.668   0.325   0.006
    1UNL    C14   19   0.535   0.307  -0.006
    1UNL    C15   20   0.113  -0.178   0.099
    1UNL    C16   21  -0.033  -0.145   0.122
    1UNL    C17   22  -0.051  -0.138  -0.032
    1UNL     O6   23  -0.122  -0.031  -0.105
    1UNL    C18   24  -0.217   0.046  -0.023
    1UNL     O7   25  -0.261   0.165  -0.089
    1UNL    C19   26  -0.353   0.249  -0.010
    1UNL    C20   27  -0.277   0.306   0.117
    1UNL     O8   28  -0.363   0.383   0.189
    1UNL    C21   29  -0.479   0.166   0.019
    1UNL     O9   30  -0.592   0.234   0.090
    1UNL    C22   31  -0.444   0.042   0.102
    1UNL    O10   32  -0.564  -0.035   0.117
    1UNL    C23   33  -0.339  -0.040   0.028
    1UNL    O11   34  -0.389  -0.099  -0.090
    1UNL     H1   35  -0.267  -0.348  -0.079
    1UNL     H2   36  -0.229  -0.270  -0.226
    1UNL     H3   37  -0.174  -0.420  -0.209
    1UNL     H4   38  -0.046  -0.406   0.094
    1UNL     H5   39   0.036  -0.469  -0.056
    1UNL     H6   40   0.300  -0.435   0.100
    1UNL     H7   41   0.233  -0.175  -0.228
    1UNL     H8   42   0.091   0.104   0.010
    1UNL     H9   43   0.109   0.075  -0.168
    1UNL    H10   44   0.527  -0.014  -0.098
    1UNL    H11   45   0.761   0.007  -0.046
    1UNL    H12   46   0.863   0.227  -0.000
    1UNL    H13   47   0.699   0.430  -0.000
    1UNL    H14   48   0.464   0.390  -0.012
    1UNL    H15   49   0.197  -0.118   0.149
    1UNL    H16   50  -0.086  -0.220   0.168
    1UNL    H17   51  -0.052  -0.040   0.166
    1UNL    H18   52  -0.157   0.073   0.073
    1UNL    H19   53  -0.395   0.329  -0.077
    1UNL    H20   54  -0.198   0.371   0.085
    1UNL    H21   55  -0.222   0.230   0.171
    1UNL    H22   56  -0.454   0.348   0.168
    1UNL    H23   57  -0.526   0.130  -0.076
    1UNL    H24   58  -0.661   0.163   0.101
    1UNL    H25   59  -0.407   0.070   0.202
    1UNL    H26   60  -0.564  -0.121   0.075
    1UNL    H27   61  -0.301  -0.122   0.087
    1UNL    H28   62  -0.392  -0.026  -0.164
   0.00000   0.00000   0.00000   0.00000   0.00000   0.00000   0.00000   0.00000   0.00000
Generated with MDTraj, t= 21.0
 62
    1UNL     C1    1  -0.192  -0.313  -0.155
    1UNL     C2    2  -0.055  -0.288  -0.103
    1UNL     C3    3   0.014  -0.394  -0.002
    1UNL     C4    4   0.147  -0.334   0.053
    1UNL     O1    5   0.200  -0.412   0.162
    1UNL     O2    6   0.227  -0.317  -0.065
    1UNL     C5    7   0.164  -0.217  -0.155
    1UNL     O3    8   0.048  -0.269  -0.211
    1UNL     C6    9   0.100  -0.111  -0.049
    1UNL     C7   10   0.137   0.041  -0.057
    1UNL     O4   11   0.277   0.050  -0.071
    1UNL     C8   12   0.330   0.175  -0.052
    1UNL     O5   13   0.253   0.265  -0.023
    1UNL     C9   14   0.474   0.199  -0.043
    1UNL    C10   15   0.560   0.100  -0.082
    1UNL    C11   16   0.697   0.113  -0.053
    1UNL    C12   17   0.749   0.225   0.007
    1UNL    C13   18   0.662   0.329   0.027
    1UNL    C14   19   0.523   0.317   0.002
    1UNL    C15   20   0.115  -0.179   0.092
    1UNL    C16   21  -0.032  -0.148   0.116
    1UNL    C17   22  -0.054  -0.142  -0.038
    1UNL     O6   23  -0.127  -0.042  -0.104
    1UNL    C18   24  -0.224   0.030  -0.027
    1UNL     O7   25  -0.256   0.153  -0.085
    1UNL    C19   26  -0.345   0.239  -0.014
    1UNL    C20   27  -0.270   0.317   0.099
    1UNL     O8   28  -0.357   0.404   0.166
    1UNL    C21   29  -0.473   0.161   0.027
    1UNL     O9   30  -0.567   0.241   0.105
    1UNL    C22   31  -0.434   0.035   0.106
    1UNL    O10   32  -0.545  -0.041   0.145
    1UNL    C23   33  -0.345  -0.055   0.010
    1UNL    O11   34  -0.409  -0.088  -0.114
    1UNL     H1   35  -0.269  -0.287  -0.081
    1UNL     H2   36  -0.214  -0.249  -0.235
    1UNL     H3   37  -0.213  -0.410  -0.195
    1UNL     H4   38  -0.069  -0.408   0.069
    1UNL     H5   39   0.038  -0.489  -0.055
    1UNL     H6   40   0.218  -0.507   0.138
    1UNL     H7   41   0.233  -0.166  -0.223
    1UNL     H8   42   0.119   0.090   0.045
    1UNL     H9   43   0.084   0.092  -0.136
    1UNL    H10   44   0.522   0.000  -0.096
    1UNL    H11   45   0.765   0.029  -0.065
    1UNL    H12   46   0.855   0.235   0.020
    1UNL    H13   47   0.693   0.417   0.075
    1UNL    H14   48   0.456   0.397   0.019
    1UNL    H15   49   0.186  -0.131   0.169
    1UNL    H16   50  -0.077  -0.229   0.170
    1UNL    H17   51  -0.038  -0.053   0.176
    1UNL    H18   52  -0.169   0.054   0.071
    1UNL    H19   53  -0.376   0.307  -0.094
    1UNL    H20   54  -0.172   0.354   0.067
    1UNL    H21   55  -0.233   0.247   0.175
    1UNL    H22   56  -0.439   0.359   0.188
    1UNL    H23   57  -0.523   0.132  -0.065
    1UNL    H24   58  -0.643   0.184   0.128
    1UNL    H25   59  -0.368   0.063   0.189
    1UNL    H26   60  -0.551  -0.127   0.093
    1UNL    H27   61  -0.318  -0.139   0.069
    1UNL    H28   62  -0.375  -0.037  -0.195
   0.00000   0.00000   0.00000   0.00000   0.00000   0.00000   0.00000   0.00000   0.00000
Generated with MDTraj, t= 22.0
 62
    1UNL     C1    1  -0.192  -0.322  -0.176
    1UNL     C2    2  -0.057  -0.282  -0.115
    1UNL     C3    3  -0.012  -0.389  -0.005
    1UNL     C4    4   0.134  -0.333   0.050
    1UNL     O1    5   0.178  -0.409   0.162
    1UNL     O2    6   0.227  -0.329  -0.060
    1UNL     C5    7   0.167  -0.236  -0.153
    1UNL     O3    8   0.048  -0.283  -0.216
    1UNL     C6    9   0.107  -0.119  -0.050
    1UNL     C7   10   0.154   0.026  -0.072
    1UNL     O4   11   0.287   0.039  -0.054
    1UNL     C8   12   0.321   0.165  -0.027
    1UNL     O5   13   0.240   0.255  -0.019
    1UNL     C9   14   0.475   0.199  -0.013
    1UNL    C10   15   0.565   0.106  -0.066
    1UNL    C11   16   0.694   0.136  -0.077
    1UNL    C12   17   0.747   0.254  -0.027
    1UNL    C13   18   0.663   0.341   0.035
    1UNL    C14   19   0.521   0.318   0.040
    1UNL    C15   20   0.111  -0.185   0.091
    1UNL    C16   21  -0.032  -0.128   0.111
    1UNL    C17   22  -0.051  -0.138  -0.042
    1UNL     O6   23  -0.130  -0.041  -0.110
    1UNL    C18   24  -0.221   0.039  -0.032
    1UNL     O7   25  -0.279   0.151  -0.104
    1UNL    C19   26  -0.354   0.235  -0.017
    1UNL    C20   27  -0.266   0.304   0.087
    1UNL     O8   28  -0.332   0.418   0.134
    1UNL    C21   29  -0.474   0.169   0.044
    1UNL     O9   30  -0.538   0.249   0.141
    1UNL    C22   31  -0.433   0.033   0.110
    1UNL    O10   32  -0.539  -0.054   0.134
    1UNL    C23   33  -0.338  -0.053   0.020
    1UNL    O11   34  -0.408  -0.098  -0.095
    1UNL     H1   35  -0.260  -0.351  -0.094
    1UNL     H2   36  -0.235  -0.237  -0.225
    1UNL     H3   37  -0.183  -0.397  -0.251
    1UNL     H4   38  -0.083  -0.409   0.072
    1UNL     H5   39   0.006  -0.490  -0.065
    1UNL     H6   40   0.275  -0.400   0.161
    1UNL     H7   41   0.240  -0.196  -0.228
    1UNL     H8   42   0.101   0.102  -0.003
    1UNL     H9   43   0.139   0.049  -0.177
    1UNL    H10   44   0.526   0.006  -0.090
    1UNL    H11   45   0.757   0.058  -0.116
    1UNL    H12   46   0.853   0.277  -0.025
    1UNL    H13   47   0.705   0.434   0.078
    1UNL    H14   48   0.453   0.398   0.080
    1UNL    H15   49   0.195  -0.143   0.159
    1UNL    H16   50  -0.097  -0.204   0.160
    1UNL    H17   51  -0.026  -0.036   0.159
    1UNL    H18   52  -0.151   0.084   0.043
    1UNL    H19   53  -0.392   0.313  -0.081
    1UNL    H20   54  -0.170   0.336   0.041
    1UNL    H21   55  -0.231   0.241   0.168
    1UNL    H22   56  -0.432   0.412   0.150
    1UNL    H23   57  -0.544   0.156  -0.034
    1UNL    H24   58  -0.624   0.209   0.161
    1UNL    H25   59  -0.382   0.053   0.205
    1UNL    H26   60  -0.535  -0.136   0.077
    1UNL    H27   61  -0.304  -0.127   0.086
    1UNL    H28   62  -0.389  -0.041  -0.167
   0.00000   0.00000   0.00000   0.00000   0.00000   0.00000   0.00000   0.00000   0.00000
Generated with MDTraj, t= 23.0
 62
    1UNL     C1    1  -0.204  -0.330  -0.172
    1UNL     C2    2  -0.068  -0.288  -0.109
    1UNL     C3    3  -0.024  -0.392  -0.008
    1UNL     C4    4   0.114  -0.331   0.050
    1UNL     O1    5   0.167  -0.418   0.151
    1UNL     O2    6   0.202  -0.332  -0.061
    1UNL     C5    7   0.156  -0.226  -0.144
    1UNL     O3    8   0.034  -0.285  -0.216
    1UNL     C6    9   0.104  -0.115  -0.057
    1UNL     C7   10   0.162   0.024  -0.073
    1UNL     O4   11   0.295   0.030  -0.044
    1UNL     C8   12   0.329   0.159  -0.005
    1UNL     O5   13   0.239   0.236   0.022
    1UNL     C9   14   0.475   0.198  -0.019
    1UNL    C10   15   0.576   0.116  -0.068
    1UNL    C11   16   0.707   0.162  -0.081
    1UNL    C12   17   0.743   0.279  -0.025
    1UNL    C13   18   0.653   0.358   0.043
    1UNL    C14   19   0.517   0.320   0.039
    1UNL    C15   20   0.105  -0.178   0.089
    1UNL    C16   21  -0.042  -0.124   0.110
    1UNL    C17   22  -0.056  -0.140  -0.042
    1UNL     O6   23  -0.126  -0.041  -0.123
    1UNL    C18   24  -0.227   0.034  -0.052
    1UNL     O7   25  -0.280   0.147  -0.122
    1UNL    C19   26  -0.348   0.237  -0.035
    1UNL    C20   27  -0.253   0.323   0.054
    1UNL     O8   28  -0.325   0.416   0.123
    1UNL    C21   29  -0.459   0.165   0.050
    1UNL     O9   30  -0.520   0.234   0.156
    1UNL    C22   31  -0.408   0.026   0.111
    1UNL    O10   32  -0.526  -0.045   0.157
    1UNL    C23   33  -0.331  -0.049   0.008
    1UNL    O11   34  -0.408  -0.112  -0.085
    1UNL     H1   35  -0.277  -0.325  -0.092
    1UNL     H2   36  -0.222  -0.253  -0.249
    1UNL     H3   37  -0.191  -0.423  -0.219
    1UNL     H4   38  -0.082  -0.390   0.083
    1UNL     H5   39  -0.016  -0.501  -0.052
    1UNL     H6   40   0.261  -0.426   0.124
    1UNL     H7   41   0.235  -0.204  -0.221
    1UNL     H8   42   0.123   0.090   0.012
    1UNL     H9   43   0.155   0.074  -0.168
    1UNL    H10   44   0.543   0.030  -0.119
    1UNL    H11   45   0.784   0.097  -0.120
    1UNL    H12   46   0.852   0.293  -0.030
    1UNL    H13   47   0.676   0.459   0.068
    1UNL    H14   48   0.450   0.392   0.073
    1UNL    H15   49   0.199  -0.130   0.138
    1UNL    H16   50  -0.092  -0.194   0.182
    1UNL    H17   51  -0.045  -0.029   0.146
    1UNL    H18   52  -0.161   0.081   0.024
    1UNL    H19   53  -0.391   0.302  -0.108
    1UNL    H20   54  -0.176   0.376  -0.008
    1UNL    H21   55  -0.186   0.262   0.117
    1UNL    H22   56  -0.396   0.365   0.161
    1UNL    H23   57  -0.543   0.146  -0.010
    1UNL    H24   58  -0.584   0.174   0.203
    1UNL    H25   59  -0.347   0.036   0.200
    1UNL    H26   60  -0.558  -0.125   0.112
    1UNL    H27   61  -0.278  -0.121   0.063
    1UNL    H28   62  -0.384  -0.081  -0.178
   0.00000   0.00000   0.00000   0.00000   0.00000   0.00000   0.00000   0.00000   0.00000
Generated with MDTraj, t= 24.0
 62
    1UNL     C1    1  -0.202  -0.306  -0.169
    1UNL     C2    2  -0.063  -0.285  -0.114
    1UNL     C3    3  -0.018  -0.390  -0.008
    1UNL     C4    4   0.121  -0.344   0.048
    1UNL     O1    5   0.157  -0.421   0.167
    1UNL     O2    6   0.211  -0.347  -0.067
    1UNL     C5    7   0.156  -0.242  -0.160
    1UNL     O3    8   0.037  -0.287  -0.217
    1UNL     C6    9   0.106  -0.122  -0.058
    1UNL     C7   10   0.149   0.020  -0.083
    1UNL     O4   11   0.287   0.040  -0.078
    1UNL     C8   12   0.319   0.156  -0.008
    1UNL     O5   13   0.240   0.219   0.058
    1UNL     C9   14   0.467   0.194  -0.012
    1UNL    C10   15   0.567   0.123  -0.069
    1UNL    C11   16   0.699   0.163  -0.071
    1UNL    C12   17   0.730   0.286  -0.020
    1UNL    C13   18   0.634   0.362   0.043
    1UNL    C14   19   0.505   0.319   0.044
    1UNL    C15   20   0.115  -0.187   0.086
    1UNL    C16   21  -0.028  -0.136   0.104
    1UNL    C17   22  -0.049  -0.140  -0.057
    1UNL     O6   23  -0.117  -0.040  -0.129
    1UNL    C18   24  -0.207   0.034  -0.049
    1UNL     O7   25  -0.273   0.149  -0.121
    1UNL    C19   26  -0.350   0.230  -0.034
    1UNL    C20   27  -0.252   0.317   0.050
    1UNL     O8   28  -0.318   0.429   0.097
    1UNL    C21   29  -0.459   0.159   0.051
    1UNL     O9   30  -0.538   0.235   0.143
    1UNL    C22   31  -0.401   0.036   0.124
    1UNL    O10   32  -0.502  -0.035   0.196
    1UNL    C23   33  -0.323  -0.056   0.018
    1UNL    O11   34  -0.425  -0.085  -0.090
    1UNL     H1   35  -0.262  -0.294  -0.082
    1UNL     H2   36  -0.217  -0.221  -0.239
    1UNL     H3   37  -0.204  -0.401  -0.219
    1UNL     H4   38  -0.090  -0.409   0.077
    1UNL     H5   39   0.006  -0.487  -0.057
    1UNL     H6   40   0.234  -0.480   0.159
    1UNL     H7   41   0.225  -0.196  -0.239
    1UNL     H8   42   0.122   0.082   0.007
    1UNL     H9   43   0.110   0.069  -0.170
    1UNL    H10   44   0.544   0.019  -0.099
    1UNL    H11   45   0.768   0.098  -0.125
    1UNL    H12   46   0.831   0.315  -0.034
    1UNL    H13   47   0.670   0.460   0.076
    1UNL    H14   48   0.431   0.395   0.077
    1UNL    H15   49   0.189  -0.153   0.168
    1UNL    H16   50  -0.094  -0.195   0.166
    1UNL    H17   51  -0.032  -0.036   0.152
    1UNL    H18   52  -0.137   0.080   0.025
    1UNL    H19   53  -0.396   0.295  -0.105
    1UNL    H20   54  -0.158   0.346  -0.005
    1UNL    H21   55  -0.208   0.259   0.133
    1UNL    H22   56  -0.412   0.394   0.119
    1UNL    H23   57  -0.534   0.123  -0.013
    1UNL    H24   58  -0.583   0.168   0.200
    1UNL    H25   59  -0.326   0.076   0.190
    1UNL    H26   60  -0.514  -0.118   0.142
    1UNL    H27   61  -0.295  -0.135   0.080
    1UNL    H28   62  -0.391  -0.057  -0.182
   0.00000   0.00000   0.00000   0.00000   0.00000   0.00000   0.00000   0.00000   0.00000
Generated with MDTraj, t= 25.0
 62
    1UNL     C1    1  -0.202  -0.322  -0.166
    1UNL     C2    2  -0.059  -0.297  -0.118
    1UNL     C3    3   0.002  -0.391  -0.007
    1UNL     C4    4   0.140  -0.344   0.043
    1UNL     O1    5   0.182  -0.412   0.163
    1UNL     O2    6   0.224  -0.341  -0.074
    1UNL     C5    7   0.160  -0.244  -0.166
    1UNL     O3    8   0.041  -0.297  -0.221
    1UNL     C6    9   0.107  -0.127  -0.069
    1UNL     C7   10   0.141   0.016  -0.100
    1UNL     O4   11   0.281   0.032  -0.095
    1UNL     C8   12   0.313   0.136  -0.005
    1UNL     O5   13   0.232   0.187   0.067
    1UNL     C9   14   0.456   0.182  -0.001
    1UNL    C10   15   0.558   0.114  -0.065
    1UNL    C11   16   0.685   0.168  -0.070
    1UNL    C12   17   0.714   0.284  -0.010
    1UNL    C13   18   0.612   0.359   0.046
    1UNL    C14   19   0.486   0.308   0.059
    1UNL    C15   20   0.120  -0.191   0.077
    1UNL    C16   21  -0.029  -0.147   0.093
    1UNL    C17   22  -0.049  -0.147  -0.062
    1UNL     O6   23  -0.121  -0.043  -0.126
    1UNL    C18   24  -0.207   0.045  -0.050
    1UNL     O7   25  -0.268   0.155  -0.114
    1UNL    C19   26  -0.352   0.241  -0.038
    1UNL    C20   27  -0.263   0.341   0.046
    1UNL     O8   28  -0.338   0.443   0.103
    1UNL    C21   29  -0.465   0.175   0.048
    1UNL     O9   30  -0.531   0.260   0.140
    1UNL    C22   31  -0.399   0.060   0.126
    1UNL    O10   32  -0.505  -0.023   0.182
    1UNL    C23   33  -0.308  -0.026   0.029
    1UNL    O11   34  -0.388  -0.110  -0.055
    1UNL     H1   35  -0.275  -0.325  -0.091
    1UNL     H2   36  -0.227  -0.243  -0.240
    1UNL     H3   37  -0.196  -0.416  -0.221
    1UNL     H4   38  -0.057  -0.408   0.093
    1UNL     H5   39   0.013  -0.486  -0.055
    1UNL     H6   40   0.249  -0.481   0.152
    1UNL     H7   41   0.234  -0.224  -0.250
    1UNL     H8   42   0.082   0.090  -0.040
    1UNL     H9   43   0.112   0.031  -0.203
    1UNL    H10   44   0.525   0.018  -0.091
    1UNL    H11   45   0.759   0.098  -0.100
    1UNL    H12   46   0.813   0.335  -0.020
    1UNL    H13   47   0.648   0.450   0.092
    1UNL    H14   48   0.410   0.368   0.102
    1UNL    H15   49   0.209  -0.144   0.133
    1UNL    H16   50  -0.103  -0.204   0.135
    1UNL    H17   51  -0.038  -0.040   0.137
    1UNL    H18   52  -0.136   0.085   0.028
    1UNL    H19   53  -0.401   0.302  -0.113
    1UNL    H20   54  -0.175   0.385  -0.010
    1UNL    H21   55  -0.211   0.288   0.128
    1UNL    H22   56  -0.423   0.416   0.142
    1UNL    H23   57  -0.549   0.127  -0.001
    1UNL    H24   58  -0.570   0.196   0.202
    1UNL    H25   59  -0.340   0.106   0.204
    1UNL    H26   60  -0.514  -0.109   0.131
    1UNL    H27   61  -0.256  -0.092   0.091
    1UNL    H28   62  -0.393  -0.066  -0.136
   0.00000   0.00000   0.00000   0.00000   0.00000   0.00000   0.00000   0.00000   0.00000
Generated with MDTraj, t= 26.0
 62
    1UNL     C1    1  -0.205  -0.334  -0.138
    1UNL     C2    2  -0.068  -0.299  -0.099
    1UNL     C3    3   0.001  -0.385   0.003
    1UNL     C4    4   0.143  -0.324   0.030
    1UNL     O1    5   0.215  -0.399   0.123
    1UNL     O2    6   0.209  -0.328  -0.093
    1UNL     C5    7   0.144  -0.230  -0.175
    1UNL     O3    8   0.018  -0.298  -0.222
    1UNL     C6    9   0.101  -0.118  -0.083
    1UNL     C7   10   0.146   0.023  -0.121
    1UNL     O4   11   0.288   0.046  -0.104
    1UNL     C8   12   0.313   0.132   0.003
    1UNL     O5   13   0.222   0.156   0.075
    1UNL     C9   14   0.448   0.183   0.005
    1UNL    C10   15   0.548   0.118  -0.066
    1UNL    C11   16   0.676   0.168  -0.060
    1UNL    C12   17   0.712   0.283   0.004
    1UNL    C13   18   0.604   0.345   0.072
    1UNL    C14   19   0.479   0.297   0.072
    1UNL    C15   20   0.132  -0.167   0.057
    1UNL    C16   21  -0.004  -0.125   0.107
    1UNL    C17   22  -0.050  -0.151  -0.050
    1UNL     O6   23  -0.134  -0.053  -0.115
    1UNL    C18   24  -0.206   0.043  -0.029
    1UNL     O7   25  -0.259   0.142  -0.119
    1UNL    C19   26  -0.337   0.236  -0.043
    1UNL    C20   27  -0.247   0.326   0.042
    1UNL     O8   28  -0.324   0.435   0.086
    1UNL    C21   29  -0.449   0.173   0.038
    1UNL     O9   30  -0.530   0.265   0.099
    1UNL    C22   31  -0.404   0.063   0.129
    1UNL    O10   32  -0.509  -0.009   0.195
    1UNL    C23   33  -0.317  -0.035   0.052
    1UNL    O11   34  -0.394  -0.124  -0.036
    1UNL     H1   35  -0.276  -0.330  -0.058
    1UNL     H2   36  -0.248  -0.276  -0.217
    1UNL     H3   37  -0.208  -0.439  -0.172
    1UNL     H4   38  -0.061  -0.401   0.097
    1UNL     H5   39   0.015  -0.481  -0.042
    1UNL     H6   40   0.238  -0.484   0.077
    1UNL     H7   41   0.207  -0.212  -0.267
    1UNL     H8   42   0.089   0.099  -0.070
    1UNL     H9   43   0.115   0.035  -0.225
    1UNL    H10   44   0.521   0.023  -0.118
    1UNL    H11   45   0.762   0.110  -0.095
    1UNL    H12   46   0.813   0.309   0.020
    1UNL    H13   47   0.618   0.448   0.107
    1UNL    H14   48   0.414   0.355   0.138
    1UNL    H15   49   0.224  -0.113   0.099
    1UNL    H16   50  -0.044  -0.192   0.177
    1UNL    H17   51   0.006  -0.016   0.140
    1UNL    H18   52  -0.136   0.082   0.049
    1UNL    H19   53  -0.383   0.298  -0.124
    1UNL    H20   54  -0.168   0.364  -0.029
    1UNL    H21   55  -0.188   0.276   0.122
    1UNL    H22   56  -0.413   0.401   0.112
    1UNL    H23   57  -0.523   0.129  -0.032
    1UNL    H24   58  -0.603   0.227   0.153
    1UNL    H25   59  -0.346   0.110   0.208
    1UNL    H26   60  -0.526  -0.097   0.158
    1UNL    H27   61  -0.275  -0.114   0.108
    1UNL    H28   62  -0.367  -0.093  -0.122
   0.00000   0.00000   0.00000   0.00000   0.00000   0.00000   0.00000   0.00000   0.00000
Generated with MDTraj, t= 27.0
 62
    1UNL     C1    1  -0.199  -0.346  -0.085
    1UNL     C2    2  -0.057  -0.303  -0.080
    1UNL     C3    3   0.025  -0.388   0.019
    1UNL     C4    4   0.171  -0.324   0.013
    1UNL     O1    5   0.261  -0.387   0.107
    1UNL     O2    6   0.225  -0.328  -0.116
    1UNL     C5    7   0.136  -0.248  -0.197
    1UNL     O3    8   0.011  -0.312  -0.204
    1UNL     C6    9   0.108  -0.120  -0.091
    1UNL     C7   10   0.137   0.025  -0.133
    1UNL     O4   11   0.268   0.073  -0.136
    1UNL     C8   12   0.302   0.118  -0.011
    1UNL     O5   13   0.221   0.131   0.077
    1UNL     C9   14   0.441   0.170   0.005
    1UNL    C10   15   0.545   0.123  -0.071
    1UNL    C11   16   0.674   0.167  -0.053
    1UNL    C12   17   0.697   0.275   0.038
    1UNL    C13   18   0.596   0.323   0.106
    1UNL    C14   19   0.469   0.268   0.099
    1UNL    C15   20   0.156  -0.163   0.044
    1UNL    C16   21   0.012  -0.112   0.097
    1UNL    C17   22  -0.045  -0.147  -0.040
    1UNL     O6   23  -0.139  -0.054  -0.111
    1UNL    C18   24  -0.219   0.046  -0.039
    1UNL     O7   25  -0.276   0.136  -0.126
    1UNL    C19   26  -0.345   0.244  -0.062
    1UNL    C20   27  -0.245   0.327   0.022
    1UNL     O8   28  -0.314   0.430   0.092
    1UNL    C21   29  -0.461   0.187   0.029
    1UNL     O9   30  -0.535   0.277   0.102
    1UNL    C22   31  -0.409   0.079   0.128
    1UNL    O10   32  -0.512   0.008   0.202
    1UNL    C23   33  -0.321  -0.030   0.049
    1UNL    O11   34  -0.411  -0.103  -0.033
    1UNL     H1   35  -0.246  -0.354   0.014
    1UNL     H2   36  -0.273  -0.296  -0.142
    1UNL     H3   37  -0.201  -0.449  -0.121
    1UNL     H4   38  -0.024  -0.405   0.112
    1UNL     H5   39   0.034  -0.491  -0.019
    1UNL     H6   40   0.301  -0.465   0.060
    1UNL     H7   41   0.174  -0.221  -0.296
    1UNL     H8   42   0.074   0.091  -0.077
    1UNL     H9   43   0.098   0.032  -0.236
    1UNL    H10   44   0.517   0.055  -0.147
    1UNL    H11   45   0.754   0.126  -0.110
    1UNL    H12   46   0.796   0.320   0.049
    1UNL    H13   47   0.609   0.410   0.167
    1UNL    H14   48   0.381   0.322   0.129
    1UNL    H15   49   0.247  -0.125   0.102
    1UNL    H16   50  -0.038  -0.176   0.175
    1UNL    H17   51   0.018  -0.004   0.110
    1UNL    H18   52  -0.162   0.108   0.033
    1UNL    H19   53  -0.382   0.308  -0.148
    1UNL    H20   54  -0.158   0.371  -0.035
    1UNL    H21   55  -0.202   0.264   0.100
    1UNL    H22   56  -0.406   0.392   0.105
    1UNL    H23   57  -0.533   0.136  -0.041
    1UNL    H24   58  -0.604   0.234   0.159
    1UNL    H25   59  -0.346   0.119   0.209
    1UNL    H26   60  -0.521  -0.082   0.157
    1UNL    H27   61  -0.275  -0.106   0.108
    1UNL    H28   62  -0.396  -0.064  -0.126
   0.00000   0.00000   0.00000   0.00000   0.00000   0.00000   0.00000   0.00000   0.00000
Generated with MDTraj, t= 28.0
 62
    1UNL     C1    1  -0.195  -0.344  -0.061
    1UNL     C2    2  -0.051  -0.305  -0.073
    1UNL     C3    3   0.052  -0.377   0.020
    1UNL     C4    4   0.193  -0.308   0.019
    1UNL     O1    5   0.283  -0.341   0.126
    1UNL     O2    6   0.237  -0.318  -0.119
    1UNL     C5    7   0.133  -0.242  -0.195
    1UNL     O3    8   0.009  -0.317  -0.206
    1UNL     C6    9   0.103  -0.114  -0.115
    1UNL     C7   10   0.128   0.027  -0.165
    1UNL     O4   11   0.263   0.055  -0.157
    1UNL     C8   12   0.286   0.108  -0.032
    1UNL     O5   13   0.203   0.122   0.056
    1UNL     C9   14   0.426   0.151   0.004
    1UNL    C10   15   0.529   0.132  -0.084
    1UNL    C11   16   0.657   0.172  -0.055
    1UNL    C12   17   0.675   0.250   0.064
    1UNL    C13   18   0.569   0.277   0.144
    1UNL    C14   19   0.443   0.229   0.113
    1UNL    C15   20   0.158  -0.143   0.025
    1UNL    C16   21   0.012  -0.107   0.087
    1UNL    C17   22  -0.042  -0.144  -0.051
    1UNL     O6   23  -0.143  -0.060  -0.114
    1UNL    C18   24  -0.205   0.040  -0.025
    1UNL     O7   25  -0.259   0.140  -0.113
    1UNL    C19   26  -0.337   0.237  -0.047
    1UNL    C20   27  -0.237   0.336   0.027
    1UNL     O8   28  -0.313   0.453   0.060
    1UNL    C21   29  -0.455   0.181   0.040
    1UNL     O9   30  -0.521   0.277   0.116
    1UNL    C22   31  -0.404   0.070   0.132
    1UNL    O10   32  -0.516   0.015   0.195
    1UNL    C23   33  -0.321  -0.034   0.053
    1UNL    O11   34  -0.413  -0.101  -0.030
    1UNL     H1   35  -0.238  -0.342   0.043
    1UNL     H2   36  -0.256  -0.276  -0.116
    1UNL     H3   37  -0.209  -0.442  -0.104
    1UNL     H4   38   0.011  -0.395   0.111
    1UNL     H5   39   0.070  -0.482  -0.014
    1UNL     H6   40   0.351  -0.406   0.092
    1UNL     H7   41   0.173  -0.214  -0.291
    1UNL     H8   42   0.071   0.095  -0.103
    1UNL     H9   43   0.086   0.040  -0.268
    1UNL    H10   44   0.519   0.061  -0.169
    1UNL    H11   45   0.744   0.150  -0.119
    1UNL    H12   46   0.772   0.293   0.089
    1UNL    H13   47   0.569   0.346   0.230
    1UNL    H14   48   0.354   0.250   0.173
    1UNL    H15   49   0.254  -0.100   0.072
    1UNL    H16   50  -0.037  -0.183   0.163
    1UNL    H17   51   0.020  -0.010   0.120
    1UNL    H18   52  -0.144   0.109   0.035
    1UNL    H19   53  -0.386   0.308  -0.124
    1UNL    H20   54  -0.152   0.372  -0.038
    1UNL    H21   55  -0.198   0.301   0.123
    1UNL    H22   56  -0.397   0.419   0.087
    1UNL    H23   57  -0.533   0.132  -0.028
    1UNL    H24   58  -0.575   0.222   0.177
    1UNL    H25   59  -0.340   0.127   0.203
    1UNL    H26   60  -0.532  -0.063   0.140
    1UNL    H27   61  -0.280  -0.111   0.115
    1UNL    H28   62  -0.392  -0.080  -0.127
   0.00000   0.00000   0.00000   0.00000   0.00000   0.00000   0.00000   0.00000   0.00000
Generated with MDTraj, t= 29.0
 62
    1UNL     C1    1  -0.186  -0.352  -0.071
    1UNL     C2    2  -0.044  -0.300  -0.076
    1UNL     C3    3   0.047  -0.368   0.031
    1UNL     C4    4   0.187  -0.296   0.027
    1UNL     O1    5   0.276  -0.349   0.129
    1UNL     O2    6   0.231  -0.321  -0.107
    1UNL     C5    7   0.142  -0.249  -0.188
    1UNL     O3    8   0.017  -0.325  -0.201
    1UNL     C6    9   0.111  -0.117  -0.112
    1UNL     C7   10   0.129   0.019  -0.184
    1UNL     O4   11   0.257   0.065  -0.169
    1UNL     C8   12   0.265   0.144  -0.051
    1UNL     O5   13   0.172   0.168   0.025
    1UNL     C9   14   0.403   0.180  -0.002
    1UNL    C10   15   0.508   0.160  -0.096
    1UNL    C11   16   0.640   0.182  -0.055
    1UNL    C12   17   0.666   0.205   0.078
    1UNL    C13   18   0.562   0.224   0.174
    1UNL    C14   19   0.428   0.208   0.129
    1UNL    C15   20   0.160  -0.142   0.026
    1UNL    C16   21   0.029  -0.096   0.088
    1UNL    C17   22  -0.034  -0.140  -0.052
    1UNL     O6   23  -0.132  -0.059  -0.122
    1UNL    C18   24  -0.199   0.034  -0.036
    1UNL     O7   25  -0.261   0.138  -0.122
    1UNL    C19   26  -0.337   0.233  -0.048
    1UNL    C20   27  -0.236   0.329   0.018
    1UNL     O8   28  -0.296   0.452   0.055
    1UNL    C21   29  -0.448   0.184   0.048
    1UNL     O9   30  -0.507   0.288   0.127
    1UNL    C22   31  -0.389   0.068   0.140
    1UNL    O10   32  -0.502   0.006   0.206
    1UNL    C23   33  -0.313  -0.036   0.053
    1UNL    O11   34  -0.405  -0.110  -0.023
    1UNL     H1   35  -0.242  -0.325   0.022
    1UNL     H2   36  -0.244  -0.321  -0.158
    1UNL     H3   37  -0.170  -0.457  -0.069
    1UNL     H4   38   0.021  -0.367   0.133
    1UNL     H5   39   0.065  -0.475   0.017
    1UNL     H6   40   0.297  -0.442   0.102
    1UNL     H7   41   0.181  -0.246  -0.287
    1UNL     H8   42   0.063   0.092  -0.137
    1UNL     H9   43   0.099   0.021  -0.294
    1UNL    H10   44   0.491   0.119  -0.192
    1UNL    H11   45   0.723   0.147  -0.109
    1UNL    H12   46   0.766   0.222   0.112
    1UNL    H13   47   0.571   0.246   0.277
    1UNL    H14   48   0.341   0.197   0.191
    1UNL    H15   49   0.252  -0.088   0.065
    1UNL    H16   50  -0.023  -0.164   0.164
    1UNL    H17   51   0.016   0.008   0.105
    1UNL    H18   52  -0.144   0.102   0.030
    1UNL    H19   53  -0.392   0.288  -0.132
    1UNL    H20   54  -0.168   0.359  -0.065
    1UNL    H21   55  -0.181   0.288   0.103
    1UNL    H22   56  -0.382   0.427   0.104
    1UNL    H23   57  -0.529   0.134  -0.017
    1UNL    H24   58  -0.559   0.237   0.194
    1UNL    H25   59  -0.337   0.128   0.219
    1UNL    H26   60  -0.529  -0.077   0.156
    1UNL    H27   61  -0.263  -0.106   0.119
    1UNL    H28   62  -0.393  -0.083  -0.116
   0.00000   0.00000   0.00000   0.00000   0.00000   0.00000   0.00000   0.00000   0.00000
Generated with MDTraj, t= 30.0
 62
    1UNL     C1    1  -0.197  -0.351  -0.077
    1UNL     C2    2  -0.049  -0.303  -0.068
    1UNL     C3    3   0.030  -0.359   0.047
    1UNL     C4    4   0.169  -0.296   0.037
    1UNL     O1    5   0.268  -0.339   0.128
    1UNL     O2    6   0.232  -0.321  -0.103
    1UNL     C5    7   0.144  -0.254  -0.185
    1UNL     O3    8   0.023  -0.323  -0.196
    1UNL     C6    9   0.114  -0.118  -0.112
    1UNL     C7   10   0.130   0.015  -0.190
    1UNL     O4   11   0.256   0.079  -0.171
    1UNL     C8   12   0.254   0.161  -0.059
    1UNL     O5   13   0.153   0.203  -0.005
    1UNL     C9   14   0.392   0.187   0.000
    1UNL    C10   15   0.498   0.186  -0.094
    1UNL    C11   16   0.628   0.190  -0.045
    1UNL    C12   17   0.653   0.189   0.091
    1UNL    C13   18   0.547   0.183   0.186
    1UNL    C14   19   0.417   0.181   0.138
    1UNL    C15   20   0.162  -0.139   0.035
    1UNL    C16   21   0.021  -0.089   0.081
    1UNL    C17   22  -0.038  -0.143  -0.056
    1UNL     O6   23  -0.127  -0.061  -0.136
    1UNL    C18   24  -0.206   0.031  -0.061
    1UNL     O7   25  -0.275   0.130  -0.141
    1UNL    C19   26  -0.337   0.235  -0.061
    1UNL    C20   27  -0.229   0.326  -0.005
    1UNL     O8   28  -0.274   0.434   0.076
    1UNL    C21   29  -0.440   0.179   0.045
    1UNL     O9   30  -0.495   0.279   0.132
    1UNL    C22   31  -0.367   0.074   0.133
    1UNL    O10   32  -0.457   0.005   0.233
    1UNL    C23   33  -0.298  -0.032   0.048
    1UNL    O11   34  -0.392  -0.119  -0.007
    1UNL     H1   35  -0.238  -0.355   0.024
    1UNL     H2   36  -0.250  -0.276  -0.141
    1UNL     H3   37  -0.195  -0.452  -0.114
    1UNL     H4   38  -0.007  -0.336   0.148
    1UNL     H5   39   0.055  -0.460   0.051
    1UNL     H6   40   0.295  -0.429   0.101
    1UNL     H7   41   0.186  -0.241  -0.281
    1UNL     H8   42   0.057   0.089  -0.159
    1UNL     H9   43   0.112  -0.005  -0.302
    1UNL    H10   44   0.490   0.177  -0.203
    1UNL    H11   45   0.702   0.199  -0.128
    1UNL    H12   46   0.753   0.189   0.137
    1UNL    H13   47   0.566   0.179   0.293
    1UNL    H14   48   0.324   0.192   0.193
    1UNL    H15   49   0.253  -0.092   0.084
    1UNL    H16   50  -0.024  -0.128   0.171
    1UNL    H17   51   0.034   0.029   0.077
    1UNL    H18   52  -0.142   0.099  -0.002
    1UNL    H19   53  -0.405   0.280  -0.137
    1UNL    H20   54  -0.154   0.365  -0.078
    1UNL    H21   55  -0.182   0.266   0.073
    1UNL    H22   56  -0.358   0.398   0.114
    1UNL    H23   57  -0.522   0.129  -0.019
    1UNL    H24   58  -0.543   0.245   0.210
    1UNL    H25   59  -0.294   0.127   0.198
    1UNL    H26   60  -0.466  -0.085   0.195
    1UNL    H27   61  -0.220  -0.091   0.099
    1UNL    H28   62  -0.425  -0.071  -0.079
   0.00000   0.00000   0.00000   0.00000   0.00000   0.00000   0.00000   0.00000   0.00000
Generated with MDTraj, t= 31.0
 62
    1UNL     C1    1  -0.200  -0.347  -0.076
    1UNL     C2    2  -0.050  -0.297  -0.077
    1UNL     C3    3   0.036  -0.357   0.037
    1UNL     C4    4   0.172  -0.283   0.030
    1UNL     O1    5   0.257  -0.303   0.142
    1UNL     O2    6   0.229  -0.320  -0.098
    1UNL     C5    7   0.141  -0.261  -0.194
    1UNL     O3    8   0.020  -0.333  -0.200
    1UNL     C6    9   0.104  -0.113  -0.134
    1UNL     C7   10   0.133   0.016  -0.211
    1UNL     O4   11   0.264   0.070  -0.180
    1UNL     C8   12   0.259   0.134  -0.062
    1UNL     O5   13   0.152   0.159  -0.009
    1UNL     C9   14   0.392   0.163  -0.003
    1UNL    C10   15   0.501   0.190  -0.080
    1UNL    C11   16   0.628   0.214  -0.022
    1UNL    C12   17   0.639   0.211   0.115
    1UNL    C13   18   0.527   0.177   0.194
    1UNL    C14   19   0.405   0.162   0.133
    1UNL    C15   20   0.150  -0.126   0.015
    1UNL    C16   21   0.013  -0.089   0.071
    1UNL    C17   22  -0.044  -0.142  -0.073
    1UNL     O6   23  -0.147  -0.067  -0.134
    1UNL    C18   24  -0.195   0.036  -0.052
    1UNL     O7   25  -0.280   0.124  -0.138
    1UNL    C19   26  -0.338   0.231  -0.058
    1UNL    C20   27  -0.223   0.322  -0.011
    1UNL     O8   28  -0.278   0.434   0.055
    1UNL    C21   29  -0.432   0.175   0.053
    1UNL     O9   30  -0.481   0.271   0.147
    1UNL    C22   31  -0.348   0.079   0.143
    1UNL    O10   32  -0.428   0.013   0.244
    1UNL    C23   33  -0.283  -0.028   0.064
    1UNL    O11   34  -0.385  -0.107  -0.003
    1UNL     H1   35  -0.265  -0.329   0.007
    1UNL     H2   36  -0.237  -0.294  -0.169
    1UNL     H3   37  -0.198  -0.453  -0.097
    1UNL     H4   38  -0.001  -0.349   0.141
    1UNL     H5   39   0.065  -0.455   0.032
    1UNL     H6   40   0.278  -0.397   0.147
    1UNL     H7   41   0.184  -0.238  -0.289
    1UNL     H8   42   0.056   0.087  -0.188
    1UNL     H9   43   0.129  -0.003  -0.324
    1UNL    H10   44   0.496   0.207  -0.186
    1UNL    H11   45   0.710   0.255  -0.076
    1UNL    H12   46   0.736   0.221   0.161
    1UNL    H13   47   0.533   0.185   0.302
    1UNL    H14   48   0.307   0.165   0.178
    1UNL    H15   49   0.243  -0.075   0.055
    1UNL    H16   50  -0.018  -0.143   0.156
    1UNL    H17   51   0.014   0.028   0.096
    1UNL    H18   52  -0.123   0.109  -0.013
    1UNL    H19   53  -0.413   0.288  -0.113
    1UNL    H20   54  -0.182   0.369  -0.102
    1UNL    H21   55  -0.145   0.293   0.057
    1UNL    H22   56  -0.359   0.410   0.100
    1UNL    H23   57  -0.519   0.113   0.013
    1UNL    H24   58  -0.514   0.226   0.227
    1UNL    H25   59  -0.276   0.136   0.206
    1UNL    H26   60  -0.462  -0.069   0.205
    1UNL    H27   61  -0.232  -0.102   0.128
    1UNL    H28   62  -0.427  -0.066  -0.084
   0.00000   0.00000   0.00000   0.00000   0.00000   0.00000   0.00000   0.00000   0.00000
Generated with MDTraj, t= 32.0
 62
    1UNL     C1    1  -0.192  -0.342  -0.082
    1UNL     C2    2  -0.049  -0.301  -0.083
    1UNL     C3    3   0.040  -0.374   0.029
    1UNL     C4    4   0.189  -0.303   0.028
    1UNL     O1    5   0.269  -0.349   0.139
    1UNL     O2    6   0.233  -0.332  -0.109
    1UNL     C5    7   0.144  -0.262  -0.202
    1UNL     O3    8   0.020  -0.334  -0.208
    1UNL     C6    9   0.112  -0.122  -0.135
    1UNL     C7   10   0.139   0.012  -0.210
    1UNL     O4   11   0.273   0.055  -0.176
    1UNL     C8   12   0.267   0.126  -0.063
    1UNL     O5   13   0.164   0.152  -0.007
    1UNL     C9   14   0.389   0.163   0.001
    1UNL    C10   15   0.506   0.182  -0.071
    1UNL    C11   16   0.618   0.233  -0.012
    1UNL    C12   17   0.623   0.243   0.126
    1UNL    C13   18   0.514   0.201   0.203
    1UNL    C14   19   0.397   0.164   0.139
    1UNL    C15   20   0.162  -0.149   0.014
    1UNL    C16   21   0.018  -0.094   0.061
    1UNL    C17   22  -0.034  -0.136  -0.073
    1UNL     O6   23  -0.150  -0.060  -0.130
    1UNL    C18   24  -0.212   0.036  -0.056
    1UNL     O7   25  -0.295   0.129  -0.131
    1UNL    C19   26  -0.359   0.238  -0.056
    1UNL    C20   27  -0.248   0.336  -0.030
    1UNL     O8   28  -0.299   0.456   0.025
    1UNL    C21   29  -0.434   0.188   0.070
    1UNL     O9   30  -0.458   0.289   0.167
    1UNL    C22   31  -0.343   0.082   0.147
    1UNL    O10   32  -0.414   0.027   0.249
    1UNL    C23   33  -0.294  -0.024   0.055
    1UNL    O11   34  -0.395  -0.109   0.010
    1UNL     H1   35  -0.242  -0.305   0.006
    1UNL     H2   36  -0.249  -0.312  -0.174
    1UNL     H3   37  -0.202  -0.450  -0.067
    1UNL     H4   38   0.008  -0.360   0.134
    1UNL     H5   39   0.062  -0.477   0.025
    1UNL     H6   40   0.329  -0.408   0.092
    1UNL     H7   41   0.180  -0.273  -0.304
    1UNL     H8   42   0.068   0.088  -0.189
    1UNL     H9   43   0.144  -0.013  -0.320
    1UNL    H10   44   0.501   0.180  -0.178
    1UNL    H11   45   0.713   0.237  -0.066
    1UNL    H12   46   0.711   0.282   0.175
    1UNL    H13   47   0.512   0.188   0.309
    1UNL    H14   48   0.312   0.125   0.196
    1UNL    H15   49   0.253  -0.090   0.045
    1UNL    H16   50  -0.022  -0.156   0.144
    1UNL    H17   51   0.005   0.011   0.086
    1UNL    H18   52  -0.141   0.099  -0.001
    1UNL    H19   53  -0.430   0.283  -0.122
    1UNL    H20   54  -0.190   0.365  -0.119
    1UNL    H21   55  -0.187   0.290   0.045
    1UNL    H22   56  -0.348   0.431   0.112
    1UNL    H23   57  -0.529   0.138   0.039
    1UNL    H24   58  -0.466   0.241   0.253
    1UNL    H25   59  -0.258   0.142   0.182
    1UNL    H26   60  -0.471  -0.047   0.216
    1UNL    H27   61  -0.219  -0.090   0.106
    1UNL    H28   62  -0.455  -0.063  -0.063
   0.00000   0.00000   0.00000   0.00000   0.00000   0.00000   0.00000   0.00000   0.00000
Generated with MDTraj, t= 33.0
 62
    1UNL     C1    1  -0.210  -0.346  -0.082
    1UNL     C2    2  -0.062  -0.305  -0.083
    1UNL     C3    3   0.019  -0.382   0.019
    1UNL     C4    4   0.170  -0.323   0.000
    1UNL     O1    5   0.251  -0.377   0.103
    1UNL     O2    6   0.215  -0.353  -0.135
    1UNL     C5    7   0.131  -0.271  -0.215
    1UNL     O3    8  -0.007  -0.329  -0.216
    1UNL     C6    9   0.111  -0.134  -0.130
    1UNL     C7   10   0.147   0.004  -0.187
    1UNL     O4   11   0.275   0.054  -0.145
    1UNL     C8   12   0.262   0.148  -0.050
    1UNL     O5   13   0.159   0.174   0.010
    1UNL     C9   14   0.390   0.190   0.010
    1UNL    C10   15   0.508   0.198  -0.067
    1UNL    C11   16   0.622   0.230  -0.006
    1UNL    C12   17   0.632   0.255   0.133
    1UNL    C13   18   0.519   0.243   0.207
    1UNL    C14   19   0.393   0.214   0.146
    1UNL    C15   20   0.164  -0.160   0.010
    1UNL    C16   21   0.033  -0.100   0.070
    1UNL    C17   22  -0.040  -0.151  -0.064
    1UNL     O6   23  -0.141  -0.072  -0.126
    1UNL    C18   24  -0.186   0.033  -0.048
    1UNL     O7   25  -0.275   0.120  -0.128
    1UNL    C19   26  -0.343   0.228  -0.060
    1UNL    C20   27  -0.243   0.336  -0.041
    1UNL     O8   28  -0.310   0.462  -0.023
    1UNL    C21   29  -0.423   0.181   0.070
    1UNL     O9   30  -0.461   0.287   0.156
    1UNL    C22   31  -0.330   0.084   0.159
    1UNL    O10   32  -0.394   0.025   0.265
    1UNL    C23   33  -0.276  -0.030   0.072
    1UNL    O11   34  -0.388  -0.100   0.022
    1UNL     H1   35  -0.256  -0.348   0.017
    1UNL     H2   36  -0.270  -0.274  -0.135
    1UNL     H3   37  -0.246  -0.445  -0.122
    1UNL     H4   38  -0.025  -0.378   0.117
    1UNL     H5   39   0.020  -0.492  -0.010
    1UNL     H6   40   0.299  -0.449   0.062
    1UNL     H7   41   0.177  -0.252  -0.313
    1UNL     H8   42   0.074   0.071  -0.152
    1UNL     H9   43   0.153   0.009  -0.298
    1UNL    H10   44   0.498   0.154  -0.168
    1UNL    H11   45   0.710   0.247  -0.065
    1UNL    H12   46   0.727   0.277   0.183
    1UNL    H13   47   0.538   0.248   0.314
    1UNL    H14   48   0.313   0.183   0.210
    1UNL    H15   49   0.266  -0.126   0.048
    1UNL    H16   50   0.014  -0.162   0.167
    1UNL    H17   51   0.044  -0.001   0.088
    1UNL    H18   52  -0.110   0.101  -0.009
    1UNL    H19   53  -0.408   0.272  -0.134
    1UNL    H20   54  -0.185   0.340  -0.134
    1UNL    H21   55  -0.185   0.315   0.046
    1UNL    H22   56  -0.383   0.438   0.033
    1UNL    H23   57  -0.509   0.125   0.036
    1UNL    H24   58  -0.482   0.251   0.245
    1UNL    H25   59  -0.252   0.145   0.207
    1UNL    H26   60  -0.459  -0.041   0.236
    1UNL    H27   61  -0.216  -0.094   0.141
    1UNL    H28   62  -0.417  -0.057  -0.057
   0.00000   0.00000   0.00000   0.00000   0.00000   0.00000   0.00000   0.00000   0.00000
Generated with MDTraj, t= 34.0
 62
    1UNL     C1    1  -0.212  -0.344  -0.093
    1UNL     C2    2  -0.065  -0.312  -0.093
    1UNL     C3    3   0.016  -0.400   0.002
    1UNL     C4    4   0.164  -0.346  -0.007
    1UNL     O1    5   0.250  -0.408   0.080
    1UNL     O2    6   0.206  -0.352  -0.142
    1UNL     C5    7   0.123  -0.268  -0.222
    1UNL     O3    8  -0.006  -0.324  -0.226
    1UNL     C6    9   0.112  -0.140  -0.126
    1UNL     C7   10   0.151   0.001  -0.179
    1UNL     O4   11   0.273   0.046  -0.126
    1UNL     C8   12   0.248   0.128  -0.021
    1UNL     O5   13   0.140   0.157   0.032
    1UNL     C9   14   0.376   0.182   0.026
    1UNL    C10   15   0.495   0.168  -0.053
    1UNL    C11   16   0.615   0.219  -0.008
    1UNL    C12   17   0.617   0.285   0.115
    1UNL    C13   18   0.503   0.299   0.192
    1UNL    C14   19   0.384   0.245   0.154
    1UNL    C15   20   0.171  -0.183   0.011
    1UNL    C16   21   0.043  -0.121   0.076
    1UNL    C17   22  -0.033  -0.151  -0.060
    1UNL     O6   23  -0.118  -0.067  -0.124
    1UNL    C18   24  -0.178   0.040  -0.051
    1UNL     O7   25  -0.274   0.110  -0.133
    1UNL    C19   26  -0.347   0.221  -0.072
    1UNL    C20   27  -0.252   0.341  -0.058
    1UNL     O8   28  -0.304   0.457  -0.003
    1UNL    C21   29  -0.423   0.187   0.067
    1UNL     O9   30  -0.457   0.304   0.150
    1UNL    C22   31  -0.328   0.104   0.157
    1UNL    O10   32  -0.397   0.052   0.267
    1UNL    C23   33  -0.257  -0.005   0.075
    1UNL    O11   34  -0.343  -0.105   0.044
    1UNL     H1   35  -0.261  -0.335   0.007
    1UNL     H2   36  -0.270  -0.289  -0.163
    1UNL     H3   37  -0.235  -0.451  -0.117
    1UNL     H4   38  -0.023  -0.380   0.099
    1UNL     H5   39  -0.001  -0.513  -0.024
    1UNL     H6   40   0.288  -0.483   0.030
    1UNL     H7   41   0.177  -0.249  -0.319
    1UNL     H8   42   0.087   0.080  -0.154
    1UNL     H9   43   0.163  -0.001  -0.289
    1UNL    H10   44   0.478   0.136  -0.152
    1UNL    H11   45   0.700   0.232  -0.075
    1UNL    H12   46   0.710   0.335   0.128
    1UNL    H13   47   0.513   0.337   0.292
    1UNL    H14   48   0.300   0.277   0.215
    1UNL    H15   49   0.273  -0.139   0.033
    1UNL    H16   50   0.013  -0.180   0.168
    1UNL    H17   51   0.061  -0.017   0.090
    1UNL    H18   52  -0.101   0.118  -0.032
    1UNL    H19   53  -0.419   0.263  -0.144
    1UNL    H20   54  -0.217   0.375  -0.156
    1UNL    H21   55  -0.172   0.309   0.005
    1UNL    H22   56  -0.361   0.437   0.077
    1UNL    H23   57  -0.512   0.134   0.044
    1UNL    H24   58  -0.477   0.287   0.244
    1UNL    H25   59  -0.251   0.168   0.199
    1UNL    H26   60  -0.447  -0.029   0.237
    1UNL    H27   61  -0.178  -0.052   0.137
    1UNL    H28   62  -0.396  -0.084  -0.032
   0.00000   0.00000   0.00000   0.00000   0.00000   0.00000   0.00000   0.00000   0.00000
Generated with MDTraj, t= 35.0
 62
    1UNL     C1    1  -0.212  -0.348  -0.105
    1UNL     C2    2  -0.064  -0.318  -0.106
    1UNL     C3    3   0.026  -0.407  -0.010
    1UNL     C4    4   0.170  -0.351  -0.012
    1UNL     O1    5   0.251  -0.419   0.079
    1UNL     O2    6   0.210  -0.366  -0.149
    1UNL     C5    7   0.122  -0.268  -0.223
    1UNL     O3    8  -0.008  -0.332  -0.240
    1UNL     C6    9   0.107  -0.148  -0.132
    1UNL     C7   10   0.144  -0.006  -0.193
    1UNL     O4   11   0.268   0.047  -0.144
    1UNL     C8   12   0.255   0.109  -0.019
    1UNL     O5   13   0.150   0.116   0.048
    1UNL     C9   14   0.378   0.177   0.032
    1UNL    C10   15   0.501   0.154  -0.020
    1UNL    C11   16   0.614   0.225   0.025
    1UNL    C12   17   0.590   0.326   0.113
    1UNL    C13   18   0.467   0.350   0.172
    1UNL    C14   19   0.362   0.279   0.130
    1UNL    C15   20   0.155  -0.196   0.014
    1UNL    C16   21   0.025  -0.147   0.069
    1UNL    C17   22  -0.036  -0.164  -0.074
    1UNL     O6   23  -0.136  -0.079  -0.128
    1UNL    C18   24  -0.176   0.037  -0.051
    1UNL     O7   25  -0.257   0.124  -0.128
    1UNL    C19   26  -0.326   0.235  -0.055
    1UNL    C20   27  -0.232   0.343  -0.022
    1UNL     O8   28  -0.282   0.467  -0.007
    1UNL    C21   29  -0.412   0.186   0.066
    1UNL     O9   30  -0.480   0.298   0.130
    1UNL    C22   31  -0.311   0.123   0.160
    1UNL    O10   32  -0.373   0.080   0.277
    1UNL    C23   33  -0.250  -0.001   0.086
    1UNL    O11   34  -0.351  -0.099   0.070
    1UNL     H1   35  -0.256  -0.312  -0.007
    1UNL     H2   36  -0.257  -0.296  -0.190
    1UNL     H3   37  -0.240  -0.454  -0.108
    1UNL     H4   38  -0.015  -0.421   0.091
    1UNL     H5   39   0.034  -0.508  -0.062
    1UNL     H6   40   0.272  -0.505   0.033
    1UNL     H7   41   0.151  -0.252  -0.332
    1UNL     H8   42   0.078   0.065  -0.154
    1UNL     H9   43   0.150   0.003  -0.305
    1UNL    H10   44   0.498   0.096  -0.113
    1UNL    H11   45   0.706   0.211  -0.026
    1UNL    H12   46   0.681   0.371   0.154
    1UNL    H13   47   0.466   0.435   0.241
    1UNL    H14   48   0.270   0.295   0.182
    1UNL    H15   49   0.250  -0.139   0.029
    1UNL    H16   50  -0.025  -0.209   0.138
    1UNL    H17   51   0.032  -0.035   0.093
    1UNL    H18   52  -0.078   0.087  -0.027
    1UNL    H19   53  -0.391   0.276  -0.137
    1UNL    H20   54  -0.166   0.351  -0.110
    1UNL    H21   55  -0.172   0.319   0.063
    1UNL    H22   56  -0.357   0.465   0.059
    1UNL    H23   57  -0.482   0.114   0.037
    1UNL    H24   58  -0.511   0.280   0.221
    1UNL    H25   59  -0.241   0.198   0.194
    1UNL    H26   60  -0.401  -0.016   0.268
    1UNL    H27   61  -0.176  -0.051   0.152
    1UNL    H28   62  -0.412  -0.074  -0.010
   0.00000   0.00000   0.00000   0.00000   0.00000   0.00000   0.00000   0.00000   0.00000
Generated with MDTraj, t= 36.0
 62
    1UNL     C1    1  -0.218  -0.367  -0.117
    1UNL     C2    2  -0.068  -0.328  -0.110
    1UNL     C3    3   0.026  -0.420  -0.023
    1UNL     C4    4   0.171  -0.364  -0.018
    1UNL     O1    5   0.262  -0.416   0.083
    1UNL     O2    6   0.214  -0.367  -0.156
    1UNL     C5    7   0.126  -0.276  -0.228
    1UNL     O3    8  -0.006  -0.332  -0.241
    1UNL     C6    9   0.099  -0.156  -0.128
    1UNL     C7   10   0.142  -0.019  -0.189
    1UNL     O4   11   0.264   0.033  -0.142
    1UNL     C8   12   0.247   0.109  -0.028
    1UNL     O5   13   0.141   0.118   0.036
    1UNL     C9   14   0.367   0.191   0.022
    1UNL    C10   15   0.497   0.153   0.002
    1UNL    C11   16   0.597   0.230   0.055
    1UNL    C12   17   0.566   0.341   0.125
    1UNL    C13   18   0.437   0.387   0.141
    1UNL    C14   19   0.338   0.306   0.096
    1UNL    C15   20   0.150  -0.202   0.013
    1UNL    C16   21   0.021  -0.162   0.068
    1UNL    C17   22  -0.046  -0.178  -0.071
    1UNL     O6   23  -0.150  -0.081  -0.118
    1UNL    C18   24  -0.170   0.034  -0.037
    1UNL     O7   25  -0.246   0.126  -0.116
    1UNL    C19   26  -0.312   0.248  -0.059
    1UNL    C20   27  -0.212   0.356  -0.055
    1UNL     O8   28  -0.247   0.464   0.025
    1UNL    C21   29  -0.391   0.201   0.071
    1UNL     O9   30  -0.434   0.316   0.151
    1UNL    C22   31  -0.308   0.119   0.167
    1UNL    O10   32  -0.391   0.073   0.270
    1UNL    C23   33  -0.250  -0.007   0.092
    1UNL    O11   34  -0.359  -0.089   0.057
    1UNL     H1   35  -0.259  -0.380  -0.014
    1UNL     H2   36  -0.255  -0.280  -0.178
    1UNL     H3   37  -0.230  -0.459  -0.172
    1UNL     H4   38  -0.004  -0.422   0.089
    1UNL     H5   39   0.028  -0.523  -0.063
    1UNL     H6   40   0.312  -0.495   0.048
    1UNL     H7   41   0.169  -0.251  -0.332
    1UNL     H8   42   0.076   0.058  -0.167
    1UNL     H9   43   0.157  -0.031  -0.300
    1UNL    H10   44   0.511   0.068  -0.063
    1UNL    H11   45   0.697   0.185   0.040
    1UNL    H12   46   0.637   0.399   0.180
    1UNL    H13   47   0.425   0.466   0.213
    1UNL    H14   48   0.240   0.333   0.134
    1UNL    H15   49   0.233  -0.144   0.058
    1UNL    H16   50  -0.017  -0.214   0.149
    1UNL    H17   51   0.025  -0.048   0.091
    1UNL    H18   52  -0.068   0.074  -0.009
    1UNL    H19   53  -0.390   0.272  -0.136
    1UNL    H20   54  -0.192   0.397  -0.158
    1UNL    H21   55  -0.120   0.315  -0.021
    1UNL    H22   56  -0.301   0.437   0.097
    1UNL    H23   57  -0.475   0.144   0.051
    1UNL    H24   58  -0.465   0.284   0.240
    1UNL    H25   59  -0.234   0.188   0.208
    1UNL    H26   60  -0.442   0.002   0.230
    1UNL    H27   61  -0.197  -0.063   0.172
    1UNL    H28   62  -0.334  -0.164  -0.006
   0.00000   0.00000   0.00000   0.00000   0.00000   0.00000   0.00000   0.00000   0.00000
Generated with MDTraj, t= 37.0
 62
    1UNL     C1    1  -0.214  -0.368  -0.103
    1UNL     C2    2  -0.062  -0.329  -0.110
    1UNL     C3    3   0.020  -0.419  -0.014
    1UNL     C4    4   0.163  -0.363  -0.015
    1UNL     O1    5   0.259  -0.421   0.067
    1UNL     O2    6   0.211  -0.373  -0.153
    1UNL     C5    7   0.128  -0.289  -0.232
    1UNL     O3    8  -0.004  -0.346  -0.241
    1UNL     C6    9   0.109  -0.157  -0.135
    1UNL     C7   10   0.142  -0.019  -0.193
    1UNL     O4   11   0.245   0.044  -0.123
    1UNL     C8   12   0.211   0.135  -0.023
    1UNL     O5   13   0.096   0.153   0.016
    1UNL     C9   14   0.329   0.203   0.034
    1UNL    C10   15   0.457   0.145   0.024
    1UNL    C11   16   0.564   0.220   0.074
    1UNL    C12   17   0.550   0.348   0.115
    1UNL    C13   18   0.424   0.401   0.122
    1UNL    C14   19   0.311   0.328   0.086
    1UNL    C15   20   0.167  -0.195   0.006
    1UNL    C16   21   0.030  -0.150   0.067
    1UNL    C17   22  -0.032  -0.172  -0.073
    1UNL     O6   23  -0.133  -0.077  -0.125
    1UNL    C18   24  -0.182   0.024  -0.045
    1UNL     O7   25  -0.256   0.117  -0.124
    1UNL    C19   26  -0.281   0.241  -0.051
    1UNL    C20   27  -0.152   0.307  -0.001
    1UNL     O8   28  -0.182   0.449   0.012
    1UNL    C21   29  -0.371   0.204   0.075
    1UNL     O9   30  -0.391   0.327   0.156
    1UNL    C22   31  -0.303   0.104   0.163
    1UNL    O10   32  -0.366   0.072   0.283
    1UNL    C23   33  -0.270  -0.021   0.071
    1UNL    O11   34  -0.386  -0.086   0.032
    1UNL     H1   35  -0.236  -0.344   0.002
    1UNL     H2   36  -0.266  -0.301  -0.180
    1UNL     H3   37  -0.227  -0.475  -0.115
    1UNL     H4   38  -0.014  -0.439   0.098
    1UNL     H5   39   0.029  -0.513  -0.066
    1UNL     H6   40   0.273  -0.519   0.049
    1UNL     H7   41   0.185  -0.260  -0.327
    1UNL     H8   42   0.064   0.051  -0.187
    1UNL     H9   43   0.177  -0.034  -0.300
    1UNL    H10   44   0.462   0.042  -0.011
    1UNL    H11   45   0.664   0.189   0.061
    1UNL    H12   46   0.644   0.404   0.129
    1UNL    H13   47   0.404   0.490   0.180
    1UNL    H14   48   0.217   0.373   0.110
    1UNL    H15   49   0.266  -0.148   0.027
    1UNL    H16   50  -0.023  -0.207   0.142
    1UNL    H17   51   0.036  -0.044   0.096
    1UNL    H18   52  -0.088   0.079  -0.016
    1UNL    H19   53  -0.339   0.313  -0.113
    1UNL    H20   54  -0.060   0.301  -0.066
    1UNL    H21   55  -0.122   0.270   0.094
    1UNL    H22   56  -0.263   0.458   0.075
    1UNL    H23   57  -0.469   0.167   0.061
    1UNL    H24   58  -0.420   0.300   0.244
    1UNL    H25   59  -0.205   0.141   0.187
    1UNL    H26   60  -0.430  -0.003   0.266
    1UNL    H27   61  -0.218  -0.100   0.130
    1UNL    H28   62  -0.396  -0.086  -0.060
   0.00000   0.00000   0.00000   0.00000   0.00000   0.00000   0.00000   0.00000   0.00000
Generated with MDTraj, t= 38.0
 62
    1UNL     C1    1  -0.215  -0.383  -0.090
    1UNL     C2    2  -0.066  -0.339  -0.099
    1UNL     C3    3   0.024  -0.421  -0.001
    1UNL     C4    4   0.168  -0.358  -0.015
    1UNL     O1    5   0.263  -0.416   0.071
    1UNL     O2    6   0.206  -0.372  -0.152
    1UNL     C5    7   0.120  -0.285  -0.232
    1UNL     O3    8  -0.013  -0.355  -0.233
    1UNL     C6    9   0.097  -0.159  -0.141
    1UNL     C7   10   0.127  -0.025  -0.196
    1UNL     O4   11   0.235   0.044  -0.137
    1UNL     C8   12   0.200   0.136  -0.039
    1UNL     O5   13   0.086   0.155  -0.007
    1UNL     C9   14   0.310   0.213   0.026
    1UNL    C10   15   0.432   0.156   0.042
    1UNL    C11   16   0.533   0.226   0.097
    1UNL    C12   17   0.516   0.358   0.141
    1UNL    C13   18   0.393   0.408   0.123
    1UNL    C14   19   0.286   0.342   0.063
    1UNL    C15   20   0.155  -0.196   0.001
    1UNL    C16   21   0.031  -0.143   0.069
    1UNL    C17   22  -0.043  -0.180  -0.070
    1UNL     O6   23  -0.144  -0.092  -0.126
    1UNL    C18   24  -0.170   0.018  -0.054
    1UNL     O7   25  -0.241   0.126  -0.125
    1UNL    C19   26  -0.252   0.247  -0.044
    1UNL    C20   27  -0.123   0.319  -0.027
    1UNL     O8   28  -0.140   0.444   0.040
    1UNL    C21   29  -0.325   0.212   0.088
    1UNL     O9   30  -0.321   0.325   0.181
    1UNL    C22   31  -0.284   0.083   0.164
    1UNL    O10   32  -0.383   0.042   0.255
    1UNL    C23   33  -0.262  -0.033   0.060
    1UNL    O11   34  -0.393  -0.062   0.019
    1UNL     H1   35  -0.241  -0.353   0.009
    1UNL     H2   36  -0.279  -0.330  -0.168
    1UNL     H3   37  -0.229  -0.494  -0.090
    1UNL     H4   38  -0.002  -0.411   0.107
    1UNL     H5   39   0.029  -0.528  -0.028
    1UNL     H6   40   0.350  -0.381   0.039
    1UNL     H7   41   0.157  -0.275  -0.339
    1UNL     H8   42   0.041   0.036  -0.199
    1UNL     H9   43   0.168  -0.043  -0.301
    1UNL    H10   44   0.457   0.066  -0.010
    1UNL    H11   45   0.635   0.187   0.089
    1UNL    H12   46   0.600   0.414   0.170
    1UNL    H13   47   0.379   0.514   0.145
    1UNL    H14   48   0.185   0.382   0.060
    1UNL    H15   49   0.246  -0.139   0.019
    1UNL    H16   50  -0.003  -0.210   0.153
    1UNL    H17   51   0.020  -0.044   0.090
    1UNL    H18   52  -0.072   0.059  -0.023
    1UNL    H19   53  -0.313   0.303  -0.115
    1UNL    H20   54  -0.085   0.338  -0.134
    1UNL    H21   55  -0.044   0.260   0.018
    1UNL    H22   56  -0.217   0.436   0.094
    1UNL    H23   57  -0.431   0.205   0.067
    1UNL    H24   58  -0.352   0.295   0.268
    1UNL    H25   59  -0.200   0.104   0.231
    1UNL    H26   60  -0.448  -0.027   0.219
    1UNL    H27   61  -0.224  -0.125   0.112
    1UNL    H28   62  -0.419   0.009  -0.040
   0.00000   0.00000   0.00000   0.00000   0.00000   0.00000   0.00000   0.00000   0.00000
Generated with MDTraj, t= 39.0
 62
    1UNL     C1    1  -0.211  -0.379  -0.097
    1UNL     C2    2  -0.066  -0.334  -0.096
    1UNL     C3    3   0.027  -0.408   0.001
    1UNL     C4    4   0.179  -0.355  -0.015
    1UNL     O1    5   0.262  -0.409   0.090
    1UNL     O2    6   0.215  -0.377  -0.154
    1UNL     C5    7   0.123  -0.298  -0.235
    1UNL     O3    8  -0.011  -0.357  -0.232
    1UNL     C6    9   0.100  -0.166  -0.150
    1UNL     C7   10   0.135  -0.031  -0.218
    1UNL     O4   11   0.250   0.029  -0.162
    1UNL     C8   12   0.217   0.102  -0.052
    1UNL     O5   13   0.108   0.106  -0.004
    1UNL     C9   14   0.317   0.202  -0.000
    1UNL    C10   15   0.440   0.164   0.044
    1UNL    C11   16   0.518   0.248   0.119
    1UNL    C12   17   0.465   0.368   0.165
    1UNL    C13   18   0.345   0.410   0.123
    1UNL    C14   19   0.271   0.326   0.041
    1UNL    C15   20   0.164  -0.200  -0.004
    1UNL    C16   21   0.025  -0.147   0.052
    1UNL    C17   22  -0.045  -0.178  -0.081
    1UNL     O6   23  -0.150  -0.089  -0.134
    1UNL    C18   24  -0.179   0.016  -0.049
    1UNL     O7   25  -0.234   0.130  -0.112
    1UNL    C19   26  -0.250   0.246  -0.028
    1UNL    C20   27  -0.119   0.332  -0.020
    1UNL     O8   28  -0.135   0.462   0.020
    1UNL    C21   29  -0.320   0.220   0.110
    1UNL     O9   30  -0.302   0.331   0.204
    1UNL    C22   31  -0.289   0.082   0.173
    1UNL    O10   32  -0.373   0.055   0.279
    1UNL    C23   33  -0.282  -0.028   0.059
    1UNL    O11   34  -0.406  -0.044   0.007
    1UNL     H1   35  -0.265  -0.382  -0.003
    1UNL     H2   36  -0.266  -0.311  -0.166
    1UNL     H3   37  -0.221  -0.479  -0.149
    1UNL     H4   38  -0.005  -0.410   0.100
    1UNL     H5   39   0.039  -0.516  -0.034
    1UNL     H6   40   0.351  -0.399   0.052
    1UNL     H7   41   0.157  -0.293  -0.343
    1UNL     H8   42   0.061   0.046  -0.213
    1UNL     H9   43   0.152  -0.054  -0.329
    1UNL    H10   44   0.489   0.076   0.004
    1UNL    H11   45   0.618   0.216   0.139
    1UNL    H12   46   0.521   0.433   0.239
    1UNL    H13   47   0.300   0.499   0.162
    1UNL    H14   48   0.169   0.343   0.010
    1UNL    H15   49   0.249  -0.137   0.020
    1UNL    H16   50  -0.012  -0.202   0.142
    1UNL    H17   51   0.031  -0.046   0.080
    1UNL    H18   52  -0.084   0.053  -0.009
    1UNL    H19   53  -0.311   0.306  -0.094
    1UNL    H20   54  -0.058   0.333  -0.118
    1UNL    H21   55  -0.052   0.275   0.047
    1UNL    H22   56  -0.176   0.465   0.110
    1UNL    H23   57  -0.427   0.225   0.083
    1UNL    H24   58  -0.334   0.296   0.290
    1UNL    H25   59  -0.189   0.089   0.221
    1UNL    H26   60  -0.439  -0.008   0.255
    1UNL    H27   61  -0.243  -0.129   0.096
    1UNL    H28   62  -0.413   0.007  -0.084
   0.00000   0.00000   0.00000   0.00000   0.00000   0.00000   0.00000   0.00000   0.00000
Generated with MDTraj, t= 40.0
 62
    1UNL     C1    1  -0.215  -0.358  -0.109
    1UNL     C2    2  -0.062  -0.331  -0.109
    1UNL     C3    3   0.023  -0.417  -0.008
    1UNL     C4    4   0.169  -0.363  -0.012
    1UNL     O1    5   0.245  -0.440   0.084
    1UNL     O2    6   0.206  -0.386  -0.149
    1UNL     C5    7   0.121  -0.303  -0.231
    1UNL     O3    8  -0.009  -0.355  -0.237
    1UNL     C6    9   0.107  -0.164  -0.144
    1UNL     C7   10   0.152  -0.034  -0.214
    1UNL     O4   11   0.254   0.035  -0.142
    1UNL     C8   12   0.199   0.124  -0.054
    1UNL     O5   13   0.082   0.136  -0.042
    1UNL     C9   14   0.295   0.213   0.022
    1UNL    C10   15   0.425   0.169   0.050
    1UNL    C11   16   0.513   0.254   0.118
    1UNL    C12   17   0.475   0.381   0.151
    1UNL    C13   18   0.341   0.424   0.128
    1UNL    C14   19   0.259   0.338   0.063
    1UNL    C15   20   0.161  -0.207  -0.001
    1UNL    C16   21   0.034  -0.150   0.053
    1UNL    C17   22  -0.038  -0.179  -0.086
    1UNL     O6   23  -0.143  -0.099  -0.138
    1UNL    C18   24  -0.177   0.018  -0.060
    1UNL     O7   25  -0.260   0.125  -0.118
    1UNL    C19   26  -0.260   0.243  -0.038
    1UNL    C20   27  -0.110   0.302  -0.020
    1UNL     O8   28  -0.098   0.425   0.035
    1UNL    C21   29  -0.329   0.222   0.100
    1UNL     O9   30  -0.312   0.339   0.187
    1UNL    C22   31  -0.272   0.100   0.173
    1UNL    O10   32  -0.341   0.078   0.290
    1UNL    C23   33  -0.259  -0.026   0.068
    1UNL    O11   34  -0.387  -0.067   0.029
    1UNL     H1   35  -0.261  -0.340  -0.011
    1UNL     H2   36  -0.277  -0.299  -0.176
    1UNL     H3   37  -0.248  -0.462  -0.144
    1UNL     H4   38  -0.017  -0.424   0.088
    1UNL     H5   39   0.026  -0.523  -0.046
    1UNL     H6   40   0.331  -0.459   0.048
    1UNL     H7   41   0.164  -0.287  -0.331
    1UNL     H8   42   0.064   0.029  -0.215
    1UNL     H9   43   0.188  -0.047  -0.323
    1UNL    H10   44   0.452   0.066   0.042
    1UNL    H11   45   0.619   0.241   0.138
    1UNL    H12   46   0.534   0.435   0.213
    1UNL    H13   47   0.293   0.505   0.180
    1UNL    H14   48   0.151   0.358   0.054
    1UNL    H15   49   0.255  -0.158   0.020
    1UNL    H16   50  -0.001  -0.207   0.135
    1UNL    H17   51   0.057  -0.041   0.093
    1UNL    H18   52  -0.080   0.067  -0.040
    1UNL    H19   53  -0.305   0.328  -0.090
    1UNL    H20   54  -0.059   0.302  -0.122
    1UNL    H21   55  -0.043   0.240   0.038
    1UNL    H22   56  -0.169   0.447   0.103
    1UNL    H23   57  -0.440   0.208   0.078
    1UNL    H24   58  -0.354   0.306   0.271
    1UNL    H25   59  -0.172   0.123   0.215
    1UNL    H26   60  -0.430   0.046   0.265
    1UNL    H27   61  -0.217  -0.118   0.125
    1UNL    H28   62  -0.408  -0.055  -0.060
   0.00000   0.00000   0.00000   0.00000   0.00000   0.00000   0.00000   0.00000   0.00000
Generated with MDTraj, t= 41.0
 62
    1UNL     C1    1  -0.228  -0.356  -0.107
    1UNL     C2    2  -0.083  -0.344  -0.110
    1UNL     C3    3   0.005  -0.437  -0.020
    1UNL     C4    4   0.154  -0.381  -0.022
    1UNL     O1    5   0.239  -0.433   0.073
    1UNL     O2    6   0.194  -0.396  -0.163
    1UNL     C5    7   0.112  -0.302  -0.235
    1UNL     O3    8  -0.018  -0.359  -0.246
    1UNL     C6    9   0.102  -0.175  -0.143
    1UNL     C7   10   0.160  -0.045  -0.191
    1UNL     O4   11   0.250   0.011  -0.101
    1UNL     C8   12   0.205   0.131  -0.047
    1UNL     O5   13   0.095   0.175  -0.062
    1UNL     C9   14   0.300   0.217   0.030
    1UNL    C10   15   0.439   0.182   0.043
    1UNL    C11   16   0.531   0.268   0.104
    1UNL    C12   17   0.481   0.385   0.162
    1UNL    C13   18   0.348   0.427   0.141
    1UNL    C14   19   0.259   0.346   0.073
    1UNL    C15   20   0.154  -0.227  -0.006
    1UNL    C16   21   0.028  -0.162   0.055
    1UNL    C17   22  -0.044  -0.187  -0.075
    1UNL     O6   23  -0.141  -0.102  -0.131
    1UNL    C18   24  -0.162   0.023  -0.059
    1UNL     O7   25  -0.234   0.126  -0.126
    1UNL    C19   26  -0.250   0.248  -0.049
    1UNL    C20   27  -0.124   0.335  -0.018
    1UNL     O8   28  -0.155   0.462   0.034
    1UNL    C21   29  -0.321   0.212   0.085
    1UNL     O9   30  -0.353   0.326   0.167
    1UNL    C22   31  -0.250   0.111   0.171
    1UNL    O10   32  -0.334   0.073   0.280
    1UNL    C23   33  -0.226  -0.014   0.077
    1UNL    O11   34  -0.344  -0.086   0.064
    1UNL     H1   35  -0.277  -0.316  -0.014
    1UNL     H2   36  -0.280  -0.301  -0.183
    1UNL     H3   37  -0.263  -0.459  -0.137
    1UNL     H4   38  -0.029  -0.431   0.084
    1UNL     H5   39  -0.003  -0.540  -0.043
    1UNL     H6   40   0.295  -0.497   0.031
    1UNL     H7   41   0.157  -0.285  -0.332
    1UNL     H8   42   0.081   0.027  -0.206
    1UNL     H9   43   0.214  -0.067  -0.291
    1UNL    H10   44   0.486   0.096  -0.007
    1UNL    H11   45   0.633   0.237   0.114
    1UNL    H12   46   0.542   0.474   0.203
    1UNL    H13   47   0.309   0.513   0.195
    1UNL    H14   48   0.155   0.364   0.058
    1UNL    H15   49   0.254  -0.185  -0.003
    1UNL    H16   50   0.005  -0.221   0.141
    1UNL    H17   51   0.056  -0.050   0.076
    1UNL    H18   52  -0.061   0.056  -0.038
    1UNL    H19   53  -0.322   0.309  -0.110
    1UNL    H20   54  -0.058   0.348  -0.109
    1UNL    H21   55  -0.067   0.272   0.054
    1UNL    H22   56  -0.214   0.447   0.107
    1UNL    H23   57  -0.422   0.172   0.046
    1UNL    H24   58  -0.393   0.285   0.246
    1UNL    H25   59  -0.153   0.144   0.216
    1UNL    H26   60  -0.331  -0.028   0.289
    1UNL    H27   61  -0.164  -0.095   0.127
    1UNL    H28   62  -0.399  -0.047  -0.007
   0.00000   0.00000   0.00000   0.00000   0.00000   0.00000   0.00000   0.00000   0.00000
Generated with MDTraj, t= 42.0
 62
    1UNL     C1    1  -0.226  -0.355  -0.105
    1UNL     C2    2  -0.080  -0.323  -0.105
    1UNL     C3    3  -0.006  -0.440  -0.029
    1UNL     C4    4   0.151  -0.403  -0.033
    1UNL     O1    5   0.228  -0.488   0.051
    1UNL     O2    6   0.188  -0.417  -0.178
    1UNL     C5    7   0.113  -0.306  -0.236
    1UNL     O3    8  -0.030  -0.340  -0.235
    1UNL     C6    9   0.123  -0.187  -0.127
    1UNL     C7   10   0.171  -0.049  -0.182
    1UNL     O4   11   0.265   0.016  -0.099
    1UNL     C8   12   0.219   0.139  -0.060
    1UNL     O5   13   0.110   0.189  -0.085
    1UNL     C9   14   0.314   0.223   0.025
    1UNL    C10   15   0.447   0.185   0.027
    1UNL    C11   16   0.541   0.261   0.099
    1UNL    C12   17   0.496   0.378   0.166
    1UNL    C13   18   0.362   0.415   0.162
    1UNL    C14   19   0.273   0.341   0.087
    1UNL    C15   20   0.180  -0.249  -0.004
    1UNL    C16   21   0.063  -0.181   0.074
    1UNL    C17   22  -0.026  -0.182  -0.058
    1UNL     O6   23  -0.106  -0.074  -0.111
    1UNL    C18   24  -0.147   0.038  -0.038
    1UNL     O7   25  -0.239   0.124  -0.114
    1UNL    C19   26  -0.276   0.247  -0.048
    1UNL    C20   27  -0.170   0.350  -0.033
    1UNL     O8   28  -0.221   0.473   0.011
    1UNL    C21   29  -0.347   0.208   0.082
    1UNL     O9   30  -0.392   0.323   0.151
    1UNL    C22   31  -0.262   0.126   0.173
    1UNL    O10   32  -0.330   0.087   0.292
    1UNL    C23   33  -0.224  -0.001   0.093
    1UNL    O11   34  -0.339  -0.076   0.057
    1UNL     H1   35  -0.283  -0.331  -0.009
    1UNL     H2   36  -0.273  -0.282  -0.169
    1UNL     H3   37  -0.257  -0.445  -0.164
    1UNL     H4   38  -0.052  -0.459   0.073
    1UNL     H5   39  -0.022  -0.530  -0.073
    1UNL     H6   40   0.262  -0.567   0.005
    1UNL     H7   41   0.143  -0.274  -0.335
    1UNL     H8   42   0.082   0.011  -0.188
    1UNL     H9   43   0.221  -0.050  -0.287
    1UNL    H10   44   0.486   0.112  -0.041
    1UNL    H11   45   0.648   0.249   0.082
    1UNL    H12   46   0.557   0.443   0.221
    1UNL    H13   47   0.336   0.514   0.199
    1UNL    H14   48   0.164   0.353   0.078
    1UNL    H15   49   0.282  -0.230   0.027
    1UNL    H16   50   0.035  -0.250   0.157
    1UNL    H17   51   0.095  -0.078   0.101
    1UNL    H18   52  -0.057   0.094  -0.017
    1UNL    H19   53  -0.359   0.278  -0.120
    1UNL    H20   54  -0.125   0.353  -0.136
    1UNL    H21   55  -0.093   0.313   0.038
    1UNL    H22   56  -0.289   0.447   0.083
    1UNL    H23   57  -0.441   0.145   0.054
    1UNL    H24   58  -0.420   0.287   0.237
    1UNL    H25   59  -0.170   0.179   0.207
    1UNL    H26   60  -0.361  -0.009   0.299
    1UNL    H27   61  -0.163  -0.078   0.151
    1UNL    H28   62  -0.324  -0.088  -0.044
   0.00000   0.00000   0.00000   0.00000   0.00000   0.00000   0.00000   0.00000   0.00000
Generated with MDTraj, t= 43.0
 62
    1UNL     C1    1  -0.228  -0.329  -0.086
    1UNL     C2    2  -0.080  -0.318  -0.098
    1UNL     C3    3   0.000  -0.429  -0.023
    1UNL     C4    4   0.151  -0.400  -0.034
    1UNL     O1    5   0.236  -0.492   0.054
    1UNL     O2    6   0.175  -0.411  -0.180
    1UNL     C5    7   0.101  -0.299  -0.240
    1UNL     O3    8  -0.041  -0.331  -0.237
    1UNL     C6    9   0.120  -0.182  -0.140
    1UNL     C7   10   0.189  -0.049  -0.183
    1UNL     O4   11   0.263   0.010  -0.072
    1UNL     C8   12   0.226   0.138  -0.049
    1UNL     O5   13   0.124   0.186  -0.096
    1UNL     C9   14   0.321   0.226   0.019
    1UNL    C10   15   0.452   0.179   0.021
    1UNL    C11   16   0.546   0.248   0.095
    1UNL    C12   17   0.510   0.360   0.168
    1UNL    C13   18   0.377   0.406   0.166
    1UNL    C14   19   0.285   0.329   0.100
    1UNL    C15   20   0.182  -0.243  -0.014
    1UNL    C16   21   0.065  -0.167   0.064
    1UNL    C17   22  -0.017  -0.167  -0.062
    1UNL     O6   23  -0.093  -0.056  -0.112
    1UNL    C18   24  -0.148   0.042  -0.035
    1UNL     O7   25  -0.249   0.118  -0.113
    1UNL    C19   26  -0.293   0.238  -0.058
    1UNL    C20   27  -0.189   0.347  -0.047
    1UNL     O8   28  -0.249   0.470  -0.012
    1UNL    C21   29  -0.358   0.199   0.081
    1UNL     O9   30  -0.405   0.315   0.149
    1UNL    C22   31  -0.266   0.124   0.175
    1UNL    O10   32  -0.341   0.087   0.293
    1UNL    C23   33  -0.217  -0.002   0.099
    1UNL    O11   34  -0.317  -0.099   0.066
    1UNL     H1   35  -0.253  -0.294   0.019
    1UNL     H2   36  -0.284  -0.259  -0.148
    1UNL     H3   37  -0.263  -0.427  -0.122
    1UNL     H4   38  -0.025  -0.427   0.086
    1UNL     H5   39  -0.021  -0.531  -0.048
    1UNL     H6   40   0.258  -0.571  -0.004
    1UNL     H7   41   0.132  -0.288  -0.342
    1UNL     H8   42   0.124   0.027  -0.221
    1UNL     H9   43   0.264  -0.079  -0.264
    1UNL    H10   44   0.476   0.093  -0.043
    1UNL    H11   45   0.650   0.227   0.086
    1UNL    H12   46   0.590   0.400   0.231
    1UNL    H13   47   0.326   0.479   0.227
    1UNL    H14   48   0.182   0.358   0.097
    1UNL    H15   49   0.285  -0.217   0.006
    1UNL    H16   50   0.027  -0.232   0.153
    1UNL    H17   51   0.089  -0.068   0.092
    1UNL    H18   52  -0.076   0.119  -0.011
    1UNL    H19   53  -0.384   0.272  -0.118
    1UNL    H20   54  -0.142   0.371  -0.144
    1UNL    H21   55  -0.107   0.330   0.025
    1UNL    H22   56  -0.312   0.472   0.059
    1UNL    H23   57  -0.458   0.142   0.061
    1UNL    H24   58  -0.424   0.283   0.241
    1UNL    H25   59  -0.179   0.190   0.204
    1UNL    H26   60  -0.346  -0.007   0.303
    1UNL    H27   61  -0.148  -0.059   0.169
    1UNL    H28   62  -0.337  -0.081  -0.026
   0.00000   0.00000   0.00000   0.00000   0.00000   0.00000   0.00000   0.00000   0.00000
Generated with MDTraj, t= 44.0
 62
    1UNL     C1    1  -0.231  -0.311  -0.080
    1UNL     C2    2  -0.076  -0.314  -0.098
    1UNL     C3    3   0.001  -0.408  -0.005
    1UNL     C4    4   0.148  -0.383  -0.026
    1UNL     O1    5   0.228  -0.463   0.062
    1UNL     O2    6   0.182  -0.406  -0.166
    1UNL     C5    7   0.105  -0.309  -0.235
    1UNL     O3    8  -0.037  -0.350  -0.233
    1UNL     C6    9   0.115  -0.174  -0.144
    1UNL     C7   10   0.162  -0.035  -0.197
    1UNL     O4   11   0.275   0.018  -0.117
    1UNL     C8   12   0.237   0.135  -0.055
    1UNL     O5   13   0.123   0.183  -0.067
    1UNL     C9   14   0.333   0.206   0.031
    1UNL    C10   15   0.466   0.170   0.036
    1UNL    C11   16   0.556   0.239   0.111
    1UNL    C12   17   0.513   0.358   0.173
    1UNL    C13   18   0.381   0.394   0.167
    1UNL    C14   19   0.289   0.315   0.098
    1UNL    C15   20   0.166  -0.224  -0.005
    1UNL    C16   21   0.051  -0.145   0.061
    1UNL    C17   22  -0.025  -0.167  -0.077
    1UNL     O6   23  -0.118  -0.075  -0.134
    1UNL    C18   24  -0.156   0.042  -0.058
    1UNL     O7   25  -0.263   0.115  -0.119
    1UNL    C19   26  -0.302   0.234  -0.056
    1UNL    C20   27  -0.194   0.347  -0.055
    1UNL     O8   28  -0.253   0.468  -0.016
    1UNL    C21   29  -0.358   0.193   0.090
    1UNL     O9   30  -0.399   0.308   0.157
    1UNL    C22   31  -0.258   0.117   0.174
    1UNL    O10   32  -0.328   0.064   0.285
    1UNL    C23   33  -0.200   0.004   0.090
    1UNL    O11   34  -0.299  -0.096   0.069
    1UNL     H1   35  -0.257  -0.272   0.020
    1UNL     H2   36  -0.276  -0.234  -0.150
    1UNL     H3   37  -0.267  -0.408  -0.115
    1UNL     H4   38  -0.029  -0.410   0.097
    1UNL     H5   39  -0.026  -0.515  -0.041
    1UNL     H6   40   0.302  -0.495   0.000
    1UNL     H7   41   0.140  -0.294  -0.334
    1UNL     H8   42   0.082   0.034  -0.207
    1UNL     H9   43   0.209  -0.063  -0.297
    1UNL    H10   44   0.486   0.079  -0.015
    1UNL    H11   45   0.658   0.200   0.113
    1UNL    H12   46   0.582   0.421   0.238
    1UNL    H13   47   0.351   0.479   0.230
    1UNL    H14   48   0.180   0.326   0.114
    1UNL    H15   49   0.273  -0.206  -0.002
    1UNL    H16   50  -0.011  -0.202   0.141
    1UNL    H17   51   0.060  -0.043   0.081
    1UNL    H18   52  -0.062   0.099  -0.054
    1UNL    H19   53  -0.388   0.266  -0.122
    1UNL    H20   54  -0.142   0.370  -0.147
    1UNL    H21   55  -0.119   0.325   0.021
    1UNL    H22   56  -0.325   0.450   0.056
    1UNL    H23   57  -0.448   0.123   0.074
    1UNL    H24   58  -0.432   0.276   0.242
    1UNL    H25   59  -0.171   0.180   0.203
    1UNL    H26   60  -0.332  -0.035   0.276
    1UNL    H27   61  -0.120  -0.048   0.149
    1UNL    H28   62  -0.366  -0.054   0.018
   0.00000   0.00000   0.00000   0.00000   0.00000   0.00000   0.00000   0.00000   0.00000
Generated with MDTraj, t= 45.0
 62
    1UNL     C1    1  -0.221  -0.342  -0.094
    1UNL     C2    2  -0.068  -0.323  -0.107
    1UNL     C3    3   0.009  -0.398   0.001
    1UNL     C4    4   0.157  -0.364  -0.012
    1UNL     O1    5   0.243  -0.418   0.085
    1UNL     O2    6   0.208  -0.382  -0.146
    1UNL     C5    7   0.131  -0.299  -0.232
    1UNL     O3    8  -0.002  -0.350  -0.231
    1UNL     C6    9   0.114  -0.160  -0.156
    1UNL     C7   10   0.165  -0.029  -0.222
    1UNL     O4   11   0.277   0.028  -0.146
    1UNL     C8   12   0.225   0.115  -0.051
    1UNL     O5   13   0.104   0.124  -0.022
    1UNL     C9   14   0.324   0.191   0.019
    1UNL    C10   15   0.452   0.147   0.025
    1UNL    C11   16   0.543   0.206   0.111
    1UNL    C12   17   0.511   0.324   0.182
    1UNL    C13   18   0.380   0.371   0.164
    1UNL    C14   19   0.287   0.308   0.083
    1UNL    C15   20   0.168  -0.200  -0.011
    1UNL    C16   21   0.049  -0.137   0.048
    1UNL    C17   22  -0.030  -0.170  -0.088
    1UNL     O6   23  -0.125  -0.078  -0.143
    1UNL    C18   24  -0.173   0.034  -0.060
    1UNL     O7   25  -0.278   0.115  -0.122
    1UNL    C19   26  -0.312   0.235  -0.053
    1UNL    C20   27  -0.202   0.343  -0.053
    1UNL     O8   28  -0.237   0.468   0.006
    1UNL    C21   29  -0.361   0.205   0.094
    1UNL     O9   30  -0.395   0.317   0.170
    1UNL    C22   31  -0.253   0.123   0.166
    1UNL    O10   32  -0.305   0.100   0.303
    1UNL    C23   33  -0.222  -0.003   0.084
    1UNL    O11   34  -0.343  -0.077   0.053
    1UNL     H1   35  -0.250  -0.311   0.006
    1UNL     H2   36  -0.274  -0.272  -0.167
    1UNL     H3   37  -0.234  -0.445  -0.125
    1UNL     H4   38  -0.030  -0.385   0.098
    1UNL     H5   39   0.006  -0.515  -0.019
    1UNL     H6   40   0.310  -0.465   0.026
    1UNL     H7   41   0.172  -0.294  -0.331
    1UNL     H8   42   0.091   0.046  -0.235
    1UNL     H9   43   0.209  -0.060  -0.321
    1UNL    H10   44   0.483   0.064  -0.040
    1UNL    H11   45   0.635   0.154   0.120
    1UNL    H12   46   0.586   0.381   0.221
    1UNL    H13   47   0.351   0.453   0.225
    1UNL    H14   48   0.186   0.337   0.094
    1UNL    H15   49   0.250  -0.149   0.038
    1UNL    H16   50   0.020  -0.193   0.141
    1UNL    H17   51   0.061  -0.029   0.061
    1UNL    H18   52  -0.079   0.092  -0.053
    1UNL    H19   53  -0.390   0.274  -0.122
    1UNL    H20   54  -0.188   0.362  -0.157
    1UNL    H21   55  -0.109   0.307  -0.010
    1UNL    H22   56  -0.302   0.437   0.071
    1UNL    H23   57  -0.459   0.147   0.087
    1UNL    H24   58  -0.408   0.291   0.265
    1UNL    H25   59  -0.162   0.181   0.188
    1UNL    H26   60  -0.343   0.007   0.311
    1UNL    H27   61  -0.164  -0.073   0.146
    1UNL    H28   62  -0.387  -0.039  -0.031
   0.00000   0.00000   0.00000   0.00000   0.00000   0.00000   0.00000   0.00000   0.00000
Generated with MDTraj, t= 46.0
 62
    1UNL     C1    1  -0.196  -0.389  -0.100
    1UNL     C2    2  -0.053  -0.328  -0.098
    1UNL     C3    3   0.040  -0.394   0.002
    1UNL     C4    4   0.177  -0.333  -0.008
    1UNL     O1    5   0.265  -0.382   0.090
    1UNL     O2    6   0.217  -0.359  -0.148
    1UNL     C5    7   0.123  -0.283  -0.228
    1UNL     O3    8  -0.005  -0.347  -0.235
    1UNL     C6    9   0.103  -0.152  -0.144
    1UNL     C7   10   0.135  -0.017  -0.212
    1UNL     O4   11   0.250   0.044  -0.157
    1UNL     C8   12   0.207   0.123  -0.053
    1UNL     O5   13   0.089   0.150  -0.028
    1UNL     C9   14   0.316   0.175   0.027
    1UNL    C10   15   0.441   0.120   0.024
    1UNL    C11   16   0.542   0.184   0.100
    1UNL    C12   17   0.519   0.297   0.170
    1UNL    C13   18   0.391   0.354   0.171
    1UNL    C14   19   0.289   0.291   0.103
    1UNL    C15   20   0.165  -0.175  -0.002
    1UNL    C16   21   0.029  -0.127   0.058
    1UNL    C17   22  -0.039  -0.173  -0.071
    1UNL     O6   23  -0.140  -0.087  -0.137
    1UNL    C18   24  -0.187   0.021  -0.058
    1UNL     O7   25  -0.267   0.118  -0.126
    1UNL    C19   26  -0.297   0.234  -0.051
    1UNL    C20   27  -0.181   0.339  -0.058
    1UNL     O8   28  -0.202   0.469  -0.004
    1UNL    C21   29  -0.348   0.208   0.092
    1UNL     O9   30  -0.368   0.326   0.165
    1UNL    C22   31  -0.258   0.107   0.160
    1UNL    O10   32  -0.309   0.083   0.289
    1UNL    C23   33  -0.250  -0.021   0.074
    1UNL    O11   34  -0.378  -0.070   0.053
    1UNL     H1   35  -0.244  -0.377  -0.004
    1UNL     H2   36  -0.259  -0.328  -0.171
    1UNL     H3   37  -0.189  -0.492  -0.141
    1UNL     H4   38   0.004  -0.387   0.105
    1UNL     H5   39   0.061  -0.501  -0.023
    1UNL     H6   40   0.288  -0.476   0.083
    1UNL     H7   41   0.161  -0.275  -0.329
    1UNL     H8   42   0.056   0.051  -0.197
    1UNL     H9   43   0.155  -0.022  -0.321
    1UNL    H10   44   0.447   0.040  -0.046
    1UNL    H11   45   0.646   0.157   0.080
    1UNL    H12   46   0.613   0.339   0.224
    1UNL    H13   47   0.364   0.444   0.227
    1UNL    H14   48   0.194   0.344   0.092
    1UNL    H15   49   0.257  -0.120   0.000
    1UNL    H16   50  -0.007  -0.183   0.144
    1UNL    H17   51   0.016  -0.011   0.077
    1UNL    H18   52  -0.089   0.072  -0.053
    1UNL    H19   53  -0.372   0.293  -0.101
    1UNL    H20   54  -0.152   0.357  -0.160
    1UNL    H21   55  -0.097   0.294  -0.007
    1UNL    H22   56  -0.277   0.466   0.061
    1UNL    H23   57  -0.451   0.169   0.089
    1UNL    H24   58  -0.399   0.305   0.256
    1UNL    H25   59  -0.156   0.146   0.168
    1UNL    H26   60  -0.365   0.003   0.281
    1UNL    H27   61  -0.187  -0.088   0.130
    1UNL    H28   62  -0.392  -0.070  -0.045
   0.00000   0.00000   0.00000   0.00000   0.00000   0.00000   0.00000   0.00000   0.00000
Generated with MDTraj, t= 47.0
 62
    1UNL     C1    1  -0.196  -0.391  -0.081
    1UNL     C2    2  -0.052  -0.340  -0.088
    1UNL     C3    3   0.056  -0.414   0.005
    1UNL     C4    4   0.192  -0.333  -0.012
    1UNL     O1    5   0.301  -0.359   0.079
    1UNL     O2    6   0.220  -0.346  -0.156
    1UNL     C5    7   0.116  -0.277  -0.230
    1UNL     O3    8  -0.008  -0.352  -0.223
    1UNL     C6    9   0.090  -0.144  -0.144
    1UNL     C7   10   0.103  -0.000  -0.201
    1UNL     O4   11   0.213   0.071  -0.158
    1UNL     C8   12   0.190   0.152  -0.052
    1UNL     O5   13   0.083   0.187  -0.008
    1UNL     C9   14   0.314   0.204   0.023
    1UNL    C10   15   0.434   0.138   0.009
    1UNL    C11   16   0.546   0.171   0.080
    1UNL    C12   17   0.532   0.266   0.181
    1UNL    C13   18   0.412   0.337   0.201
    1UNL    C14   19   0.304   0.304   0.122
    1UNL    C15   20   0.157  -0.175  -0.010
    1UNL    C16   21   0.026  -0.136   0.059
    1UNL    C17   22  -0.043  -0.175  -0.072
    1UNL     O6   23  -0.153  -0.104  -0.130
    1UNL    C18   24  -0.192   0.005  -0.055
    1UNL     O7   25  -0.274   0.100  -0.127
    1UNL    C19   26  -0.287   0.234  -0.061
    1UNL    C20   27  -0.147   0.312  -0.057
    1UNL     O8   28  -0.159   0.448  -0.031
    1UNL    C21   29  -0.349   0.223   0.083
    1UNL     O9   30  -0.324   0.339   0.153
    1UNL    C22   31  -0.278   0.101   0.159
    1UNL    O10   32  -0.357   0.067   0.270
    1UNL    C23   33  -0.265  -0.035   0.077
    1UNL    O11   34  -0.397  -0.072   0.053
    1UNL     H1   35  -0.246  -0.359   0.009
    1UNL     H2   36  -0.262  -0.362  -0.164
    1UNL     H3   37  -0.191  -0.503  -0.081
    1UNL     H4   38   0.034  -0.406   0.118
    1UNL     H5   39   0.069  -0.513  -0.025
    1UNL     H6   40   0.360  -0.430   0.055
    1UNL     H7   41   0.145  -0.245  -0.331
    1UNL     H8   42   0.021   0.059  -0.184
    1UNL     H9   43   0.110   0.004  -0.311
    1UNL    H10   44   0.435   0.065  -0.073
    1UNL    H11   45   0.638   0.126   0.048
    1UNL    H12   46   0.598   0.267   0.260
    1UNL    H13   47   0.424   0.411   0.277
    1UNL    H14   48   0.215   0.356   0.149
    1UNL    H15   49   0.239  -0.111   0.012
    1UNL    H16   50   0.007  -0.209   0.139
    1UNL    H17   51   0.014  -0.030   0.106
    1UNL    H18   52  -0.099   0.059  -0.040
    1UNL    H19   53  -0.348   0.286  -0.131
    1UNL    H20   54  -0.100   0.297  -0.152
    1UNL    H21   55  -0.079   0.267   0.015
    1UNL    H22   56  -0.202   0.467   0.059
    1UNL    H23   57  -0.454   0.201   0.083
    1UNL    H24   58  -0.352   0.321   0.244
    1UNL    H25   59  -0.181   0.137   0.189
    1UNL    H26   60  -0.421   0.004   0.240
    1UNL    H27   61  -0.221  -0.100   0.153
    1UNL    H28   62  -0.417  -0.045  -0.036
   0.00000   0.00000   0.00000   0.00000   0.00000   0.00000   0.00000   0.00000   0.00000
Generated with MDTraj, t= 48.0
 62
    1UNL     C1    1  -0.181  -0.389  -0.064
    1UNL     C2    2  -0.045  -0.337  -0.091
    1UNL     C3    3   0.068  -0.409  -0.014
    1UNL     C4    4   0.205  -0.318  -0.026
    1UNL     O1    5   0.310  -0.351   0.058
    1UNL     O2    6   0.237  -0.329  -0.171
    1UNL     C5    7   0.129  -0.261  -0.230
    1UNL     O3    8   0.008  -0.339  -0.229
    1UNL     C6    9   0.095  -0.135  -0.141
    1UNL     C7   10   0.107   0.004  -0.215
    1UNL     O4   11   0.224   0.072  -0.164
    1UNL     C8   12   0.198   0.131  -0.041
    1UNL     O5   13   0.087   0.128   0.006
    1UNL     C9   14   0.316   0.175   0.030
    1UNL    C10   15   0.448   0.131  -0.002
    1UNL    C11   16   0.560   0.186   0.062
    1UNL    C12   17   0.535   0.269   0.169
    1UNL    C13   18   0.411   0.310   0.206
    1UNL    C14   19   0.301   0.267   0.134
    1UNL    C15   20   0.169  -0.165   0.002
    1UNL    C16   21   0.034  -0.147   0.076
    1UNL    C17   22  -0.040  -0.182  -0.057
    1UNL     O6   23  -0.162  -0.113  -0.096
    1UNL    C18   24  -0.204   0.008  -0.029
    1UNL     O7   25  -0.269   0.097  -0.119
    1UNL    C19   26  -0.284   0.232  -0.064
    1UNL    C20   27  -0.147   0.304  -0.066
    1UNL     O8   28  -0.171   0.443  -0.055
    1UNL    C21   29  -0.356   0.229   0.077
    1UNL     O9   30  -0.337   0.351   0.150
    1UNL    C22   31  -0.303   0.110   0.169
    1UNL    O10   32  -0.397   0.099   0.272
    1UNL    C23   33  -0.296  -0.021   0.091
    1UNL    O11   34  -0.424  -0.053   0.047
    1UNL     H1   35  -0.208  -0.394   0.043
    1UNL     H2   36  -0.252  -0.318  -0.102
    1UNL     H3   37  -0.209  -0.487  -0.111
    1UNL     H4   38   0.039  -0.422   0.096
    1UNL     H5   39   0.090  -0.498  -0.062
    1UNL     H6   40   0.345  -0.429   0.015
    1UNL     H7   41   0.158  -0.230  -0.334
    1UNL     H8   42   0.029   0.067  -0.197
    1UNL     H9   43   0.107   0.001  -0.326
    1UNL    H10   44   0.454   0.071  -0.089
    1UNL    H11   45   0.659   0.146   0.041
    1UNL    H12   46   0.626   0.310   0.219
    1UNL    H13   47   0.400   0.368   0.298
    1UNL    H14   48   0.203   0.301   0.169
    1UNL    H15   49   0.247  -0.097   0.028
    1UNL    H16   50   0.017  -0.231   0.152
    1UNL    H17   51   0.024  -0.047   0.119
    1UNL    H18   52  -0.108   0.055  -0.013
    1UNL    H19   53  -0.352   0.270  -0.136
    1UNL    H20   54  -0.080   0.283  -0.147
    1UNL    H21   55  -0.095   0.265   0.024
    1UNL    H22   56  -0.245   0.462   0.002
    1UNL    H23   57  -0.459   0.222   0.062
    1UNL    H24   58  -0.344   0.341   0.247
    1UNL    H25   59  -0.207   0.143   0.207
    1UNL    H26   60  -0.484   0.062   0.240
    1UNL    H27   61  -0.268  -0.116   0.145
    1UNL    H28   62  -0.424  -0.045  -0.057
   0.00000   0.00000   0.00000   0.00000   0.00000   0.00000   0.00000   0.00000   0.00000
Generated with MDTraj, t= 49.0
 62
    1UNL     C1    1  -0.165  -0.434  -0.070
    1UNL     C2    2  -0.039  -0.350  -0.096
    1UNL     C3    3   0.079  -0.417  -0.013
    1UNL     C4    4   0.205  -0.322  -0.036
    1UNL     O1    5   0.317  -0.370   0.040
    1UNL     O2    6   0.230  -0.322  -0.177
    1UNL     C5    7   0.119  -0.263  -0.239
    1UNL     O3    8   0.010  -0.355  -0.236
    1UNL     C6    9   0.082  -0.143  -0.135
    1UNL     C7   10   0.090   0.003  -0.189
    1UNL     O4   11   0.209   0.071  -0.148
    1UNL     C8   12   0.192   0.131  -0.024
    1UNL     O5   13   0.089   0.131   0.040
    1UNL     C9   14   0.324   0.175   0.040
    1UNL    C10   15   0.447   0.156  -0.023
    1UNL    C11   16   0.561   0.201   0.040
    1UNL    C12   17   0.549   0.277   0.159
    1UNL    C13   18   0.430   0.291   0.222
    1UNL    C14   19   0.316   0.249   0.159
    1UNL    C15   20   0.162  -0.179   0.004
    1UNL    C16   21   0.031  -0.154   0.073
    1UNL    C17   22  -0.044  -0.191  -0.059
    1UNL     O6   23  -0.169  -0.123  -0.079
    1UNL    C18   24  -0.198   0.018  -0.036
    1UNL     O7   25  -0.254   0.109  -0.126
    1UNL    C19   26  -0.275   0.240  -0.073
    1UNL    C20   27  -0.150   0.318  -0.060
    1UNL     O8   28  -0.178   0.455  -0.033
    1UNL    C21   29  -0.363   0.234   0.051
    1UNL     O9   30  -0.387   0.361   0.122
    1UNL    C22   31  -0.303   0.138   0.156
    1UNL    O10   32  -0.393   0.125   0.265
    1UNL    C23   33  -0.290  -0.003   0.094
    1UNL    O11   34  -0.409  -0.066   0.059
    1UNL     H1   35  -0.209  -0.427   0.034
    1UNL     H2   36  -0.247  -0.407  -0.132
    1UNL     H3   37  -0.149  -0.541  -0.089
    1UNL     H4   38   0.058  -0.410   0.092
    1UNL     H5   39   0.100  -0.518  -0.047
    1UNL     H6   40   0.388  -0.377  -0.028
    1UNL     H7   41   0.136  -0.226  -0.344
    1UNL     H8   42   0.003   0.055  -0.181
    1UNL     H9   43   0.105  -0.001  -0.298
    1UNL    H10   44   0.456   0.096  -0.113
    1UNL    H11   45   0.661   0.202  -0.005
    1UNL    H12   46   0.642   0.325   0.189
    1UNL    H13   47   0.418   0.335   0.320
    1UNL    H14   48   0.225   0.275   0.208
    1UNL    H15   49   0.247  -0.115   0.017
    1UNL    H16   50   0.010  -0.224   0.163
    1UNL    H17   51   0.022  -0.054   0.109
    1UNL    H18   52  -0.106   0.060   0.000
    1UNL    H19   53  -0.337   0.288  -0.149
    1UNL    H20   54  -0.106   0.317  -0.159
    1UNL    H21   55  -0.068   0.285   0.007
    1UNL    H22   56  -0.249   0.468   0.041
    1UNL    H23   57  -0.457   0.195   0.027
    1UNL    H24   58  -0.382   0.354   0.221
    1UNL    H25   59  -0.208   0.166   0.204
    1UNL    H26   60  -0.476   0.081   0.235
    1UNL    H27   61  -0.240  -0.072   0.170
    1UNL    H28   62  -0.404  -0.071  -0.036
   0.00000   0.00000   0.00000   0.00000   0.00000   0.00000   0.00000   0.00000   0.00000
Generated with MDTraj, t= 50.0
 62
    1UNL     C1    1  -0.188  -0.401  -0.097
    1UNL     C2    2  -0.049  -0.340  -0.092
    1UNL     C3    3   0.068  -0.418  -0.021
    1UNL     C4    4   0.198  -0.333  -0.039
    1UNL     O1    5   0.301  -0.394   0.036
    1UNL     O2    6   0.222  -0.328  -0.180
    1UNL     C5    7   0.111  -0.249  -0.234
    1UNL     O3    8  -0.007  -0.328  -0.235
    1UNL     C6    9   0.072  -0.141  -0.132
    1UNL     C7   10   0.087   0.011  -0.179
    1UNL     O4   11   0.205   0.066  -0.120
    1UNL     C8   12   0.186   0.143  -0.009
    1UNL     O5   13   0.085   0.160   0.051
    1UNL     C9   14   0.314   0.205   0.040
    1UNL    C10   15   0.427   0.192  -0.036
    1UNL    C11   16   0.546   0.231   0.016
    1UNL    C12   17   0.557   0.272   0.148
    1UNL    C13   18   0.448   0.276   0.224
    1UNL    C14   19   0.322   0.236   0.175
    1UNL    C15   20   0.162  -0.184  -0.009
    1UNL    C16   21   0.035  -0.166   0.084
    1UNL    C17   22  -0.048  -0.184  -0.046
    1UNL     O6   23  -0.175  -0.134  -0.060
    1UNL    C18   24  -0.175   0.004  -0.015
    1UNL     O7   25  -0.218   0.084  -0.124
    1UNL    C19   26  -0.252   0.217  -0.091
    1UNL    C20   27  -0.130   0.309  -0.060
    1UNL     O8   28  -0.167   0.435  -0.013
    1UNL    C21   29  -0.358   0.212   0.026
    1UNL     O9   30  -0.418   0.338   0.060
    1UNL    C22   31  -0.301   0.146   0.155
    1UNL    O10   32  -0.387   0.132   0.266
    1UNL    C23   33  -0.268   0.004   0.111
    1UNL    O11   34  -0.380  -0.069   0.075
    1UNL     H1   35  -0.226  -0.405   0.010
    1UNL     H2   36  -0.257  -0.337  -0.153
    1UNL     H3   37  -0.186  -0.502  -0.135
    1UNL     H4   38   0.052  -0.435   0.077
    1UNL     H5   39   0.096  -0.511  -0.081
    1UNL     H6   40   0.382  -0.351  -0.008
    1UNL     H7   41   0.130  -0.200  -0.334
    1UNL     H8   42   0.004   0.072  -0.154
    1UNL     H9   43   0.104   0.005  -0.287
    1UNL    H10   44   0.415   0.169  -0.139
    1UNL    H11   45   0.634   0.224  -0.042
    1UNL    H12   46   0.648   0.289   0.202
    1UNL    H13   47   0.459   0.303   0.329
    1UNL    H14   48   0.227   0.246   0.230
    1UNL    H15   49   0.253  -0.124  -0.005
    1UNL    H16   50   0.025  -0.240   0.169
    1UNL    H17   51   0.035  -0.070   0.135
    1UNL    H18   52  -0.075   0.036   0.011
    1UNL    H19   53  -0.306   0.260  -0.179
    1UNL    H20   54  -0.056   0.322  -0.140
    1UNL    H21   55  -0.065   0.272   0.023
    1UNL    H22   56  -0.262   0.440  -0.002
    1UNL    H23   57  -0.440   0.155  -0.005
    1UNL    H24   58  -0.447   0.336   0.154
    1UNL    H25   59  -0.208   0.199   0.182
    1UNL    H26   60  -0.454   0.073   0.234
    1UNL    H27   61  -0.222  -0.054   0.200
    1UNL    H28   62  -0.393  -0.064  -0.021
   0.00000   0.00000   0.00000   0.00000   0.00000   0.00000   0.00000   0.00000   0.00000
Generated with MDTraj, t= 51.0
 62
    1UNL     C1    1  -0.179  -0.416  -0.083
    1UNL     C2    2  -0.038  -0.346  -0.100
    1UNL     C3    3   0.076  -0.429  -0.036
    1UNL     C4    4   0.210  -0.344  -0.049
    1UNL     O1    5   0.314  -0.418   0.018
    1UNL     O2    6   0.225  -0.327  -0.194
    1UNL     C5    7   0.111  -0.255  -0.241
    1UNL     O3    8  -0.010  -0.334  -0.237
    1UNL     C6    9   0.087  -0.149  -0.131
    1UNL     C7   10   0.093   0.002  -0.177
    1UNL     O4   11   0.209   0.068  -0.135
    1UNL     C8   12   0.200   0.120  -0.007
    1UNL     O5   13   0.105   0.112   0.064
    1UNL     C9   14   0.321   0.184   0.045
    1UNL    C10   15   0.430   0.219  -0.036
    1UNL    C11   16   0.544   0.277   0.017
    1UNL    C12   17   0.554   0.305   0.147
    1UNL    C13   18   0.442   0.272   0.228
    1UNL    C14   19   0.331   0.213   0.176
    1UNL    C15   20   0.173  -0.197  -0.004
    1UNL    C16   21   0.048  -0.178   0.082
    1UNL    C17   22  -0.042  -0.201  -0.045
    1UNL     O6   23  -0.173  -0.139  -0.043
    1UNL    C18   24  -0.186   0.003  -0.013
    1UNL     O7   25  -0.224   0.097  -0.121
    1UNL    C19   26  -0.262   0.230  -0.080
    1UNL    C20   27  -0.138   0.319  -0.040
    1UNL     O8   28  -0.169   0.452  -0.023
    1UNL    C21   29  -0.375   0.239   0.024
    1UNL     O9   30  -0.414   0.371   0.047
    1UNL    C22   31  -0.327   0.162   0.150
    1UNL    O10   32  -0.429   0.160   0.245
    1UNL    C23   33  -0.275   0.017   0.114
    1UNL    O11   34  -0.386  -0.075   0.113
    1UNL     H1   35  -0.198  -0.443   0.022
    1UNL     H2   36  -0.250  -0.334  -0.110
    1UNL     H3   37  -0.190  -0.501  -0.146
    1UNL     H4   38   0.054  -0.446   0.068
    1UNL     H5   39   0.076  -0.525  -0.096
    1UNL     H6   40   0.335  -0.492  -0.047
    1UNL     H7   41   0.138  -0.215  -0.344
    1UNL     H8   42   0.007   0.062  -0.135
    1UNL     H9   43   0.097   0.010  -0.288
    1UNL    H10   44   0.433   0.207  -0.145
    1UNL    H11   45   0.631   0.297  -0.047
    1UNL    H12   46   0.651   0.318   0.197
    1UNL    H13   47   0.436   0.307   0.329
    1UNL    H14   48   0.250   0.182   0.239
    1UNL    H15   49   0.263  -0.145   0.032
    1UNL    H16   50   0.027  -0.259   0.153
    1UNL    H17   51   0.018  -0.073   0.109
    1UNL    H18   52  -0.086   0.036   0.019
    1UNL    H19   53  -0.299   0.275  -0.177
    1UNL    H20   54  -0.055   0.312  -0.111
    1UNL    H21   55  -0.103   0.270   0.055
    1UNL    H22   56  -0.261   0.442   0.019
    1UNL    H23   57  -0.457   0.179  -0.008
    1UNL    H24   58  -0.472   0.372   0.126
    1UNL    H25   59  -0.252   0.232   0.192
    1UNL    H26   60  -0.508   0.106   0.215
    1UNL    H27   61  -0.222  -0.019   0.212
    1UNL    H28   62  -0.390  -0.150   0.043
   0.00000   0.00000   0.00000   0.00000   0.00000   0.00000   0.00000   0.00000   0.00000
Generated with MDTraj, t= 52.0
 62
    1UNL     C1    1  -0.190  -0.406  -0.054
    1UNL     C2    2  -0.052  -0.352  -0.089
    1UNL     C3    3   0.064  -0.429  -0.033
    1UNL     C4    4   0.197  -0.347  -0.067
    1UNL     O1    5   0.315  -0.394  -0.005
    1UNL     O2    6   0.206  -0.328  -0.211
    1UNL     C5    7   0.090  -0.255  -0.243
    1UNL     O3    8  -0.025  -0.339  -0.234
    1UNL     C6    9   0.070  -0.141  -0.133
    1UNL     C7   10   0.101   0.003  -0.176
    1UNL     O4   11   0.220   0.062  -0.135
    1UNL     C8   12   0.212   0.101  -0.003
    1UNL     O5   13   0.117   0.091   0.072
    1UNL     C9   14   0.338   0.163   0.054
    1UNL    C10   15   0.424   0.227  -0.034
    1UNL    C11   16   0.527   0.310   0.016
    1UNL    C12   17   0.534   0.341   0.148
    1UNL    C13   18   0.440   0.285   0.235
    1UNL    C14   19   0.350   0.194   0.188
    1UNL    C15   20   0.171  -0.189  -0.017
    1UNL    C16   21   0.059  -0.183   0.086
    1UNL    C17   22  -0.039  -0.195  -0.032
    1UNL     O6   23  -0.168  -0.140  -0.022
    1UNL    C18   24  -0.176  -0.002   0.008
    1UNL     O7   25  -0.206   0.084  -0.110
    1UNL    C19   26  -0.244   0.218  -0.083
    1UNL    C20   27  -0.121   0.308  -0.040
    1UNL     O8   28  -0.146   0.447  -0.039
    1UNL    C21   29  -0.359   0.235   0.024
    1UNL     O9   30  -0.405   0.363   0.057
    1UNL    C22   31  -0.332   0.155   0.155
    1UNL    O10   32  -0.448   0.150   0.232
    1UNL    C23   33  -0.287   0.013   0.115
    1UNL    O11   34  -0.401  -0.057   0.068
    1UNL     H1   35  -0.204  -0.382   0.050
    1UNL     H2   36  -0.267  -0.354  -0.120
    1UNL     H3   37  -0.183  -0.513  -0.061
    1UNL     H4   38   0.049  -0.459   0.082
    1UNL     H5   39   0.077  -0.518  -0.093
    1UNL     H6   40   0.393  -0.337  -0.028
    1UNL     H7   41   0.111  -0.211  -0.344
    1UNL     H8   42   0.017   0.081  -0.156
    1UNL     H9   43   0.122   0.011  -0.284
    1UNL    H10   44   0.426   0.218  -0.140
    1UNL    H11   45   0.601   0.349  -0.050
    1UNL    H12   46   0.594   0.423   0.179
    1UNL    H13   47   0.446   0.310   0.341
    1UNL    H14   48   0.261   0.161   0.240
    1UNL    H15   49   0.260  -0.128  -0.002
    1UNL    H16   50   0.061  -0.262   0.156
    1UNL    H17   51   0.038  -0.079   0.136
    1UNL    H18   52  -0.078   0.028   0.051
    1UNL    H19   53  -0.275   0.270  -0.178
    1UNL    H20   54  -0.055   0.288  -0.127
    1UNL    H21   55  -0.064   0.277   0.052
    1UNL    H22   56  -0.237   0.454  -0.004
    1UNL    H23   57  -0.444   0.183  -0.020
    1UNL    H24   58  -0.485   0.365   0.116
    1UNL    H25   59  -0.248   0.207   0.208
    1UNL    H26   60  -0.525   0.128   0.178
    1UNL    H27   61  -0.241  -0.053   0.199
    1UNL    H28   62  -0.382  -0.110  -0.007
   0.00000   0.00000   0.00000   0.00000   0.00000   0.00000   0.00000   0.00000   0.00000
Generated with MDTraj, t= 53.0
 62
    1UNL     C1    1  -0.187  -0.433  -0.041
    1UNL     C2    2  -0.049  -0.364  -0.079
    1UNL     C3    3   0.077  -0.448  -0.039
    1UNL     C4    4   0.203  -0.354  -0.075
    1UNL     O1    5   0.324  -0.408  -0.044
    1UNL     O2    6   0.192  -0.327  -0.221
    1UNL     C5    7   0.076  -0.250  -0.235
    1UNL     O3    8  -0.034  -0.344  -0.217
    1UNL     C6    9   0.072  -0.149  -0.117
    1UNL     C7   10   0.083  -0.000  -0.159
    1UNL     O4   11   0.200   0.075  -0.116
    1UNL     C8   12   0.193   0.135   0.004
    1UNL     O5   13   0.099   0.125   0.080
    1UNL     C9   14   0.316   0.211   0.051
    1UNL    C10   15   0.404   0.268  -0.039
    1UNL    C11   16   0.519   0.321   0.009
    1UNL    C12   17   0.544   0.335   0.146
    1UNL    C13   18   0.455   0.287   0.234
    1UNL    C14   19   0.339   0.225   0.189
    1UNL    C15   20   0.172  -0.203  -0.015
    1UNL    C16   21   0.064  -0.204   0.098
    1UNL    C17   22  -0.034  -0.212  -0.026
    1UNL     O6   23  -0.168  -0.149  -0.017
    1UNL    C18   24  -0.184  -0.013   0.016
    1UNL     O7   25  -0.200   0.075  -0.100
    1UNL    C19   26  -0.216   0.212  -0.075
    1UNL    C20   27  -0.089   0.289  -0.029
    1UNL     O8   28  -0.112   0.430  -0.028
    1UNL    C21   29  -0.342   0.235   0.015
    1UNL     O9   30  -0.378   0.362   0.052
    1UNL    C22   31  -0.331   0.148   0.140
    1UNL    O10   32  -0.435   0.169   0.226
    1UNL    C23   33  -0.313   0.001   0.098
    1UNL    O11   34  -0.423  -0.041   0.016
    1UNL     H1   35  -0.194  -0.467   0.059
    1UNL     H2   36  -0.266  -0.356  -0.058
    1UNL     H3   37  -0.205  -0.525  -0.101
    1UNL     H4   38   0.081  -0.475   0.075
    1UNL     H5   39   0.079  -0.544  -0.093
    1UNL     H6   40   0.370  -0.457  -0.111
    1UNL     H7   41   0.070  -0.203  -0.336
    1UNL     H8   42  -0.006   0.067  -0.123
    1UNL     H9   43   0.077   0.018  -0.267
    1UNL    H10   44   0.398   0.248  -0.148
    1UNL    H11   45   0.597   0.349  -0.062
    1UNL    H12   46   0.624   0.395   0.190
    1UNL    H13   47   0.462   0.303   0.339
    1UNL    H14   48   0.261   0.179   0.249
    1UNL    H15   49   0.255  -0.130  -0.022
    1UNL    H16   50   0.042  -0.282   0.170
    1UNL    H17   51   0.043  -0.107   0.150
    1UNL    H18   52  -0.103   0.027   0.081
    1UNL    H19   53  -0.242   0.262  -0.171
    1UNL    H20   54   0.008   0.278  -0.083
    1UNL    H21   55  -0.074   0.256   0.078
    1UNL    H22   56  -0.191   0.454   0.024
    1UNL    H23   57  -0.432   0.201  -0.041
    1UNL    H24   58  -0.434   0.372   0.131
    1UNL    H25   59  -0.246   0.179   0.209
    1UNL    H26   60  -0.521   0.160   0.184
    1UNL    H27   61  -0.313  -0.056   0.196
    1UNL    H28   62  -0.390  -0.081  -0.074
   0.00000   0.00000   0.00000   0.00000   0.00000   0.00000   0.00000   0.00000   0.00000
Generated with MDTraj, t= 54.0
 62
    1UNL     C1    1  -0.173  -0.430  -0.054
    1UNL     C2    2  -0.043  -0.358  -0.085
    1UNL     C3    3   0.084  -0.436  -0.054
    1UNL     C4    4   0.212  -0.348  -0.083
    1UNL     O1    5   0.332  -0.407  -0.032
    1UNL     O2    6   0.200  -0.316  -0.231
    1UNL     C5    7   0.071  -0.247  -0.245
    1UNL     O3    8  -0.036  -0.340  -0.228
    1UNL     C6    9   0.066  -0.153  -0.121
    1UNL     C7   10   0.076  -0.006  -0.144
    1UNL     O4   11   0.197   0.065  -0.099
    1UNL     C8   12   0.184   0.116   0.028
    1UNL     O5   13   0.092   0.098   0.106
    1UNL     C9   14   0.296   0.203   0.063
    1UNL    C10   15   0.382   0.243  -0.045
    1UNL    C11   16   0.492   0.319  -0.021
    1UNL    C12   17   0.523   0.342   0.115
    1UNL    C13   18   0.444   0.296   0.220
    1UNL    C14   19   0.330   0.223   0.193
    1UNL    C15   20   0.183  -0.204  -0.020
    1UNL    C16   21   0.072  -0.196   0.088
    1UNL    C17   22  -0.032  -0.211  -0.025
    1UNL     O6   23  -0.172  -0.154   0.016
    1UNL    C18   24  -0.188  -0.012   0.033
    1UNL     O7   25  -0.180   0.073  -0.085
    1UNL    C19   26  -0.199   0.216  -0.063
    1UNL    C20   27  -0.079   0.286  -0.015
    1UNL     O8   28  -0.094   0.429  -0.025
    1UNL    C21   29  -0.328   0.243   0.013
    1UNL     O9   30  -0.343   0.375   0.043
    1UNL    C22   31  -0.339   0.156   0.144
    1UNL    O10   32  -0.461   0.177   0.192
    1UNL    C23   33  -0.324   0.007   0.104
    1UNL    O11   34  -0.435  -0.039   0.018
    1UNL     H1   35  -0.189  -0.458   0.049
    1UNL     H2   36  -0.259  -0.370  -0.083
    1UNL     H3   37  -0.178  -0.530  -0.104
    1UNL     H4   38   0.092  -0.474   0.044
    1UNL     H5   39   0.098  -0.524  -0.129
    1UNL     H6   40   0.383  -0.444  -0.101
    1UNL     H7   41   0.062  -0.199  -0.344
    1UNL     H8   42  -0.000   0.048  -0.101
    1UNL     H9   43   0.067   0.015  -0.252
    1UNL    H10   44   0.366   0.209  -0.144
    1UNL    H11   45   0.573   0.351  -0.082
    1UNL    H12   46   0.618   0.388   0.136
    1UNL    H13   47   0.457   0.329   0.323
    1UNL    H14   48   0.272   0.179   0.273
    1UNL    H15   49   0.264  -0.132   0.013
    1UNL    H16   50   0.085  -0.274   0.165
    1UNL    H17   51   0.058  -0.096   0.129
    1UNL    H18   52  -0.103   0.016   0.101
    1UNL    H19   53  -0.218   0.234  -0.169
    1UNL    H20   54   0.003   0.261  -0.083
    1UNL    H21   55  -0.041   0.273   0.090
    1UNL    H22   56  -0.184   0.457   0.018
    1UNL    H23   57  -0.417   0.218  -0.054
    1UNL    H24   58  -0.403   0.392   0.119
    1UNL    H25   59  -0.261   0.190   0.219
    1UNL    H26   60  -0.525   0.135   0.127
    1UNL    H27   61  -0.318  -0.059   0.193
    1UNL    H28   62  -0.388  -0.103  -0.044
   0.00000   0.00000   0.00000   0.00000   0.00000   0.00000   0.00000   0.00000   0.00000
Generated with MDTraj, t= 55.0
 62
    1UNL     C1    1  -0.180  -0.433  -0.053
    1UNL     C2    2  -0.051  -0.357  -0.082
    1UNL     C3    3   0.077  -0.438  -0.057
    1UNL     C4    4   0.199  -0.341  -0.081
    1UNL     O1    5   0.318  -0.404  -0.030
    1UNL     O2    6   0.195  -0.310  -0.220
    1UNL     C5    7   0.073  -0.236  -0.241
    1UNL     O3    8  -0.041  -0.322  -0.223
    1UNL     C6    9   0.062  -0.141  -0.117
    1UNL     C7   10   0.069   0.010  -0.141
    1UNL     O4   11   0.202   0.063  -0.114
    1UNL     C8   12   0.216   0.093   0.019
    1UNL     O5   13   0.136   0.068   0.109
    1UNL     C9   14   0.322   0.186   0.051
    1UNL    C10   15   0.415   0.237  -0.047
    1UNL    C11   16   0.505   0.335  -0.012
    1UNL    C12   17   0.508   0.375   0.122
    1UNL    C13   18   0.433   0.317   0.221
    1UNL    C14   19   0.341   0.221   0.184
    1UNL    C15   20   0.169  -0.202  -0.014
    1UNL    C16   21   0.056  -0.203   0.096
    1UNL    C17   22  -0.044  -0.210  -0.019
    1UNL     O6   23  -0.177  -0.150  -0.002
    1UNL    C18   24  -0.182  -0.008   0.023
    1UNL     O7   25  -0.193   0.066  -0.098
    1UNL    C19   26  -0.204   0.214  -0.076
    1UNL    C20   27  -0.085   0.277   0.002
    1UNL     O8   28  -0.081   0.415  -0.014
    1UNL    C21   29  -0.335   0.244   0.007
    1UNL     O9   30  -0.347   0.387   0.029
    1UNL    C22   31  -0.348   0.156   0.139
    1UNL    O10   32  -0.481   0.151   0.187
    1UNL    C23   33  -0.307   0.013   0.108
    1UNL    O11   34  -0.416  -0.049   0.048
    1UNL     H1   35  -0.209  -0.435   0.053
    1UNL     H2   36  -0.262  -0.382  -0.098
    1UNL     H3   37  -0.187  -0.542  -0.078
    1UNL     H4   38   0.079  -0.499   0.026
    1UNL     H5   39   0.086  -0.507  -0.151
    1UNL     H6   40   0.345  -0.469  -0.096
    1UNL     H7   41   0.067  -0.180  -0.334
    1UNL     H8   42  -0.009   0.063  -0.078
    1UNL     H9   43   0.046   0.033  -0.245
    1UNL    H10   44   0.410   0.191  -0.147
    1UNL    H11   45   0.571   0.373  -0.092
    1UNL    H12   46   0.576   0.453   0.155
    1UNL    H13   47   0.437   0.350   0.323
    1UNL    H14   48   0.260   0.194   0.252
    1UNL    H15   49   0.266  -0.145  -0.004
    1UNL    H16   50   0.048  -0.294   0.162
    1UNL    H17   51   0.034  -0.110   0.138
    1UNL    H18   52  -0.089   0.029   0.075
    1UNL    H19   53  -0.221   0.247  -0.177
    1UNL    H20   54   0.016   0.252  -0.030
    1UNL    H21   55  -0.094   0.249   0.108
    1UNL    H22   56  -0.165   0.453  -0.031
    1UNL    H23   57  -0.435   0.220  -0.048
    1UNL    H24   58  -0.408   0.407   0.104
    1UNL    H25   59  -0.288   0.200   0.222
    1UNL    H26   60  -0.531   0.085   0.133
    1UNL    H27   61  -0.301  -0.034   0.205
    1UNL    H28   62  -0.382  -0.112  -0.012
   0.00000   0.00000   0.00000   0.00000   0.00000   0.00000   0.00000   0.00000   0.00000
Generated with MDTraj, t= 56.0
 62
    1UNL     C1    1  -0.202  -0.417  -0.077
    1UNL     C2    2  -0.064  -0.358  -0.098
    1UNL     C3    3   0.060  -0.444  -0.046
    1UNL     C4    4   0.193  -0.364  -0.073
    1UNL     O1    5   0.310  -0.422  -0.027
    1UNL     O2    6   0.193  -0.338  -0.212
    1UNL     C5    7   0.086  -0.254  -0.241
    1UNL     O3    8  -0.034  -0.332  -0.241
    1UNL     C6    9   0.068  -0.153  -0.123
    1UNL     C7   10   0.093  -0.002  -0.156
    1UNL     O4   11   0.219   0.070  -0.122
    1UNL     C8   12   0.224   0.115   0.006
    1UNL     O5   13   0.138   0.093   0.092
    1UNL     C9   14   0.338   0.202   0.043
    1UNL    C10   15   0.426   0.251  -0.046
    1UNL    C11   16   0.529   0.337  -0.002
    1UNL    C12   17   0.536   0.382   0.130
    1UNL    C13   18   0.441   0.333   0.221
    1UNL    C14   19   0.336   0.260   0.171
    1UNL    C15   20   0.162  -0.214  -0.016
    1UNL    C16   21   0.060  -0.198   0.095
    1UNL    C17   22  -0.051  -0.209  -0.026
    1UNL     O6   23  -0.179  -0.161  -0.005
    1UNL    C18   24  -0.186  -0.025   0.031
    1UNL     O7   25  -0.174   0.067  -0.079
    1UNL    C19   26  -0.196   0.207  -0.060
    1UNL    C20   27  -0.077   0.292   0.001
    1UNL     O8   28  -0.116   0.419   0.036
    1UNL    C21   29  -0.336   0.225   0.002
    1UNL     O9   30  -0.383   0.361   0.010
    1UNL    C22   31  -0.349   0.156   0.137
    1UNL    O10   32  -0.473   0.183   0.207
    1UNL    C23   33  -0.322   0.002   0.116
    1UNL    O11   34  -0.435  -0.041   0.039
    1UNL     H1   35  -0.203  -0.459   0.027
    1UNL     H2   36  -0.278  -0.342  -0.082
    1UNL     H3   37  -0.226  -0.503  -0.139
    1UNL     H4   38   0.049  -0.468   0.059
    1UNL     H5   39   0.056  -0.542  -0.092
    1UNL     H6   40   0.353  -0.446  -0.115
    1UNL     H7   41   0.115  -0.199  -0.329
    1UNL     H8   42   0.011   0.055  -0.098
    1UNL     H9   43   0.078   0.009  -0.264
    1UNL    H10   44   0.430   0.203  -0.139
    1UNL    H11   45   0.597   0.375  -0.073
    1UNL    H12   46   0.600   0.462   0.159
    1UNL    H13   47   0.446   0.381   0.317
    1UNL    H14   48   0.256   0.234   0.237
    1UNL    H15   49   0.264  -0.169   0.006
    1UNL    H16   50   0.062  -0.277   0.173
    1UNL    H17   51   0.060  -0.107   0.147
    1UNL    H18   52  -0.089   0.001   0.086
    1UNL    H19   53  -0.207   0.249  -0.161
    1UNL    H20   54   0.007   0.292  -0.066
    1UNL    H21   55  -0.050   0.241   0.094
    1UNL    H22   56  -0.217   0.433   0.048
    1UNL    H23   57  -0.417   0.172  -0.065
    1UNL    H24   58  -0.429   0.369   0.095
    1UNL    H25   59  -0.269   0.204   0.197
    1UNL    H26   60  -0.536   0.129   0.159
    1UNL    H27   61  -0.320  -0.048   0.208
    1UNL    H28   62  -0.416  -0.128  -0.014
   0.00000   0.00000   0.00000   0.00000   0.00000   0.00000   0.00000   0.00000   0.00000
Generated with MDTraj, t= 57.0
 62
    1UNL     C1    1  -0.200  -0.403  -0.073
    1UNL     C2    2  -0.054  -0.349  -0.095
    1UNL     C3    3   0.056  -0.446  -0.048
    1UNL     C4    4   0.191  -0.362  -0.067
    1UNL     O1    5   0.306  -0.434  -0.018
    1UNL     O2    6   0.196  -0.335  -0.211
    1UNL     C5    7   0.088  -0.250  -0.243
    1UNL     O3    8  -0.037  -0.323  -0.237
    1UNL     C6    9   0.091  -0.156  -0.118
    1UNL     C7   10   0.097  -0.003  -0.152
    1UNL     O4   11   0.216   0.055  -0.107
    1UNL     C8   12   0.197   0.114   0.015
    1UNL     O5   13   0.100   0.121   0.091
    1UNL     C9   14   0.317   0.196   0.049
    1UNL    C10   15   0.418   0.214  -0.044
    1UNL    C11   16   0.521   0.307  -0.023
    1UNL    C12   17   0.545   0.359   0.100
    1UNL    C13   18   0.437   0.347   0.196
    1UNL    C14   19   0.329   0.267   0.171
    1UNL    C15   20   0.181  -0.223  -0.002
    1UNL    C16   21   0.057  -0.212   0.099
    1UNL    C17   22  -0.033  -0.206  -0.027
    1UNL     O6   23  -0.158  -0.142  -0.021
    1UNL    C18   24  -0.165  -0.004   0.021
    1UNL     O7   25  -0.170   0.086  -0.089
    1UNL    C19   26  -0.213   0.221  -0.062
    1UNL    C20   27  -0.100   0.289   0.032
    1UNL     O8   28  -0.126   0.419   0.072
    1UNL    C21   29  -0.350   0.230   0.006
    1UNL     O9   30  -0.395   0.370   0.023
    1UNL    C22   31  -0.340   0.150   0.135
    1UNL    O10   32  -0.473   0.170   0.199
    1UNL    C23   33  -0.303   0.006   0.097
    1UNL    O11   34  -0.400  -0.054   0.015
    1UNL     H1   35  -0.230  -0.414   0.034
    1UNL     H2   36  -0.266  -0.329  -0.119
    1UNL     H3   37  -0.212  -0.500  -0.115
    1UNL     H4   38   0.045  -0.491   0.055
    1UNL     H5   39   0.059  -0.530  -0.104
    1UNL     H6   40   0.394  -0.396  -0.055
    1UNL     H7   41   0.107  -0.201  -0.337
    1UNL     H8   42   0.020   0.061  -0.115
    1UNL     H9   43   0.108   0.009  -0.260
    1UNL    H10   44   0.406   0.151  -0.134
    1UNL    H11   45   0.604   0.303  -0.099
    1UNL    H12   46   0.624   0.436   0.105
    1UNL    H13   47   0.440   0.387   0.298
    1UNL    H14   48   0.258   0.252   0.255
    1UNL    H15   49   0.282  -0.170   0.006
    1UNL    H16   50   0.035  -0.297   0.162
    1UNL    H17   51   0.062  -0.122   0.158
    1UNL    H18   52  -0.071   0.019   0.081
    1UNL    H19   53  -0.200   0.273  -0.161
    1UNL    H20   54  -0.010   0.283  -0.025
    1UNL    H21   55  -0.080   0.225   0.118
    1UNL    H22   56  -0.213   0.450   0.039
    1UNL    H23   57  -0.427   0.170  -0.059
    1UNL    H24   58  -0.445   0.374   0.107
    1UNL    H25   59  -0.263   0.196   0.199
    1UNL    H26   60  -0.526   0.092   0.166
    1UNL    H27   61  -0.299  -0.057   0.182
    1UNL    H28   62  -0.358  -0.115  -0.046
   0.00000   0.00000   0.00000   0.00000   0.00000   0.00000   0.00000   0.00000   0.00000
Generated with MDTraj, t= 58.0
 62
    1UNL     C1    1  -0.181  -0.434  -0.059
    1UNL     C2    2  -0.050  -0.361  -0.085
    1UNL     C3    3   0.072  -0.445  -0.038
    1UNL     C4    4   0.201  -0.350  -0.064
    1UNL     O1    5   0.311  -0.413   0.008
    1UNL     O2    6   0.204  -0.342  -0.213
    1UNL     C5    7   0.087  -0.258  -0.248
    1UNL     O3    8  -0.029  -0.335  -0.233
    1UNL     C6    9   0.072  -0.153  -0.128
    1UNL     C7   10   0.092   0.001  -0.161
    1UNL     O4   11   0.210   0.061  -0.111
    1UNL     C8   12   0.210   0.111   0.015
    1UNL     O5   13   0.117   0.098   0.094
    1UNL     C9   14   0.328   0.196   0.041
    1UNL    C10   15   0.440   0.196  -0.040
    1UNL    C11   16   0.549   0.275  -0.012
    1UNL    C12   17   0.547   0.355   0.102
    1UNL    C13   18   0.432   0.353   0.183
    1UNL    C14   19   0.320   0.274   0.153
    1UNL    C15   20   0.166  -0.208  -0.018
    1UNL    C16   21   0.054  -0.198   0.083
    1UNL    C17   22  -0.049  -0.208  -0.038
    1UNL     O6   23  -0.170  -0.127  -0.054
    1UNL    C18   24  -0.183  -0.000   0.015
    1UNL     O7   25  -0.181   0.107  -0.083
    1UNL    C19   26  -0.213   0.242  -0.047
    1UNL    C20   27  -0.098   0.308   0.028
    1UNL     O8   28  -0.119   0.447   0.068
    1UNL    C21   29  -0.345   0.242   0.022
    1UNL     O9   30  -0.381   0.371   0.066
    1UNL    C22   31  -0.357   0.143   0.137
    1UNL    O10   32  -0.494   0.137   0.184
    1UNL    C23   33  -0.319   0.002   0.095
    1UNL    O11   34  -0.409  -0.059   0.009
    1UNL     H1   35  -0.199  -0.436   0.049
    1UNL     H2   36  -0.266  -0.384  -0.110
    1UNL     H3   37  -0.166  -0.536  -0.086
    1UNL     H4   38   0.061  -0.474   0.069
    1UNL     H5   39   0.094  -0.540  -0.081
    1UNL     H6   40   0.339  -0.494  -0.049
    1UNL     H7   41   0.076  -0.201  -0.340
    1UNL     H8   42   0.019   0.062  -0.122
    1UNL     H9   43   0.102   0.014  -0.269
    1UNL    H10   44   0.439   0.117  -0.112
    1UNL    H11   45   0.624   0.280  -0.084
    1UNL    H12   46   0.635   0.403   0.135
    1UNL    H13   47   0.434   0.433   0.254
    1UNL    H14   48   0.245   0.260   0.225
    1UNL    H15   49   0.249  -0.138   0.015
    1UNL    H16   50   0.065  -0.284   0.143
    1UNL    H17   51   0.059  -0.102   0.139
    1UNL    H18   52  -0.097   0.012   0.089
    1UNL    H19   53  -0.212   0.299  -0.146
    1UNL    H20   54  -0.002   0.303  -0.023
    1UNL    H21   55  -0.074   0.251   0.118
    1UNL    H22   56  -0.215   0.456   0.073
    1UNL    H23   57  -0.423   0.215  -0.060
    1UNL    H24   58  -0.462   0.360   0.121
    1UNL    H25   59  -0.297   0.174   0.221
    1UNL    H26   60  -0.537   0.076   0.120
    1UNL    H27   61  -0.319  -0.061   0.184
    1UNL    H28   62  -0.368  -0.137  -0.039
   0.00000   0.00000   0.00000   0.00000   0.00000   0.00000   0.00000   0.00000   0.00000
Generated with MDTraj, t= 59.0
 62
    1UNL     C1    1  -0.188  -0.410  -0.064
    1UNL     C2    2  -0.050  -0.341  -0.083
    1UNL     C3    3   0.069  -0.421  -0.029
    1UNL     C4    4   0.204  -0.340  -0.045
    1UNL     O1    5   0.318  -0.395   0.009
    1UNL     O2    6   0.211  -0.323  -0.195
    1UNL     C5    7   0.098  -0.252  -0.233
    1UNL     O3    8  -0.016  -0.332  -0.220
    1UNL     C6    9   0.087  -0.139  -0.124
    1UNL     C7   10   0.087   0.007  -0.177
    1UNL     O4   11   0.210   0.068  -0.148
    1UNL     C8   12   0.221   0.110  -0.019
    1UNL     O5   13   0.123   0.108   0.055
    1UNL     C9   14   0.340   0.190   0.015
    1UNL    C10   15   0.466   0.175  -0.038
    1UNL    C11   16   0.568   0.245   0.017
    1UNL    C12   17   0.541   0.341   0.118
    1UNL    C13   18   0.418   0.351   0.174
    1UNL    C14   19   0.319   0.271   0.125
    1UNL    C15   20   0.175  -0.191   0.002
    1UNL    C16   21   0.045  -0.166   0.092
    1UNL    C17   22  -0.037  -0.190  -0.033
    1UNL     O6   23  -0.173  -0.140  -0.045
    1UNL    C18   24  -0.206  -0.016   0.013
    1UNL     O7   25  -0.194   0.084  -0.080
    1UNL    C19   26  -0.213   0.218  -0.031
    1UNL    C20   27  -0.096   0.274   0.048
    1UNL     O8   28  -0.097   0.419   0.052
    1UNL    C21   29  -0.354   0.232   0.033
    1UNL     O9   30  -0.366   0.358   0.086
    1UNL    C22   31  -0.367   0.125   0.149
    1UNL    O10   32  -0.498   0.128   0.201
    1UNL    C23   33  -0.348  -0.015   0.080
    1UNL    O11   34  -0.450  -0.020  -0.022
    1UNL     H1   35  -0.221  -0.441   0.032
    1UNL     H2   36  -0.261  -0.335  -0.101
    1UNL     H3   37  -0.190  -0.495  -0.133
    1UNL     H4   38   0.065  -0.448   0.075
    1UNL     H5   39   0.069  -0.528  -0.079
    1UNL     H6   40   0.355  -0.459  -0.059
    1UNL     H7   41   0.109  -0.218  -0.337
    1UNL     H8   42   0.009   0.055  -0.125
    1UNL     H9   43   0.078   0.007  -0.285
    1UNL    H10   44   0.477   0.113  -0.126
    1UNL    H11   45   0.666   0.238  -0.035
    1UNL    H12   46   0.622   0.413   0.137
    1UNL    H13   47   0.394   0.422   0.254
    1UNL    H14   48   0.215   0.295   0.159
    1UNL    H15   49   0.274  -0.133   0.002
    1UNL    H16   50   0.023  -0.235   0.168
    1UNL    H17   51   0.042  -0.065   0.138
    1UNL    H18   52  -0.126  -0.000   0.093
    1UNL    H19   53  -0.215   0.278  -0.128
    1UNL    H20   54   0.004   0.250   0.018
    1UNL    H21   55  -0.089   0.246   0.154
    1UNL    H22   56  -0.185   0.451   0.090
    1UNL    H23   57  -0.444   0.225  -0.038
    1UNL    H24   58  -0.456   0.364   0.127
    1UNL    H25   59  -0.303   0.127   0.235
    1UNL    H26   60  -0.552   0.107   0.124
    1UNL    H27   61  -0.355  -0.108   0.140
    1UNL    H28   62  -0.425  -0.091  -0.089
   0.00000   0.00000   0.00000   0.00000   0.00000   0.00000   0.00000   0.00000   0.00000
Generated with MDTraj, t= 60.0
 62
    1UNL     C1    1  -0.174  -0.437  -0.071
    1UNL     C2    2  -0.043  -0.364  -0.087
    1UNL     C3    3   0.083  -0.422  -0.015
    1UNL     C4    4   0.202  -0.324  -0.038
    1UNL     O1    5   0.326  -0.350   0.031
    1UNL     O2    6   0.222  -0.319  -0.183
    1UNL     C5    7   0.103  -0.261  -0.232
    1UNL     O3    8  -0.005  -0.357  -0.233
    1UNL     C6    9   0.061  -0.145  -0.125
    1UNL     C7   10   0.071   0.003  -0.172
    1UNL     O4   11   0.191   0.076  -0.150
    1UNL     C8   12   0.205   0.130  -0.022
    1UNL     O5   13   0.123   0.116   0.068
    1UNL     C9   14   0.331   0.200   0.012
    1UNL    C10   15   0.453   0.163  -0.044
    1UNL    C11   16   0.570   0.206   0.014
    1UNL    C12   17   0.557   0.304   0.112
    1UNL    C13   18   0.441   0.355   0.160
    1UNL    C14   19   0.324   0.302   0.108
    1UNL    C15   20   0.152  -0.178  -0.006
    1UNL    C16   21   0.035  -0.163   0.086
    1UNL    C17   22  -0.052  -0.208  -0.039
    1UNL     O6   23  -0.175  -0.147  -0.053
    1UNL    C18   24  -0.201  -0.013   0.005
    1UNL     O7   25  -0.190   0.096  -0.092
    1UNL    C19   26  -0.218   0.236  -0.037
    1UNL    C20   27  -0.101   0.277   0.050
    1UNL     O8   28  -0.109   0.407   0.098
    1UNL    C21   29  -0.348   0.240   0.044
    1UNL     O9   30  -0.353   0.359   0.118
    1UNL    C22   31  -0.369   0.120   0.143
    1UNL    O10   32  -0.501   0.138   0.187
    1UNL    C23   33  -0.346  -0.008   0.068
    1UNL    O11   34  -0.434  -0.024  -0.042
    1UNL     H1   35  -0.209  -0.427   0.028
    1UNL     H2   36  -0.258  -0.402  -0.131
    1UNL     H3   37  -0.159  -0.547  -0.085
    1UNL     H4   38   0.083  -0.460   0.085
    1UNL     H5   39   0.123  -0.515  -0.078
    1UNL     H6   40   0.378  -0.423  -0.008
    1UNL     H7   41   0.131  -0.220  -0.331
    1UNL     H8   42  -0.014   0.063  -0.138
    1UNL     H9   43   0.068  -0.002  -0.281
    1UNL    H10   44   0.447   0.086  -0.121
    1UNL    H11   45   0.669   0.174  -0.008
    1UNL    H12   46   0.653   0.346   0.139
    1UNL    H13   47   0.432   0.431   0.234
    1UNL    H14   48   0.233   0.320   0.156
    1UNL    H15   49   0.242  -0.110   0.010
    1UNL    H16   50   0.044  -0.238   0.163
    1UNL    H17   51   0.024  -0.062   0.122
    1UNL    H18   52  -0.130   0.003   0.089
    1UNL    H19   53  -0.235   0.287  -0.135
    1UNL    H20   54  -0.007   0.272  -0.001
    1UNL    H21   55  -0.094   0.210   0.137
    1UNL    H22   56  -0.198   0.420   0.123
    1UNL    H23   57  -0.437   0.259  -0.022
    1UNL    H24   58  -0.437   0.362   0.168
    1UNL    H25   59  -0.308   0.133   0.230
    1UNL    H26   60  -0.564   0.117   0.113
    1UNL    H27   61  -0.381  -0.092   0.138
    1UNL    H28   62  -0.389  -0.064  -0.114
   0.00000   0.00000   0.00000   0.00000   0.00000   0.00000   0.00000   0.00000   0.00000
Generated with MDTraj, t= 61.0
 62
    1UNL     C1    1  -0.168  -0.415  -0.057
    1UNL     C2    2  -0.035  -0.348  -0.081
    1UNL     C3    3   0.086  -0.417  -0.025
    1UNL     C4    4   0.208  -0.321  -0.035
    1UNL     O1    5   0.321  -0.372   0.042
    1UNL     O2    6   0.233  -0.300  -0.171
    1UNL     C5    7   0.116  -0.237  -0.227
    1UNL     O3    8  -0.002  -0.326  -0.214
    1UNL     C6    9   0.081  -0.131  -0.118
    1UNL     C7   10   0.075   0.013  -0.179
    1UNL     O4   11   0.194   0.084  -0.147
    1UNL     C8   12   0.196   0.121  -0.017
    1UNL     O5   13   0.112   0.105   0.069
    1UNL     C9   14   0.329   0.172   0.027
    1UNL    C10   15   0.444   0.119  -0.030
    1UNL    C11   16   0.563   0.184  -0.012
    1UNL    C12   17   0.574   0.298   0.066
    1UNL    C13   18   0.458   0.347   0.118
    1UNL    C14   19   0.337   0.282   0.109
    1UNL    C15   20   0.166  -0.173   0.008
    1UNL    C16   21   0.036  -0.173   0.095
    1UNL    C17   22  -0.042  -0.193  -0.035
    1UNL     O6   23  -0.170  -0.132  -0.066
    1UNL    C18   24  -0.205  -0.004  -0.012
    1UNL     O7   25  -0.187   0.113  -0.094
    1UNL    C19   26  -0.213   0.236  -0.022
    1UNL    C20   27  -0.106   0.279   0.081
    1UNL     O8   28  -0.109   0.417   0.113
    1UNL    C21   29  -0.359   0.234   0.033
    1UNL     O9   30  -0.388   0.356   0.105
    1UNL    C22   31  -0.382   0.113   0.134
    1UNL    O10   32  -0.516   0.109   0.189
    1UNL    C23   33  -0.349  -0.013   0.051
    1UNL    O11   34  -0.449  -0.029  -0.051
    1UNL     H1   35  -0.198  -0.423   0.047
    1UNL     H2   36  -0.247  -0.357  -0.097
    1UNL     H3   37  -0.175  -0.519  -0.095
    1UNL     H4   38   0.072  -0.451   0.081
    1UNL     H5   39   0.119  -0.502  -0.087
    1UNL     H6   40   0.396  -0.318   0.020
    1UNL     H7   41   0.121  -0.211  -0.337
    1UNL     H8   42   0.000   0.085  -0.122
    1UNL     H9   43   0.040   0.016  -0.283
    1UNL    H10   44   0.445   0.026  -0.081
    1UNL    H11   45   0.651   0.133  -0.047
    1UNL    H12   46   0.665   0.352   0.091
    1UNL    H13   47   0.474   0.433   0.181
    1UNL    H14   48   0.256   0.305   0.184
    1UNL    H15   49   0.250  -0.104   0.043
    1UNL    H16   50   0.017  -0.263   0.158
    1UNL    H17   51   0.009  -0.083   0.138
    1UNL    H18   52  -0.128   0.009   0.064
    1UNL    H19   53  -0.209   0.311  -0.101
    1UNL    H20   54  -0.011   0.265   0.032
    1UNL    H21   55  -0.117   0.216   0.173
    1UNL    H22   56  -0.198   0.442   0.155
    1UNL    H23   57  -0.434   0.216  -0.042
    1UNL    H24   58  -0.459   0.329   0.168
    1UNL    H25   59  -0.307   0.116   0.211
    1UNL    H26   60  -0.578   0.076   0.118
    1UNL    H27   61  -0.338  -0.109   0.117
    1UNL    H28   62  -0.409  -0.065  -0.129
   0.00000   0.00000   0.00000   0.00000   0.00000   0.00000   0.00000   0.00000   0.00000
Generated with MDTraj, t= 62.0
 62
    1UNL     C1    1  -0.173  -0.413  -0.094
    1UNL     C2    2  -0.042  -0.342  -0.090
    1UNL     C3    3   0.076  -0.416  -0.017
    1UNL     C4    4   0.207  -0.331  -0.031
    1UNL     O1    5   0.312  -0.375   0.053
    1UNL     O2    6   0.234  -0.311  -0.178
    1UNL     C5    7   0.108  -0.239  -0.229
    1UNL     O3    8  -0.001  -0.339  -0.230
    1UNL     C6    9   0.076  -0.133  -0.117
    1UNL     C7   10   0.087   0.012  -0.155
    1UNL     O4   11   0.209   0.081  -0.142
    1UNL     C8   12   0.220   0.131  -0.013
    1UNL     O5   13   0.142   0.128   0.080
    1UNL     C9   14   0.355   0.192   0.007
    1UNL    C10   15   0.468   0.130  -0.050
    1UNL    C11   16   0.596   0.181  -0.018
    1UNL    C12   17   0.614   0.288   0.059
    1UNL    C13   18   0.502   0.346   0.117
    1UNL    C14   19   0.377   0.297   0.095
    1UNL    C15   20   0.157  -0.173   0.007
    1UNL    C16   21   0.030  -0.164   0.095
    1UNL    C17   22  -0.054  -0.191  -0.034
    1UNL     O6   23  -0.183  -0.133  -0.043
    1UNL    C18   24  -0.212  -0.006   0.017
    1UNL     O7   25  -0.185   0.108  -0.069
    1UNL    C19   26  -0.225   0.231  -0.013
    1UNL    C20   27  -0.118   0.293   0.092
    1UNL     O8   28  -0.153   0.423   0.129
    1UNL    C21   29  -0.376   0.221   0.034
    1UNL     O9   30  -0.421   0.349   0.094
    1UNL    C22   31  -0.406   0.111   0.130
    1UNL    O10   32  -0.546   0.101   0.166
    1UNL    C23   33  -0.362  -0.017   0.059
    1UNL    O11   34  -0.438  -0.039  -0.057
    1UNL     H1   35  -0.222  -0.437   0.003
    1UNL     H2   36  -0.244  -0.357  -0.150
    1UNL     H3   37  -0.146  -0.507  -0.140
    1UNL     H4   38   0.052  -0.432   0.096
    1UNL     H5   39   0.081  -0.508  -0.063
    1UNL     H6   40   0.383  -0.394  -0.005
    1UNL     H7   41   0.119  -0.208  -0.338
    1UNL     H8   42   0.003   0.073  -0.098
    1UNL     H9   43   0.068   0.027  -0.262
    1UNL    H10   44   0.456   0.052  -0.130
    1UNL    H11   45   0.681   0.138  -0.071
    1UNL    H12   46   0.710   0.336   0.078
    1UNL    H13   47   0.511   0.427   0.190
    1UNL    H14   48   0.290   0.347   0.125
    1UNL    H15   49   0.250  -0.113   0.030
    1UNL    H16   50   0.023  -0.237   0.178
    1UNL    H17   51   0.023  -0.068   0.142
    1UNL    H18   52  -0.153   0.013   0.107
    1UNL    H19   53  -0.220   0.312  -0.082
    1UNL    H20   54  -0.021   0.292   0.044
    1UNL    H21   55  -0.126   0.229   0.183
    1UNL    H22   56  -0.248   0.445   0.110
    1UNL    H23   57  -0.433   0.211  -0.053
    1UNL    H24   58  -0.509   0.342   0.137
    1UNL    H25   59  -0.350   0.131   0.222
    1UNL    H26   60  -0.596   0.045   0.104
    1UNL    H27   61  -0.393  -0.091   0.143
    1UNL    H28   62  -0.379  -0.071  -0.136
   0.00000   0.00000   0.00000   0.00000   0.00000   0.00000   0.00000   0.00000   0.00000
Generated with MDTraj, t= 63.0
 62
    1UNL     C1    1  -0.187  -0.414  -0.086
    1UNL     C2    2  -0.048  -0.349  -0.088
    1UNL     C3    3   0.070  -0.422  -0.024
    1UNL     C4    4   0.197  -0.325  -0.035
    1UNL     O1    5   0.310  -0.388   0.034
    1UNL     O2    6   0.222  -0.301  -0.173
    1UNL     C5    7   0.104  -0.227  -0.218
    1UNL     O3    8  -0.005  -0.319  -0.222
    1UNL     C6    9   0.071  -0.122  -0.094
    1UNL     C7   10   0.081   0.026  -0.123
    1UNL     O4   11   0.215   0.062  -0.122
    1UNL     C8   12   0.247   0.150  -0.024
    1UNL     O5   13   0.168   0.198   0.052
    1UNL     C9   14   0.387   0.194  -0.004
    1UNL    C10   15   0.494   0.142  -0.073
    1UNL    C11   16   0.623   0.188  -0.042
    1UNL    C12   17   0.639   0.291   0.048
    1UNL    C13   18   0.531   0.334   0.124
    1UNL    C14   19   0.408   0.294   0.088
    1UNL    C15   20   0.151  -0.177   0.021
    1UNL    C16   21   0.022  -0.180   0.107
    1UNL    C17   22  -0.053  -0.194  -0.025
    1UNL     O6   23  -0.183  -0.137  -0.034
    1UNL    C18   24  -0.218  -0.011   0.024
    1UNL     O7   25  -0.182   0.099  -0.057
    1UNL    C19   26  -0.227   0.226  -0.006
    1UNL    C20   27  -0.151   0.272   0.126
    1UNL     O8   28  -0.179   0.404   0.150
    1UNL    C21   29  -0.380   0.221   0.022
    1UNL     O9   30  -0.426   0.343   0.079
    1UNL    C22   31  -0.424   0.107   0.115
    1UNL    O10   32  -0.565   0.114   0.126
    1UNL    C23   33  -0.375  -0.028   0.054
    1UNL    O11   34  -0.445  -0.061  -0.066
    1UNL     H1   35  -0.216  -0.425   0.021
    1UNL     H2   36  -0.256  -0.345  -0.132
    1UNL     H3   37  -0.177  -0.509  -0.131
    1UNL     H4   38   0.055  -0.455   0.082
    1UNL     H5   39   0.097  -0.505  -0.082
    1UNL     H6   40   0.350  -0.448  -0.027
    1UNL     H7   41   0.124  -0.180  -0.319
    1UNL     H8   42   0.033   0.098  -0.044
    1UNL     H9   43   0.031   0.058  -0.217
    1UNL    H10   44   0.492   0.082  -0.158
    1UNL    H11   45   0.711   0.169  -0.101
    1UNL    H12   46   0.737   0.321   0.080
    1UNL    H13   47   0.540   0.416   0.194
    1UNL    H14   48   0.318   0.345   0.129
    1UNL    H15   49   0.242  -0.110   0.034
    1UNL    H16   50   0.012  -0.262   0.172
    1UNL    H17   51  -0.006  -0.083   0.154
    1UNL    H18   52  -0.162  -0.004   0.118
    1UNL    H19   53  -0.194   0.297  -0.077
    1UNL    H20   54  -0.045   0.259   0.102
    1UNL    H21   55  -0.187   0.202   0.206
    1UNL    H22   56  -0.275   0.415   0.154
    1UNL    H23   57  -0.420   0.197  -0.070
    1UNL    H24   58  -0.517   0.332   0.116
    1UNL    H25   59  -0.369   0.119   0.212
    1UNL    H26   60  -0.614   0.046   0.075
    1UNL    H27   61  -0.372  -0.120   0.117
    1UNL    H28   62  -0.375  -0.094  -0.124
   0.00000   0.00000   0.00000   0.00000   0.00000   0.00000   0.00000   0.00000   0.00000
Generated with MDTraj, t= 64.0
 62
    1UNL     C1    1  -0.181  -0.418  -0.071
    1UNL     C2    2  -0.049  -0.338  -0.089
    1UNL     C3    3   0.067  -0.422  -0.033
    1UNL     C4    4   0.193  -0.323  -0.033
    1UNL     O1    5   0.305  -0.388   0.026
    1UNL     O2    6   0.219  -0.283  -0.167
    1UNL     C5    7   0.106  -0.220  -0.207
    1UNL     O3    8  -0.006  -0.309  -0.224
    1UNL     C6    9   0.067  -0.125  -0.082
    1UNL     C7   10   0.081   0.024  -0.111
    1UNL     O4   11   0.219   0.065  -0.091
    1UNL     C8   12   0.244   0.177  -0.014
    1UNL     O5   13   0.160   0.238   0.045
    1UNL     C9   14   0.387   0.208   0.002
    1UNL    C10   15   0.478   0.151  -0.086
    1UNL    C11   16   0.606   0.191  -0.089
    1UNL    C12   17   0.652   0.265   0.021
    1UNL    C13   18   0.565   0.322   0.103
    1UNL    C14   19   0.428   0.296   0.099
    1UNL    C15   20   0.156  -0.184   0.032
    1UNL    C16   21   0.030  -0.191   0.116
    1UNL    C17   22  -0.056  -0.199  -0.015
    1UNL     O6   23  -0.192  -0.152  -0.012
    1UNL    C18   24  -0.225  -0.023   0.032
    1UNL     O7   25  -0.173   0.083  -0.044
    1UNL    C19   26  -0.214   0.218   0.004
    1UNL    C20   27  -0.141   0.256   0.131
    1UNL     O8   28  -0.203   0.362   0.202
    1UNL    C21   29  -0.371   0.221   0.011
    1UNL     O9   30  -0.424   0.343   0.050
    1UNL    C22   31  -0.436   0.113   0.100
    1UNL    O10   32  -0.577   0.113   0.085
    1UNL    C23   33  -0.382  -0.023   0.048
    1UNL    O11   34  -0.432  -0.037  -0.082
    1UNL     H1   35  -0.195  -0.437   0.035
    1UNL     H2   36  -0.258  -0.345  -0.099
    1UNL     H3   37  -0.185  -0.508  -0.128
    1UNL     H4   38   0.054  -0.463   0.059
    1UNL     H5   39   0.099  -0.498  -0.107
    1UNL     H6   40   0.391  -0.347   0.000
    1UNL     H7   41   0.123  -0.172  -0.306
    1UNL     H8   42   0.034   0.086  -0.026
    1UNL     H9   43   0.029   0.063  -0.201
    1UNL    H10   44   0.437   0.089  -0.170
    1UNL    H11   45   0.676   0.131  -0.147
    1UNL    H12   46   0.756   0.276   0.048
    1UNL    H13   47   0.599   0.374   0.190
    1UNL    H14   48   0.348   0.330   0.160
    1UNL    H15   49   0.243  -0.126   0.076
    1UNL    H16   50   0.029  -0.277   0.174
    1UNL    H17   51   0.033  -0.095   0.179
    1UNL    H18   52  -0.187  -0.014   0.135
    1UNL    H19   53  -0.181   0.293  -0.068
    1UNL    H20   54  -0.035   0.286   0.108
    1UNL    H21   55  -0.130   0.170   0.204
    1UNL    H22   56  -0.288   0.381   0.146
    1UNL    H23   57  -0.402   0.205  -0.086
    1UNL    H24   58  -0.521   0.338   0.039
    1UNL    H25   59  -0.430   0.141   0.210
    1UNL    H26   60  -0.620   0.071   0.004
    1UNL    H27   61  -0.429  -0.104   0.101
    1UNL    H28   62  -0.362  -0.077  -0.143
   0.00000   0.00000   0.00000   0.00000   0.00000   0.00000   0.00000   0.00000   0.00000
Generated with MDTraj, t= 65.0
 62
    1UNL     C1    1  -0.165  -0.436  -0.086
    1UNL     C2    2  -0.041  -0.352  -0.084
    1UNL     C3    3   0.088  -0.425  -0.030
    1UNL     C4    4   0.204  -0.319  -0.023
    1UNL     O1    5   0.319  -0.370   0.029
    1UNL     O2    6   0.222  -0.269  -0.163
    1UNL     C5    7   0.098  -0.202  -0.200
    1UNL     O3    8  -0.006  -0.303  -0.223
    1UNL     C6    9   0.064  -0.125  -0.068
    1UNL     C7   10   0.071   0.024  -0.075
    1UNL     O4   11   0.201   0.069  -0.095
    1UNL     C8   12   0.230   0.183  -0.017
    1UNL     O5   13   0.154   0.232   0.063
    1UNL     C9   14   0.379   0.213  -0.010
    1UNL    C10   15   0.457   0.162  -0.115
    1UNL    C11   16   0.590   0.182  -0.113
    1UNL    C12   17   0.647   0.254  -0.005
    1UNL    C13   18   0.569   0.313   0.092
    1UNL    C14   19   0.432   0.296   0.085
    1UNL    C15   20   0.146  -0.194   0.049
    1UNL    C16   21   0.005  -0.208   0.127
    1UNL    C17   22  -0.063  -0.214  -0.008
    1UNL     O6   23  -0.194  -0.159  -0.020
    1UNL    C18   24  -0.223  -0.029   0.038
    1UNL     O7   25  -0.157   0.083  -0.020
    1UNL    C19   26  -0.200   0.211   0.035
    1UNL    C20   27  -0.163   0.228   0.182
    1UNL     O8   28  -0.211   0.356   0.230
    1UNL    C21   29  -0.355   0.227   0.001
    1UNL     O9   30  -0.397   0.361   0.025
    1UNL    C22   31  -0.437   0.124   0.076
    1UNL    O10   32  -0.572   0.140   0.055
    1UNL    C23   33  -0.383  -0.015   0.026
    1UNL    O11   34  -0.425  -0.039  -0.102
    1UNL     H1   35  -0.201  -0.468   0.008
    1UNL     H2   36  -0.243  -0.378  -0.137
    1UNL     H3   37  -0.142  -0.522  -0.148
    1UNL     H4   38   0.084  -0.460   0.068
    1UNL     H5   39   0.121  -0.502  -0.100
    1UNL     H6   40   0.391  -0.325  -0.028
    1UNL     H7   41   0.113  -0.149  -0.295
    1UNL     H8   42   0.018   0.081   0.006
    1UNL     H9   43   0.023   0.056  -0.170
    1UNL    H10   44   0.420   0.092  -0.182
    1UNL    H11   45   0.657   0.149  -0.191
    1UNL    H12   46   0.756   0.248  -0.001
    1UNL    H13   47   0.606   0.369   0.178
    1UNL    H14   48   0.362   0.337   0.160
    1UNL    H15   49   0.226  -0.126   0.090
    1UNL    H16   50  -0.000  -0.291   0.196
    1UNL    H17   51  -0.003  -0.117   0.187
    1UNL    H18   52  -0.202  -0.038   0.146
    1UNL    H19   53  -0.161   0.302  -0.017
    1UNL    H20   54  -0.053   0.232   0.209
    1UNL    H21   55  -0.189   0.153   0.262
    1UNL    H22   56  -0.294   0.367   0.189
    1UNL    H23   57  -0.366   0.211  -0.101
    1UNL    H24   58  -0.493   0.364   0.006
    1UNL    H25   59  -0.409   0.120   0.187
    1UNL    H26   60  -0.573   0.106  -0.035
    1UNL    H27   61  -0.419  -0.094   0.087
    1UNL    H28   62  -0.358  -0.092  -0.151
   0.00000   0.00000   0.00000   0.00000   0.00000   0.00000   0.00000   0.00000   0.00000
Generated with MDTraj, t= 66.0
 62
    1UNL     C1    1  -0.167  -0.418  -0.111
    1UNL     C2    2  -0.036  -0.340  -0.088
    1UNL     C3    3   0.085  -0.417  -0.027
    1UNL     C4    4   0.199  -0.311  -0.014
    1UNL     O1    5   0.308  -0.365   0.068
    1UNL     O2    6   0.229  -0.278  -0.148
    1UNL     C5    7   0.106  -0.203  -0.200
    1UNL     O3    8   0.003  -0.295  -0.214
    1UNL     C6    9   0.058  -0.114  -0.072
    1UNL     C7   10   0.057   0.036  -0.096
    1UNL     O4   11   0.187   0.080  -0.114
    1UNL     C8   12   0.235   0.161  -0.012
    1UNL     O5   13   0.168   0.185   0.084
    1UNL     C9   14   0.379   0.194  -0.020
    1UNL    C10   15   0.457   0.147  -0.124
    1UNL    C11   16   0.586   0.193  -0.131
    1UNL    C12   17   0.636   0.283  -0.038
    1UNL    C13   18   0.561   0.319   0.073
    1UNL    C14   19   0.429   0.276   0.079
    1UNL    C15   20   0.139  -0.175   0.046
    1UNL    C16   21   0.016  -0.194   0.132
    1UNL    C17   22  -0.064  -0.202  -0.005
    1UNL     O6   23  -0.204  -0.164   0.001
    1UNL    C18   24  -0.242  -0.037   0.054
    1UNL     O7   25  -0.160   0.065   0.009
    1UNL    C19   26  -0.192   0.199   0.057
    1UNL    C20   27  -0.158   0.225   0.199
    1UNL     O8   28  -0.207   0.348   0.256
    1UNL    C21   29  -0.340   0.232   0.012
    1UNL     O9   30  -0.390   0.360   0.057
    1UNL    C22   31  -0.437   0.117   0.059
    1UNL    O10   32  -0.567   0.153   0.001
    1UNL    C23   33  -0.389  -0.023   0.006
    1UNL    O11   34  -0.397  -0.038  -0.136
    1UNL     H1   35  -0.212  -0.459  -0.026
    1UNL     H2   36  -0.245  -0.362  -0.162
    1UNL     H3   37  -0.153  -0.503  -0.180
    1UNL     H4   38   0.066  -0.461   0.076
    1UNL     H5   39   0.127  -0.491  -0.091
    1UNL     H6   40   0.389  -0.303   0.057
    1UNL     H7   41   0.112  -0.126  -0.277
    1UNL     H8   42   0.030   0.076   0.004
    1UNL     H9   43  -0.021   0.073  -0.166
    1UNL    H10   44   0.407   0.100  -0.214
    1UNL    H11   45   0.649   0.164  -0.214
    1UNL    H12   46   0.728   0.332  -0.060
    1UNL    H13   47   0.597   0.384   0.151
    1UNL    H14   48   0.353   0.328   0.134
    1UNL    H15   49   0.217  -0.109   0.090
    1UNL    H16   50   0.003  -0.292   0.184
    1UNL    H17   51  -0.014  -0.121   0.200
    1UNL    H18   52  -0.240  -0.040   0.165
    1UNL    H19   53  -0.127   0.258  -0.016
    1UNL    H20   54  -0.048   0.209   0.215
    1UNL    H21   55  -0.193   0.138   0.260
    1UNL    H22   56  -0.288   0.368   0.200
    1UNL    H23   57  -0.342   0.231  -0.093
    1UNL    H24   58  -0.483   0.361   0.024
    1UNL    H25   59  -0.470   0.131   0.169
    1UNL    H26   60  -0.573   0.121  -0.094
    1UNL    H27   61  -0.449  -0.104   0.041
    1UNL    H28   62  -0.325  -0.099  -0.169
   0.00000   0.00000   0.00000   0.00000   0.00000   0.00000   0.00000   0.00000   0.00000
Generated with MDTraj, t= 67.0
 62
    1UNL     C1    1  -0.169  -0.428  -0.070
    1UNL     C2    2  -0.045  -0.342  -0.071
    1UNL     C3    3   0.077  -0.405   0.001
    1UNL     C4    4   0.198  -0.305   0.000
    1UNL     O1    5   0.308  -0.346   0.086
    1UNL     O2    6   0.230  -0.277  -0.140
    1UNL     C5    7   0.114  -0.219  -0.193
    1UNL     O3    8   0.007  -0.315  -0.212
    1UNL     C6    9   0.064  -0.119  -0.083
    1UNL     C7   10   0.065   0.032  -0.103
    1UNL     O4   11   0.193   0.082  -0.124
    1UNL     C8   12   0.248   0.126  -0.007
    1UNL     O5   13   0.212   0.104   0.107
    1UNL     C9   14   0.381   0.193  -0.029
    1UNL    C10   15   0.462   0.161  -0.136
    1UNL    C11   16   0.590   0.213  -0.154
    1UNL    C12   17   0.636   0.305  -0.061
    1UNL    C13   18   0.558   0.335   0.054
    1UNL    C14   19   0.432   0.280   0.070
    1UNL    C15   20   0.139  -0.165   0.049
    1UNL    C16   21   0.003  -0.165   0.125
    1UNL    C17   22  -0.066  -0.194  -0.016
    1UNL     O6   23  -0.193  -0.142  -0.060
    1UNL    C18   24  -0.251  -0.044   0.027
    1UNL     O7   25  -0.165   0.073   0.018
    1UNL    C19   26  -0.210   0.191   0.087
    1UNL    C20   27  -0.200   0.195   0.240
    1UNL     O8   28  -0.192   0.327   0.278
    1UNL    C21   29  -0.351   0.234   0.027
    1UNL     O9   30  -0.395   0.360   0.082
    1UNL    C22   31  -0.449   0.117   0.041
    1UNL    O10   32  -0.575   0.147  -0.016
    1UNL    C23   33  -0.396  -0.012  -0.022
    1UNL    O11   34  -0.390   0.011  -0.161
    1UNL     H1   35  -0.199  -0.453   0.031
    1UNL     H2   36  -0.254  -0.393  -0.123
    1UNL     H3   37  -0.148  -0.523  -0.120
    1UNL     H4   38   0.058  -0.436   0.112
    1UNL     H5   39   0.110  -0.492  -0.049
    1UNL     H6   40   0.398  -0.324   0.044
    1UNL     H7   41   0.136  -0.180  -0.292
    1UNL     H8   42   0.019   0.088  -0.022
    1UNL     H9   43   0.016   0.049  -0.202
    1UNL    H10   44   0.419   0.108  -0.213
    1UNL    H11   45   0.646   0.170  -0.235
    1UNL    H12   46   0.741   0.332  -0.047
    1UNL    H13   47   0.595   0.413   0.119
    1UNL    H14   48   0.368   0.304   0.154
    1UNL    H15   49   0.216  -0.096   0.090
    1UNL    H16   50  -0.012  -0.256   0.190
    1UNL    H17   51  -0.025  -0.076   0.172
    1UNL    H18   52  -0.239  -0.090   0.127
    1UNL    H19   53  -0.143   0.272   0.049
    1UNL    H20   54  -0.116   0.135   0.278
    1UNL    H21   55  -0.290   0.158   0.291
    1UNL    H22   56  -0.245   0.382   0.215
    1UNL    H23   57  -0.324   0.253  -0.076
    1UNL    H24   58  -0.487   0.370   0.052
    1UNL    H25   59  -0.459   0.101   0.153
    1UNL    H26   60  -0.569   0.138  -0.111
    1UNL    H27   61  -0.459  -0.102  -0.014
    1UNL    H28   62  -0.317  -0.046  -0.192
   0.00000   0.00000   0.00000   0.00000   0.00000   0.00000   0.00000   0.00000   0.00000
Generated with MDTraj, t= 68.0
 62
    1UNL     C1    1  -0.164  -0.431  -0.067
    1UNL     C2    2  -0.038  -0.348  -0.067
    1UNL     C3    3   0.070  -0.407   0.020
    1UNL     C4    4   0.189  -0.308   0.024
    1UNL     O1    5   0.290  -0.346   0.112
    1UNL     O2    6   0.233  -0.289  -0.118
    1UNL     C5    7   0.125  -0.228  -0.178
    1UNL     O3    8   0.017  -0.325  -0.199
    1UNL     C6    9   0.070  -0.129  -0.076
    1UNL     C7   10   0.071   0.018  -0.127
    1UNL     O4   11   0.208   0.060  -0.155
    1UNL     C8   12   0.264   0.108  -0.039
    1UNL     O5   13   0.216   0.096   0.072
    1UNL     C9   14   0.399   0.168  -0.044
    1UNL    C10   15   0.477   0.162  -0.157
    1UNL    C11   16   0.591   0.246  -0.172
    1UNL    C12   17   0.623   0.338  -0.075
    1UNL    C13   18   0.543   0.340   0.043
    1UNL    C14   19   0.442   0.248   0.060
    1UNL    C15   20   0.138  -0.161   0.059
    1UNL    C16   21  -0.007  -0.157   0.127
    1UNL    C17   22  -0.064  -0.195  -0.020
    1UNL     O6   23  -0.189  -0.137  -0.065
    1UNL    C18   24  -0.242  -0.028   0.005
    1UNL     O7   25  -0.160   0.093   0.019
    1UNL    C19   26  -0.217   0.201   0.096
    1UNL    C20   27  -0.215   0.176   0.248
    1UNL     O8   28  -0.258   0.288   0.313
    1UNL    C21   29  -0.360   0.247   0.051
    1UNL     O9   30  -0.418   0.348   0.133
    1UNL    C22   31  -0.450   0.121   0.040
    1UNL    O10   32  -0.568   0.164  -0.029
    1UNL    C23   33  -0.375   0.011  -0.047
    1UNL    O11   34  -0.357   0.063  -0.177
    1UNL     H1   35  -0.210  -0.430   0.034
    1UNL     H2   36  -0.228  -0.394  -0.141
    1UNL     H3   37  -0.146  -0.533  -0.097
    1UNL     H4   38   0.049  -0.444   0.123
    1UNL     H5   39   0.108  -0.498  -0.036
    1UNL     H6   40   0.375  -0.320   0.071
    1UNL     H7   41   0.164  -0.195  -0.274
    1UNL     H8   42   0.028   0.078  -0.050
    1UNL     H9   43   0.019   0.032  -0.222
    1UNL    H10   44   0.446   0.086  -0.234
    1UNL    H11   45   0.663   0.231  -0.253
    1UNL    H12   46   0.725   0.374  -0.074
    1UNL    H13   47   0.572   0.407   0.123
    1UNL    H14   48   0.383   0.258   0.150
    1UNL    H15   49   0.209  -0.089   0.110
    1UNL    H16   50  -0.027  -0.237   0.198
    1UNL    H17   51  -0.029  -0.058   0.168
    1UNL    H18   52  -0.256  -0.050   0.112
    1UNL    H19   53  -0.158   0.294   0.090
    1UNL    H20   54  -0.113   0.166   0.279
    1UNL    H21   55  -0.271   0.088   0.276
    1UNL    H22   56  -0.348   0.315   0.293
    1UNL    H23   57  -0.343   0.280  -0.052
    1UNL    H24   58  -0.515   0.333   0.122
    1UNL    H25   59  -0.477   0.070   0.135
    1UNL    H26   60  -0.546   0.158  -0.123
    1UNL    H27   61  -0.453  -0.071  -0.051
    1UNL    H28   62  -0.281   0.024  -0.216
   0.00000   0.00000   0.00000   0.00000   0.00000   0.00000   0.00000   0.00000   0.00000
Generated with MDTraj, t= 69.0
 62
    1UNL     C1    1  -0.191  -0.388  -0.081
    1UNL     C2    2  -0.044  -0.338  -0.061
    1UNL     C3    3   0.045  -0.411   0.041
    1UNL     C4    4   0.171  -0.325   0.052
    1UNL     O1    5   0.262  -0.368   0.160
    1UNL     O2    6   0.227  -0.329  -0.076
    1UNL     C5    7   0.135  -0.256  -0.168
    1UNL     O3    8   0.023  -0.336  -0.187
    1UNL     C6    9   0.088  -0.134  -0.080
    1UNL     C7   10   0.082   0.008  -0.141
    1UNL     O4   11   0.209   0.069  -0.160
    1UNL     C8   12   0.252   0.138  -0.054
    1UNL     O5   13   0.197   0.139   0.054
    1UNL     C9   14   0.384   0.199  -0.066
    1UNL    C10   15   0.452   0.204  -0.190
    1UNL    C11   16   0.584   0.253  -0.197
    1UNL    C12   17   0.642   0.321  -0.088
    1UNL    C13   18   0.573   0.331   0.029
    1UNL    C14   19   0.447   0.270   0.040
    1UNL    C15   20   0.136  -0.163   0.062
    1UNL    C16   21   0.002  -0.140   0.117
    1UNL    C17   22  -0.049  -0.184  -0.028
    1UNL     O6   23  -0.158  -0.110  -0.090
    1UNL    C18   24  -0.231  -0.023  -0.008
    1UNL     O7   25  -0.147   0.091   0.037
    1UNL    C19   26  -0.216   0.181   0.128
    1UNL    C20   27  -0.235   0.128   0.271
    1UNL     O8   28  -0.281   0.224   0.363
    1UNL    C21   29  -0.352   0.234   0.068
    1UNL     O9   30  -0.423   0.336   0.136
    1UNL    C22   31  -0.440   0.115   0.026
    1UNL    O10   32  -0.557   0.163  -0.036
    1UNL    C23   33  -0.361   0.027  -0.077
    1UNL    O11   34  -0.333   0.092  -0.203
    1UNL     H1   35  -0.243  -0.387   0.017
    1UNL     H2   36  -0.241  -0.331  -0.156
    1UNL     H3   37  -0.189  -0.488  -0.119
    1UNL     H4   38   0.001  -0.420   0.138
    1UNL     H5   39   0.079  -0.521   0.013
    1UNL     H6   40   0.352  -0.344   0.135
    1UNL     H7   41   0.181  -0.219  -0.261
    1UNL     H8   42   0.029   0.074  -0.075
    1UNL     H9   43   0.030  -0.011  -0.234
    1UNL    H10   44   0.397   0.169  -0.271
    1UNL    H11   45   0.638   0.230  -0.285
    1UNL    H12   46   0.734   0.375  -0.103
    1UNL    H13   47   0.616   0.373   0.116
    1UNL    H14   48   0.393   0.303   0.126
    1UNL    H15   49   0.224  -0.101   0.094
    1UNL    H16   50  -0.026  -0.200   0.196
    1UNL    H17   51  -0.022  -0.032   0.139
    1UNL    H18   52  -0.251  -0.071   0.088
    1UNL    H19   53  -0.152   0.266   0.135
    1UNL    H20   54  -0.135   0.092   0.291
    1UNL    H21   55  -0.297   0.043   0.256
    1UNL    H22   56  -0.354   0.275   0.309
    1UNL    H23   57  -0.309   0.282  -0.025
    1UNL    H24   58  -0.512   0.336   0.093
    1UNL    H25   59  -0.464   0.062   0.118
    1UNL    H26   60  -0.539   0.186  -0.133
    1UNL    H27   61  -0.422  -0.069  -0.097
    1UNL    H28   62  -0.254   0.030  -0.227
   0.00000   0.00000   0.00000   0.00000   0.00000   0.00000   0.00000   0.00000   0.00000
Generated with MDTraj, t= 70.0
 62
    1UNL     C1    1  -0.201  -0.380  -0.077
    1UNL     C2    2  -0.059  -0.327  -0.053
    1UNL     C3    3   0.031  -0.391   0.053
    1UNL     C4    4   0.173  -0.316   0.070
    1UNL     O1    5   0.244  -0.355   0.185
    1UNL     O2    6   0.236  -0.338  -0.066
    1UNL     C5    7   0.142  -0.270  -0.157
    1UNL     O3    8   0.020  -0.344  -0.179
    1UNL     C6    9   0.092  -0.139  -0.080
    1UNL     C7   10   0.102   0.000  -0.146
    1UNL     O4   11   0.237   0.047  -0.150
    1UNL     C8   12   0.257   0.144  -0.060
    1UNL     O5   13   0.183   0.166   0.038
    1UNL     C9   14   0.395   0.207  -0.078
    1UNL    C10   15   0.448   0.222  -0.205
    1UNL    C11   16   0.574   0.271  -0.226
    1UNL    C12   17   0.645   0.323  -0.112
    1UNL    C13   18   0.587   0.319   0.011
    1UNL    C14   19   0.458   0.269   0.030
    1UNL    C15   20   0.140  -0.159   0.071
    1UNL    C16   21  -0.008  -0.124   0.108
    1UNL    C17   22  -0.052  -0.172  -0.027
    1UNL     O6   23  -0.155  -0.105  -0.098
    1UNL    C18   24  -0.240  -0.024  -0.012
    1UNL     O7   25  -0.160   0.083   0.044
    1UNL    C19   26  -0.227   0.156   0.150
    1UNL    C20   27  -0.255   0.071   0.279
    1UNL     O8   28  -0.309   0.155   0.384
    1UNL    C21   29  -0.349   0.236   0.076
    1UNL     O9   30  -0.422   0.320   0.162
    1UNL    C22   31  -0.437   0.129   0.007
    1UNL    O10   32  -0.533   0.194  -0.071
    1UNL    C23   33  -0.352   0.037  -0.086
    1UNL    O11   34  -0.314   0.113  -0.198
    1UNL     H1   35  -0.262  -0.379   0.013
    1UNL     H2   36  -0.244  -0.324  -0.161
    1UNL     H3   37  -0.182  -0.477  -0.115
    1UNL     H4   38  -0.021  -0.404   0.146
    1UNL     H5   39   0.052  -0.500   0.023
    1UNL     H6   40   0.333  -0.333   0.162
    1UNL     H7   41   0.177  -0.248  -0.260
    1UNL     H8   42   0.032   0.066  -0.095
    1UNL     H9   43   0.078  -0.012  -0.251
    1UNL    H10   44   0.380   0.191  -0.286
    1UNL    H11   45   0.623   0.278  -0.324
    1UNL    H12   46   0.745   0.362  -0.125
    1UNL    H13   47   0.641   0.380   0.086
    1UNL    H14   48   0.415   0.276   0.132
    1UNL    H15   49   0.224  -0.088   0.087
    1UNL    H16   50  -0.059  -0.173   0.185
    1UNL    H17   51  -0.022  -0.013   0.109
    1UNL    H18   52  -0.264  -0.078   0.080
    1UNL    H19   53  -0.161   0.236   0.176
    1UNL    H20   54  -0.169   0.013   0.312
    1UNL    H21   55  -0.325  -0.007   0.255
    1UNL    H22   56  -0.347   0.233   0.346
    1UNL    H23   57  -0.301   0.305  -0.003
    1UNL    H24   58  -0.481   0.379   0.112
    1UNL    H25   59  -0.491   0.069   0.079
    1UNL    H26   60  -0.500   0.238  -0.150
    1UNL    H27   61  -0.428  -0.039  -0.128
    1UNL    H28   62  -0.233   0.086  -0.245
   0.00000   0.00000   0.00000   0.00000   0.00000   0.00000   0.00000   0.00000   0.00000
Generated with MDTraj, t= 71.0
 62
    1UNL     C1    1  -0.184  -0.404  -0.041
    1UNL     C2    2  -0.053  -0.330  -0.044
    1UNL     C3    3   0.039  -0.397   0.062
    1UNL     C4    4   0.173  -0.318   0.070
    1UNL     O1    5   0.257  -0.360   0.177
    1UNL     O2    6   0.231  -0.323  -0.065
    1UNL     C5    7   0.137  -0.263  -0.149
    1UNL     O3    8   0.017  -0.349  -0.159
    1UNL     C6    9   0.078  -0.138  -0.072
    1UNL     C7   10   0.094   0.000  -0.137
    1UNL     O4   11   0.234   0.036  -0.163
    1UNL     C8   12   0.284   0.134  -0.079
    1UNL     O5   13   0.216   0.175   0.016
    1UNL     C9   14   0.416   0.193  -0.095
    1UNL    C10   15   0.480   0.208  -0.221
    1UNL    C11   16   0.579   0.301  -0.234
    1UNL    C12   17   0.637   0.357  -0.123
    1UNL    C13   18   0.588   0.328   0.002
    1UNL    C14   19   0.484   0.237   0.020
    1UNL    C15   20   0.134  -0.159   0.069
    1UNL    C16   21  -0.007  -0.124   0.123
    1UNL    C17   22  -0.063  -0.176  -0.022
    1UNL     O6   23  -0.163  -0.108  -0.098
    1UNL    C18   24  -0.245  -0.016  -0.019
    1UNL     O7   25  -0.167   0.079   0.056
    1UNL    C19   26  -0.242   0.150   0.161
    1UNL    C20   27  -0.306   0.059   0.259
    1UNL     O8   28  -0.349   0.131   0.372
    1UNL    C21   29  -0.358   0.235   0.097
    1UNL     O9   30  -0.447   0.287   0.195
    1UNL    C22   31  -0.442   0.145  -0.002
    1UNL    O10   32  -0.514   0.232  -0.082
    1UNL    C23   33  -0.350   0.060  -0.105
    1UNL    O11   34  -0.283   0.145  -0.196
    1UNL     H1   35  -0.242  -0.365   0.039
    1UNL     H2   36  -0.235  -0.380  -0.136
    1UNL     H3   37  -0.181  -0.511  -0.043
    1UNL     H4   38  -0.023  -0.405   0.154
    1UNL     H5   39   0.061  -0.498   0.038
    1UNL     H6   40   0.344  -0.349   0.147
    1UNL     H7   41   0.183  -0.231  -0.246
    1UNL     H8   42   0.052   0.080  -0.074
    1UNL     H9   43   0.044   0.005  -0.235
    1UNL    H10   44   0.429   0.162  -0.304
    1UNL    H11   45   0.624   0.309  -0.330
    1UNL    H12   46   0.729   0.410  -0.144
    1UNL    H13   47   0.633   0.356   0.093
    1UNL    H14   48   0.441   0.225   0.115
    1UNL    H15   49   0.207  -0.086   0.109
    1UNL    H16   50  -0.035  -0.190   0.205
    1UNL    H17   51  -0.014  -0.021   0.139
    1UNL    H18   52  -0.305  -0.083   0.046
    1UNL    H19   53  -0.174   0.219   0.209
    1UNL    H20   54  -0.237  -0.021   0.291
    1UNL    H21   55  -0.389  -0.009   0.232
    1UNL    H22   56  -0.422   0.202   0.353
    1UNL    H23   57  -0.316   0.326   0.039
    1UNL    H24   58  -0.520   0.330   0.146
    1UNL    H25   59  -0.506   0.076   0.049
    1UNL    H26   60  -0.461   0.271  -0.157
    1UNL    H27   61  -0.410  -0.022  -0.151
    1UNL    H28   62  -0.202   0.102  -0.231
   0.00000   0.00000   0.00000   0.00000   0.00000   0.00000   0.00000   0.00000   0.00000
Generated with MDTraj, t= 72.0
 62
    1UNL     C1    1  -0.195  -0.378  -0.044
    1UNL     C2    2  -0.051  -0.327  -0.033
    1UNL     C3    3   0.042  -0.386   0.071
    1UNL     C4    4   0.172  -0.301   0.063
    1UNL     O1    5   0.262  -0.343   0.167
    1UNL     O2    6   0.226  -0.323  -0.071
    1UNL     C5    7   0.132  -0.259  -0.156
    1UNL     O3    8   0.013  -0.341  -0.164
    1UNL     C6    9   0.092  -0.129  -0.081
    1UNL     C7   10   0.105   0.006  -0.152
    1UNL     O4   11   0.236   0.045  -0.176
    1UNL     C8   12   0.282   0.121  -0.070
    1UNL     O5   13   0.240   0.112   0.048
    1UNL     C9   14   0.401   0.210  -0.098
    1UNL    C10   15   0.455   0.218  -0.224
    1UNL    C11   16   0.577   0.277  -0.246
    1UNL    C12   17   0.652   0.330  -0.145
    1UNL    C13   18   0.605   0.315  -0.012
    1UNL    C14   19   0.477   0.263   0.004
    1UNL    C15   20   0.148  -0.144   0.066
    1UNL    C16   21   0.007  -0.109   0.109
    1UNL    C17   22  -0.046  -0.162  -0.017
    1UNL     O6   23  -0.143  -0.096  -0.091
    1UNL    C18   24  -0.241  -0.024  -0.001
    1UNL     O7   25  -0.186   0.063   0.092
    1UNL    C19   26  -0.276   0.137   0.181
    1UNL    C20   27  -0.338   0.047   0.281
    1UNL     O8   28  -0.397   0.114   0.386
    1UNL    C21   29  -0.371   0.222   0.095
    1UNL     O9   30  -0.466   0.295   0.173
    1UNL    C22   31  -0.439   0.139  -0.015
    1UNL    O10   32  -0.502   0.225  -0.105
    1UNL    C23   33  -0.332   0.066  -0.098
    1UNL    O11   34  -0.243   0.153  -0.165
    1UNL     H1   35  -0.236  -0.374   0.052
    1UNL     H2   36  -0.267  -0.326  -0.110
    1UNL     H3   37  -0.204  -0.481  -0.079
    1UNL     H4   38  -0.002  -0.391   0.175
    1UNL     H5   39   0.068  -0.482   0.050
    1UNL     H6   40   0.350  -0.324   0.141
    1UNL     H7   41   0.198  -0.244  -0.246
    1UNL     H8   42   0.061   0.095  -0.103
    1UNL     H9   43   0.053  -0.003  -0.251
    1UNL    H10   44   0.408   0.167  -0.305
    1UNL    H11   45   0.608   0.295  -0.348
    1UNL    H12   46   0.753   0.360  -0.164
    1UNL    H13   47   0.673   0.358   0.061
    1UNL    H14   48   0.431   0.257   0.105
    1UNL    H15   49   0.236  -0.079   0.079
    1UNL    H16   50  -0.033  -0.166   0.195
    1UNL    H17   51  -0.014  -0.009   0.115
    1UNL    H18   52  -0.318  -0.095   0.035
    1UNL    H19   53  -0.210   0.212   0.230
    1UNL    H20   54  -0.277  -0.036   0.322
    1UNL    H21   55  -0.411  -0.016   0.228
    1UNL    H22   56  -0.433   0.187   0.337
    1UNL    H23   57  -0.307   0.306   0.045
    1UNL    H24   58  -0.539   0.324   0.115
    1UNL    H25   59  -0.514   0.078   0.029
    1UNL    H26   60  -0.444   0.270  -0.169
    1UNL    H27   61  -0.387   0.003  -0.169
    1UNL    H28   62  -0.158   0.105  -0.191
   0.00000   0.00000   0.00000   0.00000   0.00000   0.00000   0.00000   0.00000   0.00000
Generated with MDTraj, t= 73.0
 62
    1UNL     C1    1  -0.193  -0.352  -0.030
    1UNL     C2    2  -0.045  -0.308  -0.033
    1UNL     C3    3   0.056  -0.377   0.068
    1UNL     C4    4   0.196  -0.309   0.059
    1UNL     O1    5   0.285  -0.350   0.155
    1UNL     O2    6   0.240  -0.327  -0.082
    1UNL     C5    7   0.139  -0.259  -0.164
    1UNL     O3    8   0.017  -0.339  -0.164
    1UNL     C6    9   0.104  -0.129  -0.077
    1UNL     C7   10   0.110   0.006  -0.151
    1UNL     O4   11   0.231   0.065  -0.179
    1UNL     C8   12   0.289   0.118  -0.068
    1UNL     O5   13   0.235   0.118   0.045
    1UNL     C9   14   0.428   0.170  -0.096
    1UNL    C10   15   0.475   0.179  -0.226
    1UNL    C11   16   0.578   0.263  -0.258
    1UNL    C12   17   0.645   0.330  -0.165
    1UNL    C13   18   0.609   0.310  -0.031
    1UNL    C14   19   0.498   0.239   0.004
    1UNL    C15   20   0.168  -0.154   0.066
    1UNL    C16   21   0.032  -0.105   0.124
    1UNL    C17   22  -0.036  -0.150  -0.008
    1UNL     O6   23  -0.129  -0.072  -0.082
    1UNL    C18   24  -0.240  -0.013   0.001
    1UNL     O7   25  -0.192   0.054   0.111
    1UNL    C19   26  -0.297   0.121   0.192
    1UNL    C20   27  -0.382   0.035   0.290
    1UNL     O8   28  -0.476   0.103   0.371
    1UNL    C21   29  -0.382   0.220   0.103
    1UNL     O9   30  -0.483   0.305   0.162
    1UNL    C22   31  -0.448   0.142  -0.012
    1UNL    O10   32  -0.510   0.232  -0.101
    1UNL    C23   33  -0.332   0.073  -0.085
    1UNL    O11   34  -0.256   0.167  -0.164
    1UNL     H1   35  -0.241  -0.345   0.065
    1UNL     H2   36  -0.249  -0.290  -0.098
    1UNL     H3   37  -0.213  -0.451  -0.072
    1UNL     H4   38   0.013  -0.364   0.167
    1UNL     H5   39   0.057  -0.482   0.046
    1UNL     H6   40   0.371  -0.316   0.134
    1UNL     H7   41   0.161  -0.242  -0.272
    1UNL     H8   42   0.059   0.081  -0.086
    1UNL     H9   43   0.050   0.006  -0.247
    1UNL    H10   44   0.412   0.136  -0.307
    1UNL    H11   45   0.600   0.266  -0.364
    1UNL    H12   46   0.702   0.423  -0.189
    1UNL    H13   47   0.665   0.362   0.046
    1UNL    H14   48   0.449   0.244   0.095
    1UNL    H15   49   0.255  -0.095   0.095
    1UNL    H16   50  -0.000  -0.150   0.214
    1UNL    H17   51   0.013   0.001   0.125
    1UNL    H18   52  -0.284  -0.108   0.036
    1UNL    H19   53  -0.244   0.191   0.266
    1UNL    H20   54  -0.307  -0.017   0.358
    1UNL    H21   55  -0.435  -0.056   0.255
    1UNL    H22   56  -0.515   0.173   0.307
    1UNL    H23   57  -0.303   0.291   0.052
    1UNL    H24   58  -0.548   0.333   0.093
    1UNL    H25   59  -0.519   0.069   0.021
    1UNL    H26   60  -0.448   0.291  -0.152
    1UNL    H27   61  -0.370   0.009  -0.160
    1UNL    H28   62  -0.170   0.144  -0.202
   0.00000   0.00000   0.00000   0.00000   0.00000   0.00000   0.00000   0.00000   0.00000
Generated with MDTraj, t= 74.0
 62
    1UNL     C1    1  -0.193  -0.372  -0.010
    1UNL     C2    2  -0.054  -0.306  -0.021
    1UNL     C3    3   0.056  -0.376   0.073
    1UNL     C4    4   0.189  -0.299   0.056
    1UNL     O1    5   0.287  -0.339   0.147
    1UNL     O2    6   0.226  -0.312  -0.084
    1UNL     C5    7   0.120  -0.244  -0.165
    1UNL     O3    8   0.001  -0.324  -0.151
    1UNL     C6    9   0.088  -0.116  -0.081
    1UNL     C7   10   0.118   0.019  -0.150
    1UNL     O4   11   0.251   0.036  -0.178
    1UNL     C8   12   0.318   0.118  -0.087
    1UNL     O5   13   0.267   0.137   0.024
    1UNL     C9   14   0.445   0.190  -0.116
    1UNL    C10   15   0.505   0.191  -0.243
    1UNL    C11   16   0.628   0.256  -0.263
    1UNL    C12   17   0.693   0.314  -0.160
    1UNL    C13   18   0.633   0.314  -0.035
    1UNL    C14   19   0.509   0.260  -0.016
    1UNL    C15   20   0.155  -0.138   0.059
    1UNL    C16   21   0.019  -0.106   0.132
    1UNL    C17   22  -0.047  -0.147  -0.008
    1UNL     O6   23  -0.152  -0.077  -0.068
    1UNL    C18   24  -0.248  -0.027   0.022
    1UNL     O7   25  -0.206   0.066   0.122
    1UNL    C19   26  -0.312   0.127   0.201
    1UNL    C20   27  -0.401   0.017   0.254
    1UNL     O8   28  -0.511   0.071   0.328
    1UNL    C21   29  -0.390   0.223   0.113
    1UNL     O9   30  -0.488   0.296   0.183
    1UNL    C22   31  -0.450   0.139  -0.005
    1UNL    O10   32  -0.515   0.223  -0.094
    1UNL    C23   33  -0.344   0.060  -0.076
    1UNL    O11   34  -0.256   0.158  -0.137
    1UNL     H1   35  -0.252  -0.336   0.075
    1UNL     H2   36  -0.243  -0.343  -0.098
    1UNL     H3   37  -0.190  -0.481  -0.017
    1UNL     H4   38   0.017  -0.381   0.167
    1UNL     H5   39   0.080  -0.478   0.032
    1UNL     H6   40   0.368  -0.361   0.092
    1UNL     H7   41   0.140  -0.220  -0.272
    1UNL     H8   42   0.087   0.106  -0.086
    1UNL     H9   43   0.060   0.032  -0.247
    1UNL    H10   44   0.465   0.138  -0.323
    1UNL    H11   45   0.686   0.257  -0.354
    1UNL    H12   46   0.791   0.349  -0.174
    1UNL    H13   47   0.686   0.358   0.049
    1UNL    H14   48   0.467   0.255   0.088
    1UNL    H15   49   0.234  -0.070   0.090
    1UNL    H16   50   0.006  -0.163   0.218
    1UNL    H17   51   0.007   0.001   0.152
    1UNL    H18   52  -0.311  -0.108   0.062
    1UNL    H19   53  -0.270   0.181   0.295
    1UNL    H20   54  -0.345  -0.061   0.312
    1UNL    H21   55  -0.439  -0.043   0.170
    1UNL    H22   56  -0.520   0.169   0.323
    1UNL    H23   57  -0.300   0.287   0.072
    1UNL    H24   58  -0.546   0.346   0.123
    1UNL    H25   59  -0.528   0.074   0.032
    1UNL    H26   60  -0.448   0.264  -0.157
    1UNL    H27   61  -0.392  -0.006  -0.143
    1UNL    H28   62  -0.178   0.108  -0.175
   0.00000   0.00000   0.00000   0.00000   0.00000   0.00000   0.00000   0.00000   0.00000
Generated with MDTraj, t= 75.0
 62
    1UNL     C1    1  -0.188  -0.346  -0.016
    1UNL     C2    2  -0.047  -0.287  -0.024
    1UNL     C3    3   0.047  -0.350   0.085
    1UNL     C4    4   0.186  -0.274   0.061
    1UNL     O1    5   0.272  -0.326   0.171
    1UNL     O2    6   0.229  -0.308  -0.078
    1UNL     C5    7   0.134  -0.246  -0.161
    1UNL     O3    8   0.009  -0.316  -0.159
    1UNL     C6    9   0.099  -0.106  -0.087
    1UNL     C7   10   0.122   0.025  -0.157
    1UNL     O4   11   0.255   0.060  -0.187
    1UNL     C8   12   0.319   0.123  -0.083
    1UNL     O5   13   0.268   0.147   0.025
    1UNL     C9   14   0.456   0.180  -0.109
    1UNL    C10   15   0.509   0.155  -0.237
    1UNL    C11   16   0.630   0.209  -0.267
    1UNL    C12   17   0.701   0.282  -0.170
    1UNL    C13   18   0.647   0.309  -0.053
    1UNL    C14   19   0.527   0.254  -0.017
    1UNL    C15   20   0.168  -0.118   0.060
    1UNL    C16   21   0.033  -0.069   0.114
    1UNL    C17   22  -0.037  -0.123  -0.011
    1UNL     O6   23  -0.140  -0.045  -0.079
    1UNL    C18   24  -0.259  -0.031  -0.008
    1UNL     O7   25  -0.226   0.024   0.122
    1UNL    C19   26  -0.321   0.092   0.210
    1UNL    C20   27  -0.422  -0.008   0.278
    1UNL     O8   28  -0.527   0.060   0.348
    1UNL    C21   29  -0.397   0.193   0.124
    1UNL     O9   30  -0.495   0.268   0.194
    1UNL    C22   31  -0.456   0.131  -0.008
    1UNL    O10   32  -0.518   0.243  -0.076
    1UNL    C23   33  -0.350   0.066  -0.089
    1UNL    O11   34  -0.274   0.160  -0.158
    1UNL     H1   35  -0.231  -0.313   0.081
    1UNL     H2   36  -0.250  -0.314  -0.095
    1UNL     H3   37  -0.177  -0.454  -0.023
    1UNL     H4   38   0.025  -0.337   0.186
    1UNL     H5   39   0.062  -0.459   0.057
    1UNL     H6   40   0.367  -0.322   0.136
    1UNL     H7   41   0.189  -0.250  -0.256
    1UNL     H8   42   0.072   0.105  -0.099
    1UNL     H9   43   0.062   0.018  -0.253
    1UNL    H10   44   0.459   0.085  -0.309
    1UNL    H11   45   0.671   0.197  -0.367
    1UNL    H12   46   0.808   0.306  -0.180
    1UNL    H13   47   0.702   0.364   0.020
    1UNL    H14   48   0.489   0.269   0.078
    1UNL    H15   49   0.264  -0.070   0.047
    1UNL    H16   50  -0.003  -0.124   0.198
    1UNL    H17   51   0.032   0.042   0.120
    1UNL    H18   52  -0.299  -0.131   0.020
    1UNL    H19   53  -0.266   0.147   0.296
    1UNL    H20   54  -0.363  -0.075   0.345
    1UNL    H21   55  -0.458  -0.071   0.195
    1UNL    H22   56  -0.529   0.155   0.327
    1UNL    H23   57  -0.314   0.262   0.087
    1UNL    H24   58  -0.560   0.305   0.130
    1UNL    H25   59  -0.542   0.067   0.015
    1UNL    H26   60  -0.453   0.292  -0.130
    1UNL    H27   61  -0.395  -0.001  -0.159
    1UNL    H28   62  -0.204   0.113  -0.208
   0.00000   0.00000   0.00000   0.00000   0.00000   0.00000   0.00000   0.00000   0.00000
Generated with MDTraj, t= 76.0
 62
    1UNL     C1    1  -0.191  -0.343  -0.043
    1UNL     C2    2  -0.047  -0.283  -0.027
    1UNL     C3    3   0.049  -0.335   0.085
    1UNL     C4    4   0.186  -0.256   0.075
    1UNL     O1    5   0.269  -0.283   0.190
    1UNL     O2    6   0.242  -0.287  -0.055
    1UNL     C5    7   0.154  -0.229  -0.148
    1UNL     O3    8   0.031  -0.311  -0.150
    1UNL     C6    9   0.100  -0.094  -0.079
    1UNL     C7   10   0.115   0.031  -0.163
    1UNL     O4   11   0.248   0.063  -0.198
    1UNL     C8   12   0.315   0.124  -0.097
    1UNL     O5   13   0.262   0.159   0.004
    1UNL     C9   14   0.459   0.160  -0.117
    1UNL    C10   15   0.519   0.121  -0.237
    1UNL    C11   16   0.650   0.159  -0.262
    1UNL    C12   17   0.714   0.246  -0.171
    1UNL    C13   18   0.654   0.286  -0.061
    1UNL    C14   19   0.528   0.242  -0.030
    1UNL    C15   20   0.152  -0.098   0.065
    1UNL    C16   21   0.020  -0.053   0.115
    1UNL    C17   22  -0.042  -0.122  -0.023
    1UNL     O6   23  -0.149  -0.051  -0.090
    1UNL    C18   24  -0.261  -0.021  -0.010
    1UNL     O7   25  -0.221   0.037   0.116
    1UNL    C19   26  -0.337   0.083   0.196
    1UNL    C20   27  -0.419  -0.041   0.258
    1UNL     O8   28  -0.496  -0.010   0.367
    1UNL    C21   29  -0.412   0.195   0.121
    1UNL     O9   30  -0.507   0.257   0.208
    1UNL    C22   31  -0.471   0.139  -0.011
    1UNL    O10   32  -0.537   0.243  -0.080
    1UNL    C23   33  -0.348   0.085  -0.085
    1UNL    O11   34  -0.267   0.192  -0.128
    1UNL     H1   35  -0.245  -0.325   0.051
    1UNL     H2   36  -0.240  -0.281  -0.116
    1UNL     H3   37  -0.188  -0.448  -0.069
    1UNL     H4   38   0.004  -0.314   0.186
    1UNL     H5   39   0.071  -0.441   0.070
    1UNL     H6   40   0.363  -0.254   0.162
    1UNL     H7   41   0.195  -0.213  -0.248
    1UNL     H8   42   0.076   0.111  -0.100
    1UNL     H9   43   0.046   0.025  -0.252
    1UNL    H10   44   0.464   0.072  -0.309
    1UNL    H11   45   0.706   0.136  -0.352
    1UNL    H12   46   0.799   0.301  -0.203
    1UNL    H13   47   0.698   0.359   0.006
    1UNL    H14   48   0.473   0.278   0.061
    1UNL    H15   49   0.228  -0.032   0.102
    1UNL    H16   50  -0.011  -0.103   0.210
    1UNL    H17   51   0.009   0.053   0.136
    1UNL    H18   52  -0.298  -0.116   0.034
    1UNL    H19   53  -0.290   0.141   0.283
    1UNL    H20   54  -0.338  -0.112   0.283
    1UNL    H21   55  -0.481  -0.089   0.183
    1UNL    H22   56  -0.561   0.065   0.342
    1UNL    H23   57  -0.342   0.274   0.089
    1UNL    H24   58  -0.589   0.283   0.159
    1UNL    H25   59  -0.546   0.060   0.011
    1UNL    H26   60  -0.468   0.317  -0.089
    1UNL    H27   61  -0.390   0.031  -0.171
    1UNL    H28   62  -0.185   0.156  -0.169
   0.00000   0.00000   0.00000   0.00000   0.00000   0.00000   0.00000   0.00000   0.00000
Generated with MDTraj, t= 77.0
 62
    1UNL     C1    1  -0.181  -0.350  -0.032
    1UNL     C2    2  -0.040  -0.284  -0.028
    1UNL     C3    3   0.054  -0.327   0.097
    1UNL     C4    4   0.180  -0.238   0.089
    1UNL     O1    5   0.263  -0.255   0.199
    1UNL     O2    6   0.241  -0.262  -0.037
    1UNL     C5    7   0.147  -0.217  -0.145
    1UNL     O3    8   0.041  -0.309  -0.145
    1UNL     C6    9   0.099  -0.082  -0.084
    1UNL     C7   10   0.116   0.046  -0.169
    1UNL     O4   11   0.250   0.055  -0.207
    1UNL     C8   12   0.313   0.133  -0.110
    1UNL     O5   13   0.261   0.173  -0.008
    1UNL     C9   14   0.457   0.169  -0.139
    1UNL    C10   15   0.527   0.111  -0.244
    1UNL    C11   16   0.669   0.112  -0.251
    1UNL    C12   17   0.738   0.194  -0.165
    1UNL    C13   18   0.667   0.258  -0.063
    1UNL    C14   19   0.531   0.250  -0.053
    1UNL    C15   20   0.147  -0.079   0.070
    1UNL    C16   21  -0.005  -0.053   0.112
    1UNL    C17   22  -0.052  -0.117  -0.027
    1UNL     O6   23  -0.154  -0.049  -0.104
    1UNL    C18   24  -0.260  -0.001  -0.018
    1UNL     O7   25  -0.219   0.052   0.106
    1UNL    C19   26  -0.331   0.080   0.198
    1UNL    C20   27  -0.395  -0.048   0.248
    1UNL     O8   28  -0.492  -0.032   0.352
    1UNL    C21   29  -0.431   0.171   0.137
    1UNL     O9   30  -0.547   0.178   0.220
    1UNL    C22   31  -0.471   0.139  -0.014
    1UNL    O10   32  -0.541   0.249  -0.068
    1UNL    C23   33  -0.341   0.108  -0.094
    1UNL    O11   34  -0.266   0.229  -0.106
    1UNL     H1   35  -0.238  -0.337   0.058
    1UNL     H2   36  -0.240  -0.302  -0.112
    1UNL     H3   37  -0.168  -0.454  -0.054
    1UNL     H4   38   0.011  -0.328   0.208
    1UNL     H5   39   0.093  -0.423   0.068
    1UNL     H6   40   0.357  -0.252   0.159
    1UNL     H7   41   0.184  -0.209  -0.247
    1UNL     H8   42   0.079   0.135  -0.124
    1UNL     H9   43   0.057   0.029  -0.263
    1UNL    H10   44   0.476   0.044  -0.317
    1UNL    H11   45   0.729   0.062  -0.325
    1UNL    H12   46   0.844   0.218  -0.179
    1UNL    H13   47   0.714   0.331   0.001
    1UNL    H14   48   0.486   0.279   0.036
    1UNL    H15   49   0.220  -0.004   0.093
    1UNL    H16   50  -0.046  -0.101   0.209
    1UNL    H17   51  -0.029   0.051   0.124
    1UNL    H18   52  -0.330  -0.080   0.011
    1UNL    H19   53  -0.279   0.141   0.278
    1UNL    H20   54  -0.330  -0.124   0.293
    1UNL    H21   55  -0.445  -0.091   0.163
    1UNL    H22   56  -0.550   0.037   0.323
    1UNL    H23   57  -0.398   0.274   0.133
    1UNL    H24   58  -0.619   0.212   0.163
    1UNL    H25   59  -0.537   0.050  -0.010
    1UNL    H26   60  -0.486   0.323  -0.054
    1UNL    H27   61  -0.363   0.076  -0.201
    1UNL    H28   62  -0.219   0.235  -0.017
   0.00000   0.00000   0.00000   0.00000   0.00000   0.00000   0.00000   0.00000   0.00000
Generated with MDTraj, t= 78.0
 62
    1UNL     C1    1  -0.180  -0.301  -0.006
    1UNL     C2    2  -0.041  -0.248  -0.012
    1UNL     C3    3   0.053  -0.296   0.100
    1UNL     C4    4   0.187  -0.221   0.080
    1UNL     O1    5   0.266  -0.254   0.197
    1UNL     O2    6   0.244  -0.265  -0.047
    1UNL     C5    7   0.145  -0.213  -0.145
    1UNL     O3    8   0.024  -0.292  -0.143
    1UNL     C6    9   0.112  -0.072  -0.091
    1UNL     C7   10   0.122   0.049  -0.185
    1UNL     O4   11   0.254   0.084  -0.223
    1UNL     C8   12   0.316   0.142  -0.112
    1UNL     O5   13   0.256   0.196  -0.023
    1UNL     C9   14   0.465   0.146  -0.131
    1UNL    C10   15   0.525   0.063  -0.224
    1UNL    C11   16   0.662   0.078  -0.248
    1UNL    C12   17   0.739   0.161  -0.175
    1UNL    C13   18   0.677   0.242  -0.078
    1UNL    C14   19   0.544   0.222  -0.045
    1UNL    C15   20   0.162  -0.070   0.058
    1UNL    C16   21   0.028  -0.015   0.105
    1UNL    C17   22  -0.035  -0.088  -0.019
    1UNL     O6   23  -0.133  -0.002  -0.089
    1UNL    C18   24  -0.255   0.007  -0.009
    1UNL     O7   25  -0.235   0.051   0.125
    1UNL    C19   26  -0.354   0.060   0.203
    1UNL    C20   27  -0.413  -0.074   0.231
    1UNL     O8   28  -0.481  -0.070   0.363
    1UNL    C21   29  -0.455   0.151   0.132
    1UNL     O9   30  -0.580   0.142   0.200
    1UNL    C22   31  -0.473   0.126  -0.020
    1UNL    O10   32  -0.543   0.230  -0.085
    1UNL    C23   33  -0.339   0.105  -0.089
    1UNL    O11   34  -0.277   0.233  -0.077
    1UNL     H1   35  -0.228  -0.258   0.078
    1UNL     H2   36  -0.249  -0.275  -0.091
    1UNL     H3   37  -0.180  -0.407   0.010
    1UNL     H4   38   0.027  -0.257   0.206
    1UNL     H5   39   0.060  -0.404   0.089
    1UNL     H6   40   0.353  -0.295   0.169
    1UNL     H7   41   0.189  -0.228  -0.244
    1UNL     H8   42   0.088   0.129  -0.126
    1UNL     H9   43   0.062   0.048  -0.278
    1UNL    H10   44   0.469  -0.014  -0.272
    1UNL    H11   45   0.693   0.002  -0.320
    1UNL    H12   46   0.844   0.178  -0.185
    1UNL    H13   47   0.741   0.297  -0.010
    1UNL    H14   48   0.491   0.270   0.041
    1UNL    H15   49   0.242  -0.002   0.077
    1UNL    H16   50  -0.012  -0.059   0.202
    1UNL    H17   51   0.012   0.095   0.099
    1UNL    H18   52  -0.309  -0.087  -0.002
    1UNL    H19   53  -0.316   0.104   0.295
    1UNL    H20   54  -0.333  -0.148   0.236
    1UNL    H21   55  -0.491  -0.114   0.169
    1UNL    H22   56  -0.525   0.022   0.363
    1UNL    H23   57  -0.432   0.254   0.135
    1UNL    H24   58  -0.645   0.206   0.166
    1UNL    H25   59  -0.531   0.030  -0.033
    1UNL    H26   60  -0.510   0.320  -0.059
    1UNL    H27   61  -0.324   0.084  -0.203
    1UNL    H28   62  -0.185   0.219  -0.101
   0.00000   0.00000   0.00000   0.00000   0.00000   0.00000   0.00000   0.00000   0.00000
Generated with MDTraj, t= 79.0
 62
    1UNL     C1    1  -0.184  -0.286   0.027
    1UNL     C2    2  -0.050  -0.230   0.002
    1UNL     C3    3   0.057  -0.273   0.108
    1UNL     C4    4   0.196  -0.210   0.068
    1UNL     O1    5   0.300  -0.238   0.169
    1UNL     O2    6   0.238  -0.252  -0.060
    1UNL     C5    7   0.136  -0.208  -0.143
    1UNL     O3    8   0.007  -0.274  -0.124
    1UNL     C6    9   0.097  -0.056  -0.091
    1UNL     C7   10   0.127   0.067  -0.177
    1UNL     O4   11   0.260   0.070  -0.217
    1UNL     C8   12   0.335   0.135  -0.124
    1UNL     O5   13   0.292   0.197  -0.031
    1UNL     C9   14   0.484   0.145  -0.149
    1UNL    C10   15   0.543   0.058  -0.235
    1UNL    C11   16   0.681   0.042  -0.233
    1UNL    C12   17   0.760   0.122  -0.153
    1UNL    C13   18   0.702   0.223  -0.069
    1UNL    C14   19   0.561   0.234  -0.074
    1UNL    C15   20   0.166  -0.057   0.046
    1UNL    C16   21   0.037  -0.000   0.106
    1UNL    C17   22  -0.038  -0.066  -0.013
    1UNL     O6   23  -0.139   0.005  -0.091
    1UNL    C18   24  -0.257   0.017  -0.011
    1UNL     O7   25  -0.235   0.050   0.127
    1UNL    C19   26  -0.360   0.047   0.198
    1UNL    C20   27  -0.399  -0.096   0.248
    1UNL     O8   28  -0.528  -0.100   0.320
    1UNL    C21   29  -0.469   0.138   0.132
    1UNL     O9   30  -0.595   0.135   0.193
    1UNL    C22   31  -0.491   0.114  -0.012
    1UNL    O10   32  -0.590   0.207  -0.057
    1UNL    C23   33  -0.350   0.114  -0.081
    1UNL    O11   34  -0.289   0.244  -0.073
    1UNL     H1   35  -0.234  -0.230   0.103
    1UNL     H2   36  -0.254  -0.275  -0.059
    1UNL     H3   37  -0.177  -0.388   0.061
    1UNL     H4   38   0.036  -0.246   0.210
    1UNL     H5   39   0.071  -0.385   0.099
    1UNL     H6   40   0.355  -0.315   0.150
    1UNL     H7   41   0.168  -0.196  -0.247
    1UNL     H8   42   0.115   0.163  -0.137
    1UNL     H9   43   0.059   0.057  -0.262
    1UNL    H10   44   0.481  -0.020  -0.281
    1UNL    H11   45   0.730  -0.018  -0.308
    1UNL    H12   46   0.868   0.096  -0.155
    1UNL    H13   47   0.770   0.290  -0.019
    1UNL    H14   48   0.511   0.293  -0.002
    1UNL    H15   49   0.247   0.009   0.067
    1UNL    H16   50   0.009  -0.039   0.205
    1UNL    H17   51   0.052   0.113   0.122
    1UNL    H18   52  -0.318  -0.072  -0.009
    1UNL    H19   53  -0.331   0.094   0.289
    1UNL    H20   54  -0.337  -0.144   0.326
    1UNL    H21   55  -0.407  -0.169   0.169
    1UNL    H22   56  -0.578  -0.025   0.282
    1UNL    H23   57  -0.441   0.239   0.144
    1UNL    H24   58  -0.666   0.187   0.148
    1UNL    H25   59  -0.530   0.012  -0.037
    1UNL    H26   60  -0.561   0.244  -0.149
    1UNL    H27   61  -0.357   0.096  -0.196
    1UNL    H28   62  -0.232   0.242   0.004
   0.00000   0.00000   0.00000   0.00000   0.00000   0.00000   0.00000   0.00000   0.00000
Generated with MDTraj, t= 80.0
 62
    1UNL     C1    1  -0.171  -0.295   0.009
    1UNL     C2    2  -0.034  -0.230  -0.007
    1UNL     C3    3   0.074  -0.266   0.111
    1UNL     C4    4   0.207  -0.191   0.074
    1UNL     O1    5   0.305  -0.208   0.166
    1UNL     O2    6   0.242  -0.236  -0.059
    1UNL     C5    7   0.137  -0.195  -0.147
    1UNL     O3    8   0.022  -0.275  -0.131
    1UNL     C6    9   0.109  -0.044  -0.093
    1UNL     C7   10   0.134   0.074  -0.189
    1UNL     O4   11   0.273   0.060  -0.221
    1UNL     C8   12   0.353   0.131  -0.132
    1UNL     O5   13   0.303   0.212  -0.059
    1UNL     C9   14   0.500   0.125  -0.147
    1UNL    C10   15   0.562   0.029  -0.221
    1UNL    C11   16   0.696   0.022  -0.233
    1UNL    C12   17   0.778   0.105  -0.158
    1UNL    C13   18   0.718   0.202  -0.077
    1UNL    C14   19   0.578   0.216  -0.076
    1UNL    C15   20   0.180  -0.034   0.047
    1UNL    C16   21   0.035   0.013   0.102
    1UNL    C17   22  -0.031  -0.069  -0.012
    1UNL     O6   23  -0.141   0.016  -0.066
    1UNL    C18   24  -0.265   0.019   0.006
    1UNL     O7   25  -0.257   0.054   0.149
    1UNL    C19   26  -0.384   0.048   0.213
    1UNL    C20   27  -0.440  -0.103   0.213
    1UNL     O8   28  -0.544  -0.117   0.300
    1UNL    C21   29  -0.490   0.136   0.144
    1UNL     O9   30  -0.607   0.142   0.216
    1UNL    C22   31  -0.513   0.103  -0.005
    1UNL    O10   32  -0.603   0.198  -0.057
    1UNL    C23   33  -0.370   0.110  -0.066
    1UNL    O11   34  -0.323   0.248  -0.056
    1UNL     H1   35  -0.233  -0.264   0.096
    1UNL     H2   36  -0.233  -0.264  -0.073
    1UNL     H3   37  -0.155  -0.402   0.012
    1UNL     H4   38   0.033  -0.238   0.202
    1UNL     H5   39   0.092  -0.379   0.116
    1UNL     H6   40   0.342  -0.292   0.148
    1UNL     H7   41   0.168  -0.190  -0.254
    1UNL     H8   42   0.111   0.167  -0.144
    1UNL     H9   43   0.081   0.067  -0.285
    1UNL    H10   44   0.493  -0.027  -0.280
    1UNL    H11   45   0.733  -0.056  -0.299
    1UNL    H12   46   0.871   0.116  -0.207
    1UNL    H13   47   0.769   0.274  -0.020
    1UNL    H14   48   0.526   0.293  -0.016
    1UNL    H15   49   0.269   0.025   0.043
    1UNL    H16   50   0.001  -0.013   0.202
    1UNL    H17   51   0.018   0.129   0.095
    1UNL    H18   52  -0.316  -0.077   0.001
    1UNL    H19   53  -0.360   0.071   0.312
    1UNL    H20   54  -0.356  -0.167   0.248
    1UNL    H21   55  -0.472  -0.138   0.115
    1UNL    H22   56  -0.605  -0.045   0.291
    1UNL    H23   57  -0.456   0.238   0.143
    1UNL    H24   58  -0.679   0.176   0.157
    1UNL    H25   59  -0.565   0.004  -0.015
    1UNL    H26   60  -0.553   0.258  -0.113
    1UNL    H27   61  -0.366   0.076  -0.177
    1UNL    H28   62  -0.223   0.241  -0.056
   0.00000   0.00000   0.00000   0.00000   0.00000   0.00000   0.00000   0.00000   0.00000
Generated with MDTraj, t= 81.0
 62
    1UNL     C1    1  -0.167  -0.279   0.011
    1UNL     C2    2  -0.034  -0.217  -0.008
    1UNL     C3    3   0.061  -0.256   0.104
    1UNL     C4    4   0.194  -0.173   0.082
    1UNL     O1    5   0.282  -0.201   0.190
    1UNL     O2    6   0.252  -0.216  -0.042
    1UNL     C5    7   0.146  -0.165  -0.141
    1UNL     O3    8   0.031  -0.252  -0.132
    1UNL     C6    9   0.110  -0.025  -0.091
    1UNL     C7   10   0.132   0.090  -0.182
    1UNL     O4   11   0.267   0.092  -0.230
    1UNL     C8   12   0.355   0.150  -0.142
    1UNL     O5   13   0.311   0.211  -0.048
    1UNL     C9   14   0.500   0.125  -0.158
    1UNL    C10   15   0.554   0.018  -0.224
    1UNL    C11   16   0.688  -0.007  -0.237
    1UNL    C12   17   0.780   0.080  -0.167
    1UNL    C13   18   0.727   0.181  -0.090
    1UNL    C14   19   0.588   0.207  -0.088
    1UNL    C15   20   0.158  -0.022   0.064
    1UNL    C16   21   0.020   0.029   0.102
    1UNL    C17   22  -0.035  -0.053  -0.015
    1UNL     O6   23  -0.147   0.005  -0.080
    1UNL    C18   24  -0.273  -0.002  -0.009
    1UNL     O7   25  -0.255   0.013   0.135
    1UNL    C19   26  -0.375   0.020   0.205
    1UNL    C20   27  -0.452  -0.119   0.235
    1UNL     O8   28  -0.563  -0.116   0.311
    1UNL    C21   29  -0.476   0.119   0.147
    1UNL     O9   30  -0.597   0.123   0.215
    1UNL    C22   31  -0.502   0.104  -0.006
    1UNL    O10   32  -0.579   0.214  -0.050
    1UNL    C23   33  -0.368   0.098  -0.074
    1UNL    O11   34  -0.309   0.230  -0.062
    1UNL     H1   35  -0.225  -0.232   0.094
    1UNL     H2   36  -0.218  -0.267  -0.081
    1UNL     H3   37  -0.147  -0.386   0.032
    1UNL     H4   38   0.015  -0.228   0.196
    1UNL     H5   39   0.082  -0.366   0.114
    1UNL     H6   40   0.334  -0.268   0.149
    1UNL     H7   41   0.185  -0.176  -0.245
    1UNL     H8   42   0.108   0.184  -0.138
    1UNL     H9   43   0.076   0.076  -0.279
    1UNL    H10   44   0.482  -0.060  -0.249
    1UNL    H11   45   0.725  -0.077  -0.311
    1UNL    H12   46   0.891   0.068  -0.183
    1UNL    H13   47   0.807   0.243  -0.043
    1UNL    H14   48   0.553   0.275  -0.013
    1UNL    H15   49   0.233   0.051   0.085
    1UNL    H16   50   0.006  -0.015   0.204
    1UNL    H17   51   0.008   0.145   0.090
    1UNL    H18   52  -0.307  -0.103  -0.028
    1UNL    H19   53  -0.347   0.051   0.299
    1UNL    H20   54  -0.378  -0.188   0.282
    1UNL    H21   55  -0.481  -0.151   0.135
    1UNL    H22   56  -0.609  -0.027   0.314
    1UNL    H23   57  -0.440   0.222   0.156
    1UNL    H24   58  -0.657   0.163   0.149
    1UNL    H25   59  -0.570   0.017  -0.016
    1UNL    H26   60  -0.529   0.274  -0.101
    1UNL    H27   61  -0.374   0.077  -0.185
    1UNL    H28   62  -0.215   0.237  -0.088
   0.00000   0.00000   0.00000   0.00000   0.00000   0.00000   0.00000   0.00000   0.00000
Generated with MDTraj, t= 82.0
 62
    1UNL     C1    1  -0.155  -0.299  -0.002
    1UNL     C2    2  -0.025  -0.219  -0.010
    1UNL     C3    3   0.068  -0.254   0.108
    1UNL     C4    4   0.194  -0.159   0.101
    1UNL     O1    5   0.276  -0.164   0.222
    1UNL     O2    6   0.268  -0.192  -0.020
    1UNL     C5    7   0.169  -0.164  -0.122
    1UNL     O3    8   0.056  -0.253  -0.127
    1UNL     C6    9   0.097  -0.025  -0.074
    1UNL     C7   10   0.121   0.097  -0.169
    1UNL     O4   11   0.260   0.097  -0.213
    1UNL     C8   12   0.341   0.152  -0.121
    1UNL     O5   13   0.304   0.209  -0.022
    1UNL     C9   14   0.483   0.135  -0.158
    1UNL    C10   15   0.514   0.015  -0.230
    1UNL    C11   16   0.649  -0.019  -0.251
    1UNL    C12   17   0.752   0.051  -0.189
    1UNL    C13   18   0.724   0.164  -0.114
    1UNL    C14   19   0.593   0.203  -0.093
    1UNL    C15   20   0.147  -0.018   0.068
    1UNL    C16   21  -0.005   0.012   0.106
    1UNL    C17   22  -0.052  -0.061  -0.023
    1UNL     O6   23  -0.153  -0.013  -0.106
    1UNL    C18   24  -0.277  -0.004  -0.031
    1UNL     O7   25  -0.251   0.005   0.110
    1UNL    C19   26  -0.367   0.011   0.187
    1UNL    C20   27  -0.453  -0.130   0.196
    1UNL     O8   28  -0.529  -0.140   0.315
    1UNL    C21   29  -0.455   0.131   0.143
    1UNL     O9   30  -0.575   0.124   0.220
    1UNL    C22   31  -0.493   0.126  -0.007
    1UNL    O10   32  -0.581   0.233  -0.047
    1UNL    C23   33  -0.358   0.116  -0.082
    1UNL    O11   34  -0.290   0.232  -0.061
    1UNL     H1   35  -0.215  -0.271   0.083
    1UNL     H2   36  -0.212  -0.290  -0.094
    1UNL     H3   37  -0.124  -0.404   0.006
    1UNL     H4   38   0.009  -0.257   0.202
    1UNL     H5   39   0.094  -0.354   0.097
    1UNL     H6   40   0.360  -0.207   0.205
    1UNL     H7   41   0.215  -0.159  -0.224
    1UNL     H8   42   0.114   0.197  -0.128
    1UNL     H9   43   0.051   0.088  -0.260
    1UNL    H10   44   0.424  -0.044  -0.251
    1UNL    H11   45   0.669  -0.102  -0.315
    1UNL    H12   46   0.847   0.010  -0.196
    1UNL    H13   47   0.797   0.217  -0.060
    1UNL    H14   48   0.578   0.286  -0.027
    1UNL    H15   49   0.222   0.055   0.089
    1UNL    H16   50  -0.051  -0.044   0.196
    1UNL    H17   51  -0.037   0.119   0.105
    1UNL    H18   52  -0.323  -0.099  -0.059
    1UNL    H19   53  -0.333   0.030   0.282
    1UNL    H20   54  -0.379  -0.211   0.202
    1UNL    H21   55  -0.508  -0.138   0.102
    1UNL    H22   56  -0.591  -0.066   0.327
    1UNL    H23   57  -0.405   0.228   0.170
    1UNL    H24   58  -0.638   0.192   0.187
    1UNL    H25   59  -0.550   0.034  -0.026
    1UNL    H26   60  -0.528   0.320  -0.061
    1UNL    H27   61  -0.383   0.101  -0.189
    1UNL    H28   62  -0.199   0.236  -0.094
   0.00000   0.00000   0.00000   0.00000   0.00000   0.00000   0.00000   0.00000   0.00000
Generated with MDTraj, t= 83.0
 62
    1UNL     C1    1  -0.135  -0.306  -0.041
    1UNL     C2    2  -0.008  -0.225  -0.017
    1UNL     C3    3   0.080  -0.245   0.116
    1UNL     C4    4   0.195  -0.149   0.116
    1UNL     O1    5   0.261  -0.147   0.248
    1UNL     O2    6   0.265  -0.192  -0.005
    1UNL     C5    7   0.184  -0.156  -0.111
    1UNL     O3    8   0.077  -0.253  -0.128
    1UNL     C6    9   0.110  -0.022  -0.072
    1UNL     C7   10   0.109   0.103  -0.161
    1UNL     O4   11   0.238   0.114  -0.221
    1UNL     C8   12   0.328   0.146  -0.123
    1UNL     O5   13   0.299   0.212  -0.024
    1UNL     C9   14   0.471   0.105  -0.143
    1UNL    C10   15   0.493   0.005  -0.234
    1UNL    C11   16   0.628  -0.022  -0.269
    1UNL    C12   17   0.729   0.056  -0.217
    1UNL    C13   18   0.697   0.153  -0.119
    1UNL    C14   19   0.570   0.179  -0.087
    1UNL    C15   20   0.146  -0.002   0.077
    1UNL    C16   21  -0.002   0.019   0.103
    1UNL    C17   22  -0.038  -0.064  -0.024
    1UNL     O6   23  -0.144  -0.012  -0.093
    1UNL    C18   24  -0.274  -0.017  -0.022
    1UNL     O7   25  -0.256  -0.007   0.123
    1UNL    C19   26  -0.369   0.002   0.201
    1UNL    C20   27  -0.440  -0.133   0.197
    1UNL     O8   28  -0.559  -0.142   0.280
    1UNL    C21   29  -0.451   0.122   0.144
    1UNL     O9   30  -0.578   0.123   0.209
    1UNL    C22   31  -0.485   0.129  -0.007
    1UNL    O10   32  -0.533   0.261  -0.037
    1UNL    C23   33  -0.349   0.113  -0.085
    1UNL    O11   34  -0.271   0.223  -0.064
    1UNL     H1   35  -0.203  -0.293   0.039
    1UNL     H2   36  -0.184  -0.282  -0.138
    1UNL     H3   37  -0.108  -0.411  -0.050
    1UNL     H4   38   0.007  -0.234   0.202
    1UNL     H5   39   0.113  -0.340   0.133
    1UNL     H6   40   0.356  -0.129   0.233
    1UNL     H7   41   0.251  -0.145  -0.199
    1UNL     H8   42   0.092   0.189  -0.094
    1UNL     H9   43   0.027   0.099  -0.245
    1UNL    H10   44   0.409  -0.028  -0.288
    1UNL    H11   45   0.652  -0.101  -0.340
    1UNL    H12   46   0.835   0.045  -0.250
    1UNL    H13   47   0.782   0.216  -0.085
    1UNL    H14   48   0.550   0.265  -0.022
    1UNL    H15   49   0.218   0.070   0.114
    1UNL    H16   50  -0.045  -0.012   0.209
    1UNL    H17   51  -0.030   0.126   0.103
    1UNL    H18   52  -0.322  -0.110  -0.053
    1UNL    H19   53  -0.329   0.024   0.296
    1UNL    H20   54  -0.362  -0.206   0.220
    1UNL    H21   55  -0.474  -0.162   0.097
    1UNL    H22   56  -0.614  -0.063   0.265
    1UNL    H23   57  -0.396   0.217   0.172
    1UNL    H24   58  -0.629   0.206   0.196
    1UNL    H25   59  -0.564   0.059  -0.036
    1UNL    H26   60  -0.462   0.327  -0.020
    1UNL    H27   61  -0.372   0.089  -0.187
    1UNL    H28   62  -0.182   0.202  -0.099
   0.00000   0.00000   0.00000   0.00000   0.00000   0.00000   0.00000   0.00000   0.00000
Generated with MDTraj, t= 84.0
 62
    1UNL     C1    1  -0.132  -0.314   0.013
    1UNL     C2    2  -0.013  -0.228   0.009
    1UNL     C3    3   0.083  -0.249   0.132
    1UNL     C4    4   0.197  -0.150   0.122
    1UNL     O1    5   0.287  -0.159   0.231
    1UNL     O2    6   0.270  -0.187  -0.007
    1UNL     C5    7   0.174  -0.146  -0.110
    1UNL     O3    8   0.072  -0.251  -0.109
    1UNL     C6    9   0.107  -0.018  -0.060
    1UNL     C7   10   0.116   0.110  -0.144
    1UNL     O4   11   0.231   0.108  -0.220
    1UNL     C8   12   0.337   0.158  -0.140
    1UNL     O5   13   0.316   0.207  -0.027
    1UNL     C9   14   0.476   0.134  -0.177
    1UNL    C10   15   0.510   0.050  -0.281
    1UNL    C11   16   0.635  -0.009  -0.291
    1UNL    C12   17   0.734   0.040  -0.209
    1UNL    C13   18   0.707   0.139  -0.116
    1UNL    C14   19   0.580   0.189  -0.104
    1UNL    C15   20   0.150  -0.009   0.091
    1UNL    C16   21   0.001   0.017   0.126
    1UNL    C17   22  -0.037  -0.063  -0.002
    1UNL     O6   23  -0.147  -0.024  -0.094
    1UNL    C18   24  -0.274  -0.026  -0.026
    1UNL     O7   25  -0.267  -0.039   0.115
    1UNL    C19   26  -0.390  -0.012   0.181
    1UNL    C20   27  -0.484  -0.128   0.162
    1UNL     O8   28  -0.598  -0.133   0.253
    1UNL    C21   29  -0.453   0.121   0.141
    1UNL     O9   30  -0.575   0.138   0.210
    1UNL    C22   31  -0.484   0.132  -0.007
    1UNL    O10   32  -0.536   0.265  -0.032
    1UNL    C23   33  -0.342   0.110  -0.073
    1UNL    O11   34  -0.260   0.215  -0.049
    1UNL     H1   35  -0.198  -0.296   0.095
    1UNL     H2   36  -0.183  -0.300  -0.085
    1UNL     H3   37  -0.104  -0.417   0.008
    1UNL     H4   38   0.034  -0.248   0.229
    1UNL     H5   39   0.127  -0.346   0.128
    1UNL     H6   40   0.371  -0.112   0.201
    1UNL     H7   41   0.232  -0.138  -0.203
    1UNL     H8   42   0.115   0.201  -0.083
    1UNL     H9   43   0.034   0.110  -0.229
    1UNL    H10   44   0.431   0.014  -0.352
    1UNL    H11   45   0.644  -0.089  -0.364
    1UNL    H12   46   0.838   0.010  -0.207
    1UNL    H13   47   0.783   0.174  -0.053
    1UNL    H14   48   0.556   0.259  -0.028
    1UNL    H15   49   0.219   0.068   0.117
    1UNL    H16   50  -0.036  -0.039   0.221
    1UNL    H17   51  -0.042   0.116   0.107
    1UNL    H18   52  -0.328  -0.116  -0.058
    1UNL    H19   53  -0.360   0.000   0.282
    1UNL    H20   54  -0.446  -0.230   0.168
    1UNL    H21   55  -0.524  -0.130   0.061
    1UNL    H22   56  -0.646  -0.045   0.242
    1UNL    H23   57  -0.388   0.209   0.167
    1UNL    H24   58  -0.616   0.221   0.177
    1UNL    H25   59  -0.565   0.065  -0.037
    1UNL    H26   60  -0.475   0.335  -0.008
    1UNL    H27   61  -0.354   0.112  -0.177
    1UNL    H28   62  -0.165   0.195  -0.066
   0.00000   0.00000   0.00000   0.00000   0.00000   0.00000   0.00000   0.00000   0.00000
Generated with MDTraj, t= 85.0
 62
    1UNL     C1    1  -0.145  -0.298   0.047
    1UNL     C2    2  -0.012  -0.218   0.023
    1UNL     C3    3   0.090  -0.244   0.143
    1UNL     C4    4   0.205  -0.152   0.116
    1UNL     O1    5   0.301  -0.156   0.221
    1UNL     O2    6   0.272  -0.187  -0.011
    1UNL     C5    7   0.173  -0.160  -0.109
    1UNL     O3    8   0.069  -0.252  -0.095
    1UNL     C6    9   0.103  -0.022  -0.058
    1UNL     C7   10   0.128   0.084  -0.165
    1UNL     O4   11   0.256   0.085  -0.219
    1UNL     C8   12   0.339   0.156  -0.134
    1UNL     O5   13   0.298   0.229  -0.042
    1UNL     C9   14   0.483   0.119  -0.157
    1UNL    C10   15   0.507   0.057  -0.279
    1UNL    C11   16   0.636   0.035  -0.324
    1UNL    C12   17   0.744   0.073  -0.250
    1UNL    C13   18   0.722   0.140  -0.131
    1UNL    C14   19   0.593   0.146  -0.078
    1UNL    C15   20   0.160  -0.003   0.086
    1UNL    C16   21   0.012   0.030   0.129
    1UNL    C17   22  -0.030  -0.065   0.007
    1UNL     O6   23  -0.144  -0.031  -0.080
    1UNL    C18   24  -0.268  -0.030  -0.021
    1UNL     O7   25  -0.279  -0.052   0.123
    1UNL    C19   26  -0.414  -0.027   0.178
    1UNL    C20   27  -0.524  -0.133   0.140
    1UNL     O8   28  -0.645  -0.124   0.206
    1UNL    C21   29  -0.462   0.114   0.149
    1UNL     O9   30  -0.583   0.140   0.213
    1UNL    C22   31  -0.477   0.141  -0.001
    1UNL    O10   32  -0.533   0.266  -0.033
    1UNL    C23   33  -0.332   0.113  -0.058
    1UNL    O11   34  -0.248   0.217  -0.025
    1UNL     H1   35  -0.202  -0.255   0.131
    1UNL     H2   36  -0.208  -0.302  -0.042
    1UNL     H3   37  -0.128  -0.401   0.066
    1UNL     H4   38   0.038  -0.223   0.232
    1UNL     H5   39   0.135  -0.346   0.158
    1UNL     H6   40   0.387  -0.103   0.201
    1UNL     H7   41   0.205  -0.151  -0.212
    1UNL     H8   42   0.128   0.184  -0.124
    1UNL     H9   43   0.053   0.063  -0.251
    1UNL    H10   44   0.428   0.022  -0.336
    1UNL    H11   45   0.660  -0.023  -0.410
    1UNL    H12   46   0.841   0.045  -0.284
    1UNL    H13   47   0.802   0.157  -0.057
    1UNL    H14   48   0.571   0.196   0.017
    1UNL    H15   49   0.229   0.078   0.106
    1UNL    H16   50  -0.037  -0.021   0.218
    1UNL    H17   51  -0.023   0.132   0.100
    1UNL    H18   52  -0.326  -0.111  -0.066
    1UNL    H19   53  -0.395  -0.029   0.284
    1UNL    H20   54  -0.484  -0.227   0.179
    1UNL    H21   55  -0.543  -0.157   0.035
    1UNL    H22   56  -0.642  -0.040   0.253
    1UNL    H23   57  -0.388   0.184   0.193
    1UNL    H24   58  -0.624   0.211   0.160
    1UNL    H25   59  -0.538   0.060  -0.036
    1UNL    H26   60  -0.464   0.340  -0.012
    1UNL    H27   61  -0.326   0.120  -0.162
    1UNL    H28   62  -0.154   0.198  -0.038
   0.00000   0.00000   0.00000   0.00000   0.00000   0.00000   0.00000   0.00000   0.00000
Generated with MDTraj, t= 86.0
 62
    1UNL     C1    1  -0.154  -0.300   0.058
    1UNL     C2    2  -0.016  -0.232   0.041
    1UNL     C3    3   0.080  -0.235   0.163
    1UNL     C4    4   0.202  -0.146   0.137
    1UNL     O1    5   0.302  -0.144   0.242
    1UNL     O2    6   0.255  -0.210   0.011
    1UNL     C5    7   0.161  -0.184  -0.090
    1UNL     O3    8   0.054  -0.282  -0.073
    1UNL     C6    9   0.102  -0.037  -0.067
    1UNL     C7   10   0.121   0.076  -0.169
    1UNL     O4   11   0.243   0.086  -0.235
    1UNL     C8   12   0.337   0.138  -0.151
    1UNL     O5   13   0.312   0.171  -0.034
    1UNL     C9   14   0.488   0.131  -0.192
    1UNL    C10   15   0.527   0.087  -0.318
    1UNL    C11   16   0.658   0.067  -0.341
    1UNL    C12   17   0.757   0.104  -0.250
    1UNL    C13   18   0.715   0.141  -0.127
    1UNL    C14   19   0.581   0.159  -0.098
    1UNL    C15   20   0.149  -0.003   0.086
    1UNL    C16   21   0.002   0.022   0.123
    1UNL    C17   22  -0.034  -0.070   0.002
    1UNL     O6   23  -0.145  -0.029  -0.079
    1UNL    C18   24  -0.265  -0.014  -0.018
    1UNL     O7   25  -0.280  -0.033   0.126
    1UNL    C19   26  -0.412  -0.033   0.179
    1UNL    C20   27  -0.500  -0.149   0.126
    1UNL     O8   28  -0.630  -0.140   0.161
    1UNL    C21   29  -0.473   0.105   0.148
    1UNL     O9   30  -0.594   0.129   0.216
    1UNL    C22   31  -0.472   0.156  -0.002
    1UNL    O10   32  -0.501   0.294  -0.011
    1UNL    C23   33  -0.330   0.132  -0.057
    1UNL    O11   34  -0.247   0.236  -0.007
    1UNL     H1   35  -0.213  -0.256   0.143
    1UNL     H2   36  -0.206  -0.301  -0.034
    1UNL     H3   37  -0.136  -0.405   0.079
    1UNL     H4   38   0.030  -0.207   0.250
    1UNL     H5   39   0.113  -0.344   0.173
    1UNL     H6   40   0.373  -0.088   0.197
    1UNL     H7   41   0.209  -0.193  -0.187
    1UNL     H8   42   0.104   0.163  -0.111
    1UNL     H9   43   0.036   0.045  -0.240
    1UNL    H10   44   0.454   0.069  -0.402
    1UNL    H11   45   0.694   0.028  -0.436
    1UNL    H12   46   0.862   0.068  -0.267
    1UNL    H13   47   0.783   0.175  -0.053
    1UNL    H14   48   0.542   0.185  -0.004
    1UNL    H15   49   0.213   0.083   0.094
    1UNL    H16   50  -0.024  -0.002   0.226
    1UNL    H17   51  -0.026   0.135   0.119
    1UNL    H18   52  -0.338  -0.083  -0.059
    1UNL    H19   53  -0.406  -0.043   0.287
    1UNL    H20   54  -0.461  -0.249   0.146
    1UNL    H21   55  -0.498  -0.125   0.019
    1UNL    H22   56  -0.655  -0.041   0.167
    1UNL    H23   57  -0.403   0.174   0.193
    1UNL    H24   58  -0.641   0.190   0.154
    1UNL    H25   59  -0.547   0.107  -0.062
    1UNL    H26   60  -0.423   0.349  -0.021
    1UNL    H27   61  -0.322   0.147  -0.162
    1UNL    H28   62  -0.153   0.226  -0.037
   0.00000   0.00000   0.00000   0.00000   0.00000   0.00000   0.00000   0.00000   0.00000
Generated with MDTraj, t= 87.0
 62
    1UNL     C1    1  -0.168  -0.287   0.039
    1UNL     C2    2  -0.029  -0.212   0.041
    1UNL     C3    3   0.051  -0.233   0.177
    1UNL     C4    4   0.188  -0.160   0.153
    1UNL     O1    5   0.269  -0.150   0.277
    1UNL     O2    6   0.255  -0.222   0.035
    1UNL     C5    7   0.167  -0.194  -0.073
    1UNL     O3    8   0.049  -0.273  -0.066
    1UNL     C6    9   0.113  -0.046  -0.051
    1UNL     C7   10   0.128   0.049  -0.176
    1UNL     O4   11   0.259   0.031  -0.223
    1UNL     C8   12   0.345   0.115  -0.152
    1UNL     O5   13   0.304   0.180  -0.056
    1UNL     C9   14   0.484   0.118  -0.189
    1UNL    C10   15   0.518   0.083  -0.322
    1UNL    C11   16   0.642   0.104  -0.365
    1UNL    C12   17   0.737   0.150  -0.274
    1UNL    C13   18   0.710   0.162  -0.142
    1UNL    C14   19   0.580   0.148  -0.097
    1UNL    C15   20   0.153  -0.016   0.097
    1UNL    C16   21   0.002   0.028   0.120
    1UNL    C17   22  -0.037  -0.062   0.001
    1UNL     O6   23  -0.136  -0.005  -0.087
    1UNL    C18   24  -0.259   0.000  -0.031
    1UNL     O7   25  -0.270  -0.037   0.111
    1UNL    C19   26  -0.401  -0.035   0.159
    1UNL    C20   27  -0.501  -0.142   0.088
    1UNL     O8   28  -0.612  -0.156   0.175
    1UNL    C21   29  -0.459   0.111   0.149
    1UNL     O9   30  -0.593   0.119   0.199
    1UNL    C22   31  -0.459   0.158   0.003
    1UNL    O10   32  -0.493   0.295   0.010
    1UNL    C23   33  -0.316   0.141  -0.048
    1UNL    O11   34  -0.227   0.237   0.006
    1UNL     H1   35  -0.233  -0.265   0.125
    1UNL     H2   36  -0.214  -0.267  -0.055
    1UNL     H3   37  -0.149  -0.395   0.037
    1UNL     H4   38  -0.012  -0.203   0.262
    1UNL     H5   39   0.078  -0.342   0.184
    1UNL     H6   40   0.361  -0.134   0.243
    1UNL     H7   41   0.229  -0.223  -0.158
    1UNL     H8   42   0.108   0.142  -0.133
    1UNL     H9   43   0.061   0.013  -0.257
    1UNL    H10   44   0.444   0.081  -0.396
    1UNL    H11   45   0.668   0.079  -0.467
    1UNL    H12   46   0.832   0.178  -0.304
    1UNL    H13   47   0.789   0.188  -0.071
    1UNL    H14   48   0.538   0.191  -0.002
    1UNL    H15   49   0.228   0.062   0.088
    1UNL    H16   50  -0.049   0.013   0.214
    1UNL    H17   51  -0.028   0.138   0.095
    1UNL    H18   52  -0.325  -0.071  -0.081
    1UNL    H19   53  -0.394  -0.061   0.267
    1UNL    H20   54  -0.454  -0.239   0.076
    1UNL    H21   55  -0.536  -0.100  -0.008
    1UNL    H22   56  -0.619  -0.076   0.228
    1UNL    H23   57  -0.401   0.174   0.213
    1UNL    H24   58  -0.635   0.198   0.159
    1UNL    H25   59  -0.531   0.105  -0.059
    1UNL    H26   60  -0.412   0.350   0.020
    1UNL    H27   61  -0.303   0.164  -0.155
    1UNL    H28   62  -0.137   0.220  -0.032
   0.00000   0.00000   0.00000   0.00000   0.00000   0.00000   0.00000   0.00000   0.00000
Generated with MDTraj, t= 88.0
 62
    1UNL     C1    1  -0.181  -0.298   0.049
    1UNL     C2    2  -0.044  -0.226   0.035
    1UNL     C3    3   0.027  -0.238   0.174
    1UNL     C4    4   0.162  -0.169   0.161
    1UNL     O1    5   0.225  -0.156   0.289
    1UNL     O2    6   0.241  -0.236   0.063
    1UNL     C5    7   0.165  -0.216  -0.061
    1UNL     O3    8   0.043  -0.293  -0.053
    1UNL     C6    9   0.118  -0.068  -0.054
    1UNL     C7   10   0.150   0.028  -0.165
    1UNL     O4   11   0.284   0.033  -0.207
    1UNL     C8   12   0.358   0.127  -0.149
    1UNL     O5   13   0.322   0.178  -0.046
    1UNL     C9   14   0.488   0.141  -0.200
    1UNL    C10   15   0.517   0.113  -0.335
    1UNL    C11   16   0.647   0.126  -0.385
    1UNL    C12   17   0.744   0.161  -0.296
    1UNL    C13   18   0.721   0.193  -0.160
    1UNL    C14   19   0.592   0.187  -0.119
    1UNL    C15   20   0.141  -0.024   0.097
    1UNL    C16   21  -0.001   0.025   0.101
    1UNL    C17   22  -0.037  -0.068  -0.014
    1UNL     O6   23  -0.141  -0.027  -0.096
    1UNL    C18   24  -0.263   0.004  -0.041
    1UNL     O7   25  -0.266  -0.041   0.102
    1UNL    C19   26  -0.399  -0.039   0.155
    1UNL    C20   27  -0.498  -0.138   0.098
    1UNL     O8   28  -0.618  -0.144   0.183
    1UNL    C21   29  -0.454   0.106   0.153
    1UNL     O9   30  -0.592   0.126   0.194
    1UNL    C22   31  -0.449   0.163   0.013
    1UNL    O10   32  -0.488   0.300   0.012
    1UNL    C23   33  -0.306   0.154  -0.051
    1UNL    O11   34  -0.212   0.238   0.015
    1UNL     H1   35  -0.228  -0.270   0.139
    1UNL     H2   36  -0.240  -0.280  -0.039
    1UNL     H3   37  -0.164  -0.408   0.058
    1UNL     H4   38  -0.043  -0.185   0.253
    1UNL     H5   39   0.051  -0.340   0.203
    1UNL     H6   40   0.317  -0.189   0.288
    1UNL     H7   41   0.216  -0.247  -0.153
    1UNL     H8   42   0.134   0.127  -0.136
    1UNL     H9   43   0.082  -0.007  -0.242
    1UNL    H10   44   0.447   0.063  -0.407
    1UNL    H11   45   0.678   0.119  -0.487
    1UNL    H12   46   0.851   0.145  -0.331
    1UNL    H13   47   0.803   0.216  -0.095
    1UNL    H14   48   0.569   0.217  -0.022
    1UNL    H15   49   0.202   0.066   0.112
    1UNL    H16   50  -0.049  -0.004   0.198
    1UNL    H17   51  -0.007   0.133   0.072
    1UNL    H18   52  -0.337  -0.062  -0.086
    1UNL    H19   53  -0.376  -0.072   0.262
    1UNL    H20   54  -0.456  -0.239   0.105
    1UNL    H21   55  -0.524  -0.121  -0.009
    1UNL    H22   56  -0.656  -0.051   0.180
    1UNL    H23   57  -0.390   0.159   0.222
    1UNL    H24   58  -0.625   0.209   0.152
    1UNL    H25   59  -0.517   0.110  -0.055
    1UNL    H26   60  -0.409   0.349   0.046
    1UNL    H27   61  -0.317   0.196  -0.157
    1UNL    H28   62  -0.127   0.220  -0.030
   0.00000   0.00000   0.00000   0.00000   0.00000   0.00000   0.00000   0.00000   0.00000
Generated with MDTraj, t= 89.0
 62
    1UNL     C1    1  -0.182  -0.304   0.034
    1UNL     C2    2  -0.044  -0.242   0.039
    1UNL     C3    3   0.029  -0.254   0.175
    1UNL     C4    4   0.161  -0.174   0.172
    1UNL     O1    5   0.232  -0.177   0.291
    1UNL     O2    6   0.237  -0.243   0.063
    1UNL     C5    7   0.168  -0.218  -0.063
    1UNL     O3    8   0.047  -0.302  -0.061
    1UNL     C6    9   0.118  -0.064  -0.047
    1UNL     C7   10   0.144   0.046  -0.162
    1UNL     O4   11   0.284   0.032  -0.206
    1UNL     C8   12   0.357   0.116  -0.139
    1UNL     O5   13   0.334   0.176  -0.035
    1UNL     C9   14   0.500   0.128  -0.196
    1UNL    C10   15   0.525   0.094  -0.330
    1UNL    C11   16   0.644   0.142  -0.387
    1UNL    C12   17   0.740   0.200  -0.311
    1UNL    C13   18   0.715   0.235  -0.179
    1UNL    C14   19   0.594   0.206  -0.122
    1UNL    C15   20   0.145  -0.032   0.104
    1UNL    C16   21  -0.003   0.010   0.113
    1UNL    C17   22  -0.039  -0.081   0.002
    1UNL     O6   23  -0.135  -0.040  -0.084
    1UNL    C18   24  -0.265  -0.011  -0.036
    1UNL     O7   25  -0.286  -0.050   0.103
    1UNL    C19   26  -0.416  -0.025   0.161
    1UNL    C20   27  -0.511  -0.127   0.108
    1UNL     O8   28  -0.637  -0.129   0.175
    1UNL    C21   29  -0.457   0.125   0.151
    1UNL     O9   30  -0.580   0.155   0.224
    1UNL    C22   31  -0.445   0.168   0.002
    1UNL    O10   32  -0.465   0.309  -0.010
    1UNL    C23   33  -0.305   0.131  -0.062
    1UNL    O11   34  -0.214   0.217  -0.013
    1UNL     H1   35  -0.250  -0.261   0.103
    1UNL     H2   36  -0.215  -0.279  -0.068
    1UNL     H3   37  -0.185  -0.412   0.051
    1UNL     H4   38  -0.051  -0.226   0.255
    1UNL     H5   39   0.043  -0.362   0.180
    1UNL     H6   40   0.319  -0.144   0.273
    1UNL     H7   41   0.230  -0.244  -0.150
    1UNL     H8   42   0.127   0.136  -0.112
    1UNL     H9   43   0.083   0.035  -0.251
    1UNL    H10   44   0.450   0.039  -0.377
    1UNL    H11   45   0.660   0.115  -0.492
    1UNL    H12   46   0.835   0.221  -0.346
    1UNL    H13   47   0.798   0.273  -0.119
    1UNL    H14   48   0.561   0.237  -0.020
    1UNL    H15   49   0.234   0.037   0.108
    1UNL    H16   50  -0.066  -0.016   0.206
    1UNL    H17   51  -0.004   0.114   0.085
    1UNL    H18   52  -0.330  -0.081  -0.091
    1UNL    H19   53  -0.397  -0.053   0.272
    1UNL    H20   54  -0.478  -0.232   0.105
    1UNL    H21   55  -0.535  -0.101   0.002
    1UNL    H22   56  -0.679  -0.041   0.182
    1UNL    H23   57  -0.379   0.184   0.202
    1UNL    H24   58  -0.594   0.251   0.210
    1UNL    H25   59  -0.524   0.118  -0.058
    1UNL    H26   60  -0.381   0.350   0.011
    1UNL    H27   61  -0.313   0.149  -0.176
    1UNL    H28   62  -0.131   0.174  -0.045
   0.00000   0.00000   0.00000   0.00000   0.00000   0.00000   0.00000   0.00000   0.00000
Generated with MDTraj, t= 90.0
 62
    1UNL     C1    1  -0.160  -0.317   0.028
    1UNL     C2    2  -0.033  -0.243   0.033
    1UNL     C3    3   0.054  -0.270   0.172
    1UNL     C4    4   0.183  -0.190   0.158
    1UNL     O1    5   0.264  -0.197   0.276
    1UNL     O2    6   0.254  -0.234   0.039
    1UNL     C5    7   0.166  -0.208  -0.071
    1UNL     O3    8   0.055  -0.298  -0.066
    1UNL     C6    9   0.109  -0.066  -0.032
    1UNL     C7   10   0.132   0.038  -0.146
    1UNL     O4   11   0.266   0.031  -0.199
    1UNL     C8   12   0.351   0.105  -0.119
    1UNL     O5   13   0.326   0.149  -0.008
    1UNL     C9   14   0.483   0.131  -0.175
    1UNL    C10   15   0.512   0.079  -0.301
    1UNL    C11   16   0.620   0.127  -0.375
    1UNL    C12   17   0.709   0.218  -0.316
    1UNL    C13   18   0.685   0.263  -0.185
    1UNL    C14   19   0.566   0.229  -0.117
    1UNL    C15   20   0.135  -0.041   0.121
    1UNL    C16   21  -0.014  -0.005   0.139
    1UNL    C17   22  -0.041  -0.090   0.015
    1UNL     O6   23  -0.126  -0.043  -0.084
    1UNL    C18   24  -0.258  -0.022  -0.041
    1UNL     O7   25  -0.276  -0.057   0.100
    1UNL    C19   26  -0.407  -0.019   0.159
    1UNL    C20   27  -0.525  -0.108   0.119
    1UNL     O8   28  -0.646  -0.076   0.176
    1UNL    C21   29  -0.438   0.134   0.143
    1UNL     O9   30  -0.560   0.177   0.209
    1UNL    C22   31  -0.441   0.166  -0.008
    1UNL    O10   32  -0.464   0.305  -0.022
    1UNL    C23   33  -0.304   0.122  -0.079
    1UNL    O11   34  -0.209   0.221  -0.052
    1UNL     H1   35  -0.228  -0.280   0.105
    1UNL     H2   36  -0.213  -0.305  -0.068
    1UNL     H3   37  -0.145  -0.418   0.058
    1UNL     H4   38  -0.005  -0.232   0.254
    1UNL     H5   39   0.062  -0.382   0.184
    1UNL     H6   40   0.321  -0.272   0.267
    1UNL     H7   41   0.228  -0.193  -0.163
    1UNL     H8   42   0.123   0.139  -0.116
    1UNL     H9   43   0.064   0.016  -0.232
    1UNL    H10   44   0.430   0.032  -0.360
    1UNL    H11   45   0.640   0.084  -0.469
    1UNL    H12   46   0.799   0.252  -0.374
    1UNL    H13   47   0.757   0.334  -0.146
    1UNL    H14   48   0.546   0.283  -0.031
    1UNL    H15   49   0.214   0.034   0.152
    1UNL    H16   50  -0.045  -0.030   0.246
    1UNL    H17   51  -0.024   0.099   0.122
    1UNL    H18   52  -0.311  -0.103  -0.096
    1UNL    H19   53  -0.394  -0.046   0.272
    1UNL    H20   54  -0.503  -0.212   0.148
    1UNL    H21   55  -0.540  -0.115   0.008
    1UNL    H22   56  -0.648   0.011   0.220
    1UNL    H23   57  -0.358   0.192   0.197
    1UNL    H24   58  -0.551   0.274   0.222
    1UNL    H25   59  -0.536   0.115  -0.041
    1UNL    H26   60  -0.374   0.353  -0.015
    1UNL    H27   61  -0.330   0.133  -0.192
    1UNL    H28   62  -0.129   0.177  -0.091
   0.00000   0.00000   0.00000   0.00000   0.00000   0.00000   0.00000   0.00000   0.00000
Generated with MDTraj, t= 91.0
 62
    1UNL     C1    1  -0.167  -0.342   0.034
    1UNL     C2    2  -0.032  -0.273   0.036
    1UNL     C3    3   0.059  -0.292   0.161
    1UNL     C4    4   0.186  -0.199   0.146
    1UNL     O1    5   0.257  -0.199   0.273
    1UNL     O2    6   0.253  -0.246   0.029
    1UNL     C5    7   0.164  -0.218  -0.079
    1UNL     O3    8   0.053  -0.308  -0.073
    1UNL     C6    9   0.106  -0.078  -0.039
    1UNL     C7   10   0.108   0.047  -0.135
    1UNL     O4   11   0.229   0.080  -0.196
    1UNL     C8   12   0.331   0.135  -0.113
    1UNL     O5   13   0.321   0.143   0.008
    1UNL     C9   14   0.457   0.164  -0.179
    1UNL    C10   15   0.501   0.089  -0.287
    1UNL    C11   16   0.626   0.107  -0.345
    1UNL    C12   17   0.707   0.214  -0.302
    1UNL    C13   18   0.671   0.283  -0.188
    1UNL    C14   19   0.545   0.256  -0.127
    1UNL    C15   20   0.142  -0.059   0.108
    1UNL    C16   21  -0.009  -0.031   0.138
    1UNL    C17   22  -0.037  -0.112   0.012
    1UNL     O6   23  -0.135  -0.073  -0.084
    1UNL    C18   24  -0.260  -0.031  -0.022
    1UNL     O7   25  -0.262  -0.032   0.123
    1UNL    C19   26  -0.391   0.001   0.175
    1UNL    C20   27  -0.510  -0.089   0.119
    1UNL     O8   28  -0.623  -0.055   0.180
    1UNL    C21   29  -0.420   0.153   0.136
    1UNL     O9   30  -0.538   0.206   0.188
    1UNL    C22   31  -0.433   0.163  -0.015
    1UNL    O10   32  -0.448   0.292  -0.053
    1UNL    C23   33  -0.297   0.109  -0.079
    1UNL    O11   34  -0.197   0.203  -0.048
    1UNL     H1   35  -0.229  -0.286   0.107
    1UNL     H2   36  -0.206  -0.310  -0.063
    1UNL     H3   37  -0.179  -0.446   0.054
    1UNL     H4   38   0.010  -0.277   0.250
    1UNL     H5   39   0.091  -0.402   0.156
    1UNL     H6   40   0.351  -0.212   0.261
    1UNL     H7   41   0.208  -0.211  -0.182
    1UNL     H8   42   0.096   0.140  -0.084
    1UNL     H9   43   0.041   0.035  -0.228
    1UNL    H10   44   0.431   0.016  -0.319
    1UNL    H11   45   0.648   0.053  -0.440
    1UNL    H12   46   0.802   0.213  -0.345
    1UNL    H13   47   0.732   0.360  -0.145
    1UNL    H14   48   0.514   0.325  -0.045
    1UNL    H15   49   0.219   0.020   0.131
    1UNL    H16   50  -0.043  -0.080   0.230
    1UNL    H17   51  -0.044   0.073   0.139
    1UNL    H18   52  -0.331  -0.107  -0.066
    1UNL    H19   53  -0.389  -0.018   0.291
    1UNL    H20   54  -0.489  -0.196   0.127
    1UNL    H21   55  -0.508  -0.071   0.010
    1UNL    H22   56  -0.628   0.046   0.181
    1UNL    H23   57  -0.333   0.221   0.168
    1UNL    H24   58  -0.541   0.300   0.162
    1UNL    H25   59  -0.516   0.103  -0.063
    1UNL    H26   60  -0.361   0.330  -0.055
    1UNL    H27   61  -0.315   0.122  -0.193
    1UNL    H28   62  -0.109   0.157  -0.041
   0.00000   0.00000   0.00000   0.00000   0.00000   0.00000   0.00000   0.00000   0.00000
Generated with MDTraj, t= 92.0
 62
    1UNL     C1    1  -0.155  -0.350   0.011
    1UNL     C2    2  -0.024  -0.279   0.024
    1UNL     C3    3   0.072  -0.314   0.149
    1UNL     C4    4   0.199  -0.215   0.145
    1UNL     O1    5   0.276  -0.229   0.263
    1UNL     O2    6   0.265  -0.248   0.023
    1UNL     C5    7   0.173  -0.215  -0.080
    1UNL     O3    8   0.073  -0.312  -0.093
    1UNL     C6    9   0.103  -0.083  -0.039
    1UNL     C7   10   0.116   0.028  -0.140
    1UNL     O4   11   0.246   0.035  -0.183
    1UNL     C8   12   0.311   0.136  -0.120
    1UNL     O5   13   0.273   0.202  -0.025
    1UNL     C9   14   0.456   0.155  -0.176
    1UNL    C10   15   0.509   0.075  -0.270
    1UNL    C11   16   0.626   0.108  -0.325
    1UNL    C12   17   0.694   0.223  -0.279
    1UNL    C13   18   0.643   0.300  -0.177
    1UNL    C14   19   0.529   0.254  -0.114
    1UNL    C15   20   0.151  -0.062   0.113
    1UNL    C16   21   0.003  -0.038   0.142
    1UNL    C17   22  -0.046  -0.121   0.016
    1UNL     O6   23  -0.144  -0.069  -0.081
    1UNL    C18   24  -0.266  -0.025  -0.024
    1UNL     O7   25  -0.278  -0.026   0.116
    1UNL    C19   26  -0.397   0.017   0.178
    1UNL    C20   27  -0.513  -0.084   0.180
    1UNL     O8   28  -0.633  -0.030   0.227
    1UNL    C21   29  -0.426   0.160   0.122
    1UNL     O9   30  -0.546   0.221   0.166
    1UNL    C22   31  -0.432   0.166  -0.032
    1UNL    O10   32  -0.435   0.300  -0.068
    1UNL    C23   33  -0.291   0.114  -0.084
    1UNL    O11   34  -0.188   0.207  -0.054
    1UNL     H1   35  -0.213  -0.331   0.103
    1UNL     H2   36  -0.202  -0.306  -0.076
    1UNL     H3   37  -0.132  -0.455   0.003
    1UNL     H4   38   0.024  -0.313   0.242
    1UNL     H5   39   0.103  -0.420   0.132
    1UNL     H6   40   0.364  -0.187   0.257
    1UNL     H7   41   0.227  -0.206  -0.178
    1UNL     H8   42   0.087   0.126  -0.101
    1UNL     H9   43   0.063  -0.005  -0.239
    1UNL    H10   44   0.437  -0.003  -0.297
    1UNL    H11   45   0.662   0.038  -0.394
    1UNL    H12   46   0.793   0.243  -0.327
    1UNL    H13   47   0.705   0.374  -0.125
    1UNL    H14   48   0.483   0.310  -0.037
    1UNL    H15   49   0.228   0.021   0.118
    1UNL    H16   50  -0.023  -0.088   0.231
    1UNL    H17   51  -0.038   0.066   0.143
    1UNL    H18   52  -0.337  -0.095  -0.076
    1UNL    H19   53  -0.367   0.033   0.290
    1UNL    H20   54  -0.479  -0.174   0.233
    1UNL    H21   55  -0.523  -0.126   0.077
    1UNL    H22   56  -0.636   0.061   0.203
    1UNL    H23   57  -0.350   0.238   0.162
    1UNL    H24   58  -0.550   0.315   0.137
    1UNL    H25   59  -0.521   0.112  -0.077
    1UNL    H26   60  -0.336   0.332  -0.075
    1UNL    H27   61  -0.289   0.104  -0.196
    1UNL    H28   62  -0.123   0.161   0.006
   0.00000   0.00000   0.00000   0.00000   0.00000   0.00000   0.00000   0.00000   0.00000
Generated with MDTraj, t= 93.0
 62
    1UNL     C1    1  -0.153  -0.374   0.029
    1UNL     C2    2  -0.022  -0.295   0.025
    1UNL     C3    3   0.064  -0.312   0.148
    1UNL     C4    4   0.195  -0.225   0.132
    1UNL     O1    5   0.275  -0.237   0.250
    1UNL     O2    6   0.262  -0.269   0.014
    1UNL     C5    7   0.165  -0.241  -0.094
    1UNL     O3    8   0.057  -0.334  -0.079
    1UNL     C6    9   0.101  -0.102  -0.053
    1UNL     C7   10   0.112   0.014  -0.153
    1UNL     O4   11   0.242   0.047  -0.193
    1UNL     C8   12   0.309   0.158  -0.131
    1UNL     O5   13   0.266   0.216  -0.033
    1UNL     C9   14   0.449   0.177  -0.175
    1UNL    C10   15   0.508   0.100  -0.272
    1UNL    C11   16   0.646   0.112  -0.291
    1UNL    C12   17   0.716   0.220  -0.240
    1UNL    C13   18   0.646   0.307  -0.155
    1UNL    C14   19   0.512   0.290  -0.127
    1UNL    C15   20   0.142  -0.074   0.093
    1UNL    C16   21  -0.007  -0.033   0.123
    1UNL    C17   22  -0.043  -0.137   0.002
    1UNL     O6   23  -0.165  -0.103  -0.078
    1UNL    C18   24  -0.268  -0.024  -0.012
    1UNL     O7   25  -0.258  -0.001   0.128
    1UNL    C19   26  -0.385   0.046   0.178
    1UNL    C20   27  -0.497  -0.057   0.175
    1UNL     O8   28  -0.604  -0.040   0.272
    1UNL    C21   29  -0.425   0.179   0.119
    1UNL     O9   30  -0.554   0.225   0.170
    1UNL    C22   31  -0.418   0.174  -0.034
    1UNL    O10   32  -0.447   0.290  -0.102
    1UNL    C23   33  -0.285   0.115  -0.079
    1UNL    O11   34  -0.179   0.199  -0.055
    1UNL     H1   35  -0.210  -0.344   0.116
    1UNL     H2   36  -0.205  -0.365  -0.065
    1UNL     H3   37  -0.119  -0.478   0.045
    1UNL     H4   38   0.014  -0.287   0.245
    1UNL     H5   39   0.089  -0.414   0.152
    1UNL     H6   40   0.372  -0.233   0.230
    1UNL     H7   41   0.208  -0.232  -0.197
    1UNL     H8   42   0.072   0.110  -0.115
    1UNL     H9   43   0.054  -0.025  -0.247
    1UNL    H10   44   0.445   0.025  -0.317
    1UNL    H11   45   0.701   0.032  -0.346
    1UNL    H12   46   0.821   0.227  -0.256
    1UNL    H13   47   0.697   0.392  -0.120
    1UNL    H14   48   0.468   0.346  -0.043
    1UNL    H15   49   0.218   0.010   0.099
    1UNL    H16   50  -0.039  -0.056   0.221
    1UNL    H17   51  -0.018   0.077   0.112
    1UNL    H18   52  -0.358  -0.083  -0.044
    1UNL    H19   53  -0.365   0.066   0.291
    1UNL    H20   54  -0.456  -0.156   0.198
    1UNL    H21   55  -0.536  -0.085   0.074
    1UNL    H22   56  -0.638   0.056   0.280
    1UNL    H23   57  -0.355   0.263   0.150
    1UNL    H24   58  -0.575   0.306   0.120
    1UNL    H25   59  -0.502   0.110  -0.074
    1UNL    H26   60  -0.371   0.351  -0.115
    1UNL    H27   61  -0.282   0.112  -0.189
    1UNL    H28   62  -0.156   0.187   0.041
   0.00000   0.00000   0.00000   0.00000   0.00000   0.00000   0.00000   0.00000   0.00000
Generated with MDTraj, t= 94.0
 62
    1UNL     C1    1  -0.172  -0.338   0.056
    1UNL     C2    2  -0.031  -0.282   0.039
    1UNL     C3    3   0.069  -0.309   0.153
    1UNL     C4    4   0.198  -0.223   0.121
    1UNL     O1    5   0.288  -0.232   0.231
    1UNL     O2    6   0.250  -0.273  -0.005
    1UNL     C5    7   0.149  -0.239  -0.108
    1UNL     O3    8   0.031  -0.325  -0.090
    1UNL     C6    9   0.100  -0.093  -0.061
    1UNL     C7   10   0.100   0.012  -0.177
    1UNL     O4   11   0.235   0.032  -0.211
    1UNL     C8   12   0.294   0.132  -0.125
    1UNL     O5   13   0.230   0.200  -0.048
    1UNL     C9   14   0.434   0.158  -0.150
    1UNL    C10   15   0.513   0.082  -0.237
    1UNL    C11   16   0.647   0.122  -0.263
    1UNL    C12   17   0.698   0.238  -0.211
    1UNL    C13   18   0.611   0.318  -0.136
    1UNL    C14   19   0.488   0.277  -0.099
    1UNL    C15   20   0.160  -0.075   0.080
    1UNL    C16   21   0.013  -0.036   0.120
    1UNL    C17   22  -0.034  -0.129   0.005
    1UNL     O6   23  -0.137  -0.083  -0.084
    1UNL    C18   24  -0.255  -0.030  -0.021
    1UNL     O7   25  -0.241  -0.005   0.116
    1UNL    C19   26  -0.360   0.050   0.189
    1UNL    C20   27  -0.467  -0.056   0.211
    1UNL     O8   28  -0.577  -0.009   0.283
    1UNL    C21   29  -0.414   0.176   0.113
    1UNL     O9   30  -0.549   0.204   0.153
    1UNL    C22   31  -0.419   0.164  -0.043
    1UNL    O10   32  -0.440   0.291  -0.095
    1UNL    C23   33  -0.286   0.099  -0.097
    1UNL    O11   34  -0.183   0.196  -0.073
    1UNL     H1   35  -0.215  -0.300   0.145
    1UNL     H2   36  -0.238  -0.325  -0.028
    1UNL     H3   37  -0.159  -0.448   0.075
    1UNL     H4   38   0.031  -0.284   0.258
    1UNL     H5   39   0.093  -0.407   0.160
    1UNL     H6   40   0.338  -0.320   0.230
    1UNL     H7   41   0.190  -0.265  -0.208
    1UNL     H8   42   0.054   0.109  -0.156
    1UNL     H9   43   0.048  -0.035  -0.269
    1UNL    H10   44   0.467   0.007  -0.302
    1UNL    H11   45   0.708   0.056  -0.316
    1UNL    H12   46   0.794   0.279  -0.239
    1UNL    H13   47   0.651   0.413  -0.095
    1UNL    H14   48   0.425   0.349  -0.049
    1UNL    H15   49   0.237   0.009   0.085
    1UNL    H16   50  -0.022  -0.075   0.213
    1UNL    H17   51  -0.003   0.071   0.120
    1UNL    H18   52  -0.332  -0.108  -0.039
    1UNL    H19   53  -0.312   0.078   0.289
    1UNL    H20   54  -0.433  -0.154   0.248
    1UNL    H21   55  -0.508  -0.098   0.116
    1UNL    H22   56  -0.604   0.079   0.257
    1UNL    H23   57  -0.351   0.266   0.136
    1UNL    H24   58  -0.590   0.257   0.082
    1UNL    H25   59  -0.499   0.091  -0.070
    1UNL    H26   60  -0.356   0.334  -0.082
    1UNL    H27   61  -0.276   0.088  -0.205
    1UNL    H28   62  -0.088   0.174  -0.086
   0.00000   0.00000   0.00000   0.00000   0.00000   0.00000   0.00000   0.00000   0.00000
Generated with MDTraj, t= 95.0
 62
    1UNL     C1    1  -0.167  -0.316   0.070
    1UNL     C2    2  -0.031  -0.277   0.037
    1UNL     C3    3   0.073  -0.290   0.153
    1UNL     C4    4   0.208  -0.229   0.107
    1UNL     O1    5   0.304  -0.209   0.207
    1UNL     O2    6   0.248  -0.304  -0.004
    1UNL     C5    7   0.145  -0.284  -0.105
    1UNL     O3    8   0.020  -0.353  -0.074
    1UNL     C6    9   0.112  -0.128  -0.094
    1UNL     C7   10   0.129  -0.038  -0.211
    1UNL     O4   11   0.258   0.023  -0.222
    1UNL     C8   12   0.280   0.118  -0.130
    1UNL     O5   13   0.203   0.158  -0.048
    1UNL     C9   14   0.425   0.167  -0.145
    1UNL    C10   15   0.516   0.091  -0.217
    1UNL    C11   16   0.648   0.133  -0.229
    1UNL    C12   17   0.688   0.250  -0.169
    1UNL    C13   18   0.595   0.326  -0.106
    1UNL    C14   19   0.469   0.283  -0.090
    1UNL    C15   20   0.179  -0.086   0.053
    1UNL    C16   21   0.045  -0.029   0.098
    1UNL    C17   22  -0.030  -0.121  -0.005
    1UNL     O6   23  -0.126  -0.053  -0.086
    1UNL    C18   24  -0.251  -0.018  -0.024
    1UNL     O7   25  -0.235   0.013   0.114
    1UNL    C19   26  -0.360   0.066   0.182
    1UNL    C20   27  -0.466  -0.050   0.202
    1UNL     O8   28  -0.549  -0.036   0.312
    1UNL    C21   29  -0.414   0.190   0.110
    1UNL     O9   30  -0.527   0.243   0.179
    1UNL    C22   31  -0.440   0.161  -0.037
    1UNL    O10   32  -0.482   0.285  -0.097
    1UNL    C23   33  -0.307   0.109  -0.107
    1UNL    O11   34  -0.210   0.216  -0.098
    1UNL     H1   35  -0.220  -0.264   0.148
    1UNL     H2   36  -0.225  -0.310  -0.021
    1UNL     H3   37  -0.170  -0.424   0.095
    1UNL     H4   38   0.039  -0.245   0.249
    1UNL     H5   39   0.086  -0.395   0.175
    1UNL     H6   40   0.354  -0.294   0.234
    1UNL     H7   41   0.176  -0.326  -0.201
    1UNL     H8   42   0.053   0.036  -0.196
    1UNL     H9   43   0.099  -0.101  -0.302
    1UNL    H10   44   0.482  -0.004  -0.254
    1UNL    H11   45   0.716   0.088  -0.305
    1UNL    H12   46   0.793   0.282  -0.150
    1UNL    H13   47   0.627   0.418  -0.069
    1UNL    H14   48   0.396   0.348  -0.044
    1UNL    H15   49   0.271  -0.018   0.054
    1UNL    H16   50   0.016  -0.056   0.200
    1UNL    H17   51   0.035   0.074   0.078
    1UNL    H18   52  -0.326  -0.097  -0.038
    1UNL    H19   53  -0.328   0.089   0.286
    1UNL    H20   54  -0.431  -0.154   0.191
    1UNL    H21   55  -0.533  -0.052   0.113
    1UNL    H22   56  -0.587   0.052   0.297
    1UNL    H23   57  -0.340   0.271   0.113
    1UNL    H24   58  -0.587   0.285   0.114
    1UNL    H25   59  -0.528   0.096  -0.046
    1UNL    H26   60  -0.393   0.338  -0.106
    1UNL    H27   61  -0.326   0.091  -0.209
    1UNL    H28   62  -0.164   0.196  -0.015
   0.00000   0.00000   0.00000   0.00000   0.00000   0.00000   0.00000   0.00000   0.00000
Generated with MDTraj, t= 96.0
 62
    1UNL     C1    1  -0.197  -0.302   0.090
    1UNL     C2    2  -0.057  -0.264   0.049
    1UNL     C3    3   0.051  -0.276   0.165
    1UNL     C4    4   0.188  -0.239   0.110
    1UNL     O1    5   0.299  -0.242   0.203
    1UNL     O2    6   0.228  -0.318  -0.006
    1UNL     C5    7   0.123  -0.288  -0.102
    1UNL     O3    8  -0.005  -0.342  -0.061
    1UNL     C6    9   0.104  -0.127  -0.092
    1UNL     C7   10   0.134  -0.046  -0.228
    1UNL     O4   11   0.263   0.002  -0.236
    1UNL     C8   12   0.286   0.114  -0.173
    1UNL     O5   13   0.200   0.178  -0.120
    1UNL     C9   14   0.428   0.169  -0.161
    1UNL    C10   15   0.547   0.105  -0.208
    1UNL    C11   16   0.674   0.161  -0.193
    1UNL    C12   17   0.686   0.274  -0.114
    1UNL    C13   18   0.578   0.338  -0.064
    1UNL    C14   19   0.454   0.286  -0.090
    1UNL    C15   20   0.170  -0.095   0.042
    1UNL    C16   21   0.039  -0.013   0.077
    1UNL    C17   22  -0.036  -0.118  -0.017
    1UNL     O6   23  -0.138  -0.068  -0.099
    1UNL    C18   24  -0.245  -0.011  -0.025
    1UNL     O7   25  -0.208   0.029   0.109
    1UNL    C19   26  -0.318   0.072   0.189
    1UNL    C20   27  -0.407  -0.052   0.234
    1UNL     O8   28  -0.538  -0.025   0.282
    1UNL    C21   29  -0.389   0.185   0.120
    1UNL     O9   30  -0.501   0.230   0.190
    1UNL    C22   31  -0.432   0.143  -0.021
    1UNL    O10   32  -0.494   0.259  -0.088
    1UNL    C23   33  -0.311   0.098  -0.098
    1UNL    O11   34  -0.232   0.210  -0.115
    1UNL     H1   35  -0.231  -0.236   0.169
    1UNL     H2   36  -0.268  -0.296   0.006
    1UNL     H3   37  -0.213  -0.403   0.127
    1UNL     H4   38   0.026  -0.213   0.245
    1UNL     H5   39   0.073  -0.383   0.206
    1UNL     H6   40   0.338  -0.335   0.192
    1UNL     H7   41   0.149  -0.324  -0.201
    1UNL     H8   42   0.070   0.036  -0.227
    1UNL     H9   43   0.107  -0.109  -0.317
    1UNL    H10   44   0.536   0.010  -0.258
    1UNL    H11   45   0.763   0.125  -0.236
    1UNL    H12   46   0.781   0.309  -0.090
    1UNL    H13   47   0.579   0.436  -0.014
    1UNL    H14   48   0.367   0.332  -0.046
    1UNL    H15   49   0.261  -0.027   0.036
    1UNL    H16   50   0.008   0.001   0.182
    1UNL    H17   51   0.041   0.083   0.037
    1UNL    H18   52  -0.317  -0.094  -0.010
    1UNL    H19   53  -0.294   0.108   0.289
    1UNL    H20   54  -0.347  -0.101   0.313
    1UNL    H21   55  -0.412  -0.136   0.161
    1UNL    H22   56  -0.551   0.075   0.276
    1UNL    H23   57  -0.327   0.273   0.109
    1UNL    H24   58  -0.559   0.278   0.126
    1UNL    H25   59  -0.508   0.066  -0.019
    1UNL    H26   60  -0.419   0.313  -0.115
    1UNL    H27   61  -0.328   0.066  -0.198
    1UNL    H28   62  -0.139   0.183  -0.101
   0.00000   0.00000   0.00000   0.00000   0.00000   0.00000   0.00000   0.00000   0.00000
Generated with MDTraj, t= 97.0
 62
    1UNL     C1    1  -0.188  -0.298   0.066
    1UNL     C2    2  -0.044  -0.261   0.030
    1UNL     C3    3   0.055  -0.286   0.155
    1UNL     C4    4   0.192  -0.240   0.105
    1UNL     O1    5   0.285  -0.252   0.216
    1UNL     O2    6   0.226  -0.338   0.001
    1UNL     C5    7   0.131  -0.302  -0.100
    1UNL     O3    8  -0.000  -0.357  -0.071
    1UNL     C6    9   0.121  -0.143  -0.105
    1UNL     C7   10   0.155  -0.069  -0.236
    1UNL     O4   11   0.281  -0.017  -0.219
    1UNL     C8   12   0.282   0.118  -0.180
    1UNL     O5   13   0.181   0.188  -0.175
    1UNL     C9   14   0.410   0.177  -0.152
    1UNL    C10   15   0.525   0.105  -0.190
    1UNL    C11   16   0.651   0.157  -0.168
    1UNL    C12   17   0.664   0.275  -0.092
    1UNL    C13   18   0.552   0.338  -0.042
    1UNL    C14   19   0.423   0.296  -0.080
    1UNL    C15   20   0.188  -0.096   0.028
    1UNL    C16   21   0.063  -0.013   0.055
    1UNL    C17   22  -0.016  -0.113  -0.030
    1UNL     O6   23  -0.125  -0.053  -0.106
    1UNL    C18   24  -0.235  -0.004  -0.021
    1UNL     O7   25  -0.194   0.045   0.116
    1UNL    C19   26  -0.313   0.080   0.199
    1UNL    C20   27  -0.414  -0.027   0.230
    1UNL     O8   28  -0.523   0.009   0.319
    1UNL    C21   29  -0.385   0.187   0.128
    1UNL     O9   30  -0.495   0.236   0.199
    1UNL    C22   31  -0.438   0.143  -0.011
    1UNL    O10   32  -0.506   0.250  -0.080
    1UNL    C23   33  -0.324   0.094  -0.094
    1UNL    O11   34  -0.246   0.208  -0.139
    1UNL     H1   35  -0.236  -0.237   0.147
    1UNL     H2   36  -0.250  -0.307  -0.024
    1UNL     H3   37  -0.188  -0.400   0.098
    1UNL     H4   38   0.039  -0.237   0.246
    1UNL     H5   39   0.059  -0.401   0.176
    1UNL     H6   40   0.283  -0.348   0.241
    1UNL     H7   41   0.161  -0.353  -0.191
    1UNL     H8   42   0.089   0.008  -0.256
    1UNL     H9   43   0.156  -0.141  -0.321
    1UNL    H10   44   0.535   0.009  -0.241
    1UNL    H11   45   0.746   0.101  -0.184
    1UNL    H12   46   0.759   0.337  -0.107
    1UNL    H13   47   0.567   0.422   0.020
    1UNL    H14   48   0.332   0.344  -0.047
    1UNL    H15   49   0.289  -0.045   0.010
    1UNL    H16   50   0.031  -0.011   0.160
    1UNL    H17   51   0.068   0.085   0.017
    1UNL    H18   52  -0.292  -0.095   0.001
    1UNL    H19   53  -0.272   0.108   0.292
    1UNL    H20   54  -0.361  -0.118   0.262
    1UNL    H21   55  -0.451  -0.052   0.128
    1UNL    H22   56  -0.560   0.096   0.302
    1UNL    H23   57  -0.308   0.260   0.117
    1UNL    H24   58  -0.545   0.293   0.136
    1UNL    H25   59  -0.510   0.066   0.008
    1UNL    H26   60  -0.428   0.290  -0.127
    1UNL    H27   61  -0.358   0.055  -0.189
    1UNL    H28   62  -0.148   0.190  -0.145
   0.00000   0.00000   0.00000   0.00000   0.00000   0.00000   0.00000   0.00000   0.00000
Generated with MDTraj, t= 98.0
 62
    1UNL     C1    1  -0.190  -0.321   0.073
    1UNL     C2    2  -0.046  -0.284   0.036
    1UNL     C3    3   0.058  -0.304   0.147
    1UNL     C4    4   0.196  -0.246   0.104
    1UNL     O1    5   0.293  -0.247   0.212
    1UNL     O2    6   0.234  -0.332  -0.015
    1UNL     C5    7   0.130  -0.305  -0.111
    1UNL     O3    8   0.003  -0.359  -0.081
    1UNL     C6    9   0.110  -0.147  -0.102
    1UNL     C7   10   0.133  -0.063  -0.228
    1UNL     O4   11   0.267  -0.016  -0.227
    1UNL     C8   12   0.271   0.110  -0.175
    1UNL     O5   13   0.171   0.175  -0.140
    1UNL     C9   14   0.405   0.177  -0.158
    1UNL    C10   15   0.523   0.108  -0.184
    1UNL    C11   16   0.634   0.165  -0.132
    1UNL    C12   17   0.637   0.283  -0.063
    1UNL    C13   18   0.516   0.347  -0.040
    1UNL    C14   19   0.397   0.299  -0.096
    1UNL    C15   20   0.178  -0.106   0.030
    1UNL    C16   21   0.051  -0.024   0.060
    1UNL    C17   22  -0.032  -0.126  -0.025
    1UNL     O6   23  -0.131  -0.066  -0.110
    1UNL    C18   24  -0.241  -0.014  -0.030
    1UNL     O7   25  -0.194   0.038   0.096
    1UNL    C19   26  -0.303   0.093   0.177
    1UNL    C20   27  -0.383  -0.023   0.256
    1UNL     O8   28  -0.466   0.017   0.359
    1UNL    C21   29  -0.376   0.204   0.100
    1UNL     O9   30  -0.484   0.252   0.181
    1UNL    C22   31  -0.432   0.149  -0.035
    1UNL    O10   32  -0.496   0.265  -0.093
    1UNL    C23   33  -0.305   0.101  -0.108
    1UNL    O11   34  -0.217   0.212  -0.123
    1UNL     H1   35  -0.228  -0.247   0.146
    1UNL     H2   36  -0.237  -0.310  -0.028
    1UNL     H3   37  -0.205  -0.423   0.103
    1UNL     H4   38   0.017  -0.239   0.226
    1UNL     H5   39   0.061  -0.411   0.181
    1UNL     H6   40   0.376  -0.220   0.171
    1UNL     H7   41   0.157  -0.341  -0.209
    1UNL     H8   42   0.065   0.015  -0.225
    1UNL     H9   43   0.111  -0.121  -0.319
    1UNL    H10   44   0.523   0.000  -0.199
    1UNL    H11   45   0.724   0.114  -0.157
    1UNL    H12   46   0.724   0.324  -0.030
    1UNL    H13   47   0.510   0.443   0.013
    1UNL    H14   48   0.295   0.333  -0.082
    1UNL    H15   49   0.272  -0.045   0.013
    1UNL    H16   50   0.013  -0.021   0.161
    1UNL    H17   51   0.058   0.069   0.004
    1UNL    H18   52  -0.323  -0.085  -0.010
    1UNL    H19   53  -0.254   0.145   0.252
    1UNL    H20   54  -0.306  -0.092   0.290
    1UNL    H21   55  -0.443  -0.087   0.189
    1UNL    H22   56  -0.502   0.109   0.345
    1UNL    H23   57  -0.315   0.286   0.066
    1UNL    H24   58  -0.531   0.319   0.129
    1UNL    H25   59  -0.510   0.077  -0.024
    1UNL    H26   60  -0.421   0.305  -0.151
    1UNL    H27   61  -0.332   0.057  -0.206
    1UNL    H28   62  -0.123   0.181  -0.123
   0.00000   0.00000   0.00000   0.00000   0.00000   0.00000   0.00000   0.00000   0.00000
Generated with MDTraj, t= 99.0
 62
    1UNL     C1    1  -0.187  -0.323   0.064
    1UNL     C2    2  -0.043  -0.286   0.025
    1UNL     C3    3   0.068  -0.303   0.150
    1UNL     C4    4   0.200  -0.255   0.085
    1UNL     O1    5   0.300  -0.242   0.182
    1UNL     O2    6   0.237  -0.342  -0.023
    1UNL     C5    7   0.134  -0.317  -0.120
    1UNL     O3    8   0.008  -0.374  -0.077
    1UNL     C6    9   0.112  -0.159  -0.110
    1UNL     C7   10   0.121  -0.060  -0.231
    1UNL     O4   11   0.239   0.016  -0.243
    1UNL     C8   12   0.240   0.112  -0.147
    1UNL     O5   13   0.138   0.162  -0.099
    1UNL     C9   14   0.374   0.180  -0.124
    1UNL    C10   15   0.487   0.105  -0.133
    1UNL    C11   16   0.610   0.163  -0.119
    1UNL    C12   17   0.619   0.291  -0.078
    1UNL    C13   18   0.502   0.371  -0.059
    1UNL    C14   19   0.381   0.306  -0.074
    1UNL    C15   20   0.178  -0.118   0.013
    1UNL    C16   21   0.052  -0.048   0.065
    1UNL    C17   22  -0.029  -0.138  -0.027
    1UNL     O6   23  -0.139  -0.093  -0.103
    1UNL    C18   24  -0.237  -0.020  -0.020
    1UNL     O7   25  -0.181   0.035   0.102
    1UNL    C19   26  -0.287   0.107   0.180
    1UNL    C20   27  -0.372   0.006   0.266
    1UNL     O8   28  -0.439   0.053   0.378
    1UNL    C21   29  -0.366   0.210   0.096
    1UNL     O9   30  -0.489   0.248   0.163
    1UNL    C22   31  -0.407   0.165  -0.052
    1UNL    O10   32  -0.462   0.277  -0.122
    1UNL    C23   33  -0.286   0.096  -0.114
    1UNL    O11   34  -0.181   0.189  -0.133
    1UNL     H1   35  -0.220  -0.259   0.147
    1UNL     H2   36  -0.255  -0.323  -0.024
    1UNL     H3   37  -0.172  -0.427   0.092
    1UNL     H4   38   0.033  -0.247   0.245
    1UNL     H5   39   0.085  -0.404   0.177
    1UNL     H6   40   0.319  -0.328   0.216
    1UNL     H7   41   0.162  -0.336  -0.224
    1UNL     H8   42   0.047   0.011  -0.239
    1UNL     H9   43   0.105  -0.125  -0.319
    1UNL    H10   44   0.480  -0.000  -0.156
    1UNL    H11   45   0.699   0.102  -0.126
    1UNL    H12   46   0.723   0.332  -0.065
    1UNL    H13   47   0.503   0.475  -0.036
    1UNL    H14   48   0.284   0.351  -0.065
    1UNL    H15   49   0.267  -0.048   0.008
    1UNL    H16   50   0.034  -0.055   0.169
    1UNL    H17   51   0.047   0.061   0.039
    1UNL    H18   52  -0.322  -0.083   0.006
    1UNL    H19   53  -0.240   0.169   0.249
    1UNL    H20   54  -0.313  -0.079   0.299
    1UNL    H21   55  -0.444  -0.048   0.203
    1UNL    H22   56  -0.506   0.123   0.353
    1UNL    H23   57  -0.318   0.309   0.092
    1UNL    H24   58  -0.545   0.308   0.108
    1UNL    H25   59  -0.488   0.095  -0.046
    1UNL    H26   60  -0.390   0.335  -0.137
    1UNL    H27   61  -0.305   0.043  -0.213
    1UNL    H28   62  -0.097   0.143  -0.154
   0.00000   0.00000   0.00000   0.00000   0.00000   0.00000   0.00000   0.00000   0.00000
