[ moleculetype ]
; name        nrexcl
res           1

[ atoms ]
;    nr  type  resnr resid  atom  cgnr     charge       mass
      1 TC4       1 res   C1        1      0.000     36.000
      2 SN6       1 res   C2        2      0.000     54.000
      3 SN5a      1 res   C3        3      0.000     54.000
      4 SC5       1 res   C4        4      0.000     54.000
      5 N4a       1 res   C5        5      0.000     72.000
      6 TC5       1 res   C6        6      0.000     36.000
      7 TC5       1 res   C7        7      0.000     36.000
      8 TC5       1 res   C8        8      0.000     36.000
      9 TN6       1 res   C9        9      0.000     36.000
     10 SN4a      1 res   C10      10      0.000     54.000
     11 TP1       1 res   C11      11      0.000     36.000
     12 SP4       1 res   C12      12      0.000     54.000
     13 TN6       1 res   C13      13      0.000     36.000

[ constraints ]
;  ai    aj   funct      b0(nm)
    1     2     1      0.36595
   10    11     1      0.24327
    4     9     1      0.22812
    2     3     1      0.28588
    6     8     1      0.29733
    3     4     1      0.31856
    7     8     1      0.28773
    1     3     1      0.35737
    5     6     1      0.31437
    6     7     1      0.25587
   10    12     1      0.28590
    1     9     1      0.26390
    2     4     1      0.28253

[ bonds ]
;  ai    aj   funct      b0(nm)          k(kJ/mol/nm^2)
    4     5     1      0.29966           2345.2
   10    13     1      0.26671          19610.1
    9    10     1      0.30342           8199.3
   12    13     1      0.27510          17829.7

[ angles ]
;  ai    aj    ak  funct     th0(deg)        k(kJ/mol/rad^2)
    1     2     3     1     65.15432          2992.31
    1     2     4     1     73.99160          2064.53
    1     3     2     1     68.31202          2534.69
    1     3     4     1     71.45772          2525.63
    1     9     4     1    106.96286          1310.35
    1     9    10     1    116.53337            13.59
    2     1     3     1     46.53364          6508.39
    2     1     9     1     75.09666          2064.77
    2     3     4     1     55.41438          2467.43
    2     4     3     1     56.40252          5143.14
    2     4     5     1    124.47840           172.79
    2     4     9     1     99.88547          1309.73
    3     1     9     1     58.75247          2519.26
    3     2     4     1     68.18310          2906.22
    3     4     5     1     73.10240           220.53
    3     4     9     1     68.21605          2341.17
    4     5     6     1    112.43123            41.43
    4     9    10     1    107.32248            86.42
    5     4     9     1     78.85455           331.87
    5     6     7     1    161.07529           677.12
    5     6     8     1    100.42001           869.25
    6     7     8     1     66.01637         12169.61
    6     8     7     1     51.83553         14510.82
    7     6     8     1     62.14809         10819.01
    9    10    11     1    139.41086           193.52
    9    10    12     1    115.49677           137.10
    9    10    13     1     59.19758           338.83
   10    12    13     1     56.68595          2111.81
   10    13    12     1     63.76269          1086.93
   11    10    12     1     79.81824           979.35
   11    10    13     1    133.82276           301.29
   12    10    13     1     59.55130          1602.29

[ dihedrals ]
;  ai    aj    ak    al  funct   phi0(deg)        k(kJ/mol)   mult
    1     2     3     4     1    -98.02151        4.777      1
    1     2     4     3     1    110.99653        4.008      1
    1     2     4     5     1     84.35292       10.748      1
    1     2     4     9     1    166.95286        7.005      1
    1     3     2     4     1     98.02151        4.777      1
    1     3     4     2     1   -104.02094        4.790      1
    1     3     4     5     1     52.92888       11.444      1
    1     3     4     9     1    137.90593        4.778      1
    1     9     4     2     1   -160.96759        8.526      1
    1     9     4     3     1   -112.80121        7.025      1
    1     9     4     5     1    -36.78778       12.946      1
    1     9    10    11     1    -92.02037        6.381      1
    1     9    10    12     1   -143.89198        4.989      1
    1     9    10    13     1   -174.72385        7.321      1
    2     1     3     4     1    121.91154        4.772      1
    2     1     9     4     1    164.07782        6.284      1
    2     1     9    10     1     25.42164       24.083      1
    2     3     1     9     1    -81.00595        7.038      1
    2     3     4     5     1    -23.62829       10.777      1
    2     3     4     9     1     61.91074        6.312      1
    2     4     5     6     1    112.24180       28.637      1
    2     4     9    10     1    -30.21040       24.443      1
    3     1     2     4     1   -107.02498        4.020      1
    3     1     9     4     1    117.02186        6.956      1
    3     1     9    10     1    -23.80307       24.708      1
    3     2     1     9     1    119.01105        7.001      1
    3     2     4     5     1    153.33596       11.442      1
    3     2     4     9     1   -124.95580        5.528      1
    3     4     5     6     1     84.73848       26.537      1
    3     4     9    10     1     18.69220       24.384      1
    4     2     1     9     1   -167.99789        6.259      1
    4     3     1     9     1   -140.01099        4.767      1
    4     5     6     7     1     76.19754       27.400      1
    4     5     6     8     1     80.47046       31.642      1
    4     9    10    11     1    136.99036       20.484      1
    4     9    10    12     1     29.27738       13.292      1
    4     9    10    13     1      8.04154       18.243      1
    5     4     9    10     1     94.98270       25.891      1
    5     6     7     8     1   -176.34292       25.831      1
    5     6     8     7     1      1.86193       13.649      1
    6     5     4     9     1     18.02379       28.390      1
    9    10    12    13     1    168.14749       17.760      1
    9    10    13    12     1    -13.95260       20.432      1
   11    10    12    13     1     22.86664       11.494      1
   11    10    13    12     1   -150.13520       12.204      1
