[ moleculetype ]
; name        nrexcl
res           1

[ atoms ]
;    nr  type  resnr resid  atom  cgnr     charge       mass
      1 TC5       1 res   C1        1      0.000     36.000
      2 TN6       1 res   C2        2      0.000     36.000
      3 TC5       1 res   C3        3      0.000     36.000
      4 SP2       1 res   C4        4      0.000     54.000
      5 TX3       1 res   C5        5      0.000     36.000

[ constraints ]
;  ai    aj   funct      b0(nm)
    1     2     1      0.30857
    3     5     1      0.23740
    2     3     1      0.31429
    1     5     1      0.27907
    3     4     1      0.28077

[ bonds ]
;  ai    aj   funct      b0(nm)          k(kJ/mol/nm^2)

[ angles ]
;  ai    aj    ak  funct     th0(deg)        k(kJ/mol/rad^2)
    1     2     3     1     61.73033          5395.88
    1     5     3     1     76.03302         12522.54
    2     1     5     1    106.00339          1268.20
    2     3     4     1     57.79292          1334.70
    2     3     5     1    115.99564          1343.62
    4     3     5     1    172.07370          1640.64

[ dihedrals ]
;  ai    aj    ak    al  funct   phi0(deg)        k(kJ/mol)   mult
    1     2     3     4     1      0.00191        9.337      1
    1     2     3     5     1    179.10991        8.532      1
    1     5     3     2     1   -179.10907        8.531      1
    1     5     3     4     1    177.10087       29.715      1
    2     1     5     3     1    178.94130        8.512      1
    3     2     1     5     1   -178.90845        7.029      1
