[ moleculetype ]
; name        nrexcl
res           1

[ atoms ]
;    nr  type resnr resid  atom  cgnr     charge       mass
      1 SN6       1 res   C1        1      0.000     54.000
      2 TC5       1 res   C2        2      0.000     36.000
      3 TC5e      1 res   C3        3      0.000     36.000
      4 TC5       1 res   C4        4      0.000     36.000
      5 TN6a      1 res   C5        5      0.000     36.000

[ bonds ]
;  ai    aj   funct      b0(nm)        k
    1     2     1      0.33750    20000
    1     3     1      0.25762    20000
    2     3     1      0.25239    20000
    3     4     1      0.25124    20000
    3     5     1      0.25544    20000
    4     5     1      0.25724    20000
