1TPCN00028
13
    1res  C1    1   -0.714   0.066  -0.041
    1res  C2    2   -0.652  -0.210   0.123
    1res  C3    3   -0.639  -0.383  -0.083
    1res  C4    4   -0.441  -0.216   0.087
    1res  C5    5   -0.273  -0.304  -0.119
    1res  C6    6    0.017  -0.162  -0.035
    1res  C7    7    0.133   0.162  -0.014
    1res  C8    8    0.456   0.279  -0.059
    1res  C9    9    0.622   0.331  -0.210
    1res  C10   10    0.903   0.383  -0.303
    1res  C11   11    0.860   0.403   0.029
    1res  C12   12    0.191  -0.152   0.173
    1res  C13   13    0.005  -0.352   0.206
  10.00000  10.00000  10.00000
