[ moleculetype ]
; name        nrexcl
res           1

[ atoms ]
;    nr  type  resnr resid  atom  cgnr     charge       mass
      1 SC4       1 res   C1        1      0.000     54.000
      2 TN4a      1 res   C2        2      0.000     36.000
      3 TN6a      1 res   C3        3      0.000     36.000
      4 SN6       1 res   C4        4      0.000     54.000
      5 SN3r      1 res   C5        5      0.000     54.000
      6 SN4a      1 res   C6        6      0.000     54.000
      7 N4a       1 res   C7        7      0.000     72.000
      8 TC5       1 res   C8        8      0.000     36.000
      9 TC5       1 res   C9        9      0.000     36.000
     10 SN6       1 res   C10      10      0.000     54.000
     11 SN6       1 res   C11      11      0.000     54.000
     12 SP4       1 res   C12      12      0.000     54.000
     13 TN6       1 res   C13      13      0.000     36.000

[ constraints ]
;  ai    aj   funct      b0(nm)
    1     2     1      0.31459
   10    11     1      0.33036
    2     3     1      0.26988
    6    12     1      0.28913
    4     5     1      0.35279
    9    11     1      0.33939
    3     4     1      0.30473
    7     8     1      0.33161
    5     6     1      0.25193
    9    10     1      0.29657
   12    13     1      0.28302
    6     7     1      0.31381
    2     4     1      0.21677
    6    13     1      0.27318
    8     9     1      0.22796

[ bonds ]
;  ai    aj   funct      b0(nm)          k(kJ/mol/nm^2)

[ angles ]
;  ai    aj    ak  funct     th0(deg)        k(kJ/mol/rad^2)
    1     2     3     1     98.65634            98.42
    1     2     4     1    110.81044            91.09
    2     3     4     1     43.76444          2737.21
    2     4     3     1     59.54617          1084.20
    2     4     5     1    108.86182           648.68
    3     2     4     1     76.68965           777.44
    3     4     5     1     53.18307          1915.47
    4     5     6     1    112.75626            51.62
    5     6     7     1    105.07480           252.17
    5     6    12     1    142.70384           276.42
    5     6    13     1    116.70693           415.40
    6     7     8     1    128.38818           149.03
    6    12    13     1     57.00579          4634.66
    6    13    12     1     62.64660          2093.56
    7     6    12     1     75.81484          1595.27
    7     6    13     1    134.29782           635.82
    7     8     9     1    148.23152           434.45
    8     9    10     1    157.82790          1603.13
    8     9    11     1     96.68357          1870.58
    9    10    11     1     65.29429          8379.35
    9    11    10     1     52.54320         11970.61
   10     9    11     1     62.16249         10259.08
   12     6    13     1     60.34777          2498.60

[ dihedrals ]
;  ai    aj    ak    al  funct   phi0(deg)        k(kJ/mol)   mult
    1     2     3     4     1    -66.20382       17.745      1
    1     2     4     3     1     81.41030       17.464      1
    1     2     4     5     1     96.55968       26.747      1
    2     3     4     5     1     19.02421       22.415      1
    2     4     5     6     1   -136.77947       24.081      1
    3     2     4     5     1   -165.06038       18.528      1
    3     4     5     6     1   -119.84666       15.042      1
    4     5     6     7     1     78.68816       12.906      1
    4     5     6    12     1     -9.85298       16.436      1
    4     5     6    13     1    -85.84118       13.653      1
    5     6     7     8     1    108.98429       15.734      1
    5     6    12    13     1     86.19917       13.623      1
    5     6    13    12     1    -41.90965       12.198      1
    6     7     8     9     1     47.31267       25.588      1
    7     6    12    13     1    -12.14988       10.755      1
    7     6    13    12     1    165.10462       12.899      1
    7     8     9    10     1      5.56478       26.488      1
    7     8     9    11     1      5.48830       20.334      1
    8     7     6    12     1   -110.94261       12.949      1
    8     7     6    13     1    -93.92101       13.605      1
    8     9    10    11     1    178.26590       25.558      1
    8     9    11    10     1     -0.94255       14.290      1
