1TPCN01216
10
    1res  C1    1    0.134  -0.207  -0.258
    1res  C2    2    0.178  -0.399  -0.086
    1res  C3    3   -0.067  -0.305  -0.063
    1res  C4    4   -0.286  -0.185   0.023
    1res  C5    5   -0.210   0.136   0.117
    1res  C6    6    0.057   0.272  -0.038
    1res  C7    7   -0.240   0.408  -0.298
    1res  C8    8    0.011   0.034  -0.130
    1res  C9    9    0.380  -0.045   0.174
    1res  C10   10    0.195  -0.081   0.414
  10.00000  10.00000  10.00000
