1TPCN02569
14
    1res  C1    1    0.056   0.307  -0.221
    1res  C2    2    0.240   0.162  -0.042
    1res  C3    3    0.134  -0.065   0.125
    1res  C4    4    0.458  -0.084   0.235
    1res  C5    5    0.313  -0.108  -0.177
    1res  C6    6    0.063  -0.160  -0.258
    1res  C7    7   -0.017   0.025  -0.072
    1res  C8    8   -0.114  -0.190   0.070
    1res  C9    9   -0.269  -0.175  -0.137
    1res  C10   10   -0.356  -0.255   0.101
    1res  C11   11   -0.148   0.068   0.187
    1res  C12   12   -0.358   0.122   0.019
    1res  C13   13   -0.442   0.064  -0.271
    1res  C14   14    0.111   0.137   0.366
  10.00000  10.00000  10.00000
