1TPCN03573
19
    1res  C1    1   -0.719   0.050   0.236
    1res  C2    2   -0.870  -0.110   0.055
    1res  C3    3   -0.828   0.088  -0.228
    1res  C4    4   -0.519  -0.161  -0.067
    1res  C5    5   -0.395  -0.230   0.189
    1res  C6    6   -0.186  -0.041   0.065
    1res  C7    7   -0.065  -0.106  -0.133
    1res  C8    8   -0.194   0.161  -0.097
    1res  C9    9    0.075   0.238  -0.298
    1res  C10   10    0.222   0.211  -0.099
    1res  C11   11    0.505   0.221  -0.121
    1res  C12   12    0.666   0.066  -0.039
    1res  C13   13    0.844  -0.116  -0.027
    1res  C14   14    1.120   0.060  -0.001
    1res  C15   15    0.985  -0.243   0.173
    1res  C16   16    0.819  -0.358  -0.007
    1res  C17   17    0.425  -0.049  -0.005
    1res  C18   18    0.045   0.274   0.087
    1res  C19   19   -0.356   0.095   0.261
  10.00000  10.00000  10.00000
