1TPCN02407
9
    1res  C1    1    0.389   0.076  -0.159
    1res  C2    2    0.447   0.014   0.173
    1res  C3    3    0.302  -0.139   0.001
    1res  C4    4    0.089   0.006  -0.025
    1res  C5    5    0.029  -0.242   0.147
    1res  C6    6   -0.208  -0.067   0.229
    1res  C7    7   -0.294  -0.062  -0.053
    1res  C8    8   -0.310   0.263  -0.012
    1res  C9    9   -0.123   0.060  -0.282
  10.00000  10.00000  10.00000
