[ moleculetype ]
; name        nrexcl
res           1

[ atoms ]
;    nr  type resnr resid  atom  cgnr     charge       mass
      1 SC4       1 res   C1        1      0.000     54.000
      2 TC3       1 res   C2        2      0.000     36.000
      3 SC5       1 res   C3        3      0.000     54.000
      4 SN4a      1 res   C4        4      0.000     54.000
      5 SN4a      1 res   C5        5      0.000     54.000
      6 TP1       1 res   C6        6      0.000     36.000
      7 SP4       1 res   C7        7      0.000     54.000
      8 TN6       1 res   C8        8      0.000     36.000
      9 SN6       1 res   C9        9      0.000     54.000
     10 SC4       1 res   C10      10      0.000     54.000
     11 TC3       1 res   C11      11      0.000     36.000
     12 SC4       1 res   C12      12      0.000     54.000
     13 SC4       1 res   C13      13      0.000     54.000
     14 TC3       1 res   C14      14      0.000     36.000
     15 TN6       1 res   C15      15      0.000     36.000
     16 SN4a      1 res   C16      16      0.000     54.000
     17 TP1       1 res   C17      17      0.000     36.000
     18 SP4       1 res   C18      18      0.000     54.000
     19 SN4a      1 res   C19      19      0.000     54.000
     20 TP1       1 res   C20      20      0.000     36.000
     21 SP4       1 res   C21      21      0.000     54.000
     22 TN6       1 res   C22      22      0.000     36.000
     23 TN6       1 res   C23      23      0.000     36.000
     24 SC4       1 res   C24      24      0.000     54.000
     25 TC3       1 res   C25      25      0.000     36.000

[ bonds ]
;  ai    aj   funct      b0(nm)        k
    1     2     1      0.29359    20000
    1     3     1      0.28590    20000
    2     3     1      0.28166    20000
    3     4     1      0.31106    20000
    3     9     1      0.38621    20000
    3    10     1      0.37665    20000
    4     5     1      0.26608    20000
    5     6     1      0.28149    20000
    5     7     1      0.28642    20000
    5     8     1      0.30188    20000
    7     8     1      0.26992    20000
    9    10     1      0.34174    20000
   10    11     1      0.29880    20000
   10    12     1      0.27772    20000
   11    12     1      0.37108    20000
   12    13     1      0.32152    20000
   12    25     1      0.28387    20000
   13    14     1      0.30445    20000
   13    24     1      0.33451    20000
   13    25     1      0.37679    20000
   14    15     1      0.25493    20000
   15    16     1      0.27592    20000
   15    24     1      0.24798    20000
   16    17     1      0.30041    20000
   16    18     1      0.24299    20000
   16    23     1      0.25318    20000
   18    19     1      0.43208    20000
   18    23     1      0.29377    20000
   19    20     1      0.24372    20000
   19    21     1      0.28474    20000
   19    22     1      0.28526    20000
   21    22     1      0.28043    20000
