1TPCN03355
9
    1res  C1    1    0.462   0.188  -0.068
    1res  C2    2    0.361  -0.128   0.039
    1res  C3    3    0.141  -0.336   0.051
    1res  C4    4    0.046  -0.078  -0.082
    1res  C5    5   -0.110  -0.041   0.104
    1res  C6    6   -0.314  -0.158   0.050
    1res  C7    7   -0.423   0.133   0.079
    1res  C8    8   -0.447   0.133  -0.192
    1res  C9    9    0.063   0.164   0.093
  10.00000  10.00000  10.00000
