1TPCN00562
17
    1res  C1    1   -0.478  -0.371  -0.262
    1res  C2    2   -0.284  -0.219  -0.114
    1res  C3    3   -0.240  -0.449   0.101
    1res  C4    4   -0.356  -0.170   0.174
    1res  C5    5   -0.149  -0.190   0.047
    1res  C6    6   -0.223   0.128   0.026
    1res  C7    7   -0.392   0.444   0.026
    1res  C8    8   -0.619   0.566   0.022
    1res  C9    9   -0.643   0.276   0.016
    1res  C10   10    0.165  -0.066   0.045
    1res  C11   11    0.334   0.179   0.124
    1res  C12   12    0.693   0.230   0.196
    1res  C13   13    0.947   0.355   0.092
    1res  C14   14    0.680   0.365  -0.074
    1res  C15   15    0.338   0.007  -0.148
    1res  C16   16    0.270  -0.196  -0.189
    1res  C17   17    0.145  -0.330  -0.030
  10.00000  10.00000  10.00000
