[ moleculetype ]
; name        nrexcl
res           1

[ atoms ]
;    nr  type resnr resid  atom  cgnr     charge       mass
      1 SC4       1 res   C1        1      0.000     54.000
      2 TN6a      1 res   C2        2      0.000     36.000
      3 TN4a      1 res   C3        3      0.000     36.000
      4 C4        1 res   C4        4      0.000     72.000
      5 TC3       1 res   C5        5      0.000     36.000
      6 TC3       1 res   C6        6      0.000     36.000
      7 SN4a      1 res   C7        7      0.000     54.000
      8 TC4       1 res   C8        8      0.000     36.000

[ bonds ]
;  ai    aj   funct      b0(nm)        k
    1     2     1      0.26449    20000
    1     3     1      0.28560    20000
    1     4     1      0.37574    20000
    2     3     1      0.25360    20000
    3     5     1      0.27200    20000
    4     5     1      0.29870    20000
    5     6     1      0.25654    20000
    5     8     1      0.31153    20000
    6     7     1      0.39941    20000
    6     8     1      0.32823    20000
