[ moleculetype ]
; name        nrexcl
res           1

[ atoms ]
;    nr  type resnr resid  atom  cgnr     charge       mass
      1 SC4       1 res   C1        1      0.000     54.000
      2 TN6a      1 res   C2        2      0.000     36.000
      3 TN4a      1 res   C3        3      0.000     36.000
      4 C4        1 res   C4        4      0.000     72.000
      5 SC3       1 res   C5        5      0.000     54.000
      6 SP4       1 res   C6        6      0.000     54.000
      7 SC3       1 res   C7        7      0.000     54.000
      8 TN6a      1 res   C8        8      0.000     36.000
      9 SC3       1 res   C9        9      0.000     54.000
     10 C4        1 res   C10      10      0.000     72.000
     11 SC4       1 res   C11      11      0.000     54.000
     12 TN6a      1 res   C12      12      0.000     36.000
     13 TN4a      1 res   C13      13      0.000     36.000

[ bonds ]
;  ai    aj   funct      b0(nm)        k
    1     2     1      0.26113    20000
    1     3     1      0.29849    20000
    1     4     1      0.40818    20000
    2     3     1      0.26563    20000
    3     5     1      0.32516    20000
    4     5     1      0.28828    20000
    5     6     1      0.24645    20000
    6     7     1      0.27827    20000
    7     8     1      0.26746    20000
    7     9     1      0.38577    20000
    8     9     1      0.23818    20000
    9    10     1      0.30510    20000
    9    13     1      0.31531    20000
   10    11     1      0.36624    20000
   11    12     1      0.25394    20000
   11    13     1      0.30287    20000
   12    13     1      0.26547    20000
