1TPCN03302
9
    1res  C1    1    0.328  -0.373  -0.149
    1res  C2    2    0.140  -0.129  -0.169
    1res  C3    3   -0.306  -0.188  -0.112
    1res  C4    4   -0.250   0.079  -0.032
    1res  C5    5   -0.503   0.133   0.198
    1res  C6    6   -0.175   0.152   0.229
    1res  C7    7    0.356   0.125  -0.058
    1res  C8    8    0.537   0.237   0.066
    1res  C9    9    0.444  -0.024   0.171
  10.00000  10.00000  10.00000
