1TPCN01115
9
    1res  C1    1    0.358  -0.036   0.008
    1res  C2    2    0.108  -0.028  -0.073
    1res  C3    3    0.047   0.208  -0.163
    1res  C4    4    0.085   0.141   0.101
    1res  C5    5   -0.052   0.012   0.244
    1res  C6    6   -0.275   0.148   0.157
    1res  C7    7   -0.222  -0.125   0.060
    1res  C8    8   -0.236   0.082  -0.192
    1res  C9    9   -0.047  -0.151  -0.131
  10.00000  10.00000  10.00000
