1TPCN01486
16
    1res  C1    1   -0.796  -0.207   0.064
    1res  C2    2   -0.473   0.102  -0.132
    1res  C3    3   -0.328   0.089   0.104
    1res  C4    4   -0.141   0.204   0.068
    1res  C5    5    0.113   0.041   0.037
    1res  C6    6    0.209   0.075   0.303
    1res  C7    7    0.187  -0.157   0.154
    1res  C8    8    0.492  -0.172   0.155
    1res  C9    9    0.735  -0.070  -0.122
    1res  C10   10    0.541   0.019  -0.264
    1res  C11   11    0.822   0.217  -0.152
    1res  C12   12    0.894   0.136   0.062
    1res  C13   13    0.752   0.003   0.145
    1res  C14   14    0.324  -0.267  -0.039
    1res  C15   15   -0.046  -0.018  -0.122
    1res  C16   16   -0.863   0.050  -0.142
  10.00000  10.00000  10.00000
