[ moleculetype ]
; name        nrexcl
res           1

[ atoms ]
;    nr  type resnr resid  atom  cgnr     charge       mass
      1 SC4       1 res   C1        1      0.000     54.000
      2 SN6       1 res   C2        2      0.000     54.000
      3 SN6       1 res   C3        3      0.000     54.000
      4 TN4a      1 res   C4        4      0.000     36.000
      5 TN6       1 res   C5        5      0.000     36.000
      6 SN6       1 res   C6        6      0.000     54.000
      7 SC4       1 res   C7        7      0.000     54.000
      8 SN6a      1 res   C8        8      0.000     54.000
      9 SC4       1 res   C9        9      0.000     54.000
     10 TC3       1 res   C10      10      0.000     36.000
     11 TC5       1 res   C11      11      0.000     36.000
     12 TC5       1 res   C12      12      0.000     36.000
     13 TN2a      1 res   C13      13      0.000     36.000
     14 TN4a      1 res   C14      14      0.000     36.000

[ bonds ]
;  ai    aj   funct      b0(nm)        k
    1     2     1      0.29724    20000
    1     3     1      0.41555    20000
    1     5     1      0.27415    20000
    1     6     1      0.32094    20000
    2     3     1      0.28937    20000
    3     4     1      0.27124    20000
    3     7     1      0.39472    20000
    4     5     1      0.29841    20000
    6     7     1      0.29358    20000
    7     8     1      0.29046    20000
    7     9     1      0.32166    20000
    8     9     1      0.30087    20000
    9    10     1      0.29332    20000
    9    14     1      0.30988    20000
   10    11     1      0.25219    20000
   10    14     1      0.23214    20000
   11    12     1      0.26212    20000
   11    13     1      0.16725    20000
   12    13     1      0.20224    20000
