[ moleculetype ]
; name        nrexcl
res           1

[ atoms ]
;    nr  type resnr resid  atom  cgnr     charge       mass
      1 SC4       1 res   C1        1      0.000     54.000
      2 TN6a      1 res   C2        2      0.000     36.000
      3 TN4a      1 res   C3        3      0.000     36.000
      4 SC4       1 res   C4        4      0.000     54.000
      5 SC2       1 res   C5        5      0.000     54.000
      6 N3r       1 res   C6        6      0.000     72.000
      7 SN4a      1 res   C7        7      0.000     54.000
      8 TC3       1 res   C8        8      0.000     36.000
      9 SP1       1 res   C9        9      0.000     54.000
     10 N4a       1 res   C10      10      0.000     72.000
     11 SN3r      1 res   C11      11      0.000     54.000
     12 SN4a      1 res   C12      12      0.000     54.000
     13 N4a       1 res   C13      13      0.000     72.000
     14 SC2       1 res   C14      14      0.000     54.000
     15 SC4       1 res   C15      15      0.000     54.000
     16 TN4a      1 res   C16      16      0.000     36.000
     17 TN6a      1 res   C17      17      0.000     36.000
     18 SC4       1 res   C18      18      0.000     54.000
     19 N6a       1 res   C19      19      0.000     72.000
     20 TC3       1 res   C20      20      0.000     36.000

[ bonds ]
;  ai    aj   funct      b0(nm)        k
    1     2     1      0.24837    20000
    1     3     1      0.29148    20000
    1     6     1      0.29501    20000
    2     3     1      0.25865    20000
    3     4     1      0.35482    20000
    4     5     1      0.35595    20000
    5     6     1      0.34763    20000
    6     7     1      0.30575    20000
    6    19     1      0.39985    20000
    7     8     1      0.25317    20000
    8     9     1      0.31441    20000
    9    10     1      0.32468    20000
   10    11     1      0.26505    20000
   10    18     1      0.33889    20000
   11    12     1      0.34118    20000
   11    13     1      0.39083    20000
   11    14     1      0.35717    20000
   14    15     1      0.34204    20000
   15    16     1      0.35436    20000
   16    17     1      0.25885    20000
   16    18     1      0.29379    20000
   17    18     1      0.24845    20000
   19    20     1      0.28088    20000
