1TPCN01875
7
    1res  C1    1   -0.443   0.173   0.046
    1res  C2    2   -0.599   0.023  -0.085
    1res  C3    3   -0.353  -0.066  -0.110
    1res  C4    4   -0.151  -0.162   0.113
    1res  C5    5   -0.048   0.054  -0.066
    1res  C6    6    0.323  -0.123  -0.062
    1res  C7    7    0.543   0.170   0.027
  10.00000  10.00000  10.00000
