[ moleculetype ]
; name        nrexcl
res           1

[ atoms ]
;    nr  type resnr resid  atom  cgnr     charge       mass
      1 SC4       1 res   C1        1      0.000     54.000
      2 TC3       1 res   C2        2      0.000     36.000
      3 TC5       1 res   C3        3      0.000     36.000
      4 SN4a      1 res   C4        4      0.000     54.000
      5 SN4a      1 res   C5        5      0.000     54.000
      6 TP1       1 res   C6        6      0.000     36.000
      7 SP4       1 res   C7        7      0.000     54.000
      8 TN6       1 res   C8        8      0.000     36.000
      9 SN4a      1 res   C9        9      0.000     54.000
     10 SP4       1 res   C10      10      0.000     54.000
     11 TN6       1 res   C11      11      0.000     36.000
     12 TC3       1 res   C12      12      0.000     36.000
     13 SC4       1 res   C13      13      0.000     54.000
     14 TC3       1 res   C14      14      0.000     36.000
     15 SC4       1 res   C15      15      0.000     54.000
     16 SC4       1 res   C16      16      0.000     54.000
     17 SN6       1 res   C17      17      0.000     54.000
     18 SN6       1 res   C18      18      0.000     54.000
     19 SN4a      1 res   C19      19      0.000     54.000
     20 SP4       1 res   C20      20      0.000     54.000
     21 TN6       1 res   C21      21      0.000     36.000
     22 TP1       1 res   C22      22      0.000     36.000
     23 TC3       1 res   C23      23      0.000     36.000

[ bonds ]
;  ai    aj   funct      b0(nm)        k
    1     2     1      0.31078    20000
    1     3     1      0.30321    20000
    2     3     1      0.26299    20000
    3     4     1      0.29179    20000
    3    12     1      0.25506    20000
    3    13     1      0.31963    20000
    4     5     1      0.29596    20000
    5     6     1      0.30067    20000
    5     7     1      0.25642    20000
    5     8     1      0.23102    20000
    7     8     1      0.27310    20000
    8     9     1      0.25338    20000
    9    10     1      0.27493    20000
    9    11     1      0.28271    20000
   10    11     1      0.30062    20000
   12    13     1      0.27737    20000
   13    14     1      0.39023    20000
   13    15     1      0.26826    20000
   14    15     1      0.26555    20000
   15    16     1      0.29716    20000
   15    23     1      0.28600    20000
   16    17     1      0.31901    20000
   16    18     1      0.35071    20000
   16    23     1      0.32847    20000
   17    18     1      0.37398    20000
   18    19     1      0.41331    20000
   18    22     1      0.28011    20000
   19    20     1      0.26840    20000
   19    21     1      0.29708    20000
   20    21     1      0.28299    20000
