[ moleculetype ]
; name        nrexcl
res           1

[ atoms ]
;    nr  type resnr resid  atom  cgnr     charge       mass
      1 TN3r      1 res   C1        1      0.000     36.000
      2 TN4a      1 res   C2        2      0.000     36.000
      3 TN6       1 res   C3        3      0.000     36.000
      4 SC5       1 res   C4        4      0.000     54.000
      5 SN6d      1 res   C5        5      0.000     54.000
      6 SC5       1 res   C6        6      0.000     54.000
      7 TN6d      1 res   C7        7      0.000     36.000
      8 TC5       1 res   C8        8      0.000     36.000
      9 TC5       1 res   C9        9      0.000     36.000
     10 TC5       1 res   C10      10      0.000     36.000
     11 TC4       1 res   C11      11      0.000     36.000

[ bonds ]
;  ai    aj   funct      b0(nm)        k
    1     2     1      0.23696    20000
    2     3     1      0.25585    20000
    2     4     1      0.21680    20000
    3     4     1      0.28381    20000
    4     5     1      0.22513    20000
    4     6     1      0.32407    20000
    4    11     1      0.31586    20000
    5     6     1      0.32192    20000
    5    11     1      0.35800    20000
    6     7     1      0.35715    20000
    6     8     1      0.25396    20000
    7     8     1      0.21875    20000
    8     9     1      0.24993    20000
    8    10     1      0.25021    20000
    9    10     1      0.29377    20000
