1TPCN02968
11
    1res  C1    1    0.646   0.154   0.090
    1res  C2    2    0.256   0.057  -0.070
    1res  C3    3    0.094  -0.181  -0.006
    1res  C4    4   -0.116  -0.150   0.042
    1res  C5    5   -0.333  -0.013  -0.015
    1res  C6    6   -0.483  -0.214  -0.086
    1res  C7    7   -0.525   0.116  -0.111
    1res  C8    8   -0.705  -0.038   0.201
    1res  C9    9   -0.563   0.208   0.179
    1res  C10   10   -0.165   0.169   0.071
    1res  C11   11    0.685  -0.092  -0.148
  10.00000  10.00000  10.00000
