1TPCN02714
21
    1res  C1    1   -1.190  -0.110  -0.252
    1res  C2    2   -1.065   0.123   0.013
    1res  C3    3   -0.931  -0.116   0.183
    1res  C4    4   -0.792   0.105   0.096
    1res  C5    5   -0.574   0.026  -0.014
    1res  C6    6   -0.422  -0.097   0.118
    1res  C7    7   -0.093   0.022   0.041
    1res  C8    8    0.290   0.107   0.186
    1res  C9    9    0.426  -0.146   0.200
    1res  C10   10    0.630   0.049   0.099
    1res  C11   11    0.762  -0.196   0.064
    1res  C12   12    1.029  -0.023  -0.127
    1res  C13   13    1.273   0.032  -0.250
    1res  C14   14    1.378   0.182  -0.075
    1res  C15   15    0.853   0.143   0.064
    1res  C16   16    0.582   0.050  -0.171
    1res  C17   17    0.382   0.016  -0.123
    1res  C18   18    0.167  -0.163  -0.033
    1res  C19   19   -0.374   0.019  -0.225
    1res  C20   20   -0.633   0.217  -0.186
    1res  C21   21   -0.834   0.141  -0.179
  10.00000  10.00000  10.00000
