1TPCN02247
12
    1res  C1    1    0.508   0.095  -0.008
    1res  C2    2    0.272  -0.018   0.184
    1res  C3    3    0.252   0.226   0.008
    1res  C4    4   -0.034   0.090   0.102
    1res  C5    5   -0.065  -0.117   0.046
    1res  C6    6   -0.334  -0.128   0.164
    1res  C7    7   -0.233  -0.269  -0.114
    1res  C8    8   -0.040  -0.136  -0.243
    1res  C9    9   -0.304   0.064  -0.040
    1res  C10   10   -0.199   0.333  -0.116
    1res  C11   11    0.168  -0.163  -0.043
    1res  C12   12    0.383  -0.214   0.033
  10.00000  10.00000  10.00000
