1TPCN03240
13
    1res  C1    1   -0.197  -0.181   0.208
    1res  C2    2   -0.451  -0.217  -0.021
    1res  C3    3   -0.684  -0.047  -0.120
    1res  C4    4   -0.432   0.057  -0.034
    1res  C5    5   -0.197   0.173  -0.026
    1res  C6    6   -0.031   0.090   0.189
    1res  C7    7    0.072  -0.121   0.049
    1res  C8    8    0.428  -0.141   0.048
    1res  C9    9    0.539   0.093  -0.084
    1res  C10   10    0.684   0.179  -0.227
    1res  C11   11    0.692  -0.092  -0.011
    1res  C12   12    0.149   0.171  -0.010
    1res  C13   13   -0.667   0.107   0.084
  10.00000  10.00000  10.00000
