1TPCN03249
14
    1res  C1    1    0.605   0.187  -0.121
    1res  C2    2    0.615   0.372   0.080
    1res  C3    3    0.491   0.031   0.093
    1res  C4    4    0.173  -0.013   0.176
    1res  C5    5    0.328  -0.243   0.138
    1res  C6    6    0.129  -0.372   0.064
    1res  C7    7    0.140  -0.151  -0.093
    1res  C8    8   -0.038  -0.214  -0.259
    1res  C9    9    0.044   0.052  -0.188
    1res  C10   10   -0.224  -0.206  -0.073
    1res  C11   11   -0.255   0.094   0.065
    1res  C12   12   -0.510   0.015   0.066
    1res  C13   13   -0.729  -0.016   0.045
    1res  C14   14   -0.494   0.267   0.069
  10.00000  10.00000  10.00000
