[ moleculetype ]
; name        nrexcl
res           1

[ atoms ]
;    nr  type resnr resid  atom  cgnr     charge       mass
      1 SC4       1 res   C1        1      0.000     54.000
      2 SP4       1 res   C2        2      0.000     54.000
      3 TN4a      1 res   C3        3      0.000     36.000
      4 SC3       1 res   C4        4      0.000     54.000
      5 TC3       1 res   C5        5      0.000     36.000
      6 TC4       1 res   C6        6      0.000     36.000
      7 TN6       1 res   C7        7      0.000     36.000
      8 TC3       1 res   C8        8      0.000     36.000
      9 SN4a      1 res   C9        9      0.000     54.000
     10 TC5       1 res   C10      10      0.000     36.000
     11 TC5       1 res   C11      11      0.000     36.000
     12 TC5       1 res   C12      12      0.000     36.000
     13 TC4       1 res   C13      13      0.000     36.000

[ bonds ]
;  ai    aj   funct      b0(nm)        k
    1     2     1      0.27859    20000
    1     8     1      0.28176    20000
    2     3     1      0.27207    20000
    2     8     1      0.30750    20000
    2    13     1      0.28405    20000
    3     4     1      0.36062    20000
    3    13     1      0.28720    20000
    4     5     1      0.33570    20000
    5     6     1      0.32817    20000
    6     7     1      0.29731    20000
    6    13     1      0.29534    20000
    7     8     1      0.20745    20000
    8     9     1      0.21310    20000
    9    10     1      0.25100    20000
   10    11     1      0.25808    20000
   10    12     1      0.30298    20000
   11    12     1      0.29142    20000
