1TPCN03917
26
    1res  C1    1   -0.534   0.274  -0.304
    1res  C2    2   -0.793   0.069  -0.260
    1res  C3    3   -0.533   0.002  -0.196
    1res  C4    4   -0.683   0.108   0.031
    1res  C5    5   -0.963   0.131   0.177
    1res  C6    6   -1.159   0.054  -0.005
    1res  C7    7   -0.926  -0.128   0.255
    1res  C8    8   -0.745   0.079   0.351
    1res  C9    9   -0.545  -0.208  -0.074
    1res  C10   10   -0.370  -0.021  -0.061
    1res  C11   11   -0.421  -0.081   0.205
    1res  C12   12   -0.201   0.179  -0.063
    1res  C13   13   -0.164  -0.108  -0.114
    1res  C14   14    0.079  -0.036   0.103
    1res  C15   15    0.190  -0.003  -0.145
    1res  C16   16    0.366  -0.129  -0.005
    1res  C17   17    0.548  -0.054   0.015
    1res  C18   18    0.713  -0.055  -0.187
    1res  C19   19    0.794   0.060   0.130
    1res  C20   20    1.097   0.014   0.117
    1res  C21   21    1.051   0.296   0.170
    1res  C22   22    1.295   0.146  -0.036
    1res  C23   23    1.135  -0.048  -0.172
    1res  C24   24    0.548   0.006   0.247
    1res  C25   25    0.251  -0.317   0.109
    1res  C26   26   -0.117  -0.292   0.096
  10.00000  10.00000  10.00000
