1TPCN02994
13
    1res  C1    1   -0.271  -0.321  -0.127
    1res  C2    2   -0.360  -0.089  -0.021
    1res  C3    3   -0.216   0.129  -0.051
    1res  C4    4   -0.562   0.240  -0.013
    1res  C5    5   -0.291   0.100   0.271
    1res  C6    6   -0.088  -0.083   0.252
    1res  C7    7   -0.072  -0.085   0.010
    1res  C8    8    0.106   0.122  -0.011
    1res  C9    9    0.247  -0.028   0.025
    1res  C10   10    0.448  -0.187   0.136
    1res  C11   11    0.713   0.088  -0.085
    1res  C12   12   -0.016  -0.041  -0.222
    1res  C13   13   -0.115   0.234  -0.335
  10.00000  10.00000  10.00000
