1TPCN03613
12
    1res  C1    1   -0.377  -0.321  -0.030
    1res  C2    2   -0.525  -0.077  -0.014
    1res  C3    3   -0.439   0.121  -0.063
    1res  C4    4   -0.226   0.207  -0.234
    1res  C5    5   -0.121   0.174   0.003
    1res  C6    6   -0.068  -0.034   0.180
    1res  C7    7    0.103   0.021  -0.148
    1res  C8    8    0.305  -0.128  -0.060
    1res  C9    9    0.339  -0.218   0.205
    1res  C10   10    0.579  -0.173   0.106
    1res  C11   11    0.573   0.066   0.109
    1res  C12   12    0.239   0.216   0.045
  10.00000  10.00000  10.00000
