1TPCN03662
18
    1res  C1    1   -0.724  -0.018  -0.282
    1res  C2    2   -0.759   0.094  -0.014
    1res  C3    3   -0.503   0.027  -0.119
    1res  C4    4   -0.464   0.336   0.091
    1res  C5    5   -0.468  -0.003   0.207
    1res  C6    6   -0.295   0.028   0.020
    1res  C7    7   -0.144   0.210   0.123
    1res  C8    8   -0.138   0.027  -0.175
    1res  C9    9   -0.224  -0.218   0.022
    1res  C10   10    0.086  -0.234   0.046
    1res  C11   11    0.247  -0.155  -0.146
    1res  C12   12    0.388  -0.016   0.004
    1res  C13   13    0.604   0.143  -0.083
    1res  C14   14    0.678   0.407   0.002
    1res  C15   15    0.888   0.059  -0.075
    1res  C16   16    0.683  -0.115  -0.116
    1res  C17   17    0.324  -0.081   0.229
    1res  C18   18   -0.038  -0.138   0.270
  10.00000  10.00000  10.00000
