1TPCN01293
11
    1res  C1    1    0.215  -0.190   0.289
    1res  C2    2    0.474  -0.110  -0.006
    1res  C3    3    0.386   0.173   0.103
    1res  C4    4    0.592   0.341  -0.156
    1res  C5    5    0.240   0.087  -0.104
    1res  C6    6    0.006  -0.090  -0.187
    1res  C7    7   -0.294  -0.073  -0.233
    1res  C8    8   -0.277  -0.231   0.021
    1res  C9    9   -0.389   0.076  -0.027
    1res  C10   10   -0.615  -0.003   0.139
    1res  C11   11   -0.100   0.096   0.083
  10.00000  10.00000  10.00000
