[ moleculetype ]
; name        nrexcl
res           1

[ atoms ]
;    nr  type resnr resid  atom  cgnr     charge       mass
      1 SC4       1 res   C1        1      0.000     54.000
      2 TP1       1 res   C2        2      0.000     36.000
      3 TC3       1 res   C3        3      0.000     36.000
      4 TN6d      1 res   C4        4      0.000     36.000
      5 SC5       1 res   C5        5      0.000     54.000
      6 TN6d      1 res   C6        6      0.000     36.000
      7 TC5       1 res   C7        7      0.000     36.000
      8 TC5       1 res   C8        8      0.000     36.000
      9 TC5       1 res   C9        9      0.000     36.000
     10 TC3       1 res   C10      10      0.000     36.000
     11 TP1       1 res   C11      11      0.000     36.000

[ bonds ]
;  ai    aj   funct      b0(nm)        k
    1     2     1      0.27187    20000
    1     3     1      0.33884    20000
    1     4     1      0.24873    20000
    3     4     1      0.24680    20000
    3    10     1      0.27721    20000
    4     5     1      0.28167    20000
    4    10     1      0.27835    20000
    5     6     1      0.35732    20000
    5     7     1      0.25387    20000
    5    10     1      0.21854    20000
    6     7     1      0.21875    20000
    7     8     1      0.24993    20000
    7     9     1      0.25021    20000
    8     9     1      0.29377    20000
   10    11     1      0.22116    20000
