[ moleculetype ]
; name        nrexcl
res           1

[ atoms ]
;    nr  type resnr resid  atom  cgnr     charge       mass
      1 TC3       1 res   C1        1      0.000     36.000
      2 TN6d      1 res   C2        2      0.000     36.000
      3 SN6       1 res   C3        3      0.000     54.000
      4 TN6       1 res   C4        4      0.000     36.000
      5 SN6       1 res   C5        5      0.000     54.000
      6 TC5       1 res   C6        6      0.000     36.000
      7 TC5       1 res   C7        7      0.000     36.000
      8 SC3       1 res   C8        8      0.000     54.000
      9 TC3       1 res   C9        9      0.000     36.000
     10 TN3r      1 res   C10      10      0.000     36.000
     11 SP4       1 res   C11      11      0.000     54.000
     12 TN3r      1 res   C12      12      0.000     36.000
     13 TN3r      1 res   C13      13      0.000     36.000

[ bonds ]
;  ai    aj   funct      b0(nm)        k
    1     2     1      0.25633    20000
    2     3     1      0.25082    20000
    2     6     1      0.29273    20000
    3     4     1      0.23992    20000
    3     6     1      0.33857    20000
    3    11     1      0.39891    20000
    4     5     1      0.29537    20000
    5     6     1      0.27235    20000
    6     7     1      0.27908    20000
    6    11     1      0.22136    20000
    7     8     1      0.21575    20000
    7    11     1      0.31116    20000
    8     9     1      0.29111    20000
    8    12     1      0.30778    20000
    9    10     1      0.27383    20000
    9    11     1      0.32569    20000
   11    13     1      0.38890    20000
