[ moleculetype ]
; name        nrexcl
res           1

[ atoms ]
;    nr  type resnr resid  atom  cgnr     charge       mass
      1 TC5       1 res   C1        1      0.000     36.000
      2 SN6       1 res   C2        2      0.000     54.000
      3 SN4a      1 res   C3        3      0.000     54.000
      4 TP1       1 res   C4        4      0.000     36.000
      5 TN6       1 res   C5        5      0.000     36.000
      6 TN6       1 res   C6        6      0.000     36.000
      7 TN6       1 res   C7        7      0.000     36.000
      8 TN4a      1 res   C8        8      0.000     36.000
      9 TC5       1 res   C9        9      0.000     36.000
     10 TN6a      1 res   C10      10      0.000     36.000
     11 SN6d      1 res   C11      11      0.000     54.000
     12 TC3       1 res   C12      12      0.000     36.000
     13 TC5       1 res   C13      13      0.000     36.000
     14 SN6       1 res   C14      14      0.000     54.000
     15 SN6       1 res   C15      15      0.000     54.000

[ bonds ]
;  ai    aj   funct      b0(nm)        k
    1     2     1      0.29843    20000
    2     3     1      0.29478    20000
    2     8     1      0.28835    20000
    2     9     1      0.27458    20000
    3     4     1      0.30692    20000
    3     5     1      0.27622    20000
    3     7     1      0.26961    20000
    5     6     1      0.25574    20000
    6     7     1      0.25193    20000
    8     9     1      0.25878    20000
    9    10     1      0.27323    20000
    9    11     1      0.20714    20000
   10    11     1      0.31748    20000
   11    12     1      0.35947    20000
   11    13     1      0.25423    20000
   12    13     1      0.24522    20000
   13    14     1      0.29664    20000
   13    15     1      0.29663    20000
   14    15     1      0.30736    20000
