[ moleculetype ]
; name        nrexcl
res           1

[ atoms ]
;    nr  type resnr resid  atom  cgnr     charge       mass
      1 TN3r      1 res   C1        1      0.000     36.000
      2 TN4a      1 res   C2        2      0.000     36.000
      3 TN6       1 res   C3        3      0.000     36.000
      4 SC5       1 res   C4        4      0.000     54.000
      5 TC3       1 res   C5        5      0.000     36.000
      6 SC5       1 res   C6        6      0.000     54.000
      7 TC5       1 res   C7        7      0.000     36.000
      8 TC5       1 res   C8        8      0.000     36.000
      9 TC5       1 res   C9        9      0.000     36.000
     10 TN1       1 res   C10      10      0.000     36.000
     11 TN6d      1 res   C11      11      0.000     36.000
     12 TC4       1 res   C12      12      0.000     36.000

[ bonds ]
;  ai    aj   funct      b0(nm)        k
    1     2     1      0.23785    20000
    2     3     1      0.28646    20000
    2     4     1      0.25335    20000
    3     4     1      0.29911    20000
    4     5     1      0.23661    20000
    4    11     1      0.25292    20000
    4    12     1      0.34327    20000
    5     6     1      0.34354    20000
    5    11     1      0.30652    20000
    6     7     1      0.25348    20000
    6    10     1      0.43990    20000
    6    11     1      0.21375    20000
    7     8     1      0.25044    20000
    7     9     1      0.25036    20000
    7    10     1      0.30107    20000
    8     9     1      0.29361    20000
   11    12     1      0.25802    20000
