[ moleculetype ]
; name        nrexcl
res           1

[ atoms ]
;    nr  type resnr resid  atom  cgnr     charge       mass
      1 SN6       1 res   C1        1      0.000     54.000
      2 SC5       1 res   C2        2      0.000     54.000
      3 TC3       1 res   C3        3      0.000     36.000
      4 TC3       1 res   C4        4      0.000     36.000
      5 TC5       1 res   C5        5      0.000     36.000
      6 SC3       1 res   C6        6      0.000     54.000
      7 TC4       1 res   C7        7      0.000     36.000
      8 TN6d      1 res   C8        8      0.000     36.000
      9 TN2a      1 res   C9        9      0.000     36.000
     10 TC3       1 res   C10      10      0.000     36.000
     11 TN4a      1 res   C11      11      0.000     36.000
     12 SN6       1 res   C12      12      0.000     54.000

[ bonds ]
;  ai    aj   funct      b0(nm)        k
    1     2     1      0.26443    20000
    1     4     1      0.30236    20000
    2     3     1      0.29352    20000
    2     4     1      0.28432    20000
    2     5     1      0.33977    20000
    2    11     1      0.26306    20000
    3     4     1      0.27845    20000
    5     6     1      0.31124    20000
    5     8     1      0.24546    20000
    5    11     1      0.25653    20000
    5    12     1      0.33466    20000
    6     7     1      0.36210    20000
    7     8     1      0.28871    20000
    7    12     1      0.27393    20000
    8     9     1      0.17019    20000
    8    10     1      0.22458    20000
    9    10     1      0.20685    20000
   11    12     1      0.25208    20000
