1TPCN03037
19
    1res  C1    1   -0.110  -0.161  -0.348
    1res  C2    2    0.114  -0.248  -0.417
    1res  C3    3    0.271  -0.300  -0.213
    1res  C4    4    0.034  -0.225  -0.084
    1res  C5    5   -0.059  -0.009  -0.013
    1res  C6    6   -0.282   0.010  -0.097
    1res  C7    7   -0.531   0.035  -0.074
    1res  C8    8   -0.750  -0.086  -0.014
    1res  C9    9   -0.488  -0.227  -0.008
    1res  C10   10   -0.150   0.122   0.204
    1res  C11   11   -0.294   0.271   0.346
    1res  C12   12   -0.445   0.481   0.350
    1res  C13   13   -0.334   0.423   0.088
    1res  C14   14    0.123   0.177   0.035
    1res  C15   15    0.206  -0.151   0.145
    1res  C16   16    0.412  -0.036   0.028
    1res  C17   17    0.677  -0.099   0.029
    1res  C18   18    0.883  -0.010   0.029
    1res  C19   19    0.649   0.158   0.026
  10.00000  10.00000  10.00000
