1TPCN02959
10
    1res  C1    1    0.569   0.014   0.025
    1res  C2    2    0.308  -0.015   0.044
    1res  C3    3    0.281  -0.271  -0.024
    1res  C4    4    0.072  -0.062   0.006
    1res  C5    5    0.168   0.204   0.092
    1res  C6    6    0.404   0.122   0.093
    1res  C7    7   -0.120   0.111  -0.084
    1res  C8    8   -0.269   0.085   0.181
    1res  C9    9   -0.423  -0.023  -0.089
    1res  C10   10   -0.111  -0.247  -0.008
  10.00000  10.00000  10.00000
