1TPCN02068
16
    1res  C1    1   -0.336   0.210  -0.066
    1res  C2    2   -0.118  -0.137  -0.112
    1res  C3    3   -0.303  -0.268   0.010
    1res  C4    4   -0.086  -0.194   0.364
    1res  C5    5   -0.236  -0.302  -0.315
    1res  C6    6    0.130  -0.096  -0.351
    1res  C7    7    0.099  -0.068  -0.056
    1res  C8    8    0.323   0.002   0.003
    1res  C9    9    0.550   0.108   0.024
    1res  C10   10    0.695   0.311  -0.038
    1res  C11   11    0.412   0.287  -0.130
    1res  C12   12    0.014   0.183   0.102
    1res  C13   13    0.038   0.358   0.281
    1res  C14   14   -0.024   0.426   0.522
    1res  C15   15   -0.139   0.172   0.440
    1res  C16   16    0.058  -0.322  -0.056
  10.00000  10.00000  10.00000
