1TPCN03098
12
    1res  C1    1    0.088   0.074   0.244
    1res  C2    2    0.047   0.004  -0.039
    1res  C3    3    0.328  -0.085  -0.072
    1res  C4    4    0.503  -0.067   0.105
    1res  C5    5    0.664   0.005   0.234
    1res  C6    6    0.629  -0.048  -0.125
    1res  C7    7   -0.052   0.245  -0.011
    1res  C8    8   -0.290   0.062  -0.208
    1res  C9    9   -0.455   0.163   0.059
    1res  C10   10   -0.607  -0.060  -0.041
    1res  C11   11   -0.490  -0.286   0.107
    1res  C12   12   -0.183  -0.225  -0.021
  10.00000  10.00000  10.00000
