1TPCN01424
10
    1res  C1    1    0.063  -0.113   0.212
    1res  C2    2   -0.059  -0.293   0.326
    1res  C3    3   -0.142  -0.286   0.060
    1res  C4    4   -0.427  -0.083   0.050
    1res  C5    5   -0.331  -0.110  -0.209
    1res  C6    6   -0.320   0.162  -0.193
    1res  C7    7   -0.040   0.276  -0.117
    1res  C8    8   -0.016   0.039   0.006
    1res  C9    9    0.438  -0.078  -0.092
    1res  C10   10    0.511   0.147   0.097
  10.00000  10.00000  10.00000
