1TPCN02098
6
    1res  C1    1   -0.214   0.193   0.105
    1res  C2    2   -0.197   0.027  -0.200
    1res  C3    3   -0.174  -0.124   0.061
    1res  C4    4    0.075  -0.050  -0.020
    1res  C5    5    0.231  -0.245  -0.093
    1res  C6    6    0.393   0.001  -0.018
  10.00000  10.00000  10.00000
