1TPCN02912
8
    1res  C1    1    0.076  -0.226  -0.118
    1res  C2    2    0.295   0.019   0.101
    1res  C3    3    0.029   0.069  -0.144
    1res  C4    4    0.008   0.316  -0.091
    1res  C5    5   -0.118   0.249   0.118
    1res  C6    6   -0.181   0.051  -0.005
    1res  C7    7   -0.285  -0.128  -0.110
    1res  C8    8   -0.399  -0.056   0.110
  10.00000  10.00000  10.00000
