1TPCN03847
30
    1res  C1    1    0.602  -0.550  -0.145
    1res  C2    2    0.643  -0.260  -0.290
    1res  C3    3    0.728  -0.019  -0.200
    1res  C4    4    0.726  -0.002   0.129
    1res  C5    5    0.985   0.007   0.030
    1res  C6    6    1.092   0.348   0.148
    1res  C7    7    1.361   0.358   0.121
    1res  C8    8    1.267   0.087   0.060
    1res  C9    9    0.851  -0.218   0.253
    1res  C10   10    0.578  -0.250   0.191
    1res  C11   11    0.543   0.150  -0.136
    1res  C12   12    0.337   0.198  -0.223
    1res  C13   13    0.231  -0.083  -0.004
    1res  C14   14    0.063   0.206  -0.211
    1res  C15   15   -0.162   0.095  -0.171
    1res  C16   16   -0.229  -0.122  -0.026
    1res  C17   17   -0.377   0.003   0.131
    1res  C18   18   -0.631  -0.085   0.281
    1res  C19   19   -0.894   0.020   0.265
    1res  C20   20   -1.173  -0.143   0.318
    1res  C21   21   -1.373   0.009   0.215
    1res  C22   22   -1.131   0.060   0.084
    1res  C23   23   -0.768  -0.311   0.197
    1res  C24   24   -0.646  -0.143   0.022
    1res  C25   25   -0.815  -0.040  -0.177
    1res  C26   26   -1.111  -0.082  -0.272
    1res  C27   27   -0.797   0.170  -0.343
    1res  C28   28   -0.665   0.155  -0.119
    1res  C29   29   -0.330   0.243   0.105
    1res  C30   30    0.060   0.215   0.093
  10.00000  10.00000  10.00000
