1TPCN01810
7
    1res  C1    1   -0.315   0.143   0.001
    1res  C2    2   -0.175  -0.051  -0.093
    1res  C3    3   -0.121  -0.233  -0.208
    1res  C4    4    0.041  -0.263  -0.037
    1res  C5    5    0.147   0.102  -0.104
    1res  C6    6    0.463   0.106   0.062
    1res  C7    7    0.101  -0.010   0.169
  10.00000  10.00000  10.00000
