1TPCN03373
9
    1res  C1    1    0.579   0.041  -0.060
    1res  C2    2    0.354  -0.156   0.112
    1res  C3    3    0.107  -0.102  -0.033
    1res  C4    4    0.022   0.028   0.205
    1res  C5    5   -0.125  -0.146  -0.072
    1res  C6    6   -0.303   0.176   0.109
    1res  C7    7   -0.387  -0.042   0.237
    1res  C8    8   -0.284   0.057  -0.158
    1res  C9    9    0.217   0.134  -0.123
  10.00000  10.00000  10.00000
