1TPCN02631
14
    1res  C1    1   -0.477   0.389   0.027
    1res  C2    2   -0.564   0.038   0.023
    1res  C3    3   -0.342  -0.109   0.196
    1res  C4    4   -0.377  -0.116  -0.103
    1res  C5    5   -0.097   0.172  -0.039
    1res  C6    6   -0.124  -0.109  -0.164
    1res  C7    7    0.107  -0.115  -0.267
    1res  C8    8   -0.047  -0.341  -0.178
    1res  C9    9    0.094  -0.104   0.013
    1res  C10   10    0.247  -0.347  -0.005
    1res  C11   11    0.453  -0.103   0.055
    1res  C12   12    0.391   0.134   0.114
    1res  C13   13    0.385   0.360   0.152
    1res  C14   14    0.611   0.140  -0.019
  10.00000  10.00000  10.00000
