[ moleculetype ]
; name        nrexcl
res           1

[ atoms ]
;    nr  type resnr resid  atom  cgnr     charge       mass
      1 P1        1 res   C1        1      0.000     72.000
      2 C1        1 res   C2        2      0.000     72.000
      3 SN3r      1 res   C3        3      0.000     54.000
      4 SN4a      1 res   C4        4      0.000     54.000
      5 TP1       1 res   C5        5      0.000     36.000
      6 TN6       1 res   C6        6      0.000     36.000
      7 TN6       1 res   C7        7      0.000     36.000
      8 TN6       1 res   C8        8      0.000     36.000

[ bonds ]
;  ai    aj   funct      b0(nm)        k
    1     2     1      0.37091    20000
    1     3     1      0.35629    20000
    2     3     1      0.27675    20000
    3     4     1      0.29791    20000
    4     5     1      0.27987    20000
    4     6     1      0.27700    20000
    4     8     1      0.27935    20000
    6     7     1      0.22071    20000
    7     8     1      0.23586    20000
