[ moleculetype ]
; name        nrexcl
res           1

[ atoms ]
;    nr  type resnr resid  atom  cgnr     charge       mass
      1 SN4a      1 res   C1        1      0.000     54.000
      2 TC5       1 res   C2        2      0.000     36.000
      3 P4        1 res   C3        3      0.000     72.000
      4 P2        1 res   C4        4      0.000     72.000
      5 TC3       1 res   C5        5      0.000     36.000
      6 TC4       1 res   C6        6      0.000     36.000
      7 SC3       1 res   C7        7      0.000     54.000

[ bonds ]
;  ai    aj   funct      b0(nm)        k
    1     2     1      0.25907    20000
    2     3     1      0.24519    20000
    2     7     1      0.26234    20000
    3     4     1      0.29594    20000
    3     5     1      0.25899    20000
    3     7     1      0.29556    20000
    5     6     1      0.30713    20000
    6     7     1      0.25541    20000
