1TPCN01386
7
    1res  C1    1    0.307  -0.250  -0.103
    1res  C2    2    0.254  -0.111   0.203
    1res  C3    3    0.246   0.107   0.127
    1res  C4    4    0.118   0.304  -0.012
    1res  C5    5   -0.068   0.079  -0.231
    1res  C6    6   -0.316  -0.084  -0.031
    1res  C7    7   -0.027  -0.006   0.142
  10.00000  10.00000  10.00000
