1TPCN02979
14
    1res  C1    1   -0.310  -0.079  -0.356
    1res  C2    2   -0.334   0.002  -0.122
    1res  C3    3   -0.319  -0.011   0.151
    1res  C4    4   -0.261   0.263   0.045
    1res  C5    5   -0.059   0.420  -0.182
    1res  C6    6   -0.052   0.031  -0.117
    1res  C7    7   -0.051  -0.144   0.019
    1res  C8    8   -0.085  -0.344   0.315
    1res  C9    9    0.077  -0.327  -0.032
    1res  C10   10    0.327  -0.078  -0.089
    1res  C11   11    0.490   0.050  -0.239
    1res  C12   12    0.264   0.160   0.127
    1res  C13   13    0.112   0.082   0.003
    1res  C14   14    0.439  -0.088   0.288
  10.00000  10.00000  10.00000
