1TPCN00911
6
    1res  C1    1   -0.192   0.176  -0.028
    1res  C2    2   -0.239  -0.143   0.018
    1res  C3    3    0.022   0.061   0.094
    1res  C4    4    0.119  -0.121  -0.055
    1res  C5    5    0.263   0.100   0.049
    1res  C6    6    0.501   0.002  -0.012
  10.00000  10.00000  10.00000
