[ moleculetype ]
; name        nrexcl
res           1

[ atoms ]
;    nr  type resnr resid  atom  cgnr     charge       mass
      1 TC3       1 res   C1        1      0.000     36.000
      2 TC5       1 res   C2        2      0.000     36.000
      3 TC3       1 res   C3        3      0.000     36.000
      4 N4a       1 res   C4        4      0.000     72.000
      5 TC5       1 res   C5        5      0.000     36.000
      6 TN6d      1 res   C6        6      0.000     36.000
      7 TC5       1 res   C7        7      0.000     36.000
      8 TC5       1 res   C8        8      0.000     36.000
      9 TC5       1 res   C9        9      0.000     36.000
     10 TC3       1 res   C10      10      0.000     36.000
     11 TN6d      1 res   C11      11      0.000     36.000
     12 SN5a      1 res   C12      12      0.000     54.000
     13 P4        1 res   C13      13      0.000     72.000

[ bonds ]
;  ai    aj   funct      b0(nm)        k
    1     2     1      0.33220    20000
    2     3     1      0.23598    20000
    2     5     1      0.21731    20000
    2    11     1      0.24611    20000
    2    13     1      0.25938    20000
    3     4     1      0.38278    20000
    3     5     1      0.26987    20000
    5     6     1      0.23029    20000
    5     7     1      0.18710    20000
    5    10     1      0.27471    20000
    6     7     1      0.22461    20000
    7     8     1      0.25058    20000
    7     9     1      0.25055    20000
    8     9     1      0.29287    20000
   10    11     1      0.31400    20000
   11    12     1      0.29611    20000
   11    13     1      0.26441    20000
