1TPCN03597
21
    1res  C1    1   -0.478   0.438  -0.182
    1res  C2    2   -0.588   0.233   0.007
    1res  C3    3   -0.321   0.240  -0.065
    1res  C4    4   -0.504  -0.050  -0.111
    1res  C5    5   -0.779  -0.089  -0.134
    1res  C6    6   -1.074  -0.032  -0.058
    1res  C7    7   -0.854  -0.280   0.079
    1res  C8    8   -0.637  -0.351  -0.123
    1res  C9    9   -0.318  -0.043   0.145
    1res  C10   10   -0.105   0.115   0.165
    1res  C11   11    0.036   0.220  -0.084
    1res  C12   12    0.014  -0.104  -0.074
    1res  C13   13    0.289   0.020   0.114
    1res  C14   14    0.441   0.060  -0.118
    1res  C15   15    0.597  -0.066   0.038
    1res  C16   16    0.845   0.048  -0.068
    1res  C17   17    1.072   0.086  -0.313
    1res  C18   18    1.090   0.020   0.076
    1res  C19   19    0.864  -0.170   0.145
    1res  C20   20    0.480  -0.262   0.116
    1res  C21   21    0.118  -0.200   0.170
  10.00000  10.00000  10.00000
