1TPCN01605
7
    1res  C1    1   -0.326   0.147   0.032
    1res  C2    2   -0.188   0.346  -0.062
    1res  C3    3   -0.025   0.168   0.059
    1res  C4    4   -0.097  -0.222   0.032
    1res  C5    5    0.188   0.124  -0.046
    1res  C6    6    0.247  -0.085   0.097
    1res  C7    7    0.308  -0.093  -0.129
  10.00000  10.00000  10.00000
