[ moleculetype ]
; name        nrexcl
res           1

[ atoms ]
;    nr  type resnr resid  atom  cgnr     charge       mass
      1 TC4       1 res   C1        1      0.000     36.000
      2 TN4a      1 res   C2        2      0.000     36.000
      3 SP4       1 res   C3        3      0.000     54.000
      4 SC3       1 res   C4        4      0.000     54.000
      5 SC4       1 res   C5        5      0.000     54.000
      6 TC5       1 res   C6        6      0.000     36.000
      7 TC3       1 res   C7        7      0.000     36.000
      8 SC4       1 res   C8        8      0.000     54.000
      9 TN4a      1 res   C9        9      0.000     36.000
     10 TC3       1 res   C10      10      0.000     36.000
     11 TC5       1 res   C11      11      0.000     36.000
     12 TN6a      1 res   C12      12      0.000     36.000
     13 TN4a      1 res   C13      13      0.000     36.000
     14 TN4a      1 res   C14      14      0.000     36.000
     15 TP1       1 res   C15      15      0.000     36.000
     16 SP4       1 res   C16      16      0.000     54.000
     17 SP4       1 res   C17      17      0.000     54.000
     18 TN6       1 res   C18      18      0.000     36.000

[ bonds ]
;  ai    aj   funct      b0(nm)        k
    1     2     1      0.30417    20000
    1    18     1      0.30046    20000
    2     3     1      0.24010    20000
    2    17     1      0.26582    20000
    3     4     1      0.38722    20000
    3    14     1      0.28820    20000
    3    16     1      0.27710    20000
    4     5     1      0.28214    20000
    4     8     1      0.36174    20000
    5     6     1      0.27591    20000
    5     7     1      0.37941    20000
    5     8     1      0.33868    20000
    6     7     1      0.24955    20000
    6     9     1      0.22393    20000
    6    10     1      0.22643    20000
    9    10     1      0.28416    20000
   10    11     1      0.29688    20000
   11    12     1      0.22444    20000
   11    13     1      0.25885    20000
   12    13     1      0.28795    20000
   14    15     1      0.24369    20000
   14    16     1      0.25380    20000
   17    18     1      0.28999    20000
