1TPCN02388
18
    1res  C1    1   -0.459  -0.101   0.263
    1res  C2    2   -0.443   0.050   0.039
    1res  C3    3   -0.235  -0.020  -0.142
    1res  C4    4   -0.480   0.056  -0.349
    1res  C5    5   -0.350   0.347  -0.100
    1res  C6    6   -0.192   0.293   0.077
    1res  C7    7   -0.004   0.326   0.249
    1res  C8    8   -0.170   0.000   0.121
    1res  C9    9    0.093  -0.105  -0.025
    1res  C10   10    0.190  -0.025   0.189
    1res  C11   11    0.011  -0.293   0.222
    1res  C12   12    0.080  -0.292   0.467
    1res  C13   13   -0.129  -0.269   0.006
    1res  C14   14    0.379  -0.162  -0.046
    1res  C15   15    0.609  -0.105  -0.132
    1res  C16   16    0.750   0.027  -0.242
    1res  C17   17    0.905   0.184  -0.364
    1res  C18   18    0.469   0.136  -0.251
  10.00000  10.00000  10.00000
