[ moleculetype ]
; name        nrexcl
res           1

[ atoms ]
;    nr  type resnr resid  atom  cgnr     charge       mass
      1 SN4a      1 res   C1        1      0.000     54.000
      2 SC4       1 res   C2        2      0.000     54.000
      3 TN4a      1 res   C3        3      0.000     36.000
      4 SN4a      1 res   C4        4      0.000     54.000
      5 SC5       1 res   C5        5      0.000     54.000
      6 TC3       1 res   C6        6      0.000     36.000
      7 SC4       1 res   C7        7      0.000     54.000
      8 TC5       1 res   C8        8      0.000     36.000
      9 TC3       1 res   C9        9      0.000     36.000
     10 SC4       1 res   C10      10      0.000     54.000
     11 SC4       1 res   C11      11      0.000     54.000
     12 SN6       1 res   C12      12      0.000     54.000
     13 SN6       1 res   C13      13      0.000     54.000
     14 SN4a      1 res   C14      14      0.000     54.000
     15 TP1       1 res   C15      15      0.000     36.000
     16 SP4       1 res   C16      16      0.000     54.000
     17 TN6       1 res   C17      17      0.000     36.000
     18 SN4a      1 res   C18      18      0.000     54.000
     19 TP1       1 res   C19      19      0.000     36.000
     20 SP4       1 res   C20      20      0.000     54.000
     21 TN6       1 res   C21      21      0.000     36.000
     22 SP2       1 res   C22      22      0.000     54.000
     23 TC3       1 res   C23      23      0.000     36.000
     24 TN2a      1 res   C24      24      0.000     36.000
     25 TC3       1 res   C25      25      0.000     36.000
     26 SN6       1 res   C26      26      0.000     54.000
     27 TN4a      1 res   C27      27      0.000     36.000
     28 TC4       1 res   C28      28      0.000     36.000
     29 SP4       1 res   C29      29      0.000     54.000
     30 SN4a      1 res   C30      30      0.000     54.000
     31 SP4       1 res   C31      31      0.000     54.000
     32 SN4a      1 res   C32      32      0.000     54.000
     33 TP1       1 res   C33      33      0.000     36.000
     34 SP4       1 res   C34      34      0.000     54.000
     35 TN6       1 res   C35      35      0.000     36.000
     36 TN6       1 res   C36      36      0.000     36.000
     37 TN6       1 res   C37      37      0.000     36.000
     38 SN4a      1 res   C38      38      0.000     54.000

[ bonds ]
;  ai    aj   funct      b0(nm)        k
    1     2     1      0.35118    20000
    2     3     1      0.29189    20000
    2    26     1      0.30952    20000
    3     4     1      0.22646    20000
    3    26     1      0.23991    20000
    4     5     1      0.31615    20000
    5     6     1      0.28441    20000
    5     7     1      0.27727    20000
    5     8     1      0.26472    20000
    5    25     1      0.36272    20000
    6     7     1      0.29341    20000
    8     9     1      0.25452    20000
    8    10     1      0.29766    20000
    8    24     1      0.24079    20000
    8    25     1      0.25265    20000
    9    10     1      0.32663    20000
   10    11     1      0.35297    20000
   10    23     1      0.27305    20000
   11    12     1      0.31387    20000
   11    13     1      0.28229    20000
   11    23     1      0.31463    20000
   12    13     1      0.34300    20000
   13    14     1      0.37497    20000
   13    22     1      0.27421    20000
   14    15     1      0.29319    20000
   14    16     1      0.29478    20000
   14    17     1      0.24804    20000
   16    17     1      0.26467    20000
   17    18     1      0.28288    20000
   18    19     1      0.30482    20000
   18    20     1      0.26835    20000
   18    21     1      0.27326    20000
   20    21     1      0.27507    20000
   26    27     1      0.28711    20000
   26    38     1      0.34963    20000
   27    28     1      0.25384    20000
   27    37     1      0.26065    20000
   28    29     1      0.28653    20000
   29    30     1      0.33160    20000
   29    37     1      0.27125    20000
   30    31     1      0.23351    20000
   30    36     1      0.29325    20000
   31    32     1      0.38841    20000
   31    36     1      0.25618    20000
   32    33     1      0.31088    20000
   32    34     1      0.28209    20000
   32    35     1      0.29377    20000
   34    35     1      0.29481    20000
