[ moleculetype ]
; name        nrexcl
res           1

[ atoms ]
;    nr  type resnr resid  atom  cgnr     charge       mass
      1 SC4       1 res   C1        1      0.000     54.000
      2 TC3       1 res   C2        2      0.000     36.000
      3 SN4a      1 res   C3        3      0.000     54.000
      4 TC5       1 res   C4        4      0.000     36.000
      5 TC5       1 res   C5        5      0.000     36.000
      6 TC5       1 res   C6        6      0.000     36.000
      7 SC5       1 res   C7        7      0.000     54.000
      8 TP1       1 res   C8        8      0.000     36.000
      9 SN6       1 res   C9        9      0.000     54.000
     10 SC4       1 res   C10      10      0.000     54.000
     11 TC3       1 res   C11      11      0.000     36.000
     12 SC4       1 res   C12      12      0.000     54.000
     13 SC4       1 res   C13      13      0.000     54.000
     14 TC3       1 res   C14      14      0.000     36.000
     15 TN6       1 res   C15      15      0.000     36.000
     16 SN4a      1 res   C16      16      0.000     54.000
     17 SP4       1 res   C17      17      0.000     54.000
     18 SN4a      1 res   C18      18      0.000     54.000
     19 TP1       1 res   C19      19      0.000     36.000
     20 SP4       1 res   C20      20      0.000     54.000
     21 TN6       1 res   C21      21      0.000     36.000
     22 TN6       1 res   C22      22      0.000     36.000
     23 SC4       1 res   C23      23      0.000     54.000
     24 TC3       1 res   C24      24      0.000     36.000

[ bonds ]
;  ai    aj   funct      b0(nm)        k
    1     2     1      0.29347    20000
    1     7     1      0.27932    20000
    2     3     1      0.24559    20000
    2     7     1      0.29199    20000
    3     4     1      0.25118    20000
    4     5     1      0.25800    20000
    4     6     1      0.30221    20000
    5     6     1      0.29098    20000
    7     8     1      0.31076    20000
    7     9     1      0.38169    20000
    7    10     1      0.34771    20000
    9    10     1      0.28068    20000
   10    11     1      0.36547    20000
   10    12     1      0.31588    20000
   11    12     1      0.26946    20000
   12    13     1      0.31240    20000
   12    24     1      0.26485    20000
   13    14     1      0.28272    20000
   13    23     1      0.32951    20000
   13    24     1      0.37909    20000
   14    15     1      0.25067    20000
   15    16     1      0.28502    20000
   15    23     1      0.24780    20000
   16    17     1      0.24045    20000
   16    22     1      0.32381    20000
   17    18     1      0.42769    20000
   17    22     1      0.31102    20000
   18    19     1      0.25642    20000
   18    20     1      0.26516    20000
   18    21     1      0.30257    20000
   20    21     1      0.27809    20000
