[ moleculetype ]
; name        nrexcl
res           1

[ atoms ]
;    nr  type resnr resid  atom  cgnr     charge       mass
      1 TC3       1 res   C1        1      0.000     36.000
      2 SN6       1 res   C2        2      0.000     54.000
      3 SC3       1 res   C3        3      0.000     54.000
      4 SC5       1 res   C4        4      0.000     54.000
      5 N4a       1 res   C5        5      0.000     72.000
      6 TN6d      1 res   C6        6      0.000     36.000
      7 TC5       1 res   C7        7      0.000     36.000
      8 TC5       1 res   C8        8      0.000     36.000
      9 TC5       1 res   C9        9      0.000     36.000
     10 TC3       1 res   C10      10      0.000     36.000
     11 TN6d      1 res   C11      11      0.000     36.000

[ bonds ]
;  ai    aj   funct      b0(nm)        k
    1     2     1      0.30853    20000
    2     3     1      0.23238    20000
    3     4     1      0.23140    20000
    3    11     1      0.22526    20000
    4     5     1      0.42931    20000
    4     6     1      0.22405    20000
    4     7     1      0.23482    20000
    4    10     1      0.26516    20000
    4    11     1      0.24852    20000
    6     7     1      0.22455    20000
    7     8     1      0.25045    20000
    7     9     1      0.25051    20000
    8     9     1      0.29296    20000
   10    11     1      0.24856    20000
