1TPCN03125
11
    1res  C1    1    0.545   0.036   0.211
    1res  C2    2    0.271   0.139   0.139
    1res  C3    3    0.100   0.052  -0.015
    1res  C4    4   -0.058   0.219   0.085
    1res  C5    5   -0.097   0.041  -0.014
    1res  C6    6   -0.363   0.063   0.208
    1res  C7    7   -0.335   0.142  -0.061
    1res  C8    8   -0.253  -0.193  -0.007
    1res  C9    9   -0.144  -0.150  -0.333
    1res  C10   10    0.215  -0.139   0.084
    1res  C11   11    0.247  -0.009  -0.153
  10.00000  10.00000  10.00000
