[ moleculetype ]
; name        nrexcl
res           1

[ atoms ]
;    nr  type resnr resid  atom  cgnr     charge       mass
      1 SC4       1 res   C1        1      0.000     54.000
      2 SC5       1 res   C2        2      0.000     54.000
      3 SN6       1 res   C3        3      0.000     54.000
      4 SC4       1 res   C4        4      0.000     54.000
      5 SC3       1 res   C5        5      0.000     54.000
      6 SN4a      1 res   C6        6      0.000     54.000
      7 TC3       1 res   C7        7      0.000     36.000
      8 SN6a      1 res   C8        8      0.000     54.000
      9 SC4       1 res   C9        9      0.000     54.000

[ bonds ]
;  ai    aj   funct      b0(nm)        k
    1     2     1      0.34457    20000
    1     7     1      0.29882    20000
    2     3     1      0.21645    20000
    2     7     1      0.35616    20000
    2     8     1      0.32049    20000
    3     4     1      0.24363    20000
    3     5     1      0.37320    20000
    3     9     1      0.27282    20000
    4     5     1      0.33208    20000
    4     9     1      0.35003    20000
    5     6     1      0.38356    20000
    7     8     1      0.29299    20000
    8     9     1      0.29471    20000
