1TPCN02729
12
    1res  C1    1    0.109  -0.303   0.137
    1res  C2    2    0.122  -0.045  -0.043
    1res  C3    3    0.396   0.160  -0.008
    1res  C4    4    0.458   0.244   0.288
    1res  C5    5    0.660   0.045   0.033
    1res  C6    6    0.497  -0.006  -0.194
    1res  C7    7   -0.135  -0.209  -0.170
    1res  C8    8   -0.193   0.003   0.002
    1res  C9    9   -0.238   0.188  -0.144
    1res  C10   10   -0.490   0.068  -0.122
    1res  C11   11   -0.633   0.223   0.047
    1res  C12   12   -0.255  -0.230   0.122
  10.00000  10.00000  10.00000
