[ moleculetype ]
; name        nrexcl
res           1

[ atoms ]
;    nr  type resnr resid  atom  cgnr     charge       mass
      1 TC5       1 res   C1        1      0.000     36.000
      2 TP1d      1 res   C2        2      0.000     36.000
      3 TC3       1 res   C3        3      0.000     36.000
      4 SN4a      1 res   C4        4      0.000     54.000
      5 SC3       1 res   C5        5      0.000     54.000
      6 SN4a      1 res   C6        6      0.000     54.000
      7 N6a       1 res   C7        7      0.000     72.000
      8 TC5       1 res   C8        8      0.000     36.000
      9 SC2       1 res   C9        9      0.000     54.000
     10 SN3r      1 res   C10      10      0.000     54.000
     11 SN4a      1 res   C11      11      0.000     54.000
     12 SN4a      1 res   C12      12      0.000     54.000
     13 TC5       1 res   C13      13      0.000     36.000
     14 TC5       1 res   C14      14      0.000     36.000
     15 TC5       1 res   C15      15      0.000     36.000
     16 TN3r      1 res   C16      16      0.000     36.000
     17 SN4a      1 res   C17      17      0.000     54.000

[ bonds ]
;  ai    aj   funct      b0(nm)        k
    1     2     1      0.31941    20000
    1    16     1      0.26415    20000
    2     3     1      0.24782    20000
    3     4     1      0.36803    20000
    3     5     1      0.23621    20000
    5     6     1      0.48743    20000
    5     7     1      0.47056    20000
    7     8     1      0.28665    20000
    8     9     1      0.30616    20000
    9    10     1      0.26337    20000
   10    11     1      0.36430    20000
   10    12     1      0.26854    20000
   10    16     1      0.24577    20000
   12    13     1      0.25101    20000
   13    14     1      0.25784    20000
   13    15     1      0.30270    20000
   14    15     1      0.29133    20000
   16    17     1      0.31371    20000
