[ moleculetype ]
; name        nrexcl
res           1

[ atoms ]
;    nr  type resnr resid  atom  cgnr     charge       mass
      1 SC4       1 res   C1        1      0.000     54.000
      2 TN6a      1 res   C2        2      0.000     36.000
      3 TN4a      1 res   C3        3      0.000     36.000
      4 C1        1 res   C4        4      0.000     72.000
      5 TC3       1 res   C5        5      0.000     36.000
      6 TN6a      1 res   C6        6      0.000     36.000
      7 TC5       1 res   C7        7      0.000     36.000
      8 TN2a      1 res   C8        8      0.000     36.000
      9 SN4a      1 res   C9        9      0.000     54.000
     10 N4a       1 res   C10      10      0.000     72.000
     11 TC5       1 res   C11      11      0.000     36.000
     12 SN6       1 res   C12      12      0.000     54.000
     13 TC5       1 res   C13      13      0.000     36.000
     14 TN6       1 res   C14      14      0.000     36.000
     15 TN6       1 res   C15      15      0.000     36.000
     16 TN6       1 res   C16      16      0.000     36.000

[ bonds ]
;  ai    aj   funct      b0(nm)        k
    1     2     1      0.25798    20000
    1     3     1      0.30312    20000
    1     4     1      0.36002    20000
    2     3     1      0.27059    20000
    3     5     1      0.22895    20000
    4     5     1      0.27550    20000
    5     6     1      0.27999    20000
    5     7     1      0.25159    20000
    6     7     1      0.22421    20000
    7     8     1      0.23794    20000
    8     9     1      0.28826    20000
    9    10     1      0.40650    20000
    9    14     1      0.25166    20000
    9    16     1      0.27044    20000
   10    11     1      0.31432    20000
   11    12     1      0.30181    20000
   11    13     1      0.30208    20000
   12    13     1      0.31506    20000
   14    15     1      0.26344    20000
   15    16     1      0.22396    20000
