1TPCN00706
12
    1res  C1    1    0.565   0.001  -0.099
    1res  C2    2    0.366   0.048   0.023
    1res  C3    3    0.223   0.273   0.075
    1res  C4    4    0.176  -0.008   0.125
    1res  C5    5   -0.008  -0.124   0.160
    1res  C6    6   -0.162   0.109  -0.043
    1res  C7    7   -0.319  -0.191   0.076
    1res  C8    8   -0.390  -0.004  -0.013
    1res  C9    9   -0.632  -0.061   0.016
    1res  C10   10   -0.527   0.190  -0.095
    1res  C11   11    0.042   0.050  -0.085
    1res  C12   12    0.151  -0.232  -0.127
  10.00000  10.00000  10.00000
