1TPCN02246
10
    1res  C1    1    0.069   0.341   0.158
    1res  C2    2   -0.076   0.062   0.209
    1res  C3    3   -0.164   0.093  -0.134
    1res  C4    4   -0.405  -0.035   0.136
    1res  C5    5   -0.299  -0.146  -0.137
    1res  C6    6    0.061   0.026  -0.000
    1res  C7    7    0.280   0.036   0.088
    1res  C8    8    0.538  -0.070  -0.005
    1res  C9    9    0.319  -0.122  -0.220
    1res  C10   10    0.113  -0.063  -0.219
  10.00000  10.00000  10.00000
