1TPCN00765
10
    1res  C1    1   -0.260   0.285  -0.065
    1res  C2    2   -0.084   0.270   0.141
    1res  C3    3   -0.121   0.006  -0.026
    1res  C4    4   -0.465  -0.049   0.053
    1res  C5    5   -0.280  -0.314  -0.009
    1res  C6    6    0.182  -0.006  -0.071
    1res  C7    7    0.340   0.228  -0.161
    1res  C8    8    0.426   0.045   0.108
    1res  C9    9    0.344  -0.174   0.067
    1res  C10   10    0.104  -0.164   0.131
  10.00000  10.00000  10.00000
