1TPCN02735
10
    1res  C1    1    0.550   0.056   0.195
    1res  C2    2    0.375   0.113  -0.025
    1res  C3    3    0.082  -0.009   0.078
    1res  C4    4   -0.067   0.219   0.055
    1res  C5    5   -0.057  -0.015  -0.125
    1res  C6    6   -0.346   0.109  -0.164
    1res  C7    7   -0.443   0.059   0.079
    1res  C8    8   -0.385  -0.163  -0.145
    1res  C9    9   -0.163  -0.263  -0.041
    1res  C10   10    0.273  -0.144   0.029
  10.00000  10.00000  10.00000
