1TPCN01694
7
    1res  C1    1   -0.153  -0.242   0.097
    1res  C2    2   -0.347  -0.163  -0.048
    1res  C3    3   -0.284   0.121  -0.099
    1res  C4    4   -0.093   0.081   0.093
    1res  C5    5    0.099   0.080   0.027
    1res  C6    6    0.273   0.226  -0.041
    1res  C7    7    0.375  -0.054  -0.093
  10.00000  10.00000  10.00000
