1TPCN01290
7
    1res  C1    1   -0.181   0.270   0.016
    1res  C2    2   -0.222  -0.108   0.161
    1res  C3    3   -0.120  -0.093  -0.112
    1res  C4    4    0.157  -0.160   0.084
    1res  C5    5    0.234  -0.246  -0.057
    1res  C6    6    0.389   0.013  -0.077
    1res  C7    7    0.110   0.147   0.035
  10.00000  10.00000  10.00000
