1TPCN03789
18
    1res  C1    1    0.330  -0.521  -0.066
    1res  C2    2    0.328  -0.289   0.139
    1res  C3    3    0.149  -0.196  -0.068
    1res  C4    4    0.334  -0.037  -0.059
    1res  C5    5    0.557   0.150  -0.069
    1res  C6    6    0.861   0.089   0.013
    1res  C7    7    0.595   0.339   0.152
    1res  C8    8    0.364   0.349  -0.023
    1res  C9    9    0.054   0.023   0.093
    1res  C10   10    0.007  -0.027  -0.200
    1res  C11   11   -0.243  -0.266   0.000
    1res  C12   12   -0.265  -0.042  -0.164
    1res  C13   13   -0.499   0.014  -0.029
    1res  C14   14   -0.558  -0.038   0.219
    1res  C15   15   -0.651   0.234   0.126
    1res  C16   16   -0.510   0.465   0.100
    1res  C17   17   -0.296   0.220  -0.127
    1res  C18   18    0.075  -0.466  -0.103
  10.00000  10.00000  10.00000
