[ moleculetype ]
; name        nrexcl
res           1

[ atoms ]
;    nr  type resnr resid  atom  cgnr     charge       mass
      1 SC4       1 res   C1        1      0.000     54.000
      2 TC3       1 res   C2        2      0.000     36.000
      3 SC4       1 res   C3        3      0.000     54.000
      4 TC4       1 res   C4        4      0.000     36.000
      5 SP2       1 res   C5        5      0.000     54.000
      6 SC3       1 res   C6        6      0.000     54.000
      7 C4        1 res   C7        7      0.000     72.000
      8 TN4a      1 res   C8        8      0.000     36.000
      9 SC3       1 res   C9        9      0.000     54.000
     10 SC4       1 res   C10      10      0.000     54.000
     11 SC4       1 res   C11      11      0.000     54.000
     12 SC3       1 res   C12      12      0.000     54.000
     13 TC5       1 res   C13      13      0.000     36.000
     14 TC5       1 res   C14      14      0.000     36.000
     15 SN6       1 res   C15      15      0.000     54.000

[ bonds ]
;  ai    aj   funct      b0(nm)        k
    1     2     1      0.27859    20000
    1     3     1      0.37989    20000
    1     7     1      0.31404    20000
    2     3     1      0.37183    20000
    3     4     1      0.41024    20000
    3     6     1      0.27456    20000
    4     5     1      0.29714    20000
    4     6     1      0.28904    20000
    7     8     1      0.29623    20000
    8     9     1      0.28662    20000
    8    15     1      0.34231    20000
    9    10     1      0.41514    20000
    9    13     1      0.26898    20000
   10    11     1      0.38743    20000
   10    12     1      0.27408    20000
   10    13     1      0.28818    20000
   11    12     1      0.31433    20000
   13    14     1      0.25353    20000
   13    15     1      0.31708    20000
   14    15     1      0.27040    20000
