1TPCN02361
10
    1res  C1    1   -0.406   0.125  -0.014
    1res  C2    2   -0.345  -0.162  -0.012
    1res  C3    3   -0.099  -0.229   0.006
    1res  C4    4   -0.137   0.042   0.168
    1res  C5    5   -0.035   0.153  -0.163
    1res  C6    6    0.092   0.054   0.050
    1res  C7    7    0.221  -0.094  -0.167
    1res  C8    8    0.205  -0.171   0.112
    1res  C9    9    0.357   0.119  -0.074
    1res  C10   10    0.507   0.035   0.086
  10.00000  10.00000  10.00000
