[ moleculetype ]
; name        nrexcl
res           1

[ atoms ]
;    nr  type resnr resid  atom  cgnr     charge       mass
      1 TN3r      1 res   C1        1      0.000     36.000
      2 TC3       1 res   C2        2      0.000     36.000
      3 TN6d      1 res   C3        3      0.000     36.000
      4 TC3       1 res   C4        4      0.000     36.000
      5 TC5       1 res   C5        5      0.000     36.000
      6 TN6d      1 res   C6        6      0.000     36.000
      7 TC5       1 res   C7        7      0.000     36.000
      8 TC5       1 res   C8        8      0.000     36.000
      9 TC5       1 res   C9        9      0.000     36.000
     10 TC3       1 res   C10      10      0.000     36.000
     11 SP2       1 res   C11      11      0.000     54.000
     12 TC3       1 res   C12      12      0.000     36.000
     13 TC5       1 res   C13      13      0.000     36.000

[ bonds ]
;  ai    aj   funct      b0(nm)        k
    1     2     1      0.26139    20000
    2     3     1      0.22244    20000
    2    13     1      0.28312    20000
    3     4     1      0.28775    20000
    3    13     1      0.24912    20000
    4     5     1      0.25986    20000
    5     6     1      0.21985    20000
    5     7     1      0.17769    20000
    5    10     1      0.29371    20000
    6     7     1      0.21629    20000
    7     8     1      0.25013    20000
    7     9     1      0.25028    20000
    8     9     1      0.29327    20000
   10    11     1      0.30211    20000
   10    12     1      0.23726    20000
   10    13     1      0.27539    20000
   12    13     1      0.26022    20000
