[ moleculetype ]
; name        nrexcl
res           1

[ atoms ]
;    nr  type resnr resid  atom  cgnr     charge       mass
      1 SC2       1 res   C1        1      0.000     54.000
      2 SC2       1 res   C2        2      0.000     54.000
      3 SN3r      1 res   C3        3      0.000     54.000
      4 SN4a      1 res   C4        4      0.000     54.000
      5 TP1       1 res   C5        5      0.000     36.000
      6 SP4       1 res   C6        6      0.000     54.000
      7 TN6       1 res   C7        7      0.000     36.000
      8 SC3       1 res   C8        8      0.000     54.000
      9 SC3       1 res   C9        9      0.000     54.000
     10 SN6       1 res   C10      10      0.000     54.000
     11 SC4       1 res   C11      11      0.000     54.000
     12 SC4       1 res   C12      12      0.000     54.000
     13 TC3       1 res   C13      13      0.000     36.000
     14 TN6       1 res   C14      14      0.000     36.000
     15 SC4       1 res   C15      15      0.000     54.000
     16 SN6       1 res   C16      16      0.000     54.000
     17 SN4a      1 res   C17      17      0.000     54.000
     18 TP1       1 res   C18      18      0.000     36.000
     19 SP4       1 res   C19      19      0.000     54.000
     20 TN6       1 res   C20      20      0.000     36.000

[ bonds ]
;  ai    aj   funct      b0(nm)        k
    1     2     1      0.33617    20000
    2     3     1      0.29109    20000
    3     4     1      0.30759    20000
    3     8     1      0.25767    20000
    4     5     1      0.28432    20000
    4     6     1      0.28405    20000
    4     7     1      0.29459    20000
    6     7     1      0.27283    20000
    8     9     1      0.21575    20000
    8    10     1      0.36039    20000
    9    11     1      0.31701    20000
   10    11     1      0.38471    20000
   11    12     1      0.38235    20000
   11    16     1      0.28745    20000
   12    13     1      0.27867    20000
   12    15     1      0.33035    20000
   12    16     1      0.37307    20000
   13    14     1      0.29014    20000
   14    15     1      0.24298    20000
   16    17     1      0.28938    20000
   17    18     1      0.31874    20000
   17    19     1      0.26726    20000
   17    20     1      0.29431    20000
   19    20     1      0.31126    20000
