1TPCN03384
10
    1res  C1    1    0.572  -0.066   0.086
    1res  C2    2    0.182   0.082  -0.020
    1res  C3    3   -0.042   0.061   0.176
    1res  C4    4   -0.042  -0.242   0.131
    1res  C5    5   -0.332  -0.153   0.144
    1res  C6    6   -0.296   0.134   0.104
    1res  C7    7   -0.467   0.107  -0.164
    1res  C8    8   -0.677   0.116  -0.011
    1res  C9    9   -0.239   0.040  -0.240
    1res  C10   10    0.504  -0.013  -0.191
  10.00000  10.00000  10.00000
