[ moleculetype ]
; name        nrexcl
res           1

[ atoms ]
;    nr  type resnr resid  atom  cgnr     charge       mass
      1 TC4       1 res   C1        1      0.000     36.000
      2 SC3       1 res   C2        2      0.000     54.000
      3 SC3       1 res   C3        3      0.000     54.000
      4 SC4       1 res   C4        4      0.000     54.000
      5 SC3       1 res   C5        5      0.000     54.000
      6 TC4       1 res   C6        6      0.000     36.000
      7 SN4a      1 res   C7        7      0.000     54.000
      8 SN4a      1 res   C8        8      0.000     54.000
      9 TP1       1 res   C9        9      0.000     36.000
     10 SP4       1 res   C10      10      0.000     54.000
     11 TN6       1 res   C11      11      0.000     36.000
     12 TC3       1 res   C12      12      0.000     36.000
     13 TN6       1 res   C13      13      0.000     36.000

[ bonds ]
;  ai    aj   funct      b0(nm)        k
    1     2     1      0.32349    20000
    1    13     1      0.25294    20000
    2     3     1      0.25702    20000
    2    12     1      0.34809    20000
    2    13     1      0.30415    20000
    3     4     1      0.36797    20000
    4     5     1      0.25298    20000
    4     6     1      0.37798    20000
    4    12     1      0.26188    20000
    5     6     1      0.36075    20000
    6     7     1      0.27459    20000
    7     8     1      0.23950    20000
    8     9     1      0.31316    20000
    8    10     1      0.28553    20000
    8    11     1      0.26510    20000
   10    11     1      0.27963    20000
