1TPCN03318
10
    1res  C1    1    0.282  -0.372  -0.158
    1res  C2    2    0.344  -0.169  -0.024
    1res  C3    3    0.340   0.074   0.100
    1res  C4    4    0.614  -0.023   0.134
    1res  C5    5    0.151   0.002   0.003
    1res  C6    6    0.086   0.272   0.136
    1res  C7    7   -0.144  -0.076  -0.149
    1res  C8    8   -0.213   0.107   0.044
    1res  C9    9   -0.328   0.098   0.244
    1res  C10   10   -0.420   0.075  -0.121
  10.00000  10.00000  10.00000
