[ moleculetype ]
; name        nrexcl
res           1

[ atoms ]
;    nr  type resnr resid  atom  cgnr     charge       mass
      1 TC5       1 res   C1        1      0.000     36.000
      2 N3r       1 res   C2        2      0.000     72.000
      3 SC4       1 res   C3        3      0.000     54.000
      4 TC3       1 res   C4        4      0.000     36.000
      5 SC4       1 res   C5        5      0.000     54.000
      6 SC4       1 res   C6        6      0.000     54.000
      7 TN6       1 res   C7        7      0.000     36.000
      8 SN4a      1 res   C8        8      0.000     54.000
      9 TP1       1 res   C9        9      0.000     36.000
     10 SP4       1 res   C10      10      0.000     54.000
     11 TN6       1 res   C11      11      0.000     36.000
     12 TN4a      1 res   C12      12      0.000     36.000
     13 TC4       1 res   C13      13      0.000     36.000
     14 SP4       1 res   C14      14      0.000     54.000
     15 TN4a      1 res   C15      15      0.000     36.000
     16 TC4       1 res   C16      16      0.000     36.000
     17 SP4       1 res   C17      17      0.000     54.000
     18 TN6       1 res   C18      18      0.000     36.000
     19 TN6       1 res   C19      19      0.000     36.000
     20 TC3       1 res   C20      20      0.000     36.000
     21 TN4a      1 res   C21      21      0.000     36.000
     22 TC4       1 res   C22      22      0.000     36.000
     23 SP4       1 res   C23      23      0.000     54.000
     24 TN6       1 res   C24      24      0.000     36.000

[ bonds ]
;  ai    aj   funct      b0(nm)        k
    1     2     1      0.28608    20000
    2     3     1      0.36353    20000
    2    21     1      0.25520    20000
    3     4     1      0.27685    20000
    3     5     1      0.38707    20000
    4     5     1      0.31839    20000
    5     6     1      0.39527    20000
    5    20     1      0.28365    20000
    6     7     1      0.24599    20000
    7     8     1      0.27524    20000
    7    20     1      0.26417    20000
    8     9     1      0.29263    20000
    8    10     1      0.28066    20000
    8    11     1      0.26304    20000
   10    11     1      0.26935    20000
   11    12     1      0.19625    20000
   12    13     1      0.25964    20000
   12    19     1      0.23003    20000
   13    14     1      0.31354    20000
   14    15     1      0.31282    20000
   14    19     1      0.28366    20000
   15    16     1      0.30012    20000
   15    18     1      0.25515    20000
   16    17     1      0.33731    20000
   17    18     1      0.29204    20000
   21    22     1      0.25790    20000
   21    24     1      0.25795    20000
   22    23     1      0.32798    20000
   23    24     1      0.29278    20000
