1TPCN03020
15
    1res  C1    1    0.263   0.112   0.393
    1res  C2    2   -0.056   0.148   0.331
    1res  C3    3   -0.100  -0.071   0.284
    1res  C4    4   -0.211  -0.295   0.538
    1res  C5    5    0.095  -0.230   0.185
    1res  C6    6    0.284  -0.082  -0.050
    1res  C7    7    0.520  -0.201  -0.254
    1res  C8    8    0.586  -0.383  -0.425
    1res  C9    9    0.320  -0.419  -0.313
    1res  C10   10    0.091  -0.026  -0.212
    1res  C11   11    0.150   0.314  -0.063
    1res  C12   12   -0.126  -0.082  -0.276
    1res  C13   13   -0.133   0.264  -0.491
    1res  C14   14   -0.295   0.340  -0.157
    1res  C15   15   -0.407   0.037   0.085
  10.00000  10.00000  10.00000
