1TPCN01148
8
    1res  C1    1    0.352  -0.208  -0.069
    1res  C2    2    0.439   0.024  -0.152
    1res  C3    3    0.198   0.121  -0.116
    1res  C4    4    0.022   0.269   0.154
    1res  C5    5   -0.095  -0.004   0.098
    1res  C6    6   -0.237   0.059  -0.110
    1res  C7    7   -0.253  -0.187   0.039
    1res  C8    8    0.108  -0.098  -0.029
  10.00000  10.00000  10.00000
