[ moleculetype ]
; name        nrexcl
res           1

[ atoms ]
;    nr  type resnr resid  atom  cgnr     charge       mass
      1 SN4a      1 res   C1        1      0.000     54.000
      2 N6a       1 res   C2        2      0.000     72.000
      3 SP1       1 res   C3        3      0.000     54.000
      4 TC3       1 res   C4        4      0.000     36.000
      5 SC3       1 res   C5        5      0.000     54.000
      6 P2        1 res   C6        6      0.000     72.000
      7 SN4a      1 res   C7        7      0.000     54.000
      8 SC2       1 res   C8        8      0.000     54.000

[ bonds ]
;  ai    aj   funct      b0(nm)        k
    1     2     1      0.27527    20000
    2     3     1      0.36896    20000
    2     6     1      0.30504    20000
    3     4     1      0.30171    20000
    4     5     1      0.27531    20000
    5     6     1      0.30053    20000
    6     7     1      0.36104    20000
    7     8     1      0.26957    20000
