1TPCN00789
11
    1res  C1    1   -0.472  -0.247   0.058
    1res  C2    2   -0.380   0.084   0.022
    1res  C3    3   -0.205  -0.058   0.087
    1res  C4    4   -0.007   0.097  -0.017
    1res  C5    5    0.105   0.066   0.003
    1res  C6    6    0.220   0.035   0.024
    1res  C7    7    0.365  -0.123   0.157
    1res  C8    8    0.425   0.094  -0.046
    1res  C9    9    0.710  -0.040   0.055
    1res  C10   10    0.103   0.301  -0.234
    1res  C11   11   -0.189   0.219  -0.169
  10.00000  10.00000  10.00000
