1TPCN00597
10
    1res  C1    1   -0.269   0.152   0.100
    1res  C2    2   -0.077  -0.020  -0.118
    1res  C3    3   -0.049   0.246  -0.134
    1res  C4    4    0.089   0.064  -0.025
    1res  C5    5    0.229   0.021   0.029
    1res  C6    6    0.485   0.013   0.113
    1res  C7    7    0.393   0.281   0.033
    1res  C8    8    0.113  -0.285  -0.006
    1res  C9    9   -0.101  -0.190   0.026
    1res  C10   10   -0.282  -0.140  -0.154
  10.00000  10.00000  10.00000
