[ moleculetype ]
; name        nrexcl
res           1

[ atoms ]
;    nr  type resnr resid  atom  cgnr     charge       mass
      1 C1        1 res   C1        1      0.000     72.000
      2 SN4a      1 res   C2        2      0.000     54.000
      3 TC5       1 res   C3        3      0.000     36.000
      4 TC5       1 res   C4        4      0.000     36.000
      5 TC5       1 res   C5        5      0.000     36.000
      6 N4a       1 res   C6        6      0.000     72.000
      7 SC2       1 res   C7        7      0.000     54.000

[ bonds ]
;  ai    aj   funct      b0(nm)        k
    1     2     1      0.36604    20000
    2     3     1      0.24276    20000
    3     4     1      0.25789    20000
    3     5     1      0.30578    20000
    4     5     1      0.25787    20000
    5     6     1      0.35813    20000
    6     7     1      0.27564    20000
