1TPCN00540
11
    1res  C1    1   -0.469   0.080  -0.030
    1res  C2    2   -0.265  -0.122   0.105
    1res  C3    3   -0.088   0.062  -0.090
    1res  C4    4   -0.055  -0.178  -0.051
    1res  C5    5    0.152  -0.152   0.128
    1res  C6    6    0.210  -0.186  -0.146
    1res  C7    7    0.336  -0.135  -0.028
    1res  C8    8    0.545  -0.205  -0.146
    1res  C9    9    0.532  -0.077   0.117
    1res  C10   10   -0.026  -0.013   0.198
    1res  C11   11    0.167   0.275  -0.042
  10.00000  10.00000  10.00000
