1TPCN03585
27
    1res  C1    1    1.286  -0.072  -0.005
    1res  C2    2    1.041  -0.222  -0.088
    1res  C3    3    0.814  -0.137  -0.157
    1res  C4    4    0.635  -0.162   0.084
    1res  C5    5    0.907   0.234   0.082
    1res  C6    6    0.545   0.139  -0.130
    1res  C7    7    0.497   0.167   0.136
    1res  C8    8    0.302  -0.170   0.088
    1res  C9    9    0.216   0.102   0.210
    1res  C10   10    0.078   0.056  -0.109
    1res  C11   11   -0.098  -0.135  -0.081
    1res  C12   12   -0.258   0.162   0.019
    1res  C13   13   -0.548  -0.080  -0.070
    1res  C14   14   -0.754  -0.230  -0.283
    1res  C15   15   -0.738  -0.085   0.117
    1res  C16   16   -0.967  -0.292   0.102
    1res  C17   17   -0.978  -0.585   0.200
    1res  C18   18   -1.228  -0.342   0.039
    1res  C19   19   -1.069  -0.181  -0.113
    1res  C20   20   -0.543   0.066   0.107
    1res  C21   21   -0.577   0.359   0.121
    1res  C22   22   -0.548   0.424  -0.170
    1res  C23   23   -0.804   0.475   0.038
    1res  C24   24   -0.799   0.277   0.217
    1res  C25   25   -0.214   0.206  -0.243
    1res  C26   26    0.139   0.302   0.013
    1res  C27   27    0.726  -0.417   0.033
  10.00000  10.00000  10.00000
