1TPCN02419
19
    1res  C1    1   -0.357   0.010  -0.358
    1res  C2    2   -0.350  -0.067  -0.118
    1res  C3    3   -0.178  -0.112   0.096
    1res  C4    4   -0.514  -0.143   0.127
    1res  C5    5   -0.260  -0.368   0.052
    1res  C6    6   -0.103  -0.299  -0.147
    1res  C7    7    0.139  -0.397  -0.057
    1res  C8    8   -0.065  -0.024  -0.137
    1res  C9    9    0.170   0.074   0.053
    1res  C10   10    0.298   0.012  -0.148
    1res  C11   11    0.128   0.262  -0.209
    1res  C12   12    0.276   0.230  -0.436
    1res  C13   13   -0.112   0.148   0.014
    1res  C14   14    0.047   0.480   0.135
    1res  C15   15    0.334   0.083   0.213
    1res  C16   16    0.418  -0.147   0.240
    1res  C17   17    0.551  -0.313   0.386
    1res  C18   18    0.517  -0.051   0.509
    1res  C19   19   -0.306   0.256   0.148
  10.00000  10.00000  10.00000
