1TPCN03070
12
    1res  C1    1   -0.379   0.277   0.139
    1res  C2    2   -0.526   0.077   0.014
    1res  C3    3   -0.446  -0.185  -0.045
    1res  C4    4   -0.247  -0.104  -0.243
    1res  C5    5   -0.175   0.109  -0.072
    1res  C6    6   -0.042  -0.165   0.133
    1res  C7    7    0.093  -0.026  -0.182
    1res  C8    8    0.320  -0.072  -0.054
    1res  C9    9    0.397  -0.235   0.130
    1res  C10   10    0.550  -0.052   0.274
    1res  C11   11    0.513   0.139   0.109
    1res  C12   12    0.166   0.191  -0.013
  10.00000  10.00000  10.00000
