1TPCN02676
8
    1res  C1    1    0.426  -0.022   0.023
    1res  C2    2    0.123  -0.165  -0.033
    1res  C3    3   -0.088  -0.087  -0.131
    1res  C4    4   -0.338  -0.095  -0.080
    1res  C5    5   -0.219   0.227  -0.001
    1res  C6    6   -0.080  -0.099   0.106
    1res  C7    7    0.212   0.033   0.253
    1res  C8    8    0.157   0.190  -0.043
  10.00000  10.00000  10.00000
