[ moleculetype ]
; name        nrexcl
res           1

[ atoms ]
;    nr  type resnr resid  atom  cgnr     charge       mass
      1 TC4       1 res   C1        1      0.000     36.000
      2 TC3       1 res   C2        2      0.000     36.000
      3 TC5       1 res   C3        3      0.000     36.000
      4 SN4a      1 res   C4        4      0.000     54.000
      5 SN4a      1 res   C5        5      0.000     54.000
      6 TP1       1 res   C6        6      0.000     36.000
      7 SP4       1 res   C7        7      0.000     54.000
      8 TN6       1 res   C8        8      0.000     36.000
      9 TC3       1 res   C9        9      0.000     36.000
     10 SC4       1 res   C10      10      0.000     54.000
     11 TC3       1 res   C11      11      0.000     36.000
     12 SC4       1 res   C12      12      0.000     54.000
     13 SC4       1 res   C13      13      0.000     54.000
     14 TC3       1 res   C14      14      0.000     36.000
     15 TN6       1 res   C15      15      0.000     36.000
     16 SN4a      1 res   C16      16      0.000     54.000
     17 SP4       1 res   C17      17      0.000     54.000
     18 TN6       1 res   C18      18      0.000     36.000
     19 SN4a      1 res   C19      19      0.000     54.000
     20 TP1       1 res   C20      20      0.000     36.000
     21 SP4       1 res   C21      21      0.000     54.000
     22 TN6       1 res   C22      22      0.000     36.000
     23 SC4       1 res   C23      23      0.000     54.000
     24 TC3       1 res   C24      24      0.000     36.000
     25 SN6       1 res   C25      25      0.000     54.000

[ bonds ]
;  ai    aj   funct      b0(nm)        k
    1     2     1      0.30674    20000
    1    25     1      0.26275    20000
    2     3     1      0.25501    20000
    3     4     1      0.30064    20000
    3     9     1      0.26617    20000
    3    10     1      0.31564    20000
    3    25     1      0.26875    20000
    4     5     1      0.22630    20000
    5     6     1      0.31118    20000
    5     7     1      0.26860    20000
    5     8     1      0.28664    20000
    7     8     1      0.26339    20000
    9    10     1      0.30733    20000
   10    11     1      0.38621    20000
   10    12     1      0.31119    20000
   11    12     1      0.37461    20000
   12    13     1      0.37065    20000
   12    24     1      0.29118    20000
   13    14     1      0.27994    20000
   13    23     1      0.39374    20000
   13    24     1      0.37181    20000
   14    15     1      0.26558    20000
   15    16     1      0.32694    20000
   15    23     1      0.24388    20000
   16    17     1      0.27313    20000
   16    18     1      0.25264    20000
   17    18     1      0.27911    20000
   18    19     1      0.25464    20000
   19    20     1      0.31626    20000
   19    21     1      0.28754    20000
   19    22     1      0.24487    20000
   21    22     1      0.25331    20000
