1TPCN02823
9
    1res  C1    1   -0.169  -0.142  -0.077
    1res  C2    2   -0.333  -0.195   0.176
    1res  C3    3   -0.309   0.133  -0.073
    1res  C4    4   -0.108   0.203   0.136
    1res  C5    5    0.026  -0.018   0.126
    1res  C6    6    0.244  -0.084  -0.020
    1res  C7    7    0.332  -0.304  -0.021
    1res  C8    8    0.483   0.025  -0.063
    1res  C9    9    0.184   0.165  -0.161
  10.00000  10.00000  10.00000
