1TPCN00891
10
    1res  C1    1   -0.018   0.026   0.318
    1res  C2    2   -0.151   0.247   0.344
    1res  C3    3   -0.299   0.062   0.220
    1res  C4    4   -0.403   0.027  -0.114
    1res  C5    5   -0.365  -0.253  -0.073
    1res  C6    6   -0.004  -0.163  -0.122
    1res  C7    7    0.040   0.070   0.045
    1res  C8    8    0.454   0.053   0.150
    1res  C9    9    0.384   0.282  -0.007
    1res  C10   10    0.423   0.143  -0.317
  10.00000  10.00000  10.00000
