1TPCN02614
10
    1res  C1    1    0.467  -0.049   0.012
    1res  C2    2    0.282  -0.121  -0.161
    1res  C3    3    0.221  -0.184   0.135
    1res  C4    4   -0.021  -0.230  -0.062
    1res  C5    5   -0.027   0.012  -0.070
    1res  C6    6   -0.374  -0.096  -0.060
    1res  C7    7   -0.328   0.193  -0.002
    1res  C8    8   -0.080   0.240  -0.124
    1res  C9    9   -0.091   0.107   0.219
    1res  C10   10    0.273   0.175   0.108
  10.00000  10.00000  10.00000
