1TPCN02240
20
    1res  C1    1    0.074   0.200  -0.318
    1res  C2    2   -0.018  -0.062  -0.231
    1res  C3    3    0.285  -0.101  -0.092
    1res  C4    4    0.074   0.110   0.145
    1res  C5    5    0.293   0.177   0.295
    1res  C6    6    0.514   0.092   0.161
    1res  C7    7    0.824   0.018   0.205
    1res  C8    8    1.026  -0.197   0.308
    1res  C9    9    0.903   0.125   0.454
    1res  C10   10    0.739   0.271   0.275
    1res  C11   11    0.187  -0.128   0.278
    1res  C12   12   -0.187   0.083  -0.128
    1res  C13   13   -0.417   0.036  -0.396
    1res  C14   14   -0.407  -0.056  -0.696
    1res  C15   15   -0.658  -0.110  -0.456
    1res  C16   16   -0.528  -0.124  -0.205
    1res  C17   17   -0.688  -0.067   0.002
    1res  C18   18   -0.832   0.172   0.140
    1res  C19   19   -0.628  -0.122   0.261
    1res  C20   20   -0.505  -0.239   0.037
  10.00000  10.00000  10.00000
