[ moleculetype ]
; name        nrexcl
res           1

[ atoms ]
;    nr  type resnr resid  atom  cgnr     charge       mass
      1 TC4       1 res   C1        1      0.000     36.000
      2 SP2       1 res   C2        2      0.000     54.000
      3 SC3       1 res   C3        3      0.000     54.000
      4 SC4       1 res   C4        4      0.000     54.000
      5 TC5       1 res   C5        5      0.000     36.000
      6 TC3       1 res   C6        6      0.000     36.000
      7 SN6       1 res   C7        7      0.000     54.000
      8 P1        1 res   C8        8      0.000     72.000
      9 SN6a      1 res   C9        9      0.000     54.000

[ bonds ]
;  ai    aj   funct      b0(nm)        k
    1     2     1      0.30945    20000
    1     3     1      0.30636    20000
    1     4     1      0.29825    20000
    3     4     1      0.33234    20000
    4     5     1      0.27086    20000
    4     9     1      0.35306    20000
    5     6     1      0.25496    20000
    5     7     1      0.27802    20000
    5     9     1      0.25942    20000
    6     7     1      0.26950    20000
    7     8     1      0.27351    20000
