[ moleculetype ]
; name        nrexcl
res           1

[ atoms ]
;    nr  type resnr resid  atom  cgnr     charge       mass
      1 C4        1 res   C1        1      0.000     72.000
      2 SC4       1 res   C2        2      0.000     54.000
      3 TC3       1 res   C3        3      0.000     36.000
      4 SN5a      1 res   C4        4      0.000     54.000
      5 TN6a      1 res   C5        5      0.000     36.000
      6 TN4a      1 res   C6        6      0.000     36.000
      7 TC3       1 res   C7        7      0.000     36.000
      8 TC4       1 res   C8        8      0.000     36.000
      9 TC3       1 res   C9        9      0.000     36.000
     10 C4        1 res   C10      10      0.000     72.000
     11 TN6a      1 res   C11      11      0.000     36.000
     12 TN4a      1 res   C12      12      0.000     36.000
     13 TC3       1 res   C13      13      0.000     36.000
     14 TC4       1 res   C14      14      0.000     36.000
     15 TC3       1 res   C15      15      0.000     36.000

[ bonds ]
;  ai    aj   funct      b0(nm)        k
    1     2     1      0.38510    20000
    1    13     1      0.30890    20000
    2     3     1      0.35464    20000
    2    11     1      0.26318    20000
    2    12     1      0.29078    20000
    3     4     1      0.28714    20000
    3     5     1      0.26789    20000
    3     6     1      0.21101    20000
    3    10     1      0.29766    20000
    5     6     1      0.26432    20000
    6     7     1      0.26643    20000
    7     8     1      0.32417    20000
    7     9     1      0.25574    20000
    7    10     1      0.31625    20000
    8     9     1      0.31727    20000
   11    12     1      0.25853    20000
   12    13     1      0.27149    20000
   13    14     1      0.30351    20000
   13    15     1      0.26069    20000
   14    15     1      0.32020    20000
