1TPCN01465
19
    1res  C1    1    0.213  -0.011  -0.246
    1res  C2    2    0.153  -0.072   0.174
    1res  C3    3    0.384  -0.154   0.146
    1res  C4    4    0.540  -0.094  -0.049
    1res  C5    5    0.747  -0.211   0.063
    1res  C6    6    0.697  -0.109  -0.105
    1res  C7    7    0.197   0.223   0.142
    1res  C8    8   -0.097  -0.068   0.193
    1res  C9    9   -0.110   0.148   0.273
    1res  C10   10   -0.245   0.272   0.234
    1res  C11   11   -0.252   0.072  -0.034
    1res  C12   12   -0.199  -0.189  -0.113
    1res  C13   13   -0.353  -0.348  -0.004
    1res  C14   14   -0.459  -0.583  -0.001
    1res  C15   15   -0.273  -0.542  -0.220
    1res  C16   16   -0.051   0.341  -0.123
    1res  C17   17   -0.048   0.194  -0.335
    1res  C18   18   -0.036   0.402  -0.494
    1res  C19   19   -0.044   0.200  -0.502
  10.00000  10.00000  10.00000
