[ moleculetype ]
; name        nrexcl
res           1

[ atoms ]
;    nr  type resnr resid  atom  cgnr     charge       mass
      1 SC4       1 res   C1        1      0.000     54.000
      2 TC3       1 res   C2        2      0.000     36.000
      3 SC5       1 res   C3        3      0.000     54.000
      4 SN4a      1 res   C4        4      0.000     54.000
      5 SN4a      1 res   C5        5      0.000     54.000
      6 TN3r      1 res   C6        6      0.000     36.000
      7 SN4a      1 res   C7        7      0.000     54.000
      8 TP1       1 res   C8        8      0.000     36.000
      9 SP4       1 res   C9        9      0.000     54.000
     10 TN6       1 res   C10      10      0.000     36.000
     11 SP4       1 res   C11      11      0.000     54.000
     12 TN6       1 res   C12      12      0.000     36.000
     13 TC3       1 res   C13      13      0.000     36.000
     14 SC4       1 res   C14      14      0.000     54.000
     15 TC3       1 res   C15      15      0.000     36.000
     16 SC4       1 res   C16      16      0.000     54.000
     17 SC4       1 res   C17      17      0.000     54.000
     18 TC3       1 res   C18      18      0.000     36.000
     19 SN6       1 res   C19      19      0.000     54.000
     20 SN4a      1 res   C20      20      0.000     54.000
     21 SP4       1 res   C21      21      0.000     54.000
     22 TN6       1 res   C22      22      0.000     36.000
     23 TP1       1 res   C23      23      0.000     36.000
     24 TC3       1 res   C24      24      0.000     36.000

[ bonds ]
;  ai    aj   funct      b0(nm)        k
    1     2     1      0.29494    20000
    1     3     1      0.28847    20000
    2     3     1      0.28227    20000
    3     4     1      0.30843    20000
    3    13     1      0.36775    20000
    3    14     1      0.35701    20000
    4     5     1      0.26905    20000
    5     6     1      0.29569    20000
    5    11     1      0.29875    20000
    5    12     1      0.26642    20000
    6     7     1      0.30969    20000
    7     8     1      0.27214    20000
    7     9     1      0.28465    20000
    7    10     1      0.27951    20000
    9    10     1      0.29980    20000
   11    12     1      0.26741    20000
   13    14     1      0.27314    20000
   14    15     1      0.30791    20000
   14    16     1      0.27422    20000
   15    16     1      0.32076    20000
   16    17     1      0.33067    20000
   16    24     1      0.26645    20000
   17    18     1      0.27394    20000
   17    19     1      0.33857    20000
   17    24     1      0.31617    20000
   18    19     1      0.32670    20000
   19    20     1      0.36381    20000
   19    23     1      0.25902    20000
   20    21     1      0.26108    20000
   20    22     1      0.28931    20000
   21    22     1      0.28925    20000
