1TPCN02030
7
    1res  C1    1   -0.217  -0.169  -0.193
    1res  C2    2   -0.057  -0.172   0.010
    1res  C3    3    0.200  -0.092   0.090
    1res  C4    4    0.294  -0.168  -0.059
    1res  C5    5    0.358   0.106  -0.067
    1res  C6    6    0.030   0.121   0.094
    1res  C7    7   -0.235   0.174   0.080
  10.00000  10.00000  10.00000
