1TPCN03494
11
    1res  C1    1    0.542  -0.218   0.095
    1res  C2    2    0.292  -0.031   0.120
    1res  C3    3    0.209  -0.078  -0.093
    1res  C4    4   -0.062  -0.113  -0.159
    1res  C5    5    0.024  -0.294   0.069
    1res  C6    6   -0.175  -0.137   0.157
    1res  C7    7   -0.426  -0.137   0.053
    1res  C8    8   -0.316   0.124  -0.123
    1res  C9    9   -0.033   0.061   0.048
    1res  C10   10    0.200   0.180  -0.072
    1res  C11   11    0.064   0.492  -0.062
  10.00000  10.00000  10.00000
