[ moleculetype ]
; name        nrexcl
res           1

[ atoms ]
;    nr  type resnr resid  atom  cgnr     charge       mass
      1 TC4       1 res   C1        1      0.000     36.000
      2 SC3       1 res   C2        2      0.000     54.000
      3 SC4       1 res   C3        3      0.000     54.000
      4 SC5       1 res   C4        4      0.000     54.000
      5 SC4       1 res   C5        5      0.000     54.000

[ bonds ]
;  ai    aj   funct      b0(nm)        k
    1     2     1      0.34305    20000
    1     3     1      0.29545    20000
    2     3     1      0.30902    20000
    3     4     1      0.25623    20000
    3     5     1      0.46129    20000
    4     5     1      0.25748    20000
