1TPCN03723
18
    1res  C1    1    0.283   0.088  -0.322
    1res  C2    2    0.149   0.213  -0.068
    1res  C3    3    0.123  -0.078   0.004
    1res  C4    4    0.314   0.003   0.124
    1res  C5    5    0.589  -0.029  -0.038
    1res  C6    6    0.748   0.089  -0.254
    1res  C7    7    0.821  -0.027   0.108
    1res  C8    8    0.578   0.061   0.240
    1res  C9    9   -0.056   0.015   0.198
    1res  C10   10   -0.059  -0.239   0.093
    1res  C11   11   -0.197  -0.046  -0.234
    1res  C12   12   -0.305  -0.272  -0.068
    1res  C13   13   -0.519   0.028  -0.048
    1res  C14   14   -0.355   0.243  -0.014
    1res  C15   15   -0.649   0.196   0.145
    1res  C16   16   -0.547   0.108   0.378
    1res  C17   17   -0.451  -0.201   0.166
    1res  C18   18    0.197  -0.168  -0.239
  10.00000  10.00000  10.00000
