[ moleculetype ]
; name        nrexcl
res           1

[ atoms ]
;    nr  type resnr resid  atom  cgnr     charge       mass
      1 C4        1 res   C1        1      0.000     72.000
      2 SC2       1 res   C2        2      0.000     54.000
      3 SC4       1 res   C3        3      0.000     54.000
      4 SN4a      1 res   C4        4      0.000     54.000
      5 SC2       1 res   C5        5      0.000     54.000
      6 SN4a      1 res   C6        6      0.000     54.000
      7 TC5       1 res   C7        7      0.000     36.000
      8 TC5       1 res   C8        8      0.000     36.000
      9 SN2a      1 res   C9        9      0.000     54.000
     10 TN6       1 res   C10      10      0.000     36.000

[ bonds ]
;  ai    aj   funct      b0(nm)        k
    1     2     1      0.38266    20000
    1     6     1      0.29313    20000
    2     3     1      0.32239    20000
    3     4     1      0.25795    20000
    4     5     1      0.25535    20000
    6     7     1      0.25639    20000
    7     8     1      0.23584    20000
    7    10     1      0.34476    20000
    8     9     1      0.24537    20000
    8    10     1      0.30390    20000
