1TPCN03712
24
    1res  C1    1    1.202  -0.092  -0.232
    1res  C2    2    0.997  -0.059   0.050
    1res  C3    3    0.859  -0.201   0.267
    1res  C4    4    0.622  -0.212   0.187
    1res  C5    5    0.581   0.076   0.168
    1res  C6    6    0.321  -0.001   0.167
    1res  C7    7    0.222   0.213   0.107
    1res  C8    8    0.191  -0.111   0.028
    1res  C9    9   -0.045   0.045  -0.146
    1res  C10   10   -0.154   0.077   0.064
    1res  C11   11   -0.354   0.135   0.064
    1res  C12   12   -0.595   0.054   0.238
    1res  C13   13   -0.528  -0.103  -0.058
    1res  C14   14   -0.750  -0.262  -0.025
    1res  C15   15   -0.919  -0.417  -0.198
    1res  C16   16   -1.005  -0.152   0.001
    1res  C17   17   -0.859  -0.293   0.230
    1res  C18   18   -0.425   0.088  -0.137
    1res  C19   19   -0.477   0.222  -0.308
    1res  C20   20   -0.763   0.253  -0.239
    1res  C21   21   -0.629   0.489  -0.159
    1res  C22   22   -0.372   0.430  -0.263
    1res  C23   23   -0.014  -0.053   0.243
    1res  C24   24    0.446  -0.084  -0.084
  10.00000  10.00000  10.00000
