1TPCN00696
9
    1res  C1    1    0.017  -0.215  -0.264
    1res  C2    2    0.031   0.076  -0.133
    1res  C3    3    0.254  -0.060  -0.043
    1res  C4    4    0.433   0.094   0.168
    1res  C5    5   -0.261   0.079  -0.058
    1res  C6    6   -0.157   0.227   0.151
    1res  C7    7   -0.340  -0.021   0.206
    1res  C8    8   -0.436  -0.157   0.040
    1res  C9    9   -0.360  -0.166  -0.166
  10.00000  10.00000  10.00000
