[ moleculetype ]
; name        nrexcl
res           1

[ atoms ]
;    nr  type resnr resid  atom  cgnr     charge       mass
      1 TC3       1 res   C1        1      0.000     36.000
      2 TC3       1 res   C2        2      0.000     36.000
      3 TC4       1 res   C3        3      0.000     36.000
      4 TC4       1 res   C4        4      0.000     36.000
      5 SC4       1 res   C5        5      0.000     54.000
      6 TN6d      1 res   C6        6      0.000     36.000
      7 TC5       1 res   C7        7      0.000     36.000
      8 TC5       1 res   C8        8      0.000     36.000
      9 TC5       1 res   C9        9      0.000     36.000
     10 TC3       1 res   C10      10      0.000     36.000
     11 TC5       1 res   C11      11      0.000     36.000
     12 TC5       1 res   C12      12      0.000     36.000
     13 TC5       1 res   C13      13      0.000     36.000
     14 TN6d      1 res   C14      14      0.000     36.000
     15 TC5       1 res   C15      15      0.000     36.000
     16 TC3       1 res   C16      16      0.000     36.000
     17 TN6d      1 res   C17      17      0.000     36.000
     18 TC3       1 res   C18      18      0.000     36.000
     19 TC3       1 res   C19      19      0.000     36.000
     20 TC3       1 res   C20      20      0.000     36.000
     21 TC5       1 res   C21      21      0.000     36.000
     22 TC3       1 res   C22      22      0.000     36.000
     23 N4a       1 res   C23      23      0.000     72.000

[ bonds ]
;  ai    aj   funct      b0(nm)        k
    1     2     1      0.32682    20000
    2     3     1      0.27646    20000
    2    22     1      0.27913    20000
    3     4     1      0.28151    20000
    4     5     1      0.18834    20000
    4    22     1      0.23688    20000
    5     6     1      0.36202    20000
    5     7     1      0.24518    20000
    5    10     1      0.36164    20000
    6     7     1      0.21521    20000
    7     8     1      0.25027    20000
    7     9     1      0.25029    20000
    8     9     1      0.29295    20000
   10    11     1      0.26327    20000
   10    22     1      0.26048    20000
   11    12     1      0.30458    20000
   11    13     1      0.22153    20000
   12    13     1      0.25005    20000
   13    14     1      0.21751    20000
   13    15     1      0.17720    20000
   14    15     1      0.21915    20000
   15    16     1      0.26038    20000
   15    21     1      0.23336    20000
   16    17     1      0.30205    20000
   17    18     1      0.25681    20000
   17    21     1      0.30635    20000
   18    19     1      0.26307    20000
   18    21     1      0.28067    20000
   19    20     1      0.29794    20000
   19    21     1      0.26993    20000
   22    23     1      0.37031    20000
