[ moleculetype ]
; name        nrexcl
res           1

[ atoms ]
;    nr  type resnr resid  atom  cgnr     charge       mass
      1 TC3       1 res   C1        1      0.000     36.000
      2 TN6d      1 res   C2        2      0.000     36.000
      3 SC4       1 res   C3        3      0.000     54.000
      4 SC3       1 res   C4        4      0.000     54.000
      5 TN3r      1 res   C5        5      0.000     36.000
      6 TC5       1 res   C6        6      0.000     36.000
      7 TC5       1 res   C7        7      0.000     36.000
      8 SC3       1 res   C8        8      0.000     54.000
      9 TC3       1 res   C9        9      0.000     36.000
     10 TN3r      1 res   C10      10      0.000     36.000
     11 SC4       1 res   C11      11      0.000     54.000
     12 SN4a      1 res   C12      12      0.000     54.000
     13 TC5       1 res   C13      13      0.000     36.000
     14 TC5       1 res   C14      14      0.000     36.000
     15 TC5       1 res   C15      15      0.000     36.000
     16 SN4a      1 res   C16      16      0.000     54.000

[ bonds ]
;  ai    aj   funct      b0(nm)        k
    1     2     1      0.25904    20000
    2     3     1      0.27202    20000
    2     6     1      0.28832    20000
    3     4     1      0.31857    20000
    3     6     1      0.38289    20000
    3    11     1      0.33475    20000
    4     5     1      0.31514    20000
    4     6     1      0.31148    20000
    6     7     1      0.27464    20000
    6    11     1      0.24669    20000
    7     8     1      0.21903    20000
    7    11     1      0.28643    20000
    8     9     1      0.30392    20000
    8    16     1      0.44021    20000
    9    10     1      0.25367    20000
    9    11     1      0.38113    20000
   11    12     1      0.34088    20000
   12    13     1      0.24634    20000
   13    14     1      0.25812    20000
   13    15     1      0.30221    20000
   14    15     1      0.29087    20000
