1TPCN03281
8
    1res  C1    1    0.112   0.052   0.239
    1res  C2    2   -0.121  -0.147   0.224
    1res  C3    3   -0.136   0.105   0.073
    1res  C4    4   -0.381  -0.107  -0.038
    1res  C5    5   -0.171   0.099  -0.199
    1res  C6    6    0.278   0.020  -0.023
    1res  C7    7    0.565   0.018   0.080
    1res  C8    8    0.444   0.069  -0.296
  10.00000  10.00000  10.00000
