1TPCN01430
9
    1res  C1    1    0.245  -0.129  -0.177
    1res  C2    2    0.171  -0.333  -0.029
    1res  C3    3   -0.018  -0.151  -0.045
    1res  C4    4   -0.062   0.035   0.082
    1res  C5    5   -0.310  -0.017   0.078
    1res  C6    6   -0.278  -0.200   0.218
    1res  C7    7   -0.279   0.178  -0.031
    1res  C8    8    0.032   0.290  -0.054
    1res  C9    9    0.264   0.042   0.046
  10.00000  10.00000  10.00000
