1TPCN02765
14
    1res  C1    1    0.488  -0.231   0.114
    1res  C2    2    0.310   0.006   0.134
    1res  C3    3    0.164   0.180  -0.010
    1res  C4    4    0.307  -0.027  -0.165
    1res  C5    5    0.375   0.255  -0.213
    1res  C6    6    0.085  -0.121  -0.119
    1res  C7    7   -0.296  -0.158  -0.140
    1res  C8    8   -0.060  -0.410  -0.078
    1res  C9    9   -0.164   0.124  -0.043
    1res  C10   10   -0.445   0.191  -0.052
    1res  C11   11   -0.305  -0.046   0.165
    1res  C12   12   -0.168  -0.139   0.353
    1res  C13   13   -0.002   0.055   0.178
    1res  C14   14   -0.194   0.370   0.127
  10.00000  10.00000  10.00000
