1TPCN03591
26
    1res  C1    1    0.983   0.323   0.323
    1res  C2    2    0.742   0.230   0.131
    1res  C3    3    0.564   0.020   0.088
    1res  C4    4    0.670  -0.137  -0.192
    1res  C5    5    0.945  -0.259  -0.007
    1res  C6    6    0.449  -0.348  -0.000
    1res  C7    7    0.411  -0.335  -0.304
    1res  C8    8    0.324  -0.011  -0.314
    1res  C9    9    0.151  -0.254  -0.251
    1res  C10   10   -0.049  -0.064  -0.255
    1res  C11   11   -0.010   0.162  -0.090
    1res  C12   12   -0.249   0.076  -0.025
    1res  C13   13   -0.397   0.263   0.093
    1res  C14   14   -0.430   0.477   0.313
    1res  C15   15   -0.611   0.180   0.250
    1res  C16   16   -0.680  -0.135   0.208
    1res  C17   17   -0.981  -0.188   0.107
    1res  C18   18   -0.948  -0.091   0.413
    1res  C19   19   -0.687  -0.151   0.417
    1res  C20   20   -0.545   0.095  -0.009
    1res  C21   21   -0.839   0.076  -0.132
    1res  C22   22   -0.849   0.312  -0.262
    1res  C23   23   -0.635   0.119  -0.345
    1res  C24   24   -0.165  -0.105   0.118
    1res  C25   25    0.068  -0.319  -0.019
    1res  C26   26    0.796   0.144  -0.164
  10.00000  10.00000  10.00000
