1TPCN01055
8
    1res  C1    1   -0.156   0.189  -0.045
    1res  C2    2   -0.343  -0.021  -0.079
    1res  C3    3   -0.102  -0.210  -0.051
    1res  C4    4    0.068  -0.094   0.173
    1res  C5    5    0.117   0.183   0.133
    1res  C6    6    0.373   0.163  -0.099
    1res  C7    7    0.247  -0.091  -0.030
    1res  C8    8    0.083  -0.008  -0.219
  10.00000  10.00000  10.00000
