1TPCN01562
17
    1res  C1    1    0.237   0.174   0.047
    1res  C2    2    0.404  -0.007   0.093
    1res  C3    3    0.590  -0.050   0.009
    1res  C4    4    0.717  -0.133  -0.243
    1res  C5    5    0.690   0.186  -0.162
    1res  C6    6    0.854   0.129   0.018
    1res  C7    7    0.678   0.140   0.178
    1res  C8    8    0.279  -0.274   0.081
    1res  C9    9    0.087  -0.122   0.171
    1res  C10   10   -0.125  -0.232   0.068
    1res  C11   11   -0.071   0.031  -0.007
    1res  C12   12   -0.305   0.123  -0.008
    1res  C13   13   -0.619  -0.014   0.002
    1res  C14   14   -0.735   0.120   0.205
    1res  C15   15   -0.828   0.102  -0.096
    1res  C16   16   -0.759  -0.107  -0.208
    1res  C17   17   -0.535  -0.008  -0.282
  10.00000  10.00000  10.00000
