1TPCN01093
6
    1res  C1    1   -0.356   0.154  -0.047
    1res  C2    2   -0.464  -0.086  -0.032
    1res  C3    3   -0.258  -0.062   0.121
    1res  C4    4   -0.042  -0.203   0.020
    1res  C5    5    0.056   0.031  -0.107
    1res  C6    6    0.412   0.109   0.103
  10.00000  10.00000  10.00000
