1TPCN00362
14
    1res  C1    1    0.172  -0.386  -0.099
    1res  C2    2    0.272  -0.146  -0.067
    1res  C3    3    0.393   0.092  -0.104
    1res  C4    4    0.178   0.152   0.035
    1res  C5    5    0.147  -0.050   0.177
    1res  C6    6   -0.058   0.011   0.018
    1res  C7    7   -0.151   0.016   0.254
    1res  C8    8   -0.236  -0.317   0.022
    1res  C9    9   -0.019   0.098  -0.241
    1res  C10   10    0.101   0.229  -0.139
    1res  C11   11    0.052   0.318   0.089
    1res  C12   12   -0.143   0.228   0.026
    1res  C13   13   -0.277   0.425   0.102
    1res  C14   14   -0.383   0.186  -0.031
  10.00000  10.00000  10.00000
