1TPCN01971
7
    1res  C1    1   -0.128  -0.275   0.085
    1res  C2    2   -0.330  -0.048  -0.079
    1res  C3    3   -0.128   0.053   0.073
    1res  C4    4    0.014   0.061  -0.011
    1res  C5    5    0.149   0.158  -0.014
    1res  C6    6    0.357   0.008  -0.139
    1res  C7    7    0.454   0.024   0.107
  10.00000  10.00000  10.00000
