1TPCN02384
20
    1res  C1    1   -0.091   0.439   0.237
    1res  C2    2    0.008   0.289   0.053
    1res  C3    3   -0.045   0.051  -0.034
    1res  C4    4    0.240   0.081  -0.133
    1res  C5    5    0.342  -0.018   0.157
    1res  C6    6    0.478  -0.124   0.349
    1res  C7    7    0.622  -0.138   0.136
    1res  C8    8    0.670  -0.032  -0.072
    1res  C9    9    0.940  -0.020  -0.145
    1res  C10   10    0.920  -0.303  -0.214
    1res  C11   11   -0.160   0.307  -0.207
    1res  C12   12   -0.421   0.222  -0.349
    1res  C13   13   -0.258   0.169   0.056
    1res  C14   14   -0.338  -0.044  -0.014
    1res  C15   15   -0.525  -0.104  -0.052
    1res  C16   16   -0.497  -0.012   0.222
    1res  C17   17   -0.780  -0.105   0.227
    1res  C18   18   -0.212  -0.045   0.250
    1res  C19   19   -0.512  -0.432  -0.217
    1res  C20   20    0.039  -0.202   0.140
  10.00000  10.00000  10.00000
