1TPCN01116
7
    1res  C1    1    0.358   0.071   0.058
    1res  C2    2    0.134  -0.022  -0.010
    1res  C3    3   -0.091  -0.022  -0.042
    1res  C4    4   -0.253   0.151  -0.126
    1res  C5    5   -0.243   0.265   0.100
    1res  C6    6   -0.325  -0.105  -0.065
    1res  C7    7   -0.030  -0.282   0.019
  10.00000  10.00000  10.00000
