1TPCN02057
10
    1res  C1    1    0.387   0.039  -0.088
    1res  C2    2    0.383  -0.121   0.120
    1res  C3    3    0.246  -0.220  -0.079
    1res  C4    4   -0.102  -0.272  -0.121
    1res  C5    5   -0.012   0.000  -0.027
    1res  C6    6   -0.144   0.057   0.153
    1res  C7    7   -0.478  -0.040   0.124
    1res  C8    8   -0.048   0.254   0.004
    1res  C9    9    0.121   0.282   0.184
    1res  C10   10    0.133   0.099  -0.208
  10.00000  10.00000  10.00000
