1TPCN03054
14
    1res  C1    1   -0.223  -0.299   0.188
    1res  C2    2   -0.263  -0.099   0.047
    1res  C3    3   -0.134   0.111  -0.078
    1res  C4    4   -0.455   0.094  -0.231
    1res  C5    5   -0.262   0.251   0.094
    1res  C6    6   -0.077   0.192   0.257
    1res  C7    7    0.005  -0.016   0.122
    1res  C8    8    0.208   0.071   0.108
    1res  C9    9    0.308   0.150  -0.073
    1res  C10   10    0.319  -0.067  -0.246
    1res  C11   11    0.117  -0.120  -0.023
    1res  C12   12    0.120  -0.320   0.017
    1res  C13   13   -0.033  -0.080  -0.211
    1res  C14   14    0.520   0.094   0.197
  10.00000  10.00000  10.00000
