1TPCN03325
11
    1res  C1    1   -0.220   0.353   0.172
    1res  C2    2   -0.303   0.181   0.000
    1res  C3    3   -0.259  -0.029  -0.146
    1res  C4    4   -0.321  -0.109   0.103
    1res  C5    5   -0.132  -0.351   0.203
    1res  C6    6   -0.022  -0.053   0.020
    1res  C7    7   -0.058   0.141  -0.184
    1res  C8    8    0.139   0.032  -0.074
    1res  C9    9    0.296  -0.060  -0.054
    1res  C10   10    0.550   0.110   0.018
    1res  C11   11    0.251  -0.250  -0.206
  10.00000  10.00000  10.00000
