[ moleculetype ]
; name        nrexcl
res           1

[ atoms ]
;    nr  type resnr resid  atom  cgnr     charge       mass
      1 C4        1 res   C1        1      0.000     72.000
      2 N4a       1 res   C2        2      0.000     72.000
      3 SC5       1 res   C3        3      0.000     54.000
      4 SN6       1 res   C4        4      0.000     54.000
      5 SC4       1 res   C5        5      0.000     54.000
      6 SC4       1 res   C6        6      0.000     54.000
      7 TC3       1 res   C7        7      0.000     36.000
      8 SC4       1 res   C8        8      0.000     54.000
      9 SC4       1 res   C9        9      0.000     54.000
     10 TC3       1 res   C10      10      0.000     36.000
     11 SN6       1 res   C11      11      0.000     54.000
     12 SN4a      1 res   C12      12      0.000     54.000
     13 SP2       1 res   C13      13      0.000     54.000
     14 SP4       1 res   C14      14      0.000     54.000
     15 SN4a      1 res   C15      15      0.000     54.000
     16 SP4       1 res   C16      16      0.000     54.000
     17 TN6       1 res   C17      17      0.000     36.000
     18 SN4a      1 res   C18      18      0.000     54.000
     19 SP4       1 res   C19      19      0.000     54.000
     20 TN6       1 res   C20      20      0.000     36.000
     21 TN6       1 res   C21      21      0.000     36.000
     22 SN4a      1 res   C22      22      0.000     54.000
     23 TP1       1 res   C23      23      0.000     36.000
     24 SP4       1 res   C24      24      0.000     54.000
     25 TN6       1 res   C25      25      0.000     36.000
     26 TN4a      1 res   C26      26      0.000     36.000
     27 TC3       1 res   C27      27      0.000     36.000
     28 SN6       1 res   C28      28      0.000     54.000

[ bonds ]
;  ai    aj   funct      b0(nm)        k
    1     2     1      0.42214    20000
    2     3     1      0.33497    20000
    3     4     1      0.30566    20000
    3     5     1      0.26846    20000
    3     6     1      0.31761    20000
    3    28     1      0.38422    20000
    4     5     1      0.33311    20000
    6     7     1      0.40100    20000
    6     8     1      0.28861    20000
    6    28     1      0.28203    20000
    7     8     1      0.35613    20000
    8     9     1      0.34490    20000
    8    27     1      0.27648    20000
    9    10     1      0.26566    20000
    9    11     1      0.33978    20000
    9    27     1      0.27540    20000
   10    11     1      0.30822    20000
   11    12     1      0.40998    20000
   11    26     1      0.25163    20000
   12    13     1      0.31090    20000
   12    14     1      0.24369    20000
   12    21     1      0.26549    20000
   14    15     1      0.38823    20000
   14    21     1      0.27517    20000
   15    16     1      0.27785    20000
   15    17     1      0.28598    20000
   16    17     1      0.23869    20000
   17    18     1      0.26160    20000
   18    19     1      0.26443    20000
   18    20     1      0.29339    20000
   19    20     1      0.25659    20000
   21    22     1      0.25352    20000
   22    23     1      0.32096    20000
   22    24     1      0.28204    20000
   22    25     1      0.26515    20000
   24    25     1      0.31737    20000
