1TPCN02702
17
    1res  C1    1   -0.161  -0.435  -0.198
    1res  C2    2    0.052  -0.285  -0.157
    1res  C3    3    0.089  -0.037  -0.044
    1res  C4    4    0.319  -0.010  -0.220
    1res  C5    5    0.381   0.237   0.017
    1res  C6    6    0.714   0.246  -0.176
    1res  C7    7    0.646   0.361   0.081
    1res  C8    8    0.149  -0.221   0.137
    1res  C9    9    0.068  -0.070   0.404
    1res  C10   10   -0.134  -0.173   0.034
    1res  C11   11   -0.231  -0.001   0.106
    1res  C12   12   -0.205   0.191   0.236
    1res  C13   13   -0.344   0.219  -0.068
    1res  C14   14   -0.193   0.436  -0.083
    1res  C15   15   -0.154  -0.027  -0.161
    1res  C16   16   -0.479  -0.183  -0.059
    1res  C17   17   -0.446   0.060   0.229
  10.00000  10.00000  10.00000
