[ moleculetype ]
; name        nrexcl
res           1

[ atoms ]
;    nr  type resnr resid  atom  cgnr     charge       mass
      1 SN3r      1 res   C1        1      0.000     54.000
      2 TC3       1 res   C2        2      0.000     36.000
      3 TN6a      1 res   C3        3      0.000     36.000
      4 SN6       1 res   C4        4      0.000     54.000
      5 SC3       1 res   C5        5      0.000     54.000
      6 TC5       1 res   C6        6      0.000     36.000
      7 SC3       1 res   C7        7      0.000     54.000
      8 SC4       1 res   C8        8      0.000     54.000
      9 TN6a      1 res   C9        9      0.000     36.000
     10 SP4       1 res   C10      10      0.000     54.000

[ bonds ]
;  ai    aj   funct      b0(nm)        k
    1     2     1      0.33341    20000
    2     3     1      0.26237    20000
    2     4     1      0.26178    20000
    2     5     1      0.26319    20000
    3     4     1      0.30595    20000
    4     5     1      0.31684    20000
    4    10     1      0.27680    20000
    5     6     1      0.36375    20000
    6     7     1      0.27710    20000
    6     8     1      0.26837    20000
    6     9     1      0.22270    20000
    6    10     1      0.29368    20000
    7     8     1      0.31945    20000
    9    10     1      0.25853    20000
