1TPCN01241
14
    1res  C1    1   -0.412  -0.009   0.396
    1res  C2    2   -0.124  -0.092   0.238
    1res  C3    3   -0.331  -0.208   0.062
    1res  C4    4   -0.298  -0.167  -0.207
    1res  C5    5   -0.441   0.017  -0.066
    1res  C6    6   -0.356   0.144  -0.261
    1res  C7    7   -0.295   0.159   0.082
    1res  C8    8   -0.084   0.136   0.039
    1res  C9    9    0.079  -0.162  -0.015
    1res  C10   10    0.262   0.150  -0.044
    1res  C11   11    0.611   0.212  -0.093
    1res  C12   12    0.852   0.124  -0.062
    1res  C13   13    0.648  -0.056   0.040
    1res  C14   14   -0.075  -0.047  -0.177
  10.00000  10.00000  10.00000
