[ moleculetype ]
; name        nrexcl
res           1

[ atoms ]
;    nr  type resnr resid  atom  cgnr     charge       mass
      1 SC4       1 res   C1        1      0.000     54.000
      2 SP2       1 res   C2        2      0.000     54.000
      3 TC3       1 res   C3        3      0.000     36.000
      4 SC4       1 res   C4        4      0.000     54.000
      5 TC5       1 res   C5        5      0.000     36.000
      6 TC5       1 res   C6        6      0.000     36.000
      7 TC5       1 res   C7        7      0.000     36.000
      8 SC2       1 res   C8        8      0.000     54.000
      9 TC3       1 res   C9        9      0.000     36.000

[ bonds ]
;  ai    aj   funct      b0(nm)        k
    1     2     1      0.29543    20000
    1     3     1      0.39660    20000
    1     4     1      0.34691    20000
    3     4     1      0.28377    20000
    4     5     1      0.27437    20000
    4     9     1      0.36231    20000
    5     6     1      0.25319    20000
    5     7     1      0.22410    20000
    5     9     1      0.24715    20000
    6     7     1      0.30118    20000
    7     8     1      0.24629    20000
