[ moleculetype ]
; name        nrexcl
res           1

[ atoms ]
;    nr  type resnr resid  atom  cgnr     charge       mass
      1 TC5       1 res   C1        1      0.000     36.000
      2 SC4       1 res   C2        2      0.000     54.000
      3 TC3       1 res   C3        3      0.000     36.000
      4 SC4       1 res   C4        4      0.000     54.000
      5 TC3       1 res   C5        5      0.000     36.000
      6 SC4       1 res   C6        6      0.000     54.000
      7 TC4       1 res   C7        7      0.000     36.000
      8 TN6a      1 res   C8        8      0.000     36.000
      9 TC3       1 res   C9        9      0.000     36.000

[ bonds ]
;  ai    aj   funct      b0(nm)        k
    1     2     1      0.30407    20000
    2     3     1      0.30897    20000
    2     4     1      0.36352    20000
    3     4     1      0.28137    20000
    4     5     1      0.36457    20000
    4     6     1      0.37570    20000
    5     6     1      0.25735    20000
    6     7     1      0.28694    20000
    6     9     1      0.29317    20000
    7     8     1      0.24034    20000
    8     9     1      0.25758    20000
