1TPCN00582
15
    1res  C1    1    0.162   0.270  -0.071
    1res  C2    2    0.132  -0.024  -0.109
    1res  C3    3    0.363  -0.045   0.073
    1res  C4    4    0.493   0.181   0.234
    1res  C5    5    0.631  -0.076   0.133
    1res  C6    6    0.617  -0.093  -0.122
    1res  C7    7    0.418  -0.245  -0.100
    1res  C8    8   -0.002  -0.058  -0.362
    1res  C9    9   -0.111   0.084  -0.176
    1res  C10   10   -0.294  -0.044  -0.333
    1res  C11   11   -0.252   0.040  -0.030
    1res  C12   12   -0.582   0.005  -0.167
    1res  C13   13   -0.487   0.005   0.059
    1res  C14   14   -0.699  -0.054   0.258
    1res  C15   15   -0.402  -0.051   0.338
  10.00000  10.00000  10.00000
