[ moleculetype ]
; name        nrexcl
res           1

[ atoms ]
;    nr  type resnr resid  atom  cgnr     charge       mass
      1 C4        1 res   C1        1      0.000     72.000
      2 SN4a      1 res   C2        2      0.000     54.000
      3 SN6       1 res   C3        3      0.000     54.000
      4 SC5       1 res   C4        4      0.000     54.000
      5 N4a       1 res   C5        5      0.000     72.000
      6 SN6       1 res   C6        6      0.000     54.000
      7 SC4       1 res   C7        7      0.000     54.000
      8 TC3       1 res   C8        8      0.000     36.000
      9 SC4       1 res   C9        9      0.000     54.000
     10 SC4       1 res   C10      10      0.000     54.000
     11 TC3       1 res   C11      11      0.000     36.000
     12 SN6       1 res   C12      12      0.000     54.000
     13 SN4a      1 res   C13      13      0.000     54.000
     14 SP2       1 res   C14      14      0.000     54.000
     15 SP4       1 res   C15      15      0.000     54.000
     16 SN4a      1 res   C16      16      0.000     54.000
     17 TP1       1 res   C17      17      0.000     36.000
     18 SP4       1 res   C18      18      0.000     54.000
     19 TN6       1 res   C19      19      0.000     36.000
     20 TN6       1 res   C20      20      0.000     36.000
     21 SN4a      1 res   C21      21      0.000     54.000
     22 TP1       1 res   C22      22      0.000     36.000
     23 SP4       1 res   C23      23      0.000     54.000
     24 TN6       1 res   C24      24      0.000     36.000
     25 TP1       1 res   C25      25      0.000     36.000
     26 TC3       1 res   C26      26      0.000     36.000
     27 SC4       1 res   C27      27      0.000     54.000

[ bonds ]
;  ai    aj   funct      b0(nm)        k
    1     2     1      0.26098    20000
    2     3     1      0.27350    20000
    3     4     1      0.31915    20000
    3    27     1      0.36228    20000
    4     5     1      0.44820    20000
    4     6     1      0.37823    20000
    4     7     1      0.28732    20000
    4    27     1      0.27711    20000
    6     7     1      0.32844    20000
    7     8     1      0.39791    20000
    7     9     1      0.30937    20000
    8     9     1      0.37740    20000
    9    10     1      0.25156    20000
    9    26     1      0.30329    20000
   10    11     1      0.28642    20000
   10    12     1      0.33293    20000
   10    26     1      0.36596    20000
   11    12     1      0.36205    20000
   12    13     1      0.33321    20000
   12    25     1      0.29254    20000
   13    14     1      0.33156    20000
   13    15     1      0.28634    20000
   13    20     1      0.27125    20000
   15    16     1      0.40516    20000
   15    20     1      0.25687    20000
   16    17     1      0.28506    20000
   16    18     1      0.24735    20000
   16    19     1      0.28872    20000
   18    19     1      0.26726    20000
   20    21     1      0.29621    20000
   21    22     1      0.29578    20000
   21    23     1      0.28791    20000
   21    24     1      0.29763    20000
   23    24     1      0.29560    20000
