1TPCN02731
13
    1res  C1    1   -0.514   0.260  -0.100
    1res  C2    2   -0.607   0.068  -0.295
    1res  C3    3   -0.196   0.125  -0.033
    1res  C4    4   -0.257  -0.057   0.157
    1res  C5    5    0.040   0.024  -0.049
    1res  C6    6    0.027  -0.275   0.211
    1res  C7    7    0.227  -0.159   0.070
    1res  C8    8    0.485  -0.080   0.183
    1res  C9    9    0.638  -0.249   0.078
    1res  C10   10    0.622   0.137   0.234
    1res  C11   11    0.335   0.142   0.227
    1res  C12   12   -0.046  -0.245  -0.145
    1res  C13   13   -0.238   0.234  -0.241
  10.00000  10.00000  10.00000
