[ moleculetype ]
; name        nrexcl
res           1

[ atoms ]
;    nr  type resnr resid  atom  cgnr     charge       mass
      1 TC4       1 res   C1        1      0.000     36.000
      2 SC3       1 res   C2        2      0.000     54.000
      3 SC4       1 res   C3        3      0.000     54.000
      4 SC4       1 res   C4        4      0.000     54.000
      5 TC4       1 res   C5        5      0.000     36.000
      6 TC4       1 res   C6        6      0.000     36.000
      7 TN2a      1 res   C7        7      0.000     36.000
      8 SC5       1 res   C8        8      0.000     54.000
      9 TC4       1 res   C9        9      0.000     36.000
     10 TN6       1 res   C10      10      0.000     36.000
     11 SC4       1 res   C11      11      0.000     54.000
     12 SC3       1 res   C12      12      0.000     54.000
     13 TN2a      1 res   C13      13      0.000     36.000
     14 SC5       1 res   C14      14      0.000     54.000
     15 TC4       1 res   C15      15      0.000     36.000
     16 TN6       1 res   C16      16      0.000     36.000
     17 SC4       1 res   C17      17      0.000     54.000
     18 TC4       1 res   C18      18      0.000     36.000
     19 SC3       1 res   C19      19      0.000     54.000
     20 TN2a      1 res   C20      20      0.000     36.000
     21 SN6       1 res   C21      21      0.000     54.000
     22 TN6       1 res   C22      22      0.000     36.000

[ bonds ]
;  ai    aj   funct      b0(nm)        k
    1     2     1      0.32915    20000
    1     3     1      0.39904    20000
    2     3     1      0.29519    20000
    3     4     1      0.27632    20000
    3    22     1      0.34110    20000
    4     5     1      0.21677    20000
    4    20     1      0.17558    20000
    4    21     1      0.27296    20000
    4    22     1      0.24348    20000
    5     6     1      0.18350    20000
    5    13     1      0.23429    20000
    5    15     1      0.26977    20000
    6     7     1      0.13149    20000
    6     9     1      0.25562    20000
    7     8     1      0.19874    20000
    8     9     1      0.44201    20000
    8    10     1      0.35673    20000
    8    11     1      0.22251    20000
   10    11     1      0.30550    20000
   11    12     1      0.25405    20000
   13    14     1      0.19894    20000
   14    15     1      0.43779    20000
   14    16     1      0.28553    20000
   14    17     1      0.27697    20000
   16    17     1      0.32196    20000
   17    18     1      0.38890    20000
   17    19     1      0.32134    20000
   18    19     1      0.33279    20000
   20    21     1      0.30086    20000
