1TPCN03002
14
    1res  C1    1    0.541  -0.046  -0.263
    1res  C2    2    0.768  -0.081  -0.196
    1res  C3    3    0.952  -0.044  -0.018
    1res  C4    4    0.784   0.190  -0.063
    1res  C5    5    0.261  -0.033  -0.109
    1res  C6    6    0.057  -0.055   0.061
    1res  C7    7   -0.234  -0.010   0.249
    1res  C8    8   -0.457  -0.024   0.164
    1res  C9    9   -0.643  -0.028  -0.059
    1res  C10   10   -0.637  -0.017  -0.327
    1res  C11   11   -0.372  -0.042  -0.185
    1res  C12   12   -0.230   0.227   0.325
    1res  C13   13    0.039   0.100   0.279
    1res  C14   14    0.322  -0.268   0.086
  10.00000  10.00000  10.00000
