[ moleculetype ]
; name        nrexcl
res           1

[ atoms ]
;    nr  type resnr resid  atom  cgnr     charge       mass
      1 SC4       1 res   C1        1      0.000     54.000
      2 TN6a      1 res   C2        2      0.000     36.000
      3 TN4a      1 res   C3        3      0.000     36.000
      4 SN3r      1 res   C4        4      0.000     54.000
      5 N6a       1 res   C5        5      0.000     72.000
      6 TC3       1 res   C6        6      0.000     36.000
      7 N3r       1 res   C7        7      0.000     72.000
      8 TC5       1 res   C8        8      0.000     36.000
      9 TN4a      1 res   C9        9      0.000     36.000
     10 TN4a      1 res   C10      10      0.000     36.000
     11 TC3       1 res   C11      11      0.000     36.000
     12 TC5       1 res   C12      12      0.000     36.000
     13 SC3       1 res   C13      13      0.000     54.000
     14 TC3       1 res   C14      14      0.000     36.000
     15 SC4       1 res   C15      15      0.000     54.000
     16 TC4       1 res   C16      16      0.000     36.000
     17 SP2       1 res   C17      17      0.000     54.000
     18 SC3       1 res   C18      18      0.000     54.000
     19 TC3       1 res   C19      19      0.000     36.000

[ bonds ]
;  ai    aj   funct      b0(nm)        k
    1     2     1      0.25073    20000
    1     3     1      0.30691    20000
    1     4     1      0.27305    20000
    2     3     1      0.27475    20000
    3     7     1      0.38928    20000
    4     5     1      0.36397    20000
    4     7     1      0.29473    20000
    5     6     1      0.27858    20000
    7     8     1      0.29954    20000
    7    10     1      0.38981    20000
    8     9     1      0.26503    20000
    9    10     1      0.20513    20000
   10    11     1      0.22678    20000
   10    12     1      0.26063    20000
   11    12     1      0.26187    20000
   12    13     1      0.21811    20000
   12    19     1      0.25700    20000
   13    14     1      0.25799    20000
   13    15     1      0.35401    20000
   13    19     1      0.27750    20000
   14    15     1      0.37857    20000
   15    16     1      0.39960    20000
   15    18     1      0.32806    20000
   16    17     1      0.29315    20000
   16    18     1      0.36294    20000
