1TPCN03527
14
    1res  C1    1    0.613  -0.158   0.054
    1res  C2    2    0.278  -0.141  -0.018
    1res  C3    3    0.078  -0.091  -0.078
    1res  C4    4    0.038  -0.435   0.022
    1res  C5    5   -0.149  -0.136  -0.082
    1res  C6    6   -0.313  -0.328   0.023
    1res  C7    7   -0.405  -0.242  -0.199
    1res  C8    8   -0.277   0.020  -0.249
    1res  C9    9   -0.338   0.041   0.064
    1res  C10   10   -0.057   0.223   0.006
    1res  C11   11   -0.298   0.476  -0.013
    1res  C12   12    0.073   0.547  -0.032
    1res  C13   13    0.292   0.199  -0.027
    1res  C14   14    0.089  -0.016   0.267
  10.00000  10.00000  10.00000
