[ moleculetype ]
; name        nrexcl
res           1

[ atoms ]
;    nr  type resnr resid  atom  cgnr     charge       mass
      1 SN2a      1 res   C1        1      0.000     54.000
      2 TC5       1 res   C2        2      0.000     36.000
      3 N4a       1 res   C3        3      0.000     72.000
      4 TC3       1 res   C4        4      0.000     36.000
      5 SP4       1 res   C5        5      0.000     54.000
      6 TC5       1 res   C6        6      0.000     36.000
      7 TC3       1 res   C7        7      0.000     36.000
      8 TN6       1 res   C8        8      0.000     36.000
      9 TN6a      1 res   C9        9      0.000     36.000
     10 TN4a      1 res   C10      10      0.000     36.000
     11 TC5       1 res   C11      11      0.000     36.000
     12 TC5       1 res   C12      12      0.000     36.000
     13 TN2a      1 res   C13      13      0.000     36.000
     14 SC4       1 res   C14      14      0.000     54.000
     15 TC5       1 res   C15      15      0.000     36.000
     16 TN6       1 res   C16      16      0.000     36.000
     17 SN4a      1 res   C17      17      0.000     54.000
     18 TP1       1 res   C18      18      0.000     36.000
     19 SP4       1 res   C19      19      0.000     54.000
     20 TN6       1 res   C20      20      0.000     36.000

[ bonds ]
;  ai    aj   funct      b0(nm)        k
    1     2     1      0.29237    20000
    1    16     1      0.34599    20000
    2     3     1      0.32016    20000
    2    15     1      0.30137    20000
    3     4     1      0.37202    20000
    4     5     1      0.28380    20000
    4     6     1      0.28626    20000
    5     6     1      0.28742    20000
    6     7     1      0.24650    20000
    6    14     1      0.32450    20000
    7     8     1      0.28834    20000
    8     9     1      0.22434    20000
    8    14     1      0.24816    20000
    9    10     1      0.26964    20000
   10    11     1      0.25045    20000
   10    14     1      0.32230    20000
   11    12     1      0.26224    20000
   11    13     1      0.16747    20000
   12    13     1      0.20233    20000
   15    16     1      0.27229    20000
   16    17     1      0.27931    20000
   17    18     1      0.30054    20000
   17    19     1      0.27282    20000
   17    20     1      0.27299    20000
   19    20     1      0.26663    20000
