[ moleculetype ]
; name        nrexcl
res           1

[ atoms ]
;    nr  type resnr resid  atom  cgnr     charge       mass
      1 SC2       1 res   C1        1      0.000     54.000
      2 SC2       1 res   C2        2      0.000     54.000
      3 TP1       1 res   C3        3      0.000     36.000
      4 SN4a      1 res   C4        4      0.000     54.000
      5 SN4a      1 res   C5        5      0.000     54.000
      6 TP1       1 res   C6        6      0.000     36.000
      7 SP4       1 res   C7        7      0.000     54.000
      8 TN6       1 res   C8        8      0.000     36.000
      9 SC3       1 res   C9        9      0.000     54.000
     10 SC3       1 res   C10      10      0.000     54.000
     11 TC3       1 res   C11      11      0.000     36.000
     12 SC4       1 res   C12      12      0.000     54.000
     13 SC4       1 res   C13      13      0.000     54.000
     14 TC3       1 res   C14      14      0.000     36.000
     15 SN6       1 res   C15      15      0.000     54.000
     16 SN4a      1 res   C16      16      0.000     54.000
     17 SP4       1 res   C17      17      0.000     54.000
     18 SN4a      1 res   C18      18      0.000     54.000
     19 TP1       1 res   C19      19      0.000     36.000
     20 SP4       1 res   C20      20      0.000     54.000
     21 TN6       1 res   C21      21      0.000     36.000
     22 TN6       1 res   C22      22      0.000     36.000
     23 SP2       1 res   C23      23      0.000     54.000
     24 TC3       1 res   C24      24      0.000     36.000

[ bonds ]
;  ai    aj   funct      b0(nm)        k
    1     2     1      0.34776    20000
    2     3     1      0.30804    20000
    3     4     1      0.24425    20000
    3     9     1      0.26259    20000
    4     5     1      0.26666    20000
    5     6     1      0.30099    20000
    5     7     1      0.25978    20000
    5     8     1      0.27606    20000
    7     8     1      0.24755    20000
    9    10     1      0.22899    20000
    9    11     1      0.30400    20000
   10    12     1      0.27611    20000
   11    12     1      0.37570    20000
   12    13     1      0.37750    20000
   12    24     1      0.28831    20000
   13    14     1      0.30583    20000
   13    15     1      0.35891    20000
   13    24     1      0.38096    20000
   14    15     1      0.35270    20000
   15    16     1      0.33787    20000
   15    23     1      0.27455    20000
   16    17     1      0.24019    20000
   16    22     1      0.30309    20000
   17    18     1      0.34302    20000
   17    22     1      0.27253    20000
   18    19     1      0.28711    20000
   18    20     1      0.28410    20000
   18    21     1      0.22859    20000
   20    21     1      0.27514    20000
