1TPCN03609
33
    1res  C1    1   -0.957  -0.240  -0.317
    1res  C2    2   -0.887   0.044  -0.318
    1res  C3    3   -0.979  -0.081  -0.058
    1res  C4    4   -1.162   0.130  -0.088
    1res  C5    5   -1.439   0.074  -0.055
    1res  C6    6   -1.566  -0.165  -0.139
    1res  C7    7   -1.596   0.059   0.142
    1res  C8    8   -1.317  -0.055   0.176
    1res  C9    9   -0.849   0.254  -0.025
    1res  C10   10   -0.738   0.097   0.152
    1res  C11   11   -0.613  -0.198   0.002
    1res  C12   12   -0.500   0.053  -0.051
    1res  C13   13   -0.295  -0.070   0.182
    1res  C14   14   -0.183  -0.153  -0.053
    1res  C15   15    0.013  -0.070   0.093
    1res  C16   16    0.259  -0.131   0.202
    1res  C17   17    0.223  -0.216   0.444
    1res  C18   18    0.464  -0.265   0.142
    1res  C19   19    0.693  -0.192  -0.114
    1res  C20   20    0.920  -0.411  -0.121
    1res  C21   21    0.917  -0.046  -0.155
    1res  C22   22    1.015   0.176   0.045
    1res  C23   23    0.924   0.298   0.292
    1res  C24   24    1.113   0.420  -0.035
    1res  C25   25    1.200   0.201  -0.121
    1res  C26   26    1.412   0.024  -0.152
    1res  C27   27    1.391  -0.263  -0.162
    1res  C28   28    1.592  -0.013   0.082
    1res  C29   29    1.540   0.250  -0.096
    1res  C30   30    0.679   0.081  -0.053
    1res  C31   31    0.331  -0.022  -0.029
    1res  C32   32   -0.050   0.151   0.182
    1res  C33   33   -0.405   0.230   0.152
  10.00000  10.00000  10.00000
