1TPCN03108
13
    1res  C1    1   -0.115  -0.172  -0.126
    1res  C2    2   -0.128   0.136  -0.168
    1res  C3    3   -0.338   0.204  -0.027
    1res  C4    4   -0.437  -0.035  -0.009
    1res  C5    5   -0.257  -0.183   0.215
    1res  C6    6   -0.046  -0.201   0.233
    1res  C7    7    0.054  -0.075   0.053
    1res  C8    8    0.215  -0.093   0.301
    1res  C9    9    0.289  -0.013   0.058
    1res  C10   10    0.159  -0.029  -0.199
    1res  C11   11    0.409   0.038  -0.058
    1res  C12   12    0.484   0.001   0.144
    1res  C13   13    0.593   0.233   0.036
  10.00000  10.00000  10.00000
