1TPCN00617
9
    1res  C1    1    0.539  -0.187  -0.047
    1res  C2    2    0.445  -0.158   0.230
    1res  C3    3    0.243  -0.051  -0.077
    1res  C4    4    0.056   0.209   0.017
    1res  C5    5   -0.371   0.167   0.013
    1res  C6    6   -0.590   0.060   0.211
    1res  C7    7   -0.575   0.080  -0.143
    1res  C8    8   -0.447  -0.123  -0.106
    1res  C9    9   -0.234  -0.029  -0.184
  10.00000  10.00000  10.00000
