1TPCN02701
8
    1res  C1    1   -0.401   0.082   0.039
    1res  C2    2   -0.066   0.160   0.016
    1res  C3    3    0.137   0.124  -0.005
    1res  C4    4    0.370   0.050  -0.066
    1res  C5    5    0.181  -0.213   0.077
    1res  C6    6   -0.213  -0.150   0.172
    1res  C7    7   -0.207  -0.100  -0.172
    1res  C8    8    0.067  -0.010  -0.196
  10.00000  10.00000  10.00000
