[ moleculetype ]
; name        nrexcl
res           1

[ atoms ]
;    nr  type resnr resid  atom  cgnr     charge       mass
      1 SC3       1 res   C1        1      0.000     54.000
      2 SC3       1 res   C2        2      0.000     54.000
      3 TC3       1 res   C3        3      0.000     36.000
      4 SC4       1 res   C4        4      0.000     54.000
      5 TC4       1 res   C5        5      0.000     36.000
      6 SP2       1 res   C6        6      0.000     54.000
      7 SC3       1 res   C7        7      0.000     54.000
      8 TC3       1 res   C8        8      0.000     36.000

[ bonds ]
;  ai    aj   funct      b0(nm)        k
    1     2     1      0.26038    20000
    2     3     1      0.32159    20000
    2     4     1      0.36794    20000
    2     8     1      0.22745    20000
    3     4     1      0.26359    20000
    4     5     1      0.37154    20000
    4     7     1      0.25314    20000
    5     6     1      0.29839    20000
    5     7     1      0.36107    20000
