1TPCN00553
18
    1res  C1    1    0.269   0.034  -0.462
    1res  C2    2   -0.097   0.013  -0.363
    1res  C3    3   -0.249  -0.098  -0.165
    1res  C4    4   -0.307   0.046  -0.034
    1res  C5    5   -0.453  -0.039   0.173
    1res  C6    6   -0.651  -0.097   0.056
    1res  C7    7   -0.612   0.148   0.192
    1res  C8    8   -0.416   0.277   0.248
    1res  C9    9   -0.279   0.268   0.042
    1res  C10   10   -0.013  -0.182  -0.189
    1res  C11   11   -0.044  -0.263   0.076
    1res  C12   12    0.190  -0.027   0.268
    1res  C13   13    0.349  -0.023   0.099
    1res  C14   14    0.430  -0.049  -0.103
    1res  C15   15    0.516   0.030   0.082
    1res  C16   16    0.739   0.075  -0.020
    1res  C17   17    0.665   0.121   0.261
    1res  C18   18    0.151  -0.046  -0.059
  10.00000  10.00000  10.00000
