[ moleculetype ]
; name        nrexcl
res           1

[ atoms ]
;    nr  type resnr resid  atom  cgnr     charge       mass
      1 TC4       1 res   C1        1      0.000     36.000
      2 TC3       1 res   C2        2      0.000     36.000
      3 TN6       1 res   C3        3      0.000     36.000
      4 SC2       1 res   C4        4      0.000     54.000
      5 SN6       1 res   C5        5      0.000     54.000

[ bonds ]
;  ai    aj   funct      b0(nm)        k
    1     2     1      0.31775    20000
    1     5     1      0.31517    20000
    2     3     1      0.28014    20000
    3     4     1      0.25074    20000
    3     5     1      0.30920    20000
