1TPCN02319
16
    1res  C1    1   -0.092  -0.383   0.313
    1res  C2    2    0.012  -0.104   0.110
    1res  C3    3    0.159   0.094   0.024
    1res  C4    4    0.429   0.116   0.018
    1res  C5    5    0.636   0.006   0.205
    1res  C6    6    0.568  -0.043  -0.176
    1res  C7    7    0.433   0.191  -0.232
    1res  C8    8   -0.066   0.064  -0.034
    1res  C9    9   -0.075   0.296  -0.116
    1res  C10   10   -0.305   0.031  -0.119
    1res  C11   11   -0.395   0.276  -0.264
    1res  C12   12   -0.503   0.140  -0.057
    1res  C13   13   -0.635   0.270   0.082
    1res  C14   14   -0.583   0.157   0.314
    1res  C15   15   -0.704   0.297   0.233
    1res  C16   16   -0.074  -0.421  -0.119
  10.00000  10.00000  10.00000
