[ moleculetype ]
; name        nrexcl
res           1

[ atoms ]
;    nr  type resnr resid  atom  cgnr     charge       mass
      1 N4a       1 res   C1        1      0.000     72.000
      2 TC5       1 res   C2        2      0.000     36.000
      3 TN6       1 res   C3        3      0.000     36.000
      4 TC5       1 res   C4        4      0.000     36.000
      5 TN6       1 res   C5        5      0.000     36.000
      6 SN4a      1 res   C6        6      0.000     54.000
      7 TP1       1 res   C7        7      0.000     36.000
      8 SP4       1 res   C8        8      0.000     54.000
      9 TN6       1 res   C9        9      0.000     36.000
     10 TC5       1 res   C10      10      0.000     36.000
     11 SN6       1 res   C11      11      0.000     54.000
     12 SN6       1 res   C12      12      0.000     54.000
     13 SN4a      1 res   C13      13      0.000     54.000
     14 TP1       1 res   C14      14      0.000     36.000
     15 SP4       1 res   C15      15      0.000     54.000
     16 TN6       1 res   C16      16      0.000     36.000

[ bonds ]
;  ai    aj   funct      b0(nm)        k
    1     2     1      0.23421    20000
    1    10     1      0.31443    20000
    2     3     1      0.27597    20000
    2     5     1      0.29476    20000
    3     4     1      0.28706    20000
    4     5     1      0.27206    20000
    5     6     1      0.28674    20000
    6     7     1      0.29167    20000
    6     8     1      0.28710    20000
    6     9     1      0.27075    20000
    8     9     1      0.27575    20000
   10    11     1      0.30135    20000
   10    12     1      0.30970    20000
   11    12     1      0.31723    20000
   12    13     1      0.30163    20000
   13    14     1      0.31148    20000
   13    15     1      0.29039    20000
   13    16     1      0.26890    20000
   15    16     1      0.29414    20000
