1TPCN01473
12
    1res  C1    1    0.165  -0.222  -0.042
    1res  C2    2   -0.086  -0.286   0.127
    1res  C3    3   -0.176  -0.182  -0.064
    1res  C4    4   -0.077   0.093  -0.209
    1res  C5    5   -0.007   0.101   0.098
    1res  C6    6   -0.254   0.088   0.164
    1res  C7    7   -0.417  -0.084   0.028
    1res  C8    8   -0.362   0.066  -0.195
    1res  C9    9    0.203   0.081   0.150
    1res  C10   10    0.443   0.140   0.199
    1res  C11   11    0.667   0.221   0.100
    1res  C12   12    0.456   0.194  -0.098
  10.00000  10.00000  10.00000
