1TPCN01057
6
    1res  C1    1    0.407   0.069   0.005
    1res  C2    2    0.108   0.079  -0.028
    1res  C3    3    0.083  -0.183   0.068
    1res  C4    4   -0.133  -0.130  -0.146
    1res  C5    5   -0.308  -0.046   0.071
    1res  C6    6   -0.145   0.268  -0.015
  10.00000  10.00000  10.00000
