1TPCN03051
15
    1res  C1    1    0.060  -0.351  -0.265
    1res  C2    2    0.150  -0.061  -0.072
    1res  C3    3    0.332   0.038  -0.022
    1res  C4    4    0.381   0.275   0.033
    1res  C5    5    0.551   0.467   0.029
    1res  C6    6    0.619   0.196  -0.074
    1res  C7    7   -0.050   0.082   0.135
    1res  C8    8    0.092  -0.091   0.340
    1res  C9    9   -0.092  -0.289   0.085
    1res  C10   10   -0.250  -0.089  -0.171
    1res  C11   11   -0.307   0.184  -0.055
    1res  C12   12   -0.399   0.072   0.185
    1res  C13   13   -0.534  -0.040   0.325
    1res  C14   14   -0.577  -0.048   0.041
    1res  C15   15    0.012   0.124  -0.237
  10.00000  10.00000  10.00000
