1TPCN03246
10
    1res  C1    1    0.376  -0.204   0.042
    1res  C2    2    0.516   0.096  -0.023
    1res  C3    3    0.255   0.089   0.180
    1res  C4    4    0.121   0.028  -0.031
    1res  C5    5   -0.028   0.046  -0.231
    1res  C6    6   -0.074  -0.107   0.098
    1res  C7    7   -0.215   0.166   0.172
    1res  C8    8   -0.413   0.088   0.012
    1res  C9    9   -0.351  -0.126  -0.089
    1res  C10   10    0.315   0.008  -0.184
  10.00000  10.00000  10.00000
