[ moleculetype ]
; name        nrexcl
res           1

[ atoms ]
;    nr  type resnr resid  atom  cgnr     charge       mass
      1 TC3       1 res   C1        1      0.000     36.000
      2 TN6d      1 res   C2        2      0.000     36.000
      3 P4        1 res   C3        3      0.000     72.000
      4 SN6       1 res   C4        4      0.000     54.000
      5 TC5       1 res   C5        5      0.000     36.000
      6 TC5       1 res   C6        6      0.000     36.000
      7 SC3       1 res   C7        7      0.000     54.000
      8 TC3       1 res   C8        8      0.000     36.000
      9 TN3r      1 res   C9        9      0.000     36.000
     10 SP4       1 res   C10      10      0.000     54.000
     11 TN3r      1 res   C11      11      0.000     36.000
     12 SC4       1 res   C12      12      0.000     54.000
     13 TN3r      1 res   C13      13      0.000     36.000

[ bonds ]
;  ai    aj   funct      b0(nm)        k
    1     2     1      0.26541    20000
    2     3     1      0.28190    20000
    2     5     1      0.28652    20000
    3     4     1      0.25980    20000
    3    12     1      0.28680    20000
    4     5     1      0.29546    20000
    5     6     1      0.27161    20000
    5    10     1      0.29946    20000
    5    12     1      0.27375    20000
    6     7     1      0.22144    20000
    6    10     1      0.32035    20000
    7     8     1      0.31012    20000
    7    11     1      0.38147    20000
    8     9     1      0.26103    20000
    8    10     1      0.28271    20000
   10    12     1      0.29921    20000
   12    13     1      0.28762    20000
