[ moleculetype ]
; name        nrexcl
res           1

[ atoms ]
;    nr  type resnr resid  atom  cgnr     charge       mass
      1 SC3       1 res   C1        1      0.000     54.000
      2 SC3       1 res   C2        2      0.000     54.000
      3 SC4       1 res   C3        3      0.000     54.000
      4 SC3       1 res   C4        4      0.000     54.000
      5 TC4       1 res   C5        5      0.000     36.000
      6 SP2       1 res   C6        6      0.000     54.000
      7 TC3       1 res   C7        7      0.000     36.000
      8 SC3       1 res   C8        8      0.000     54.000
      9 N4a       1 res   C9        9      0.000     72.000
     10 TC5       1 res   C10      10      0.000     36.000
     11 TC5       1 res   C11      11      0.000     36.000
     12 TC5       1 res   C12      12      0.000     36.000

[ bonds ]
;  ai    aj   funct      b0(nm)        k
    1     2     1      0.32456    20000
    1     8     1      0.25761    20000
    2     3     1      0.35182    20000
    2     8     1      0.26304    20000
    3     4     1      0.30223    20000
    3     5     1      0.40235    20000
    3     7     1      0.37509    20000
    4     5     1      0.36783    20000
    5     6     1      0.29851    20000
    7     8     1      0.27415    20000
    8     9     1      0.39679    20000
    9    10     1      0.32309    20000
   10    11     1      0.25783    20000
   10    12     1      0.30210    20000
   11    12     1      0.29071    20000
