1TPCN00788
14
    1res  C1    1   -0.363  -0.150   0.247
    1res  C2    2   -0.284  -0.242  -0.002
    1res  C3    3   -0.142  -0.146  -0.199
    1res  C4    4   -0.054  -0.128   0.082
    1res  C5    5    0.144  -0.435  -0.048
    1res  C6    6    0.173  -0.068  -0.003
    1res  C7    7    0.288   0.077  -0.024
    1res  C8    8    0.495   0.038   0.045
    1res  C9    9    0.746   0.255   0.029
    1res  C10   10    0.395   0.296  -0.080
    1res  C11   11    0.098   0.130  -0.178
    1res  C12   12   -0.028   0.193   0.075
    1res  C13   13   -0.179   0.049  -0.056
    1res  C14   14   -0.387   0.237  -0.004
  10.00000  10.00000  10.00000
