1TPCN01281
10
    1res  C1    1    0.057  -0.195   0.154
    1res  C2    2   -0.017  -0.137   0.398
    1res  C3    3   -0.153   0.027   0.226
    1res  C4    4   -0.306  -0.206   0.129
    1res  C5    5   -0.311  -0.033  -0.141
    1res  C6    6   -0.054   0.109  -0.266
    1res  C7    7    0.069   0.112   0.008
    1res  C8    8   -0.062   0.477   0.027
    1res  C9    9    0.317   0.082   0.005
    1res  C10   10    0.447  -0.123  -0.080
  10.00000  10.00000  10.00000
