1TPCN01390
6
    1res  C1    1   -0.356   0.180   0.045
    1res  C2    2   -0.520  -0.016   0.067
    1res  C3    3   -0.309  -0.091  -0.090
    1res  C4    4   -0.034  -0.239  -0.001
    1res  C5    5    0.026   0.053  -0.050
    1res  C6    6    0.379   0.082   0.002
  10.00000  10.00000  10.00000
