[ moleculetype ]
; name        nrexcl
res           1

[ atoms ]
;    nr  type resnr resid  atom  cgnr     charge       mass
      1 N4a       1 res   C1        1      0.000     72.000
      2 TC5       1 res   C2        2      0.000     36.000
      3 SN6       1 res   C3        3      0.000     54.000
      4 SN6       1 res   C4        4      0.000     54.000
      5 TC3       1 res   C5        5      0.000     36.000
      6 TN6       1 res   C6        6      0.000     36.000
      7 SP2       1 res   C7        7      0.000     54.000
      8 TC3       1 res   C8        8      0.000     36.000
      9 N4a       1 res   C9        9      0.000     72.000
     10 TC5       1 res   C10      10      0.000     36.000
     11 SN6       1 res   C11      11      0.000     54.000
     12 SN6       1 res   C12      12      0.000     54.000
     13 TN6       1 res   C13      13      0.000     36.000

[ bonds ]
;  ai    aj   funct      b0(nm)        k
    1     2     1      0.26061    20000
    1     5     1      0.39809    20000
    2     3     1      0.30159    20000
    2     4     1      0.34299    20000
    3     4     1      0.30795    20000
    5     6     1      0.27346    20000
    5    13     1      0.28964    20000
    6     7     1      0.28278    20000
    6     8     1      0.25687    20000
    8     9     1      0.41284    20000
    8    13     1      0.29719    20000
    9    10     1      0.26054    20000
   10    11     1      0.30167    20000
   10    12     1      0.34509    20000
   11    12     1      0.33509    20000
