1TPCN02773
15
    1res  C1    1    0.369  -0.125   0.209
    1res  C2    2    0.160   0.052   0.326
    1res  C3    3    0.006  -0.075   0.201
    1res  C4    4    0.076  -0.249   0.347
    1res  C5    5   -0.103  -0.244   0.026
    1res  C6    6   -0.177  -0.016   0.092
    1res  C7    7   -0.393  -0.000  -0.080
    1res  C8    8   -0.080   0.041  -0.272
    1res  C9    9    0.046  -0.009  -0.069
    1res  C10   10   -0.135   0.247   0.074
    1res  C11   11   -0.602   0.169   0.144
    1res  C12   12    0.337  -0.142  -0.063
    1res  C13   13    0.435  -0.087  -0.287
    1res  C14   14    0.492   0.100  -0.456
    1res  C15   15    0.373   0.198  -0.209
  10.00000  10.00000  10.00000
