1TPCN03208
17
    1res  C1    1   -0.903   0.199  -0.023
    1res  C2    2   -0.654   0.219  -0.134
    1res  C3    3   -0.511  -0.156  -0.071
    1res  C4    4   -0.315   0.014  -0.183
    1res  C5    5   -0.170  -0.005   0.053
    1res  C6    6    0.060  -0.063   0.021
    1res  C7    7    0.177   0.012  -0.185
    1res  C8    8    0.361  -0.092   0.052
    1res  C9    9    0.534   0.109  -0.045
    1res  C10   10    0.743   0.225   0.004
    1res  C11   11    0.789   0.125   0.233
    1res  C12   12    1.054  -0.002  -0.101
    1res  C13   13    0.702   0.134  -0.256
    1res  C14   14    0.175  -0.186   0.215
    1res  C15   15   -0.305  -0.083   0.280
    1res  C16   16   -0.263  -0.385   0.160
    1res  C17   17   -0.586  -0.208   0.250
  10.00000  10.00000  10.00000
