1TPCN01085
9
    1res  C1    1    0.032   0.150  -0.143
    1res  C2    2    0.135   0.311   0.035
    1res  C3    3   -0.030   0.133   0.166
    1res  C4    4   -0.344   0.224   0.150
    1res  C5    5   -0.316  -0.132   0.039
    1res  C6    6   -0.145  -0.357  -0.125
    1res  C7    7    0.043  -0.123  -0.076
    1res  C8    8    0.438   0.028   0.125
    1res  C9    9    0.543   0.050  -0.159
  10.00000  10.00000  10.00000
