1TPCN01263
13
    1res  C1    1    0.418   0.236   0.066
    1res  C2    2    0.223   0.023   0.006
    1res  C3    3    0.034  -0.083  -0.049
    1res  C4    4   -0.122  -0.161  -0.182
    1res  C5    5   -0.304  -0.280  -0.276
    1res  C6    6   -0.314  -0.273   0.022
    1res  C7    7   -0.477  -0.117  -0.032
    1res  C8    8   -0.134  -0.091   0.175
    1res  C9    9   -0.323   0.159   0.126
    1res  C10   10   -0.109   0.200  -0.119
    1res  C11   11    0.274  -0.183  -0.119
    1res  C12   12    0.447  -0.180   0.060
    1res  C13   13    0.577   0.027   0.018
  10.00000  10.00000  10.00000
