1TPCN01374
7
    1res  C1    1   -0.451   0.104   0.055
    1res  C2    2   -0.077  -0.056   0.196
    1res  C3    3    0.162  -0.148   0.146
    1res  C4    4    0.216   0.041  -0.032
    1res  C5    5    0.424   0.195  -0.129
    1res  C6    6    0.051  -0.233  -0.062
    1res  C7    7   -0.135  -0.015  -0.150
  10.00000  10.00000  10.00000
