1TPCN02513
10
    1res  C1    1    0.428   0.153  -0.125
    1res  C2    2    0.226   0.021  -0.234
    1res  C3    3    0.323  -0.095   0.061
    1res  C4    4    0.163   0.136   0.097
    1res  C5    5    0.025  -0.191   0.140
    1res  C6    6    0.199  -0.260  -0.109
    1res  C7    7   -0.056  -0.167  -0.160
    1res  C8    8   -0.311  -0.193  -0.124
    1res  C9    9   -0.280   0.003   0.126
    1res  C10   10   -0.202   0.365   0.127
  10.00000  10.00000  10.00000
