1TPCN00877
7
    1res  C1    1    0.266  -0.084   0.101
    1res  C2    2    0.260  -0.272  -0.069
    1res  C3    3    0.081  -0.092  -0.135
    1res  C4    4    0.048   0.220  -0.037
    1res  C5    5   -0.156  -0.006  -0.133
    1res  C6    6   -0.276   0.030   0.096
    1res  C7    7   -0.139  -0.257   0.065
  10.00000  10.00000  10.00000
