1TPCN01217
16
    1res  C1    1    0.041  -0.265   0.270
    1res  C2    2    0.140   0.082   0.079
    1res  C3    3   -0.094   0.087  -0.010
    1res  C4    4   -0.372  -0.025  -0.028
    1res  C5    5   -0.330   0.230  -0.236
    1res  C6    6   -0.365   0.345   0.060
    1res  C7    7   -0.541   0.106   0.155
    1res  C8    8   -0.510  -0.173   0.099
    1res  C9    9   -0.406  -0.299  -0.109
    1res  C10   10   -0.298  -0.381   0.119
    1res  C11   11    0.035   0.054  -0.155
    1res  C12   12    0.170  -0.016  -0.331
    1res  C13   13    0.515   0.181  -0.066
    1res  C14   14    0.782   0.162   0.113
    1res  C15   15    0.934  -0.090   0.200
    1res  C16   16    0.775  -0.097  -0.042
  10.00000  10.00000  10.00000
