1TPCN03101
13
    1res  C1    1   -0.245   0.013   0.251
    1res  C2    2   -0.062  -0.046   0.034
    1res  C3    3   -0.222  -0.175  -0.143
    1res  C4    4   -0.462  -0.081   0.015
    1res  C5    5   -0.489   0.098  -0.194
    1res  C6    6   -0.398   0.227   0.024
    1res  C7    7   -0.713  -0.006  -0.044
    1res  C8    8    0.140  -0.138  -0.118
    1res  C9    9    0.130   0.016   0.141
    1res  C10   10    0.438  -0.029   0.068
    1res  C11   11    0.596  -0.260  -0.084
    1res  C12   12    0.684   0.065   0.081
    1res  C13   13    0.443   0.219   0.107
  10.00000  10.00000  10.00000
