[ moleculetype ]
; name        nrexcl
res           1

[ atoms ]
;    nr  type resnr resid  atom  cgnr     charge       mass
      1 SC4       1 res   C1        1      0.000     54.000
      2 TN6a      1 res   C2        2      0.000     36.000
      3 TN4a      1 res   C3        3      0.000     36.000
      4 N3r       1 res   C4        4      0.000     72.000
      5 SN4a      1 res   C5        5      0.000     54.000
      6 TP1       1 res   C6        6      0.000     36.000
      7 TN6       1 res   C7        7      0.000     36.000
      8 TN6       1 res   C8        8      0.000     36.000
      9 TN6       1 res   C9        9      0.000     36.000
     10 TC3       1 res   C10      10      0.000     36.000
     11 TN6a      1 res   C11      11      0.000     36.000
     12 SC4       1 res   C12      12      0.000     54.000

[ bonds ]
;  ai    aj   funct      b0(nm)        k
    1     2     1      0.25165    20000
    1     3     1      0.29481    20000
    1     4     1      0.44195    20000
    2     3     1      0.25862    20000
    3    10     1      0.23075    20000
    4     5     1      0.37567    20000
    4    10     1      0.29309    20000
    5     6     1      0.28657    20000
    5     7     1      0.29548    20000
    5     9     1      0.29954    20000
    7     8     1      0.26781    20000
    8     9     1      0.22547    20000
   10    11     1      0.28047    20000
   10    12     1      0.27457    20000
   11    12     1      0.35316    20000
