1TPCN03827
20
    1res  C1    1   -0.281   0.367  -0.339
    1res  C2    2   -0.442   0.364  -0.089
    1res  C3    3   -0.359   0.247   0.045
    1res  C4    4   -0.533   0.086   0.107
    1res  C5    5   -0.749  -0.093   0.087
    1res  C6    6   -0.809  -0.293   0.263
    1res  C7    7   -0.893  -0.234  -0.122
    1res  C8    8   -0.630  -0.111  -0.159
    1res  C9    9   -0.218   0.039   0.175
    1res  C10   10   -0.204  -0.043  -0.127
    1res  C11   11    0.001   0.261  -0.072
    1res  C12   12    0.053  -0.018  -0.127
    1res  C13   13    0.315   0.042  -0.075
    1res  C14   14    0.376   0.135   0.237
    1res  C15   15    0.468  -0.117   0.193
    1res  C16   16    0.852   0.067   0.034
    1res  C17   17    1.024  -0.120   0.020
    1res  C18   18    0.768  -0.225   0.132
    1res  C19   19    0.499  -0.251  -0.047
    1res  C20   20    0.095  -0.203   0.080
  10.00000  10.00000  10.00000
