1TPCN00725
11
    1res  C1    1   -0.271  -0.138   0.113
    1res  C2    2   -0.428  -0.149  -0.109
    1res  C3    3   -0.109  -0.030  -0.164
    1res  C4    4   -0.032  -0.136   0.046
    1res  C5    5    0.130   0.081   0.122
    1res  C6    6    0.239  -0.198  -0.074
    1res  C7    7    0.336  -0.024   0.017
    1res  C8    8    0.565  -0.090  -0.059
    1res  C9    9    0.497   0.150   0.097
    1res  C10   10   -0.068   0.140   0.051
    1res  C11   11   -0.165   0.329  -0.010
  10.00000  10.00000  10.00000
