1TPCN01621
8
    1res  C1    1    0.022   0.398  -0.007
    1res  C2    2   -0.002   0.089   0.002
    1res  C3    3   -0.258   0.125  -0.026
    1res  C4    4   -0.312  -0.119   0.033
    1res  C5    5   -0.085  -0.257   0.064
    1res  C6    6    0.265  -0.231  -0.016
    1res  C7    7    0.261   0.046  -0.043
    1res  C8    8    0.250   0.277  -0.042
  10.00000  10.00000  10.00000
