[ moleculetype ]
; name        nrexcl
res           1

[ atoms ]
;    nr  type resnr resid  atom  cgnr     charge       mass
      1 SN4a      1 res   C1        1      0.000     54.000
      2 SC3       1 res   C2        2      0.000     54.000
      3 SN6       1 res   C3        3      0.000     54.000
      4 SC4       1 res   C4        4      0.000     54.000
      5 TN2a      1 res   C5        5      0.000     36.000
      6 SC3       1 res   C6        6      0.000     54.000
      7 TC3       1 res   C7        7      0.000     36.000
      8 SN4a      1 res   C8        8      0.000     54.000
      9 TC5       1 res   C9        9      0.000     36.000
     10 TC5       1 res   C10      10      0.000     36.000
     11 TC5       1 res   C11      11      0.000     36.000
     12 SN4a      1 res   C12      12      0.000     54.000
     13 TC5       1 res   C13      13      0.000     36.000
     14 TC5       1 res   C14      14      0.000     36.000
     15 TC5       1 res   C15      15      0.000     36.000

[ bonds ]
;  ai    aj   funct      b0(nm)        k
    1     2     1      0.41988    20000
    2     3     1      0.32529    20000
    2     4     1      0.31320    20000
    3     4     1      0.37020    20000
    4     5     1      0.24521    20000
    4     6     1      0.39770    20000
    4     7     1      0.32240    20000
    5     6     1      0.18650    20000
    6     7     1      0.30726    20000
    6    12     1      0.41527    20000
    7     8     1      0.27068    20000
    8     9     1      0.25145    20000
    9    10     1      0.25808    20000
    9    11     1      0.30211    20000
   10    11     1      0.29076    20000
   12    13     1      0.25086    20000
   13    14     1      0.25820    20000
   13    15     1      0.30199    20000
   14    15     1      0.29076    20000
