1TPCN02934
10
    1res  C1    1    0.323   0.139   0.117
    1res  C2    2    0.244  -0.052  -0.223
    1res  C3    3    0.074  -0.256   0.007
    1res  C4    4   -0.095  -0.233  -0.186
    1res  C5    5   -0.007  -0.037  -0.085
    1res  C6    6   -0.074   0.189  -0.145
    1res  C7    7   -0.324  -0.000  -0.079
    1res  C8    8   -0.114   0.160   0.159
    1res  C9    9   -0.160  -0.093   0.254
    1res  C10   10    0.042  -0.065   0.163
  10.00000  10.00000  10.00000
