1TPCN03503
11
    1res  C1    1    0.529   0.007   0.050
    1res  C2    2    0.287  -0.028  -0.111
    1res  C3    3    0.194   0.197   0.033
    1res  C4    4    0.103   0.000   0.167
    1res  C5    5   -0.053  -0.239   0.032
    1res  C6    6   -0.140  -0.005   0.130
    1res  C7    7   -0.400   0.016   0.140
    1res  C8    8   -0.427  -0.224   0.140
    1res  C9    9   -0.234   0.218   0.113
    1res  C10   10   -0.278   0.035  -0.108
    1res  C11   11   -0.150   0.067  -0.305
  10.00000  10.00000  10.00000
