1TPCN02011
14
    1res  C1    1    0.121  -0.171  -0.359
    1res  C2    2   -0.069  -0.097  -0.023
    1res  C3    3    0.168  -0.138   0.034
    1res  C4    4    0.313   0.030  -0.006
    1res  C5    5    0.512   0.175  -0.054
    1res  C6    6    0.647   0.299  -0.235
    1res  C7    7    0.421   0.149  -0.341
    1res  C8    8   -0.049  -0.364  -0.014
    1res  C9    9   -0.022  -0.276   0.277
    1res  C10   10   -0.356  -0.181  -0.014
    1res  C11   11   -0.191   0.095   0.024
    1res  C12   12   -0.506   0.024   0.303
    1res  C13   13   -0.283   0.396   0.201
    1res  C14   14    0.117   0.367  -0.044
  10.00000  10.00000  10.00000
