[ moleculetype ]
; name        nrexcl
res           1

[ atoms ]
;    nr  type resnr resid  atom  cgnr     charge       mass
      1 N4a       1 res   C1        1      0.000     72.000
      2 TN4a      1 res   C2        2      0.000     36.000
      3 SP4       1 res   C3        3      0.000     54.000
      4 TC3       1 res   C4        4      0.000     36.000
      5 SC4       1 res   C5        5      0.000     54.000
      6 SN6       1 res   C6        6      0.000     54.000
      7 SC4       1 res   C7        7      0.000     54.000
      8 SC3       1 res   C8        8      0.000     54.000
      9 SN3r      1 res   C9        9      0.000     54.000
     10 SC2       1 res   C10      10      0.000     54.000
     11 SC2       1 res   C11      11      0.000     54.000
     12 SN4a      1 res   C12      12      0.000     54.000
     13 TP1       1 res   C13      13      0.000     36.000
     14 SP4       1 res   C14      14      0.000     54.000
     15 TN6       1 res   C15      15      0.000     36.000
     16 SC4       1 res   C16      16      0.000     54.000
     17 TC3       1 res   C17      17      0.000     36.000
     18 TN6       1 res   C18      18      0.000     36.000
     19 SC4       1 res   C19      19      0.000     54.000
     20 TN4a      1 res   C20      20      0.000     36.000
     21 TC4       1 res   C21      21      0.000     36.000
     22 SP4       1 res   C22      22      0.000     54.000
     23 TN6       1 res   C23      23      0.000     36.000
     24 SP4       1 res   C24      24      0.000     54.000

[ bonds ]
;  ai    aj   funct      b0(nm)        k
    1     2     1      0.35270    20000
    2     3     1      0.28544    20000
    2    24     1      0.21748    20000
    3     4     1      0.34800    20000
    3    20     1      0.30185    20000
    3    24     1      0.28578    20000
    4     5     1      0.28835    20000
    4    16     1      0.36057    20000
    5     6     1      0.30676    20000
    5     7     1      0.36048    20000
    5    16     1      0.36327    20000
    6     7     1      0.37716    20000
    7     8     1      0.26187    20000
    8     9     1      0.32165    20000
    9    10     1      0.27616    20000
    9    12     1      0.37868    20000
   10    11     1      0.36468    20000
   12    13     1      0.32313    20000
   12    14     1      0.28161    20000
   12    15     1      0.29021    20000
   14    15     1      0.26735    20000
   16    17     1      0.27010    20000
   16    19     1      0.33357    20000
   17    18     1      0.28648    20000
   18    19     1      0.28384    20000
   20    21     1      0.29464    20000
   20    23     1      0.22909    20000
   21    22     1      0.30654    20000
   22    23     1      0.27466    20000
