1TPCN02623
22
    1res  C1    1   -0.879   0.248   0.389
    1res  C2    2   -1.010  -0.095   0.297
    1res  C3    3   -1.001  -0.043  -0.038
    1res  C4    4   -0.778   0.078   0.039
    1res  C5    5   -0.574  -0.114   0.024
    1res  C6    6   -0.496  -0.052  -0.206
    1res  C7    7   -0.113  -0.104  -0.114
    1res  C8    8    0.293  -0.191  -0.122
    1res  C9    9    0.413  -0.007  -0.309
    1res  C10   10    0.623   0.015  -0.110
    1res  C11   11    0.795  -0.111  -0.220
    1res  C12   12    0.966  -0.116   0.076
    1res  C13   13    1.158  -0.024   0.269
    1res  C14   14    1.129  -0.175   0.481
    1res  C15   15    0.827   0.162   0.047
    1res  C16   16    0.552   0.172   0.073
    1res  C17   17    0.365   0.090   0.035
    1res  C18   18    0.122   0.155  -0.100
    1res  C19   19    0.072   0.013  -0.460
    1res  C20   20   -0.341   0.100   0.040
    1res  C21   21   -0.537   0.061   0.264
    1res  C22   22   -0.707  -0.069   0.309
  10.00000  10.00000  10.00000
