1TPCN00479
27
    1res  C1    1    0.680  -0.368  -0.180
    1res  C2    2    0.888  -0.095  -0.094
    1res  C3    3    0.686  -0.151   0.098
    1res  C4    4    0.634   0.019  -0.161
    1res  C5    5    0.475   0.071   0.126
    1res  C6    6    0.611   0.355   0.188
    1res  C7    7    0.753   0.550   0.281
    1res  C8    8    0.748   0.316   0.455
    1res  C9    9    0.509  -0.162  -0.166
    1res  C10   10    0.358  -0.250  -0.052
    1res  C11   11    0.155  -0.124  -0.208
    1res  C12   12    0.061  -0.024  -0.022
    1res  C13   13    0.013  -0.273  -0.053
    1res  C14   14   -0.221  -0.207   0.016
    1res  C15   15   -0.200  -0.515   0.073
    1res  C16   16   -0.439  -0.350   0.079
    1res  C17   17   -0.451   0.040   0.098
    1res  C18   18   -0.673   0.044   0.074
    1res  C19   19   -0.918   0.175  -0.076
    1res  C20   20   -1.110   0.386  -0.027
    1res  C21   21   -1.027   0.324   0.194
    1res  C22   22   -1.008   0.073   0.193
    1res  C23   23   -0.519   0.301   0.161
    1res  C24   24   -0.445   0.299  -0.077
    1res  C25   25   -0.238   0.157   0.000
    1res  C26   26    0.197  -0.318  -0.358
    1res  C27   27    0.326  -0.452  -0.168
  10.00000  10.00000  10.00000
