1TPCN01705
9
    1res  C1    1   -0.313   0.196  -0.152
    1res  C2    2   -0.431   0.267   0.209
    1res  C3    3   -0.305  -0.014   0.253
    1res  C4    4   -0.229  -0.104  -0.003
    1res  C5    5    0.031  -0.209  -0.139
    1res  C6    6    0.261  -0.019  -0.045
    1res  C7    7    0.235   0.286  -0.113
    1res  C8    8    0.521   0.032   0.046
    1res  C9    9    0.326  -0.178   0.136
  10.00000  10.00000  10.00000
