1TPCN03658
38
    1res  C1    1    0.270  -0.590  -0.129
    1res  C2    2    0.267  -0.262  -0.255
    1res  C3    3    0.318  -0.039  -0.074
    1res  C4    4    0.111   0.031  -0.014
    1res  C5    5   -0.190   0.119  -0.058
    1res  C6    6   -0.083  -0.069  -0.243
    1res  C7    7   -0.223   0.175  -0.327
    1res  C8    8   -0.235   0.038   0.190
    1res  C9    9   -0.339   0.264   0.244
    1res  C10   10   -0.382   0.011   0.447
    1res  C11   11   -0.673   0.099   0.269
    1res  C12   12   -0.587   0.186  -0.020
    1res  C13   13   -0.836  -0.029   0.077
    1res  C14   14   -0.885  -0.027  -0.295
    1res  C15   15   -0.692  -0.022  -0.515
    1res  C16   16   -1.049   0.160  -0.454
    1res  C17   17   -1.084   0.089  -0.201
    1res  C18   18   -1.246   0.018   0.019
    1res  C19   19   -1.254  -0.051   0.316
    1res  C20   20   -1.494   0.107   0.070
    1res  C21   21   -1.342   0.231  -0.123
    1res  C22   22   -0.792  -0.293   0.020
    1res  C23   23   -0.540  -0.179   0.333
    1res  C24   24   -0.047   0.020   0.340
    1res  C25   25   -0.150  -0.191   0.126
    1res  C26   26    0.407  -0.241   0.020
    1res  C27   27    0.576  -0.010   0.050
    1res  C28   28    0.607   0.241   0.072
    1res  C29   29    0.846   0.086   0.101
    1res  C30   30    1.108   0.121  -0.100
    1res  C31   31    1.283   0.275  -0.094
    1res  C32   32    1.547   0.053   0.084
    1res  C33   33    1.813   0.151   0.213
    1res  C34   34    1.710  -0.159  -0.007
    1res  C35   35    1.476  -0.078  -0.169
    1res  C36   36    1.095   0.373   0.050
    1res  C37   37    0.782  -0.168   0.031
    1res  C38   38    0.390  -0.513   0.239
  10.00000  10.00000  10.00000
