[ moleculetype ]
; name        nrexcl
res           1

[ atoms ]
;    nr  type resnr resid  atom  cgnr     charge       mass
      1 TC3       1 res   C1        1      0.000     36.000
      2 TN6d      1 res   C2        2      0.000     36.000
      3 TC5       1 res   C3        3      0.000     36.000
      4 SN3r      1 res   C4        4      0.000     54.000
      5 TC3       1 res   C5        5      0.000     36.000
      6 TN6       1 res   C6        6      0.000     36.000
      7 TC5       1 res   C7        7      0.000     36.000
      8 TC5       1 res   C8        8      0.000     36.000
      9 SC3       1 res   C9        9      0.000     54.000
     10 TC3       1 res   C10      10      0.000     36.000
     11 TN3r      1 res   C11      11      0.000     36.000
     12 SN6       1 res   C12      12      0.000     54.000
     13 SN4a      1 res   C13      13      0.000     54.000
     14 TC5       1 res   C14      14      0.000     36.000
     15 TC5       1 res   C15      15      0.000     36.000
     16 TN2a      1 res   C16      16      0.000     36.000
     17 TC5       1 res   C17      17      0.000     36.000
     18 TN2a      1 res   C18      18      0.000     36.000
     19 TN6       1 res   C19      19      0.000     36.000

[ bonds ]
;  ai    aj   funct      b0(nm)        k
    1     2     1      0.25366    20000
    2     3     1      0.27809    20000
    2     7     1      0.28203    20000
    3     4     1      0.33633    20000
    3     5     1      0.25690    20000
    3     7     1      0.27150    20000
    3    19     1      0.26217    20000
    5     6     1      0.28174    20000
    6     7     1      0.22704    20000
    7     8     1      0.28260    20000
    7    12     1      0.21450    20000
    8     9     1      0.21558    20000
    8    12     1      0.30264    20000
    9    10     1      0.31575    20000
    9    13     1      0.36458    20000
   10    11     1      0.23923    20000
   10    12     1      0.24651    20000
   12    19     1      0.31196    20000
   13    14     1      0.24139    20000
   14    15     1      0.22197    20000
   14    17     1      0.27348    20000
   15    16     1      0.33029    20000
   15    17     1      0.30697    20000
   17    18     1      0.25246    20000
