1TPCN02333
9
    1res  C1    1    0.530   0.017   0.007
    1res  C2    2    0.291   0.018  -0.065
    1res  C3    3    0.189  -0.050   0.209
    1res  C4    4    0.075  -0.007  -0.013
    1res  C5    5   -0.034   0.082  -0.214
    1res  C6    6   -0.155  -0.141   0.044
    1res  C7    7   -0.394   0.045  -0.218
    1res  C8    8   -0.434  -0.203  -0.057
    1res  C9    9   -0.290   0.117   0.123
  10.00000  10.00000  10.00000
