1TPCN01048
15
    1res  C1    1   -0.597  -0.330   0.133
    1res  C2    2   -0.398  -0.179   0.135
    1res  C3    3   -0.232   0.038   0.144
    1res  C4    4   -0.077  -0.143   0.147
    1res  C5    5    0.020  -0.034   0.001
    1res  C6    6    0.040  -0.213  -0.140
    1res  C7    7    0.320  -0.109  -0.106
    1res  C8    8    0.503   0.019  -0.120
    1res  C9    9    0.588  -0.237   0.026
    1res  C10   10    0.697   0.249  -0.185
    1res  C11   11    0.297   0.135  -0.225
    1res  C12   12    0.342   0.362  -0.322
    1res  C13   13   -0.451   0.073   0.172
    1res  C14   14   -0.319   0.348   0.189
    1res  C15   15   -0.754   0.029   0.198
  10.00000  10.00000  10.00000
