1TPCN00394
12
    1res  C1    1   -0.554   0.017  -0.141
    1res  C2    2   -0.366   0.098  -0.019
    1res  C3    3   -0.213   0.133  -0.259
    1res  C4    4   -0.176  -0.068  -0.041
    1res  C5    5   -0.012  -0.162   0.101
    1res  C6    6    0.159   0.106  -0.027
    1res  C7    7    0.363  -0.041   0.004
    1res  C8    8    0.512   0.094  -0.144
    1res  C9    9    0.592  -0.142   0.011
    1res  C10   10    0.274  -0.252   0.199
    1res  C11   11   -0.044   0.135   0.034
    1res  C12   12   -0.222   0.151   0.220
  10.00000  10.00000  10.00000
