[ moleculetype ]
; name        nrexcl
res           1

[ atoms ]
;    nr  type resnr resid  atom  cgnr     charge       mass
      1 SC4       1 res   C1        1      0.000     54.000
      2 TN6a      1 res   C2        2      0.000     36.000
      3 TN4a      1 res   C3        3      0.000     36.000
      4 TC3       1 res   C4        4      0.000     36.000
      5 TN6       1 res   C5        5      0.000     36.000
      6 TC3       1 res   C6        6      0.000     36.000
      7 SC4       1 res   C7        7      0.000     54.000
      8 SN6       1 res   C8        8      0.000     54.000
      9 TC3       1 res   C9        9      0.000     36.000
     10 TN6       1 res   C10      10      0.000     36.000
     11 TP1       1 res   C11      11      0.000     36.000
     12 TN6a      1 res   C12      12      0.000     36.000

[ bonds ]
;  ai    aj   funct      b0(nm)        k
    1     2     1      0.26000    20000
    1     3     1      0.30482    20000
    1     5     1      0.26637    20000
    1     6     1      0.31821    20000
    2     3     1      0.23118    20000
    3     4     1      0.24320    20000
    3     7     1      0.29248    20000
    4     5     1      0.27499    20000
    6     7     1      0.32716    20000
    7     8     1      0.33845    20000
    7     9     1      0.28221    20000
    7    12     1      0.38781    20000
    8     9     1      0.29591    20000
    8    10     1      0.25798    20000
   10    11     1      0.26468    20000
   10    12     1      0.25896    20000
