1TPCN01955
8
    1res  C1    1    0.297  -0.170  -0.182
    1res  C2    2    0.396   0.070  -0.164
    1res  C3    3    0.149   0.164  -0.112
    1res  C4    4   -0.041   0.254   0.091
    1res  C5    5   -0.211  -0.009  -0.061
    1res  C6    6   -0.155  -0.270  -0.006
    1res  C7    7   -0.059  -0.130   0.232
    1res  C8    8    0.108  -0.087  -0.015
  10.00000  10.00000  10.00000
