1TPCN00774
11
    1res  C1    1   -0.481   0.227   0.146
    1res  C2    2   -0.384  -0.072  -0.000
    1res  C3    3   -0.213   0.039   0.118
    1res  C4    4   -0.008  -0.072  -0.024
    1res  C5    5    0.101  -0.041   0.006
    1res  C6    6    0.214  -0.010   0.039
    1res  C7    7    0.347   0.107   0.218
    1res  C8    8    0.421  -0.030  -0.042
    1res  C9    9    0.696   0.084   0.102
    1res  C10   10   -0.185  -0.130  -0.218
    1res  C11   11    0.113  -0.183  -0.299
  10.00000  10.00000  10.00000
