1TPCN01942
16
    1res  C1    1   -0.683   0.227   0.093
    1res  C2    2   -0.447   0.169  -0.006
    1res  C3    3   -0.289  -0.032   0.112
    1res  C4    4   -0.193   0.034   0.233
    1res  C5    5   -0.117  -0.073   0.218
    1res  C6    6    0.039  -0.099   0.307
    1res  C7    7    0.212  -0.160   0.172
    1res  C8    8    0.381  -0.142   0.067
    1res  C9    9    0.104   0.183   0.187
    1res  C10   10    0.332   0.194  -0.014
    1res  C11   11    0.429  -0.045  -0.126
    1res  C12   12    0.672   0.037  -0.162
    1res  C13   13   -0.115  -0.274   0.063
    1res  C14   14   -0.439  -0.083  -0.022
    1res  C15   15   -0.396  -0.246  -0.082
    1res  C16   16   -0.651  -0.159  -0.169
  10.00000  10.00000  10.00000
