1TPCN01739
14
    1res  C1    1   -0.313   0.030  -0.289
    1res  C2    2   -0.292   0.310  -0.227
    1res  C3    3   -0.337   0.231   0.033
    1res  C4    4   -0.099   0.133   0.139
    1res  C5    5   -0.247  -0.070   0.020
    1res  C6    6   -0.199  -0.258   0.215
    1res  C7    7    0.124  -0.127   0.093
    1res  C8    8    0.132  -0.345  -0.051
    1res  C9    9    0.108  -0.559  -0.108
    1res  C10   10    0.254  -0.360   0.175
    1res  C11   11    0.398   0.036  -0.116
    1res  C12   12    0.548   0.321  -0.099
    1res  C13   13    0.508   0.520   0.060
    1res  C14   14    0.270   0.361   0.011
  10.00000  10.00000  10.00000
