1TPCN02097
7
    1res  C1    1   -0.088   0.303  -0.081
    1res  C2    2   -0.273   0.132   0.143
    1res  C3    3   -0.122  -0.043  -0.029
    1res  C4    4    0.011  -0.135   0.124
    1res  C5    5    0.162  -0.264   0.111
    1res  C6    6    0.351  -0.160  -0.087
    1res  C7    7    0.111   0.058  -0.150
  10.00000  10.00000  10.00000
