1TPCN01835
7
    1res  C1    1    0.009   0.293  -0.040
    1res  C2    2   -0.154  -0.106  -0.105
    1res  C3    3    0.135  -0.005  -0.170
    1res  C4    4    0.345   0.016   0.042
    1res  C5    5    0.065  -0.217   0.020
    1res  C6    6   -0.212  -0.007   0.180
    1res  C7    7   -0.149   0.238   0.158
  10.00000  10.00000  10.00000
