1TPCN01040
12
    1res  C1    1   -0.494   0.231   0.087
    1res  C2    2   -0.565  -0.044   0.079
    1res  C3    3   -0.375  -0.108  -0.102
    1res  C4    4   -0.197  -0.232   0.080
    1res  C5    5   -0.104   0.076  -0.124
    1res  C6    6    0.010   0.101   0.134
    1res  C7    7    0.121  -0.211  -0.041
    1res  C8    8    0.361  -0.114   0.034
    1res  C9    9    0.437   0.046   0.223
    1res  C10   10    0.646   0.073   0.065
    1res  C11   11    0.573   0.058  -0.156
    1res  C12   12    0.225  -0.029  -0.229
  10.00000  10.00000  10.00000
