1TPCN02087
16
    1res  C1    1   -0.540  -0.333  -0.009
    1res  C2    2   -0.384   0.011   0.196
    1res  C3    3   -0.321   0.167  -0.067
    1res  C4    4   -0.092   0.253  -0.230
    1res  C5    5    0.052   0.438  -0.343
    1res  C6    6    0.133   0.629  -0.231
    1res  C7    7    0.021   0.493  -0.132
    1res  C8    8   -0.134  -0.031   0.033
    1res  C9    9    0.022   0.137   0.142
    1res  C10   10   -0.027  -0.191  -0.138
    1res  C11   11    0.352  -0.061  -0.104
    1res  C12   12    0.711  -0.015  -0.118
    1res  C13   13    0.930  -0.022   0.018
    1res  C14   14    0.701  -0.134   0.159
    1res  C15   15   -0.040  -0.266   0.169
    1res  C16   16   -0.208  -0.040   0.202
  10.00000  10.00000  10.00000
