1TPCN02501
18
    1res  C1    1   -0.061  -0.444   0.146
    1res  C2    2    0.053  -0.205   0.075
    1res  C3    3   -0.053   0.025   0.006
    1res  C4    4    0.271   0.068  -0.005
    1res  C5    5    0.511  -0.147  -0.024
    1res  C6    6    0.742  -0.260  -0.048
    1res  C7    7    0.782  -0.005  -0.040
    1res  C8    8    0.756   0.317   0.023
    1res  C9    9    0.045  -0.128  -0.273
    1res  C10   10   -0.197  -0.222  -0.258
    1res  C11   11   -0.225  -0.173   0.000
    1res  C12   12   -0.411  -0.080  -0.084
    1res  C13   13   -0.407   0.170  -0.138
    1res  C14   14   -0.458   0.180   0.175
    1res  C15   15   -0.432   0.453   0.038
    1res  C16   16   -0.316  -0.084   0.216
    1res  C17   17   -0.624  -0.006  -0.073
    1res  C18   18   -0.066   0.274   0.102
  10.00000  10.00000  10.00000
