1TPCN03538
21
    1res  C1    1   -0.720  -0.209  -0.416
    1res  C2    2   -0.718  -0.275  -0.041
    1res  C3    3   -0.897  -0.066  -0.028
    1res  C4    4   -0.678  -0.109   0.135
    1res  C5    5   -0.792  -0.013   0.352
    1res  C6    6   -0.647   0.186   0.102
    1res  C7    7   -0.450   0.065   0.302
    1res  C8    8   -0.297  -0.168   0.188
    1res  C9    9   -0.328   0.110  -0.021
    1res  C10   10   -0.049   0.078  -0.014
    1res  C11   11    0.105  -0.118   0.071
    1res  C12   12    0.201   0.104   0.207
    1res  C13   13    0.467   0.283  -0.066
    1res  C14   14    0.717   0.232  -0.103
    1res  C15   15    0.806  -0.087  -0.188
    1res  C16   16    0.701  -0.370  -0.126
    1res  C17   17    1.036  -0.223  -0.246
    1res  C18   18    1.024   0.038  -0.187
    1res  C19   19    0.584   0.018   0.043
    1res  C20   20    0.174   0.354   0.138
    1res  C21   21   -0.185   0.289   0.155
  10.00000  10.00000  10.00000
