1TPCN03115
16
    1res  C1    1   -0.259   0.200   0.491
    1res  C2    2   -0.314   0.092   0.104
    1res  C3    3   -0.353   0.145  -0.216
    1res  C4    4   -0.067   0.289   0.127
    1res  C5    5    0.069   0.161  -0.322
    1res  C6    6    0.226   0.123   0.010
    1res  C7    7    0.442   0.141  -0.207
    1res  C8    8    0.665   0.203  -0.321
    1res  C9    9    0.631   0.326  -0.060
    1res  C10   10    0.061  -0.141  -0.092
    1res  C11   11    0.188  -0.224   0.161
    1res  C12   12    0.511  -0.122   0.021
    1res  C13   13   -0.013  -0.315   0.210
    1res  C14   14   -0.042  -0.428   0.042
    1res  C15   15   -0.302  -0.225   0.351
    1res  C16   16   -0.323  -0.298  -0.113
  10.00000  10.00000  10.00000
