[ moleculetype ]
; name        nrexcl
res           1

[ atoms ]
;    nr  type resnr resid  atom  cgnr     charge       mass
      1 SC4       1 res   C1        1      0.000     54.000
      2 SN6a      1 res   C2        2      0.000     54.000
      3 TC5       1 res   C3        3      0.000     36.000
      4 TC3       1 res   C4        4      0.000     36.000
      5 SC4       1 res   C5        5      0.000     54.000
      6 SN3r      1 res   C6        6      0.000     54.000
      7 TC5       1 res   C7        7      0.000     36.000
      8 TC5       1 res   C8        8      0.000     36.000
      9 TN2a      1 res   C9        9      0.000     36.000
     10 TN4a      1 res   C10      10      0.000     36.000

[ bonds ]
;  ai    aj   funct      b0(nm)        k
    1     2     1      0.38920    20000
    1     3     1      0.29651    20000
    2     3     1      0.25148    20000
    3     4     1      0.24819    20000
    3     5     1      0.35405    20000
    4     5     1      0.29278    20000
    5     6     1      0.32420    20000
    5    10     1      0.27517    20000
    6     7     1      0.26649    20000
    6    10     1      0.28677    20000
    7     8     1      0.26215    20000
    7     9     1      0.16740    20000
    8     9     1      0.20235    20000
