1TPCN03537
13
    1res  C1    1   -0.585   0.018  -0.204
    1res  C2    2   -0.578   0.033   0.091
    1res  C3    3   -0.351   0.003  -0.051
    1res  C4    4   -0.360   0.226   0.258
    1res  C5    5   -0.217  -0.111   0.242
    1res  C6    6   -0.143  -0.185  -0.014
    1res  C7    7    0.008   0.176  -0.054
    1res  C8    8    0.121  -0.127   0.143
    1res  C9    9    0.347  -0.003   0.088
    1res  C10   10    0.418   0.242   0.055
    1res  C11   11    0.598   0.176  -0.125
    1res  C12   12    0.556  -0.062  -0.155
    1res  C13   13    0.203  -0.179  -0.123
  10.00000  10.00000  10.00000
