1TPCN03604
31
    1res  C1    1    0.654  -0.278  -0.485
    1res  C2    2    0.467  -0.126  -0.279
    1res  C3    3    0.411  -0.195   0.055
    1res  C4    4    0.749  -0.150  -0.013
    1res  C5    5    0.999  -0.033  -0.126
    1res  C6    6    1.276   0.017  -0.051
    1res  C7    7    1.408  -0.127   0.112
    1res  C8    8    1.407   0.211   0.019
    1res  C9    9    1.146   0.286  -0.020
    1res  C10   10    0.887  -0.104   0.222
    1res  C11   11    0.678  -0.287   0.229
    1res  C12   12    0.435   0.080   0.075
    1res  C13   13    0.245   0.189   0.082
    1res  C14   14    0.090   0.073  -0.190
    1res  C15   15   -0.015   0.234   0.096
    1res  C16   16   -0.248   0.156   0.032
    1res  C17   17   -0.346  -0.029  -0.127
    1res  C18   18   -0.527   0.038   0.052
    1res  C19   19   -0.809  -0.017   0.149
    1res  C20   20   -0.801  -0.278   0.085
    1res  C21   21   -0.950  -0.562   0.222
    1res  C22   22   -1.173  -0.628   0.045
    1res  C23   23   -1.171  -0.372   0.158
    1res  C24   24   -0.919  -0.039  -0.115
    1res  C25   25   -0.778   0.169  -0.025
    1res  C26   26   -0.848   0.392  -0.147
    1res  C27   27   -1.016   0.503   0.005
    1res  C28   28   -0.764   0.580  -0.284
    1res  C29   29   -0.559   0.406  -0.150
    1res  C30   30   -0.424  -0.059   0.253
    1res  C31   31   -0.076   0.080   0.284
  10.00000  10.00000  10.00000
