1TPCN00894
8
    1res  C1    1    0.253   0.314   0.047
    1res  C2    2    0.444   0.146  -0.014
    1res  C3    3    0.259  -0.037  -0.054
    1res  C4    4    0.069  -0.170   0.156
    1res  C5    5   -0.039  -0.083  -0.105
    1res  C6    6   -0.261  -0.176  -0.069
    1res  C7    7   -0.272   0.119  -0.105
    1res  C8    8    0.065   0.129   0.034
  10.00000  10.00000  10.00000
