1TPCN01537
12
    1res  C1    1    0.261  -0.333   0.121
    1res  C2    2    0.063  -0.322  -0.129
    1res  C3    3   -0.044  -0.085  -0.105
    1res  C4    4   -0.255  -0.002  -0.044
    1res  C5    5   -0.325   0.307  -0.036
    1res  C6    6   -0.524   0.110   0.037
    1res  C7    7   -0.501  -0.105  -0.011
    1res  C8    8   -0.331  -0.220   0.097
    1res  C9    9    0.207  -0.050  -0.097
    1res  C10   10    0.212   0.079   0.063
    1res  C11   11    0.225   0.314   0.055
    1res  C12   12    0.511   0.219   0.079
  10.00000  10.00000  10.00000
