[ moleculetype ]
; name        nrexcl
res           1

[ atoms ]
;    nr  type resnr resid  atom  cgnr     charge       mass
      1 N4a       1 res   C1        1      0.000     72.000
      2 N5a       1 res   C2        2      0.000     72.000
      3 SN3r      1 res   C3        3      0.000     54.000
      4 TC3       1 res   C4        4      0.000     36.000
      5 SN4a      1 res   C5        5      0.000     54.000
      6 TC4       1 res   C6        6      0.000     36.000
      7 SC3       1 res   C7        7      0.000     54.000
      8 SC4       1 res   C8        8      0.000     54.000
      9 SC4       1 res   C9        9      0.000     54.000
     10 TC3       1 res   C10      10      0.000     36.000
     11 TC5       1 res   C11      11      0.000     36.000
     12 TC5       1 res   C12      12      0.000     36.000
     13 TN2a      1 res   C13      13      0.000     36.000
     14 TC3       1 res   C14      14      0.000     36.000
     15 TN4a      1 res   C15      15      0.000     36.000
     16 TP1       1 res   C16      16      0.000     36.000
     17 SP4       1 res   C17      17      0.000     54.000
     18 SN3r      1 res   C18      18      0.000     54.000

[ bonds ]
;  ai    aj   funct      b0(nm)        k
    1     2     1      0.35359    20000
    2     3     1      0.30608    20000
    2    18     1      0.30382    20000
    3     4     1      0.33364    20000
    3    18     1      0.29826    20000
    4     5     1      0.22118    20000
    4    15     1      0.27089    20000
    4    17     1      0.29323    20000
    5     6     1      0.28137    20000
    6     7     1      0.29578    20000
    6     8     1      0.38903    20000
    7     8     1      0.25776    20000
    8     9     1      0.37754    20000
    8    14     1      0.27106    20000
    9    10     1      0.32322    20000
    9    14     1      0.31669    20000
   10    11     1      0.26607    20000
   11    12     1      0.26234    20000
   11    13     1      0.16763    20000
   12    13     1      0.20213    20000
   15    16     1      0.24395    20000
   15    17     1      0.26775    20000
