[ moleculetype ]
; name        nrexcl
res           1

[ atoms ]
;    nr  type resnr resid  atom  cgnr     charge       mass
      1 TC5       1 res   C1        1      0.000     36.000
      2 TC3       1 res   C2        2      0.000     36.000
      3 TN4a      1 res   C3        3      0.000     36.000
      4 TN6       1 res   C4        4      0.000     36.000
      5 TN4a      1 res   C5        5      0.000     36.000
      6 TP1       1 res   C6        6      0.000     36.000
      7 TN6       1 res   C7        7      0.000     36.000
      8 TN6       1 res   C8        8      0.000     36.000
      9 TN6       1 res   C9        9      0.000     36.000
     10 TC5       1 res   C10      10      0.000     36.000
     11 N4a       1 res   C11      11      0.000     72.000
     12 TC4       1 res   C12      12      0.000     36.000
     13 TC5       1 res   C13      13      0.000     36.000
     14 SN6       1 res   C14      14      0.000     54.000
     15 SN6       1 res   C15      15      0.000     54.000
     16 TN6       1 res   C16      16      0.000     36.000
     17 TN6d      1 res   C17      17      0.000     36.000
     18 SN4a      1 res   C18      18      0.000     54.000

[ bonds ]
;  ai    aj   funct      b0(nm)        k
    1     2     1      0.30518    20000
    2     3     1      0.21314    20000
    2    10     1      0.29599    20000
    2    12     1      0.25207    20000
    3     4     1      0.21858    20000
    3    10     1      0.25261    20000
    4     5     1      0.27224    20000
    4     9     1      0.21331    20000
    5     6     1      0.23637    20000
    5     7     1      0.25835    20000
    7     8     1      0.23732    20000
    8     9     1      0.25159    20000
   10    11     1      0.33517    20000
   12    13     1      0.25162    20000
   12    17     1      0.29292    20000
   13    14     1      0.29755    20000
   13    15     1      0.29735    20000
   13    16     1      0.24531    20000
   14    15     1      0.28420    20000
   16    17     1      0.22251    20000
   17    18     1      0.34139    20000
