[ moleculetype ]
; name        nrexcl
res           1

[ atoms ]
;    nr  type resnr resid  atom  cgnr     charge       mass
      1 SC4       1 res   C1        1      0.000     54.000
      2 TC3       1 res   C2        2      0.000     36.000
      3 SC5       1 res   C3        3      0.000     54.000
      4 SP2       1 res   C4        4      0.000     54.000
      5 TC3       1 res   C5        5      0.000     36.000
      6 SC4       1 res   C6        6      0.000     54.000
      7 TC3       1 res   C7        7      0.000     36.000
      8 SC4       1 res   C8        8      0.000     54.000
      9 SC4       1 res   C9        9      0.000     54.000
     10 TC3       1 res   C10      10      0.000     36.000
     11 TN6       1 res   C11      11      0.000     36.000
     12 SN4a      1 res   C12      12      0.000     54.000
     13 TP1       1 res   C13      13      0.000     36.000
     14 SP4       1 res   C14      14      0.000     54.000
     15 TN6       1 res   C15      15      0.000     36.000
     16 SN4a      1 res   C16      16      0.000     54.000
     17 TP1       1 res   C17      17      0.000     36.000
     18 SP4       1 res   C18      18      0.000     54.000
     19 TN6       1 res   C19      19      0.000     36.000
     20 SC4       1 res   C20      20      0.000     54.000
     21 TC3       1 res   C21      21      0.000     36.000

[ bonds ]
;  ai    aj   funct      b0(nm)        k
    1     2     1      0.29452    20000
    1     3     1      0.28182    20000
    2     3     1      0.27308    20000
    3     4     1      0.37236    20000
    3     5     1      0.33021    20000
    3     6     1      0.30867    20000
    5     6     1      0.27643    20000
    6     7     1      0.33836    20000
    6     8     1      0.31504    20000
    7     8     1      0.28103    20000
    8     9     1      0.27765    20000
    8    21     1      0.28164    20000
    9    10     1      0.28214    20000
    9    20     1      0.34136    20000
    9    21     1      0.36583    20000
   10    11     1      0.24755    20000
   11    12     1      0.21803    20000
   11    20     1      0.24459    20000
   12    13     1      0.29691    20000
   12    14     1      0.26381    20000
   12    15     1      0.24856    20000
   14    15     1      0.25780    20000
   15    16     1      0.29800    20000
   16    17     1      0.29745    20000
   16    18     1      0.28397    20000
   16    19     1      0.29820    20000
   18    19     1      0.28875    20000
