[ moleculetype ]
; name        nrexcl
res           1

[ atoms ]
;    nr  type resnr resid  atom  cgnr     charge       mass
      1 TC4       1 res   C1        1      0.000     36.000
      2 TN6a      1 res   C2        2      0.000     36.000
      3 TN4a      1 res   C3        3      0.000     36.000
      4 SC2       1 res   C4        4      0.000     54.000
      5 TC3       1 res   C5        5      0.000     36.000
      6 TC3       1 res   C6        6      0.000     36.000
      7 SN6       1 res   C7        7      0.000     54.000
      8 TC4       1 res   C8        8      0.000     36.000

[ bonds ]
;  ai    aj   funct      b0(nm)        k
    1     2     1      0.26155    20000
    1     8     1      0.26427    20000
    2     3     1      0.26290    20000
    3     4     1      0.31283    20000
    3     8     1      0.26984    20000
    4     5     1      0.29588    20000
    5     6     1      0.24360    20000
    5     7     1      0.30828    20000
    5     8     1      0.27378    20000
    6     7     1      0.29756    20000
