[ moleculetype ]
; name        nrexcl
res           1

[ atoms ]
;    nr  type resnr resid  atom  cgnr     charge       mass
      1 N4a       1 res   C1        1      0.000     72.000
      2 TC5       1 res   C2        2      0.000     36.000
      3 TC3       1 res   C3        3      0.000     36.000
      4 TC3       1 res   C4        4      0.000     36.000
      5 SN4a      1 res   C5        5      0.000     54.000
      6 TN6d      1 res   C6        6      0.000     36.000
      7 TC3       1 res   C7        7      0.000     36.000
      8 TC5       1 res   C8        8      0.000     36.000
      9 TN6d      1 res   C9        9      0.000     36.000
     10 TC5       1 res   C10      10      0.000     36.000
     11 TC5       1 res   C11      11      0.000     36.000
     12 TC5       1 res   C12      12      0.000     36.000

[ bonds ]
;  ai    aj   funct      b0(nm)        k
    1     2     1      0.34343    20000
    2     3     1      0.29521    20000
    2     4     1      0.27119    20000
    2     6     1      0.28726    20000
    2     8     1      0.24388    20000
    3     4     1      0.28069    20000
    3     6     1      0.25358    20000
    4     5     1      0.31591    20000
    6     7     1      0.26772    20000
    7     8     1      0.25602    20000
    8     9     1      0.21959    20000
    8    10     1      0.17788    20000
    9    10     1      0.21647    20000
   10    11     1      0.25027    20000
   10    12     1      0.25045    20000
   11    12     1      0.29318    20000
