1TPCN02578
10
    1res  C1    1    0.427  -0.091  -0.127
    1res  C2    2    0.317   0.027   0.083
    1res  C3    3    0.205  -0.256   0.016
    1res  C4    4    0.052  -0.143   0.233
    1res  C5    5   -0.033   0.031   0.042
    1res  C6    6   -0.361  -0.105   0.145
    1res  C7    7   -0.285  -0.082  -0.141
    1res  C8    8   -0.175   0.174  -0.153
    1res  C9    9    0.056   0.394   0.022
    1res  C10   10    0.113  -0.096  -0.251
  10.00000  10.00000  10.00000
