1TPCN03471
16
    1res  C1    1   -0.214   0.524  -0.196
    1res  C2    2   -0.049   0.292  -0.289
    1res  C3    3    0.036   0.125  -0.029
    1res  C4    4    0.001   0.201   0.360
    1res  C5    5    0.271   0.260   0.018
    1res  C6    6    0.360  -0.107   0.040
    1res  C7    7    0.522  -0.248  -0.125
    1res  C8    8    0.780   0.049  -0.072
    1res  C9    9    0.177  -0.220   0.143
    1res  C10   10    0.034  -0.254  -0.063
    1res  C11   11   -0.138  -0.190   0.367
    1res  C12   12   -0.205   0.008  -0.042
    1res  C13   13   -0.411  -0.096  -0.154
    1res  C14   14   -0.592  -0.211   0.087
    1res  C15   15   -0.723  -0.357   0.255
    1res  C16   16   -0.591  -0.510   0.047
  10.00000  10.00000  10.00000
