1TPCN02750
9
    1res  C1    1    0.082  -0.083  -0.180
    1res  C2    2   -0.163  -0.196  -0.155
    1res  C3    3   -0.106   0.075  -0.035
    1res  C4    4   -0.409  -0.033   0.068
    1res  C5    5   -0.148   0.105   0.229
    1res  C6    6    0.255  -0.008  -0.031
    1res  C7    7    0.526  -0.052  -0.035
    1res  C8    8    0.692   0.084  -0.029
    1res  C9    9    0.436   0.217  -0.033
  10.00000  10.00000  10.00000
