1TPCN02327
14
    1res  C1    1   -0.054   0.220   0.322
    1res  C2    2   -0.256   0.113   0.130
    1res  C3    3   -0.147   0.058  -0.107
    1res  C4    4   -0.414   0.208  -0.209
    1res  C5    5   -0.279  -0.192   0.038
    1res  C6    6   -0.005  -0.275   0.277
    1res  C7    7    0.003  -0.002   0.093
    1res  C8    8    0.111  -0.101  -0.096
    1res  C9    9    0.228  -0.299  -0.056
    1res  C10   10    0.367  -0.010   0.018
    1res  C11   11    0.476  -0.106   0.216
    1res  C12   12    0.169   0.160  -0.089
    1res  C13   13    0.285  -0.186  -0.282
    1res  C14   14   -0.017   0.278  -0.295
  10.00000  10.00000  10.00000
