1TPCN00631
10
    1res  C1    1   -0.342   0.159   0.187
    1res  C2    2   -0.250  -0.159   0.031
    1res  C3    3   -0.118  -0.226  -0.235
    1res  C4    4   -0.174   0.030  -0.203
    1res  C5    5   -0.070   0.093  -0.012
    1res  C6    6    0.209   0.023  -0.067
    1res  C7    7    0.504   0.015  -0.104
    1res  C8    8    0.274  -0.122   0.130
    1res  C9    9    0.303   0.070   0.261
    1res  C10   10    0.173   0.220   0.127
  10.00000  10.00000  10.00000
