[ moleculetype ]
; name        nrexcl
res           1

[ atoms ]
;    nr  type resnr resid  atom  cgnr     charge       mass
      1 TN6a      1 res   C1        1      0.000     36.000
      2 TN4a      1 res   C2        2      0.000     36.000
      3 TC3       1 res   C3        3      0.000     36.000
      4 SC2       1 res   C4        4      0.000     54.000
      5 TP1       1 res   C5        5      0.000     36.000
      6 SP1       1 res   C6        6      0.000     54.000

[ bonds ]
;  ai    aj   funct      b0(nm)        k
    1     2     1      0.28912    20000
    1     3     1      0.29865    20000
    2     3     1      0.21325    20000
    3     4     1      0.26936    20000
    3     6     1      0.29421    20000
    4     5     1      0.33336    20000
    4     6     1      0.27900    20000
