[ moleculetype ]
; name        nrexcl
res           1

[ atoms ]
;    nr  type resnr resid  atom  cgnr     charge       mass
      1 TC3       1 res   C1        1      0.000     36.000
      2 TN6d      1 res   C2        2      0.000     36.000
      3 SC4       1 res   C3        3      0.000     54.000
      4 SN3r      1 res   C4        4      0.000     54.000
      5 TN6       1 res   C5        5      0.000     36.000
      6 SN6       1 res   C6        6      0.000     54.000
      7 TC5       1 res   C7        7      0.000     36.000
      8 TC5       1 res   C8        8      0.000     36.000
      9 SC3       1 res   C9        9      0.000     54.000
     10 TC3       1 res   C10      10      0.000     36.000
     11 TN3r      1 res   C11      11      0.000     36.000
     12 SN6       1 res   C12      12      0.000     54.000
     13 SN4a      1 res   C13      13      0.000     54.000
     14 TC5       1 res   C14      14      0.000     36.000
     15 TC5       1 res   C15      15      0.000     36.000
     16 TC5       1 res   C16      16      0.000     36.000
     17 TN3r      1 res   C17      17      0.000     36.000

[ bonds ]
;  ai    aj   funct      b0(nm)        k
    1     2     1      0.26622    20000
    2     3     1      0.29599    20000
    2     7     1      0.28691    20000
    3     4     1      0.33621    20000
    3     5     1      0.37855    20000
    3     7     1      0.26050    20000
    3    12     1      0.35209    20000
    3    17     1      0.28594    20000
    5     6     1      0.28201    20000
    6     7     1      0.30135    20000
    7     8     1      0.22223    20000
    7    12     1      0.23988    20000
    8     9     1      0.21790    20000
    8    12     1      0.28732    20000
    9    10     1      0.30860    20000
    9    13     1      0.36860    20000
   10    11     1      0.30788    20000
   10    12     1      0.30072    20000
   13    14     1      0.24696    20000
   14    15     1      0.25804    20000
   14    16     1      0.30235    20000
   15    16     1      0.29098    20000
