[ moleculetype ]
; name        nrexcl
res           1

[ atoms ]
;    nr  type resnr resid  atom  cgnr     charge       mass
      1 SC4       1 res   C1        1      0.000     54.000
      2 TC3       1 res   C2        2      0.000     36.000
      3 TC5       1 res   C3        3      0.000     36.000
      4 TN3r      1 res   C4        4      0.000     36.000
      5 SN4a      1 res   C5        5      0.000     54.000
      6 TP1       1 res   C6        6      0.000     36.000
      7 SP4       1 res   C7        7      0.000     54.000
      8 TN6       1 res   C8        8      0.000     36.000
      9 TC3       1 res   C9        9      0.000     36.000
     10 TC4       1 res   C10      10      0.000     36.000
     11 TC4       1 res   C11      11      0.000     36.000
     12 TC3       1 res   C12      12      0.000     36.000
     13 SP1       1 res   C13      13      0.000     54.000
     14 SP1       1 res   C14      14      0.000     54.000

[ bonds ]
;  ai    aj   funct      b0(nm)        k
    1     2     1      0.36272    20000
    1     3     1      0.34725    20000
    2     3     1      0.24150    20000
    3     4     1      0.23126    20000
    3     9     1      0.28803    20000
    3    11     1      0.29341    20000
    4     5     1      0.31062    20000
    5     6     1      0.28462    20000
    5     7     1      0.25262    20000
    5     8     1      0.29325    20000
    7     8     1      0.30330    20000
    9    10     1      0.30812    20000
   10    11     1      0.36299    20000
   11    12     1      0.27260    20000
   12    13     1      0.31036    20000
   13    14     1      0.28916    20000
