1TPCN03019
10
    1res  C1    1    0.423   0.014  -0.117
    1res  C2    2    0.216  -0.149  -0.108
    1res  C3    3    0.283  -0.030   0.142
    1res  C4    4    0.163   0.201  -0.029
    1res  C5    5   -0.041   0.039   0.215
    1res  C6    6    0.134  -0.234   0.144
    1res  C7    7   -0.097  -0.205   0.048
    1res  C8    8   -0.268  -0.127  -0.146
    1res  C9    9   -0.377   0.108   0.019
    1res  C10   10   -0.168   0.259   0.016
  10.00000  10.00000  10.00000
