[ moleculetype ]
; name        nrexcl
res           1

[ atoms ]
;    nr  type resnr resid  atom  cgnr     charge       mass
      1 TC4       1 res   C1        1      0.000     36.000
      2 TN6a      1 res   C2        2      0.000     36.000
      3 TN4a      1 res   C3        3      0.000     36.000
      4 P1        1 res   C4        4      0.000     72.000
      5 SC5       1 res   C5        5      0.000     54.000
      6 SN6       1 res   C6        6      0.000     54.000
      7 TC4       1 res   C7        7      0.000     36.000

[ bonds ]
;  ai    aj   funct      b0(nm)        k
    1     2     1      0.26069    20000
    1     7     1      0.26791    20000
    2     3     1      0.26402    20000
    3     4     1      0.33515    20000
    3     7     1      0.25518    20000
    4     5     1      0.35233    20000
    5     6     1      0.24299    20000
    5     7     1      0.31676    20000
