1TPCN00717
13
    1res  C1    1   -0.498   0.146   0.153
    1res  C2    2   -0.334   0.011   0.104
    1res  C3    3   -0.158   0.038   0.151
    1res  C4    4    0.023   0.146   0.019
    1res  C5    5    0.249  -0.013   0.147
    1res  C6    6    0.084  -0.033   0.306
    1res  C7    7    0.060  -0.191   0.045
    1res  C8    8    0.320   0.093  -0.096
    1res  C9    9    0.436  -0.199  -0.113
    1res  C10   10    0.210   0.347  -0.033
    1res  C11   11   -0.257  -0.061  -0.040
    1res  C12   12   -0.181  -0.158  -0.258
    1res  C13   13   -0.459  -0.129  -0.173
  10.00000  10.00000  10.00000
