1TPCN03084
18
    1res  C1    1   -0.127  -0.013  -0.220
    1res  C2    2   -0.282   0.047   0.014
    1res  C3    3   -0.315  -0.168   0.106
    1res  C4    4   -0.360  -0.371  -0.027
    1res  C5    5   -0.475  -0.602  -0.042
    1res  C6    6   -0.519  -0.466   0.211
    1res  C7    7   -0.378   0.352   0.041
    1res  C8    8    0.013   0.533   0.082
    1res  C9    9    0.032   0.247   0.143
    1res  C10   10    0.348   0.215   0.128
    1res  C11   11    0.227   0.115  -0.128
    1res  C12   12    0.445  -0.019  -0.120
    1res  C13   13    0.445  -0.250  -0.034
    1res  C14   14    0.559  -0.482  -0.030
    1res  C15   15    0.696  -0.288  -0.199
    1res  C16   16    0.054   0.267  -0.134
    1res  C17   17    0.073  -0.060  -0.036
    1res  C18   18    0.100  -0.366  -0.087
  10.00000  10.00000  10.00000
