1TPCN00575
13
    1res  C1    1    0.551   0.080  -0.085
    1res  C2    2    0.267   0.045   0.007
    1res  C3    3    0.069   0.088   0.075
    1res  C4    4   -0.024  -0.074   0.204
    1res  C5    5   -0.048  -0.017  -0.053
    1res  C6    6   -0.207  -0.244  -0.040
    1res  C7    7   -0.291  -0.078  -0.040
    1res  C8    8   -0.428  -0.061  -0.088
    1res  C9    9   -0.469   0.077  -0.073
    1res  C10   10   -0.251   0.335   0.067
    1res  C11   11   -0.625   0.211  -0.102
    1res  C12   12    0.026  -0.365   0.100
    1res  C13   13    0.148  -0.190  -0.061
  10.00000  10.00000  10.00000
