1TPCN03932
14
    1res  C1    1   -0.178   0.238  -0.049
    1res  C2    2   -0.469   0.175   0.016
    1res  C3    3   -0.432   0.433  -0.090
    1res  C4    4   -0.546  -0.031   0.035
    1res  C5    5   -0.350  -0.066  -0.115
    1res  C6    6   -0.276  -0.256   0.083
    1res  C7    7   -0.090  -0.266  -0.109
    1res  C8    8    0.072  -0.029  -0.199
    1res  C9    9    0.125  -0.301   0.054
    1res  C10   10    0.367  -0.134   0.102
    1res  C11   11    0.444  -0.003  -0.170
    1res  C12   12    0.552   0.161  -0.007
    1res  C13   13    0.303   0.263   0.080
    1res  C14   14    0.093  -0.020   0.189
  10.00000  10.00000  10.00000
