1TPCN03495
11
    1res  C1    1    0.243   0.371  -0.180
    1res  C2    2    0.287   0.065  -0.038
    1res  C3    3    0.266  -0.141   0.130
    1res  C4    4   -0.014  -0.047   0.204
    1res  C5    5   -0.062  -0.325   0.074
    1res  C6    6   -0.183  -0.159  -0.090
    1res  C7    7   -0.410  -0.029   0.062
    1res  C8    8   -0.195   0.224   0.085
    1res  C9    9    0.028  -0.040  -0.049
    1res  C10   10    0.221  -0.249  -0.107
    1res  C11   11    0.453  -0.272  -0.093
  10.00000  10.00000  10.00000
