1TPCN02589
18
    1res  C1    1   -0.485   0.255   0.185
    1res  C2    2   -0.328   0.049  -0.005
    1res  C3    3   -0.194   0.219  -0.198
    1res  C4    4   -0.194   0.206  -0.496
    1res  C5    5   -0.374  -0.020  -0.251
    1res  C6    6   -0.170  -0.102  -0.135
    1res  C7    7   -0.616   0.107  -0.175
    1res  C8    8    0.008  -0.279   0.187
    1res  C9    9   -0.149  -0.430  -0.046
    1res  C10   10    0.076  -0.053   0.066
    1res  C11   11    0.354  -0.001   0.119
    1res  C12   12    0.414  -0.136  -0.169
    1res  C13   13    0.526  -0.216  -0.387
    1res  C14   14    0.706  -0.093  -0.250
    1res  C15   15    0.857   0.117  -0.046
    1res  C16   16    0.031   0.001   0.333
    1res  C17   17   -0.148   0.030   0.509
    1res  C18   18   -0.097   0.112   0.114
  10.00000  10.00000  10.00000
