1TPCN01920
15
    1res  C1    1   -0.125  -0.410   0.338
    1res  C2    2   -0.114  -0.078   0.139
    1res  C3    3   -0.334   0.097   0.068
    1res  C4    4   -0.565   0.180   0.013
    1res  C5    5   -0.713   0.299  -0.161
    1res  C6    6   -0.436   0.269  -0.245
    1res  C7    7    0.032   0.147   0.075
    1res  C8    8    0.090  -0.039  -0.153
    1res  C9    9    0.321  -0.157  -0.057
    1res  C10   10    0.395   0.131   0.045
    1res  C11   11    0.539   0.336   0.066
    1res  C12   12    0.590   0.572  -0.027
    1res  C13   13    0.373   0.436  -0.165
    1res  C14   14    0.211  -0.331   0.118
    1res  C15   15   -0.230  -0.231  -0.102
  10.00000  10.00000  10.00000
