1TPCN03699
27
    1res  C1    1    0.759  -0.305  -0.286
    1res  C2    2    0.446  -0.313  -0.114
    1res  C3    3    0.409  -0.156   0.120
    1res  C4    4    0.557   0.035   0.024
    1res  C5    5    0.843   0.084   0.056
    1res  C6    6    1.091   0.260   0.002
    1res  C7    7    1.168   0.476   0.103
    1res  C8    8    0.907   0.419   0.214
    1res  C9    9    0.639   0.175  -0.224
    1res  C10   10    0.384   0.245  -0.097
    1res  C11   11    0.184  -0.024  -0.044
    1res  C12   12   -0.028  -0.071  -0.005
    1res  C13   13    0.032  -0.349   0.212
    1res  C14   14   -0.157  -0.313  -0.058
    1res  C15   15   -0.359  -0.464   0.028
    1res  C16   16   -0.416  -0.464   0.312
    1res  C17   17   -0.651  -0.519   0.153
    1res  C18   18   -0.668  -0.251   0.135
    1res  C19   19   -0.370  -0.124  -0.047
    1res  C20   20   -0.493   0.136  -0.100
    1res  C21   21   -0.370   0.153  -0.400
    1res  C22   22   -0.731   0.102  -0.244
    1res  C23   23   -0.684   0.137   0.016
    1res  C24   24   -0.781   0.272   0.137
    1res  C25   25   -0.960   0.481  -0.031
    1res  C26   26   -0.806   0.591   0.231
    1res  C27   27   -0.582   0.432   0.197
  10.00000  10.00000  10.00000
