[ moleculetype ]
; name        nrexcl
res           1

[ atoms ]
;    nr  type resnr resid  atom  cgnr     charge       mass
      1 TN3r      1 res   C1        1      0.000     36.000
      2 TN4a      1 res   C2        2      0.000     36.000
      3 TN6a      1 res   C3        3      0.000     36.000
      4 TC3       1 res   C4        4      0.000     36.000
      5 TC3       1 res   C5        5      0.000     36.000
      6 TN4a      1 res   C6        6      0.000     36.000
      7 TC4       1 res   C7        7      0.000     36.000
      8 TC3       1 res   C8        8      0.000     36.000
      9 SN4a      1 res   C9        9      0.000     54.000
     10 SC4       1 res   C10      10      0.000     54.000
     11 SC4       1 res   C11      11      0.000     54.000
     12 SC3       1 res   C12      12      0.000     54.000

[ bonds ]
;  ai    aj   funct      b0(nm)        k
    1     2     1      0.23902    20000
    2     3     1      0.26374    20000
    2     4     1      0.25006    20000
    3     4     1      0.21959    20000
    4     5     1      0.28385    20000
    4     6     1      0.25257    20000
    5     6     1      0.23190    20000
    6     7     1      0.24692    20000
    6    10     1      0.25395    20000
    7     8     1      0.28408    20000
    8     9     1      0.33869    20000
    8    10     1      0.35535    20000
   10    11     1      0.38107    20000
   10    12     1      0.26943    20000
   11    12     1      0.31453    20000
