1TPCN01295
7
    1res  C1    1    0.455  -0.012   0.091
    1res  C2    2    0.208  -0.073  -0.098
    1res  C3    3    0.033   0.090  -0.197
    1res  C4    4   -0.144  -0.038   0.029
    1res  C5    5   -0.298  -0.092   0.206
    1res  C6    6   -0.511   0.051   0.064
    1res  C7    7   -0.247   0.132  -0.162
  10.00000  10.00000  10.00000
