1TPCN01054
11
    1res  C1    1    0.116   0.168  -0.090
    1res  C2    2   -0.093   0.286  -0.084
    1res  C3    3   -0.097   0.100   0.124
    1res  C4    4    0.317   0.034   0.117
    1res  C5    5    0.626   0.162   0.049
    1res  C6    6    0.299  -0.194   0.095
    1res  C7    7    0.033  -0.193  -0.018
    1res  C8    8    0.219  -0.223  -0.175
    1res  C9    9   -0.236  -0.265   0.087
    1res  C10   10   -0.291   0.031  -0.021
    1res  C11   11   -0.603   0.141  -0.016
  10.00000  10.00000  10.00000
