1TPCN03856
20
    1res  C1    1    0.365  -0.413  -0.160
    1res  C2    2    0.519  -0.277   0.045
    1res  C3    3    0.313  -0.145  -0.100
    1res  C4    4    0.580   0.077  -0.018
    1res  C5    5    0.789   0.295   0.015
    1res  C6    6    1.052   0.277   0.076
    1res  C7    7    0.920   0.005   0.074
    1res  C8    8    0.312  -0.039   0.200
    1res  C9    9    0.230   0.176   0.053
    1res  C10   10    0.091   0.112  -0.232
    1res  C11   11   -0.039   0.134   0.039
    1res  C12   12   -0.199  -0.113  -0.187
    1res  C13   13   -0.343   0.127  -0.178
    1res  C14   14   -0.472  -0.145  -0.095
    1res  C15   15   -0.752   0.109   0.072
    1res  C16   16   -0.882   0.389   0.069
    1res  C17   17   -1.029   0.047   0.089
    1res  C18   18   -0.871  -0.122  -0.066
    1res  C19   19   -0.486  -0.210   0.165
    1res  C20   20   -0.153  -0.046   0.187
  10.00000  10.00000  10.00000
