1TPCN02257
11
    1res  C1    1    0.555  -0.118  -0.044
    1res  C2    2    0.259   0.161   0.069
    1res  C3    3    0.139  -0.043  -0.061
    1res  C4    4   -0.078   0.033  -0.122
    1res  C5    5   -0.236  -0.159   0.084
    1res  C6    6   -0.322  -0.258  -0.151
    1res  C7    7   -0.515  -0.198   0.081
    1res  C8    8   -0.665   0.031  -0.159
    1res  C9    9   -0.562   0.104   0.092
    1res  C10   10   -0.175   0.068   0.168
    1res  C11   11    0.722   0.120   0.081
  10.00000  10.00000  10.00000
