[ moleculetype ]
; name        nrexcl
res           1

[ atoms ]
;    nr  type resnr resid  atom  cgnr     charge       mass
      1 SN3r      1 res   C1        1      0.000     54.000
      2 TC5       1 res   C2        2      0.000     36.000
      3 SC4       1 res   C3        3      0.000     54.000
      4 TC5       1 res   C4        4      0.000     36.000
      5 TC3       1 res   C5        5      0.000     36.000
      6 TN3r      1 res   C6        6      0.000     36.000
      7 TC3       1 res   C7        7      0.000     36.000
      8 TN3r      1 res   C8        8      0.000     36.000
      9 TN6       1 res   C9        9      0.000     36.000
     10 TN6       1 res   C10      10      0.000     36.000
     11 SN6       1 res   C11      11      0.000     54.000
     12 SN6       1 res   C12      12      0.000     54.000
     13 TN3r      1 res   C13      13      0.000     36.000
     14 SC5       1 res   C14      14      0.000     54.000
     15 SN4a      1 res   C15      15      0.000     54.000
     16 TC5       1 res   C16      16      0.000     36.000
     17 TC5       1 res   C17      17      0.000     36.000
     18 TC5       1 res   C18      18      0.000     36.000
     19 SN4a      1 res   C19      19      0.000     54.000
     20 TC5       1 res   C20      20      0.000     36.000
     21 TC5       1 res   C21      21      0.000     36.000
     22 TC5       1 res   C22      22      0.000     36.000

[ bonds ]
;  ai    aj   funct      b0(nm)        k
    1     2     1      0.33460    20000
    2     3     1      0.36054    20000
    2     4     1      0.27281    20000
    2     5     1      0.26745    20000
    2     9     1      0.28968    20000
    3     4     1      0.27667    20000
    4     5     1      0.23635    20000
    4     7     1      0.28475    20000
    4    10     1      0.30471    20000
    5     6     1      0.25767    20000
    5    14     1      0.39456    20000
    7     8     1      0.26878    20000
    7     9     1      0.23376    20000
   10    11     1      0.26205    20000
   10    14     1      0.29165    20000
   11    12     1      0.37073    20000
   11    14     1      0.27323    20000
   12    13     1      0.25854    20000
   12    14     1      0.31833    20000
   14    15     1      0.35352    20000
   14    19     1      0.29085    20000
   15    16     1      0.25015    20000
   16    17     1      0.25751    20000
   16    18     1      0.30228    20000
   17    18     1      0.29119    20000
   19    20     1      0.24999    20000
   20    21     1      0.25744    20000
   20    22     1      0.30059    20000
   21    22     1      0.29047    20000
