[ moleculetype ]
; name        nrexcl
res           1

[ atoms ]
;    nr  type resnr resid  atom  cgnr     charge       mass
      1 TC4       1 res   C1        1      0.000     36.000
      2 TC3       1 res   C2        2      0.000     36.000
      3 TC5       1 res   C3        3      0.000     36.000
      4 SP2       1 res   C4        4      0.000     54.000
      5 TC3       1 res   C5        5      0.000     36.000
      6 SC4       1 res   C6        6      0.000     54.000
      7 TC3       1 res   C7        7      0.000     36.000
      8 SC4       1 res   C8        8      0.000     54.000
      9 SC4       1 res   C9        9      0.000     54.000
     10 TC3       1 res   C10      10      0.000     36.000
     11 SN6       1 res   C11      11      0.000     54.000
     12 SP2       1 res   C12      12      0.000     54.000
     13 TC3       1 res   C13      13      0.000     36.000
     14 SN6       1 res   C14      14      0.000     54.000

[ bonds ]
;  ai    aj   funct      b0(nm)        k
    1     2     1      0.31316    20000
    1    14     1      0.26572    20000
    2     3     1      0.24199    20000
    3     4     1      0.32491    20000
    3     5     1      0.26009    20000
    3     6     1      0.27969    20000
    3    14     1      0.27772    20000
    5     6     1      0.31264    20000
    6     7     1      0.39537    20000
    6     8     1      0.31053    20000
    7     8     1      0.37877    20000
    8     9     1      0.25603    20000
    8    13     1      0.30434    20000
    9    10     1      0.30824    20000
    9    11     1      0.32089    20000
    9    13     1      0.36402    20000
   10    11     1      0.32605    20000
   11    12     1      0.30124    20000
