1TPCN00430
11
    1res  C1    1    0.259  -0.209   0.069
    1res  C2    2    0.501  -0.031   0.019
    1res  C3    3    0.273   0.063  -0.112
    1res  C4    4    0.273   0.269   0.100
    1res  C5    5    0.085   0.098   0.013
    1res  C6    6   -0.085  -0.002   0.051
    1res  C7    7   -0.253   0.085  -0.082
    1res  C8    8   -0.374   0.063  -0.288
    1res  C9    9   -0.427   0.048   0.053
    1res  C10   10   -0.396  -0.200   0.082
    1res  C11   11   -0.203  -0.132   0.170
  10.00000  10.00000  10.00000
