[ moleculetype ]
; name        nrexcl
res           1

[ atoms ]
;    nr  type resnr resid  atom  cgnr     charge       mass
      1 SC4       1 res   C1        1      0.000     54.000
      2 TN6a      1 res   C2        2      0.000     36.000
      3 TC3       1 res   C3        3      0.000     36.000
      4 SC4       1 res   C4        4      0.000     54.000
      5 TC5       1 res   C5        5      0.000     36.000
      6 TC3       1 res   C6        6      0.000     36.000
      7 TC3       1 res   C7        7      0.000     36.000
      8 TC3       1 res   C8        8      0.000     36.000
      9 SN6       1 res   C9        9      0.000     54.000
     10 TP1       1 res   C10      10      0.000     36.000

[ bonds ]
;  ai    aj   funct      b0(nm)        k
    1     2     1      0.23879    20000
    1     4     1      0.40280    20000
    2     3     1      0.25645    20000
    3     4     1      0.27376    20000
    4     5     1      0.25795    20000
    4     8     1      0.30961    20000
    5     6     1      0.24429    20000
    5     7     1      0.27619    20000
    5     8     1      0.29024    20000
    5     9     1      0.23808    20000
    6     7     1      0.27183    20000
    7     9     1      0.27525    20000
    9    10     1      0.24330    20000
