[ moleculetype ]
; name        nrexcl
res           1

[ atoms ]
;    nr  type resnr resid  atom  cgnr     charge       mass
      1 SC4       1 res   C1        1      0.000     54.000
      2 TN6a      1 res   C2        2      0.000     36.000
      3 SN6       1 res   C3        3      0.000     54.000
      4 SN6       1 res   C4        4      0.000     54.000
      5 SC4       1 res   C5        5      0.000     54.000
      6 SC4       1 res   C6        6      0.000     54.000
      7 SC3       1 res   C7        7      0.000     54.000
      8 TC3       1 res   C8        8      0.000     36.000

[ bonds ]
;  ai    aj   funct      b0(nm)        k
    1     2     1      0.25538    20000
    1     3     1      0.30513    20000
    1     8     1      0.37939    20000
    2     3     1      0.27730    20000
    3     4     1      0.27394    20000
    3     5     1      0.34567    20000
    3     8     1      0.24575    20000
    4     5     1      0.29712    20000
    5     6     1      0.33295    20000
    5     7     1      0.27837    20000
    6     7     1      0.32770    20000
