1TPCN00803
17
    1res  C1    1   -0.749   0.237   0.159
    1res  C2    2   -0.542   0.085   0.083
    1res  C3    3   -0.721  -0.008  -0.057
    1res  C4    4   -0.580   0.196  -0.211
    1res  C5    5   -0.301   0.166  -0.117
    1res  C6    6   -0.033   0.123  -0.102
    1res  C7    7   -0.082  -0.048   0.068
    1res  C8    8   -0.157  -0.148   0.247
    1res  C9    9    0.023  -0.176   0.127
    1res  C10   10    0.113  -0.359   0.271
    1res  C11   11    0.248  -0.242   0.029
    1res  C12   12    0.482  -0.096  -0.163
    1res  C13   13    0.601   0.055  -0.322
    1res  C14   14    0.739  -0.047  -0.044
    1res  C15   15    0.570   0.104   0.059
    1res  C16   16    0.400  -0.031   0.128
    1res  C17   17   -0.332   0.008   0.130
  10.00000  10.00000  10.00000
