1TPCN01563
7
    1res  C1    1    0.330   0.059  -0.078
    1res  C2    2    0.008  -0.035  -0.039
    1res  C3    3   -0.190   0.214   0.050
    1res  C4    4   -0.175  -0.055  -0.083
    1res  C5    5   -0.173  -0.296  -0.067
    1res  C6    6    0.103  -0.229  -0.115
    1res  C7    7    0.156  -0.094   0.153
  10.00000  10.00000  10.00000
