[ moleculetype ]
; name        nrexcl
res           1

[ atoms ]
;    nr  type resnr resid  atom  cgnr     charge       mass
      1 SC4       1 res   C1        1      0.000     54.000
      2 TN6a      1 res   C2        2      0.000     36.000
      3 TN4a      1 res   C3        3      0.000     36.000
      4 SC4       1 res   C4        4      0.000     54.000
      5 N3r       1 res   C5        5      0.000     72.000
      6 N6a       1 res   C6        6      0.000     72.000
      7 TC3       1 res   C7        7      0.000     36.000
      8 C1        1 res   C8        8      0.000     72.000

[ bonds ]
;  ai    aj   funct      b0(nm)        k
    1     2     1      0.26067    20000
    1     3     1      0.29866    20000
    1     8     1      0.29891    20000
    2     3     1      0.26467    20000
    3     4     1      0.35468    20000
    4     5     1      0.33218    20000
    5     6     1      0.44932    20000
    5     8     1      0.32575    20000
    6     7     1      0.28276    20000
