1TPCN03840
18
    1res  C1    1    0.046   0.169  -0.419
    1res  C2    2    0.163  -0.010  -0.185
    1res  C3    3   -0.077  -0.153  -0.273
    1res  C4    4   -0.202   0.152  -0.186
    1res  C5    5   -0.344  -0.137  -0.147
    1res  C6    6   -0.219   0.052   0.165
    1res  C7    7   -0.454   0.272   0.087
    1res  C8    8   -0.570   0.051   0.330
    1res  C9    9   -0.675  -0.086   0.076
    1res  C10   10   -0.304  -0.231   0.104
    1res  C11   11    0.099  -0.227  -0.079
    1res  C12   12    0.252   0.039   0.028
    1res  C13   13    0.508   0.080   0.139
    1res  C14   14    0.781   0.086   0.044
    1res  C15   15    0.607  -0.008   0.387
    1res  C16   16    0.369  -0.031   0.292
    1res  C17   17    0.401  -0.005  -0.248
    1res  C18   18    0.306   0.066  -0.495
  10.00000  10.00000  10.00000
