1TPCN01330
12
    1res  C1    1   -0.131   0.086   0.286
    1res  C2    2   -0.264  -0.009   0.035
    1res  C3    3   -0.242  -0.203   0.184
    1res  C4    4   -0.289  -0.322  -0.080
    1res  C5    5   -0.398  -0.124  -0.192
    1res  C6    6   -0.125   0.069  -0.173
    1res  C7    7   -0.223   0.226  -0.075
    1res  C8    8    0.025   0.305  -0.182
    1res  C9    9    0.011  -0.039   0.046
    1res  C10   10    0.237   0.016   0.048
    1res  C11   11    0.427  -0.084  -0.129
    1res  C12   12    0.536  -0.060   0.130
  10.00000  10.00000  10.00000
