1TPCN02352
8
    1res  C1    1    0.042  -0.216   0.201
    1res  C2    2   -0.276  -0.112   0.119
    1res  C3    3   -0.098  -0.121  -0.101
    1res  C4    4   -0.377  -0.052  -0.160
    1res  C5    5   -0.421   0.188  -0.010
    1res  C6    6   -0.112   0.118  -0.240
    1res  C7    7    0.262   0.021   0.002
    1res  C8    8    0.393   0.116   0.274
  10.00000  10.00000  10.00000
