[ moleculetype ]
; name        nrexcl
res           1

[ atoms ]
;    nr  type resnr resid  atom  cgnr     charge       mass
      1 TC5       1 res   C1        1      0.000     36.000
      2 SC4       1 res   C2        2      0.000     54.000
      3 TC3       1 res   C3        3      0.000     36.000
      4 SN4a      1 res   C4        4      0.000     54.000
      5 P1        1 res   C5        5      0.000     72.000
      6 TC5       1 res   C6        6      0.000     36.000
      7 SN6       1 res   C7        7      0.000     54.000
      8 SN1       1 res   C8        8      0.000     54.000
      9 SP2       1 res   C9        9      0.000     54.000
     10 TN2a      1 res   C10      10      0.000     36.000
     11 TC5       1 res   C11      11      0.000     36.000
     12 TP1d      1 res   C12      12      0.000     36.000

[ bonds ]
;  ai    aj   funct      b0(nm)        k
    1     2     1      0.29458    20000
    2     3     1      0.26212    20000
    2     6     1      0.29225    20000
    2    11     1      0.32712    20000
    3     4     1      0.23470    20000
    3     6     1      0.25933    20000
    4     5     1      0.25094    20000
    6     7     1      0.25623    20000
    6    10     1      0.19766    20000
    7     8     1      0.36814    20000
    7    10     1      0.20821    20000
    8     9     1      0.34290    20000
   11    12     1      0.30037    20000
