1TPCN01927
7
    1res  C1    1    0.304   0.123   0.087
    1res  C2    2    0.160  -0.167  -0.125
    1res  C3    3   -0.035  -0.178   0.069
    1res  C4    4   -0.143  -0.118  -0.175
    1res  C5    5   -0.312  -0.058   0.008
    1res  C6    6   -0.188   0.225   0.048
    1res  C7    7   -0.008   0.162  -0.111
  10.00000  10.00000  10.00000
