[ moleculetype ]
; name        nrexcl
res           1

[ atoms ]
;    nr  type resnr resid  atom  cgnr     charge       mass
      1 SC4       1 res   C1        1      0.000     54.000
      2 SN4a      1 res   C2        2      0.000     54.000
      3 SN4a      1 res   C3        3      0.000     54.000
      4 TP1       1 res   C4        4      0.000     36.000
      5 SP4       1 res   C5        5      0.000     54.000
      6 TN6       1 res   C6        6      0.000     36.000
      7 TC3       1 res   C7        7      0.000     36.000
      8 SC4       1 res   C8        8      0.000     54.000
      9 TC3       1 res   C9        9      0.000     36.000
     10 SC4       1 res   C10      10      0.000     54.000
     11 SN6a      1 res   C11      11      0.000     54.000
     12 SC4       1 res   C12      12      0.000     54.000
     13 SC4       1 res   C13      13      0.000     54.000
     14 TC3       1 res   C14      14      0.000     36.000
     15 TN6       1 res   C15      15      0.000     36.000
     16 SN4a      1 res   C16      16      0.000     54.000
     17 SP2       1 res   C17      17      0.000     54.000
     18 SP4       1 res   C18      18      0.000     54.000
     19 TN6       1 res   C19      19      0.000     36.000
     20 SN4a      1 res   C20      20      0.000     54.000
     21 SP2       1 res   C21      21      0.000     54.000
     22 SP4       1 res   C22      22      0.000     54.000
     23 TN6       1 res   C23      23      0.000     36.000
     24 SC4       1 res   C24      24      0.000     54.000
     25 TC3       1 res   C25      25      0.000     36.000

[ bonds ]
;  ai    aj   funct      b0(nm)        k
    1     2     1      0.24952    20000
    1     7     1      0.29470    20000
    1     8     1      0.31968    20000
    2     3     1      0.33958    20000
    3     4     1      0.25623    20000
    3     5     1      0.26599    20000
    3     6     1      0.30432    20000
    5     6     1      0.27797    20000
    7     8     1      0.27286    20000
    8     9     1      0.28223    20000
    8    10     1      0.30421    20000
    9    10     1      0.30585    20000
   10    11     1      0.38286    20000
   10    12     1      0.31032    20000
   11    12     1      0.38600    20000
   12    13     1      0.25314    20000
   12    25     1      0.30156    20000
   13    14     1      0.30683    20000
   13    24     1      0.35945    20000
   13    25     1      0.36338    20000
   14    15     1      0.24344    20000
   15    16     1      0.30284    20000
   15    24     1      0.24250    20000
   16    17     1      0.24980    20000
   16    18     1      0.28929    20000
   16    19     1      0.26648    20000
   18    19     1      0.26460    20000
   19    20     1      0.27924    20000
   20    21     1      0.30710    20000
   20    22     1      0.29232    20000
   20    23     1      0.27059    20000
   22    23     1      0.30913    20000
