[ moleculetype ]
; name        nrexcl
res           1

[ atoms ]
;    nr  type resnr resid  atom  cgnr     charge       mass
      1 SN4a      1 res   C1        1      0.000     54.000
      2 SC3       1 res   C2        2      0.000     54.000
      3 TC5       1 res   C3        3      0.000     36.000
      4 TC3       1 res   C4        4      0.000     36.000
      5 SC4       1 res   C5        5      0.000     54.000
      6 TC4       1 res   C6        6      0.000     36.000
      7 SC3       1 res   C7        7      0.000     54.000
      8 SC4       1 res   C8        8      0.000     54.000
      9 TN6       1 res   C9        9      0.000     36.000
     10 P4        1 res   C10      10      0.000     72.000
     11 SN6       1 res   C11      11      0.000     54.000

[ bonds ]
;  ai    aj   funct      b0(nm)        k
    1     2     1      0.35128    20000
    2     3     1      0.26482    20000
    2     9     1      0.27687    20000
    2    10     1      0.33415    20000
    3     4     1      0.29823    20000
    3     5     1      0.19957    20000
    3     9     1      0.25971    20000
    3    11     1      0.26490    20000
    4     5     1      0.21094    20000
    5     6     1      0.35135    20000
    5     7     1      0.26882    20000
    5     8     1      0.30347    20000
    6     7     1      0.36333    20000
    6     8     1      0.38890    20000
   10    11     1      0.28807    20000
