1TPCN01776
12
    1res  C1    1    0.658  -0.325  -0.036
    1res  C2    2    0.461   0.110  -0.046
    1res  C3    3    0.222   0.218   0.135
    1res  C4    4    0.038   0.242  -0.039
    1res  C5    5   -0.143   0.053   0.048
    1res  C6    6   -0.350   0.169   0.130
    1res  C7    7   -0.361   0.051  -0.109
    1res  C8    8   -0.611  -0.095   0.069
    1res  C9    9   -0.485  -0.319   0.026
    1res  C10   10   -0.333  -0.227  -0.168
    1res  C11   11    0.040  -0.103  -0.047
    1res  C12   12    0.627  -0.239   0.262
  10.00000  10.00000  10.00000
