1TPCN03354
9
    1res  C1    1    0.374   0.085  -0.069
    1res  C2    2    0.537  -0.086  -0.128
    1res  C3    3    0.268  -0.150   0.079
    1res  C4    4    0.117  -0.007  -0.049
    1res  C5    5   -0.018   0.162  -0.157
    1res  C6    6   -0.048   0.033   0.159
    1res  C7    7   -0.351  -0.010   0.060
    1res  C8    8   -0.394   0.206  -0.057
    1res  C9    9   -0.174  -0.237  -0.024
  10.00000  10.00000  10.00000
