1TPCN02394
13
    1res  C1    1    0.292   0.100  -0.313
    1res  C2    2    0.373  -0.062  -0.032
    1res  C3    3    0.139   0.110  -0.088
    1res  C4    4    0.007   0.135   0.114
    1res  C5    5   -0.107  -0.016  -0.046
    1res  C6    6   -0.355   0.103   0.063
    1res  C7    7   -0.260  -0.202  -0.104
    1res  C8    8    0.020  -0.158   0.157
    1res  C9    9   -0.200  -0.084   0.219
    1res  C10   10   -0.232  -0.245   0.370
    1res  C11   11   -0.359  -0.117   0.268
    1res  C12   12    0.118  -0.139  -0.175
    1res  C13   13    0.242   0.447  -0.031
  10.00000  10.00000  10.00000
