[ moleculetype ]
; name        nrexcl
res           1

[ atoms ]
;    nr  type resnr resid  atom  cgnr     charge       mass
      1 N4a       1 res   C1        1      0.000     72.000
      2 TC3       1 res   C2        2      0.000     36.000
      3 TC5       1 res   C3        3      0.000     36.000
      4 TN6d      1 res   C4        4      0.000     36.000
      5 TC5       1 res   C5        5      0.000     36.000
      6 TC5       1 res   C6        6      0.000     36.000
      7 TC5       1 res   C7        7      0.000     36.000
      8 TC3       1 res   C8        8      0.000     36.000
      9 TN1       1 res   C9        9      0.000     36.000
     10 TC3       1 res   C10      10      0.000     36.000
     11 SP1       1 res   C11      11      0.000     54.000
     12 TC5       1 res   C12      12      0.000     36.000

[ bonds ]
;  ai    aj   funct      b0(nm)        k
    1     2     1      0.39778    20000
    2     3     1      0.27166    20000
    2    12     1      0.21798    20000
    3     4     1      0.22862    20000
    3     5     1      0.18666    20000
    3     8     1      0.27534    20000
    3    12     1      0.21606    20000
    4     5     1      0.22339    20000
    5     6     1      0.25061    20000
    5     7     1      0.25082    20000
    6     7     1      0.29278    20000
    8     9     1      0.29961    20000
    9    10     1      0.25695    20000
    9    12     1      0.26669    20000
   10    11     1      0.26425    20000
   10    12     1      0.22253    20000
