1TPCN00942
7
    1res  C1    1   -0.279  -0.071   0.013
    1res  C2    2   -0.112   0.213  -0.017
    1res  C3    3    0.049   0.009   0.080
    1res  C4    4    0.034  -0.252  -0.012
    1res  C5    5    0.194   0.004  -0.147
    1res  C6    6    0.396  -0.208  -0.043
    1res  C7    7    0.359   0.079  -0.026
  10.00000  10.00000  10.00000
