1TPCN02889
8
    1res  C1    1    0.435  -0.117  -0.055
    1res  C2    2    0.129   0.024  -0.060
    1res  C3    3    0.294  -0.004   0.186
    1res  C4    4   -0.123   0.095  -0.085
    1res  C5    5    0.001   0.296  -0.061
    1res  C6    6   -0.238   0.108   0.137
    1res  C7    7   -0.256  -0.147  -0.059
    1res  C8    8    0.007  -0.005  -0.271
  10.00000  10.00000  10.00000
