[ moleculetype ]
; name        nrexcl
res           1

[ atoms ]
;    nr  type resnr resid  atom  cgnr     charge       mass
      1 SN6       1 res   C1        1      0.000     54.000
      2 TC3       1 res   C2        2      0.000     36.000
      3 SP1       1 res   C3        3      0.000     54.000
      4 TN6       1 res   C4        4      0.000     36.000
      5 TC3       1 res   C5        5      0.000     36.000
      6 TN6       1 res   C6        6      0.000     36.000
      7 SC4       1 res   C7        7      0.000     54.000
      8 SP1       1 res   C8        8      0.000     54.000
      9 SC3       1 res   C9        9      0.000     54.000
     10 SN6       1 res   C10      10      0.000     54.000

[ bonds ]
;  ai    aj   funct      b0(nm)        k
    1     2     1      0.27077    20000
    1    10     1      0.29339    20000
    2     3     1      0.33050    20000
    2     9     1      0.31451    20000
    2    10     1      0.26742    20000
    3     4     1      0.27840    20000
    4     5     1      0.29927    20000
    4     7     1      0.28129    20000
    5     6     1      0.23262    20000
    5     8     1      0.23589    20000
    6     7     1      0.26177    20000
    8     9     1      0.34068    20000
    9    10     1      0.29977    20000
