1TPCN01513
8
    1res  C1    1   -0.059  -0.228   0.015
    1res  C2    2    0.144   0.040  -0.106
    1res  C3    3    0.101   0.042   0.154
    1res  C4    4    0.248   0.233   0.025
    1res  C5    5    0.383   0.025  -0.151
    1res  C6    6   -0.150   0.007   0.176
    1res  C7    7   -0.105   0.280   0.027
    1res  C8    8   -0.303   0.036  -0.033
  10.00000  10.00000  10.00000
