[ moleculetype ]
; name        nrexcl
res           1

[ atoms ]
;    nr  type resnr resid  atom  cgnr     charge       mass
      1 SC4       1 res   C1        1      0.000     54.000
      2 TC3       1 res   C2        2      0.000     36.000
      3 SC5       1 res   C3        3      0.000     54.000
      4 SN4a      1 res   C4        4      0.000     54.000
      5 SN4a      1 res   C5        5      0.000     54.000
      6 TP1       1 res   C6        6      0.000     36.000
      7 SP4       1 res   C7        7      0.000     54.000
      8 TN6       1 res   C8        8      0.000     36.000
      9 SN6       1 res   C9        9      0.000     54.000
     10 SC4       1 res   C10      10      0.000     54.000
     11 TC3       1 res   C11      11      0.000     36.000
     12 SC4       1 res   C12      12      0.000     54.000
     13 SC4       1 res   C13      13      0.000     54.000
     14 TC3       1 res   C14      14      0.000     36.000
     15 TN6       1 res   C15      15      0.000     36.000
     16 SN4a      1 res   C16      16      0.000     54.000
     17 TP1       1 res   C17      17      0.000     36.000
     18 SP4       1 res   C18      18      0.000     54.000
     19 SN4a      1 res   C19      19      0.000     54.000
     20 TP1       1 res   C20      20      0.000     36.000
     21 SP4       1 res   C21      21      0.000     54.000
     22 SN4a      1 res   C22      22      0.000     54.000
     23 TP1       1 res   C23      23      0.000     36.000
     24 SP4       1 res   C24      24      0.000     54.000
     25 TN6       1 res   C25      25      0.000     36.000
     26 SN4a      1 res   C26      26      0.000     54.000
     27 TP1       1 res   C27      27      0.000     36.000
     28 SP4       1 res   C28      28      0.000     54.000
     29 TN6       1 res   C29      29      0.000     36.000
     30 TN6       1 res   C30      30      0.000     36.000
     31 TN6       1 res   C31      31      0.000     36.000
     32 SC4       1 res   C32      32      0.000     54.000
     33 TC3       1 res   C33      33      0.000     36.000

[ bonds ]
;  ai    aj   funct      b0(nm)        k
    1     2     1      0.29305    20000
    1     3     1      0.30460    20000
    2     3     1      0.30303    20000
    3     4     1      0.28095    20000
    3     9     1      0.36116    20000
    3    10     1      0.36649    20000
    4     5     1      0.28348    20000
    5     6     1      0.28382    20000
    5     7     1      0.25281    20000
    5     8     1      0.29141    20000
    7     8     1      0.30328    20000
    9    10     1      0.26156    20000
   10    11     1      0.35353    20000
   10    12     1      0.31635    20000
   11    12     1      0.28067    20000
   12    13     1      0.33419    20000
   12    33     1      0.28533    20000
   13    14     1      0.27336    20000
   13    32     1      0.33007    20000
   13    33     1      0.32095    20000
   14    15     1      0.25826    20000
   15    16     1      0.27579    20000
   15    32     1      0.24618    20000
   16    17     1      0.25885    20000
   16    18     1      0.25208    20000
   16    31     1      0.26547    20000
   18    19     1      0.35144    20000
   18    31     1      0.32587    20000
   19    20     1      0.31500    20000
   19    21     1      0.27090    20000
   19    30     1      0.28034    20000
   21    22     1      0.31413    20000
   21    30     1      0.28918    20000
   22    23     1      0.29033    20000
   22    24     1      0.27510    20000
   22    25     1      0.24973    20000
   24    25     1      0.25066    20000
   25    26     1      0.27794    20000
   26    27     1      0.28705    20000
   26    28     1      0.29808    20000
   26    29     1      0.26636    20000
   28    29     1      0.32199    20000
