1TPCN00775
12
    1res  C1    1   -0.314   0.374  -0.055
    1res  C2    2   -0.084   0.262  -0.032
    1res  C3    3    0.073   0.090  -0.082
    1res  C4    4    0.285   0.232   0.006
    1res  C5    5    0.250  -0.008  -0.004
    1res  C6    6    0.174  -0.206  -0.059
    1res  C7    7    0.368  -0.138   0.017
    1res  C8    8    0.468  -0.367   0.017
    1res  C9    9    0.604  -0.119   0.097
    1res  C10   10   -0.111  -0.017  -0.041
    1res  C11   11   -0.436   0.029   0.029
    1res  C12   12   -0.314  -0.330  -0.010
  10.00000  10.00000  10.00000
