[ moleculetype ]
; name        nrexcl
res           1

[ atoms ]
;    nr  type resnr resid  atom  cgnr     charge       mass
      1 SN4a      1 res   C1        1      0.000     54.000
      2 TC3       1 res   C2        2      0.000     36.000
      3 TN6       1 res   C3        3      0.000     36.000
      4 TC5       1 res   C4        4      0.000     36.000
      5 TN4a      1 res   C5        5      0.000     36.000
      6 TN6       1 res   C6        6      0.000     36.000
      7 TC4       1 res   C7        7      0.000     36.000
      8 SN6       1 res   C8        8      0.000     54.000
      9 SC4       1 res   C9        9      0.000     54.000
     10 SN6a      1 res   C10      10      0.000     54.000
     11 SC4       1 res   C11      11      0.000     54.000
     12 TC3       1 res   C12      12      0.000     36.000
     13 TC5       1 res   C13      13      0.000     36.000
     14 TC5       1 res   C14      14      0.000     36.000
     15 TN2a      1 res   C15      15      0.000     36.000
     16 TN4a      1 res   C16      16      0.000     36.000

[ bonds ]
;  ai    aj   funct      b0(nm)        k
    1     2     1      0.34688    20000
    2     3     1      0.29374    20000
    2     7     1      0.28683    20000
    3     4     1      0.27638    20000
    4     5     1      0.27233    20000
    4     7     1      0.31898    20000
    4     8     1      0.27281    20000
    4     9     1      0.31894    20000
    5     6     1      0.31075    20000
    6     7     1      0.27258    20000
    8     9     1      0.29355    20000
    9    10     1      0.37830    20000
    9    11     1      0.40352    20000
   10    11     1      0.25640    20000
   11    12     1      0.27478    20000
   11    16     1      0.32499    20000
   12    13     1      0.26318    20000
   12    16     1      0.24605    20000
   13    14     1      0.26206    20000
   13    15     1      0.16718    20000
   14    15     1      0.20211    20000
