1TPCN00661
13
    1res  C1    1   -0.490  -0.118   0.063
    1res  C2    2   -0.584   0.136   0.186
    1res  C3    3   -0.389   0.166   0.098
    1res  C4    4   -0.209   0.250  -0.000
    1res  C5    5   -0.027   0.020  -0.036
    1res  C6    6    0.259   0.050  -0.003
    1res  C7    7    0.544  -0.162   0.019
    1res  C8    8    0.742  -0.035   0.125
    1res  C9    9    0.785   0.007  -0.119
    1res  C10   10    0.511   0.113   0.041
    1res  C11   11    0.152  -0.157  -0.198
    1res  C12   12   -0.072  -0.198  -0.176
    1res  C13   13   -0.204  -0.037  -0.270
  10.00000  10.00000  10.00000
