1TPCN01399
9
    1res  C1    1   -0.707   0.213  -0.047
    1res  C2    2   -0.402   0.145  -0.114
    1res  C3    3   -0.182  -0.062  -0.086
    1res  C4    4   -0.354  -0.304   0.050
    1res  C5    5    0.111   0.080   0.073
    1res  C6    6    0.454   0.012   0.222
    1res  C7    7    0.613  -0.134   0.010
    1res  C8    8    0.775  -0.128  -0.245
    1res  C9    9    0.792   0.120   0.022
  10.00000  10.00000  10.00000
