[ moleculetype ]
; name        nrexcl
res           1

[ atoms ]
;    nr  type resnr resid  atom  cgnr     charge       mass
      1 TC3       1 res   C1        1      0.000     36.000
      2 TN6d      1 res   C2        2      0.000     36.000
      3 SC4       1 res   C3        3      0.000     54.000
      4 N4a       1 res   C4        4      0.000     72.000
      5 TC5       1 res   C5        5      0.000     36.000
      6 TC5       1 res   C6        6      0.000     36.000
      7 TC5       1 res   C7        7      0.000     36.000
      8 SP3       1 res   C8        8      0.000     54.000
      9 SC3       1 res   C9        9      0.000     54.000
     10 TN3r      1 res   C10      10      0.000     36.000
     11 TC5       1 res   C11      11      0.000     36.000
     12 TC5       1 res   C12      12      0.000     36.000
     13 SC3       1 res   C13      13      0.000     54.000
     14 TC3       1 res   C14      14      0.000     36.000
     15 TN3r      1 res   C15      15      0.000     36.000
     16 SP4       1 res   C16      16      0.000     54.000
     17 SN4a      1 res   C17      17      0.000     54.000
     18 SC2       1 res   C18      18      0.000     54.000
     19 TN3r      1 res   C19      19      0.000     36.000

[ bonds ]
;  ai    aj   funct      b0(nm)        k
    1     2     1      0.26774    20000
    2     3     1      0.26230    20000
    2    11     1      0.28869    20000
    3     4     1      0.32371    20000
    3     9     1      0.31997    20000
    3    11     1      0.26443    20000
    3    16     1      0.33169    20000
    3    19     1      0.30317    20000
    4     5     1      0.31972    20000
    5     6     1      0.25801    20000
    5     7     1      0.30579    20000
    6     7     1      0.25795    20000
    7     8     1      0.32697    20000
    9    10     1      0.33657    20000
    9    11     1      0.33894    20000
   11    12     1      0.27380    20000
   11    16     1      0.30063    20000
   12    13     1      0.22188    20000
   12    16     1      0.32075    20000
   13    14     1      0.30392    20000
   13    17     1      0.36433    20000
   14    15     1      0.29527    20000
   14    16     1      0.27530    20000
   17    18     1      0.25695    20000
