1TPCN03614
16
    1res  C1    1    0.003  -0.221  -0.223
    1res  C2    2    0.066   0.098  -0.062
    1res  C3    3   -0.218  -0.017  -0.230
    1res  C4    4   -0.341   0.188  -0.067
    1res  C5    5   -0.125   0.450  -0.105
    1res  C6    6   -0.538   0.057  -0.133
    1res  C7    7   -0.487  -0.176  -0.139
    1res  C8    8   -0.281  -0.283   0.199
    1res  C9    9    0.052  -0.053   0.314
    1res  C10   10    0.325   0.352   0.145
    1res  C11   11    0.345  -0.003  -0.150
    1res  C12   12    0.353  -0.176   0.101
    1res  C13   13    0.576  -0.070   0.031
    1res  C14   14    0.598   0.114   0.216
    1res  C15   15    0.712   0.012   0.084
    1res  C16   16    0.222  -0.279  -0.066
  10.00000  10.00000  10.00000
