[ moleculetype ]
; name        nrexcl
res           1

[ atoms ]
;    nr  type resnr resid  atom  cgnr     charge       mass
      1 SC2       1 res   C1        1      0.000     54.000
      2 SN6       1 res   C2        2      0.000     54.000
      3 TC5       1 res   C3        3      0.000     36.000
      4 SN6a      1 res   C4        4      0.000     54.000
      5 SC4       1 res   C5        5      0.000     54.000
      6 SP4       1 res   C6        6      0.000     54.000
      7 TN4a      1 res   C7        7      0.000     36.000
      8 TP1       1 res   C8        8      0.000     36.000
      9 SP4       1 res   C9        9      0.000     54.000
     10 TC3       1 res   C10      10      0.000     36.000
     11 TC5       1 res   C11      11      0.000     36.000
     12 TN4a      1 res   C12      12      0.000     36.000
     13 TN6a      1 res   C13      13      0.000     36.000
     14 TC3       1 res   C14      14      0.000     36.000

[ bonds ]
;  ai    aj   funct      b0(nm)        k
    1     2     1      0.29319    20000
    2     3     1      0.24973    20000
    3     4     1      0.22082    20000
    3     5     1      0.38483    20000
    3     6     1      0.49093    20000
    4     5     1      0.36223    20000
    4    14     1      0.25424    20000
    5    10     1      0.31034    20000
    5    14     1      0.27311    20000
    6     7     1      0.25695    20000
    6     9     1      0.28903    20000
    7     8     1      0.22246    20000
    7     9     1      0.27743    20000
   10    11     1      0.24367    20000
   11    12     1      0.20865    20000
   11    13     1      0.23131    20000
   11    14     1      0.28439    20000
   12    13     1      0.28848    20000
