1TPCN02628
20
    1res  C1    1   -0.361   0.327  -0.425
    1res  C2    2   -0.469   0.116  -0.170
    1res  C3    3   -0.319  -0.030  -0.073
    1res  C4    4   -0.272   0.107   0.298
    1res  C5    5   -0.045   0.260  -0.107
    1res  C6    6   -0.032   0.560   0.042
    1res  C7    7   -0.008   0.685   0.265
    1res  C8    8   -0.007   0.388   0.253
    1res  C9    9    0.026  -0.190   0.024
    1res  C10   10    0.054  -0.111  -0.219
    1res  C11   11   -0.261  -0.258   0.069
    1res  C12   12   -0.367  -0.451  -0.145
    1res  C13   13   -0.487  -0.655  -0.245
    1res  C14   14   -0.502  -0.595   0.045
    1res  C15   15    0.242   0.047   0.141
    1res  C16   16    0.318  -0.091   0.290
    1res  C17   17    0.298  -0.394   0.331
    1res  C18   18    0.268   0.065  -0.118
    1res  C19   19    0.537   0.033  -0.086
    1res  C20   20    0.762   0.128  -0.159
  10.00000  10.00000  10.00000
