[ moleculetype ]
; name        nrexcl
res           1

[ atoms ]
;    nr  type resnr resid  atom  cgnr     charge       mass
      1 TC3       1 res   C1        1      0.000     36.000
      2 TC3       1 res   C2        2      0.000     36.000
      3 TC4       1 res   C3        3      0.000     36.000
      4 TC4       1 res   C4        4      0.000     36.000
      5 SC4       1 res   C5        5      0.000     54.000
      6 TN6d      1 res   C6        6      0.000     36.000
      7 TC5       1 res   C7        7      0.000     36.000
      8 TC5       1 res   C8        8      0.000     36.000
      9 TC5       1 res   C9        9      0.000     36.000
     10 TC3       1 res   C10      10      0.000     36.000
     11 TC5       1 res   C11      11      0.000     36.000
     12 TC5       1 res   C12      12      0.000     36.000
     13 TN6d      1 res   C13      13      0.000     36.000
     14 TC5       1 res   C14      14      0.000     36.000
     15 TC5       1 res   C15      15      0.000     36.000
     16 TN2a      1 res   C16      16      0.000     36.000
     17 TC3       1 res   C17      17      0.000     36.000
     18 TN6d      1 res   C18      18      0.000     36.000
     19 SN5a      1 res   C19      19      0.000     54.000
     20 TC3       1 res   C20      20      0.000     36.000
     21 TC3       1 res   C21      21      0.000     36.000
     22 TC3       1 res   C22      22      0.000     36.000
     23 TC5       1 res   C23      23      0.000     36.000
     24 N4a       1 res   C24      24      0.000     72.000
     25 TC3       1 res   C25      25      0.000     36.000
     26 N4a       1 res   C26      26      0.000     72.000

[ bonds ]
;  ai    aj   funct      b0(nm)        k
    1     2     1      0.25847    20000
    2     3     1      0.26454    20000
    2    25     1      0.29480    20000
    3     4     1      0.23988    20000
    4     5     1      0.23754    20000
    4    25     1      0.25926    20000
    5     6     1      0.35573    20000
    5     7     1      0.25674    20000
    5    10     1      0.31014    20000
    6     7     1      0.21696    20000
    7     8     1      0.25016    20000
    7     9     1      0.25037    20000
    8     9     1      0.29330    20000
   10    11     1      0.26091    20000
   10    25     1      0.25420    20000
   11    12     1      0.22093    20000
   11    15     1      0.30794    20000
   12    13     1      0.21596    20000
   12    14     1      0.17804    20000
   12    15     1      0.22087    20000
   13    14     1      0.21969    20000
   14    17     1      0.26340    20000
   14    23     1      0.24213    20000
   15    16     1      0.25089    20000
   17    18     1      0.29444    20000
   18    19     1      0.26063    20000
   18    20     1      0.26491    20000
   18    23     1      0.26709    20000
   20    21     1      0.27936    20000
   20    23     1      0.29504    20000
   21    22     1      0.29692    20000
   21    23     1      0.27124    20000
   23    24     1      0.34309    20000
   25    26     1      0.36572    20000
