1TPCN02556
12
    1res  C1    1   -0.465  -0.039   0.195
    1res  C2    2   -0.569  -0.231   0.029
    1res  C3    3   -0.239  -0.134   0.075
    1res  C4    4   -0.256   0.097  -0.080
    1res  C5    5   -0.086   0.340   0.121
    1res  C6    6   -0.076  -0.083  -0.092
    1res  C7    7    0.127   0.025  -0.034
    1res  C8    8    0.268   0.120  -0.201
    1res  C9    9    0.372  -0.038   0.081
    1res  C10   10    0.077  -0.129   0.172
    1res  C11   11   -0.049  -0.320  -0.021
    1res  C12   12    0.131  -0.189  -0.219
  10.00000  10.00000  10.00000
