[ moleculetype ]
; name        nrexcl
res           1

[ atoms ]
;    nr  type resnr resid  atom  cgnr     charge       mass
      1 SC4       1 res   C1        1      0.000     54.000
      2 TC3       1 res   C2        2      0.000     36.000
      3 SC4       1 res   C3        3      0.000     54.000
      4 TN6a      1 res   C4        4      0.000     36.000
      5 TN4a      1 res   C5        5      0.000     36.000
      6 TC5       1 res   C6        6      0.000     36.000
      7 TC5       1 res   C7        7      0.000     36.000
      8 TN2a      1 res   C8        8      0.000     36.000
      9 SN6a      1 res   C9        9      0.000     54.000
     10 TN6a      1 res   C10      10      0.000     36.000

[ bonds ]
;  ai    aj   funct      b0(nm)        k
    1     2     1      0.29588    20000
    1     3     1      0.28592    20000
    1     9     1      0.31597    20000
    1    10     1      0.25691    20000
    2     3     1      0.34380    20000
    3     4     1      0.34238    20000
    3     5     1      0.23902    20000
    4     5     1      0.26699    20000
    5     6     1      0.25033    20000
    6     7     1      0.26220    20000
    6     8     1      0.16745    20000
    7     8     1      0.20237    20000
    9    10     1      0.24656    20000
