1TPCN03334
11
    1res  C1    1    0.475  -0.166  -0.019
    1res  C2    2    0.399   0.128   0.053
    1res  C3    3    0.206   0.152  -0.098
    1res  C4    4    0.297  -0.112  -0.201
    1res  C5    5   -0.025  -0.060  -0.189
    1res  C6    6   -0.055  -0.015   0.013
    1res  C7    7   -0.325  -0.218  -0.058
    1res  C8    8   -0.184  -0.077   0.244
    1res  C9    9   -0.308   0.058  -0.020
    1res  C10   10   -0.318   0.276  -0.151
    1res  C11   11    0.204  -0.022   0.185
  10.00000  10.00000  10.00000
