1TPCN02073
7
    1res  C1    1    0.314   0.227   0.234
    1res  C2    2    0.134   0.139   0.070
    1res  C3    3   -0.029   0.050  -0.091
    1res  C4    4   -0.288   0.151   0.010
    1res  C5    5   -0.154  -0.167  -0.155
    1res  C6    6    0.094  -0.322  -0.060
    1res  C7    7    0.209  -0.102  -0.003
  10.00000  10.00000  10.00000
