1TPCN01019
12
    1res  C1    1   -0.460   0.133   0.175
    1res  C2    2   -0.320   0.338   0.139
    1res  C3    3   -0.258   0.159  -0.038
    1res  C4    4   -0.388  -0.188  -0.105
    1res  C5    5   -0.116  -0.068  -0.181
    1res  C6    6    0.029   0.054  -0.206
    1res  C7    7    0.095   0.187  -0.019
    1res  C8    8    0.294  -0.068   0.015
    1res  C9    9    0.519  -0.230   0.105
    1res  C10   10    0.517   0.053  -0.072
    1res  C11   11    0.468   0.172   0.132
    1res  C12   12    0.267   0.099   0.247
  10.00000  10.00000  10.00000
