1TPCN01770
8
    1res  C1    1   -0.072   0.285  -0.055
    1res  C2    2   -0.128  -0.148  -0.119
    1res  C3    3    0.118   0.002  -0.051
    1res  C4    4    0.143   0.147  -0.153
    1res  C5    5    0.376   0.059  -0.013
    1res  C6    6    0.067  -0.197   0.077
    1res  C7    7   -0.301  -0.164   0.068
    1res  C8    8   -0.283   0.112   0.119
  10.00000  10.00000  10.00000
