1TPCN02904
14
    1res  C1    1   -0.180  -0.389   0.124
    1res  C2    2   -0.260  -0.156   0.056
    1res  C3    3   -0.103   0.023  -0.052
    1res  C4    4   -0.431   0.069  -0.207
    1res  C5    5   -0.398   0.132   0.128
    1res  C6    6   -0.148   0.162   0.286
    1res  C7    7   -0.004  -0.077   0.169
    1res  C8    8    0.184   0.041   0.203
    1res  C9    9    0.244   0.221   0.029
    1res  C10   10    0.443   0.059   0.160
    1res  C11   11    0.158  -0.202   0.050
    1res  C12   12    0.308  -0.067  -0.143
    1res  C13   13    0.502   0.170  -0.244
    1res  C14   14    0.005   0.062  -0.297
  10.00000  10.00000  10.00000
