[ moleculetype ]
; name        nrexcl
res           1

[ atoms ]
;    nr  type resnr resid  atom  cgnr     charge       mass
      1 TC3       1 res   C1        1      0.000     36.000
      2 TN6d      1 res   C2        2      0.000     36.000
      3 SC4       1 res   C3        3      0.000     54.000
      4 SC3       1 res   C4        4      0.000     54.000
      5 TN3r      1 res   C5        5      0.000     36.000
      6 TC5       1 res   C6        6      0.000     36.000
      7 TC5       1 res   C7        7      0.000     36.000
      8 TC3       1 res   C8        8      0.000     36.000
      9 TC3       1 res   C9        9      0.000     36.000
     10 TN3r      1 res   C10      10      0.000     36.000
     11 TC5       1 res   C11      11      0.000     36.000
     12 SN5a      1 res   C12      12      0.000     54.000
     13 TN6       1 res   C13      13      0.000     36.000
     14 TN6       1 res   C14      14      0.000     36.000

[ bonds ]
;  ai    aj   funct      b0(nm)        k
    1     2     1      0.25669    20000
    2     3     1      0.27361    20000
    2     6     1      0.29129    20000
    3     4     1      0.30944    20000
    3     6     1      0.38370    20000
    3    13     1      0.25791    20000
    4     5     1      0.33511    20000
    4     6     1      0.32712    20000
    6     7     1      0.24110    20000
    6    11     1      0.21448    20000
    7     8     1      0.23241    20000
    7    11     1      0.20157    20000
    7    14     1      0.26780    20000
    8     9     1      0.32145    20000
    8    14     1      0.25971    20000
    9    10     1      0.29782    20000
    9    11     1      0.26835    20000
   11    12     1      0.20093    20000
   11    13     1      0.25695    20000
