1TPCN02084
21
    1res  C1    1   -0.329  -0.631   0.087
    1res  C2    2   -0.291  -0.165   0.169
    1res  C3    3   -0.168   0.082   0.111
    1res  C4    4    0.063   0.112   0.071
    1res  C5    5    0.205   0.048   0.313
    1res  C6    6    0.275   0.285   0.158
    1res  C7    7    0.429   0.105   0.066
    1res  C8    8    0.434  -0.044  -0.167
    1res  C9    9    0.719  -0.109  -0.149
    1res  C10   10    0.827  -0.036   0.061
    1res  C11   11    1.028  -0.054   0.223
    1res  C12   12    1.050  -0.227  -0.010
    1res  C13   13    0.659   0.109  -0.347
    1res  C14   14    0.500   0.263  -0.210
    1res  C15   15    0.270   0.199  -0.077
    1res  C16   16   -0.484  -0.090  -0.032
    1res  C17   17   -0.607   0.185  -0.074
    1res  C18   18   -0.481   0.368  -0.169
    1res  C19   19   -0.844   0.305  -0.065
    1res  C20   20   -0.777   0.142   0.173
    1res  C21   21   -0.348  -0.302  -0.080
  10.00000  10.00000  10.00000
