1TPCN02131
8
    1res  C1    1    0.309  -0.197   0.168
    1res  C2    2    0.420  -0.114  -0.053
    1res  C3    3    0.184  -0.031  -0.134
    1res  C4    4    0.001   0.245  -0.091
    1res  C5    5   -0.229  -0.014  -0.117
    1res  C6    6   -0.246  -0.187   0.066
    1res  C7    7   -0.134  -0.008   0.217
    1res  C8    8    0.071  -0.113   0.075
  10.00000  10.00000  10.00000
