[ moleculetype ]
; name        nrexcl
res           1

[ atoms ]
;    nr  type resnr resid  atom  cgnr     charge       mass
      1 TC3       1 res   C1        1      0.000     36.000
      2 TC3       1 res   C2        2      0.000     36.000
      3 TN6d      1 res   C3        3      0.000     36.000
      4 TC3       1 res   C4        4      0.000     36.000
      5 TC5       1 res   C5        5      0.000     36.000
      6 TN6d      1 res   C6        6      0.000     36.000
      7 TC5       1 res   C7        7      0.000     36.000
      8 TC5       1 res   C8        8      0.000     36.000
      9 TC5       1 res   C9        9      0.000     36.000
     10 TC3       1 res   C10      10      0.000     36.000
     11 TC5       1 res   C11      11      0.000     36.000
     12 TP1d      1 res   C12      12      0.000     36.000
     13 N4a       1 res   C13      13      0.000     72.000

[ bonds ]
;  ai    aj   funct      b0(nm)        k
    1     2     1      0.28714    20000
    2     3     1      0.25212    20000
    2    10     1      0.29173    20000
    3     4     1      0.26958    20000
    3     5     1      0.21713    20000
    3    10     1      0.21335    20000
    4     5     1      0.24334    20000
    5     6     1      0.21928    20000
    5     7     1      0.17618    20000
    6     7     1      0.21842    20000
    7     8     1      0.24993    20000
    7     9     1      0.25021    20000
    8     9     1      0.29373    20000
   10    11     1      0.23413    20000
   11    12     1      0.27958    20000
   11    13     1      0.38881    20000
