1TPCN03568
33
    1res  C1    1    1.065   0.099   0.333
    1res  C2    2    1.055  -0.109   0.122
    1res  C3    3    0.821   0.028   0.199
    1res  C4    4    0.899   0.156  -0.067
    1res  C5    5    1.089   0.221  -0.312
    1res  C6    6    1.222  -0.038  -0.332
    1res  C7    7    1.313   0.284  -0.141
    1res  C8    8    1.040   0.409  -0.101
    1res  C9    9    0.734  -0.099  -0.134
    1res  C10   10    0.528   0.103  -0.019
    1res  C11   11    0.460   0.014   0.279
    1res  C12   12    0.452  -0.187   0.062
    1res  C13   13    0.213  -0.272   0.178
    1res  C14   14    0.034  -0.076   0.264
    1res  C15   15   -0.140  -0.157   0.086
    1res  C16   16   -0.382  -0.107   0.251
    1res  C17   17   -0.528   0.115   0.360
    1res  C18   18   -0.619  -0.210   0.182
    1res  C19   19   -0.751  -0.323  -0.039
    1res  C20   20   -0.933  -0.567   0.081
    1res  C21   21   -1.008  -0.273  -0.134
    1res  C22   22   -1.079   0.090  -0.158
    1res  C23   23   -1.175   0.100  -0.385
    1res  C24   24   -1.262   0.224  -0.034
    1res  C25   25   -1.097   0.029   0.131
    1res  C26   26   -0.770  -0.141  -0.259
    1res  C27   27   -0.446  -0.081  -0.008
    1res  C28   28   -0.501   0.141  -0.123
    1res  C29   29   -0.733   0.300  -0.251
    1res  C30   30   -0.499   0.388   0.028
    1res  C31   31   -0.257   0.241  -0.034
    1res  C32   32   -0.017  -0.105  -0.117
    1res  C33   33    0.302  -0.207  -0.143
  10.00000  10.00000  10.00000
