[ moleculetype ]
; name        nrexcl
res           1

[ atoms ]
;    nr  type resnr resid  atom  cgnr     charge       mass
      1 SC4       1 res   C1        1      0.000     54.000
      2 TC3       1 res   C2        2      0.000     36.000
      3 TC3       1 res   C3        3      0.000     36.000
      4 SC4       1 res   C4        4      0.000     54.000
      5 SN6       1 res   C5        5      0.000     54.000
      6 TN6       1 res   C6        6      0.000     36.000
      7 TC4       1 res   C7        7      0.000     36.000

[ bonds ]
;  ai    aj   funct      b0(nm)        k
    1     2     1      0.27920    20000
    2     3     1      0.28063    20000
    2     4     1      0.27938    20000
    3     4     1      0.26053    20000
    4     5     1      0.26871    20000
    4     7     1      0.31299    20000
    5     6     1      0.27662    20000
    6     7     1      0.28743    20000
