1TPCN02326
11
    1res  C1    1    0.011  -0.128  -0.244
    1res  C2    2   -0.230   0.033  -0.211
    1res  C3    3   -0.166  -0.034   0.026
    1res  C4    4   -0.228   0.248   0.007
    1res  C5    5   -0.452   0.130   0.079
    1res  C6    6   -0.228  -0.054   0.252
    1res  C7    7    0.082   0.119  -0.003
    1res  C8    8    0.192  -0.162   0.002
    1res  C9    9    0.414   0.004  -0.084
    1res  C10   10    0.580   0.140  -0.017
    1res  C11   11    0.424  -0.008   0.174
  10.00000  10.00000  10.00000
