[ moleculetype ]
; name        nrexcl
res           1

[ atoms ]
;    nr  type resnr resid  atom  cgnr     charge       mass
      1 N4a       1 res   C1        1      0.000     72.000
      2 TC4       1 res   C2        2      0.000     36.000
      3 SC3       1 res   C3        3      0.000     54.000
      4 TC5       1 res   C4        4      0.000     36.000
      5 SP2       1 res   C5        5      0.000     54.000
      6 SC5       1 res   C6        6      0.000     54.000
      7 TC5       1 res   C7        7      0.000     36.000
      8 TN2a      1 res   C8        8      0.000     36.000
      9 TC5       1 res   C9        9      0.000     36.000
     10 TC4       1 res   C10      10      0.000     36.000
     11 TC3       1 res   C11      11      0.000     36.000

[ bonds ]
;  ai    aj   funct      b0(nm)        k
    1     2     1      0.39383    20000
    2     3     1      0.31824    20000
    2     4     1      0.26853    20000
    3     4     1      0.28800    20000
    4     5     1      0.26585    20000
    4     6     1      0.28597    20000
    4    11     1      0.24022    20000
    6     7     1      0.21080    20000
    6    10     1      0.33014    20000
    6    11     1      0.34187    20000
    7     8     1      0.16758    20000
    7     9     1      0.21749    20000
    7    10     1      0.27362    20000
    8     9     1      0.20272    20000
