[ moleculetype ]
; name        nrexcl
res           1

[ atoms ]
;    nr  type resnr resid  atom  cgnr     charge       mass
      1 N3a       1 res   C1        1      0.000     72.000
      2 TC3       1 res   C2        2      0.000     36.000
      3 TN6       1 res   C3        3      0.000     36.000
      4 SC5       1 res   C4        4      0.000     54.000
      5 TC5       1 res   C5        5      0.000     36.000
      6 SC3       1 res   C6        6      0.000     54.000
      7 TC3       1 res   C7        7      0.000     36.000
      8 TN3r      1 res   C8        8      0.000     36.000
      9 SP4       1 res   C9        9      0.000     54.000
     10 TN3r      1 res   C10      10      0.000     36.000
     11 TN3r      1 res   C11      11      0.000     36.000
     12 TN6a      1 res   C12      12      0.000     36.000

[ bonds ]
;  ai    aj   funct      b0(nm)        k
    1     2     1      0.36227    20000
    1     4     1      0.37070    20000
    2     3     1      0.26523    20000
    2    12     1      0.26361    20000
    3     4     1      0.27807    20000
    4     5     1      0.22048    20000
    4     9     1      0.26378    20000
    4    12     1      0.29368    20000
    5     6     1      0.22084    20000
    5     9     1      0.32749    20000
    6     7     1      0.30272    20000
    6    10     1      0.38432    20000
    7     8     1      0.25276    20000
    7     9     1      0.33106    20000
    9    11     1      0.31980    20000
