1TPCN02393
10
    1res  C1    1    0.466  -0.231  -0.114
    1res  C2    2    0.308   0.051  -0.094
    1res  C3    3   -0.037   0.036  -0.237
    1res  C4    4   -0.067   0.276  -0.063
    1res  C5    5   -0.296   0.063   0.021
    1res  C6    6   -0.478   0.345   0.075
    1res  C7    7   -0.205  -0.148  -0.111
    1res  C8    8   -0.328  -0.294   0.135
    1res  C9    9    0.025  -0.151   0.178
    1res  C10   10    0.500  -0.031   0.261
  10.00000  10.00000  10.00000
