1TPCN02761
10
    1res  C1    1   -0.380   0.199  -0.020
    1res  C2    2   -0.468  -0.081  -0.097
    1res  C3    3   -0.238  -0.074   0.185
    1res  C4    4   -0.156  -0.119  -0.096
    1res  C5    5   -0.021   0.232   0.060
    1res  C6    6    0.102  -0.057  -0.008
    1res  C7    7    0.268   0.117  -0.152
    1res  C8    8    0.171  -0.121  -0.239
    1res  C9    9    0.359   0.032   0.091
    1res  C10   10    0.469  -0.182   0.002
  10.00000  10.00000  10.00000
