1TPCN02044
13
    1res  C1    1    0.061   0.202   0.321
    1res  C2    2   -0.081   0.013   0.005
    1res  C3    3    0.144   0.086  -0.103
    1res  C4    4   -0.024   0.290  -0.074
    1res  C5    5   -0.316   0.205  -0.013
    1res  C6    6   -0.214  -0.125  -0.289
    1res  C7    7   -0.268  -0.162  -0.040
    1res  C8    8   -0.016  -0.282  -0.012
    1res  C9    9    0.245  -0.173   0.063
    1res  C10   10    0.390  -0.126  -0.133
    1res  C11   11    0.619  -0.044  -0.219
    1res  C12   12    0.598  -0.048   0.071
    1res  C13   13   -0.304  -0.101   0.330
  10.00000  10.00000  10.00000
