1TPCN03447
18
    1res  C1    1   -0.104   0.112  -0.248
    1res  C2    2    0.103   0.280  -0.142
    1res  C3    3    0.212   0.320   0.076
    1res  C4    4    0.334   0.484   0.233
    1res  C5    5    0.254   0.603  -0.021
    1res  C6    6    0.097  -0.099  -0.195
    1res  C7    7    0.284  -0.027   0.078
    1res  C8    8    0.501   0.061   0.002
    1res  C9    9    0.721   0.178   0.064
    1res  C10   10    0.513   0.118   0.268
    1res  C11   11    0.280  -0.317  -0.072
    1res  C12   12   -0.066  -0.427   0.088
    1res  C13   13   -0.042  -0.189   0.224
    1res  C14   14   -0.293  -0.148   0.214
    1res  C15   15   -0.396  -0.216  -0.031
    1res  C16   16   -0.573   0.098  -0.116
    1res  C17   17   -0.147   0.095   0.020
    1res  C18   18   -0.274   0.365   0.103
  10.00000  10.00000  10.00000
