1TPCN03914
21
    1res  C1    1   -0.294  -0.433   0.141
    1res  C2    2   -0.378  -0.236  -0.091
    1res  C3    3   -0.126  -0.343  -0.176
    1res  C4    4   -0.082  -0.106   0.133
    1res  C5    5    0.085  -0.208  -0.064
    1res  C6    6    0.166   0.148  -0.070
    1res  C7    7    0.311   0.051   0.156
    1res  C8    8    0.486   0.172  -0.002
    1res  C9    9    0.733   0.288  -0.013
    1res  C10   10    0.937   0.282   0.188
    1res  C11   11    0.663   0.293   0.269
    1res  C12   12    0.509  -0.013  -0.157
    1res  C13   13    0.185  -0.126  -0.285
    1res  C14   14   -0.266  -0.144  -0.299
    1res  C15   15   -0.485  -0.029  -0.080
    1res  C16   16   -0.529   0.226   0.041
    1res  C17   17   -0.774   0.272  -0.010
    1res  C18   18   -0.497   0.370   0.223
    1res  C19   19   -0.315   0.147   0.175
    1res  C20   20   -0.605  -0.317  -0.133
    1res  C21   21   -0.580  -0.439   0.144
  10.00000  10.00000  10.00000
