1TPCN02783
12
    1res  C1    1    0.702  -0.106  -0.056
    1res  C2    2    0.363  -0.051  -0.015
    1res  C3    3    0.184   0.055   0.086
    1res  C4    4    0.014   0.077   0.067
    1res  C5    5   -0.201   0.298   0.127
    1res  C6    6   -0.002   0.426   0.283
    1res  C7    7   -0.193   0.064   0.034
    1res  C8    8   -0.447   0.068   0.026
    1res  C9    9   -0.283  -0.108  -0.056
    1res  C10   10   -0.502  -0.278  -0.147
    1res  C11   11   -0.126  -0.284  -0.149
    1res  C12   12    0.083  -0.063   0.015
  10.00000  10.00000  10.00000
