1TPCN00988
12
    1res  C1    1   -0.023   0.019  -0.366
    1res  C2    2   -0.259  -0.064  -0.324
    1res  C3    3   -0.311  -0.005  -0.051
    1res  C4    4   -0.079   0.112  -0.063
    1res  C5    5   -0.210   0.409  -0.144
    1res  C6    6    0.015  -0.127  -0.013
    1res  C7    7    0.212   0.047  -0.020
    1res  C8    8    0.386   0.090   0.160
    1res  C9    9   -0.054  -0.325  -0.172
    1res  C10   10   -0.019  -0.455   0.065
    1res  C11   11   -0.303  -0.237   0.046
    1res  C12   12   -0.164  -0.047   0.279
  10.00000  10.00000  10.00000
