1TPCN02208
23
    1res  C1    1    0.098  -0.007   0.292
    1res  C2    2    0.081   0.010  -0.014
    1res  C3    3    0.379   0.070  -0.023
    1res  C4    4    0.315  -0.263  -0.159
    1res  C5    5    0.584  -0.287  -0.231
    1res  C6    6    0.705  -0.054  -0.148
    1res  C7    7    0.847   0.183  -0.069
    1res  C8    8    0.937   0.325  -0.237
    1res  C9    9    1.077   0.252   0.076
    1res  C10   10    1.016  -0.031   0.072
    1res  C11   11    0.491  -0.322   0.075
    1res  C12   12   -0.027  -0.207   0.048
    1res  C13   13   -0.314   0.041   0.119
    1res  C14   14   -0.340   0.095   0.408
    1res  C15   15   -0.558   0.059   0.276
    1res  C16   16   -0.753   0.214  -0.057
    1res  C17   17   -0.646   0.289  -0.271
    1res  C18   18   -0.926   0.367   0.011
    1res  C19   19   -0.802   0.290   0.236
    1res  C20   20   -0.593  -0.110  -0.096
    1res  C21   21   -0.619  -0.338   0.089
    1res  C22   22   -0.569  -0.268  -0.284
    1res  C23   23   -0.312  -0.139  -0.201
  10.00000  10.00000  10.00000
