1TPCN03451
17
    1res  C1    1   -0.008   0.232   0.191
    1res  C2    2   -0.151  -0.027   0.252
    1res  C3    3   -0.299   0.088   0.079
    1res  C4    4   -0.432   0.399   0.225
    1res  C5    5   -0.489   0.056  -0.054
    1res  C6    6   -0.125  -0.031  -0.312
    1res  C7    7   -0.175  -0.355  -0.059
    1res  C8    8   -0.003  -0.346   0.177
    1res  C9    9    0.270  -0.375   0.057
    1res  C10   10    0.237  -0.152  -0.041
    1res  C11   11    0.487  -0.164  -0.223
    1res  C12   12    0.144  -0.006   0.090
    1res  C13   13    0.168  -0.028   0.453
    1res  C14   14    0.175   0.128  -0.135
    1res  C15   15    0.302   0.247  -0.315
    1res  C16   16    0.413   0.469  -0.388
    1res  C17   17    0.291   0.481  -0.124
  10.00000  10.00000  10.00000
