1TPCN02600
13
    1res  C1    1    1.194  -0.060   0.064
    1res  C2    2    0.873   0.002  -0.250
    1res  C3    3    0.541  -0.047  -0.048
    1res  C4    4    0.193  -0.035  -0.014
    1res  C5    5   -0.183  -0.051  -0.106
    1res  C6    6   -0.274   0.048   0.187
    1res  C7    7   -0.444   0.266  -0.042
    1res  C8    8   -0.557   0.140   0.199
    1res  C9    9   -0.765   0.036   0.068
    1res  C10   10   -0.928   0.222   0.116
    1res  C11   11   -0.961  -0.073   0.067
    1res  C12   12   -1.204  -0.083   0.101
    1res  C13   13   -0.614  -0.127  -0.039
  10.00000  10.00000  10.00000
