1TPCN03035
16
    1res  C1    1   -0.274  -0.155  -0.382
    1res  C2    2   -0.274  -0.250  -0.141
    1res  C3    3   -0.255  -0.307   0.124
    1res  C4    4   -0.444  -0.064   0.042
    1res  C5    5   -0.437   0.211   0.195
    1res  C6    6   -0.163   0.008  -0.072
    1res  C7    7   -0.022   0.074   0.153
    1res  C8    8   -0.015   0.278   0.075
    1res  C9    9    0.139   0.169  -0.163
    1res  C10   10    0.104   0.366  -0.319
    1res  C11   11    0.010  -0.157  -0.013
    1res  C12   12    0.320  -0.014  -0.021
    1res  C13   13    0.381  -0.215   0.107
    1res  C14   14    0.566  -0.351   0.225
    1res  C15   15    0.662  -0.103   0.107
    1res  C16   16    0.418   0.314   0.147
  10.00000  10.00000  10.00000
