[ moleculetype ]
; name        nrexcl
res           1

[ atoms ]
;    nr  type resnr resid  atom  cgnr     charge       mass
      1 SC2       1 res   C1        1      0.000     54.000
      2 TC5       1 res   C2        2      0.000     36.000
      3 SN2a      1 res   C3        3      0.000     54.000
      4 TC4       1 res   C4        4      0.000     36.000
      5 SP4       1 res   C5        5      0.000     54.000
      6 TC3       1 res   C6        6      0.000     36.000
      7 TN6a      1 res   C7        7      0.000     36.000
      8 TC3       1 res   C8        8      0.000     36.000
      9 SC4       1 res   C9        9      0.000     54.000

[ bonds ]
;  ai    aj   funct      b0(nm)        k
    1     2     1      0.24423    20000
    2     3     1      0.32922    20000
    2     5     1      0.36058    20000
    3     4     1      0.31461    20000
    3     6     1      0.24135    20000
    4     5     1      0.34138    20000
    4     6     1      0.26127    20000
    6     7     1      0.24669    20000
    6     9     1      0.31919    20000
    7     8     1      0.25621    20000
    8     9     1      0.29070    20000
