1TPCN00931
14
    1res  C1    1    0.674   0.143  -0.018
    1res  C2    2    0.481  -0.038   0.011
    1res  C3    3    0.383   0.162  -0.086
    1res  C4    4    0.378   0.125   0.188
    1res  C5    5    0.367  -0.212   0.016
    1res  C6    6    0.138  -0.103   0.172
    1res  C7    7   -0.079  -0.019  -0.036
    1res  C8    8   -0.359   0.117  -0.042
    1res  C9    9   -0.577   0.316   0.017
    1res  C10   10   -0.591   0.001  -0.098
    1res  C11   11   -0.535  -0.125   0.074
    1res  C12   12   -0.298  -0.148   0.095
    1res  C13   13    0.167  -0.191  -0.135
    1res  C14   14    0.225   0.054  -0.185
  10.00000  10.00000  10.00000
