1TPCN03740
28
    1res  C1    1    0.646   0.466  -0.376
    1res  C2    2    0.476   0.209  -0.216
    1res  C3    3    0.545  -0.053  -0.106
    1res  C4    4    0.622  -0.005   0.156
    1res  C5    5    0.895   0.047   0.250
    1res  C6    6    1.039  -0.196   0.161
    1res  C7    7    1.241  -0.010   0.196
    1res  C8    8    1.104  -0.260  -0.079
    1res  C9    9    0.846  -0.217  -0.060
    1res  C10   10    0.586   0.207   0.313
    1res  C11   11    0.453  -0.024   0.360
    1res  C12   12    0.345  -0.151  -0.157
    1res  C13   13    0.144  -0.169  -0.125
    1res  C14   14    0.094   0.035   0.136
    1res  C15   15   -0.090  -0.154  -0.167
    1res  C16   16   -0.251   0.057   0.093
    1res  C17   17   -0.388  -0.160  -0.060
    1res  C18   18   -0.552   0.024  -0.078
    1res  C19   19   -0.786   0.130   0.064
    1res  C20   20   -0.722   0.364   0.232
    1res  C21   21   -0.754  -0.021   0.309
    1res  C22   22   -0.834  -0.071   0.053
    1res  C23   23   -1.069  -0.217  -0.027
    1res  C24   24   -1.252  -0.428   0.071
    1res  C25   25   -1.269  -0.066  -0.059
    1res  C26   26   -1.022  -0.005  -0.169
    1res  C27   27   -0.441   0.223  -0.136
    1res  C28   28   -0.102   0.103  -0.222
  10.00000  10.00000  10.00000
