1TPCN01814
8
    1res  C1    1   -0.259  -0.112   0.149
    1res  C2    2    0.015  -0.114  -0.042
    1res  C3    3    0.198  -0.186   0.096
    1res  C4    4    0.126   0.044   0.094
    1res  C5    5   -0.018   0.302   0.085
    1res  C6    6   -0.117   0.128  -0.184
    1res  C7    7    0.229   0.166  -0.112
    1res  C8    8    0.380  -0.049  -0.057
  10.00000  10.00000  10.00000
