[ moleculetype ]
; name        nrexcl
res           1

[ atoms ]
;    nr  type resnr resid  atom  cgnr     charge       mass
      1 SC4       1 res   C1        1      0.000     54.000
      2 TN6a      1 res   C2        2      0.000     36.000
      3 TN4a      1 res   C3        3      0.000     36.000
      4 SN3r      1 res   C4        4      0.000     54.000
      5 N6a       1 res   C5        5      0.000     72.000
      6 TC3       1 res   C6        6      0.000     36.000
      7 TP1d      1 res   C7        7      0.000     36.000
      8 TX3       1 res   C8        8      0.000     36.000
      9 TC3       1 res   C9        9      0.000     36.000
     10 TN6       1 res   C10      10      0.000     36.000
     11 SC4       1 res   C11      11      0.000     54.000

[ bonds ]
;  ai    aj   funct      b0(nm)        k
    1     2     1      0.25348    20000
    1     3     1      0.29980    20000
    1     4     1      0.33075    20000
    2     3     1      0.26205    20000
    3     9     1      0.27096    20000
    4     5     1      0.37723    20000
    4     7     1      0.28171    20000
    5     6     1      0.30313    20000
    7     8     1      0.22933    20000
    7     9     1      0.30758    20000
    9    10     1      0.26165    20000
    9    11     1      0.29083    20000
   10    11     1      0.34904    20000
