1TPCN03608
13
    1res  C1    1    0.488  -0.033  -0.171
    1res  C2    2    0.574  -0.123   0.096
    1res  C3    3    0.374   0.081   0.217
    1res  C4    4    0.217  -0.153   0.222
    1res  C5    5    0.136   0.008   0.046
    1res  C6    6    0.103  -0.191  -0.114
    1res  C7    7    0.053   0.210  -0.102
    1res  C8    8   -0.073   0.087   0.120
    1res  C9    9   -0.309   0.142  -0.002
    1res  C10   10   -0.359   0.155  -0.257
    1res  C11   11   -0.576  -0.011  -0.261
    1res  C12   12   -0.578  -0.048  -0.001
    1res  C13   13   -0.263  -0.125   0.170
  10.00000  10.00000  10.00000
