1TPCN03707
30
    1res  C1    1   -1.259  -0.318   0.078
    1res  C2    2   -1.087  -0.211  -0.059
    1res  C3    3   -0.897  -0.071  -0.077
    1res  C4    4   -0.656  -0.070   0.105
    1res  C5    5   -0.917   0.272   0.067
    1res  C6    6   -0.545   0.022  -0.218
    1res  C7    7   -0.744   0.073  -0.489
    1res  C8    8   -0.420  -0.158  -0.105
    1res  C9    9   -0.310  -0.024   0.206
    1res  C10   10   -0.265   0.098  -0.020
    1res  C11   11    0.005  -0.155   0.019
    1res  C12   12    0.104   0.084   0.124
    1res  C13   13    0.222   0.043  -0.204
    1res  C14   14    0.446   0.216  -0.233
    1res  C15   15    0.627   0.174  -0.517
    1res  C16   16    0.695   0.312  -0.195
    1res  C17   17    0.976   0.074  -0.223
    1res  C18   18    1.102   0.030  -0.036
    1res  C19   19    0.843  -0.087  -0.081
    1res  C20   20    0.608  -0.315  -0.030
    1res  C21   21    0.681  -0.460   0.184
    1res  C22   22    0.893  -0.334   0.111
    1res  C23   23    0.545   0.241   0.011
    1res  C24   24    0.679   0.278   0.279
    1res  C25   25    0.909   0.242   0.443
    1res  C26   26    0.530   0.257   0.500
    1res  C27   27    0.396   0.257   0.258
    1res  C28   28    0.250  -0.200  -0.120
    1res  C29   29   -0.137   0.064  -0.241
    1res  C30   30   -0.863  -0.157   0.265
  10.00000  10.00000  10.00000
