1TPCN02406
17
    1res  C1    1   -0.486   0.029   0.222
    1res  C2    2   -0.418  -0.092  -0.008
    1res  C3    3   -0.126  -0.136  -0.147
    1res  C4    4   -0.385  -0.361  -0.285
    1res  C5    5   -0.266   0.057  -0.248
    1res  C6    6   -0.136   0.358  -0.169
    1res  C7    7   -0.184   0.060   0.070
    1res  C8    8    0.077  -0.015   0.041
    1res  C9    9    0.129   0.171   0.151
    1res  C10   10   -0.009   0.103   0.379
    1res  C11   11    0.038   0.399   0.404
    1res  C12   12   -0.111  -0.175   0.195
    1res  C13   13    0.359  -0.060   0.102
    1res  C14   14    0.474   0.049  -0.088
    1res  C15   15    0.632   0.065  -0.244
    1res  C16   16    0.898  -0.102  -0.350
    1res  C17   17    0.665  -0.185  -0.076
  10.00000  10.00000  10.00000
