[ moleculetype ]
; name        nrexcl
res           1

[ atoms ]
;    nr  type resnr resid  atom  cgnr     charge       mass
      1 TC4       1 res   C1        1      0.000     36.000
      2 TC3       1 res   C2        2      0.000     36.000
      3 TC5       1 res   C3        3      0.000     36.000
      4 TC5       1 res   C4        4      0.000     36.000
      5 TN6a      1 res   C5        5      0.000     36.000
      6 SC4       1 res   C6        6      0.000     54.000
      7 SC3       1 res   C7        7      0.000     54.000
      8 TC3       1 res   C8        8      0.000     36.000
      9 TC3       1 res   C9        9      0.000     36.000
     10 SN4a      1 res   C10      10      0.000     54.000
     11 C1        1 res   C11      11      0.000     72.000
     12 TN6       1 res   C12      12      0.000     36.000

[ bonds ]
;  ai    aj   funct      b0(nm)        k
    1     2     1      0.31439    20000
    1    12     1      0.25426    20000
    2     3     1      0.24740    20000
    2     9     1      0.30672    20000
    3     4     1      0.22799    20000
    3     8     1      0.26818    20000
    3     9     1      0.29510    20000
    3    12     1      0.23158    20000
    4     5     1      0.28150    20000
    4     6     1      0.28108    20000
    4     7     1      0.24346    20000
    4     8     1      0.24262    20000
    5     6     1      0.36708    20000
    6     7     1      0.34371    20000
    9    10     1      0.29443    20000
   10    11     1      0.29908    20000
