1TPCN02590
11
    1res  C1    1    0.049   0.006   0.238
    1res  C2    2   -0.237   0.106   0.050
    1res  C3    3   -0.155   0.357   0.018
    1res  C4    4   -0.419   0.002  -0.022
    1res  C5    5   -0.287  -0.260  -0.079
    1res  C6    6   -0.082  -0.470   0.071
    1res  C7    7    0.114  -0.193   0.073
    1res  C8    8    0.288   0.074  -0.076
    1res  C9    9    0.510   0.274   0.059
    1res  C10   10    0.427   0.145  -0.305
    1res  C11   11    0.289  -0.097  -0.259
  10.00000  10.00000  10.00000
