1TPCN01643
6
    1res  C1    1   -0.299   0.015   0.205
    1res  C2    2   -0.202  -0.065  -0.071
    1res  C3    3   -0.110   0.200  -0.027
    1res  C4    4    0.097   0.066  -0.096
    1res  C5    5    0.288   0.034   0.087
    1res  C6    6    0.142  -0.242  -0.059
  10.00000  10.00000  10.00000
