1TPCN03133
13
    1res  C1    1    0.166   0.279  -0.005
    1res  C2    2    0.302  -0.051   0.051
    1res  C3    3    0.535   0.171  -0.037
    1res  C4    4    0.632  -0.066  -0.178
    1res  C5    5    0.483  -0.158  -0.007
    1res  C6    6    0.115   0.035   0.155
    1res  C7    7   -0.044  -0.158   0.212
    1res  C8    8   -0.113   0.117   0.185
    1res  C9    9   -0.087  -0.195  -0.050
    1res  C10   10   -0.353  -0.077  -0.131
    1res  C11   11   -0.494   0.061   0.061
    1res  C12   12   -0.547   0.259   0.122
    1res  C13   13   -0.655  -0.055  -0.086
  10.00000  10.00000  10.00000
