1TPCN03211
14
    1res  C1    1   -0.094  -0.065   0.250
    1res  C2    2   -0.163  -0.063  -0.098
    1res  C3    3    0.140  -0.025  -0.056
    1res  C4    4    0.410   0.034   0.073
    1res  C5    5    0.396  -0.039   0.287
    1res  C6    6    0.675   0.010   0.028
    1res  C7    7    0.515   0.012  -0.166
    1res  C8    8    0.117  -0.069  -0.346
    1res  C9    9   -0.093  -0.167  -0.283
    1res  C10   10   -0.246   0.101   0.059
    1res  C11   11   -0.463   0.207  -0.026
    1res  C12   12   -0.390   0.167   0.249
    1res  C13   13   -0.650  -0.011   0.102
    1res  C14   14   -0.434  -0.138   0.023
  10.00000  10.00000  10.00000
