1TPCN02248
16
    1res  C1    1   -0.652   0.066   0.282
    1res  C2    2   -0.380   0.219   0.195
    1res  C3    3   -0.305  -0.031   0.237
    1res  C4    4   -0.056   0.096   0.046
    1res  C5    5   -0.003  -0.170  -0.012
    1res  C6    6    0.304  -0.097  -0.107
    1res  C7    7    0.342  -0.239  -0.315
    1res  C8    8    0.383  -0.449  -0.195
    1res  C9    9    0.571  -0.148  -0.185
    1res  C10   10    0.388   0.104   0.054
    1res  C11   11    0.338   0.200   0.358
    1res  C12   12   -0.098  -0.165  -0.235
    1res  C13   13   -0.340  -0.028  -0.348
    1res  C14   14   -0.011   0.088  -0.409
    1res  C15   15   -0.298   0.217  -0.134
    1res  C16   16   -0.572   0.038   0.016
  10.00000  10.00000  10.00000
