1TPCN03392
13
    1res  C1    1   -0.236  -0.400   0.327
    1res  C2    2   -0.137  -0.229   0.056
    1res  C3    3   -0.142   0.019   0.216
    1res  C4    4   -0.359  -0.020   0.001
    1res  C5    5   -0.184   0.160  -0.207
    1res  C6    6   -0.005   0.170   0.020
    1res  C7    7    0.225   0.239  -0.083
    1res  C8    8    0.204   0.050   0.099
    1res  C9    9    0.380  -0.022  -0.137
    1res  C10   10    0.420  -0.320  -0.216
    1res  C11   11    0.096   0.431  -0.049
    1res  C12   12    0.173   0.456  -0.302
    1res  C13   13   -0.319   0.412   0.194
  10.00000  10.00000  10.00000
