1TPCN02800
9
    1res  C1    1    0.546   0.096   0.043
    1res  C2    2    0.302   0.075   0.078
    1res  C3    3    0.257  -0.153  -0.114
    1res  C4    4    0.104  -0.021   0.039
    1res  C5    5   -0.042   0.131   0.155
    1res  C6    6   -0.090  -0.199   0.083
    1res  C7    7   -0.407  -0.001   0.136
    1res  C8    8   -0.347   0.235  -0.098
    1res  C9    9   -0.251  -0.173  -0.140
  10.00000  10.00000  10.00000
