1TPCN02854
13
    1res  C1    1   -0.291   0.322  -0.187
    1res  C2    2   -0.317   0.070  -0.145
    1res  C3    3   -0.121  -0.129  -0.129
    1res  C4    4   -0.370  -0.265  -0.138
    1res  C5    5   -0.317  -0.038   0.156
    1res  C6    6   -0.119   0.128   0.381
    1res  C7    7   -0.071   0.098   0.007
    1res  C8    8    0.095  -0.119   0.060
    1res  C9    9    0.258  -0.031   0.171
    1res  C10   10    0.342   0.064  -0.118
    1res  C11   11    0.613   0.086   0.019
    1res  C12   12    0.098   0.118  -0.130
    1res  C13   13    0.354  -0.343  -0.024
  10.00000  10.00000  10.00000
