1TPCN02744
9
    1res  C1    1    0.584  -0.118   0.097
    1res  C2    2    0.279  -0.006  -0.147
    1res  C3    3    0.100  -0.003   0.013
    1res  C4    4   -0.119  -0.199  -0.123
    1res  C5    5   -0.230   0.098  -0.110
    1res  C6    6   -0.476  -0.027  -0.045
    1res  C7    7   -0.430  -0.254   0.142
    1res  C8    8   -0.295   0.169   0.144
    1res  C9    9    0.128   0.231  -0.029
  10.00000  10.00000  10.00000
