1TPCN02295
20
    1res  C1    1   -0.289  -0.236  -0.363
    1res  C2    2   -0.054  -0.134  -0.218
    1res  C3    3   -0.082   0.011   0.043
    1res  C4    4    0.250  -0.034  -0.067
    1res  C5    5    0.300   0.209  -0.253
    1res  C6    6    0.387   0.451  -0.276
    1res  C7    7    0.545   0.328  -0.113
    1res  C8    8    0.641   0.142  -0.020
    1res  C9    9    0.819  -0.014   0.059
    1res  C10   10    1.019  -0.057   0.377
    1res  C11   11   -0.069  -0.323   0.041
    1res  C12   12   -0.373  -0.445   0.118
    1res  C13   13   -0.295  -0.108  -0.061
    1res  C14   14   -0.329   0.023   0.179
    1res  C15   15   -0.543  -0.031   0.162
    1res  C16   16   -0.575   0.067  -0.088
    1res  C17   17   -0.858   0.063  -0.013
    1res  C18   18   -0.322   0.176  -0.121
    1res  C19   19   -0.482   0.206   0.409
    1res  C20   20   -0.014   0.280  -0.099
  10.00000  10.00000  10.00000
