1TPCN00523
12
    1res  C1    1   -0.607  -0.072   0.047
    1res  C2    2   -0.367  -0.166   0.106
    1res  C3    3   -0.179  -0.058   0.162
    1res  C4    4   -0.148  -0.201  -0.100
    1res  C5    5   -0.177   0.063  -0.070
    1res  C6    6    0.031  -0.017   0.154
    1res  C7    7    0.112  -0.236  -0.076
    1res  C8    8    0.211  -0.091  -0.034
    1res  C9    9    0.440  -0.170  -0.097
    1res  C10   10    0.332   0.082   0.034
    1res  C11   11    0.661   0.108   0.003
    1res  C12   12    0.125   0.355  -0.087
  10.00000  10.00000  10.00000
