1TPCN03674
21
    1res  C1    1   -0.413  -0.374  -0.239
    1res  C2    2   -0.333  -0.107  -0.252
    1res  C3    3   -0.327  -0.108   0.040
    1res  C4    4   -0.498   0.069   0.018
    1res  C5    5   -0.734   0.227  -0.036
    1res  C6    6   -0.924   0.067  -0.015
    1res  C7    7   -0.830   0.458   0.023
    1res  C8    8   -0.527   0.413  -0.027
    1res  C9    9   -0.136   0.102  -0.046
    1res  C10   10   -0.160  -0.019   0.198
    1res  C11   11    0.006  -0.286  -0.047
    1res  C12   12    0.085  -0.161   0.258
    1res  C13   13    0.360  -0.264   0.095
    1res  C14   14    0.361  -0.048  -0.117
    1res  C15   15    0.598  -0.048  -0.025
    1res  C16   16    0.896   0.060  -0.147
    1res  C17   17    0.843   0.317  -0.213
    1res  C18   18    0.678   0.103  -0.322
    1res  C19   19    0.598  -0.070   0.223
    1res  C20   20    0.225   0.074   0.194
    1res  C21   21   -0.414  -0.368   0.041
  10.00000  10.00000  10.00000
