[ moleculetype ]
; name        nrexcl
res           1

[ atoms ]
;    nr  type resnr resid  atom  cgnr     charge       mass
      1 SC4       1 res   C1        1      0.000     54.000
      2 TN6a      1 res   C2        2      0.000     36.000
      3 TN4a      1 res   C3        3      0.000     36.000
      4 N4a       1 res   C4        4      0.000     72.000
      5 C4        1 res   C5        5      0.000     72.000
      6 TN6       1 res   C6        6      0.000     36.000
      7 TN4a      1 res   C7        7      0.000     36.000
      8 SC4       1 res   C8        8      0.000     54.000
      9 P1        1 res   C9        9      0.000     72.000
     10 N4a       1 res   C10      10      0.000     72.000
     11 C4        1 res   C11      11      0.000     72.000

[ bonds ]
;  ai    aj   funct      b0(nm)        k
    1     2     1      0.25542    20000
    1     3     1      0.29662    20000
    1     4     1      0.33348    20000
    2     3     1      0.26678    20000
    3    10     1      0.29648    20000
    4     5     1      0.34294    20000
    4     6     1      0.23016    20000
    6     7     1      0.27172    20000
    6     8     1      0.30801    20000
    7     8     1      0.29355    20000
    7     9     1      0.30800    20000
    9    10     1      0.30557    20000
   10    11     1      0.39744    20000
