[ moleculetype ]
; name        nrexcl
res           1

[ atoms ]
;    nr  type resnr resid  atom  cgnr     charge       mass
      1 SC2       1 res   C1        1      0.000     54.000
      2 SN6       1 res   C2        2      0.000     54.000
      3 SN6       1 res   C3        3      0.000     54.000
      4 SP4       1 res   C4        4      0.000     54.000
      5 SC4       1 res   C5        5      0.000     54.000
      6 SC4       1 res   C6        6      0.000     54.000
      7 SC3       1 res   C7        7      0.000     54.000
      8 SN6       1 res   C8        8      0.000     54.000

[ bonds ]
;  ai    aj   funct      b0(nm)        k
    1     2     1      0.28357    20000
    2     3     1      0.31283    20000
    2     8     1      0.30893    20000
    3     4     1      0.29905    20000
    3     5     1      0.27529    20000
    3     8     1      0.28003    20000
    4     5     1      0.32902    20000
    5     6     1      0.34471    20000
    5     7     1      0.26879    20000
    6     7     1      0.33386    20000
