1TPCN01104
11
    1res  C1    1   -0.189   0.325  -0.179
    1res  C2    2   -0.120   0.059   0.153
    1res  C3    3   -0.140   0.005  -0.183
    1res  C4    4    0.198   0.077  -0.002
    1res  C5    5    0.490   0.009   0.118
    1res  C6    6    0.682  -0.088   0.260
    1res  C7    7    0.436  -0.241   0.278
    1res  C8    8   -0.056  -0.233  -0.304
    1res  C9    9   -0.229  -0.160   0.020
    1res  C10   10   -0.407   0.094   0.208
    1res  C11   11   -0.310   0.333   0.152
  10.00000  10.00000  10.00000
