1TPCN02126
6
    1res  C1    1   -0.389  -0.220  -0.081
    1res  C2    2   -0.445   0.091  -0.100
    1res  C3    3   -0.256   0.056   0.101
    1res  C4    4    0.073   0.127   0.129
    1res  C5    5    0.163   0.020  -0.091
    1res  C6    6    0.503  -0.098  -0.030
  10.00000  10.00000  10.00000
