1TPCN03063
11
    1res  C1    1    0.201  -0.065  -0.410
    1res  C2    2    0.250  -0.165  -0.067
    1res  C3    3    0.168  -0.195   0.158
    1res  C4    4   -0.067  -0.025   0.315
    1res  C5    5   -0.260  -0.060   0.136
    1res  C6    6   -0.485  -0.034   0.039
    1res  C7    7   -0.357   0.117  -0.148
    1res  C8    8   -0.225   0.221   0.083
    1res  C9    9   -0.034   0.163  -0.111
    1res  C10   10    0.222   0.105   0.011
    1res  C11   11    0.456   0.002   0.093
  10.00000  10.00000  10.00000
