[ moleculetype ]
; name        nrexcl
res           1

[ atoms ]
;    nr  type resnr resid  atom  cgnr     charge       mass
      1 N4a       1 res   C1        1      0.000     72.000
      2 TC3       1 res   C2        2      0.000     36.000
      3 TC5       1 res   C3        3      0.000     36.000
      4 TC3       1 res   C4        4      0.000     36.000
      5 TC5       1 res   C5        5      0.000     36.000
      6 TN6d      1 res   C6        6      0.000     36.000
      7 TC5       1 res   C7        7      0.000     36.000
      8 TC5       1 res   C8        8      0.000     36.000
      9 TN2a      1 res   C9        9      0.000     36.000
     10 TC5       1 res   C10      10      0.000     36.000
     11 TC3       1 res   C11      11      0.000     36.000
     12 TN6d      1 res   C12      12      0.000     36.000
     13 TC3       1 res   C13      13      0.000     36.000
     14 SN4a      1 res   C14      14      0.000     54.000
     15 TC5       1 res   C15      15      0.000     36.000
     16 TC5       1 res   C16      16      0.000     36.000
     17 TN2a      1 res   C17      17      0.000     36.000
     18 TN2a      1 res   C18      18      0.000     36.000
     19 TC5       1 res   C19      19      0.000     36.000
     20 TN2a      1 res   C20      20      0.000     36.000
     21 TN3r      1 res   C21      21      0.000     36.000

[ bonds ]
;  ai    aj   funct      b0(nm)        k
    1     2     1      0.34992    20000
    2     3     1      0.21992    20000
    2    13     1      0.26834    20000
    2    21     1      0.26607    20000
    3     4     1      0.23855    20000
    3    12     1      0.23089    20000
    3    13     1      0.21958    20000
    4     5     1      0.26697    20000
    4    12     1      0.29293    20000
    5     6     1      0.21898    20000
    5     7     1      0.17600    20000
    5    11     1      0.24398    20000
    6     7     1      0.21839    20000
    7     8     1      0.22128    20000
    7    10     1      0.25013    20000
    8     9     1      0.33227    20000
    8    10     1      0.30510    20000
   11    12     1      0.29664    20000
   13    14     1      0.22922    20000
   14    15     1      0.24992    20000
   15    16     1      0.22400    20000
   15    19     1      0.27305    20000
   16    17     1      0.30780    20000
   16    18     1      0.26725    20000
   16    19     1      0.25925    20000
   19    20     1      0.25102    20000
