[ moleculetype ]
; name        nrexcl
res           1

[ atoms ]
;    nr  type resnr resid  atom  cgnr     charge       mass
      1 SC4       1 res   C1        1      0.000     54.000
      2 TC3       1 res   C2        2      0.000     36.000
      3 TC3       1 res   C3        3      0.000     36.000
      4 TN6       1 res   C4        4      0.000     36.000
      5 C1        1 res   C5        5      0.000     72.000
      6 SP1       1 res   C6        6      0.000     54.000
      7 TP1       1 res   C7        7      0.000     36.000

[ bonds ]
;  ai    aj   funct      b0(nm)        k
    1     2     1      0.30618    20000
    1     3     1      0.36571    20000
    1     4     1      0.25831    20000
    1     5     1      0.29489    20000
    2     3     1      0.28210    20000
    3     4     1      0.28214    20000
    5     6     1      0.33626    20000
    6     7     1      0.29307    20000
