[ moleculetype ]
; name        nrexcl
res           1

[ atoms ]
;    nr  type resnr resid  atom  cgnr     charge       mass
      1 TC3       1 res   C1        1      0.000     36.000
      2 TC3       1 res   C2        2      0.000     36.000
      3 TC4       1 res   C3        3      0.000     36.000
      4 TC3       1 res   C4        4      0.000     36.000
      5 TC3       1 res   C5        5      0.000     36.000
      6 TC5       1 res   C6        6      0.000     36.000
      7 TC5       1 res   C7        7      0.000     36.000
      8 TC5       1 res   C8        8      0.000     36.000
      9 TN6d      1 res   C9        9      0.000     36.000
     10 TN2a      1 res   C10      10      0.000     36.000
     11 TC3       1 res   C11      11      0.000     36.000
     12 SN4a      1 res   C12      12      0.000     54.000
     13 TC3       1 res   C13      13      0.000     36.000
     14 TN4a      1 res   C14      14      0.000     36.000

[ bonds ]
;  ai    aj   funct      b0(nm)        k
    1     2     1      0.26198    20000
    2     3     1      0.26921    20000
    2    13     1      0.26093    20000
    3     4     1      0.32044    20000
    3    13     1      0.31307    20000
    4     5     1      0.26186    20000
    5     6     1      0.18718    20000
    5     9     1      0.22918    20000
    5    10     1      0.18141    20000
    5    11     1      0.22933    20000
    5    14     1      0.24166    20000
    6     7     1      0.25060    20000
    6     8     1      0.25062    20000
    6     9     1      0.22421    20000
    7     8     1      0.29277    20000
   10    11     1      0.17095    20000
   11    12     1      0.26271    20000
   11    13     1      0.29450    20000
   13    14     1      0.25879    20000
