[ moleculetype ]
; name        nrexcl
res           1

[ atoms ]
;    nr  type resnr resid  atom  cgnr     charge       mass
      1 TC3       1 res   C1        1      0.000     36.000
      2 TN6d      1 res   C2        2      0.000     36.000
      3 SC5       1 res   C3        3      0.000     54.000
      4 SN3r      1 res   C4        4      0.000     54.000
      5 TC3       1 res   C5        5      0.000     36.000
      6 TN6       1 res   C6        6      0.000     36.000
      7 TC5       1 res   C7        7      0.000     36.000
      8 TC5       1 res   C8        8      0.000     36.000
      9 TC3       1 res   C9        9      0.000     36.000
     10 TC3       1 res   C10      10      0.000     36.000
     11 TN3r      1 res   C11      11      0.000     36.000
     12 SN6       1 res   C12      12      0.000     54.000
     13 TN6       1 res   C13      13      0.000     36.000
     14 TN3r      1 res   C14      14      0.000     36.000

[ bonds ]
;  ai    aj   funct      b0(nm)        k
    1     2     1      0.29601    20000
    2     3     1      0.26213    20000
    2     7     1      0.28850    20000
    3     4     1      0.36503    20000
    3     5     1      0.33307    20000
    3     7     1      0.26316    20000
    3    12     1      0.32871    20000
    3    14     1      0.30708    20000
    5     6     1      0.25589    20000
    6     7     1      0.26298    20000
    7     8     1      0.27352    20000
    7    12     1      0.28955    20000
    8     9     1      0.25887    20000
    8    12     1      0.30969    20000
    8    13     1      0.25406    20000
    9    10     1      0.31909    20000
    9    13     1      0.29908    20000
   10    11     1      0.26094    20000
   10    12     1      0.27594    20000
