1TPCN01173
8
    1res  C1    1    0.107   0.245  -0.048
    1res  C2    2    0.042   0.243  -0.294
    1res  C3    3   -0.013   0.007  -0.190
    1res  C4    4    0.151  -0.059   0.074
    1res  C5    5    0.480  -0.038  -0.019
    1res  C6    6   -0.065  -0.175   0.241
    1res  C7    7   -0.241  -0.149   0.006
    1res  C8    8   -0.332   0.124  -0.087
  10.00000  10.00000  10.00000
