[ moleculetype ]
; name        nrexcl
res           1

[ atoms ]
;    nr  type resnr resid  atom  cgnr     charge       mass
      1 SC4       1 res   C1        1      0.000     54.000
      2 TC3       1 res   C2        2      0.000     36.000
      3 TC5       1 res   C3        3      0.000     36.000
      4 SN4a      1 res   C4        4      0.000     54.000
      5 SN4a      1 res   C5        5      0.000     54.000
      6 TP1       1 res   C6        6      0.000     36.000
      7 SP4       1 res   C7        7      0.000     54.000
      8 TN6       1 res   C8        8      0.000     36.000
      9 TN4a      1 res   C9        9      0.000     36.000
     10 TC4       1 res   C10      10      0.000     36.000
     11 SP4       1 res   C11      11      0.000     54.000
     12 TN6       1 res   C12      12      0.000     36.000
     13 TC3       1 res   C13      13      0.000     36.000
     14 SC4       1 res   C14      14      0.000     54.000
     15 TC3       1 res   C15      15      0.000     36.000
     16 SC4       1 res   C16      16      0.000     54.000
     17 SC4       1 res   C17      17      0.000     54.000
     18 SN6       1 res   C18      18      0.000     54.000
     19 SN6       1 res   C19      19      0.000     54.000
     20 SN4a      1 res   C20      20      0.000     54.000
     21 TP1       1 res   C21      21      0.000     36.000
     22 SP4       1 res   C22      22      0.000     54.000
     23 TN6       1 res   C23      23      0.000     36.000
     24 TP1       1 res   C24      24      0.000     36.000
     25 TC3       1 res   C25      25      0.000     36.000

[ bonds ]
;  ai    aj   funct      b0(nm)        k
    1     2     1      0.31600    20000
    1     3     1      0.29509    20000
    2     3     1      0.29766    20000
    3     4     1      0.23795    20000
    3    13     1      0.28079    20000
    3    14     1      0.30700    20000
    4     5     1      0.27481    20000
    5     6     1      0.30532    20000
    5     7     1      0.26261    20000
    5     8     1      0.27357    20000
    7     8     1      0.27349    20000
    8     9     1      0.20325    20000
    9    10     1      0.32203    20000
    9    12     1      0.24793    20000
   10    11     1      0.32026    20000
   11    12     1      0.28447    20000
   13    14     1      0.26508    20000
   14    15     1      0.32662    20000
   14    16     1      0.27349    20000
   15    16     1      0.37813    20000
   16    17     1      0.34662    20000
   16    25     1      0.30952    20000
   17    18     1      0.30254    20000
   17    19     1      0.33606    20000
   17    25     1      0.32327    20000
   18    19     1      0.32764    20000
   19    20     1      0.39341    20000
   19    24     1      0.24748    20000
   20    21     1      0.31574    20000
   20    22     1      0.29392    20000
   20    23     1      0.27074    20000
   22    23     1      0.30612    20000
