1TPCN02478
9
    1res  C1    1    0.414   0.102   0.093
    1res  C2    2    0.088   0.180   0.044
    1res  C3    3   -0.128   0.078   0.093
    1res  C4    4   -0.381  -0.005   0.023
    1res  C5    5   -0.173  -0.269  -0.003
    1res  C6    6   -0.051   0.058  -0.131
    1res  C7    7    0.288  -0.031  -0.166
    1res  C8    8    0.168  -0.157   0.084
    1res  C9    9   -0.278   0.172  -0.163
  10.00000  10.00000  10.00000
