1TPCN03293
18
    1res  C1    1   -0.200  -0.219   0.198
    1res  C2    2   -0.389  -0.013   0.193
    1res  C3    3   -0.634   0.056   0.095
    1res  C4    4   -0.741   0.323  -0.012
    1res  C5    5   -0.812  -0.015  -0.113
    1res  C6    6   -0.558  -0.181  -0.079
    1res  C7    7   -0.023  -0.072   0.372
    1res  C8    8    0.040   0.114   0.171
    1res  C9    9    0.142  -0.024  -0.024
    1res  C10   10    0.199  -0.262  -0.037
    1res  C11   11    0.088  -0.154  -0.261
    1res  C12   12   -0.130   0.061  -0.083
    1res  C13   13    0.211   0.085  -0.209
    1res  C14   14    0.284   0.016  -0.449
    1res  C15   15    0.546   0.014  -0.241
    1res  C16   16    0.540   0.016   0.011
    1res  C17   17    0.522   0.074   0.224
    1res  C18   18    0.762   0.131  -0.055
  10.00000  10.00000  10.00000
