[ moleculetype ]
; name        nrexcl
res           1

[ atoms ]
;    nr  type resnr resid  atom  cgnr     charge       mass
      1 N4a       1 res   C1        1      0.000     72.000
      2 SC4       1 res   C2        2      0.000     54.000
      3 TC3       1 res   C3        3      0.000     36.000
      4 TC5       1 res   C4        4      0.000     36.000
      5 SN4a      1 res   C5        5      0.000     54.000
      6 SN4a      1 res   C6        6      0.000     54.000
      7 TP1       1 res   C7        7      0.000     36.000
      8 SP4       1 res   C8        8      0.000     54.000
      9 TN6       1 res   C9        9      0.000     36.000
     10 TC3       1 res   C10      10      0.000     36.000
     11 SC4       1 res   C11      11      0.000     54.000
     12 TC3       1 res   C12      12      0.000     36.000
     13 SC4       1 res   C13      13      0.000     54.000
     14 SC4       1 res   C14      14      0.000     54.000
     15 TC3       1 res   C15      15      0.000     36.000
     16 SN6       1 res   C16      16      0.000     54.000
     17 SN4a      1 res   C17      17      0.000     54.000
     18 SP4       1 res   C18      18      0.000     54.000
     19 TN6       1 res   C19      19      0.000     36.000
     20 TP1       1 res   C20      20      0.000     36.000
     21 TC3       1 res   C21      21      0.000     36.000

[ bonds ]
;  ai    aj   funct      b0(nm)        k
    1     2     1      0.36022    20000
    2     3     1      0.27582    20000
    2     4     1      0.24945    20000
    3     4     1      0.27160    20000
    4     5     1      0.24462    20000
    4    10     1      0.29901    20000
    4    11     1      0.35068    20000
    5     6     1      0.24108    20000
    6     7     1      0.29511    20000
    6     8     1      0.27563    20000
    6     9     1      0.25251    20000
    8     9     1      0.28725    20000
   10    11     1      0.27900    20000
   11    12     1      0.31228    20000
   11    13     1      0.34487    20000
   12    13     1      0.32038    20000
   13    14     1      0.34749    20000
   13    21     1      0.30857    20000
   14    15     1      0.28412    20000
   14    16     1      0.38025    20000
   14    21     1      0.36636    20000
   15    16     1      0.35507    20000
   16    17     1      0.36362    20000
   16    20     1      0.27398    20000
   17    18     1      0.25283    20000
   17    19     1      0.27807    20000
   18    19     1      0.29025    20000
