1TPCN01222
12
    1res  C1    1   -0.092   0.313   0.021
    1res  C2    2   -0.177   0.047  -0.202
    1res  C3    3   -0.074  -0.244   0.077
    1res  C4    4   -0.283  -0.310  -0.082
    1res  C5    5   -0.324  -0.159   0.212
    1res  C6    6   -0.420  -0.043  -0.010
    1res  C7    7   -0.006  -0.003   0.053
    1res  C8    8    0.227   0.071   0.003
    1res  C9    9    0.358   0.243  -0.225
    1res  C10   10    0.504  -0.033  -0.091
    1res  C11   11    0.431  -0.159   0.066
    1res  C12   12    0.280  -0.075   0.230
  10.00000  10.00000  10.00000
