1TPCN01326
9
    1res  C1    1    0.550   0.126   0.086
    1res  C2    2    0.317   0.034   0.110
    1res  C3    3    0.111  -0.046   0.124
    1res  C4    4    0.212   0.070  -0.140
    1res  C5    5   -0.046   0.081  -0.221
    1res  C6    6   -0.298   0.271  -0.058
    1res  C7    7   -0.130  -0.057   0.002
    1res  C8    8   -0.393  -0.190   0.034
    1res  C9    9   -0.136  -0.317   0.145
  10.00000  10.00000  10.00000
