1TPCN02943
19
    1res  C1    1   -0.352  -0.318   0.166
    1res  C2    2   -0.369  -0.122  -0.004
    1res  C3    3   -0.202   0.093  -0.078
    1res  C4    4   -0.372   0.230  -0.226
    1res  C5    5   -0.264   0.190   0.150
    1res  C6    6   -0.631   0.329   0.050
    1res  C7    7   -0.228   0.035   0.403
    1res  C8    8   -0.106  -0.079   0.112
    1res  C9    9    0.147   0.096   0.032
    1res  C10   10    0.208   0.005   0.266
    1res  C11   11    0.199  -0.256   0.099
    1res  C12   12    0.408  -0.332   0.248
    1res  C13   13   -0.032  -0.122  -0.110
    1res  C14   14    0.258  -0.207  -0.322
    1res  C15   15    0.372   0.151  -0.095
    1res  C16   16    0.566   0.282  -0.097
    1res  C17   17    0.817   0.300  -0.149
    1res  C18   18    0.706   0.039  -0.210
    1res  C19   19   -0.135  -0.196  -0.334
  10.00000  10.00000  10.00000
