1TPCN01564
16
    1res  C1    1   -0.191   0.377  -0.315
    1res  C2    2   -0.114   0.318   0.042
    1res  C3    3    0.201   0.304   0.125
    1res  C4    4   -0.019   0.077   0.168
    1res  C5    5    0.060   0.150  -0.151
    1res  C6    6    0.164   0.018  -0.227
    1res  C7    7   -0.009  -0.137  -0.050
    1res  C8    8   -0.192  -0.240   0.009
    1res  C9    9   -0.250  -0.354   0.206
    1res  C10   10   -0.441  -0.440   0.357
    1res  C11   11   -0.534  -0.321   0.108
    1res  C12   12   -0.434   0.069   0.173
    1res  C13   13    0.420   0.078   0.070
    1res  C14   14    0.531  -0.064  -0.085
    1res  C15   15    0.585  -0.306  -0.156
    1res  C16   16    0.436  -0.288   0.094
  10.00000  10.00000  10.00000
