1TPCN06104
12
    1res  C1    1    0.773   0.037   0.165
    1res  C2    2    0.367   0.140   0.062
    1res  C3    3    0.248   0.091  -0.232
    1res  C4    4    0.148  -0.224  -0.032
    1res  C5    5    0.012  -0.003  -0.222
    1res  C6    6    0.006   0.102   0.137
    1res  C7    7   -0.223  -0.134  -0.067
    1res  C8    8   -0.372   0.138   0.067
    1res  C9    9   -0.587  -0.052   0.300
    1res  C10   10   -0.610   0.159   0.094
    1res  C11   11   -0.328   0.081  -0.204
    1res  C12   12    0.526  -0.084  -0.138
  10.00000  10.00000  10.00000
