[ moleculetype ]
; name        nrexcl
res           1

[ atoms ]
;    nr  type  resnr resid  atom  cgnr     charge       mass
      1 TN2a      1 res   C1        1      0.000     36.000
      2 TC5       1 res   C2        2      0.000     36.000
      3 TC5       1 res   C3        3      0.000     36.000
      4 TC5       1 res   C4        4      0.000     36.000
      5 TN4a      1 res   C5        5      0.000     36.000
      6 TN3r      1 res   C6        6      0.000     36.000
      7 SN4a      1 res   C7        7      0.000     54.000
      8 SN3r      1 res   C8        8      0.000     54.000
      9 TC3       1 res   C9        9      0.000     36.000
     10 TN4a      1 res   C10      10      0.000     36.000
     11 SC4       1 res   C11      11      0.000     54.000
     12 TN6a      1 res   C12      12      0.000     36.000
     13 SP4       1 res   C13      13      0.000     54.000
     14 TN6       1 res   C14      14      0.000     36.000
     15 SN6       1 res   C15      15      0.000     54.000

[ constraints ]
;  ai    aj   funct      b0(nm)
    3    15     1      0.33856
    2     3     1      0.22127
    4     5     1      0.20938
    2    15     1      0.32219
    3     4     1      0.22831
    5     6     1      0.23314
    9    10     1      0.21519
    6     7     1      0.30210
    9    12     1      0.29537
   10    12     1      0.26735
    8     9     1      0.26824

[ bonds ]
;  ai    aj   funct      b0(nm)          k(kJ/mol/nm^2)
    1     2     1      0.30403           3123.8
    7    13     1      0.26273          12678.7
   10    11     1      0.30749          15724.5
   13    14     1      0.24893           5357.0
    7     8     1      0.29264           7652.0
    7    14     1      0.26462          10426.1

[ angles ]
;  ai    aj    ak  funct     th0(deg)        k(kJ/mol/rad^2)
    1     2     3     1    142.02121            66.37
    1     2    15     1     70.99002            64.90
    2     3     4     1    161.94634           839.99
    2     3    15     1     66.49552          1146.72
    2    15     3     1     39.01099          8825.21
    3     2    15     1     74.49416          1684.57
    3     4     5     1    165.78982           279.60
    4     3    15     1     97.17859           913.06
    4     5     6     1    130.94445           519.53
    5     6     7     1     94.46436           134.76
    6     7     8     1    120.71768           125.56
    6     7    13     1    111.71597           428.53
    6     7    14     1     65.80460           141.71
    7     8     9     1     79.31157            90.62
    7    13    14     1     61.97558           314.01
    7    14    13     1     61.76512           162.64
    8     7    13     1    119.59879           131.14
    8     7    14     1    133.09790            13.78
    8     9    10     1    140.66633           272.86
    8     9    12     1     83.29033          1587.35
    9    10    11     1    107.82530            36.20
    9    10    12     1     74.61961          2435.58
    9    12    10     1     44.61025          6104.81
   10     9    12     1     60.77005          2680.68
   11    10    12     1    111.49974            52.68
   13     7    14     1     56.24402           207.20

[ dihedrals ]
;  ai    aj    ak    al  funct   phi0(deg)        k(kJ/mol)   mult
    1     2     3     4     1   -167.90094       29.749      1
    1     2     3    15     1   -179.20238       26.826      1
    1     2    15     3     1     -0.18056       21.541      1
    2     3     4     5     1     12.41336       27.928      1
    2    15     3     4     1     -2.05567       15.004      1
    3     4     5     6     1    151.99130       26.431      1
    4     3     2    15     1   -177.02617       29.137      1
    4     5     6     7     1    -42.30674       22.859      1
    5     4     3    15     1     17.35953       29.284      1
    5     6     7     8     1   -121.03401       29.952      1
    5     6     7    13     1     88.91199       29.781      1
    5     6     7    14     1     99.90046       16.454      1
    6     7     8     9     1    124.88280       22.340      1
    6     7    13    14     1   -165.48742       25.739      1
    6     7    14    13     1     12.63708       28.126      1
    7     8     9    10     1    -21.86113       24.944      1
    7     8     9    12     1    -20.91967       19.107      1
    8     7    13    14     1     41.58370       25.341      1
    8     7    14    13     1    -31.92121       17.148      1
    8     9    10    11     1    -51.70968       28.255      1
    8     9    10    12     1   -164.07244       25.453      1
    8     9    12    10     1     12.14574       21.577      1
    9     8     7    13     1    -88.60405       19.751      1
    9     8     7    14     1   -176.29774       10.700      1
    9    12    10    11     1     77.06907       19.778      1
   11    10     9    12     1    -68.10844       19.112      1
