[ moleculetype ]
; name        nrexcl
res           1

[ atoms ]
;    nr  type  resnr resid  atom  cgnr     charge       mass
      1 TN6d      1 res   C1        1      0.000     36.000
      2 TN6a      1 res   C2        2      0.000     36.000
      3 TC5       1 res   C3        3      0.000     36.000
      4 N3r       1 res   C4        4      0.000     72.000

[ bonds ]
;  ai    aj   funct      b0(nm)          k(kJ/mol/nm^2)
    1     2     1      0.25821         148462.3
    1     3     1      0.20814          67522.6
    2     3     1      0.25246         229418.1
    3     4     1      0.39725           1569.0

[ angles ]
;  ai    aj    ak  funct     th0(deg)        k(kJ/mol/rad^2)
    1     2     3     1     48.08450          3695.35
    1     3     2     1     67.40187          3955.61
    1     3     4     1    146.24574            51.99
    2     1     3     1     64.51357          4348.91
    2     3     4     1     92.31621            30.77

[ dihedrals ]
;  ai    aj    ak    al  funct   phi0(deg)        k(kJ/mol)   mult
    1     2     3     4     1      3.33125       24.891      1
    1     2     3     4     1   -175.16815       17.179      2
    1     2     3     4     1     -2.73179        7.655      3
    2     1     3     4     1    145.39549       18.444      1
    2     1     3     4     1     53.42317       10.690      2
    2     1     3     4     1     29.54288       14.718      3
