1TPCN01724
13
    1res  C1    1   -0.127   0.035  -0.181
    1res  C2    2   -0.474  -0.005  -0.107
    1res  C3    3   -0.722   0.114   0.027
    1res  C4    4   -0.365  -0.174   0.101
    1res  C5    5   -0.195  -0.362   0.029
    1res  C6    6   -0.083  -0.156   0.130
    1res  C7    7    0.061   0.052   0.032
    1res  C8    8    0.175  -0.073   0.280
    1res  C9    9    0.216  -0.138  -0.047
    1res  C10   10    0.535  -0.149   0.076
    1res  C11   11    0.498   0.073  -0.097
    1res  C12   12    0.509   0.188  -0.275
    1res  C13   13    0.712   0.124   0.071
  10.00000  10.00000  10.00000
