Generated with MDTraj, t= 0.0
 53
    1UNL     C1    1   0.070  -0.119  -0.312
    1UNL     O1    2   0.021  -0.139  -0.183
    1UNL     C2    3   0.022  -0.021  -0.116
    1UNL     O2    4   0.053   0.085  -0.165
    1UNL     C3    5  -0.020  -0.025   0.031
    1UNL     C4    6  -0.073  -0.167   0.072
    1UNL     C5    7  -0.217  -0.159   0.128
    1UNL     C6    8  -0.310  -0.105   0.017
    1UNL     C7    9  -0.270   0.042  -0.017
    1UNL     C8   10  -0.271   0.069  -0.170
    1UNL     C9   11  -0.413   0.071  -0.225
    1UNL     O3   12  -0.204   0.190  -0.202
    1UNL    C10   13  -0.137   0.077   0.056
    1UNL     N1   14  -0.166   0.076   0.203
    1UNL    C11   15  -0.052   0.124   0.286
    1UNL    C12   16   0.071   0.036   0.268
    1UNL    C13   17   0.106   0.013   0.119
    1UNL     N2   18   0.177   0.133   0.065
    1UNL    C14   19   0.304   0.097   0.018
    1UNL    C15   20   0.397   0.174  -0.052
    1UNL    C16   21   0.515   0.114  -0.091
    1UNL    C17   22   0.541  -0.019  -0.063
    1UNL    C18   23   0.449  -0.096   0.005
    1UNL    C19   24   0.330  -0.038   0.045
    1UNL    C20   25   0.214  -0.096   0.111
    1UNL     O4   26   0.203  -0.208   0.154
    1UNL    C21   27  -0.220  -0.058   0.246
    1UNL     H1   28   0.072  -0.215  -0.365
    1UNL     H2   29   0.005  -0.049  -0.365
    1UNL     H3   30   0.171  -0.078  -0.306
    1UNL     H4   31  -0.006  -0.212   0.146
    1UNL     H5   32  -0.069  -0.233  -0.015
    1UNL     H6   33  -0.251  -0.258   0.163
    1UNL     H7   34  -0.415  -0.111   0.048
    1UNL     H8   35  -0.301  -0.167  -0.072
    1UNL     H9   36  -0.345   0.109   0.026
    1UNL    H10   37  -0.216  -0.013  -0.219
    1UNL    H11   38  -0.466  -0.022  -0.206
    1UNL    H12   39  -0.470   0.152  -0.179
    1UNL    H13   40  -0.413   0.089  -0.332
    1UNL    H14   41  -0.107   0.173  -0.194
    1UNL    H15   42  -0.104   0.177   0.028
    1UNL    H16   43  -0.030   0.227   0.258
    1UNL    H17   44  -0.084   0.127   0.391
    1UNL    H18   45   0.057  -0.061   0.316
    1UNL    H19   46   0.158   0.081   0.317
    1UNL    H20   47   0.118   0.192   0.006
    1UNL    H21   48   0.375   0.276  -0.075
    1UNL    H22   49   0.588   0.172  -0.145
    1UNL    H23   50   0.634  -0.064  -0.094
    1UNL    H24   51   0.466  -0.200   0.026
    1UNL    H25   52  -0.162  -0.096   0.331
    1UNL    H26   53  -0.322  -0.043   0.282
   0.00000   0.00000   0.00000   0.00000   0.00000   0.00000   0.00000   0.00000   0.00000
Generated with MDTraj, t= 1.0
 53
    1UNL     C1    1   0.075  -0.099  -0.321
    1UNL     O1    2   0.042  -0.122  -0.189
    1UNL     C2    3   0.017  -0.009  -0.118
    1UNL     O2    4   0.027   0.100  -0.164
    1UNL     C3    5  -0.025  -0.023   0.031
    1UNL     C4    6  -0.078  -0.161   0.062
    1UNL     C5    7  -0.219  -0.160   0.121
    1UNL     C6    8  -0.319  -0.098   0.025
    1UNL     C7    9  -0.266   0.044  -0.016
    1UNL     C8   10  -0.268   0.060  -0.167
    1UNL     C9   11  -0.406   0.051  -0.215
    1UNL     O3   12  -0.214   0.192  -0.201
    1UNL    C10   13  -0.137   0.083   0.063
    1UNL     N1   14  -0.168   0.080   0.207
    1UNL    C11   15  -0.057   0.125   0.283
    1UNL    C12   16   0.077   0.044   0.263
    1UNL    C13   17   0.105   0.004   0.114
    1UNL     N2   18   0.173   0.121   0.049
    1UNL    C14   19   0.306   0.088   0.009
    1UNL    C15   20   0.394   0.160  -0.065
    1UNL    C16   21   0.519   0.106  -0.092
    1UNL    C17   22   0.541  -0.027  -0.051
    1UNL    C18   23   0.458  -0.100   0.026
    1UNL    C19   24   0.335  -0.044   0.050
    1UNL    C20   25   0.217  -0.102   0.118
    1UNL     O4   26   0.216  -0.213   0.170
    1UNL    C21   27  -0.221  -0.063   0.240
    1UNL     H1   28   0.161  -0.157  -0.345
    1UNL     H2   29  -0.007  -0.122  -0.396
    1UNL     H3   30   0.110   0.001  -0.335
    1UNL     H4   31  -0.010  -0.204   0.122
    1UNL     H5   32  -0.078  -0.225  -0.034
    1UNL     H6   33  -0.247  -0.261   0.154
    1UNL     H7   34  -0.413  -0.093   0.071
    1UNL     H8   35  -0.319  -0.167  -0.063
    1UNL     H9   36  -0.335   0.119   0.027
    1UNL    H10   37  -0.205  -0.005  -0.222
    1UNL    H11   38  -0.457  -0.038  -0.188
    1UNL    H12   39  -0.474   0.123  -0.164
    1UNL    H13   40  -0.435   0.073  -0.317
    1UNL    H14   41  -0.120   0.186  -0.187
    1UNL    H15   42  -0.097   0.178   0.030
    1UNL    H16   43  -0.043   0.230   0.254
    1UNL    H17   44  -0.083   0.126   0.388
    1UNL    H18   45   0.056  -0.051   0.322
    1UNL    H19   46   0.149   0.099   0.312
    1UNL    H20   47   0.116   0.195   0.016
    1UNL    H21   48   0.357   0.236  -0.137
    1UNL    H22   49   0.588   0.163  -0.155
    1UNL    H23   50   0.626  -0.086  -0.083
    1UNL    H24   51   0.467  -0.207   0.034
    1UNL    H25   52  -0.155  -0.102   0.317
    1UNL    H26   53  -0.317  -0.036   0.282
   0.00000   0.00000   0.00000   0.00000   0.00000   0.00000   0.00000   0.00000   0.00000
Generated with MDTraj, t= 2.0
 53
    1UNL     C1    1   0.088  -0.106  -0.310
    1UNL     O1    2   0.040  -0.123  -0.182
    1UNL     C2    3   0.025   0.001  -0.116
    1UNL     O2    4   0.037   0.107  -0.171
    1UNL     C3    5  -0.020  -0.017   0.028
    1UNL     C4    6  -0.063  -0.162   0.067
    1UNL     C5    7  -0.208  -0.162   0.129
    1UNL     C6    8  -0.312  -0.115   0.016
    1UNL     C7    9  -0.275   0.033  -0.021
    1UNL     C8   10  -0.283   0.060  -0.164
    1UNL     C9   11  -0.421   0.039  -0.222
    1UNL     O3   12  -0.242   0.203  -0.185
    1UNL    C10   13  -0.142   0.080   0.050
    1UNL     N1   14  -0.163   0.078   0.198
    1UNL    C11   15  -0.063   0.131   0.283
    1UNL    C12   16   0.076   0.056   0.265
    1UNL    C13   17   0.107   0.023   0.116
    1UNL     N2   18   0.185   0.137   0.055
    1UNL    C14   19   0.309   0.089   0.016
    1UNL    C15   20   0.410   0.160  -0.047
    1UNL    C16   21   0.526   0.086  -0.084
    1UNL    C17   22   0.544  -0.048  -0.060
    1UNL    C18   23   0.440  -0.114   0.006
    1UNL    C19   24   0.327  -0.042   0.052
    1UNL    C20   25   0.212  -0.092   0.114
    1UNL     O4   26   0.200  -0.207   0.150
    1UNL    C21   27  -0.214  -0.064   0.245
    1UNL     H1   28   0.102  -0.194  -0.370
    1UNL     H2   29   0.034  -0.028  -0.378
    1UNL     H3   30   0.189  -0.074  -0.300
    1UNL     H4   31   0.014  -0.219   0.120
    1UNL     H5   32  -0.062  -0.213  -0.037
    1UNL     H6   33  -0.238  -0.260   0.167
    1UNL     H7   34  -0.408  -0.128   0.047
    1UNL     H8   35  -0.286  -0.182  -0.069
    1UNL     H9   36  -0.345   0.090   0.043
    1UNL    H10   37  -0.208   0.008  -0.219
    1UNL    H11   38  -0.462  -0.057  -0.222
    1UNL    H12   39  -0.504   0.088  -0.167
    1UNL    H13   40  -0.438   0.085  -0.319
    1UNL    H14   41  -0.140   0.198  -0.165
    1UNL    H15   42  -0.114   0.182   0.027
    1UNL    H16   43  -0.048   0.239   0.268
    1UNL    H17   44  -0.103   0.121   0.384
    1UNL    H18   45   0.058  -0.041   0.325
    1UNL    H19   46   0.154   0.106   0.306
    1UNL    H20   47   0.144   0.203  -0.008
    1UNL    H21   48   0.402   0.261  -0.079
    1UNL    H22   49   0.612   0.136  -0.123
    1UNL    H23   50   0.643  -0.083  -0.085
    1UNL    H24   51   0.429  -0.222   0.029
    1UNL    H25   52  -0.147  -0.081   0.327
    1UNL    H26   53  -0.313  -0.046   0.279
   0.00000   0.00000   0.00000   0.00000   0.00000   0.00000   0.00000   0.00000   0.00000
Generated with MDTraj, t= 3.0
 53
    1UNL     C1    1   0.095  -0.092  -0.309
    1UNL     O1    2   0.037  -0.121  -0.189
    1UNL     C2    3   0.023  -0.006  -0.115
    1UNL     O2    4   0.032   0.103  -0.165
    1UNL     C3    5  -0.020  -0.031   0.030
    1UNL     C4    6  -0.074  -0.174   0.067
    1UNL     C5    7  -0.212  -0.162   0.135
    1UNL     C6    8  -0.317  -0.109   0.027
    1UNL     C7    9  -0.283   0.039  -0.022
    1UNL     C8   10  -0.286   0.064  -0.175
    1UNL     C9   11  -0.425   0.065  -0.237
    1UNL     O3   12  -0.220   0.184  -0.208
    1UNL    C10   13  -0.140   0.069   0.059
    1UNL     N1   14  -0.160   0.073   0.204
    1UNL    C11   15  -0.052   0.120   0.295
    1UNL    C12   16   0.079   0.047   0.268
    1UNL    C13   17   0.106   0.015   0.116
    1UNL     N2   18   0.181   0.137   0.056
    1UNL    C14   19   0.309   0.098   0.012
    1UNL    C15   20   0.408   0.162  -0.058
    1UNL    C16   21   0.528   0.097  -0.090
    1UNL    C17   22   0.543  -0.043  -0.061
    1UNL    C18   23   0.440  -0.109  -0.002
    1UNL    C19   24   0.323  -0.038   0.043
    1UNL    C20   25   0.209  -0.092   0.119
    1UNL     O4   26   0.201  -0.197   0.175
    1UNL    C21   27  -0.208  -0.063   0.247
    1UNL     H1   28   0.066  -0.156  -0.391
    1UNL     H2   29   0.073   0.017  -0.351
    1UNL     H3   30   0.199  -0.107  -0.304
    1UNL     H4   31   0.001  -0.239   0.138
    1UNL     H5   32  -0.073  -0.231  -0.030
    1UNL     H6   33  -0.248  -0.258   0.174
    1UNL     H7   34  -0.408  -0.110   0.077
    1UNL     H8   35  -0.318  -0.183  -0.055
    1UNL     H9   36  -0.357   0.108   0.024
    1UNL    H10   37  -0.229  -0.012  -0.231
    1UNL    H11   38  -0.469  -0.027  -0.210
    1UNL    H12   39  -0.490   0.139  -0.191
    1UNL    H13   40  -0.421   0.088  -0.343
    1UNL    H14   41  -0.127   0.171  -0.191
    1UNL    H15   42  -0.114   0.163   0.015
    1UNL    H16   43  -0.047   0.230   0.292
    1UNL    H17   44  -0.079   0.103   0.400
    1UNL    H18   45   0.076  -0.056   0.320
    1UNL    H19   46   0.166   0.094   0.305
    1UNL    H20   47   0.112   0.193  -0.002
    1UNL    H21   48   0.394   0.272  -0.063
    1UNL    H22   49   0.602   0.158  -0.143
    1UNL    H23   50   0.638  -0.094  -0.061
    1UNL    H24   51   0.466  -0.204   0.037
    1UNL    H25   52  -0.136  -0.092   0.319
    1UNL    H26   53  -0.303  -0.035   0.288
   0.00000   0.00000   0.00000   0.00000   0.00000   0.00000   0.00000   0.00000   0.00000
Generated with MDTraj, t= 4.0
 53
    1UNL     C1    1   0.077  -0.109  -0.313
    1UNL     O1    2   0.024  -0.129  -0.190
    1UNL     C2    3   0.029  -0.014  -0.115
    1UNL     O2    4   0.062   0.095  -0.154
    1UNL     C3    5  -0.012  -0.024   0.031
    1UNL     C4    6  -0.074  -0.161   0.062
    1UNL     C5    7  -0.215  -0.158   0.133
    1UNL     C6    8  -0.313  -0.105   0.025
    1UNL     C7    9  -0.265   0.035  -0.020
    1UNL     C8   10  -0.262   0.060  -0.171
    1UNL     C9   11  -0.415   0.064  -0.228
    1UNL     O3   12  -0.212   0.191  -0.205
    1UNL    C10   13  -0.129   0.082   0.047
    1UNL     N1   14  -0.161   0.079   0.199
    1UNL    C11   15  -0.050   0.121   0.288
    1UNL    C12   16   0.066   0.030   0.277
    1UNL    C13   17   0.109   0.008   0.129
    1UNL     N2   18   0.178   0.127   0.078
    1UNL    C14   19   0.302   0.097   0.023
    1UNL    C15   20   0.381   0.165  -0.073
    1UNL    C16   21   0.500   0.112  -0.112
    1UNL    C17   22   0.535  -0.020  -0.065
    1UNL    C18   23   0.449  -0.098   0.021
    1UNL    C19   24   0.329  -0.041   0.055
    1UNL    C20   25   0.213  -0.101   0.114
    1UNL     O4   26   0.190  -0.210   0.155
    1UNL    C21   27  -0.212  -0.056   0.246
    1UNL     H1   28   0.136  -0.191  -0.349
    1UNL     H2   29  -0.011  -0.101  -0.394
    1UNL     H3   30   0.139  -0.023  -0.323
    1UNL     H4   31   0.001  -0.221   0.119
    1UNL     H5   32  -0.079  -0.218  -0.037
    1UNL     H6   33  -0.253  -0.257   0.163
    1UNL     H7   34  -0.414  -0.105   0.063
    1UNL     H8   35  -0.308  -0.165  -0.065
    1UNL     H9   36  -0.337   0.109   0.024
    1UNL    H10   37  -0.201  -0.020  -0.224
    1UNL    H11   38  -0.476  -0.013  -0.183
    1UNL    H12   39  -0.447   0.161  -0.199
    1UNL    H13   40  -0.407   0.067  -0.335
    1UNL    H14   41  -0.112   0.175  -0.210
    1UNL    H15   42  -0.113   0.184   0.019
    1UNL    H16   43  -0.022   0.223   0.261
    1UNL    H17   44  -0.090   0.135   0.389
    1UNL    H18   45   0.046  -0.074   0.316
    1UNL    H19   46   0.161   0.062   0.329
    1UNL    H20   47   0.120   0.204   0.033
    1UNL    H21   48   0.351   0.253  -0.121
    1UNL    H22   49   0.559   0.161  -0.186
    1UNL    H23   50   0.622  -0.066  -0.111
    1UNL    H24   51   0.478  -0.193   0.068
    1UNL    H25   52  -0.157  -0.097   0.323
    1UNL    H26   53  -0.310  -0.030   0.277
   0.00000   0.00000   0.00000   0.00000   0.00000   0.00000   0.00000   0.00000   0.00000
Generated with MDTraj, t= 5.0
 53
    1UNL     C1    1   0.053  -0.134  -0.307
    1UNL     O1    2   0.017  -0.148  -0.171
    1UNL     C2    3   0.015  -0.030  -0.107
    1UNL     O2    4   0.042   0.077  -0.155
    1UNL     C3    5  -0.018  -0.030   0.042
    1UNL     C4    6  -0.078  -0.168   0.078
    1UNL     C5    7  -0.228  -0.162   0.125
    1UNL     C6    8  -0.317  -0.103   0.011
    1UNL     C7    9  -0.254   0.039  -0.025
    1UNL     C8   10  -0.242   0.078  -0.176
    1UNL     C9   11  -0.391   0.065  -0.234
    1UNL     O3   12  -0.191   0.204  -0.195
    1UNL    C10   13  -0.132   0.074   0.061
    1UNL     N1   14  -0.180   0.075   0.205
    1UNL    C11   15  -0.061   0.119   0.292
    1UNL    C12   16   0.064   0.039   0.272
    1UNL    C13   17   0.110   0.013   0.122
    1UNL     N2   18   0.187   0.135   0.071
    1UNL    C14   19   0.305   0.098   0.014
    1UNL    C15   20   0.401   0.178  -0.041
    1UNL    C16   21   0.516   0.120  -0.096
    1UNL    C17   22   0.540  -0.016  -0.089
    1UNL    C18   23   0.445  -0.096  -0.024
    1UNL    C19   24   0.330  -0.038   0.024
    1UNL    C20   25   0.215  -0.087   0.113
    1UNL     O4   26   0.210  -0.200   0.160
    1UNL    C21   27  -0.238  -0.056   0.245
    1UNL     H1   28   0.137  -0.193  -0.343
    1UNL     H2   29  -0.036  -0.158  -0.379
    1UNL     H3   30   0.079  -0.030  -0.322
    1UNL     H4   31  -0.018  -0.212   0.147
    1UNL     H5   32  -0.070  -0.240  -0.012
    1UNL     H6   33  -0.262  -0.260   0.164
    1UNL     H7   34  -0.420  -0.087   0.047
    1UNL     H8   35  -0.320  -0.167  -0.072
    1UNL     H9   36  -0.333   0.112   0.010
    1UNL    H10   37  -0.173   0.003  -0.228
    1UNL    H11   38  -0.405  -0.043  -0.239
    1UNL    H12   39  -0.455   0.118  -0.169
    1UNL    H13   40  -0.398   0.112  -0.328
    1UNL    H14   41  -0.093   0.183  -0.193
    1UNL    H15   42  -0.093   0.171   0.042
    1UNL    H16   43  -0.060   0.230   0.290
    1UNL    H17   44  -0.083   0.109   0.400
    1UNL    H18   45   0.052  -0.055   0.329
    1UNL    H19   46   0.162   0.093   0.317
    1UNL    H20   47   0.132   0.211   0.032
    1UNL    H21   48   0.367   0.284  -0.049
    1UNL    H22   49   0.598   0.180  -0.139
    1UNL    H23   50   0.624  -0.060  -0.138
    1UNL    H24   51   0.449  -0.201  -0.023
    1UNL    H25   52  -0.193  -0.091   0.330
    1UNL    H26   53  -0.341  -0.052   0.266
   0.00000   0.00000   0.00000   0.00000   0.00000   0.00000   0.00000   0.00000   0.00000
Generated with MDTraj, t= 6.0
 53
    1UNL     C1    1   0.058  -0.161  -0.304
    1UNL     O1    2   0.002  -0.150  -0.175
    1UNL     C2    3   0.021  -0.030  -0.115
    1UNL     O2    4   0.065   0.071  -0.168
    1UNL     C3    5  -0.017  -0.032   0.032
    1UNL     C4    6  -0.069  -0.173   0.080
    1UNL     C5    7  -0.212  -0.156   0.125
    1UNL     C6    8  -0.295  -0.101   0.011
    1UNL     C7    9  -0.258   0.043  -0.021
    1UNL     C8   10  -0.253   0.081  -0.172
    1UNL     C9   11  -0.394   0.083  -0.227
    1UNL     O3   12  -0.187   0.210  -0.191
    1UNL    C10   13  -0.132   0.075   0.048
    1UNL     N1   14  -0.167   0.075   0.198
    1UNL    C11   15  -0.053   0.120   0.290
    1UNL    C12   16   0.065   0.030   0.274
    1UNL    C13   17   0.102   0.009   0.126
    1UNL     N2   18   0.168   0.135   0.074
    1UNL    C14   19   0.297   0.101   0.027
    1UNL    C15   20   0.390   0.183  -0.044
    1UNL    C16   21   0.493   0.126  -0.108
    1UNL    C17   22   0.529  -0.007  -0.081
    1UNL    C18   23   0.439  -0.086  -0.006
    1UNL    C19   24   0.326  -0.033   0.049
    1UNL    C20   25   0.210  -0.095   0.118
    1UNL     O4   26   0.208  -0.214   0.142
    1UNL    C21   27  -0.222  -0.049   0.246
    1UNL     H1   28   0.103  -0.261  -0.319
    1UNL     H2   29  -0.022  -0.148  -0.381
    1UNL     H3   30   0.126  -0.077  -0.307
    1UNL     H4   31  -0.005  -0.212   0.152
    1UNL     H5   32  -0.074  -0.252   0.002
    1UNL     H6   33  -0.246  -0.253   0.165
    1UNL     H7   34  -0.402  -0.104   0.046
    1UNL     H8   35  -0.285  -0.165  -0.069
    1UNL     H9   36  -0.344   0.110   0.009
    1UNL    H10   37  -0.182   0.008  -0.223
    1UNL    H11   38  -0.456   0.004  -0.184
    1UNL    H12   39  -0.432   0.178  -0.212
    1UNL    H13   40  -0.402   0.074  -0.333
    1UNL    H14   41  -0.091   0.202  -0.211
    1UNL    H15   42  -0.087   0.166   0.019
    1UNL    H16   43  -0.027   0.229   0.289
    1UNL    H17   44  -0.093   0.117   0.392
    1UNL    H18   45   0.035  -0.072   0.305
    1UNL    H19   46   0.151   0.078   0.342
    1UNL    H20   47   0.111   0.193   0.013
    1UNL    H21   48   0.381   0.288  -0.051
    1UNL    H22   49   0.549   0.191  -0.172
    1UNL    H23   50   0.624  -0.057  -0.105
    1UNL    H24   51   0.447  -0.198  -0.006
    1UNL    H25   52  -0.180  -0.088   0.332
    1UNL    H26   53  -0.320  -0.036   0.267
   0.00000   0.00000   0.00000   0.00000   0.00000   0.00000   0.00000   0.00000   0.00000
Generated with MDTraj, t= 7.0
 53
    1UNL     C1    1   0.062  -0.132  -0.309
    1UNL     O1    2   0.019  -0.145  -0.181
    1UNL     C2    3   0.026  -0.032  -0.110
    1UNL     O2    4   0.070   0.072  -0.157
    1UNL     C3    5  -0.021  -0.036   0.035
    1UNL     C4    6  -0.079  -0.175   0.089
    1UNL     C5    7  -0.232  -0.157   0.136
    1UNL     C6    8  -0.319  -0.099   0.024
    1UNL     C7    9  -0.268   0.041  -0.019
    1UNL     C8   10  -0.280   0.074  -0.175
    1UNL     C9   11  -0.405   0.113  -0.235
    1UNL     O3   12  -0.179   0.175  -0.211
    1UNL    C10   13  -0.134   0.073   0.050
    1UNL     N1   14  -0.167   0.079   0.203
    1UNL    C11   15  -0.056   0.107   0.296
    1UNL    C12   16   0.073   0.021   0.271
    1UNL    C13   17   0.108   0.004   0.118
    1UNL     N2   18   0.172   0.128   0.066
    1UNL    C14   19   0.295   0.101   0.004
    1UNL    C15   20   0.384   0.182  -0.072
    1UNL    C16   21   0.506   0.129  -0.103
    1UNL    C17   22   0.538  -0.001  -0.061
    1UNL    C18   23   0.453  -0.084   0.013
    1UNL    C19   24   0.331  -0.032   0.042
    1UNL    C20   25   0.223  -0.101   0.104
    1UNL     O4   26   0.223  -0.209   0.153
    1UNL    C21   27  -0.231  -0.045   0.252
    1UNL     H1   28  -0.006  -0.197  -0.370
    1UNL     H2   29   0.056  -0.028  -0.336
    1UNL     H3   30   0.166  -0.162  -0.302
    1UNL     H4   31  -0.019  -0.224   0.167
    1UNL     H5   32  -0.077  -0.236   0.007
    1UNL     H6   33  -0.275  -0.256   0.165
    1UNL     H7   34  -0.428  -0.106   0.049
    1UNL     H8   35  -0.310  -0.163  -0.059
    1UNL     H9   36  -0.346   0.114   0.016
    1UNL    H10   37  -0.237  -0.017  -0.222
    1UNL    H11   38  -0.473   0.029  -0.242
    1UNL    H12   39  -0.450   0.197  -0.190
    1UNL    H13   40  -0.397   0.149  -0.334
    1UNL    H14   41  -0.082   0.141  -0.208
    1UNL    H15   42  -0.090   0.166   0.026
    1UNL    H16   43  -0.039   0.217   0.297
    1UNL    H17   44  -0.089   0.088   0.398
    1UNL    H18   45   0.049  -0.073   0.330
    1UNL    H19   46   0.159   0.080   0.310
    1UNL    H20   47   0.107   0.187   0.022
    1UNL    H21   48   0.348   0.281  -0.102
    1UNL    H22   49   0.582   0.177  -0.166
    1UNL    H23   50   0.631  -0.036  -0.099
    1UNL    H24   51   0.488  -0.174   0.053
    1UNL    H25   52  -0.182  -0.093   0.330
    1UNL    H26   53  -0.323  -0.026   0.288
   0.00000   0.00000   0.00000   0.00000   0.00000   0.00000   0.00000   0.00000   0.00000
Generated with MDTraj, t= 8.0
 53
    1UNL     C1    1   0.056  -0.152  -0.320
    1UNL     O1    2   0.007  -0.152  -0.185
    1UNL     C2    3   0.022  -0.032  -0.120
    1UNL     O2    4   0.054   0.073  -0.172
    1UNL     C3    5  -0.016  -0.027   0.027
    1UNL     C4    6  -0.072  -0.163   0.076
    1UNL     C5    7  -0.214  -0.160   0.129
    1UNL     C6    8  -0.310  -0.107   0.018
    1UNL     C7    9  -0.262   0.045  -0.021
    1UNL     C8   10  -0.277   0.074  -0.176
    1UNL     C9   11  -0.423   0.079  -0.222
    1UNL     O3   12  -0.215   0.208  -0.198
    1UNL    C10   13  -0.125   0.078   0.048
    1UNL     N1   14  -0.160   0.073   0.196
    1UNL    C11   15  -0.055   0.128   0.281
    1UNL    C12   16   0.077   0.040   0.266
    1UNL    C13   17   0.102   0.007   0.114
    1UNL     N2   18   0.174   0.128   0.060
    1UNL    C14   19   0.306   0.103   0.031
    1UNL    C15   20   0.400   0.183  -0.033
    1UNL    C16   21   0.518   0.121  -0.075
    1UNL    C17   22   0.538  -0.018  -0.069
    1UNL    C18   23   0.454  -0.089   0.006
    1UNL    C19   24   0.333  -0.033   0.053
    1UNL    C20   25   0.216  -0.098   0.110
    1UNL     O4   26   0.204  -0.207   0.158
    1UNL    C21   27  -0.205  -0.055   0.244
    1UNL     H1   28  -0.027  -0.176  -0.391
    1UNL     H2   29   0.099  -0.059  -0.329
    1UNL     H3   30   0.136  -0.226  -0.328
    1UNL     H4   31  -0.014  -0.206   0.162
    1UNL     H5   32  -0.064  -0.226  -0.004
    1UNL     H6   33  -0.251  -0.264   0.151
    1UNL     H7   34  -0.416  -0.117   0.044
    1UNL     H8   35  -0.301  -0.175  -0.071
    1UNL     H9   36  -0.336   0.117   0.021
    1UNL    H10   37  -0.216   0.004  -0.232
    1UNL    H11   38  -0.466  -0.018  -0.209
    1UNL    H12   39  -0.467   0.161  -0.166
    1UNL    H13   40  -0.428   0.114  -0.322
    1UNL    H14   41  -0.127   0.195  -0.169
    1UNL    H15   42  -0.089   0.172   0.017
    1UNL    H16   43  -0.037   0.235   0.260
    1UNL    H17   44  -0.091   0.125   0.385
    1UNL    H18   45   0.064  -0.060   0.319
    1UNL    H19   46   0.151   0.106   0.302
    1UNL    H20   47   0.124   0.212   0.045
    1UNL    H21   48   0.369   0.285  -0.049
    1UNL    H22   49   0.586   0.181  -0.132
    1UNL    H23   50   0.627  -0.060  -0.117
    1UNL    H24   51   0.489  -0.192   0.027
    1UNL    H25   52  -0.145  -0.087   0.321
    1UNL    H26   53  -0.298  -0.045   0.286
   0.00000   0.00000   0.00000   0.00000   0.00000   0.00000   0.00000   0.00000   0.00000
Generated with MDTraj, t= 9.0
 53
    1UNL     C1    1   0.050  -0.124  -0.315
    1UNL     O1    2   0.022  -0.138  -0.173
    1UNL     C2    3   0.014  -0.017  -0.114
    1UNL     O2    4   0.026   0.092  -0.166
    1UNL     C3    5  -0.024  -0.022   0.033
    1UNL     C4    6  -0.070  -0.165   0.083
    1UNL     C5    7  -0.217  -0.157   0.132
    1UNL     C6    8  -0.308  -0.113   0.017
    1UNL     C7    9  -0.269   0.038  -0.019
    1UNL     C8   10  -0.265   0.064  -0.169
    1UNL     C9   11  -0.409   0.049  -0.222
    1UNL     O3   12  -0.217   0.198  -0.196
    1UNL    C10   13  -0.145   0.078   0.061
    1UNL     N1   14  -0.173   0.078   0.210
    1UNL    C11   15  -0.051   0.123   0.280
    1UNL    C12   16   0.078   0.045   0.255
    1UNL    C13   17   0.111   0.022   0.107
    1UNL     N2   18   0.183   0.136   0.041
    1UNL    C14   19   0.315   0.093   0.005
    1UNL    C15   20   0.415   0.173  -0.043
    1UNL    C16   21   0.535   0.112  -0.068
    1UNL    C17   22   0.558  -0.023  -0.040
    1UNL    C18   23   0.457  -0.099   0.013
    1UNL    C19   24   0.331  -0.042   0.036
    1UNL    C20   25   0.216  -0.095   0.099
    1UNL     O4   26   0.194  -0.210   0.134
    1UNL    C21   27  -0.225  -0.051   0.243
    1UNL     H1   28  -0.026  -0.057  -0.364
    1UNL     H2   29   0.145  -0.089  -0.313
    1UNL     H3   30   0.038  -0.222  -0.365
    1UNL     H4   31  -0.002  -0.198   0.162
    1UNL     H5   32  -0.067  -0.235  -0.006
    1UNL     H6   33  -0.251  -0.259   0.171
    1UNL     H7   34  -0.412  -0.137   0.041
    1UNL     H8   35  -0.285  -0.182  -0.075
    1UNL     H9   36  -0.355   0.100   0.015
    1UNL    H10   37  -0.202   0.000  -0.225
    1UNL    H11   38  -0.429  -0.048  -0.185
    1UNL    H12   39  -0.465   0.136  -0.185
    1UNL    H13   40  -0.402   0.052  -0.328
    1UNL    H14   41  -0.116   0.190  -0.173
    1UNL    H15   42  -0.130   0.179   0.029
    1UNL    H16   43  -0.041   0.232   0.266
    1UNL    H17   44  -0.074   0.121   0.389
    1UNL    H18   45   0.068  -0.058   0.306
    1UNL    H19   46   0.157   0.097   0.289
    1UNL    H20   47   0.126   0.187  -0.028
    1UNL    H21   48   0.419   0.281  -0.038
    1UNL    H22   49   0.620   0.177  -0.090
    1UNL    H23   50   0.655  -0.064  -0.051
    1UNL    H24   51   0.466  -0.203   0.032
    1UNL    H25   52  -0.183  -0.089   0.327
    1UNL    H26   53  -0.321  -0.023   0.274
   0.00000   0.00000   0.00000   0.00000   0.00000   0.00000   0.00000   0.00000   0.00000
Generated with MDTraj, t= 10.0
 53
    1UNL     C1    1   0.071  -0.103  -0.328
    1UNL     O1    2   0.011  -0.121  -0.200
    1UNL     C2    3   0.011  -0.007  -0.131
    1UNL     O2    4   0.051   0.100  -0.168
    1UNL     C3    5  -0.031  -0.026   0.017
    1UNL     C4    6  -0.082  -0.174   0.052
    1UNL     C5    7  -0.215  -0.158   0.132
    1UNL     C6    8  -0.323  -0.093   0.042
    1UNL     C7    9  -0.279   0.053  -0.008
    1UNL     C8   10  -0.274   0.051  -0.161
    1UNL     C9   11  -0.422   0.039  -0.211
    1UNL     O3   12  -0.221   0.178  -0.212
    1UNL    C10   13  -0.140   0.079   0.048
    1UNL     N1   14  -0.158   0.081   0.205
    1UNL    C11   15  -0.039   0.126   0.271
    1UNL    C12   16   0.071   0.033   0.254
    1UNL    C13   17   0.107   0.009   0.104
    1UNL     N2   18   0.176   0.125   0.051
    1UNL    C14   19   0.309   0.096   0.017
    1UNL    C15   20   0.406   0.164  -0.050
    1UNL    C16   21   0.531   0.103  -0.087
    1UNL    C17   22   0.558  -0.015  -0.024
    1UNL    C18   23   0.466  -0.092   0.044
    1UNL    C19   24   0.336  -0.038   0.055
    1UNL    C20   25   0.211  -0.098   0.112
    1UNL     O4   26   0.199  -0.210   0.157
    1UNL    C21   27  -0.200  -0.057   0.255
    1UNL     H1   28   0.037  -0.010  -0.382
    1UNL     H2   29   0.171  -0.112  -0.311
    1UNL     H3   30   0.023  -0.187  -0.385
    1UNL     H4   31  -0.004  -0.236   0.095
    1UNL     H5   32  -0.114  -0.216  -0.057
    1UNL     H6   33  -0.252  -0.257   0.177
    1UNL     H7   34  -0.411  -0.084   0.105
    1UNL     H8   35  -0.353  -0.171  -0.041
    1UNL     H9   36  -0.349   0.126   0.037
    1UNL    H10   37  -0.210  -0.020  -0.205
    1UNL    H11   38  -0.450  -0.062  -0.213
    1UNL    H12   39  -0.483   0.109  -0.153
    1UNL    H13   40  -0.424   0.076  -0.311
    1UNL    H14   41  -0.128   0.178  -0.193
    1UNL    H15   42  -0.113   0.179   0.021
    1UNL    H16   43  -0.024   0.232   0.248
    1UNL    H17   44  -0.064   0.141   0.379
    1UNL    H18   45   0.053  -0.068   0.300
    1UNL    H19   46   0.159   0.065   0.299
    1UNL    H20   47   0.118   0.189  -0.012
    1UNL    H21   48   0.384   0.268  -0.081
    1UNL    H22   49   0.610   0.155  -0.138
    1UNL    H23   50   0.650  -0.063  -0.060
    1UNL    H24   51   0.472  -0.199   0.065
    1UNL    H25   52  -0.143  -0.086   0.337
    1UNL    H26   53  -0.291  -0.043   0.308
   0.00000   0.00000   0.00000   0.00000   0.00000   0.00000   0.00000   0.00000   0.00000
Generated with MDTraj, t= 11.0
 53
    1UNL     C1    1   0.054  -0.090  -0.324
    1UNL     O1    2   0.020  -0.128  -0.187
    1UNL     C2    3   0.018  -0.013  -0.115
    1UNL     O2    4   0.042   0.098  -0.154
    1UNL     C3    5  -0.014  -0.024   0.034
    1UNL     C4    6  -0.067  -0.167   0.078
    1UNL     C5    7  -0.210  -0.162   0.141
    1UNL     C6    8  -0.300  -0.114   0.027
    1UNL     C7    9  -0.265   0.035  -0.018
    1UNL     C8   10  -0.289   0.063  -0.173
    1UNL     C9   11  -0.434   0.056  -0.221
    1UNL     O3   12  -0.225   0.176  -0.229
    1UNL    C10   13  -0.136   0.072   0.052
    1UNL     N1   14  -0.167   0.078   0.200
    1UNL    C11   15  -0.052   0.138   0.277
    1UNL    C12   16   0.077   0.049   0.262
    1UNL    C13   17   0.108   0.017   0.113
    1UNL     N2   18   0.182   0.132   0.055
    1UNL    C14   19   0.316   0.095   0.016
    1UNL    C15   20   0.416   0.169  -0.043
    1UNL    C16   21   0.535   0.105  -0.064
    1UNL    C17   22   0.552  -0.032  -0.038
    1UNL    C18   23   0.451  -0.104   0.018
    1UNL    C19   24   0.330  -0.043   0.035
    1UNL    C20   25   0.209  -0.099   0.101
    1UNL     O4   26   0.198  -0.208   0.145
    1UNL    C21   27  -0.213  -0.055   0.252
    1UNL     H1   28  -0.041  -0.050  -0.372
    1UNL     H2   29   0.129  -0.021  -0.324
    1UNL     H3   30   0.073  -0.186  -0.378
    1UNL     H4   31   0.003  -0.204   0.157
    1UNL     H5   32  -0.064  -0.243  -0.009
    1UNL     H6   33  -0.253  -0.260   0.186
    1UNL     H7   34  -0.407  -0.129   0.052
    1UNL     H8   35  -0.275  -0.182  -0.061
    1UNL     H9   36  -0.340   0.097   0.033
    1UNL    H10   37  -0.231  -0.007  -0.230
    1UNL    H11   38  -0.488  -0.014  -0.163
    1UNL    H12   39  -0.487   0.149  -0.229
    1UNL    H13   40  -0.447   0.016  -0.321
    1UNL    H14   41  -0.123   0.183  -0.223
    1UNL    H15   42  -0.106   0.167   0.010
    1UNL    H16   43  -0.041   0.248   0.270
    1UNL    H17   44  -0.084   0.131   0.385
    1UNL    H18   45   0.067  -0.052   0.310
    1UNL    H19   46   0.163   0.103   0.307
    1UNL    H20   47   0.131   0.190  -0.013
    1UNL    H21   48   0.414   0.272  -0.067
    1UNL    H22   49   0.603   0.163  -0.125
    1UNL    H23   50   0.628  -0.092  -0.084
    1UNL    H24   51   0.447  -0.212   0.031
    1UNL    H25   52  -0.145  -0.073   0.335
    1UNL    H26   53  -0.306  -0.037   0.298
   0.00000   0.00000   0.00000   0.00000   0.00000   0.00000   0.00000   0.00000   0.00000
Generated with MDTraj, t= 12.0
 53
    1UNL     C1    1   0.060  -0.136  -0.321
    1UNL     O1    2   0.018  -0.141  -0.185
    1UNL     C2    3   0.025  -0.020  -0.125
    1UNL     O2    4   0.051   0.085  -0.176
    1UNL     C3    5  -0.017  -0.019   0.022
    1UNL     C4    6  -0.071  -0.161   0.069
    1UNL     C5    7  -0.210  -0.157   0.133
    1UNL     C6    8  -0.311  -0.110   0.023
    1UNL     C7    9  -0.274   0.038  -0.019
    1UNL     C8   10  -0.273   0.069  -0.168
    1UNL     C9   11  -0.415   0.054  -0.237
    1UNL     O3   12  -0.225   0.205  -0.191
    1UNL    C10   13  -0.140   0.081   0.051
    1UNL     N1   14  -0.173   0.075   0.206
    1UNL    C11   15  -0.059   0.126   0.289
    1UNL    C12   16   0.075   0.042   0.262
    1UNL    C13   17   0.106   0.021   0.115
    1UNL     N2   18   0.180   0.135   0.057
    1UNL    C14   19   0.311   0.098   0.025
    1UNL    C15   20   0.412   0.171  -0.041
    1UNL    C16   21   0.528   0.108  -0.081
    1UNL    C17   22   0.546  -0.030  -0.063
    1UNL    C18   23   0.448  -0.101   0.003
    1UNL    C19   24   0.335  -0.035   0.054
    1UNL    C20   25   0.213  -0.092   0.109
    1UNL     O4   26   0.203  -0.199   0.163
    1UNL    C21   27  -0.217  -0.062   0.253
    1UNL     H1   28  -0.030  -0.095  -0.374
    1UNL     H2   29   0.144  -0.077  -0.343
    1UNL     H3   30   0.074  -0.243  -0.350
    1UNL     H4   31   0.004  -0.213   0.143
    1UNL     H5   32  -0.066  -0.229  -0.015
    1UNL     H6   33  -0.235  -0.266   0.160
    1UNL     H7   34  -0.417  -0.117   0.070
    1UNL     H8   35  -0.313  -0.171  -0.068
    1UNL     H9   36  -0.348   0.096   0.036
    1UNL    H10   37  -0.192   0.018  -0.222
    1UNL    H11   38  -0.439  -0.047  -0.268
    1UNL    H12   39  -0.488   0.094  -0.171
    1UNL    H13   40  -0.431   0.120  -0.320
    1UNL    H14   41  -0.128   0.222  -0.182
    1UNL    H15   42  -0.103   0.180   0.027
    1UNL    H16   43  -0.043   0.232   0.270
    1UNL    H17   44  -0.075   0.122   0.400
    1UNL    H18   45   0.059  -0.053   0.313
    1UNL    H19   46   0.172   0.101   0.298
    1UNL    H20   47   0.126   0.182  -0.011
    1UNL    H21   48   0.403   0.280  -0.032
    1UNL    H22   49   0.612   0.155  -0.129
    1UNL    H23   50   0.636  -0.078  -0.103
    1UNL    H24   51   0.464  -0.205   0.021
    1UNL    H25   52  -0.146  -0.098   0.328
    1UNL    H26   53  -0.310  -0.043   0.301
   0.00000   0.00000   0.00000   0.00000   0.00000   0.00000   0.00000   0.00000   0.00000
Generated with MDTraj, t= 13.0
 53
    1UNL     C1    1   0.082  -0.136  -0.306
    1UNL     O1    2   0.022  -0.148  -0.182
    1UNL     C2    3   0.021  -0.024  -0.112
    1UNL     O2    4   0.043   0.083  -0.166
    1UNL     C3    5  -0.020  -0.031   0.036
    1UNL     C4    6  -0.072  -0.170   0.089
    1UNL     C5    7  -0.221  -0.157   0.133
    1UNL     C6    8  -0.303  -0.101   0.009
    1UNL     C7    9  -0.265   0.047  -0.025
    1UNL     C8   10  -0.256   0.085  -0.172
    1UNL     C9   11  -0.395   0.069  -0.234
    1UNL     O3   12  -0.211   0.215  -0.189
    1UNL    C10   13  -0.137   0.078   0.059
    1UNL     N1   14  -0.169   0.078   0.209
    1UNL    C11   15  -0.055   0.121   0.290
    1UNL    C12   16   0.065   0.029   0.272
    1UNL    C13   17   0.104   0.009   0.122
    1UNL     N2   18   0.173   0.124   0.054
    1UNL    C14   19   0.292   0.086   0.001
    1UNL    C15   20   0.378   0.165  -0.080
    1UNL    C16   21   0.502   0.121  -0.112
    1UNL    C17   22   0.539  -0.005  -0.059
    1UNL    C18   23   0.458  -0.088   0.017
    1UNL    C19   24   0.334  -0.041   0.051
    1UNL    C20   25   0.218  -0.100   0.112
    1UNL     O4   26   0.215  -0.214   0.158
    1UNL    C21   27  -0.232  -0.052   0.246
    1UNL     H1   28   0.050  -0.037  -0.343
    1UNL     H2   29   0.190  -0.140  -0.312
    1UNL     H3   30   0.040  -0.220  -0.365
    1UNL     H4   31  -0.000  -0.217   0.169
    1UNL     H5   32  -0.058  -0.238   0.009
    1UNL     H6   33  -0.265  -0.261   0.159
    1UNL     H7   34  -0.421  -0.114   0.018
    1UNL     H8   35  -0.280  -0.154  -0.082
    1UNL     H9   36  -0.343   0.106   0.021
    1UNL    H10   37  -0.180   0.017  -0.222
    1UNL    H11   38  -0.427  -0.031  -0.203
    1UNL    H12   39  -0.451   0.152  -0.201
    1UNL    H13   40  -0.388   0.078  -0.339
    1UNL    H14   41  -0.114   0.204  -0.182
    1UNL    H15   42  -0.099   0.175   0.026
    1UNL    H16   43  -0.027   0.224   0.270
    1UNL    H17   44  -0.074   0.119   0.402
    1UNL    H18   45   0.049  -0.067   0.320
    1UNL    H19   46   0.156   0.094   0.321
    1UNL    H20   47   0.106   0.181   0.001
    1UNL    H21   48   0.344   0.265  -0.093
    1UNL    H22   49   0.579   0.191  -0.145
    1UNL    H23   50   0.645  -0.024  -0.067
    1UNL    H24   51   0.498  -0.186   0.046
    1UNL    H25   52  -0.174  -0.071   0.338
    1UNL    H26   53  -0.338  -0.037   0.269
   0.00000   0.00000   0.00000   0.00000   0.00000   0.00000   0.00000   0.00000   0.00000
Generated with MDTraj, t= 14.0
 53
    1UNL     C1    1   0.084  -0.150  -0.296
    1UNL     O1    2   0.042  -0.155  -0.168
    1UNL     C2    3   0.032  -0.034  -0.111
    1UNL     O2    4   0.057   0.072  -0.164
    1UNL     C3    5  -0.021  -0.032   0.037
    1UNL     C4    6  -0.084  -0.174   0.078
    1UNL     C5    7  -0.222  -0.157   0.123
    1UNL     C6    8  -0.312  -0.095   0.014
    1UNL     C7    9  -0.260   0.050  -0.017
    1UNL     C8   10  -0.261   0.080  -0.170
    1UNL     C9   11  -0.404   0.088  -0.229
    1UNL     O3   12  -0.184   0.203  -0.204
    1UNL    C10   13  -0.129   0.072   0.060
    1UNL     N1   14  -0.171   0.067   0.205
    1UNL    C11   15  -0.063   0.117   0.287
    1UNL    C12   16   0.065   0.039   0.273
    1UNL    C13   17   0.103   0.010   0.122
    1UNL     N2   18   0.167   0.132   0.065
    1UNL    C14   19   0.298   0.106   0.023
    1UNL    C15   20   0.387   0.182  -0.060
    1UNL    C16   21   0.496   0.122  -0.107
    1UNL    C17   22   0.524  -0.014  -0.093
    1UNL    C18   23   0.441  -0.087  -0.002
    1UNL    C19   24   0.327  -0.030   0.045
    1UNL    C20   25   0.214  -0.092   0.113
    1UNL     O4   26   0.209  -0.204   0.157
    1UNL    C21   27  -0.226  -0.064   0.246
    1UNL     H1   28   0.072  -0.049  -0.340
    1UNL     H2   29   0.194  -0.164  -0.304
    1UNL     H3   30   0.033  -0.223  -0.359
    1UNL     H4   31  -0.029  -0.225   0.155
    1UNL     H5   32  -0.072  -0.244  -0.003
    1UNL     H6   33  -0.260  -0.259   0.164
    1UNL     H7   34  -0.426  -0.094   0.040
    1UNL     H8   35  -0.308  -0.148  -0.079
    1UNL     H9   36  -0.329   0.123   0.021
    1UNL    H10   37  -0.205  -0.011  -0.214
    1UNL    H11   38  -0.466  -0.001  -0.203
    1UNL    H12   39  -0.440   0.184  -0.203
    1UNL    H13   40  -0.391   0.100  -0.334
    1UNL    H14   41  -0.104   0.218  -0.142
    1UNL    H15   42  -0.090   0.168   0.027
    1UNL    H16   43  -0.046   0.222   0.265
    1UNL    H17   44  -0.097   0.126   0.395
    1UNL    H18   45   0.056  -0.060   0.317
    1UNL    H19   46   0.156   0.092   0.327
    1UNL    H20   47   0.103   0.183  -0.004
    1UNL    H21   48   0.351   0.273  -0.110
    1UNL    H22   49   0.557   0.183  -0.171
    1UNL    H23   50   0.606  -0.068  -0.138
    1UNL    H24   51   0.446  -0.193  -0.005
    1UNL    H25   52  -0.163  -0.103   0.327
    1UNL    H26   53  -0.328  -0.045   0.287
   0.00000   0.00000   0.00000   0.00000   0.00000   0.00000   0.00000   0.00000   0.00000
Generated with MDTraj, t= 15.0
 53
    1UNL     C1    1   0.095  -0.151  -0.289
    1UNL     O1    2   0.021  -0.145  -0.172
    1UNL     C2    3   0.023  -0.021  -0.105
    1UNL     O2    4   0.066   0.081  -0.159
    1UNL     C3    5  -0.020  -0.025   0.039
    1UNL     C4    6  -0.072  -0.163   0.079
    1UNL     C5    7  -0.218  -0.158   0.128
    1UNL     C6    8  -0.306  -0.110   0.014
    1UNL     C7    9  -0.261   0.037  -0.019
    1UNL     C8   10  -0.265   0.072  -0.176
    1UNL     C9   11  -0.397   0.080  -0.237
    1UNL     O3   12  -0.189   0.191  -0.201
    1UNL    C10   13  -0.132   0.075   0.054
    1UNL     N1   14  -0.165   0.081   0.204
    1UNL    C11   15  -0.055   0.120   0.287
    1UNL    C12   16   0.061   0.020   0.272
    1UNL    C13   17   0.110   0.011   0.124
    1UNL     N2   18   0.178   0.137   0.080
    1UNL    C14   19   0.298   0.106   0.025
    1UNL    C15   20   0.392   0.184  -0.043
    1UNL    C16   21   0.499   0.119  -0.105
    1UNL    C17   22   0.517  -0.017  -0.098
    1UNL    C18   23   0.424  -0.096  -0.033
    1UNL    C19   24   0.321  -0.031   0.030
    1UNL    C20   25   0.212  -0.095   0.115
    1UNL     O4   26   0.206  -0.204   0.166
    1UNL    C21   27  -0.234  -0.044   0.244
    1UNL     H1   28   0.042  -0.115  -0.379
    1UNL     H2   29   0.182  -0.081  -0.280
    1UNL     H3   30   0.126  -0.251  -0.314
    1UNL     H4   31  -0.006  -0.198   0.145
    1UNL     H5   32  -0.067  -0.240   0.003
    1UNL     H6   33  -0.245  -0.261   0.168
    1UNL     H7   34  -0.418  -0.119   0.017
    1UNL     H8   35  -0.280  -0.170  -0.075
    1UNL     H9   36  -0.330   0.110   0.018
    1UNL    H10   37  -0.208  -0.015  -0.225
    1UNL    H11   38  -0.424  -0.023  -0.261
    1UNL    H12   39  -0.472   0.132  -0.179
    1UNL    H13   40  -0.398   0.138  -0.327
    1UNL    H14   41  -0.098   0.181  -0.223
    1UNL    H15   42  -0.109   0.183   0.041
    1UNL    H16   43  -0.031   0.222   0.262
    1UNL    H17   44  -0.092   0.141   0.393
    1UNL    H18   45   0.035  -0.080   0.310
    1UNL    H19   46   0.155   0.044   0.325
    1UNL    H20   47   0.119   0.215   0.043
    1UNL    H21   48   0.360   0.286  -0.056
    1UNL    H22   49   0.571   0.171  -0.168
    1UNL    H23   50   0.595  -0.063  -0.158
    1UNL    H24   51   0.426  -0.207  -0.037
    1UNL    H25   52  -0.188  -0.088   0.333
    1UNL    H26   53  -0.343  -0.026   0.267
   0.00000   0.00000   0.00000   0.00000   0.00000   0.00000   0.00000   0.00000   0.00000
Generated with MDTraj, t= 16.0
 53
    1UNL     C1    1   0.073  -0.116  -0.306
    1UNL     O1    2   0.046  -0.135  -0.173
    1UNL     C2    3   0.023  -0.026  -0.109
    1UNL     O2    4   0.045   0.086  -0.151
    1UNL     C3    5  -0.021  -0.029   0.042
    1UNL     C4    6  -0.076  -0.169   0.080
    1UNL     C5    7  -0.220  -0.154   0.129
    1UNL     C6    8  -0.313  -0.095   0.013
    1UNL     C7    9  -0.261   0.048  -0.021
    1UNL     C8   10  -0.252   0.067  -0.177
    1UNL     C9   11  -0.383   0.053  -0.246
    1UNL     O3   12  -0.193   0.196  -0.211
    1UNL    C10   13  -0.137   0.080   0.062
    1UNL     N1   14  -0.160   0.075   0.209
    1UNL    C11   15  -0.053   0.118   0.296
    1UNL    C12   16   0.075   0.031   0.280
    1UNL    C13   17   0.107   0.013   0.133
    1UNL     N2   18   0.172   0.137   0.078
    1UNL    C14   19   0.296   0.097   0.017
    1UNL    C15   20   0.377   0.172  -0.072
    1UNL    C16   21   0.489   0.114  -0.119
    1UNL    C17   22   0.528  -0.019  -0.083
    1UNL    C18   23   0.441  -0.099  -0.009
    1UNL    C19   24   0.330  -0.041   0.050
    1UNL    C20   25   0.212  -0.096   0.118
    1UNL     O4   26   0.196  -0.211   0.152
    1UNL    C21   27  -0.230  -0.052   0.250
    1UNL     H1   28  -0.003  -0.064  -0.364
    1UNL     H2   29   0.170  -0.058  -0.318
    1UNL     H3   30   0.089  -0.208  -0.358
    1UNL     H4   31  -0.020  -0.226   0.150
    1UNL     H5   32  -0.076  -0.231  -0.005
    1UNL     H6   33  -0.252  -0.257   0.165
    1UNL     H7   34  -0.413  -0.090   0.046
    1UNL     H8   35  -0.325  -0.158  -0.079
    1UNL     H9   36  -0.342   0.116  -0.007
    1UNL    H10   37  -0.188  -0.020  -0.208
    1UNL    H11   38  -0.452  -0.006  -0.191
    1UNL    H12   39  -0.420   0.155  -0.269
    1UNL    H13   40  -0.381   0.014  -0.347
    1UNL    H14   41  -0.090   0.211  -0.206
    1UNL    H15   42  -0.096   0.173   0.018
    1UNL    H16   43  -0.033   0.222   0.280
    1UNL    H17   44  -0.086   0.116   0.405
    1UNL    H18   45   0.069  -0.075   0.317
    1UNL    H19   46   0.154   0.081   0.323
    1UNL    H20   47   0.102   0.190   0.017
    1UNL    H21   48   0.369   0.281  -0.079
    1UNL    H22   49   0.549   0.177  -0.183
    1UNL    H23   50   0.623  -0.059  -0.115
    1UNL    H24   51   0.465  -0.191   0.031
    1UNL    H25   52  -0.187  -0.096   0.343
    1UNL    H26   53  -0.342  -0.040   0.263
   0.00000   0.00000   0.00000   0.00000   0.00000   0.00000   0.00000   0.00000   0.00000
Generated with MDTraj, t= 17.0
 53
    1UNL     C1    1   0.089  -0.109  -0.313
    1UNL     O1    2   0.020  -0.127  -0.193
    1UNL     C2    3   0.022  -0.012  -0.108
    1UNL     O2    4   0.062   0.095  -0.156
    1UNL     C3    5  -0.021  -0.021   0.033
    1UNL     C4    6  -0.080  -0.170   0.061
    1UNL     C5    7  -0.220  -0.160   0.128
    1UNL     C6    8  -0.317  -0.099   0.022
    1UNL     C7    9  -0.272   0.042  -0.021
    1UNL     C8   10  -0.264   0.069  -0.172
    1UNL     C9   11  -0.405   0.044  -0.233
    1UNL     O3   12  -0.214   0.194  -0.195
    1UNL    C10   13  -0.141   0.074   0.056
    1UNL     N1   14  -0.166   0.071   0.207
    1UNL    C11   15  -0.061   0.132   0.286
    1UNL    C12   16   0.068   0.049   0.274
    1UNL    C13   17   0.107   0.016   0.123
    1UNL     N2   18   0.182   0.130   0.068
    1UNL    C14   19   0.306   0.092   0.015
    1UNL    C15   20   0.389   0.163  -0.069
    1UNL    C16   21   0.510   0.105  -0.104
    1UNL    C17   22   0.536  -0.031  -0.073
    1UNL    C18   23   0.449  -0.106   0.000
    1UNL    C19   24   0.328  -0.041   0.046
    1UNL    C20   25   0.216  -0.094   0.123
    1UNL     O4   26   0.209  -0.203   0.175
    1UNL    C21   27  -0.218  -0.058   0.243
    1UNL     H1   28   0.061  -0.023  -0.374
    1UNL     H2   29   0.203  -0.114  -0.292
    1UNL     H3   30   0.080  -0.190  -0.381
    1UNL     H4   31  -0.016  -0.216   0.140
    1UNL     H5   32  -0.084  -0.239  -0.014
    1UNL     H6   33  -0.248  -0.265   0.162
    1UNL     H7   34  -0.416  -0.092   0.051
    1UNL     H8   35  -0.323  -0.169  -0.067
    1UNL     H9   36  -0.350   0.101   0.020
    1UNL    H10   37  -0.200  -0.012  -0.208
    1UNL    H11   38  -0.408  -0.055  -0.269
    1UNL    H12   39  -0.489   0.072  -0.165
    1UNL    H13   40  -0.418   0.118  -0.314
    1UNL    H14   41  -0.120   0.187  -0.201
    1UNL    H15   42  -0.107   0.179   0.040
    1UNL    H16   43  -0.038   0.232   0.257
    1UNL    H17   44  -0.089   0.132   0.396
    1UNL    H18   45   0.048  -0.045   0.332
    1UNL    H19   46   0.142   0.106   0.312
    1UNL    H20   47   0.124   0.188   0.005
    1UNL    H21   48   0.362   0.266  -0.084
    1UNL    H22   49   0.578   0.157  -0.171
    1UNL    H23   50   0.631  -0.078  -0.099
    1UNL    H24   51   0.481  -0.204   0.041
    1UNL    H25   52  -0.150  -0.109   0.316
    1UNL    H26   53  -0.324  -0.050   0.282
   0.00000   0.00000   0.00000   0.00000   0.00000   0.00000   0.00000   0.00000   0.00000
Generated with MDTraj, t= 18.0
 53
    1UNL     C1    1   0.067  -0.107  -0.318
    1UNL     O1    2   0.038  -0.121  -0.181
    1UNL     C2    3   0.020  -0.004  -0.121
    1UNL     O2    4   0.037   0.104  -0.171
    1UNL     C3    5  -0.015  -0.013   0.030
    1UNL     C4    6  -0.061  -0.159   0.069
    1UNL     C5    7  -0.203  -0.165   0.127
    1UNL     C6    8  -0.295  -0.124   0.006
    1UNL     C7    9  -0.270   0.026  -0.017
    1UNL     C8   10  -0.279   0.057  -0.164
    1UNL     C9   11  -0.435   0.068  -0.217
    1UNL     O3   12  -0.219   0.180  -0.204
    1UNL    C10   13  -0.135   0.081   0.055
    1UNL     N1   14  -0.171   0.075   0.205
    1UNL    C11   15  -0.064   0.129   0.284
    1UNL    C12   16   0.068   0.052   0.268
    1UNL    C13   17   0.111   0.025   0.121
    1UNL     N2   18   0.185   0.140   0.063
    1UNL    C14   19   0.311   0.097   0.014
    1UNL    C15   20   0.416   0.165  -0.048
    1UNL    C16   21   0.530   0.087  -0.085
    1UNL    C17   22   0.537  -0.049  -0.056
    1UNL    C18   23   0.435  -0.110   0.010
    1UNL    C19   24   0.322  -0.037   0.044
    1UNL    C20   25   0.213  -0.091   0.116
    1UNL     O4   26   0.201  -0.201   0.162
    1UNL    C21   27  -0.221  -0.065   0.244
    1UNL     H1   28  -0.007  -0.052  -0.374
    1UNL     H2   29   0.173  -0.061  -0.338
    1UNL     H3   30   0.080  -0.198  -0.371
    1UNL     H4   31   0.004  -0.198   0.154
    1UNL     H5   32  -0.051  -0.226  -0.010
    1UNL     H6   33  -0.227  -0.266   0.171
    1UNL     H7   34  -0.394  -0.150   0.021
    1UNL     H8   35  -0.262  -0.164  -0.095
    1UNL     H9   36  -0.347   0.085   0.025
    1UNL    H10   37  -0.235  -0.017  -0.225
    1UNL    H11   38  -0.509   0.020  -0.154
    1UNL    H12   39  -0.448   0.177  -0.221
    1UNL    H13   40  -0.446   0.047  -0.323
    1UNL    H14   41  -0.121   0.162  -0.210
    1UNL    H15   42  -0.103   0.182   0.017
    1UNL    H16   43  -0.047   0.232   0.259
    1UNL    H17   44  -0.089   0.130   0.394
    1UNL    H18   45   0.065  -0.046   0.324
    1UNL    H19   46   0.147   0.115   0.298
    1UNL    H20   47   0.124   0.199   0.010
    1UNL    H21   48   0.396   0.259  -0.097
    1UNL    H22   49   0.609   0.139  -0.137
    1UNL    H23   50   0.619  -0.096  -0.107
    1UNL    H24   51   0.433  -0.213   0.036
    1UNL    H25   52  -0.161  -0.099   0.336
    1UNL    H26   53  -0.330  -0.072   0.273
   0.00000   0.00000   0.00000   0.00000   0.00000   0.00000   0.00000   0.00000   0.00000
Generated with MDTraj, t= 19.0
 53
    1UNL     C1    1   0.068  -0.106  -0.327
    1UNL     O1    2   0.036  -0.132  -0.197
    1UNL     C2    3   0.023  -0.014  -0.127
    1UNL     O2    4   0.035   0.098  -0.172
    1UNL     C3    5  -0.016  -0.030   0.024
    1UNL     C4    6  -0.073  -0.169   0.054
    1UNL     C5    7  -0.211  -0.163   0.124
    1UNL     C6    8  -0.319  -0.104   0.020
    1UNL     C7    9  -0.277   0.039  -0.016
    1UNL     C8   10  -0.291   0.075  -0.168
    1UNL     C9   11  -0.439   0.069  -0.212
    1UNL     O3   12  -0.226   0.188  -0.204
    1UNL    C10   13  -0.138   0.072   0.052
    1UNL     N1   14  -0.158   0.073   0.198
    1UNL    C11   15  -0.048   0.137   0.273
    1UNL    C12   16   0.073   0.047   0.265
    1UNL    C13   17   0.106   0.014   0.118
    1UNL     N2   18   0.175   0.125   0.055
    1UNL    C14   19   0.311   0.089   0.016
    1UNL    C15   20   0.407   0.162  -0.048
    1UNL    C16   21   0.527   0.102  -0.089
    1UNL    C17   22   0.550  -0.029  -0.044
    1UNL    C18   23   0.459  -0.102   0.029
    1UNL    C19   24   0.336  -0.042   0.062
    1UNL    C20   25   0.215  -0.095   0.125
    1UNL     O4   26   0.208  -0.201   0.180
    1UNL    C21   27  -0.206  -0.062   0.242
    1UNL     H1   28  -0.017  -0.097  -0.389
    1UNL     H2   29   0.144  -0.017  -0.342
    1UNL     H3   30   0.126  -0.188  -0.363
    1UNL     H4   31   0.005  -0.214   0.119
    1UNL     H5   32  -0.090  -0.239  -0.035
    1UNL     H6   33  -0.237  -0.268   0.159
    1UNL     H7   34  -0.417  -0.100   0.064
    1UNL     H8   35  -0.316  -0.170  -0.070
    1UNL     H9   36  -0.339   0.106   0.042
    1UNL    H10   37  -0.238   0.005  -0.229
    1UNL    H11   38  -0.463  -0.035  -0.243
    1UNL    H12   39  -0.511   0.094  -0.134
    1UNL    H13   40  -0.470   0.142  -0.287
    1UNL    H14   41  -0.130   0.178  -0.186
    1UNL    H15   42  -0.111   0.176   0.022
    1UNL    H16   43  -0.036   0.240   0.244
    1UNL    H17   44  -0.076   0.145   0.381
    1UNL    H18   45   0.074  -0.056   0.307
    1UNL    H19   46   0.164   0.092   0.311
    1UNL    H20   47   0.121   0.187  -0.004
    1UNL    H21   48   0.384   0.260  -0.091
    1UNL    H22   49   0.590   0.160  -0.156
    1UNL    H23   50   0.647  -0.078  -0.056
    1UNL    H24   51   0.472  -0.209   0.042
    1UNL    H25   52  -0.130  -0.094   0.321
    1UNL    H26   53  -0.301  -0.046   0.304
   0.00000   0.00000   0.00000   0.00000   0.00000   0.00000   0.00000   0.00000   0.00000
Generated with MDTraj, t= 20.0
 53
    1UNL     C1    1   0.078  -0.115  -0.311
    1UNL     O1    2   0.028  -0.142  -0.186
    1UNL     C2    3   0.018  -0.021  -0.116
    1UNL     O2    4   0.040   0.090  -0.160
    1UNL     C3    5  -0.025  -0.028   0.033
    1UNL     C4    6  -0.078  -0.175   0.078
    1UNL     C5    7  -0.218  -0.157   0.127
    1UNL     C6    8  -0.317  -0.101   0.017
    1UNL     C7    9  -0.279   0.044  -0.016
    1UNL     C8   10  -0.276   0.069  -0.162
    1UNL     C9   11  -0.417   0.058  -0.220
    1UNL     O3   12  -0.223   0.202  -0.192
    1UNL    C10   13  -0.144   0.075   0.056
    1UNL     N1   14  -0.164   0.080   0.206
    1UNL    C11   15  -0.048   0.126   0.281
    1UNL    C12   16   0.082   0.044   0.256
    1UNL    C13   17   0.112   0.016   0.111
    1UNL     N2   18   0.183   0.128   0.047
    1UNL    C14   19   0.306   0.085  -0.006
    1UNL    C15   20   0.403   0.161  -0.064
    1UNL    C16   21   0.534   0.112  -0.077
    1UNL    C17   22   0.558  -0.013  -0.029
    1UNL    C18   23   0.462  -0.093   0.029
    1UNL    C19   24   0.333  -0.040   0.044
    1UNL    C20   25   0.207  -0.094   0.099
    1UNL     O4   26   0.192  -0.209   0.135
    1UNL    C21   27  -0.226  -0.059   0.244
    1UNL     H1   28   0.030  -0.029  -0.353
    1UNL     H2   29   0.195  -0.097  -0.305
    1UNL     H3   30   0.062  -0.195  -0.377
    1UNL     H4   31  -0.024  -0.225   0.158
    1UNL     H5   32  -0.071  -0.238  -0.025
    1UNL     H6   33  -0.251  -0.257   0.165
    1UNL     H7   34  -0.414  -0.121   0.057
    1UNL     H8   35  -0.301  -0.164  -0.069
    1UNL     H9   36  -0.349   0.105   0.042
    1UNL    H10   37  -0.206  -0.005  -0.201
    1UNL    H11   38  -0.484  -0.015  -0.165
    1UNL    H12   39  -0.470   0.150  -0.234
    1UNL    H13   40  -0.412   0.033  -0.327
    1UNL    H14   41  -0.129   0.205  -0.201
    1UNL    H15   42  -0.114   0.177   0.023
    1UNL    H16   43  -0.031   0.229   0.253
    1UNL    H17   44  -0.074   0.135   0.388
    1UNL    H18   45   0.074  -0.051   0.308
    1UNL    H19   46   0.189   0.080   0.293
    1UNL    H20   47   0.122   0.182  -0.020
    1UNL    H21   48   0.378   0.262  -0.091
    1UNL    H22   49   0.617   0.168  -0.121
    1UNL    H23   50   0.661  -0.045  -0.019
    1UNL    H24   51   0.479  -0.189   0.074
    1UNL    H25   52  -0.162  -0.092   0.333
    1UNL    H26   53  -0.329  -0.047   0.296
   0.00000   0.00000   0.00000   0.00000   0.00000   0.00000   0.00000   0.00000   0.00000
Generated with MDTraj, t= 21.0
 53
    1UNL     C1    1   0.067  -0.145  -0.310
    1UNL     O1    2   0.014  -0.155  -0.184
    1UNL     C2    3   0.012  -0.027  -0.122
    1UNL     O2    4   0.032   0.079  -0.177
    1UNL     C3    5  -0.022  -0.021   0.026
    1UNL     C4    6  -0.081  -0.158   0.067
    1UNL     C5    7  -0.216  -0.157   0.135
    1UNL     C6    8  -0.319  -0.096   0.027
    1UNL     C7    9  -0.270   0.056  -0.014
    1UNL     C8   10  -0.271   0.066  -0.166
    1UNL     C9   11  -0.409   0.057  -0.229
    1UNL     O3   12  -0.207   0.187  -0.209
    1UNL    C10   13  -0.134   0.085   0.059
    1UNL     N1   14  -0.156   0.080   0.205
    1UNL    C11   15  -0.042   0.124   0.284
    1UNL    C12   16   0.073   0.025   0.258
    1UNL    C13   17   0.107   0.011   0.110
    1UNL     N2   18   0.179   0.134   0.066
    1UNL    C14   19   0.312   0.105   0.036
    1UNL    C15   20   0.414   0.185  -0.025
    1UNL    C16   21   0.527   0.123  -0.067
    1UNL    C17   22   0.541  -0.014  -0.056
    1UNL    C18   23   0.445  -0.091   0.002
    1UNL    C19   24   0.332  -0.033   0.047
    1UNL    C20   25   0.210  -0.096   0.096
    1UNL     O4   26   0.195  -0.210   0.129
    1UNL    C21   27  -0.218  -0.056   0.251
    1UNL     H1   28   0.039  -0.052  -0.356
    1UNL     H2   29   0.182  -0.153  -0.296
    1UNL     H3   30   0.031  -0.230  -0.362
    1UNL     H4   31  -0.007  -0.198   0.139
    1UNL     H5   32  -0.079  -0.224  -0.027
    1UNL     H6   33  -0.247  -0.262   0.155
    1UNL     H7   34  -0.422  -0.101   0.062
    1UNL     H8   35  -0.304  -0.154  -0.057
    1UNL     H9   36  -0.336   0.141   0.011
    1UNL    H10   37  -0.206  -0.010  -0.218
    1UNL    H11   38  -0.434  -0.052  -0.243
    1UNL    H12   39  -0.488   0.101  -0.169
    1UNL    H13   40  -0.412   0.125  -0.317
    1UNL    H14   41  -0.112   0.199  -0.169
    1UNL    H15   42  -0.104   0.180   0.012
    1UNL    H16   43  -0.006   0.222   0.251
    1UNL    H17   44  -0.061   0.127   0.391
    1UNL    H18   45   0.064  -0.075   0.300
    1UNL    H19   46   0.172   0.062   0.316
    1UNL    H20   47   0.126   0.179  -0.012
    1UNL    H21   48   0.402   0.288  -0.050
    1UNL    H22   49   0.601   0.184  -0.114
    1UNL    H23   50   0.628  -0.056  -0.104
    1UNL    H24   51   0.456  -0.193   0.035
    1UNL    H25   52  -0.149  -0.081   0.340
    1UNL    H26   53  -0.318  -0.034   0.307
   0.00000   0.00000   0.00000   0.00000   0.00000   0.00000   0.00000   0.00000   0.00000
Generated with MDTraj, t= 22.0
 53
    1UNL     C1    1   0.043  -0.129  -0.317
    1UNL     O1    2  -0.001  -0.147  -0.186
    1UNL     C2    3   0.024  -0.035  -0.113
    1UNL     O2    4   0.071   0.067  -0.160
    1UNL     C3    5  -0.023  -0.033   0.035
    1UNL     C4    6  -0.084  -0.170   0.085
    1UNL     C5    7  -0.224  -0.147   0.138
    1UNL     C6    8  -0.315  -0.097   0.021
    1UNL     C7    9  -0.263   0.046  -0.018
    1UNL     C8   10  -0.271   0.071  -0.172
    1UNL     C9   11  -0.417   0.067  -0.236
    1UNL     O3   12  -0.191   0.188  -0.214
    1UNL    C10   13  -0.132   0.081   0.054
    1UNL     N1   14  -0.161   0.091   0.205
    1UNL    C11   15  -0.044   0.128   0.279
    1UNL    C12   16   0.070   0.020   0.263
    1UNL    C13   17   0.111   0.000   0.122
    1UNL     N2   18   0.172   0.123   0.076
    1UNL    C14   19   0.301   0.103   0.026
    1UNL    C15   20   0.395   0.186  -0.033
    1UNL    C16   21   0.514   0.138  -0.069
    1UNL    C17   22   0.546   0.000  -0.056
    1UNL    C18   23   0.453  -0.090  -0.009
    1UNL    C19   24   0.329  -0.039   0.025
    1UNL    C20   25   0.221  -0.104   0.102
    1UNL     O4   26   0.220  -0.222   0.133
    1UNL    C21   27  -0.230  -0.039   0.246
    1UNL     H1   28  -0.030  -0.082  -0.379
    1UNL     H2   29   0.135  -0.061  -0.308
    1UNL     H3   30   0.069  -0.230  -0.349
    1UNL     H4   31  -0.015  -0.207   0.169
    1UNL     H5   32  -0.072  -0.232   0.001
    1UNL     H6   33  -0.258  -0.247   0.167
    1UNL     H7   34  -0.422  -0.099   0.042
    1UNL     H8   35  -0.290  -0.160  -0.056
    1UNL     H9   36  -0.335   0.114   0.036
    1UNL    H10   37  -0.215  -0.017  -0.219
    1UNL    H11   38  -0.478   0.003  -0.170
    1UNL    H12   39  -0.453   0.171  -0.241
    1UNL    H13   40  -0.415   0.045  -0.345
    1UNL    H14   41  -0.106   0.153  -0.193
    1UNL    H15   42  -0.100   0.185   0.035
    1UNL    H16   43  -0.001   0.224   0.247
    1UNL    H17   44  -0.064   0.121   0.385
    1UNL    H18   45   0.038  -0.073   0.308
    1UNL    H19   46   0.163   0.056   0.327
    1UNL    H20   47   0.105   0.184   0.034
    1UNL    H21   48   0.365   0.289  -0.045
    1UNL    H22   49   0.589   0.196  -0.122
    1UNL    H23   50   0.642  -0.043  -0.082
    1UNL    H24   51   0.492  -0.191  -0.001
    1UNL    H25   52  -0.186  -0.080   0.344
    1UNL    H26   53  -0.339  -0.017   0.283
   0.00000   0.00000   0.00000   0.00000   0.00000   0.00000   0.00000   0.00000   0.00000
Generated with MDTraj, t= 23.0
 53
    1UNL     C1    1   0.027  -0.136  -0.323
    1UNL     O1    2  -0.010  -0.148  -0.184
    1UNL     C2    3   0.021  -0.036  -0.119
    1UNL     O2    4   0.084   0.055  -0.168
    1UNL     C3    5  -0.018  -0.027   0.035
    1UNL     C4    6  -0.080  -0.172   0.080
    1UNL     C5    7  -0.222  -0.160   0.127
    1UNL     C6    8  -0.314  -0.089   0.012
    1UNL     C7    9  -0.267   0.058  -0.019
    1UNL     C8   10  -0.265   0.077  -0.172
    1UNL     C9   11  -0.401   0.085  -0.232
    1UNL     O3   12  -0.184   0.186  -0.212
    1UNL    C10   13  -0.139   0.076   0.059
    1UNL     N1   14  -0.162   0.063   0.207
    1UNL    C11   15  -0.057   0.119   0.294
    1UNL    C12   16   0.076   0.041   0.270
    1UNL    C13   17   0.104   0.015   0.121
    1UNL     N2   18   0.172   0.131   0.064
    1UNL    C14   19   0.300   0.098   0.025
    1UNL    C15   20   0.391   0.181  -0.053
    1UNL    C16   21   0.505   0.122  -0.097
    1UNL    C17   22   0.547   0.000  -0.057
    1UNL    C18   23   0.456  -0.077   0.017
    1UNL    C19   24   0.338  -0.030   0.057
    1UNL    C20   25   0.225  -0.094   0.119
    1UNL     O4   26   0.208  -0.213   0.136
    1UNL    C21   27  -0.216  -0.067   0.247
    1UNL     H1   28  -0.013  -0.046  -0.366
    1UNL     H2   29   0.139  -0.119  -0.319
    1UNL     H3   30  -0.005  -0.229  -0.373
    1UNL     H4   31  -0.005  -0.206   0.160
    1UNL     H5   32  -0.080  -0.239   0.004
    1UNL     H6   33  -0.262  -0.256   0.158
    1UNL     H7   34  -0.412  -0.089   0.059
    1UNL     H8   35  -0.309  -0.142  -0.078
    1UNL     H9   36  -0.347   0.127   0.021
    1UNL    H10   37  -0.212  -0.019  -0.207
    1UNL    H11   38  -0.456  -0.008  -0.232
    1UNL    H12   39  -0.455   0.155  -0.162
    1UNL    H13   40  -0.404   0.148  -0.324
    1UNL    H14   41  -0.088   0.156  -0.192
    1UNL    H15   42  -0.096   0.172   0.028
    1UNL    H16   43  -0.036   0.222   0.266
    1UNL    H17   44  -0.086   0.101   0.397
    1UNL    H18   45   0.068  -0.059   0.315
    1UNL    H19   46   0.162   0.094   0.316
    1UNL    H20   47   0.120   0.179  -0.004
    1UNL    H21   48   0.356   0.278  -0.081
    1UNL    H22   49   0.572   0.177  -0.159
    1UNL    H23   50   0.641  -0.032  -0.098
    1UNL    H24   51   0.482  -0.177   0.046
    1UNL    H25   52  -0.157  -0.109   0.337
    1UNL    H26   53  -0.320  -0.054   0.299
   0.00000   0.00000   0.00000   0.00000   0.00000   0.00000   0.00000   0.00000   0.00000
Generated with MDTraj, t= 24.0
 53
    1UNL     C1    1   0.036  -0.138  -0.321
    1UNL     O1    2  -0.025  -0.137  -0.189
    1UNL     C2    3   0.007  -0.023  -0.116
    1UNL     O2    4   0.055   0.073  -0.175
    1UNL     C3    5  -0.019  -0.022   0.031
    1UNL     C4    6  -0.061  -0.173   0.087
    1UNL     C5    7  -0.209  -0.164   0.127
    1UNL     C6    8  -0.294  -0.118   0.001
    1UNL     C7    9  -0.270   0.033  -0.021
    1UNL     C8   10  -0.266   0.078  -0.173
    1UNL     C9   11  -0.399   0.090  -0.234
    1UNL     O3   12  -0.190   0.197  -0.185
    1UNL    C10   13  -0.141   0.075   0.059
    1UNL     N1   14  -0.171   0.072   0.208
    1UNL    C11   15  -0.051   0.127   0.279
    1UNL    C12   16   0.071   0.037   0.266
    1UNL    C13   17   0.110   0.015   0.117
    1UNL     N2   18   0.178   0.135   0.059
    1UNL    C14   19   0.304   0.095   0.008
    1UNL    C15   20   0.401   0.178  -0.050
    1UNL    C16   21   0.520   0.123  -0.082
    1UNL    C17   22   0.543  -0.013  -0.060
    1UNL    C18   23   0.453  -0.094   0.003
    1UNL    C19   24   0.335  -0.039   0.042
    1UNL    C20   25   0.220  -0.095   0.120
    1UNL     O4   26   0.213  -0.201   0.179
    1UNL    C21   27  -0.228  -0.060   0.242
    1UNL     H1   28   0.048  -0.038  -0.359
    1UNL     H2   29   0.137  -0.179  -0.305
    1UNL     H3   30  -0.032  -0.207  -0.378
    1UNL     H4   31  -0.002  -0.205   0.176
    1UNL     H5   32  -0.038  -0.247   0.015
    1UNL     H6   33  -0.244  -0.259   0.164
    1UNL     H7   34  -0.399  -0.133   0.005
    1UNL     H8   35  -0.244  -0.176  -0.079
    1UNL     H9   36  -0.356   0.094   0.020
    1UNL    H10   37  -0.202   0.011  -0.241
    1UNL    H11   38  -0.470   0.008  -0.225
    1UNL    H12   39  -0.448   0.176  -0.178
    1UNL    H13   40  -0.398   0.137  -0.335
    1UNL    H14   41  -0.098   0.174  -0.171
    1UNL    H15   42  -0.099   0.175   0.041
    1UNL    H16   43  -0.028   0.230   0.251
    1UNL    H17   44  -0.079   0.120   0.383
    1UNL    H18   45   0.067  -0.064   0.315
    1UNL    H19   46   0.153   0.078   0.309
    1UNL    H20   47   0.111   0.175  -0.006
    1UNL    H21   48   0.365   0.280  -0.069
    1UNL    H22   49   0.588   0.188  -0.137
    1UNL    H23   50   0.635  -0.064  -0.093
    1UNL    H24   51   0.494  -0.193   0.027
    1UNL    H25   52  -0.196  -0.106   0.345
    1UNL    H26   53  -0.342  -0.057   0.265
   0.00000   0.00000   0.00000   0.00000   0.00000   0.00000   0.00000   0.00000   0.00000
Generated with MDTraj, t= 25.0
 53
    1UNL     C1    1   0.033  -0.122  -0.320
    1UNL     O1    2   0.025  -0.141  -0.181
    1UNL     C2    3   0.030  -0.023  -0.115
    1UNL     O2    4   0.065   0.082  -0.167
    1UNL     C3    5  -0.017  -0.021   0.028
    1UNL     C4    6  -0.070  -0.158   0.066
    1UNL     C5    7  -0.217  -0.167   0.122
    1UNL     C6    8  -0.310  -0.108   0.012
    1UNL     C7    9  -0.265   0.043  -0.015
    1UNL     C8   10  -0.276   0.069  -0.170
    1UNL     C9   11  -0.422   0.075  -0.218
    1UNL     O3   12  -0.202   0.189  -0.206
    1UNL    C10   13  -0.139   0.077   0.057
    1UNL     N1   14  -0.166   0.064   0.206
    1UNL    C11   15  -0.056   0.123   0.288
    1UNL    C12   16   0.064   0.038   0.269
    1UNL    C13   17   0.111   0.025   0.119
    1UNL     N2   18   0.178   0.136   0.066
    1UNL    C14   19   0.309   0.104   0.020
    1UNL    C15   20   0.406   0.172  -0.056
    1UNL    C16   21   0.523   0.108  -0.091
    1UNL    C17   22   0.541  -0.028  -0.062
    1UNL    C18   23   0.451  -0.099   0.020
    1UNL    C19   24   0.336  -0.033   0.056
    1UNL    C20   25   0.213  -0.088   0.110
    1UNL     O4   26   0.197  -0.199   0.156
    1UNL    C21   27  -0.220  -0.067   0.240
    1UNL     H1   28  -0.051  -0.065  -0.358
    1UNL     H2   29   0.124  -0.067  -0.340
    1UNL     H3   30   0.030  -0.229  -0.357
    1UNL     H4   31  -0.002  -0.194   0.135
    1UNL     H5   32  -0.054  -0.226  -0.020
    1UNL     H6   33  -0.247  -0.266   0.149
    1UNL     H7   34  -0.405  -0.124   0.052
    1UNL     H8   35  -0.296  -0.160  -0.088
    1UNL     H9   36  -0.345   0.110   0.030
    1UNL    H10   37  -0.219  -0.013  -0.219
    1UNL    H11   38  -0.491   0.003  -0.169
    1UNL    H12   39  -0.458   0.178  -0.190
    1UNL    H13   40  -0.423   0.080  -0.328
    1UNL    H14   41  -0.103   0.173  -0.207
    1UNL    H15   42  -0.097   0.176   0.036
    1UNL    H16   43  -0.043   0.223   0.245
    1UNL    H17   44  -0.086   0.136   0.390
    1UNL    H18   45   0.073  -0.061   0.319
    1UNL    H19   46   0.148   0.078   0.308
    1UNL    H20   47   0.124   0.185  -0.011
    1UNL    H21   48   0.382   0.266  -0.099
    1UNL    H22   49   0.588   0.146  -0.168
    1UNL    H23   50   0.634  -0.072  -0.089
    1UNL    H24   51   0.468  -0.199   0.051
    1UNL    H25   52  -0.172  -0.119   0.333
    1UNL    H26   53  -0.331  -0.055   0.273
   0.00000   0.00000   0.00000   0.00000   0.00000   0.00000   0.00000   0.00000   0.00000
Generated with MDTraj, t= 26.0
 53
    1UNL     C1    1   0.097  -0.094  -0.312
    1UNL     O1    2   0.024  -0.127  -0.195
    1UNL     C2    3   0.019  -0.019  -0.116
    1UNL     O2    4   0.048   0.093  -0.151
    1UNL     C3    5  -0.020  -0.031   0.032
    1UNL     C4    6  -0.079  -0.176   0.078
    1UNL     C5    7  -0.219  -0.150   0.130
    1UNL     C6    8  -0.322  -0.101   0.025
    1UNL     C7    9  -0.269   0.046  -0.015
    1UNL     C8   10  -0.279   0.072  -0.169
    1UNL     C9   11  -0.427   0.056  -0.219
    1UNL     O3   12  -0.221   0.189  -0.218
    1UNL    C10   13  -0.133   0.073   0.057
    1UNL     N1   14  -0.161   0.082   0.204
    1UNL    C11   15  -0.043   0.138   0.275
    1UNL    C12   16   0.072   0.039   0.263
    1UNL    C13   17   0.104   0.002   0.119
    1UNL     N2   18   0.176   0.123   0.058
    1UNL    C14   19   0.305   0.086   0.009
    1UNL    C15   20   0.401   0.167  -0.050
    1UNL    C16   21   0.518   0.106  -0.088
    1UNL    C17   22   0.544  -0.023  -0.052
    1UNL    C18   23   0.448  -0.102   0.004
    1UNL    C19   24   0.332  -0.043   0.046
    1UNL    C20   25   0.212  -0.101   0.110
    1UNL     O4   26   0.205  -0.212   0.157
    1UNL    C21   27  -0.215  -0.050   0.248
    1UNL     H1   28   0.034  -0.108  -0.400
    1UNL     H2   29   0.127   0.006  -0.306
    1UNL     H3   30   0.185  -0.166  -0.314
    1UNL     H4   31  -0.022  -0.230   0.144
    1UNL     H5   32  -0.078  -0.247  -0.011
    1UNL     H6   33  -0.255  -0.247   0.161
    1UNL     H7   34  -0.415  -0.102   0.069
    1UNL     H8   35  -0.318  -0.187  -0.053
    1UNL     H9   36  -0.340   0.118   0.037
    1UNL    H10   37  -0.213  -0.005  -0.207
    1UNL    H11   38  -0.441  -0.057  -0.219
    1UNL    H12   39  -0.499   0.109  -0.155
    1UNL    H13   40  -0.417   0.099  -0.321
    1UNL    H14   41  -0.122   0.177  -0.205
    1UNL    H15   42  -0.106   0.168   0.010
    1UNL    H16   43  -0.014   0.229   0.219
    1UNL    H17   44  -0.066   0.166   0.375
    1UNL    H18   45   0.077  -0.056   0.318
    1UNL    H19   46   0.161   0.084   0.296
    1UNL    H20   47   0.110   0.181   0.000
    1UNL    H21   48   0.361   0.265  -0.083
    1UNL    H22   49   0.590   0.174  -0.131
    1UNL    H23   50   0.649  -0.056  -0.061
    1UNL    H24   51   0.455  -0.204   0.039
    1UNL    H25   52  -0.155  -0.109   0.328
    1UNL    H26   53  -0.323  -0.033   0.288
   0.00000   0.00000   0.00000   0.00000   0.00000   0.00000   0.00000   0.00000   0.00000
Generated with MDTraj, t= 27.0
 53
    1UNL     C1    1   0.104  -0.117  -0.299
    1UNL     O1    2   0.076  -0.125  -0.164
    1UNL     C2    3   0.023  -0.004  -0.120
    1UNL     O2    4   0.023   0.099  -0.184
    1UNL     C3    5  -0.026  -0.013   0.025
    1UNL     C4    6  -0.074  -0.156   0.060
    1UNL     C5    7  -0.214  -0.155   0.132
    1UNL     C6    8  -0.318  -0.097   0.027
    1UNL     C7    9  -0.278   0.051  -0.008
    1UNL     C8   10  -0.279   0.064  -0.159
    1UNL     C9   11  -0.421   0.044  -0.233
    1UNL     O3   12  -0.229   0.190  -0.205
    1UNL    C10   13  -0.147   0.080   0.060
    1UNL     N1   14  -0.164   0.075   0.211
    1UNL    C11   15  -0.048   0.121   0.284
    1UNL    C12   16   0.074   0.030   0.261
    1UNL    C13   17   0.103   0.024   0.111
    1UNL     N2   18   0.182   0.135   0.060
    1UNL    C14   19   0.307   0.093   0.016
    1UNL    C15   20   0.408   0.163  -0.046
    1UNL    C16   21   0.528   0.102  -0.088
    1UNL    C17   22   0.536  -0.038  -0.060
    1UNL    C18   23   0.438  -0.110   0.002
    1UNL    C19   24   0.322  -0.041   0.046
    1UNL    C20   25   0.202  -0.096   0.107
    1UNL     O4   26   0.193  -0.214   0.136
    1UNL    C21   27  -0.211  -0.053   0.260
    1UNL     H1   28   0.015  -0.151  -0.354
    1UNL     H2   29   0.130  -0.022  -0.327
    1UNL     H3   30   0.190  -0.189  -0.321
    1UNL     H4   31   0.002  -0.210   0.121
    1UNL     H5   32  -0.072  -0.210  -0.038
    1UNL     H6   33  -0.247  -0.250   0.169
    1UNL     H7   34  -0.411  -0.110   0.075
    1UNL     H8   35  -0.307  -0.167  -0.063
    1UNL     H9   36  -0.352   0.132   0.026
    1UNL    H10   37  -0.206  -0.005  -0.194
    1UNL    H11   38  -0.466  -0.053  -0.192
    1UNL    H12   39  -0.485   0.131  -0.219
    1UNL    H13   40  -0.397   0.033  -0.341
    1UNL    H14   41  -0.136   0.187  -0.195
    1UNL    H15   42  -0.133   0.188   0.042
    1UNL    H16   43  -0.020   0.222   0.245
    1UNL    H17   44  -0.071   0.116   0.388
    1UNL    H18   45   0.062  -0.065   0.308
    1UNL    H19   46   0.166   0.072   0.308
    1UNL    H20   47   0.134   0.192  -0.007
    1UNL    H21   48   0.396   0.265  -0.074
    1UNL    H22   49   0.604   0.155  -0.145
    1UNL    H23   50   0.628  -0.091  -0.066
    1UNL    H24   51   0.452  -0.217   0.012
    1UNL    H25   52  -0.143  -0.095   0.343
    1UNL    H26   53  -0.322  -0.047   0.295
   0.00000   0.00000   0.00000   0.00000   0.00000   0.00000   0.00000   0.00000   0.00000
Generated with MDTraj, t= 28.0
 53
    1UNL     C1    1   0.127  -0.100  -0.301
    1UNL     O1    2   0.056  -0.132  -0.183
    1UNL     C2    3   0.021  -0.018  -0.119
    1UNL     O2    4   0.036   0.091  -0.169
    1UNL     C3    5  -0.026  -0.025   0.027
    1UNL     C4    6  -0.075  -0.163   0.075
    1UNL     C5    7  -0.214  -0.154   0.128
    1UNL     C6    8  -0.312  -0.108   0.021
    1UNL     C7    9  -0.277   0.040  -0.018
    1UNL     C8   10  -0.287   0.072  -0.170
    1UNL     C9   11  -0.429   0.064  -0.220
    1UNL     O3   12  -0.229   0.199  -0.197
    1UNL    C10   13  -0.142   0.078   0.056
    1UNL     N1   14  -0.171   0.081   0.207
    1UNL    C11   15  -0.055   0.133   0.282
    1UNL    C12   16   0.071   0.044   0.263
    1UNL    C13   17   0.104   0.013   0.116
    1UNL     N2   18   0.176   0.122   0.054
    1UNL    C14   19   0.309   0.086   0.017
    1UNL    C15   20   0.400   0.164  -0.053
    1UNL    C16   21   0.520   0.105  -0.091
    1UNL    C17   22   0.539  -0.032  -0.070
    1UNL    C18   23   0.445  -0.111  -0.000
    1UNL    C19   24   0.330  -0.050   0.045
    1UNL    C20   25   0.216  -0.099   0.114
    1UNL     O4   26   0.205  -0.206   0.163
    1UNL    C21   27  -0.222  -0.054   0.251
    1UNL     H1   28   0.072  -0.026  -0.359
    1UNL     H2   29   0.224  -0.073  -0.288
    1UNL     H3   30   0.128  -0.194  -0.368
    1UNL     H4   31  -0.009  -0.202   0.168
    1UNL     H5   32  -0.064  -0.238  -0.005
    1UNL     H6   33  -0.248  -0.248   0.167
    1UNL     H7   34  -0.415  -0.127   0.053
    1UNL     H8   35  -0.281  -0.182  -0.058
    1UNL     H9   36  -0.354   0.111   0.026
    1UNL    H10   37  -0.223   0.010  -0.229
    1UNL    H11   38  -0.466  -0.044  -0.209
    1UNL    H12   39  -0.495   0.127  -0.159
    1UNL    H13   40  -0.453   0.095  -0.326
    1UNL    H14   41  -0.126   0.187  -0.202
    1UNL    H15   42  -0.105   0.174   0.018
    1UNL    H16   43  -0.023   0.234   0.244
    1UNL    H17   44  -0.075   0.124   0.386
    1UNL    H18   45   0.054  -0.043   0.314
    1UNL    H19   46   0.163   0.096   0.308
    1UNL    H20   47   0.117   0.188   0.008
    1UNL    H21   48   0.373   0.261  -0.097
    1UNL    H22   49   0.585   0.156  -0.159
    1UNL    H23   50   0.623  -0.075  -0.126
    1UNL    H24   51   0.452  -0.214   0.031
    1UNL    H25   52  -0.160  -0.104   0.334
    1UNL    H26   53  -0.335  -0.039   0.280
   0.00000   0.00000   0.00000   0.00000   0.00000   0.00000   0.00000   0.00000   0.00000
Generated with MDTraj, t= 29.0
 53
    1UNL     C1    1   0.098  -0.110  -0.307
    1UNL     O1    2   0.037  -0.135  -0.184
    1UNL     C2    3   0.033  -0.016  -0.112
    1UNL     O2    4   0.061   0.090  -0.164
    1UNL     C3    5  -0.016  -0.018   0.034
    1UNL     C4    6  -0.070  -0.162   0.069
    1UNL     C5    7  -0.218  -0.171   0.122
    1UNL     C6    8  -0.311  -0.105   0.012
    1UNL     C7    9  -0.268   0.042  -0.020
    1UNL     C8   10  -0.279   0.072  -0.168
    1UNL     C9   11  -0.422   0.086  -0.211
    1UNL     O3   12  -0.203   0.191  -0.214
    1UNL    C10   13  -0.140   0.078   0.057
    1UNL     N1   14  -0.173   0.066   0.202
    1UNL    C11   15  -0.067   0.128   0.291
    1UNL    C12   16   0.064   0.047   0.270
    1UNL    C13   17   0.108   0.012   0.127
    1UNL     N2   18   0.175   0.129   0.062
    1UNL    C14   19   0.297   0.089   0.007
    1UNL    C15   20   0.382   0.160  -0.074
    1UNL    C16   21   0.503   0.098  -0.113
    1UNL    C17   22   0.536  -0.028  -0.065
    1UNL    C18   23   0.448  -0.096   0.010
    1UNL    C19   24   0.326  -0.040   0.043
    1UNL    C20   25   0.219  -0.093   0.129
    1UNL     O4   26   0.207  -0.203   0.179
    1UNL    C21   27  -0.211  -0.070   0.245
    1UNL     H1   28   0.052  -0.026  -0.362
    1UNL     H2   29   0.200  -0.105  -0.305
    1UNL     H3   30   0.075  -0.199  -0.377
    1UNL     H4   31   0.003  -0.216   0.138
    1UNL     H5   32  -0.077  -0.228  -0.022
    1UNL     H6   33  -0.258  -0.271   0.141
    1UNL     H7   34  -0.419  -0.116   0.049
    1UNL     H8   35  -0.304  -0.170  -0.075
    1UNL     H9   36  -0.349   0.099   0.035
    1UNL    H10   37  -0.228  -0.011  -0.219
    1UNL    H11   38  -0.494   0.002  -0.203
    1UNL    H12   39  -0.461   0.171  -0.150
    1UNL    H13   40  -0.436   0.130  -0.315
    1UNL    H14   41  -0.108   0.180  -0.199
    1UNL    H15   42  -0.102   0.180   0.036
    1UNL    H16   43  -0.051   0.235   0.258
    1UNL    H17   44  -0.092   0.120   0.393
    1UNL    H18   45   0.071  -0.046   0.316
    1UNL    H19   46   0.144   0.112   0.322
    1UNL    H20   47   0.106   0.180   0.008
    1UNL    H21   48   0.346   0.257  -0.100
    1UNL    H22   49   0.570   0.151  -0.182
    1UNL    H23   50   0.621  -0.084  -0.096
    1UNL    H24   51   0.483  -0.179   0.069
    1UNL    H25   52  -0.124  -0.110   0.308
    1UNL    H26   53  -0.314  -0.067   0.298
   0.00000   0.00000   0.00000   0.00000   0.00000   0.00000   0.00000   0.00000   0.00000
Generated with MDTraj, t= 30.0
 53
    1UNL     C1    1   0.052  -0.118  -0.313
    1UNL     O1    2   0.023  -0.141  -0.176
    1UNL     C2    3   0.028  -0.022  -0.114
    1UNL     O2    4   0.056   0.084  -0.166
    1UNL     C3    5  -0.016  -0.028   0.037
    1UNL     C4    6  -0.064  -0.173   0.085
    1UNL     C5    7  -0.210  -0.168   0.129
    1UNL     C6    8  -0.297  -0.116   0.004
    1UNL     C7    9  -0.268   0.038  -0.027
    1UNL     C8   10  -0.264   0.078  -0.175
    1UNL     C9   11  -0.400   0.079  -0.236
    1UNL     O3   12  -0.191   0.199  -0.188
    1UNL    C10   13  -0.140   0.079   0.056
    1UNL     N1   14  -0.173   0.069   0.202
    1UNL    C11   15  -0.062   0.124   0.285
    1UNL    C12   16   0.054   0.040   0.269
    1UNL    C13   17   0.105   0.022   0.124
    1UNL     N2   18   0.178   0.141   0.079
    1UNL    C14   19   0.303   0.106   0.021
    1UNL    C15   20   0.399   0.173  -0.063
    1UNL    C16   21   0.503   0.101  -0.118
    1UNL    C17   22   0.523  -0.037  -0.088
    1UNL    C18   23   0.439  -0.100   0.005
    1UNL    C19   24   0.329  -0.030   0.049
    1UNL    C20   25   0.219  -0.085   0.125
    1UNL     O4   26   0.211  -0.199   0.173
    1UNL    C21   27  -0.226  -0.066   0.243
    1UNL     H1   28  -0.039  -0.110  -0.379
    1UNL     H2   29   0.117  -0.038  -0.333
    1UNL     H3   30   0.107  -0.206  -0.359
    1UNL     H4   31  -0.012  -0.223   0.161
    1UNL     H5   32  -0.047  -0.242  -0.007
    1UNL     H6   33  -0.238  -0.268   0.164
    1UNL     H7   34  -0.409  -0.147   0.021
    1UNL     H8   35  -0.265  -0.169  -0.083
    1UNL     H9   36  -0.355   0.090   0.026
    1UNL    H10   37  -0.207   0.004  -0.240
    1UNL    H11   38  -0.458  -0.004  -0.195
    1UNL    H12   39  -0.436   0.180  -0.196
    1UNL    H13   40  -0.404   0.079  -0.349
    1UNL    H14   41  -0.096   0.171  -0.187
    1UNL    H15   42  -0.097   0.180   0.040
    1UNL    H16   43  -0.051   0.235   0.264
    1UNL    H17   44  -0.098   0.111   0.383
    1UNL    H18   45   0.032  -0.058   0.310
    1UNL    H19   46   0.153   0.064   0.322
    1UNL    H20   47   0.125   0.207   0.018
    1UNL    H21   48   0.407   0.280  -0.078
    1UNL    H22   49   0.568   0.147  -0.188
    1UNL    H23   50   0.616  -0.090  -0.115
    1UNL    H24   51   0.459  -0.196   0.049
    1UNL    H25   52  -0.175  -0.110   0.338
    1UNL    H26   53  -0.341  -0.061   0.252
   0.00000   0.00000   0.00000   0.00000   0.00000   0.00000   0.00000   0.00000   0.00000
Generated with MDTraj, t= 31.0
 53
    1UNL     C1    1   0.051  -0.123  -0.311
    1UNL     O1    2   0.001  -0.141  -0.180
    1UNL     C2    3   0.022  -0.024  -0.104
    1UNL     O2    4   0.058   0.078  -0.159
    1UNL     C3    5  -0.017  -0.025   0.040
    1UNL     C4    6  -0.071  -0.170   0.081
    1UNL     C5    7  -0.217  -0.161   0.125
    1UNL     C6    8  -0.297  -0.100   0.011
    1UNL     C7    9  -0.261   0.045  -0.022
    1UNL     C8   10  -0.249   0.070  -0.177
    1UNL     C9   11  -0.390   0.055  -0.245
    1UNL     O3   12  -0.196   0.202  -0.205
    1UNL    C10   13  -0.131   0.073   0.060
    1UNL     N1   14  -0.166   0.074   0.203
    1UNL    C11   15  -0.052   0.117   0.296
    1UNL    C12   16   0.072   0.036   0.278
    1UNL    C13   17   0.110   0.011   0.128
    1UNL     N2   18   0.180   0.134   0.072
    1UNL    C14   19   0.299   0.100   0.014
    1UNL    C15   20   0.392   0.179  -0.048
    1UNL    C16   21   0.500   0.117  -0.104
    1UNL    C17   22   0.525  -0.018  -0.079
    1UNL    C18   23   0.435  -0.099  -0.009
    1UNL    C19   24   0.323  -0.040   0.031
    1UNL    C20   25   0.216  -0.092   0.116
    1UNL     O4   26   0.209  -0.197   0.174
    1UNL    C21   27  -0.226  -0.055   0.243
    1UNL     H1   28  -0.026  -0.088  -0.385
    1UNL     H2   29   0.143  -0.070  -0.314
    1UNL     H3   30   0.073  -0.227  -0.349
    1UNL     H4   31  -0.012  -0.220   0.150
    1UNL     H5   32  -0.069  -0.242  -0.010
    1UNL     H6   33  -0.254  -0.262   0.153
    1UNL     H7   34  -0.414  -0.095   0.025
    1UNL     H8   35  -0.280  -0.158  -0.078
    1UNL     H9   36  -0.333   0.124   0.013
    1UNL    H10   37  -0.180  -0.003  -0.236
    1UNL    H11   38  -0.426  -0.048  -0.256
    1UNL    H12   39  -0.453   0.131  -0.186
    1UNL    H13   40  -0.380   0.105  -0.344
    1UNL    H14   41  -0.099   0.188  -0.185
    1UNL    H15   42  -0.106   0.178   0.030
    1UNL    H16   43  -0.032   0.227   0.276
    1UNL    H17   44  -0.090   0.114   0.395
    1UNL    H18   45   0.063  -0.078   0.309
    1UNL    H19   46   0.165   0.063   0.334
    1UNL    H20   47   0.108   0.197   0.028
    1UNL    H21   48   0.352   0.278  -0.067
    1UNL    H22   49   0.575   0.173  -0.165
    1UNL    H23   50   0.616  -0.058  -0.116
    1UNL    H24   51   0.452  -0.204   0.014
    1UNL    H25   52  -0.169  -0.097   0.334
    1UNL    H26   53  -0.337  -0.034   0.267
   0.00000   0.00000   0.00000   0.00000   0.00000   0.00000   0.00000   0.00000   0.00000
Generated with MDTraj, t= 32.0
 53
    1UNL     C1    1   0.071  -0.125  -0.306
    1UNL     O1    2   0.018  -0.140  -0.178
    1UNL     C2    3   0.025  -0.025  -0.113
    1UNL     O2    4   0.071   0.082  -0.150
    1UNL     C3    5  -0.023  -0.028   0.035
    1UNL     C4    6  -0.081  -0.164   0.071
    1UNL     C5    7  -0.228  -0.152   0.126
    1UNL     C6    8  -0.333  -0.098   0.031
    1UNL     C7    9  -0.268   0.045  -0.019
    1UNL     C8   10  -0.262   0.059  -0.173
    1UNL     C9   11  -0.400   0.067  -0.235
    1UNL     O3   12  -0.191   0.176  -0.206
    1UNL    C10   13  -0.133   0.080   0.057
    1UNL     N1   14  -0.161   0.079   0.202
    1UNL    C11   15  -0.047   0.130   0.290
    1UNL    C12   16   0.075   0.038   0.271
    1UNL    C13   17   0.108   0.010   0.121
    1UNL     N2   18   0.175   0.128   0.073
    1UNL    C14   19   0.299   0.097   0.027
    1UNL    C15   20   0.389   0.174  -0.049
    1UNL    C16   21   0.501   0.123  -0.106
    1UNL    C17   22   0.543  -0.006  -0.074
    1UNL    C18   23   0.456  -0.084   0.009
    1UNL    C19   24   0.332  -0.034   0.054
    1UNL    C20   25   0.211  -0.102   0.103
    1UNL     O4   26   0.194  -0.217   0.130
    1UNL    C21   27  -0.223  -0.055   0.249
    1UNL     H1   28   0.057  -0.020  -0.347
    1UNL     H2   29   0.171  -0.163  -0.316
    1UNL     H3   30   0.008  -0.188  -0.372
    1UNL     H4   31  -0.014  -0.214   0.137
    1UNL     H5   32  -0.083  -0.222  -0.024
    1UNL     H6   33  -0.257  -0.251   0.170
    1UNL     H7   34  -0.440  -0.103   0.077
    1UNL     H8   35  -0.341  -0.158  -0.059
    1UNL     H9   36  -0.335   0.126   0.014
    1UNL    H10   37  -0.202  -0.034  -0.209
    1UNL    H11   38  -0.456  -0.027  -0.212
    1UNL    H12   39  -0.450   0.171  -0.224
    1UNL    H13   40  -0.391   0.057  -0.345
    1UNL    H14   41  -0.098   0.156  -0.193
    1UNL    H15   42  -0.108   0.182   0.020
    1UNL    H16   43  -0.030   0.240   0.263
    1UNL    H17   44  -0.078   0.119   0.392
    1UNL    H18   45   0.067  -0.069   0.325
    1UNL    H19   46   0.170   0.082   0.308
    1UNL    H20   47   0.110   0.185   0.016
    1UNL    H21   48   0.348   0.263  -0.096
    1UNL    H22   49   0.551   0.182  -0.178
    1UNL    H23   50   0.634  -0.053  -0.114
    1UNL    H24   51   0.478  -0.188   0.015
    1UNL    H25   52  -0.156  -0.097   0.334
    1UNL    H26   53  -0.326  -0.040   0.295
   0.00000   0.00000   0.00000   0.00000   0.00000   0.00000   0.00000   0.00000   0.00000
Generated with MDTraj, t= 33.0
 53
    1UNL     C1    1   0.082  -0.134  -0.307
    1UNL     O1    2   0.013  -0.146  -0.184
    1UNL     C2    3   0.022  -0.024  -0.121
    1UNL     O2    4   0.047   0.085  -0.171
    1UNL     C3    5  -0.019  -0.027   0.029
    1UNL     C4    6  -0.081  -0.165   0.074
    1UNL     C5    7  -0.222  -0.150   0.132
    1UNL     C6    8  -0.315  -0.106   0.018
    1UNL     C7    9  -0.270   0.042  -0.016
    1UNL     C8   10  -0.276   0.065  -0.167
    1UNL     C9   11  -0.426   0.068  -0.213
    1UNL     O3   12  -0.207   0.183  -0.207
    1UNL    C10   13  -0.134   0.074   0.051
    1UNL     N1   14  -0.158   0.088   0.201
    1UNL    C11   15  -0.043   0.117   0.286
    1UNL    C12   16   0.080   0.027   0.263
    1UNL    C13   17   0.107   0.009   0.113
    1UNL     N2   18   0.174   0.128   0.061
    1UNL    C14   19   0.302   0.096   0.015
    1UNL    C15   20   0.403   0.184  -0.035
    1UNL    C16   21   0.525   0.129  -0.064
    1UNL    C17   22   0.542  -0.011  -0.058
    1UNL    C18   23   0.446  -0.099  -0.006
    1UNL    C19   24   0.328  -0.040   0.034
    1UNL    C20   25   0.215  -0.098   0.103
    1UNL     O4   26   0.211  -0.209   0.152
    1UNL    C21   27  -0.227  -0.036   0.247
    1UNL     H1   28   0.027  -0.060  -0.373
    1UNL     H2   29   0.186  -0.108  -0.291
    1UNL     H3   30   0.086  -0.231  -0.354
    1UNL     H4   31  -0.021  -0.214   0.152
    1UNL     H5   32  -0.078  -0.224  -0.012
    1UNL     H6   33  -0.255  -0.250   0.169
    1UNL     H7   34  -0.426  -0.100   0.041
    1UNL     H8   35  -0.316  -0.178  -0.068
    1UNL     H9   36  -0.337   0.112   0.035
    1UNL    H10   37  -0.213  -0.023  -0.207
    1UNL    H11   38  -0.483  -0.026  -0.192
    1UNL    H12   39  -0.489   0.162  -0.206
    1UNL    H13   40  -0.427   0.055  -0.324
    1UNL    H14   41  -0.106   0.169  -0.222
    1UNL    H15   42  -0.110   0.177   0.015
    1UNL    H16   43  -0.004   0.222   0.259
    1UNL    H17   44  -0.079   0.100   0.386
    1UNL    H18   45   0.072  -0.076   0.309
    1UNL    H19   46   0.169   0.086   0.302
    1UNL    H20   47   0.113   0.191   0.013
    1UNL    H21   48   0.398   0.292  -0.034
    1UNL    H22   49   0.609   0.190  -0.103
    1UNL    H23   50   0.641  -0.049  -0.070
    1UNL    H24   51   0.460  -0.206   0.003
    1UNL    H25   52  -0.181  -0.072   0.345
    1UNL    H26   53  -0.331   0.003   0.275
   0.00000   0.00000   0.00000   0.00000   0.00000   0.00000   0.00000   0.00000   0.00000
Generated with MDTraj, t= 34.0
 53
    1UNL     C1    1   0.054  -0.144  -0.316
    1UNL     O1    2   0.041  -0.147  -0.174
    1UNL     C2    3   0.015  -0.024  -0.123
    1UNL     O2    4   0.019   0.080  -0.183
    1UNL     C3    5  -0.022  -0.026   0.021
    1UNL     C4    6  -0.076  -0.173   0.066
    1UNL     C5    7  -0.214  -0.153   0.129
    1UNL     C6    8  -0.308  -0.106   0.021
    1UNL     C7    9  -0.271   0.041  -0.019
    1UNL     C8   10  -0.279   0.072  -0.166
    1UNL     C9   11  -0.424   0.078  -0.214
    1UNL     O3   12  -0.220   0.196  -0.194
    1UNL    C10   13  -0.136   0.072   0.049
    1UNL     N1   14  -0.158   0.074   0.198
    1UNL    C11   15  -0.050   0.129   0.282
    1UNL    C12   16   0.077   0.047   0.263
    1UNL    C13   17   0.101   0.015   0.110
    1UNL     N2   18   0.180   0.132   0.051
    1UNL    C14   19   0.314   0.102   0.025
    1UNL    C15   20   0.410   0.174  -0.043
    1UNL    C16   21   0.535   0.111  -0.073
    1UNL    C17   22   0.549  -0.019  -0.036
    1UNL    C18   23   0.452  -0.093   0.021
    1UNL    C19   24   0.336  -0.032   0.059
    1UNL    C20   25   0.208  -0.089   0.106
    1UNL     O4   26   0.206  -0.208   0.128
    1UNL    C21   27  -0.212  -0.058   0.244
    1UNL     H1   28  -0.049  -0.156  -0.357
    1UNL     H2   29   0.104  -0.053  -0.352
    1UNL     H3   30   0.115  -0.226  -0.334
    1UNL     H4   31  -0.008  -0.222   0.139
    1UNL     H5   32  -0.084  -0.235  -0.014
    1UNL     H6   33  -0.253  -0.254   0.159
    1UNL     H7   34  -0.413  -0.123   0.051
    1UNL     H8   35  -0.303  -0.159  -0.080
    1UNL     H9   36  -0.340   0.114   0.021
    1UNL    H10   37  -0.227   0.001  -0.233
    1UNL    H11   38  -0.462  -0.029  -0.233
    1UNL    H12   39  -0.496   0.126  -0.145
    1UNL    H13   40  -0.446   0.138  -0.304
    1UNL    H14   41  -0.128   0.195  -0.175
    1UNL    H15   42  -0.102   0.171   0.010
    1UNL    H16   43  -0.033   0.233   0.235
    1UNL    H17   44  -0.076   0.119   0.387
    1UNL    H18   45   0.073  -0.043   0.320
    1UNL    H19   46   0.165   0.116   0.296
    1UNL    H20   47   0.123   0.177  -0.020
    1UNL    H21   48   0.389   0.276  -0.062
    1UNL    H22   49   0.624   0.161  -0.100
    1UNL    H23   50   0.642  -0.071  -0.061
    1UNL    H24   51   0.469  -0.190   0.063
    1UNL    H25   52  -0.145  -0.088   0.330
    1UNL    H26   53  -0.314  -0.041   0.294
   0.00000   0.00000   0.00000   0.00000   0.00000   0.00000   0.00000   0.00000   0.00000
Generated with MDTraj, t= 35.0
 53
    1UNL     C1    1   0.069  -0.122  -0.323
    1UNL     O1    2   0.013  -0.140  -0.190
    1UNL     C2    3   0.006  -0.025  -0.122
    1UNL     O2    4   0.033   0.082  -0.169
    1UNL     C3    5  -0.022  -0.034   0.027
    1UNL     C4    6  -0.075  -0.175   0.072
    1UNL     C5    7  -0.225  -0.160   0.128
    1UNL     C6    8  -0.320  -0.108   0.015
    1UNL     C7    9  -0.272   0.037  -0.016
    1UNL     C8   10  -0.285   0.074  -0.165
    1UNL     C9   11  -0.431   0.069  -0.220
    1UNL     O3   12  -0.232   0.207  -0.189
    1UNL    C10   13  -0.133   0.071   0.057
    1UNL     N1   14  -0.166   0.079   0.203
    1UNL    C11   15  -0.049   0.132   0.278
    1UNL    C12   16   0.074   0.044   0.259
    1UNL    C13   17   0.114   0.015   0.109
    1UNL     N2   18   0.180   0.122   0.037
    1UNL    C14   19   0.310   0.087  -0.001
    1UNL    C15   20   0.408   0.159  -0.073
    1UNL    C16   21   0.537   0.117  -0.066
    1UNL    C17   22   0.570  -0.006  -0.012
    1UNL    C18   23   0.470  -0.085   0.040
    1UNL    C19   24   0.337  -0.042   0.043
    1UNL    C20   25   0.223  -0.099   0.109
    1UNL     O4   26   0.211  -0.208   0.156
    1UNL    C21   27  -0.215  -0.054   0.242
    1UNL     H1   28   0.000  -0.056  -0.382
    1UNL     H2   29   0.168  -0.074  -0.315
    1UNL     H3   30   0.085  -0.218  -0.357
    1UNL     H4   31  -0.005  -0.222   0.141
    1UNL     H5   32  -0.074  -0.236  -0.014
    1UNL     H6   33  -0.245  -0.266   0.164
    1UNL     H7   34  -0.425  -0.104   0.039
    1UNL     H8   35  -0.321  -0.173  -0.082
    1UNL     H9   36  -0.338   0.096   0.045
    1UNL    H10   37  -0.236   0.007  -0.232
    1UNL    H11   38  -0.501   0.002  -0.158
    1UNL    H12   39  -0.466   0.169  -0.196
    1UNL    H13   40  -0.444   0.070  -0.332
    1UNL    H14   41  -0.132   0.193  -0.182
    1UNL    H15   42  -0.083   0.171   0.040
    1UNL    H16   43  -0.025   0.239   0.242
    1UNL    H17   44  -0.083   0.122   0.380
    1UNL    H18   45   0.070  -0.049   0.301
    1UNL    H19   46   0.173   0.094   0.298
    1UNL    H20   47   0.122   0.169  -0.037
    1UNL    H21   48   0.403   0.257  -0.123
    1UNL    H22   49   0.616   0.175  -0.117
    1UNL    H23   50   0.666  -0.052  -0.009
    1UNL    H24   51   0.486  -0.184   0.079
    1UNL    H25   52  -0.146  -0.079   0.326
    1UNL    H26   53  -0.311  -0.029   0.301
   0.00000   0.00000   0.00000   0.00000   0.00000   0.00000   0.00000   0.00000   0.00000
Generated with MDTraj, t= 36.0
 53
    1UNL     C1    1   0.059  -0.126  -0.339
    1UNL     O1    2   0.015  -0.138  -0.200
    1UNL     C2    3   0.016  -0.021  -0.127
    1UNL     O2    4   0.048   0.085  -0.173
    1UNL     C3    5  -0.018  -0.021   0.025
    1UNL     C4    6  -0.073  -0.163   0.062
    1UNL     C5    7  -0.209  -0.155   0.132
    1UNL     C6    8  -0.312  -0.100   0.034
    1UNL     C7    9  -0.273   0.037  -0.021
    1UNL     C8   10  -0.289   0.062  -0.169
    1UNL     C9   11  -0.432   0.065  -0.210
    1UNL     O3   12  -0.216   0.177  -0.213
    1UNL    C10   13  -0.136   0.077   0.050
    1UNL     N1   14  -0.159   0.076   0.201
    1UNL    C11   15  -0.047   0.130   0.282
    1UNL    C12   16   0.071   0.042   0.265
    1UNL    C13   17   0.107   0.017   0.114
    1UNL     N2   18   0.175   0.136   0.054
    1UNL    C14   19   0.310   0.100   0.020
    1UNL    C15   20   0.409   0.172  -0.041
    1UNL    C16   21   0.535   0.112  -0.066
    1UNL    C17   22   0.552  -0.021  -0.035
    1UNL    C18   23   0.459  -0.099   0.021
    1UNL    C19   24   0.337  -0.034   0.052
    1UNL    C20   25   0.214  -0.093   0.115
    1UNL     O4   26   0.189  -0.203   0.154
    1UNL    C21   27  -0.199  -0.063   0.250
    1UNL     H1   28   0.058  -0.015  -0.364
    1UNL     H2   29   0.163  -0.164  -0.344
    1UNL     H3   30   0.000  -0.190  -0.392
    1UNL     H4   31   0.001  -0.211   0.121
    1UNL     H5   32  -0.091  -0.230  -0.028
    1UNL     H6   33  -0.239  -0.258   0.172
    1UNL     H7   34  -0.412  -0.104   0.073
    1UNL     H8   35  -0.322  -0.169  -0.059
    1UNL     H9   36  -0.336   0.102   0.036
    1UNL    H10   37  -0.249  -0.025  -0.215
    1UNL    H11   38  -0.492  -0.028  -0.183
    1UNL    H12   39  -0.474   0.143  -0.146
    1UNL    H13   40  -0.436   0.113  -0.313
    1UNL    H14   41  -0.120   0.156  -0.202
    1UNL    H15   42  -0.108   0.184   0.030
    1UNL    H16   43  -0.040   0.240   0.254
    1UNL    H17   44  -0.079   0.118   0.385
    1UNL    H18   45   0.073  -0.056   0.298
    1UNL    H19   46   0.168   0.084   0.310
    1UNL    H20   47   0.106   0.172  -0.018
    1UNL    H21   48   0.389   0.272  -0.067
    1UNL    H22   49   0.612   0.164  -0.119
    1UNL    H23   50   0.644  -0.062  -0.077
    1UNL    H24   51   0.468  -0.207   0.020
    1UNL    H25   52  -0.146  -0.086   0.346
    1UNL    H26   53  -0.302  -0.033   0.292
   0.00000   0.00000   0.00000   0.00000   0.00000   0.00000   0.00000   0.00000   0.00000
Generated with MDTraj, t= 37.0
 53
    1UNL     C1    1   0.044  -0.117  -0.315
    1UNL     O1    2  -0.000  -0.126  -0.180
    1UNL     C2    3   0.018  -0.015  -0.112
    1UNL     O2    4   0.053   0.089  -0.160
    1UNL     C3    5  -0.020  -0.019   0.038
    1UNL     C4    6  -0.068  -0.167   0.085
    1UNL     C5    7  -0.211  -0.156   0.140
    1UNL     C6    8  -0.303  -0.112   0.026
    1UNL     C7    9  -0.277   0.039  -0.021
    1UNL     C8   10  -0.273   0.055  -0.178
    1UNL     C9   11  -0.413   0.054  -0.234
    1UNL     O3   12  -0.207   0.172  -0.218
    1UNL    C10   13  -0.141   0.079   0.056
    1UNL     N1   14  -0.168   0.086   0.203
    1UNL    C11   15  -0.053   0.131   0.282
    1UNL    C12   16   0.065   0.038   0.263
    1UNL    C13   17   0.109   0.014   0.117
    1UNL     N2   18   0.190   0.131   0.068
    1UNL    C14   19   0.316   0.100   0.022
    1UNL    C15   20   0.414   0.180  -0.033
    1UNL    C16   21   0.527   0.115  -0.074
    1UNL    C17   22   0.550  -0.021  -0.063
    1UNL    C18   23   0.451  -0.103  -0.010
    1UNL    C19   24   0.338  -0.041   0.047
    1UNL    C20   25   0.218  -0.098   0.103
    1UNL     O4   26   0.198  -0.212   0.138
    1UNL    C21   27  -0.228  -0.048   0.247
    1UNL     H1   28  -0.024  -0.050  -0.374
    1UNL     H2   29   0.145  -0.065  -0.314
    1UNL     H3   30   0.054  -0.215  -0.346
    1UNL     H4   31  -0.008  -0.211   0.160
    1UNL     H5   32  -0.066  -0.242  -0.005
    1UNL     H6   33  -0.253  -0.252   0.184
    1UNL     H7   34  -0.407  -0.117   0.055
    1UNL     H8   35  -0.296  -0.180  -0.063
    1UNL     H9   36  -0.346   0.115   0.009
    1UNL    H10   37  -0.220  -0.030  -0.216
    1UNL    H11   38  -0.472  -0.038  -0.213
    1UNL    H12   39  -0.474   0.131  -0.184
    1UNL    H13   40  -0.415   0.092  -0.341
    1UNL    H14   41  -0.108   0.163  -0.215
    1UNL    H15   42  -0.114   0.178   0.012
    1UNL    H16   43  -0.026   0.232   0.240
    1UNL    H17   44  -0.085   0.135   0.387
    1UNL    H18   45   0.048  -0.061   0.302
    1UNL    H19   46   0.166   0.069   0.303
    1UNL    H20   47   0.134   0.195   0.006
    1UNL    H21   48   0.410   0.288  -0.045
    1UNL    H22   49   0.611   0.177  -0.105
    1UNL    H23   50   0.637  -0.057  -0.112
    1UNL    H24   51   0.456  -0.211  -0.007
    1UNL    H25   52  -0.176  -0.063   0.347
    1UNL    H26   53  -0.335  -0.025   0.283
   0.00000   0.00000   0.00000   0.00000   0.00000   0.00000   0.00000   0.00000   0.00000
Generated with MDTraj, t= 38.0
 53
    1UNL     C1    1   0.042  -0.132  -0.317
    1UNL     O1    2   0.016  -0.145  -0.182
    1UNL     C2    3   0.030  -0.023  -0.108
    1UNL     O2    4   0.069   0.076  -0.171
    1UNL     C3    5  -0.023  -0.029   0.034
    1UNL     C4    6  -0.077  -0.166   0.072
    1UNL     C5    7  -0.222  -0.152   0.135
    1UNL     C6    8  -0.316  -0.090   0.027
    1UNL     C7    9  -0.263   0.058  -0.012
    1UNL     C8   10  -0.249   0.071  -0.166
    1UNL     C9   11  -0.385   0.047  -0.237
    1UNL     O3   12  -0.201   0.198  -0.210
    1UNL    C10   13  -0.130   0.083   0.055
    1UNL     N1   14  -0.162   0.080   0.206
    1UNL    C11   15  -0.054   0.121   0.292
    1UNL    C12   16   0.068   0.025   0.271
    1UNL    C13   17   0.105   0.008   0.118
    1UNL     N2   18   0.169   0.130   0.062
    1UNL    C14   19   0.296   0.101   0.020
    1UNL    C15   20   0.386   0.174  -0.056
    1UNL    C16   21   0.505   0.122  -0.092
    1UNL    C17   22   0.534  -0.011  -0.068
    1UNL    C18   23   0.445  -0.090   0.001
    1UNL    C19   24   0.325  -0.034   0.047
    1UNL    C20   25   0.212  -0.099   0.108
    1UNL     O4   26   0.213  -0.212   0.158
    1UNL    C21   27  -0.220  -0.056   0.250
    1UNL     H1   28  -0.048  -0.106  -0.378
    1UNL     H2   29   0.119  -0.050  -0.335
    1UNL     H3   30   0.084  -0.224  -0.341
    1UNL     H4   31  -0.009  -0.223   0.136
    1UNL     H5   32  -0.085  -0.222  -0.028
    1UNL     H6   33  -0.254  -0.260   0.162
    1UNL     H7   34  -0.423  -0.085   0.051
    1UNL     H8   35  -0.314  -0.147  -0.063
    1UNL     H9   36  -0.328   0.138   0.019
    1UNL    H10   37  -0.175  -0.006  -0.194
    1UNL    H11   38  -0.444  -0.033  -0.192
    1UNL    H12   39  -0.461   0.131  -0.238
    1UNL    H13   40  -0.369   0.031  -0.347
    1UNL    H14   41  -0.101   0.208  -0.199
    1UNL    H15   42  -0.101   0.188   0.038
    1UNL    H16   43  -0.019   0.222   0.260
    1UNL    H17   44  -0.087   0.110   0.397
    1UNL    H18   45   0.049  -0.079   0.316
    1UNL    H19   46   0.158   0.062   0.319
    1UNL    H20   47   0.103   0.187   0.003
    1UNL    H21   48   0.370   0.277  -0.077
    1UNL    H22   49   0.573   0.181  -0.155
    1UNL    H23   50   0.632  -0.059  -0.076
    1UNL    H24   51   0.466  -0.195   0.016
    1UNL    H25   52  -0.161  -0.099   0.337
    1UNL    H26   53  -0.322  -0.028   0.290
   0.00000   0.00000   0.00000   0.00000   0.00000   0.00000   0.00000   0.00000   0.00000
Generated with MDTraj, t= 39.0
 53
    1UNL     C1    1   0.079  -0.136  -0.298
    1UNL     O1    2   0.023  -0.152  -0.172
    1UNL     C2    3   0.028  -0.035  -0.109
    1UNL     O2    4   0.060   0.070  -0.161
    1UNL     C3    5  -0.022  -0.030   0.044
    1UNL     C4    6  -0.075  -0.167   0.088
    1UNL     C5    7  -0.226  -0.154   0.134
    1UNL     C6    8  -0.309  -0.112   0.012
    1UNL     C7    9  -0.259   0.042  -0.023
    1UNL     C8   10  -0.259   0.085  -0.179
    1UNL     C9   11  -0.407   0.098  -0.231
    1UNL     O3   12  -0.183   0.198  -0.205
    1UNL    C10   13  -0.138   0.071   0.063
    1UNL     N1   14  -0.171   0.076   0.204
    1UNL    C11   15  -0.061   0.124   0.291
    1UNL    C12   16   0.070   0.033   0.271
    1UNL    C13   17   0.108   0.009   0.125
    1UNL     N2   18   0.165   0.134   0.059
    1UNL    C14   19   0.296   0.101   0.024
    1UNL    C15   20   0.382   0.175  -0.064
    1UNL    C16   21   0.500   0.116  -0.115
    1UNL    C17   22   0.528  -0.014  -0.084
    1UNL    C18   23   0.447  -0.088   0.002
    1UNL    C19   24   0.332  -0.033   0.046
    1UNL    C20   25   0.214  -0.097   0.106
    1UNL     O4   26   0.220  -0.206   0.154
    1UNL    C21   27  -0.234  -0.054   0.247
    1UNL     H1   28   0.047  -0.042  -0.348
    1UNL     H2   29   0.190  -0.116  -0.285
    1UNL     H3   30   0.064  -0.219  -0.361
    1UNL     H4   31  -0.012  -0.215   0.171
    1UNL     H5   32  -0.069  -0.239   0.002
    1UNL     H6   33  -0.257  -0.259   0.170
    1UNL     H7   34  -0.417  -0.119   0.033
    1UNL     H8   35  -0.297  -0.170  -0.071
    1UNL     H9   36  -0.344   0.098   0.010
    1UNL    H10   37  -0.210  -0.002  -0.232
    1UNL    H11   38  -0.448  -0.004  -0.229
    1UNL    H12   39  -0.482   0.160  -0.173
    1UNL    H13   40  -0.407   0.141  -0.332
    1UNL    H14   41  -0.094   0.173  -0.186
    1UNL    H15   42  -0.096   0.161   0.018
    1UNL    H16   43  -0.030   0.226   0.259
    1UNL    H17   44  -0.088   0.108   0.397
    1UNL    H18   45   0.047  -0.076   0.314
    1UNL    H19   46   0.147   0.080   0.327
    1UNL    H20   47   0.103   0.188  -0.003
    1UNL    H21   48   0.349   0.271  -0.103
    1UNL    H22   49   0.574   0.168  -0.170
    1UNL    H23   50   0.621  -0.051  -0.123
    1UNL    H24   51   0.469  -0.189   0.031
    1UNL    H25   52  -0.175  -0.087   0.341
    1UNL    H26   53  -0.341  -0.028   0.268
   0.00000   0.00000   0.00000   0.00000   0.00000   0.00000   0.00000   0.00000   0.00000
Generated with MDTraj, t= 40.0
 53
    1UNL     C1    1   0.101  -0.162  -0.282
    1UNL     O1    2   0.034  -0.156  -0.164
    1UNL     C2    3   0.030  -0.026  -0.113
    1UNL     O2    4   0.065   0.074  -0.175
    1UNL     C3    5  -0.014  -0.022   0.036
    1UNL     C4    6  -0.062  -0.164   0.075
    1UNL     C5    7  -0.211  -0.159   0.120
    1UNL     C6    8  -0.297  -0.117  -0.000
    1UNL     C7    9  -0.270   0.038  -0.025
    1UNL     C8   10  -0.277   0.084  -0.176
    1UNL     C9   11  -0.423   0.126  -0.207
    1UNL     O3   12  -0.196   0.198  -0.204
    1UNL    C10   13  -0.139   0.074   0.044
    1UNL     N1   14  -0.172   0.070   0.203
    1UNL    C11   15  -0.063   0.118   0.289
    1UNL    C12   16   0.067   0.038   0.272
    1UNL    C13   17   0.103   0.016   0.122
    1UNL     N2   18   0.174   0.131   0.067
    1UNL    C14   19   0.301   0.098   0.018
    1UNL    C15   20   0.389   0.181  -0.054
    1UNL    C16   21   0.494   0.119  -0.111
    1UNL    C17   22   0.522  -0.020  -0.093
    1UNL    C18   23   0.436  -0.094  -0.011
    1UNL    C19   24   0.324  -0.040   0.039
    1UNL    C20   25   0.212  -0.091   0.121
    1UNL     O4   26   0.205  -0.195   0.176
    1UNL    C21   27  -0.227  -0.063   0.244
    1UNL     H1   28   0.067  -0.087  -0.353
    1UNL     H2   29   0.211  -0.143  -0.269
    1UNL     H3   30   0.080  -0.258  -0.325
    1UNL     H4   31   0.003  -0.206   0.163
    1UNL     H5   32  -0.056  -0.244  -0.003
    1UNL     H6   33  -0.241  -0.264   0.156
    1UNL     H7   34  -0.404  -0.126   0.023
    1UNL     H8   35  -0.275  -0.172  -0.084
    1UNL     H9   36  -0.350   0.092   0.027
    1UNL    H10   37  -0.240  -0.001  -0.246
    1UNL    H11   38  -0.498   0.048  -0.181
    1UNL    H12   39  -0.443   0.217  -0.145
    1UNL    H13   40  -0.422   0.162  -0.309
    1UNL    H14   41  -0.098   0.161  -0.205
    1UNL    H15   42  -0.116   0.179   0.037
    1UNL    H16   43  -0.038   0.217   0.248
    1UNL    H17   44  -0.094   0.118   0.396
    1UNL    H18   45   0.053  -0.068   0.321
    1UNL    H19   46   0.153   0.080   0.317
    1UNL    H20   47   0.114   0.196   0.017
    1UNL    H21   48   0.367   0.286  -0.066
    1UNL    H22   49   0.578   0.181  -0.148
    1UNL    H23   50   0.602  -0.077  -0.139
    1UNL    H24   51   0.451  -0.201  -0.002
    1UNL    H25   52  -0.156  -0.101   0.327
    1UNL    H26   53  -0.333  -0.062   0.280
   0.00000   0.00000   0.00000   0.00000   0.00000   0.00000   0.00000   0.00000   0.00000
Generated with MDTraj, t= 41.0
 53
    1UNL     C1    1   0.105  -0.128  -0.301
    1UNL     O1    2   0.065  -0.150  -0.171
    1UNL     C2    3   0.036  -0.037  -0.116
    1UNL     O2    4   0.049   0.070  -0.167
    1UNL     C3    5  -0.019  -0.033   0.032
    1UNL     C4    6  -0.074  -0.170   0.079
    1UNL     C5    7  -0.225  -0.161   0.129
    1UNL     C6    8  -0.315  -0.107   0.008
    1UNL     C7    9  -0.268   0.035  -0.023
    1UNL     C8   10  -0.280   0.088  -0.166
    1UNL     C9   11  -0.417   0.106  -0.213
    1UNL     O3   12  -0.198   0.201  -0.192
    1UNL    C10   13  -0.137   0.069   0.052
    1UNL     N1   14  -0.171   0.075   0.196
    1UNL    C11   15  -0.058   0.125   0.284
    1UNL    C12   16   0.062   0.040   0.272
    1UNL    C13   17   0.105   0.015   0.123
    1UNL     N2   18   0.177   0.132   0.066
    1UNL    C14   19   0.295   0.096   0.012
    1UNL    C15   20   0.382   0.167  -0.073
    1UNL    C16   21   0.498   0.109  -0.121
    1UNL    C17   22   0.533  -0.020  -0.080
    1UNL    C18   23   0.450  -0.092   0.007
    1UNL    C19   24   0.325  -0.037   0.044
    1UNL    C20   25   0.214  -0.092   0.122
    1UNL     O4   26   0.202  -0.204   0.170
    1UNL    C21   27  -0.232  -0.055   0.246
    1UNL     H1   28   0.021  -0.112  -0.364
    1UNL     H2   29   0.168  -0.037  -0.312
    1UNL     H3   30   0.151  -0.216  -0.347
    1UNL     H4   31  -0.018  -0.211   0.171
    1UNL     H5   32  -0.068  -0.254   0.005
    1UNL     H6   33  -0.262  -0.257   0.182
    1UNL     H7   34  -0.420  -0.101   0.027
    1UNL     H8   35  -0.290  -0.161  -0.082
    1UNL     H9   36  -0.351   0.102   0.012
    1UNL    H10   37  -0.233   0.006  -0.234
    1UNL    H11   38  -0.486   0.029  -0.170
    1UNL    H12   39  -0.450   0.204  -0.176
    1UNL    H13   40  -0.417   0.110  -0.322
    1UNL    H14   41  -0.107   0.176  -0.191
    1UNL    H15   42  -0.093   0.161   0.018
    1UNL    H16   43  -0.042   0.232   0.274
    1UNL    H17   44  -0.096   0.107   0.387
    1UNL    H18   45   0.068  -0.052   0.324
    1UNL    H19   46   0.154   0.083   0.307
    1UNL    H20   47   0.123   0.200   0.015
    1UNL    H21   48   0.359   0.272  -0.067
    1UNL    H22   49   0.559   0.165  -0.185
    1UNL    H23   50   0.623  -0.067  -0.120
    1UNL    H24   51   0.474  -0.197   0.018
    1UNL    H25   52  -0.173  -0.091   0.335
    1UNL    H26   53  -0.338  -0.026   0.271
   0.00000   0.00000   0.00000   0.00000   0.00000   0.00000   0.00000   0.00000   0.00000
Generated with MDTraj, t= 42.0
 53
    1UNL     C1    1   0.112  -0.116  -0.295
    1UNL     O1    2   0.043  -0.138  -0.175
    1UNL     C2    3   0.015  -0.016  -0.107
    1UNL     O2    4   0.031   0.089  -0.168
    1UNL     C3    5  -0.023  -0.026   0.033
    1UNL     C4    6  -0.080  -0.166   0.072
    1UNL     C5    7  -0.220  -0.154   0.126
    1UNL     C6    8  -0.319  -0.090   0.021
    1UNL     C7    9  -0.267   0.050  -0.019
    1UNL     C8   10  -0.275   0.076  -0.175
    1UNL     C9   11  -0.413   0.047  -0.236
    1UNL     O3   12  -0.217   0.208  -0.204
    1UNL    C10   13  -0.129   0.080   0.055
    1UNL     N1   14  -0.164   0.076   0.203
    1UNL    C11   15  -0.053   0.122   0.288
    1UNL    C12   16   0.073   0.040   0.276
    1UNL    C13   17   0.106   0.012   0.124
    1UNL     N2   18   0.178   0.131   0.071
    1UNL    C14   19   0.301   0.091   0.011
    1UNL    C15   20   0.390   0.161  -0.071
    1UNL    C16   21   0.507   0.101  -0.110
    1UNL    C17   22   0.543  -0.026  -0.060
    1UNL    C18   23   0.444  -0.104   0.006
    1UNL    C19   24   0.325  -0.044   0.036
    1UNL    C20   25   0.213  -0.099   0.107
    1UNL     O4   26   0.209  -0.208   0.164
    1UNL    C21   27  -0.216  -0.056   0.246
    1UNL     H1   28   0.049  -0.076  -0.369
    1UNL     H2   29   0.195  -0.044  -0.278
    1UNL     H3   30   0.142  -0.210  -0.345
    1UNL     H4   31  -0.009  -0.214   0.145
    1UNL     H5   32  -0.092  -0.245  -0.010
    1UNL     H6   33  -0.261  -0.262   0.145
    1UNL     H7   34  -0.413  -0.081   0.069
    1UNL     H8   35  -0.323  -0.156  -0.070
    1UNL     H9   36  -0.345   0.117   0.026
    1UNL    H10   37  -0.197   0.004  -0.216
    1UNL    H11   38  -0.448  -0.059  -0.231
    1UNL    H12   39  -0.470   0.107  -0.167
    1UNL    H13   40  -0.430   0.089  -0.336
    1UNL    H14   41  -0.119   0.207  -0.190
    1UNL    H15   42  -0.095   0.182   0.044
    1UNL    H16   43  -0.039   0.226   0.265
    1UNL    H17   44  -0.087   0.119   0.394
    1UNL    H18   45   0.075  -0.055   0.306
    1UNL    H19   46   0.161   0.076   0.326
    1UNL    H20   47   0.114   0.199   0.035
    1UNL    H21   48   0.373   0.268  -0.082
    1UNL    H22   49   0.570   0.159  -0.182
    1UNL    H23   50   0.627  -0.066  -0.113
    1UNL    H24   51   0.459  -0.203   0.047
    1UNL    H25   52  -0.143  -0.090   0.323
    1UNL    H26   53  -0.324  -0.044   0.276
   0.00000   0.00000   0.00000   0.00000   0.00000   0.00000   0.00000   0.00000   0.00000
Generated with MDTraj, t= 43.0
 53
    1UNL     C1    1   0.090  -0.106  -0.308
    1UNL     O1    2   0.039  -0.120  -0.179
    1UNL     C2    3   0.022  -0.005  -0.118
    1UNL     O2    4   0.036   0.103  -0.164
    1UNL     C3    5  -0.023  -0.010   0.031
    1UNL     C4    6  -0.071  -0.158   0.071
    1UNL     C5    7  -0.210  -0.155   0.135
    1UNL     C6    8  -0.319  -0.102   0.032
    1UNL     C7    9  -0.273   0.039  -0.014
    1UNL     C8   10  -0.271   0.049  -0.167
    1UNL     C9   11  -0.400   0.037  -0.236
    1UNL     O3   12  -0.220   0.174  -0.196
    1UNL    C10   13  -0.141   0.084   0.055
    1UNL     N1   14  -0.164   0.083   0.199
    1UNL    C11   15  -0.054   0.136   0.281
    1UNL    C12   16   0.069   0.044   0.268
    1UNL    C13   17   0.109   0.021   0.118
    1UNL     N2   18   0.188   0.136   0.074
    1UNL    C14   19   0.311   0.099   0.023
    1UNL    C15   20   0.407   0.166  -0.042
    1UNL    C16   21   0.521   0.096  -0.083
    1UNL    C17   22   0.530  -0.046  -0.068
    1UNL    C18   23   0.431  -0.116  -0.008
    1UNL    C19   24   0.321  -0.042   0.034
    1UNL    C20   25   0.203  -0.098   0.102
    1UNL     O4   26   0.192  -0.210   0.147
    1UNL    C21   27  -0.209  -0.051   0.245
    1UNL     H1   28   0.052  -0.021  -0.356
    1UNL     H2   29   0.200  -0.088  -0.302
    1UNL     H3   30   0.059  -0.186  -0.379
    1UNL     H4   31  -0.005  -0.219   0.132
    1UNL     H5   32  -0.067  -0.210  -0.033
    1UNL     H6   33  -0.232  -0.260   0.178
    1UNL     H7   34  -0.412  -0.106   0.075
    1UNL     H8   35  -0.310  -0.166  -0.063
    1UNL     H9   36  -0.360   0.098   0.024
    1UNL    H10   37  -0.197  -0.027  -0.200
    1UNL    H11   38  -0.444  -0.062  -0.209
    1UNL    H12   39  -0.460   0.120  -0.205
    1UNL    H13   40  -0.392   0.038  -0.348
    1UNL    H14   41  -0.121   0.179  -0.180
    1UNL    H15   42  -0.115   0.182   0.022
    1UNL    H16   43  -0.022   0.228   0.236
    1UNL    H17   44  -0.085   0.143   0.388
    1UNL    H18   45   0.057  -0.041   0.331
    1UNL    H19   46   0.155   0.093   0.310
    1UNL    H20   47   0.144   0.197   0.009
    1UNL    H21   48   0.402   0.271  -0.048
    1UNL    H22   49   0.599   0.147  -0.130
    1UNL    H23   50   0.609  -0.109  -0.110
    1UNL    H24   51   0.430  -0.224  -0.003
    1UNL    H25   52  -0.129  -0.084   0.313
    1UNL    H26   53  -0.314  -0.034   0.285
   0.00000   0.00000   0.00000   0.00000   0.00000   0.00000   0.00000   0.00000   0.00000
Generated with MDTraj, t= 44.0
 53
    1UNL     C1    1   0.059  -0.082  -0.323
    1UNL     O1    2   0.010  -0.117  -0.202
    1UNL     C2    3   0.021  -0.011  -0.112
    1UNL     O2    4   0.053   0.099  -0.153
    1UNL     C3    5  -0.013  -0.023   0.034
    1UNL     C4    6  -0.073  -0.161   0.074
    1UNL     C5    7  -0.215  -0.152   0.123
    1UNL     C6    8  -0.322  -0.104   0.018
    1UNL     C7    9  -0.270   0.044  -0.021
    1UNL     C8   10  -0.274   0.045  -0.174
    1UNL     C9   11  -0.427   0.042  -0.216
    1UNL     O3   12  -0.209   0.166  -0.220
    1UNL    C10   13  -0.135   0.080   0.054
    1UNL     N1   14  -0.159   0.082   0.202
    1UNL    C11   15  -0.055   0.128   0.291
    1UNL    C12   16   0.077   0.043   0.270
    1UNL    C13   17   0.108   0.018   0.121
    1UNL     N2   18   0.184   0.139   0.067
    1UNL    C14   19   0.313   0.091   0.020
    1UNL    C15   20   0.409   0.165  -0.056
    1UNL    C16   21   0.526   0.094  -0.094
    1UNL    C17   22   0.547  -0.039  -0.064
    1UNL    C18   23   0.454  -0.110   0.008
    1UNL    C19   24   0.336  -0.045   0.051
    1UNL    C20   25   0.213  -0.098   0.118
    1UNL     O4   26   0.198  -0.205   0.170
    1UNL    C21   27  -0.222  -0.051   0.245
    1UNL     H1   28  -0.007  -0.025  -0.378
    1UNL     H2   29   0.157  -0.030  -0.306
    1UNL     H3   30   0.075  -0.176  -0.382
    1UNL     H4   31  -0.003  -0.197   0.149
    1UNL     H5   32  -0.064  -0.240  -0.011
    1UNL     H6   33  -0.253  -0.256   0.154
    1UNL     H7   34  -0.416  -0.093   0.063
    1UNL     H8   35  -0.323  -0.173  -0.074
    1UNL     H9   36  -0.344   0.126  -0.000
    1UNL    H10   37  -0.217  -0.037  -0.214
    1UNL    H11   38  -0.479  -0.048  -0.182
    1UNL    H12   39  -0.479   0.135  -0.191
    1UNL    H13   40  -0.430   0.032  -0.327
    1UNL    H14   41  -0.117   0.174  -0.196
    1UNL    H15   42  -0.118   0.182   0.024
    1UNL    H16   43  -0.028   0.230   0.272
    1UNL    H17   44  -0.087   0.105   0.396
    1UNL    H18   45   0.059  -0.058   0.327
    1UNL    H19   46   0.153   0.096   0.316
    1UNL    H20   47   0.127   0.195   0.000
    1UNL    H21   48   0.393   0.272  -0.078
    1UNL    H22   49   0.610   0.156  -0.129
    1UNL    H23   50   0.642  -0.082  -0.081
    1UNL    H24   51   0.440  -0.216   0.018
    1UNL    H25   52  -0.170  -0.090   0.335
    1UNL    H26   53  -0.331  -0.022   0.257
   0.00000   0.00000   0.00000   0.00000   0.00000   0.00000   0.00000   0.00000   0.00000
Generated with MDTraj, t= 45.0
 53
    1UNL     C1    1   0.026  -0.111  -0.326
    1UNL     O1    2   0.007  -0.132  -0.188
    1UNL     C2    3   0.020  -0.018  -0.118
    1UNL     O2    4   0.052   0.089  -0.165
    1UNL     C3    5  -0.016  -0.027   0.031
    1UNL     C4    6  -0.070  -0.172   0.061
    1UNL     C5    7  -0.209  -0.160   0.116
    1UNL     C6    8  -0.310  -0.105   0.018
    1UNL     C7    9  -0.269   0.045  -0.017
    1UNL     C8   10  -0.268   0.068  -0.169
    1UNL     C9   11  -0.409   0.064  -0.228
    1UNL     O3   12  -0.204   0.193  -0.190
    1UNL    C10   13  -0.135   0.072   0.049
    1UNL     N1   14  -0.157   0.074   0.197
    1UNL    C11   15  -0.055   0.135   0.284
    1UNL    C12   16   0.080   0.056   0.271
    1UNL    C13   17   0.115   0.014   0.125
    1UNL     N2   18   0.177   0.128   0.056
    1UNL    C14   19   0.304   0.087   0.009
    1UNL    C15   20   0.392   0.162  -0.067
    1UNL    C16   21   0.517   0.101  -0.097
    1UNL    C17   22   0.545  -0.025  -0.042
    1UNL    C18   23   0.457  -0.099   0.031
    1UNL    C19   24   0.335  -0.038   0.064
    1UNL    C20   25   0.215  -0.096   0.121
    1UNL     O4   26   0.197  -0.205   0.169
    1UNL    C21   27  -0.210  -0.061   0.241
    1UNL     H1   28  -0.039  -0.039  -0.359
    1UNL     H2   29   0.131  -0.072  -0.340
    1UNL     H3   30   0.023  -0.200  -0.396
    1UNL     H4   31  -0.002  -0.225   0.128
    1UNL     H5   32  -0.058  -0.221  -0.039
    1UNL     H6   33  -0.248  -0.256   0.162
    1UNL     H7   34  -0.411  -0.105   0.056
    1UNL     H8   35  -0.292  -0.167  -0.075
    1UNL     H9   36  -0.340   0.120   0.030
    1UNL    H10   37  -0.209  -0.002  -0.222
    1UNL    H11   38  -0.429  -0.041  -0.239
    1UNL    H12   39  -0.486   0.127  -0.176
    1UNL    H13   40  -0.400   0.096  -0.333
    1UNL    H14   41  -0.105   0.176  -0.215
    1UNL    H15   42  -0.105   0.173   0.025
    1UNL    H16   43  -0.037   0.230   0.238
    1UNL    H17   44  -0.087   0.147   0.391
    1UNL    H18   45   0.066  -0.046   0.333
    1UNL    H19   46   0.157   0.108   0.315
    1UNL    H20   47   0.112   0.194   0.001
    1UNL    H21   48   0.366   0.255  -0.110
    1UNL    H22   49   0.598   0.159  -0.136
    1UNL    H23   50   0.646  -0.066  -0.063
    1UNL    H24   51   0.477  -0.205   0.045
    1UNL    H25   52  -0.143  -0.102   0.317
    1UNL    H26   53  -0.312  -0.044   0.284
   0.00000   0.00000   0.00000   0.00000   0.00000   0.00000   0.00000   0.00000   0.00000
Generated with MDTraj, t= 46.0
 53
    1UNL     C1    1   0.050  -0.143  -0.301
    1UNL     O1    2  -0.009  -0.146  -0.180
    1UNL     C2    3   0.005  -0.025  -0.116
    1UNL     O2    4   0.045   0.074  -0.176
    1UNL     C3    5  -0.020  -0.027   0.034
    1UNL     C4    6  -0.070  -0.170   0.078
    1UNL     C5    7  -0.217  -0.163   0.120
    1UNL     C6    8  -0.300  -0.113   0.000
    1UNL     C7    9  -0.266   0.041  -0.012
    1UNL     C8   10  -0.273   0.075  -0.166
    1UNL     C9   11  -0.413   0.091  -0.232
    1UNL     O3   12  -0.204   0.199  -0.183
    1UNL    C10   13  -0.139   0.076   0.059
    1UNL     N1   14  -0.167   0.074   0.205
    1UNL    C11   15  -0.051   0.124   0.292
    1UNL    C12   16   0.078   0.047   0.269
    1UNL    C13   17   0.111   0.023   0.107
    1UNL     N2   18   0.182   0.135   0.050
    1UNL    C14   19   0.313   0.104   0.008
    1UNL    C15   20   0.412   0.170  -0.059
    1UNL    C16   21   0.534   0.109  -0.074
    1UNL    C17   22   0.552  -0.028  -0.051
    1UNL    C18   23   0.451  -0.093   0.013
    1UNL    C19   24   0.330  -0.034   0.045
    1UNL    C20   25   0.215  -0.088   0.106
    1UNL     O4   26   0.213  -0.198   0.157
    1UNL    C21   27  -0.236  -0.059   0.237
    1UNL     H1   28   0.017  -0.063  -0.356
    1UNL     H2   29   0.162  -0.158  -0.295
    1UNL     H3   30   0.026  -0.240  -0.351
    1UNL     H4   31   0.014  -0.207   0.142
    1UNL     H5   32  -0.065  -0.234  -0.009
    1UNL     H6   33  -0.250  -0.265   0.154
    1UNL     H7   34  -0.409  -0.137   0.019
    1UNL     H8   35  -0.269  -0.163  -0.092
    1UNL     H9   36  -0.352   0.087   0.044
    1UNL    H10   37  -0.221  -0.002  -0.215
    1UNL    H11   38  -0.475   0.003  -0.227
    1UNL    H12   39  -0.463   0.187  -0.201
    1UNL    H13   40  -0.397   0.097  -0.340
    1UNL    H14   41  -0.112   0.180  -0.194
    1UNL    H15   42  -0.102   0.169   0.016
    1UNL    H16   43  -0.048   0.229   0.283
    1UNL    H17   44  -0.091   0.110   0.396
    1UNL    H18   45   0.075  -0.056   0.319
    1UNL    H19   46   0.166   0.089   0.307
    1UNL    H20   47   0.129   0.197  -0.011
    1UNL    H21   48   0.397   0.275  -0.091
    1UNL    H22   49   0.608   0.169  -0.125
    1UNL    H23   50   0.642  -0.074  -0.081
    1UNL    H24   51   0.461  -0.198   0.029
    1UNL    H25   52  -0.197  -0.096   0.332
    1UNL    H26   53  -0.343  -0.037   0.251
   0.00000   0.00000   0.00000   0.00000   0.00000   0.00000   0.00000   0.00000   0.00000
Generated with MDTraj, t= 47.0
 53
    1UNL     C1    1   0.058  -0.147  -0.316
    1UNL     O1    2   0.018  -0.162  -0.181
    1UNL     C2    3   0.031  -0.045  -0.116
    1UNL     O2    4   0.064   0.054  -0.174
    1UNL     C3    5  -0.018  -0.028   0.028
    1UNL     C4    6  -0.083  -0.173   0.069
    1UNL     C5    7  -0.223  -0.151   0.131
    1UNL     C6    8  -0.312  -0.097   0.012
    1UNL     C7    9  -0.266   0.047  -0.016
    1UNL     C8   10  -0.280   0.082  -0.171
    1UNL     C9   11  -0.422   0.102  -0.211
    1UNL     O3   12  -0.194   0.184  -0.208
    1UNL    C10   13  -0.127   0.076   0.052
    1UNL     N1   14  -0.160   0.085   0.200
    1UNL    C11   15  -0.038   0.132   0.281
    1UNL    C12   16   0.072   0.036   0.277
    1UNL    C13   17   0.102   0.005   0.126
    1UNL     N2   18   0.165   0.131   0.060
    1UNL    C14   19   0.302   0.104   0.031
    1UNL    C15   20   0.398   0.183  -0.044
    1UNL    C16   21   0.514   0.124  -0.078
    1UNL    C17   22   0.544  -0.006  -0.057
    1UNL    C18   23   0.447  -0.089  -0.000
    1UNL    C19   24   0.327  -0.034   0.050
    1UNL    C20   25   0.212  -0.098   0.110
    1UNL     O4   26   0.208  -0.214   0.136
    1UNL    C21   27  -0.220  -0.043   0.246
    1UNL     H1   28  -0.003  -0.072  -0.353
    1UNL     H2   29   0.166  -0.118  -0.329
    1UNL     H3   30   0.053  -0.240  -0.375
    1UNL     H4   31  -0.014  -0.227   0.140
    1UNL     H5   32  -0.075  -0.228  -0.020
    1UNL     H6   33  -0.258  -0.250   0.168
    1UNL     H7   34  -0.427  -0.099   0.037
    1UNL     H8   35  -0.303  -0.158  -0.077
    1UNL     H9   36  -0.335   0.117   0.038
    1UNL    H10   37  -0.243  -0.004  -0.224
    1UNL    H11   38  -0.487   0.016  -0.193
    1UNL    H12   39  -0.461   0.195  -0.164
    1UNL    H13   40  -0.434   0.114  -0.317
    1UNL    H14   41  -0.094   0.162  -0.195
    1UNL    H15   42  -0.084   0.175   0.033
    1UNL    H16   43  -0.011   0.231   0.258
    1UNL    H17   44  -0.082   0.138   0.384
    1UNL    H18   45   0.048  -0.062   0.308
    1UNL    H19   46   0.161   0.064   0.327
    1UNL    H20   47   0.107   0.182  -0.002
    1UNL    H21   48   0.371   0.284  -0.047
    1UNL    H22   49   0.584   0.190  -0.128
    1UNL    H23   50   0.638  -0.043  -0.102
    1UNL    H24   51   0.468  -0.194   0.020
    1UNL    H25   52  -0.168  -0.084   0.334
    1UNL    H26   53  -0.320  -0.023   0.281
   0.00000   0.00000   0.00000   0.00000   0.00000   0.00000   0.00000   0.00000   0.00000
Generated with MDTraj, t= 48.0
 53
    1UNL     C1    1   0.075  -0.144  -0.304
    1UNL     O1    2   0.007  -0.157  -0.178
    1UNL     C2    3   0.015  -0.037  -0.113
    1UNL     O2    4   0.056   0.066  -0.164
    1UNL     C3    5  -0.020  -0.038   0.034
    1UNL     C4    6  -0.097  -0.168   0.078
    1UNL     C5    7  -0.235  -0.138   0.134
    1UNL     C6    8  -0.321  -0.081   0.021
    1UNL     C7    9  -0.275   0.056  -0.019
    1UNL     C8   10  -0.272   0.072  -0.174
    1UNL     C9   11  -0.411   0.091  -0.225
    1UNL     O3   12  -0.185   0.179  -0.229
    1UNL    C10   13  -0.137   0.085   0.058
    1UNL     N1   14  -0.161   0.087   0.212
    1UNL    C11   15  -0.039   0.122   0.295
    1UNL    C12   16   0.066   0.017   0.271
    1UNL    C13   17   0.109   0.002   0.118
    1UNL     N2   18   0.176   0.118   0.074
    1UNL    C14   19   0.299   0.092   0.014
    1UNL    C15   20   0.389   0.178  -0.052
    1UNL    C16   21   0.515   0.140  -0.084
    1UNL    C17   22   0.548   0.009  -0.056
    1UNL    C18   23   0.462  -0.083  -0.003
    1UNL    C19   24   0.339  -0.038   0.030
    1UNL    C20   25   0.221  -0.107   0.106
    1UNL     O4   26   0.212  -0.224   0.135
    1UNL    C21   27  -0.223  -0.039   0.251
    1UNL     H1   28   0.004  -0.098  -0.366
    1UNL     H2   29   0.163  -0.075  -0.300
    1UNL     H3   30   0.114  -0.238  -0.346
    1UNL     H4   31  -0.021  -0.211   0.149
    1UNL     H5   32  -0.107  -0.228  -0.007
    1UNL     H6   33  -0.285  -0.233   0.159
    1UNL     H7   34  -0.436  -0.082   0.050
    1UNL     H8   35  -0.321  -0.139  -0.070
    1UNL     H9   36  -0.344   0.139   0.008
    1UNL    H10   37  -0.233  -0.021  -0.220
    1UNL    H11   38  -0.473  -0.000  -0.211
    1UNL    H12   39  -0.443   0.179  -0.172
    1UNL    H13   40  -0.419   0.113  -0.330
    1UNL    H14   41  -0.096   0.143  -0.215
    1UNL    H15   42  -0.093   0.181   0.029
    1UNL    H16   43  -0.017   0.218   0.257
    1UNL    H17   44  -0.060   0.123   0.405
    1UNL    H18   45   0.047  -0.069   0.316
    1UNL    H19   46   0.161   0.057   0.303
    1UNL    H20   47   0.124   0.170   0.007
    1UNL    H21   48   0.358   0.283  -0.055
    1UNL    H22   49   0.592   0.211  -0.104
    1UNL    H23   50   0.643  -0.025  -0.088
    1UNL    H24   51   0.506  -0.179   0.009
    1UNL    H25   52  -0.162  -0.081   0.330
    1UNL    H26   53  -0.319  -0.020   0.293
   0.00000   0.00000   0.00000   0.00000   0.00000   0.00000   0.00000   0.00000   0.00000
Generated with MDTraj, t= 49.0
 53
    1UNL     C1    1   0.065  -0.152  -0.311
    1UNL     O1    2   0.016  -0.158  -0.182
    1UNL     C2    3   0.016  -0.037  -0.122
    1UNL     O2    4   0.046   0.066  -0.176
    1UNL     C3    5  -0.026  -0.017   0.023
    1UNL     C4    6  -0.077  -0.161   0.080
    1UNL     C5    7  -0.219  -0.152   0.137
    1UNL     C6    8  -0.313  -0.095   0.021
    1UNL     C7    9  -0.276   0.051  -0.014
    1UNL     C8   10  -0.256   0.076  -0.164
    1UNL     C9   11  -0.388   0.062  -0.241
    1UNL     O3   12  -0.195   0.205  -0.187
    1UNL    C10   13  -0.139   0.087   0.065
    1UNL     N1   14  -0.171   0.082   0.212
    1UNL    C11   15  -0.052   0.125   0.288
    1UNL    C12   16   0.068   0.029   0.265
    1UNL    C13   17   0.103   0.011   0.119
    1UNL     N2   18   0.175   0.134   0.066
    1UNL    C14   19   0.311   0.100   0.026
    1UNL    C15   20   0.405   0.179  -0.045
    1UNL    C16   21   0.516   0.121  -0.083
    1UNL    C17   22   0.544  -0.013  -0.063
    1UNL    C18   23   0.449  -0.093   0.000
    1UNL    C19   24   0.334  -0.041   0.039
    1UNL    C20   25   0.210  -0.094   0.100
    1UNL     O4   26   0.189  -0.208   0.130
    1UNL    C21   27  -0.217  -0.049   0.253
    1UNL     H1   28   0.030  -0.061  -0.352
    1UNL     H2   29   0.177  -0.150  -0.314
    1UNL     H3   30   0.025  -0.241  -0.362
    1UNL     H4   31  -0.009  -0.202   0.156
    1UNL     H5   32  -0.069  -0.222  -0.006
    1UNL     H6   33  -0.251  -0.245   0.181
    1UNL     H7   34  -0.427  -0.114   0.027
    1UNL     H8   35  -0.293  -0.156  -0.067
    1UNL     H9   36  -0.352   0.121   0.025
    1UNL    H10   37  -0.183  -0.005  -0.198
    1UNL    H11   38  -0.428  -0.040  -0.225
    1UNL    H12   39  -0.448   0.143  -0.206
    1UNL    H13   40  -0.380   0.072  -0.349
    1UNL    H14   41  -0.109   0.190  -0.235
    1UNL    H15   42  -0.103   0.190   0.049
    1UNL    H16   43  -0.017   0.221   0.263
    1UNL    H17   44  -0.081   0.126   0.396
    1UNL    H18   45   0.038  -0.076   0.294
    1UNL    H19   46   0.152   0.071   0.315
    1UNL    H20   47   0.115   0.177  -0.008
    1UNL    H21   48   0.384   0.283  -0.062
    1UNL    H22   49   0.586   0.183  -0.141
    1UNL    H23   50   0.640  -0.053  -0.101
    1UNL    H24   51   0.456  -0.202  -0.005
    1UNL    H25   52  -0.158  -0.085   0.334
    1UNL    H26   53  -0.315  -0.024   0.288
   0.00000   0.00000   0.00000   0.00000   0.00000   0.00000   0.00000   0.00000   0.00000
Generated with MDTraj, t= 50.0
 53
    1UNL     C1    1   0.054  -0.119  -0.314
    1UNL     O1    2   0.006  -0.146  -0.182
    1UNL     C2    3   0.014  -0.025  -0.106
    1UNL     O2    4   0.053   0.080  -0.158
    1UNL     C3    5  -0.020  -0.024   0.042
    1UNL     C4    6  -0.066  -0.164   0.088
    1UNL     C5    7  -0.217  -0.161   0.122
    1UNL     C6    8  -0.297  -0.100   0.008
    1UNL     C7    9  -0.266   0.047  -0.017
    1UNL     C8   10  -0.272   0.079  -0.173
    1UNL     C9   11  -0.412   0.060  -0.237
    1UNL     O3   12  -0.213   0.207  -0.206
    1UNL    C10   13  -0.136   0.084   0.061
    1UNL     N1   14  -0.171   0.082   0.205
    1UNL    C11   15  -0.057   0.127   0.283
    1UNL    C12   16   0.072   0.037   0.268
    1UNL    C13   17   0.110   0.017   0.112
    1UNL     N2   18   0.181   0.132   0.059
    1UNL    C14   19   0.304   0.094   0.013
    1UNL    C15   20   0.407   0.166  -0.055
    1UNL    C16   21   0.524   0.105  -0.091
    1UNL    C17   22   0.549  -0.024  -0.056
    1UNL    C18   23   0.452  -0.103   0.001
    1UNL    C19   24   0.329  -0.043   0.039
    1UNL    C20   25   0.213  -0.095   0.111
    1UNL     O4   26   0.209  -0.205   0.168
    1UNL    C21   27  -0.224  -0.061   0.244
    1UNL     H1   28  -0.006  -0.040  -0.354
    1UNL     H2   29   0.157  -0.077  -0.306
    1UNL     H3   30   0.046  -0.216  -0.369
    1UNL     H4   31  -0.003  -0.185   0.170
    1UNL     H5   32  -0.048  -0.229   0.003
    1UNL     H6   33  -0.253  -0.257   0.151
    1UNL     H7   34  -0.400  -0.136   0.017
    1UNL     H8   35  -0.272  -0.159  -0.083
    1UNL     H9   36  -0.344   0.103   0.036
    1UNL    H10   37  -0.203  -0.004  -0.214
    1UNL    H11   38  -0.443  -0.044  -0.228
    1UNL    H12   39  -0.479   0.134  -0.201
    1UNL    H13   40  -0.413   0.073  -0.347
    1UNL    H14   41  -0.120   0.199  -0.173
    1UNL    H15   42  -0.100   0.180   0.019
    1UNL    H16   43  -0.044   0.231   0.267
    1UNL    H17   44  -0.084   0.114   0.391
    1UNL    H18   45   0.033  -0.066   0.320
    1UNL    H19   46   0.155   0.080   0.317
    1UNL    H20   47   0.130   0.199  -0.008
    1UNL    H21   48   0.372   0.264  -0.083
    1UNL    H22   49   0.593   0.153  -0.153
    1UNL    H23   50   0.638  -0.071  -0.090
    1UNL    H24   51   0.469  -0.206   0.018
    1UNL    H25   52  -0.166  -0.087   0.329
    1UNL    H26   53  -0.326  -0.053   0.273
   0.00000   0.00000   0.00000   0.00000   0.00000   0.00000   0.00000   0.00000   0.00000
Generated with MDTraj, t= 51.0
 53
    1UNL     C1    1   0.049  -0.100  -0.327
    1UNL     O1    2   0.028  -0.127  -0.188
    1UNL     C2    3   0.029  -0.016  -0.117
    1UNL     O2    4   0.059   0.094  -0.158
    1UNL     C3    5  -0.024  -0.027   0.029
    1UNL     C4    6  -0.062  -0.171   0.067
    1UNL     C5    7  -0.205  -0.166   0.122
    1UNL     C6    8  -0.301  -0.104   0.019
    1UNL     C7    9  -0.275   0.047  -0.016
    1UNL     C8   10  -0.280   0.070  -0.169
    1UNL     C9   11  -0.423   0.086  -0.218
    1UNL     O3   12  -0.203   0.173  -0.215
    1UNL    C10   13  -0.140   0.079   0.047
    1UNL     N1   14  -0.170   0.072   0.201
    1UNL    C11   15  -0.057   0.133   0.280
    1UNL    C12   16   0.069   0.048   0.264
    1UNL    C13   17   0.106   0.012   0.120
    1UNL     N2   18   0.175   0.134   0.059
    1UNL    C14   19   0.308   0.092   0.022
    1UNL    C15   20   0.396   0.159  -0.062
    1UNL    C16   21   0.507   0.092  -0.104
    1UNL    C17   22   0.531  -0.042  -0.063
    1UNL    C18   23   0.447  -0.101   0.028
    1UNL    C19   24   0.333  -0.037   0.068
    1UNL    C20   25   0.216  -0.093   0.127
    1UNL     O4   26   0.208  -0.201   0.180
    1UNL    C21   27  -0.204  -0.069   0.244
    1UNL     H1   28  -0.040  -0.052  -0.369
    1UNL     H2   29   0.129  -0.025  -0.335
    1UNL     H3   30   0.066  -0.202  -0.370
    1UNL     H4   31   0.001  -0.212   0.137
    1UNL     H5   32  -0.055  -0.221  -0.031
    1UNL     H6   33  -0.232  -0.263   0.155
    1UNL     H7   34  -0.397  -0.112   0.058
    1UNL     H8   35  -0.305  -0.173  -0.071
    1UNL     H9   36  -0.342   0.123   0.025
    1UNL    H10   37  -0.235  -0.025  -0.218
    1UNL    H11   38  -0.472  -0.009  -0.225
    1UNL    H12   39  -0.483   0.167  -0.177
    1UNL    H13   40  -0.422   0.107  -0.325
    1UNL    H14   41  -0.108   0.159  -0.208
    1UNL    H15   42  -0.108   0.182   0.018
    1UNL    H16   43  -0.034   0.229   0.240
    1UNL    H17   44  -0.083   0.162   0.385
    1UNL    H18   45   0.042  -0.061   0.302
    1UNL    H19   46   0.159   0.085   0.309
    1UNL    H20   47   0.120   0.199  -0.005
    1UNL    H21   48   0.375   0.260  -0.095
    1UNL    H22   49   0.569   0.147  -0.177
    1UNL    H23   50   0.623  -0.090  -0.097
    1UNL    H24   51   0.476  -0.200   0.061
    1UNL    H25   52  -0.127  -0.107   0.304
    1UNL    H26   53  -0.295  -0.062   0.301
   0.00000   0.00000   0.00000   0.00000   0.00000   0.00000   0.00000   0.00000   0.00000
Generated with MDTraj, t= 52.0
 53
    1UNL     C1    1   0.085  -0.101  -0.313
    1UNL     O1    2   0.025  -0.124  -0.189
    1UNL     C2    3   0.026  -0.006  -0.117
    1UNL     O2    4   0.056   0.103  -0.165
    1UNL     C3    5  -0.020  -0.019   0.032
    1UNL     C4    6  -0.057  -0.160   0.077
    1UNL     C5    7  -0.209  -0.160   0.126
    1UNL     C6    8  -0.299  -0.113   0.009
    1UNL     C7    9  -0.276   0.040  -0.013
    1UNL     C8   10  -0.274   0.065  -0.162
    1UNL     C9   11  -0.423   0.059  -0.211
    1UNL     O3   12  -0.209   0.185  -0.200
    1UNL    C10   13  -0.146   0.083   0.056
    1UNL     N1   14  -0.172   0.077   0.203
    1UNL    C11   15  -0.059   0.128   0.281
    1UNL    C12   16   0.065   0.047   0.267
    1UNL    C13   17   0.106   0.017   0.118
    1UNL     N2   18   0.180   0.132   0.050
    1UNL    C14   19   0.309   0.090   0.002
    1UNL    C15   20   0.405   0.164  -0.062
    1UNL    C16   21   0.519   0.089  -0.096
    1UNL    C17   22   0.534  -0.049  -0.067
    1UNL    C18   23   0.442  -0.116   0.010
    1UNL    C19   24   0.326  -0.045   0.043
    1UNL    C20   25   0.210  -0.095   0.120
    1UNL     O4   26   0.201  -0.197   0.179
    1UNL    C21   27  -0.228  -0.060   0.247
    1UNL     H1   28   0.039  -0.010  -0.358
    1UNL     H2   29   0.191  -0.084  -0.292
    1UNL     H3   30   0.053  -0.193  -0.365
    1UNL     H4   31   0.009  -0.188   0.154
    1UNL     H5   32  -0.049  -0.232  -0.004
    1UNL     H6   33  -0.244  -0.259   0.142
    1UNL     H7   34  -0.396  -0.141   0.026
    1UNL     H8   35  -0.272  -0.166  -0.090
    1UNL     H9   36  -0.354   0.102   0.029
    1UNL    H10   37  -0.217  -0.018  -0.217
    1UNL    H11   38  -0.466  -0.037  -0.199
    1UNL    H12   39  -0.482   0.144  -0.172
    1UNL    H13   40  -0.428   0.069  -0.318
    1UNL    H14   41  -0.107   0.173  -0.198
    1UNL    H15   42  -0.126   0.190   0.026
    1UNL    H16   43  -0.055   0.234   0.273
    1UNL    H17   44  -0.084   0.124   0.390
    1UNL    H18   45   0.056  -0.050   0.312
    1UNL    H19   46   0.152   0.097   0.307
    1UNL    H20   47   0.133   0.204  -0.009
    1UNL    H21   48   0.389   0.268  -0.079
    1UNL    H22   49   0.600   0.143  -0.136
    1UNL    H23   50   0.633  -0.085  -0.091
    1UNL    H24   51   0.460  -0.214   0.055
    1UNL    H25   52  -0.188  -0.093   0.336
    1UNL    H26   53  -0.333  -0.046   0.257
   0.00000   0.00000   0.00000   0.00000   0.00000   0.00000   0.00000   0.00000   0.00000
Generated with MDTraj, t= 53.0
 53
    1UNL     C1    1   0.099  -0.120  -0.305
    1UNL     O1    2   0.044  -0.138  -0.170
    1UNL     C2    3   0.020  -0.013  -0.116
    1UNL     O2    4   0.030   0.096  -0.169
    1UNL     C3    5  -0.019  -0.019   0.034
    1UNL     C4    6  -0.075  -0.158   0.066
    1UNL     C5    7  -0.220  -0.156   0.124
    1UNL     C6    8  -0.314  -0.097   0.019
    1UNL     C7    9  -0.271   0.049  -0.017
    1UNL     C8   10  -0.268   0.076  -0.169
    1UNL     C9   11  -0.401   0.037  -0.239
    1UNL     O3   12  -0.229   0.209  -0.195
    1UNL    C10   13  -0.137   0.078   0.064
    1UNL     N1   14  -0.168   0.073   0.209
    1UNL    C11   15  -0.056   0.134   0.285
    1UNL    C12   16   0.075   0.055   0.268
    1UNL    C13   17   0.110   0.015   0.116
    1UNL     N2   18   0.175   0.129   0.058
    1UNL    C14   19   0.307   0.093   0.022
    1UNL    C15   20   0.405   0.161  -0.045
    1UNL    C16   21   0.515   0.096  -0.101
    1UNL    C17   22   0.535  -0.039  -0.081
    1UNL    C18   23   0.447  -0.109  -0.002
    1UNL    C19   24   0.326  -0.045   0.045
    1UNL    C20   25   0.210  -0.100   0.117
    1UNL     O4   26   0.195  -0.210   0.164
    1UNL    C21   27  -0.215  -0.059   0.246
    1UNL     H1   28   0.025  -0.054  -0.359
    1UNL     H2   29   0.195  -0.072  -0.292
    1UNL     H3   30   0.094  -0.218  -0.352
    1UNL     H4   31  -0.022  -0.215   0.146
    1UNL     H5   32  -0.057  -0.215  -0.022
    1UNL     H6   33  -0.242  -0.253   0.158
    1UNL     H7   34  -0.414  -0.103   0.049
    1UNL     H8   35  -0.301  -0.161  -0.073
    1UNL     H9   36  -0.348   0.103   0.035
    1UNL    H10   37  -0.192   0.014  -0.220
    1UNL    H11   38  -0.417  -0.068  -0.223
    1UNL    H12   39  -0.473   0.107  -0.194
    1UNL    H13   40  -0.403   0.048  -0.345
    1UNL    H14   41  -0.136   0.220  -0.183
    1UNL    H15   42  -0.095   0.178   0.033
    1UNL    H16   43  -0.042   0.238   0.262
    1UNL    H17   44  -0.086   0.154   0.392
    1UNL    H18   45   0.060  -0.030   0.315
    1UNL    H19   46   0.168   0.106   0.295
    1UNL    H20   47   0.126   0.180  -0.015
    1UNL    H21   48   0.372   0.265  -0.069
    1UNL    H22   49   0.584   0.162  -0.155
    1UNL    H23   50   0.618  -0.093  -0.123
    1UNL    H24   51   0.456  -0.210   0.027
    1UNL    H25   52  -0.157  -0.095   0.326
    1UNL    H26   53  -0.312  -0.044   0.280
   0.00000   0.00000   0.00000   0.00000   0.00000   0.00000   0.00000   0.00000   0.00000
Generated with MDTraj, t= 54.0
 53
    1UNL     C1    1   0.106  -0.113  -0.301
    1UNL     O1    2   0.057  -0.142  -0.170
    1UNL     C2    3   0.025  -0.022  -0.109
    1UNL     O2    4   0.043   0.085  -0.163
    1UNL     C3    5  -0.020  -0.025   0.035
    1UNL     C4    6  -0.082  -0.164   0.078
    1UNL     C5    7  -0.226  -0.149   0.136
    1UNL     C6    8  -0.319  -0.099   0.024
    1UNL     C7    9  -0.268   0.046  -0.022
    1UNL     C8   10  -0.270   0.065  -0.171
    1UNL     C9   11  -0.408   0.063  -0.238
    1UNL     O3   12  -0.215   0.195  -0.209
    1UNL    C10   13  -0.131   0.083   0.059
    1UNL     N1   14  -0.162   0.084   0.208
    1UNL    C11   15  -0.043   0.128   0.288
    1UNL    C12   16   0.070   0.026   0.278
    1UNL    C13   17   0.106   0.008   0.125
    1UNL     N2   18   0.175   0.133   0.068
    1UNL    C14   19   0.301   0.089   0.011
    1UNL    C15   20   0.387   0.165  -0.062
    1UNL    C16   21   0.506   0.110  -0.103
    1UNL    C17   22   0.534  -0.024  -0.063
    1UNL    C18   23   0.438  -0.102  -0.002
    1UNL    C19   24   0.319  -0.045   0.030
    1UNL    C20   25   0.211  -0.096   0.105
    1UNL     O4   26   0.203  -0.213   0.145
    1UNL    C21   27  -0.225  -0.042   0.249
    1UNL     H1   28   0.017  -0.133  -0.369
    1UNL     H2   29   0.152  -0.016  -0.296
    1UNL     H3   30   0.171  -0.197  -0.318
    1UNL     H4   31  -0.003  -0.226   0.138
    1UNL     H5   32  -0.099  -0.227  -0.004
    1UNL     H6   33  -0.266  -0.238   0.173
    1UNL     H7   34  -0.423  -0.099   0.057
    1UNL     H8   35  -0.311  -0.163  -0.063
    1UNL     H9   36  -0.346   0.108   0.018
    1UNL    H10   37  -0.211  -0.013  -0.217
    1UNL    H11   38  -0.464  -0.029  -0.232
    1UNL    H12   39  -0.451   0.150  -0.189
    1UNL    H13   40  -0.409   0.085  -0.343
    1UNL    H14   41  -0.113   0.191  -0.209
    1UNL    H15   42  -0.098   0.188   0.035
    1UNL    H16   43  -0.003   0.224   0.262
    1UNL    H17   44  -0.063   0.150   0.396
    1UNL    H18   45   0.038  -0.069   0.312
    1UNL    H19   46   0.161   0.069   0.321
    1UNL    H20   47   0.122   0.197   0.014
    1UNL    H21   48   0.363   0.260  -0.095
    1UNL    H22   49   0.559   0.172  -0.175
    1UNL    H23   50   0.633  -0.063  -0.091
    1UNL    H24   51   0.449  -0.210   0.022
    1UNL    H25   52  -0.175  -0.077   0.335
    1UNL    H26   53  -0.320  -0.023   0.281
   0.00000   0.00000   0.00000   0.00000   0.00000   0.00000   0.00000   0.00000   0.00000
Generated with MDTraj, t= 55.0
 53
    1UNL     C1    1   0.111  -0.140  -0.295
    1UNL     O1    2   0.028  -0.150  -0.176
    1UNL     C2    3   0.027  -0.032  -0.120
    1UNL     O2    4   0.051   0.074  -0.173
    1UNL     C3    5  -0.026  -0.029   0.031
    1UNL     C4    6  -0.083  -0.171   0.065
    1UNL     C5    7  -0.223  -0.160   0.133
    1UNL     C6    8  -0.320  -0.095   0.026
    1UNL     C7    9  -0.271   0.046  -0.021
    1UNL     C8   10  -0.282   0.076  -0.173
    1UNL     C9   11  -0.421   0.093  -0.221
    1UNL     O3   12  -0.199   0.184  -0.217
    1UNL    C10   13  -0.135   0.077   0.054
    1UNL     N1   14  -0.163   0.079   0.203
    1UNL    C11   15  -0.048   0.119   0.285
    1UNL    C12   16   0.071   0.025   0.273
    1UNL    C13   17   0.102   0.016   0.124
    1UNL     N2   18   0.181   0.137   0.078
    1UNL    C14   19   0.306   0.105   0.024
    1UNL    C15   20   0.394   0.178  -0.056
    1UNL    C16   21   0.513   0.115  -0.106
    1UNL    C17   22   0.532  -0.022  -0.075
    1UNL    C18   23   0.437  -0.099  -0.009
    1UNL    C19   24   0.330  -0.032   0.049
    1UNL    C20   25   0.210  -0.090   0.116
    1UNL     O4   26   0.207  -0.206   0.157
    1UNL    C21   27  -0.220  -0.051   0.251
    1UNL     H1   28   0.069  -0.056  -0.363
    1UNL     H2   29   0.207  -0.117  -0.255
    1UNL     H3   30   0.114  -0.231  -0.352
    1UNL     H4   31  -0.005  -0.229   0.128
    1UNL     H5   32  -0.084  -0.226  -0.026
    1UNL     H6   33  -0.267  -0.251   0.161
    1UNL     H7   34  -0.422  -0.072   0.062
    1UNL     H8   35  -0.323  -0.154  -0.059
    1UNL     H9   36  -0.338   0.121   0.019
    1UNL    H10   37  -0.239  -0.008  -0.220
    1UNL    H11   38  -0.486   0.010  -0.195
    1UNL    H12   39  -0.450   0.184  -0.175
    1UNL    H13   40  -0.438   0.102  -0.327
    1UNL    H14   41  -0.106   0.165  -0.199
    1UNL    H15   42  -0.102   0.180   0.023
    1UNL    H16   43  -0.017   0.217   0.258
    1UNL    H17   44  -0.059   0.125   0.397
    1UNL    H18   45   0.037  -0.079   0.317
    1UNL    H19   46   0.153   0.075   0.321
    1UNL    H20   47   0.131   0.200   0.022
    1UNL    H21   48   0.367   0.285  -0.067
    1UNL    H22   49   0.587   0.163  -0.167
    1UNL    H23   50   0.619  -0.065  -0.119
    1UNL    H24   51   0.454  -0.199   0.014
    1UNL    H25   52  -0.181  -0.089   0.341
    1UNL    H26   53  -0.316  -0.032   0.282
   0.00000   0.00000   0.00000   0.00000   0.00000   0.00000   0.00000   0.00000   0.00000
Generated with MDTraj, t= 56.0
 53
    1UNL     C1    1   0.069  -0.148  -0.299
    1UNL     O1    2   0.027  -0.157  -0.166
    1UNL     C2    3   0.025  -0.030  -0.110
    1UNL     O2    4   0.054   0.072  -0.169
    1UNL     C3    5  -0.015  -0.030   0.036
    1UNL     C4    6  -0.075  -0.165   0.080
    1UNL     C5    7  -0.220  -0.157   0.127
    1UNL     C6    8  -0.303  -0.117   0.011
    1UNL     C7    9  -0.265   0.036  -0.022
    1UNL     C8   10  -0.266   0.082  -0.168
    1UNL     C9   11  -0.409   0.097  -0.214
    1UNL     O3   12  -0.188   0.204  -0.193
    1UNL    C10   13  -0.130   0.071   0.048
    1UNL     N1   14  -0.169   0.074   0.199
    1UNL    C11   15  -0.063   0.135   0.279
    1UNL    C12   16   0.071   0.048   0.273
    1UNL    C13   17   0.104   0.016   0.121
    1UNL     N2   18   0.176   0.133   0.063
    1UNL    C14   19   0.298   0.095   0.010
    1UNL    C15   20   0.390   0.174  -0.063
    1UNL    C16   21   0.512   0.123  -0.087
    1UNL    C17   22   0.544  -0.013  -0.070
    1UNL    C18   23   0.445  -0.094  -0.016
    1UNL    C19   24   0.329  -0.040   0.037
    1UNL    C20   25   0.217  -0.099   0.114
    1UNL     O4   26   0.195  -0.208   0.152
    1UNL    C21   27  -0.233  -0.053   0.241
    1UNL     H1   28   0.042  -0.046  -0.348
    1UNL     H2   29   0.172  -0.168  -0.290
    1UNL     H3   30   0.021  -0.222  -0.361
    1UNL     H4   31  -0.007  -0.211   0.158
    1UNL     H5   32  -0.060  -0.242   0.003
    1UNL     H6   33  -0.252  -0.252   0.160
    1UNL     H7   34  -0.411  -0.122   0.039
    1UNL     H8   35  -0.286  -0.175  -0.072
    1UNL     H9   36  -0.341   0.099   0.025
    1UNL    H10   37  -0.214   0.005  -0.217
    1UNL    H11   38  -0.468   0.006  -0.203
    1UNL    H12   39  -0.448   0.178  -0.160
    1UNL    H13   40  -0.414   0.117  -0.320
    1UNL    H14   41  -0.094   0.166  -0.195
    1UNL    H15   42  -0.110   0.178   0.020
    1UNL    H16   43  -0.032   0.234   0.252
    1UNL    H17   44  -0.103   0.141   0.383
    1UNL    H18   45   0.044  -0.058   0.324
    1UNL    H19   46   0.153   0.103   0.315
    1UNL    H20   47   0.118   0.198   0.018
    1UNL    H21   48   0.361   0.273  -0.079
    1UNL    H22   49   0.585   0.196  -0.125
    1UNL    H23   50   0.640  -0.066  -0.085
    1UNL    H24   51   0.460  -0.204   0.003
    1UNL    H25   52  -0.187  -0.095   0.326
    1UNL    H26   53  -0.329  -0.042   0.280
   0.00000   0.00000   0.00000   0.00000   0.00000   0.00000   0.00000   0.00000   0.00000
Generated with MDTraj, t= 57.0
 53
    1UNL     C1    1   0.036  -0.148  -0.313
    1UNL     O1    2  -0.008  -0.146  -0.185
    1UNL     C2    3   0.011  -0.028  -0.122
    1UNL     O2    4   0.054   0.069  -0.177
    1UNL     C3    5  -0.018  -0.026   0.029
    1UNL     C4    6  -0.071  -0.167   0.084
    1UNL     C5    7  -0.228  -0.157   0.122
    1UNL     C6    8  -0.317  -0.097   0.012
    1UNL     C7    9  -0.258   0.050  -0.021
    1UNL     C8   10  -0.258   0.074  -0.175
    1UNL     C9   11  -0.402   0.086  -0.227
    1UNL     O3   12  -0.197   0.199  -0.196
    1UNL    C10   13  -0.132   0.071   0.059
    1UNL     N1   14  -0.164   0.070   0.203
    1UNL    C11   15  -0.059   0.116   0.299
    1UNL    C12   16   0.077   0.039   0.270
    1UNL    C13   17   0.118   0.009   0.116
    1UNL     N2   18   0.179   0.127   0.060
    1UNL    C14   19   0.306   0.101   0.018
    1UNL    C15   20   0.390   0.175  -0.068
    1UNL    C16   21   0.514   0.121  -0.098
    1UNL    C17   22   0.546  -0.013  -0.063
    1UNL    C18   23   0.458  -0.087   0.018
    1UNL    C19   24   0.345  -0.028   0.058
    1UNL    C20   25   0.228  -0.095   0.119
    1UNL     O4   26   0.212  -0.203   0.169
    1UNL    C21   27  -0.234  -0.054   0.240
    1UNL     H1   28  -0.051  -0.139  -0.390
    1UNL     H2   29   0.107  -0.071  -0.316
    1UNL     H3   30   0.087  -0.240  -0.338
    1UNL     H4   31  -0.010  -0.217   0.160
    1UNL     H5   32  -0.048  -0.249   0.006
    1UNL     H6   33  -0.261  -0.252   0.151
    1UNL     H7   34  -0.423  -0.099   0.042
    1UNL     H8   35  -0.311  -0.159  -0.075
    1UNL     H9   36  -0.335   0.123   0.005
    1UNL    H10   37  -0.200  -0.005  -0.220
    1UNL    H11   38  -0.455  -0.007  -0.219
    1UNL    H12   39  -0.447   0.168  -0.178
    1UNL    H13   40  -0.397   0.101  -0.334
    1UNL    H14   41  -0.100   0.180  -0.193
    1UNL    H15   42  -0.090   0.169   0.023
    1UNL    H16   43  -0.055   0.223   0.293
    1UNL    H17   44  -0.090   0.101   0.406
    1UNL    H18   45   0.074  -0.065   0.318
    1UNL    H19   46   0.164   0.094   0.300
    1UNL    H20   47   0.121   0.188   0.010
    1UNL    H21   48   0.347   0.261  -0.123
    1UNL    H22   49   0.584   0.172  -0.156
    1UNL    H23   50   0.638  -0.052  -0.096
    1UNL    H24   51   0.478  -0.188   0.034
    1UNL    H25   52  -0.196  -0.096   0.326
    1UNL    H26   53  -0.331  -0.031   0.272
   0.00000   0.00000   0.00000   0.00000   0.00000   0.00000   0.00000   0.00000   0.00000
Generated with MDTraj, t= 58.0
 53
    1UNL     C1    1   0.014  -0.119  -0.325
    1UNL     O1    2  -0.015  -0.136  -0.193
    1UNL     C2    3   0.021  -0.027  -0.113
    1UNL     O2    4   0.069   0.071  -0.168
    1UNL     C3    5  -0.016  -0.029   0.036
    1UNL     C4    6  -0.070  -0.166   0.085
    1UNL     C5    7  -0.212  -0.158   0.141
    1UNL     C6    8  -0.308  -0.108   0.030
    1UNL     C7    9  -0.264   0.038  -0.021
    1UNL     C8   10  -0.263   0.059  -0.180
    1UNL     C9   11  -0.405   0.084  -0.242
    1UNL     O3   12  -0.185   0.175  -0.198
    1UNL    C10   13  -0.135   0.075   0.046
    1UNL     N1   14  -0.157   0.080   0.196
    1UNL    C11   15  -0.044   0.126   0.275
    1UNL    C12   16   0.075   0.040   0.275
    1UNL    C13   17   0.112   0.018   0.122
    1UNL     N2   18   0.172   0.138   0.061
    1UNL    C14   19   0.299   0.100   0.013
    1UNL    C15   20   0.396   0.180  -0.050
    1UNL    C16   21   0.514   0.117  -0.080
    1UNL    C17   22   0.542  -0.015  -0.047
    1UNL    C18   23   0.444  -0.097   0.011
    1UNL    C19   24   0.328  -0.037   0.046
    1UNL    C20   25   0.211  -0.094   0.112
    1UNL     O4   26   0.211  -0.213   0.150
    1UNL    C21   27  -0.212  -0.049   0.253
    1UNL     H1   28  -0.058  -0.174  -0.400
    1UNL     H2   29   0.016  -0.016  -0.342
    1UNL     H3   30   0.114  -0.153  -0.345
    1UNL     H4   31  -0.007  -0.220   0.150
    1UNL     H5   32  -0.065  -0.245  -0.002
    1UNL     H6   33  -0.250  -0.251   0.172
    1UNL     H7   34  -0.408  -0.114   0.067
    1UNL     H8   35  -0.307  -0.185  -0.054
    1UNL     H9   36  -0.331   0.119   0.018
    1UNL    H10   37  -0.206  -0.019  -0.233
    1UNL    H11   38  -0.463  -0.003  -0.232
    1UNL    H12   39  -0.451   0.170  -0.195
    1UNL    H13   40  -0.399   0.094  -0.348
    1UNL    H14   41  -0.090   0.152  -0.184
    1UNL    H15   42  -0.098   0.178   0.026
    1UNL    H16   43  -0.023   0.229   0.256
    1UNL    H17   44  -0.088   0.134   0.378
    1UNL    H18   45   0.075  -0.057   0.312
    1UNL    H19   46   0.157   0.098   0.319
    1UNL    H20   47   0.101   0.186   0.001
    1UNL    H21   48   0.364   0.274  -0.091
    1UNL    H22   49   0.596   0.176  -0.131
    1UNL    H23   50   0.645  -0.051  -0.063
    1UNL    H24   51   0.460  -0.205   0.025
    1UNL    H25   52  -0.181  -0.079   0.346
    1UNL    H26   53  -0.315  -0.034   0.269
   0.00000   0.00000   0.00000   0.00000   0.00000   0.00000   0.00000   0.00000   0.00000
Generated with MDTraj, t= 59.0
 53
    1UNL     C1    1   0.023  -0.130  -0.314
    1UNL     O1    2  -0.020  -0.128  -0.184
    1UNL     C2    3   0.021  -0.023  -0.117
    1UNL     O2    4   0.067   0.077  -0.166
    1UNL     C3    5  -0.015  -0.024   0.033
    1UNL     C4    6  -0.075  -0.168   0.081
    1UNL     C5    7  -0.220  -0.156   0.130
    1UNL     C6    8  -0.319  -0.096   0.026
    1UNL     C7    9  -0.265   0.045  -0.020
    1UNL     C8   10  -0.277   0.058  -0.175
    1UNL     C9   11  -0.423   0.054  -0.228
    1UNL     O3   12  -0.212   0.177  -0.220
    1UNL    C10   13  -0.136   0.079   0.051
    1UNL     N1   14  -0.159   0.081   0.199
    1UNL    C11   15  -0.044   0.125   0.289
    1UNL    C12   16   0.074   0.036   0.264
    1UNL    C13   17   0.110   0.020   0.114
    1UNL     N2   18   0.185   0.141   0.072
    1UNL    C14   19   0.314   0.103   0.029
    1UNL    C15   20   0.421   0.176  -0.028
    1UNL    C16   21   0.531   0.113  -0.072
    1UNL    C17   22   0.553  -0.023  -0.057
    1UNL    C18   23   0.454  -0.096   0.002
    1UNL    C19   24   0.334  -0.037   0.047
    1UNL    C20   25   0.217  -0.093   0.107
    1UNL     O4   26   0.209  -0.211   0.139
    1UNL    C21   27  -0.220  -0.048   0.238
    1UNL     H1   28   0.071  -0.230  -0.353
    1UNL     H2   29  -0.057  -0.108  -0.381
    1UNL     H3   30   0.095  -0.052  -0.333
    1UNL     H4   31  -0.019  -0.212   0.156
    1UNL     H5   32  -0.070  -0.255   0.002
    1UNL     H6   33  -0.260  -0.245   0.173
    1UNL     H7   34  -0.412  -0.090   0.076
    1UNL     H8   35  -0.337  -0.174  -0.059
    1UNL     H9   36  -0.328   0.131   0.015
    1UNL    H10   37  -0.214  -0.022  -0.225
    1UNL    H11   38  -0.480  -0.031  -0.207
    1UNL    H12   39  -0.476   0.145  -0.199
    1UNL    H13   40  -0.416   0.049  -0.334
    1UNL    H14   41  -0.112   0.156  -0.221
    1UNL    H15   42  -0.096   0.176   0.015
    1UNL    H16   43  -0.018   0.225   0.262
    1UNL    H17   44  -0.068   0.134   0.398
    1UNL    H18   45   0.066  -0.053   0.308
    1UNL    H19   46   0.169   0.087   0.291
    1UNL    H20   47   0.131   0.210   0.008
    1UNL    H21   48   0.409   0.282  -0.039
    1UNL    H22   49   0.603   0.172  -0.118
    1UNL    H23   50   0.644  -0.076  -0.076
    1UNL    H24   51   0.467  -0.202   0.018
    1UNL    H25   52  -0.160  -0.086   0.315
    1UNL    H26   53  -0.311  -0.025   0.283
   0.00000   0.00000   0.00000   0.00000   0.00000   0.00000   0.00000   0.00000   0.00000
Generated with MDTraj, t= 60.0
 53
    1UNL     C1    1   0.056  -0.122  -0.321
    1UNL     O1    2   0.027  -0.146  -0.189
    1UNL     C2    3   0.011  -0.027  -0.121
    1UNL     O2    4   0.033   0.081  -0.173
    1UNL     C3    5  -0.021  -0.028   0.022
    1UNL     C4    6  -0.084  -0.164   0.074
    1UNL     C5    7  -0.224  -0.148   0.140
    1UNL     C6    8  -0.324  -0.094   0.031
    1UNL     C7    9  -0.269   0.045  -0.011
    1UNL     C8   10  -0.268   0.065  -0.162
    1UNL     C9   11  -0.407   0.055  -0.215
    1UNL     O3   12  -0.214   0.190  -0.198
    1UNL    C10   13  -0.130   0.077   0.049
    1UNL     N1   14  -0.156   0.085   0.198
    1UNL    C11   15  -0.042   0.134   0.271
    1UNL    C12   16   0.082   0.039   0.262
    1UNL    C13   17   0.106   0.008   0.109
    1UNL     N2   18   0.177   0.122   0.044
    1UNL    C14   19   0.310   0.094   0.011
    1UNL    C15   20   0.407   0.176  -0.042
    1UNL    C16   21   0.530   0.116  -0.067
    1UNL    C17   22   0.552  -0.014  -0.031
    1UNL    C18   23   0.458  -0.095   0.022
    1UNL    C19   24   0.333  -0.041   0.038
    1UNL    C20   25   0.212  -0.104   0.098
    1UNL     O4   26   0.188  -0.212   0.138
    1UNL    C21   27  -0.217  -0.046   0.254
    1UNL     H1   28   0.113  -0.206  -0.378
    1UNL     H2   29  -0.035  -0.121  -0.378
    1UNL     H3   30   0.110  -0.030  -0.336
    1UNL     H4   31  -0.015  -0.210   0.145
    1UNL     H5   32  -0.092  -0.240  -0.006
    1UNL     H6   33  -0.256  -0.240   0.184
    1UNL     H7   34  -0.422  -0.105   0.072
    1UNL     H8   35  -0.322  -0.175  -0.051
    1UNL     H9   36  -0.337   0.120   0.039
    1UNL    H10   37  -0.200  -0.013  -0.213
    1UNL    H11   38  -0.458  -0.035  -0.193
    1UNL    H12   39  -0.456   0.139  -0.166
    1UNL    H13   40  -0.411   0.068  -0.319
    1UNL    H14   41  -0.120   0.184  -0.193
    1UNL    H15   42  -0.104   0.180   0.017
    1UNL    H16   43  -0.013   0.234   0.244
    1UNL    H17   44  -0.071   0.143   0.378
    1UNL    H18   45   0.065  -0.053   0.315
    1UNL    H19   46   0.170   0.096   0.293
    1UNL    H20   47   0.119   0.188  -0.010
    1UNL    H21   48   0.386   0.281  -0.056
    1UNL    H22   49   0.613   0.168  -0.122
    1UNL    H23   50   0.652  -0.047  -0.052
    1UNL    H24   51   0.487  -0.184   0.073
    1UNL    H25   52  -0.157  -0.074   0.339
    1UNL    H26   53  -0.309  -0.028   0.296
   0.00000   0.00000   0.00000   0.00000   0.00000   0.00000   0.00000   0.00000   0.00000
Generated with MDTraj, t= 61.0
 53
    1UNL     C1    1   0.102  -0.139  -0.295
    1UNL     O1    2   0.032  -0.144  -0.175
    1UNL     C2    3   0.006  -0.019  -0.127
    1UNL     O2    4   0.018   0.090  -0.182
    1UNL     C3    5  -0.030  -0.025   0.020
    1UNL     C4    6  -0.077  -0.165   0.061
    1UNL     C5    7  -0.216  -0.155   0.133
    1UNL     C6    8  -0.319  -0.096   0.020
    1UNL     C7    9  -0.274   0.043  -0.016
    1UNL     C8   10  -0.291   0.077  -0.168
    1UNL     C9   11  -0.442   0.068  -0.205
    1UNL     O3   12  -0.221   0.201  -0.200
    1UNL    C10   13  -0.140   0.076   0.060
    1UNL     N1   14  -0.164   0.082   0.208
    1UNL    C11   15  -0.045   0.132   0.275
    1UNL    C12   16   0.080   0.037   0.253
    1UNL    C13   17   0.110   0.016   0.102
    1UNL     N2   18   0.181   0.124   0.046
    1UNL    C14   19   0.312   0.088   0.004
    1UNL    C15   20   0.408   0.165  -0.060
    1UNL    C16   21   0.533   0.110  -0.078
    1UNL    C17   22   0.561  -0.018  -0.032
    1UNL    C18   23   0.470  -0.091   0.039
    1UNL    C19   24   0.336  -0.044   0.044
    1UNL    C20   25   0.213  -0.104   0.099
    1UNL     O4   26   0.196  -0.212   0.146
    1UNL    C21   27  -0.216  -0.050   0.252
    1UNL     H1   28   0.086  -0.229  -0.364
    1UNL     H2   29   0.075  -0.060  -0.361
    1UNL     H3   30   0.208  -0.130  -0.271
    1UNL     H4   31   0.001  -0.207   0.133
    1UNL     H5   32  -0.078  -0.223  -0.027
    1UNL     H6   33  -0.241  -0.255   0.167
    1UNL     H7   34  -0.422  -0.104   0.062
    1UNL     H8   35  -0.317  -0.171  -0.063
    1UNL     H9   36  -0.352   0.110   0.035
    1UNL    H10   37  -0.240   0.000  -0.239
    1UNL    H11   38  -0.489  -0.025  -0.180
    1UNL    H12   39  -0.483   0.142  -0.140
    1UNL    H13   40  -0.463   0.092  -0.305
    1UNL    H14   41  -0.123   0.176  -0.186
    1UNL    H15   42  -0.116   0.176   0.027
    1UNL    H16   43  -0.014   0.228   0.244
    1UNL    H17   44  -0.061   0.132   0.384
    1UNL    H18   45   0.053  -0.070   0.291
    1UNL    H19   46   0.165   0.079   0.304
    1UNL    H20   47   0.124   0.173  -0.016
    1UNL    H21   48   0.401   0.266  -0.093
    1UNL    H22   49   0.603   0.166  -0.133
    1UNL    H23   50   0.660  -0.059  -0.058
    1UNL    H24   51   0.502  -0.180   0.097
    1UNL    H25   52  -0.158  -0.075   0.340
    1UNL    H26   53  -0.311  -0.028   0.288
   0.00000   0.00000   0.00000   0.00000   0.00000   0.00000   0.00000   0.00000   0.00000
Generated with MDTraj, t= 62.0
 53
    1UNL     C1    1   0.109  -0.129  -0.311
    1UNL     O1    2   0.052  -0.151  -0.185
    1UNL     C2    3   0.026  -0.030  -0.123
    1UNL     O2    4   0.048   0.079  -0.174
    1UNL     C3    5  -0.024  -0.024   0.025
    1UNL     C4    6  -0.077  -0.170   0.072
    1UNL     C5    7  -0.212  -0.156   0.136
    1UNL     C6    8  -0.310  -0.112   0.022
    1UNL     C7    9  -0.282   0.037  -0.015
    1UNL     C8   10  -0.302   0.072  -0.158
    1UNL     C9   11  -0.441   0.100  -0.195
    1UNL     O3   12  -0.229   0.190  -0.206
    1UNL    C10   13  -0.141   0.076   0.048
    1UNL     N1   14  -0.166   0.080   0.198
    1UNL    C11   15  -0.057   0.137   0.273
    1UNL    C12   16   0.072   0.054   0.259
    1UNL    C13   17   0.106   0.022   0.111
    1UNL     N2   18   0.178   0.135   0.050
    1UNL    C14   19   0.307   0.095   0.011
    1UNL    C15   20   0.412   0.165  -0.042
    1UNL    C16   21   0.526   0.100  -0.083
    1UNL    C17   22   0.546  -0.030  -0.052
    1UNL    C18   23   0.450  -0.103   0.011
    1UNL    C19   24   0.323  -0.043   0.040
    1UNL    C20   25   0.210  -0.088   0.115
    1UNL     O4   26   0.201  -0.204   0.155
    1UNL    C21   27  -0.212  -0.058   0.244
    1UNL     H1   28   0.115  -0.225  -0.370
    1UNL     H2   29   0.063  -0.058  -0.376
    1UNL     H3   30   0.213  -0.101  -0.290
    1UNL     H4   31   0.001  -0.213   0.146
    1UNL     H5   32  -0.093  -0.231  -0.009
    1UNL     H6   33  -0.255  -0.254   0.164
    1UNL     H7   34  -0.419  -0.136   0.052
    1UNL     H8   35  -0.287  -0.176  -0.064
    1UNL     H9   36  -0.354   0.103   0.044
    1UNL    H10   37  -0.265  -0.015  -0.220
    1UNL    H11   38  -0.506   0.017  -0.173
    1UNL    H12   39  -0.470   0.185  -0.141
    1UNL    H13   40  -0.443   0.126  -0.299
    1UNL    H14   41  -0.136   0.174  -0.208
    1UNL    H15   42  -0.114   0.177   0.015
    1UNL    H16   43  -0.040   0.234   0.233
    1UNL    H17   44  -0.080   0.144   0.381
    1UNL    H18   45   0.071  -0.047   0.323
    1UNL    H19   46   0.158   0.105   0.301
    1UNL    H20   47   0.130   0.207   0.005
    1UNL    H21   48   0.405   0.275  -0.053
    1UNL    H22   49   0.603   0.158  -0.134
    1UNL    H23   50   0.634  -0.080  -0.079
    1UNL    H24   51   0.450  -0.206   0.022
    1UNL    H25   52  -0.134  -0.093   0.311
    1UNL    H26   53  -0.300  -0.051   0.306
   0.00000   0.00000   0.00000   0.00000   0.00000   0.00000   0.00000   0.00000   0.00000
Generated with MDTraj, t= 63.0
 53
    1UNL     C1    1   0.081  -0.128  -0.318
    1UNL     O1    2   0.046  -0.140  -0.179
    1UNL     C2    3   0.031  -0.022  -0.112
    1UNL     O2    4   0.053   0.087  -0.160
    1UNL     C3    5  -0.017  -0.025   0.037
    1UNL     C4    6  -0.070  -0.170   0.079
    1UNL     C5    7  -0.215  -0.165   0.129
    1UNL     C6    8  -0.301  -0.106   0.008
    1UNL     C7    9  -0.272   0.048  -0.024
    1UNL     C8   10  -0.293   0.079  -0.173
    1UNL     C9   11  -0.441   0.080  -0.220
    1UNL     O3   12  -0.211   0.193  -0.216
    1UNL    C10   13  -0.137   0.081   0.055
    1UNL     N1   14  -0.164   0.086   0.204
    1UNL    C11   15  -0.057   0.130   0.291
    1UNL    C12   16   0.066   0.045   0.272
    1UNL    C13   17   0.104   0.014   0.124
    1UNL     N2   18   0.178   0.131   0.068
    1UNL    C14   19   0.306   0.094   0.014
    1UNL    C15   20   0.398   0.166  -0.060
    1UNL    C16   21   0.511   0.097  -0.108
    1UNL    C17   22   0.534  -0.031  -0.067
    1UNL    C18   23   0.444  -0.103   0.002
    1UNL    C19   24   0.328  -0.041   0.045
    1UNL    C20   25   0.214  -0.093   0.119
    1UNL     O4   26   0.216  -0.205   0.170
    1UNL    C21   27  -0.219  -0.055   0.244
    1UNL     H1   28   0.145  -0.215  -0.341
    1UNL     H2   29  -0.002  -0.123  -0.386
    1UNL     H3   30   0.147  -0.041  -0.329
    1UNL     H4   31  -0.017  -0.202   0.172
    1UNL     H5   32  -0.049  -0.238   0.001
    1UNL     H6   33  -0.249  -0.265   0.168
    1UNL     H7   34  -0.418  -0.116   0.020
    1UNL     H8   35  -0.277  -0.163  -0.081
    1UNL     H9   36  -0.348   0.112   0.032
    1UNL    H10   37  -0.240   0.000  -0.229
    1UNL    H11   38  -0.486  -0.012  -0.188
    1UNL    H12   39  -0.496   0.161  -0.183
    1UNL    H13   40  -0.453   0.086  -0.327
    1UNL    H14   41  -0.116   0.176  -0.204
    1UNL    H15   42  -0.098   0.177   0.026
    1UNL    H16   43  -0.032   0.230   0.264
    1UNL    H17   44  -0.100   0.124   0.393
    1UNL    H18   45   0.072  -0.060   0.326
    1UNL    H19   46   0.156   0.088   0.314
    1UNL    H20   47   0.127   0.211   0.029
    1UNL    H21   48   0.376   0.265  -0.087
    1UNL    H22   49   0.591   0.148  -0.164
    1UNL    H23   50   0.625  -0.079  -0.112
    1UNL    H24   51   0.451  -0.213   0.020
    1UNL    H25   52  -0.167  -0.082   0.334
    1UNL    H26   53  -0.324  -0.044   0.285
   0.00000   0.00000   0.00000   0.00000   0.00000   0.00000   0.00000   0.00000   0.00000
Generated with MDTraj, t= 64.0
 53
    1UNL     C1    1   0.073  -0.122  -0.312
    1UNL     O1    2   0.028  -0.140  -0.181
    1UNL     C2    3   0.027  -0.020  -0.110
    1UNL     O2    4   0.050   0.090  -0.154
    1UNL     C3    5  -0.019  -0.025   0.038
    1UNL     C4    6  -0.072  -0.164   0.077
    1UNL     C5    7  -0.221  -0.154   0.131
    1UNL     C6    8  -0.306  -0.100   0.016
    1UNL     C7    9  -0.268   0.049  -0.015
    1UNL     C8   10  -0.250   0.070  -0.167
    1UNL     C9   11  -0.381   0.055  -0.255
    1UNL     O3   12  -0.193   0.199  -0.192
    1UNL    C10   13  -0.142   0.084   0.065
    1UNL     N1   14  -0.171   0.078   0.207
    1UNL    C11   15  -0.057   0.130   0.287
    1UNL    C12   16   0.067   0.042   0.274
    1UNL    C13   17   0.107   0.014   0.126
    1UNL     N2   18   0.173   0.129   0.068
    1UNL    C14   19   0.299   0.098   0.015
    1UNL    C15   20   0.379   0.164  -0.078
    1UNL    C16   21   0.493   0.102  -0.121
    1UNL    C17   22   0.522  -0.034  -0.089
    1UNL    C18   23   0.443  -0.100   0.002
    1UNL    C19   24   0.328  -0.036   0.048
    1UNL    C20   25   0.211  -0.099   0.116
    1UNL     O4   26   0.205  -0.203   0.176
    1UNL    C21   27  -0.220  -0.061   0.253
    1UNL     H1   28   0.055  -0.220  -0.356
    1UNL     H2   29   0.018  -0.040  -0.358
    1UNL     H3   30   0.184  -0.109  -0.312
    1UNL     H4   31  -0.010  -0.206   0.149
    1UNL     H5   32  -0.075  -0.230  -0.010
    1UNL     H6   33  -0.237  -0.258   0.174
    1UNL     H7   34  -0.422  -0.115   0.013
    1UNL     H8   35  -0.271  -0.149  -0.075
    1UNL     H9   36  -0.355   0.110   0.021
    1UNL    H10   37  -0.177   0.003  -0.208
    1UNL    H11   38  -0.409  -0.048  -0.250
    1UNL    H12   39  -0.462   0.118  -0.226
    1UNL    H13   40  -0.368   0.079  -0.360
    1UNL    H14   41  -0.095   0.193  -0.164
    1UNL    H15   42  -0.106   0.181   0.035
    1UNL    H16   43  -0.039   0.227   0.248
    1UNL    H17   44  -0.092   0.128   0.392
    1UNL    H18   45   0.066  -0.057   0.326
    1UNL    H19   46   0.161   0.080   0.318
    1UNL    H20   47   0.113   0.198   0.014
    1UNL    H21   48   0.360   0.267  -0.110
    1UNL    H22   49   0.555   0.160  -0.184
    1UNL    H23   50   0.610  -0.078  -0.121
    1UNL    H24   51   0.475  -0.195   0.028
    1UNL    H25   52  -0.159  -0.097   0.334
    1UNL    H26   53  -0.324  -0.054   0.302
   0.00000   0.00000   0.00000   0.00000   0.00000   0.00000   0.00000   0.00000   0.00000
Generated with MDTraj, t= 65.0
 53
    1UNL     C1    1   0.073  -0.133  -0.304
    1UNL     O1    2   0.010  -0.140  -0.175
    1UNL     C2    3   0.025  -0.017  -0.105
    1UNL     O2    4   0.063   0.089  -0.150
    1UNL     C3    5  -0.021  -0.016   0.041
    1UNL     C4    6  -0.067  -0.161   0.087
    1UNL     C5    7  -0.216  -0.152   0.124
    1UNL     C6    8  -0.299  -0.104   0.002
    1UNL     C7    9  -0.268   0.048  -0.020
    1UNL     C8   10  -0.240   0.064  -0.169
    1UNL     C9   11  -0.378   0.052  -0.236
    1UNL     O3   12  -0.184   0.184  -0.208
    1UNL    C10   13  -0.139   0.080   0.066
    1UNL     N1   14  -0.173   0.079   0.211
    1UNL    C11   15  -0.057   0.129   0.302
    1UNL    C12   16   0.064   0.035   0.274
    1UNL    C13   17   0.110   0.017   0.131
    1UNL     N2   18   0.182   0.139   0.073
    1UNL    C14   19   0.301   0.098   0.018
    1UNL    C15   20   0.389   0.173  -0.061
    1UNL    C16   21   0.495   0.109  -0.114
    1UNL    C17   22   0.513  -0.027  -0.106
    1UNL    C18   23   0.426  -0.106  -0.028
    1UNL    C19   24   0.321  -0.042   0.037
    1UNL    C20   25   0.212  -0.095   0.115
    1UNL     O4   26   0.202  -0.196   0.174
    1UNL    C21   27  -0.234  -0.053   0.240
    1UNL     H1   28   0.043  -0.224  -0.350
    1UNL     H2   29   0.039  -0.038  -0.347
    1UNL     H3   30   0.186  -0.144  -0.299
    1UNL     H4   31  -0.011  -0.194   0.163
    1UNL     H5   32  -0.062  -0.230   0.001
    1UNL     H6   33  -0.250  -0.259   0.154
    1UNL     H7   34  -0.410  -0.115   0.020
    1UNL     H8   35  -0.287  -0.155  -0.097
    1UNL     H9   36  -0.352   0.113   0.015
    1UNL    H10   37  -0.175  -0.010  -0.207
    1UNL    H11   38  -0.416  -0.045  -0.226
    1UNL    H12   39  -0.453   0.124  -0.202
    1UNL    H13   40  -0.369   0.075  -0.341
    1UNL    H14   41  -0.096   0.186  -0.176
    1UNL    H15   42  -0.110   0.182   0.047
    1UNL    H16   43  -0.026   0.222   0.260
    1UNL    H17   44  -0.084   0.125   0.411
    1UNL    H18   45   0.047  -0.063   0.308
    1UNL    H19   46   0.152   0.058   0.339
    1UNL    H20   47   0.119   0.207   0.023
    1UNL    H21   48   0.364   0.276  -0.063
    1UNL    H22   49   0.570   0.168  -0.173
    1UNL    H23   50   0.607  -0.068  -0.148
    1UNL    H24   51   0.435  -0.216  -0.017
    1UNL    H25   52  -0.175  -0.096   0.326
    1UNL    H26   53  -0.344  -0.053   0.272
   0.00000   0.00000   0.00000   0.00000   0.00000   0.00000   0.00000   0.00000   0.00000
Generated with MDTraj, t= 66.0
 53
    1UNL     C1    1   0.068  -0.136  -0.314
    1UNL     O1    2   0.029  -0.150  -0.176
    1UNL     C2    3   0.034  -0.032  -0.109
    1UNL     O2    4   0.075   0.073  -0.150
    1UNL     C3    5  -0.014  -0.027   0.045
    1UNL     C4    6  -0.069  -0.169   0.075
    1UNL     C5    7  -0.215  -0.152   0.128
    1UNL     C6    8  -0.307  -0.099   0.010
    1UNL     C7    9  -0.266   0.047  -0.023
    1UNL     C8   10  -0.269   0.072  -0.177
    1UNL     C9   11  -0.416   0.080  -0.223
    1UNL     O3   12  -0.182   0.174  -0.215
    1UNL    C10   13  -0.133   0.083   0.055
    1UNL     N1   14  -0.169   0.084   0.201
    1UNL    C11   15  -0.052   0.136   0.281
    1UNL    C12   16   0.060   0.033   0.286
    1UNL    C13   17   0.107   0.018   0.135
    1UNL     N2   18   0.174   0.137   0.086
    1UNL    C14   19   0.303   0.101   0.039
    1UNL    C15   20   0.389   0.173  -0.049
    1UNL    C16   21   0.491   0.117  -0.121
    1UNL    C17   22   0.523  -0.019  -0.100
    1UNL    C18   23   0.431  -0.097  -0.025
    1UNL    C19   24   0.330  -0.038   0.049
    1UNL    C20   25   0.213  -0.091   0.124
    1UNL     O4   26   0.206  -0.209   0.161
    1UNL    C21   27  -0.228  -0.049   0.242
    1UNL     H1   28   0.092  -0.234  -0.342
    1UNL     H2   29  -0.018  -0.086  -0.362
    1UNL     H3   30   0.162  -0.074  -0.330
    1UNL     H4   31  -0.013  -0.209   0.159
    1UNL     H5   32  -0.053  -0.234  -0.010
    1UNL     H6   33  -0.256  -0.255   0.160
    1UNL     H7   34  -0.415  -0.099   0.032
    1UNL     H8   35  -0.311  -0.160  -0.088
    1UNL     H9   36  -0.343   0.114   0.021
    1UNL    H10   37  -0.227  -0.016  -0.216
    1UNL    H11   38  -0.475  -0.005  -0.198
    1UNL    H12   39  -0.466   0.174  -0.196
    1UNL    H13   40  -0.411   0.087  -0.329
    1UNL    H14   41  -0.082   0.147  -0.216
    1UNL    H15   42  -0.103   0.177   0.010
    1UNL    H16   43  -0.009   0.215   0.222
    1UNL    H17   44  -0.085   0.152   0.386
    1UNL    H18   45   0.031  -0.052   0.333
    1UNL    H19   46   0.145   0.064   0.357
    1UNL    H20   47   0.111   0.191   0.023
    1UNL    H21   48   0.358   0.276  -0.070
    1UNL    H22   49   0.554   0.177  -0.178
    1UNL    H23   50   0.601  -0.065  -0.156
    1UNL    H24   51   0.438  -0.204  -0.029
    1UNL    H25   52  -0.182  -0.093   0.340
    1UNL    H26   53  -0.339  -0.040   0.257
   0.00000   0.00000   0.00000   0.00000   0.00000   0.00000   0.00000   0.00000   0.00000
Generated with MDTraj, t= 67.0
 53
    1UNL     C1    1   0.088  -0.143  -0.305
    1UNL     O1    2   0.026  -0.160  -0.180
    1UNL     C2    3   0.017  -0.039  -0.110
    1UNL     O2    4   0.049   0.065  -0.163
    1UNL     C3    5  -0.020  -0.031   0.035
    1UNL     C4    6  -0.079  -0.169   0.077
    1UNL     C5    7  -0.226  -0.158   0.126
    1UNL     C6    8  -0.308  -0.094   0.017
    1UNL     C7    9  -0.267   0.051  -0.009
    1UNL     C8   10  -0.279   0.080  -0.168
    1UNL     C9   11  -0.413   0.095  -0.240
    1UNL     O3   12  -0.200   0.193  -0.203
    1UNL    C10   13  -0.127   0.074   0.062
    1UNL     N1   14  -0.161   0.079   0.206
    1UNL    C11   15  -0.052   0.130   0.288
    1UNL    C12   16   0.068   0.034   0.270
    1UNL    C13   17   0.107   0.010   0.127
    1UNL     N2   18   0.176   0.133   0.058
    1UNL    C14   19   0.296   0.096   0.002
    1UNL    C15   20   0.384   0.175  -0.080
    1UNL    C16   21   0.510   0.122  -0.097
    1UNL    C17   22   0.541  -0.012  -0.059
    1UNL    C18   23   0.447  -0.089   0.007
    1UNL    C19   24   0.326  -0.036   0.035
    1UNL    C20   25   0.216  -0.091   0.117
    1UNL     O4   26   0.217  -0.208   0.162
    1UNL    C21   27  -0.227  -0.054   0.248
    1UNL     H1   28   0.086  -0.240  -0.343
    1UNL     H2   29   0.030  -0.070  -0.363
    1UNL     H3   30   0.195  -0.110  -0.287
    1UNL     H4   31  -0.012  -0.207   0.167
    1UNL     H5   32  -0.071  -0.244   0.003
    1UNL     H6   33  -0.267  -0.257   0.173
    1UNL     H7   34  -0.414  -0.099   0.031
    1UNL     H8   35  -0.294  -0.151  -0.084
    1UNL     H9   36  -0.335   0.120   0.042
    1UNL    H10   37  -0.230  -0.005  -0.209
    1UNL    H11   38  -0.480   0.010  -0.235
    1UNL    H12   39  -0.458   0.187  -0.202
    1UNL    H13   40  -0.391   0.116  -0.341
    1UNL    H14   41  -0.104   0.168  -0.199
    1UNL    H15   42  -0.094   0.175   0.040
    1UNL    H16   43  -0.015   0.221   0.244
    1UNL    H17   44  -0.082   0.126   0.396
    1UNL    H18   45   0.050  -0.056   0.317
    1UNL    H19   46   0.157   0.074   0.327
    1UNL    H20   47   0.117   0.205   0.005
    1UNL    H21   48   0.359   0.274  -0.111
    1UNL    H22   49   0.586   0.181  -0.154
    1UNL    H23   50   0.635  -0.063  -0.080
    1UNL    H24   51   0.465  -0.194   0.019
    1UNL    H25   52  -0.172  -0.106   0.339
    1UNL    H26   53  -0.333  -0.032   0.276
   0.00000   0.00000   0.00000   0.00000   0.00000   0.00000   0.00000   0.00000   0.00000
Generated with MDTraj, t= 68.0
 53
    1UNL     C1    1   0.085  -0.166  -0.305
    1UNL     O1    2   0.024  -0.159  -0.177
    1UNL     C2    3   0.008  -0.034  -0.124
    1UNL     O2    4   0.026   0.069  -0.187
    1UNL     C3    5  -0.025  -0.031   0.026
    1UNL     C4    6  -0.071  -0.167   0.080
    1UNL     C5    7  -0.216  -0.152   0.125
    1UNL     C6    8  -0.305  -0.100   0.015
    1UNL     C7    9  -0.274   0.047  -0.011
    1UNL     C8   10  -0.285   0.081  -0.161
    1UNL     C9   11  -0.419   0.083  -0.228
    1UNL     O3   12  -0.215   0.206  -0.184
    1UNL    C10   13  -0.135   0.079   0.061
    1UNL     N1   14  -0.159   0.075   0.206
    1UNL    C11   15  -0.048   0.134   0.287
    1UNL    C12   16   0.078   0.047   0.261
    1UNL    C13   17   0.108   0.015   0.113
    1UNL     N2   18   0.175   0.128   0.049
    1UNL    C14   19   0.305   0.102   0.008
    1UNL    C15   20   0.402   0.174  -0.065
    1UNL    C16   21   0.527   0.114  -0.079
    1UNL    C17   22   0.554  -0.018  -0.045
    1UNL    C18   23   0.455  -0.091   0.019
    1UNL    C19   24   0.339  -0.027   0.055
    1UNL    C20   25   0.219  -0.091   0.106
    1UNL     O4   26   0.197  -0.204   0.138
    1UNL    C21   27  -0.223  -0.052   0.243
    1UNL     H1   28   0.063  -0.260  -0.345
    1UNL     H2   29   0.039  -0.089  -0.367
    1UNL     H3   30   0.195  -0.139  -0.285
    1UNL     H4   31   0.003  -0.212   0.159
    1UNL     H5   32  -0.069  -0.241   0.001
    1UNL     H6   33  -0.250  -0.252   0.173
    1UNL     H7   34  -0.411  -0.113   0.033
    1UNL     H8   35  -0.281  -0.163  -0.079
    1UNL     H9   36  -0.349   0.113   0.033
    1UNL    H10   37  -0.228   0.005  -0.217
    1UNL    H11   38  -0.458  -0.019  -0.233
    1UNL    H12   39  -0.482   0.142  -0.164
    1UNL    H13   40  -0.417   0.121  -0.327
    1UNL    H14   41  -0.116   0.198  -0.171
    1UNL    H15   42  -0.101   0.177   0.034
    1UNL    H16   43  -0.032   0.227   0.233
    1UNL    H17   44  -0.069   0.138   0.397
    1UNL    H18   45   0.077  -0.048   0.317
    1UNL    H19   46   0.173   0.085   0.308
    1UNL    H20   47   0.105   0.183  -0.012
    1UNL    H21   48   0.372   0.276  -0.085
    1UNL    H22   49   0.610   0.161  -0.121
    1UNL    H23   50   0.642  -0.070  -0.086
    1UNL    H24   51   0.461  -0.194   0.056
    1UNL    H25   52  -0.167  -0.091   0.337
    1UNL    H26   53  -0.336  -0.035   0.260
   0.00000   0.00000   0.00000   0.00000   0.00000   0.00000   0.00000   0.00000   0.00000
Generated with MDTraj, t= 69.0
 53
    1UNL     C1    1   0.056  -0.141  -0.324
    1UNL     O1    2   0.027  -0.146  -0.185
    1UNL     C2    3   0.020  -0.026  -0.120
    1UNL     O2    4   0.035   0.082  -0.176
    1UNL     C3    5  -0.022  -0.023   0.033
    1UNL     C4    6  -0.077  -0.162   0.074
    1UNL     C5    7  -0.223  -0.149   0.132
    1UNL     C6    8  -0.324  -0.103   0.017
    1UNL     C7    9  -0.280   0.042  -0.013
    1UNL     C8   10  -0.288   0.067  -0.161
    1UNL     C9   11  -0.436   0.068  -0.205
    1UNL     O3   12  -0.211   0.181  -0.207
    1UNL    C10   13  -0.140   0.077   0.052
    1UNL     N1   14  -0.155   0.083   0.201
    1UNL    C11   15  -0.039   0.146   0.270
    1UNL    C12   16   0.075   0.051   0.264
    1UNL    C13   17   0.111   0.015   0.109
    1UNL     N2   18   0.181   0.128   0.046
    1UNL    C14   19   0.309   0.088   0.006
    1UNL    C15   20   0.411   0.171  -0.041
    1UNL    C16   21   0.539   0.124  -0.056
    1UNL    C17   22   0.562  -0.015  -0.035
    1UNL    C18   23   0.462  -0.101   0.009
    1UNL    C19   24   0.339  -0.044   0.044
    1UNL    C20   25   0.219  -0.104   0.105
    1UNL     O4   26   0.200  -0.213   0.144
    1UNL    C21   27  -0.218  -0.045   0.250
    1UNL     H1   28   0.083  -0.233  -0.364
    1UNL     H2   29  -0.036  -0.116  -0.376
    1UNL     H3   30   0.126  -0.049  -0.329
    1UNL     H4   31  -0.011  -0.217   0.144
    1UNL     H5   32  -0.070  -0.229  -0.018
    1UNL     H6   33  -0.256  -0.255   0.167
    1UNL     H7   34  -0.428  -0.104   0.051
    1UNL     H8   35  -0.324  -0.174  -0.071
    1UNL     H9   36  -0.353   0.107   0.035
    1UNL    H10   37  -0.239  -0.022  -0.212
    1UNL    H11   38  -0.485  -0.024  -0.174
    1UNL    H12   39  -0.486   0.146  -0.155
    1UNL    H13   40  -0.455   0.070  -0.312
    1UNL    H14   41  -0.112   0.159  -0.194
    1UNL    H15   42  -0.106   0.175   0.020
    1UNL    H16   43  -0.009   0.239   0.221
    1UNL    H17   44  -0.080   0.160   0.374
    1UNL    H18   45   0.080  -0.049   0.324
    1UNL    H19   46   0.162   0.095   0.319
    1UNL    H20   47   0.127   0.172  -0.033
    1UNL    H21   48   0.397   0.276  -0.048
    1UNL    H22   49   0.612   0.201  -0.088
    1UNL    H23   50   0.657  -0.055  -0.049
    1UNL    H24   51   0.481  -0.201   0.033
    1UNL    H25   52  -0.157  -0.085   0.337
    1UNL    H26   53  -0.330  -0.013   0.271
   0.00000   0.00000   0.00000   0.00000   0.00000   0.00000   0.00000   0.00000   0.00000
Generated with MDTraj, t= 70.0
 53
    1UNL     C1    1   0.045  -0.121  -0.333
    1UNL     O1    2  -0.002  -0.129  -0.203
    1UNL     C2    3   0.011  -0.021  -0.123
    1UNL     O2    4   0.038   0.085  -0.174
    1UNL     C3    5  -0.023  -0.019   0.026
    1UNL     C4    6  -0.081  -0.164   0.066
    1UNL     C5    7  -0.220  -0.147   0.133
    1UNL     C6    8  -0.322  -0.093   0.029
    1UNL     C7    9  -0.270   0.053  -0.014
    1UNL     C8   10  -0.277   0.047  -0.165
    1UNL     C9   11  -0.424   0.046  -0.207
    1UNL     O3   12  -0.223   0.162  -0.222
    1UNL    C10   13  -0.132   0.080   0.055
    1UNL     N1   14  -0.154   0.088   0.205
    1UNL    C11   15  -0.030   0.136   0.274
    1UNL    C12   16   0.087   0.049   0.259
    1UNL    C13   17   0.107   0.013   0.110
    1UNL     N2   18   0.180   0.130   0.055
    1UNL    C14   19   0.316   0.097   0.028
    1UNL    C15   20   0.412   0.169  -0.039
    1UNL    C16   21   0.538   0.110  -0.068
    1UNL    C17   22   0.560  -0.022  -0.031
    1UNL    C18   23   0.462  -0.094   0.034
    1UNL    C19   24   0.336  -0.036   0.059
    1UNL    C20   25   0.211  -0.099   0.104
    1UNL     O4   26   0.201  -0.216   0.138
    1UNL    C21   27  -0.211  -0.044   0.248
    1UNL     H1   28   0.034  -0.212  -0.379
    1UNL     H2   29  -0.027  -0.056  -0.384
    1UNL     H3   30   0.148  -0.071  -0.326
    1UNL     H4   31  -0.013  -0.212   0.129
    1UNL     H5   32  -0.086  -0.239  -0.025
    1UNL     H6   33  -0.263  -0.248   0.170
    1UNL     H7   34  -0.425  -0.103   0.070
    1UNL     H8   35  -0.314  -0.158  -0.055
    1UNL     H9   36  -0.341   0.124   0.022
    1UNL    H10   37  -0.217  -0.042  -0.206
    1UNL    H11   38  -0.478  -0.038  -0.168
    1UNL    H12   39  -0.470   0.133  -0.169
    1UNL    H13   40  -0.441   0.035  -0.315
    1UNL    H14   41  -0.128   0.157  -0.210
    1UNL    H15   42  -0.091   0.177   0.029
    1UNL    H16   43  -0.012   0.230   0.224
    1UNL    H17   44  -0.055   0.151   0.384
    1UNL    H18   45   0.070  -0.050   0.320
    1UNL    H19   46   0.190   0.061   0.300
    1UNL    H20   47   0.122   0.193  -0.000
    1UNL    H21   48   0.385   0.264  -0.084
    1UNL    H22   49   0.609   0.168  -0.122
    1UNL    H23   50   0.667  -0.062  -0.041
    1UNL    H24   51   0.472  -0.206   0.044
    1UNL    H25   52  -0.145  -0.089   0.328
    1UNL    H26   53  -0.323  -0.024   0.284
   0.00000   0.00000   0.00000   0.00000   0.00000   0.00000   0.00000   0.00000   0.00000
Generated with MDTraj, t= 71.0
 53
    1UNL     C1    1   0.025  -0.120  -0.326
    1UNL     O1    2  -0.013  -0.131  -0.191
    1UNL     C2    3   0.009  -0.018  -0.118
    1UNL     O2    4   0.052   0.084  -0.168
    1UNL     C3    5  -0.017  -0.024   0.031
    1UNL     C4    6  -0.075  -0.161   0.078
    1UNL     C5    7  -0.221  -0.153   0.138
    1UNL     C6    8  -0.312  -0.107   0.030
    1UNL     C7    9  -0.277   0.038  -0.011
    1UNL     C8   10  -0.274   0.053  -0.165
    1UNL     C9   11  -0.408   0.032  -0.243
    1UNL     O3   12  -0.213   0.181  -0.196
    1UNL    C10   13  -0.143   0.078   0.055
    1UNL     N1   14  -0.157   0.084   0.202
    1UNL    C11   15  -0.037   0.144   0.273
    1UNL    C12   16   0.081   0.047   0.258
    1UNL    C13   17   0.113   0.023   0.112
    1UNL     N2   18   0.192   0.140   0.060
    1UNL    C14   19   0.316   0.099   0.012
    1UNL    C15   20   0.417   0.170  -0.043
    1UNL    C16   21   0.537   0.102  -0.070
    1UNL    C17   22   0.554  -0.027  -0.021
    1UNL    C18   23   0.450  -0.101   0.025
    1UNL    C19   24   0.326  -0.040   0.030
    1UNL    C20   25   0.213  -0.091   0.091
    1UNL     O4   26   0.203  -0.204   0.139
    1UNL    C21   27  -0.217  -0.049   0.253
    1UNL     H1   28  -0.024  -0.181  -0.392
    1UNL     H2   29  -0.015  -0.020  -0.345
    1UNL     H3   30   0.139  -0.124  -0.334
    1UNL     H4   31  -0.008  -0.212   0.140
    1UNL     H5   32  -0.085  -0.223  -0.019
    1UNL     H6   33  -0.256  -0.248   0.190
    1UNL     H7   34  -0.418  -0.104   0.068
    1UNL     H8   35  -0.295  -0.177  -0.045
    1UNL     H9   36  -0.358   0.099   0.023
    1UNL    H10   37  -0.200  -0.020  -0.215
    1UNL    H11   38  -0.445  -0.067  -0.241
    1UNL    H12   39  -0.479   0.105  -0.207
    1UNL    H13   40  -0.391   0.050  -0.350
    1UNL    H14   41  -0.110   0.165  -0.194
    1UNL    H15   42  -0.119   0.176   0.012
    1UNL    H16   43  -0.011   0.238   0.225
    1UNL    H17   44  -0.064   0.150   0.383
    1UNL    H18   45   0.088  -0.060   0.308
    1UNL    H19   46   0.171   0.087   0.309
    1UNL    H20   47   0.148   0.206   0.004
    1UNL    H21   48   0.393   0.263  -0.093
    1UNL    H22   49   0.628   0.157  -0.098
    1UNL    H23   50   0.647  -0.068  -0.022
    1UNL    H24   51   0.450  -0.199   0.059
    1UNL    H25   52  -0.147  -0.086   0.334
    1UNL    H26   53  -0.323  -0.021   0.292
   0.00000   0.00000   0.00000   0.00000   0.00000   0.00000   0.00000   0.00000   0.00000
Generated with MDTraj, t= 72.0
 53
    1UNL     C1    1   0.027  -0.136  -0.320
    1UNL     O1    2  -0.010  -0.146  -0.188
    1UNL     C2    3   0.013  -0.029  -0.119
    1UNL     O2    4   0.048   0.075  -0.169
    1UNL     C3    5  -0.017  -0.027   0.029
    1UNL     C4    6  -0.069  -0.168   0.078
    1UNL     C5    7  -0.217  -0.160   0.127
    1UNL     C6    8  -0.316  -0.104   0.011
    1UNL     C7    9  -0.271   0.050  -0.021
    1UNL     C8   10  -0.278   0.073  -0.173
    1UNL     C9   11  -0.420   0.065  -0.229
    1UNL     O3   12  -0.209   0.189  -0.217
    1UNL    C10   13  -0.133   0.080   0.048
    1UNL     N1   14  -0.159   0.075   0.200
    1UNL    C11   15  -0.047   0.135   0.281
    1UNL    C12   16   0.087   0.058   0.265
    1UNL    C13   17   0.112   0.016   0.118
    1UNL     N2   18   0.181   0.135   0.073
    1UNL    C14   19   0.313   0.103   0.027
    1UNL    C15   20   0.413   0.172  -0.041
    1UNL    C16   21   0.527   0.109  -0.090
    1UNL    C17   22   0.552  -0.024  -0.052
    1UNL    C18   23   0.459  -0.095   0.014
    1UNL    C19   24   0.333  -0.037   0.044
    1UNL    C20   25   0.217  -0.094   0.115
    1UNL     O4   26   0.205  -0.203   0.167
    1UNL    C21   27  -0.210  -0.062   0.248
    1UNL     H1   28   0.036  -0.226  -0.368
    1UNL     H2   29  -0.055  -0.074  -0.362
    1UNL     H3   30   0.133  -0.093  -0.323
    1UNL     H4   31   0.000  -0.198   0.159
    1UNL     H5   32  -0.060  -0.230  -0.009
    1UNL     H6   33  -0.255  -0.253   0.176
    1UNL     H7   34  -0.418  -0.105   0.058
    1UNL     H8   35  -0.307  -0.168  -0.070
    1UNL     H9   36  -0.338   0.116   0.030
    1UNL    H10   37  -0.214  -0.007  -0.225
    1UNL    H11   38  -0.465  -0.029  -0.209
    1UNL    H12   39  -0.473   0.152  -0.186
    1UNL    H13   40  -0.414   0.069  -0.337
    1UNL    H14   41  -0.119   0.165  -0.230
    1UNL    H15   42  -0.101   0.181   0.024
    1UNL    H16   43  -0.030   0.234   0.238
    1UNL    H17   44  -0.073   0.127   0.392
    1UNL    H18   45   0.082  -0.037   0.331
    1UNL    H19   46   0.178   0.108   0.302
    1UNL    H20   47   0.114   0.192   0.027
    1UNL    H21   48   0.415   0.280  -0.048
    1UNL    H22   49   0.595   0.173  -0.143
    1UNL    H23   50   0.652  -0.074  -0.067
    1UNL    H24   51   0.478  -0.200   0.044
    1UNL    H25   52  -0.148  -0.099   0.337
    1UNL    H26   53  -0.313  -0.038   0.276
   0.00000   0.00000   0.00000   0.00000   0.00000   0.00000   0.00000   0.00000   0.00000
Generated with MDTraj, t= 73.0
 53
    1UNL     C1    1   0.063  -0.141  -0.320
    1UNL     O1    2   0.026  -0.155  -0.183
    1UNL     C2    3   0.031  -0.036  -0.115
    1UNL     O2    4   0.061   0.066  -0.170
    1UNL     C3    5  -0.020  -0.025   0.033
    1UNL     C4    6  -0.072  -0.169   0.088
    1UNL     C5    7  -0.221  -0.153   0.133
    1UNL     C6    8  -0.307  -0.110   0.012
    1UNL     C7    9  -0.269   0.037  -0.017
    1UNL     C8   10  -0.275   0.069  -0.172
    1UNL     C9   11  -0.417   0.110  -0.208
    1UNL     O3   12  -0.188   0.181  -0.206
    1UNL    C10   13  -0.136   0.073   0.055
    1UNL     N1   14  -0.164   0.083   0.200
    1UNL    C11   15  -0.049   0.137   0.282
    1UNL    C12   16   0.070   0.044   0.265
    1UNL    C13   17   0.109   0.010   0.116
    1UNL     N2   18   0.183   0.128   0.066
    1UNL    C14   19   0.298   0.092   0.006
    1UNL    C15   20   0.382   0.175  -0.068
    1UNL    C16   21   0.501   0.116  -0.098
    1UNL    C17   22   0.539  -0.009  -0.056
    1UNL    C18   23   0.453  -0.092   0.017
    1UNL    C19   24   0.330  -0.037   0.044
    1UNL    C20   25   0.214  -0.096   0.115
    1UNL     O4   26   0.201  -0.204   0.160
    1UNL    C21   27  -0.236  -0.046   0.241
    1UNL     H1   28   0.081  -0.229  -0.373
    1UNL     H2   29  -0.013  -0.076  -0.368
    1UNL     H3   30   0.168  -0.094  -0.317
    1UNL     H4   31  -0.008  -0.184   0.180
    1UNL     H5   32  -0.059  -0.240   0.017
    1UNL     H6   33  -0.266  -0.251   0.154
    1UNL     H7   34  -0.408  -0.120   0.051
    1UNL     H8   35  -0.287  -0.175  -0.071
    1UNL     H9   36  -0.338   0.102   0.030
    1UNL    H10   37  -0.227  -0.014  -0.231
    1UNL    H11   38  -0.489   0.032  -0.186
    1UNL    H12   39  -0.433   0.202  -0.148
    1UNL    H13   40  -0.430   0.132  -0.311
    1UNL    H14   41  -0.091   0.158  -0.182
    1UNL    H15   42  -0.099   0.168   0.016
    1UNL    H16   43  -0.015   0.236   0.249
    1UNL    H17   44  -0.080   0.118   0.390
    1UNL    H18   45   0.057  -0.045   0.332
    1UNL    H19   46   0.159   0.097   0.308
    1UNL    H20   47   0.137   0.214   0.042
    1UNL    H21   48   0.370   0.283  -0.070
    1UNL    H22   49   0.569   0.157  -0.173
    1UNL    H23   50   0.630  -0.040  -0.099
    1UNL    H24   51   0.482  -0.189   0.052
    1UNL    H25   52  -0.180  -0.086   0.331
    1UNL    H26   53  -0.336  -0.019   0.258
   0.00000   0.00000   0.00000   0.00000   0.00000   0.00000   0.00000   0.00000   0.00000
Generated with MDTraj, t= 74.0
 53
    1UNL     C1    1   0.104  -0.175  -0.282
    1UNL     O1    2   0.036  -0.158  -0.162
    1UNL     C2    3   0.020  -0.031  -0.115
    1UNL     O2    4   0.048   0.066  -0.179
    1UNL     C3    5  -0.022  -0.026   0.030
    1UNL     C4    6  -0.081  -0.162   0.078
    1UNL     C5    7  -0.230  -0.154   0.132
    1UNL     C6    8  -0.318  -0.093   0.014
    1UNL     C7    9  -0.271   0.052  -0.018
    1UNL     C8   10  -0.272   0.081  -0.170
    1UNL     C9   11  -0.409   0.103  -0.222
    1UNL     O3   12  -0.187   0.199  -0.196
    1UNL    C10   13  -0.138   0.082   0.053
    1UNL     N1   14  -0.174   0.071   0.204
    1UNL    C11   15  -0.056   0.118   0.282
    1UNL    C12   16   0.071   0.034   0.267
    1UNL    C13   17   0.104   0.015   0.118
    1UNL     N2   18   0.175   0.135   0.069
    1UNL    C14   19   0.300   0.099   0.012
    1UNL    C15   20   0.394   0.174  -0.060
    1UNL    C16   21   0.505   0.119  -0.110
    1UNL    C17   22   0.529  -0.015  -0.086
    1UNL    C18   23   0.446  -0.086  -0.002
    1UNL    C19   24   0.327  -0.037   0.039
    1UNL    C20   25   0.217  -0.092   0.115
    1UNL     O4   26   0.220  -0.203   0.165
    1UNL    C21   27  -0.236  -0.060   0.247
    1UNL     H1   28   0.095  -0.271  -0.322
    1UNL     H2   29   0.076  -0.100  -0.358
    1UNL     H3   30   0.213  -0.167  -0.249
    1UNL     H4   31  -0.016  -0.205   0.158
    1UNL     H5   32  -0.073  -0.216  -0.010
    1UNL     H6   33  -0.262  -0.255   0.157
    1UNL     H7   34  -0.421  -0.098   0.033
    1UNL     H8   35  -0.288  -0.156  -0.070
    1UNL     H9   36  -0.344   0.118   0.020
    1UNL    H10   37  -0.220   0.003  -0.224
    1UNL    H11   38  -0.469   0.012  -0.207
    1UNL    H12   39  -0.452   0.187  -0.166
    1UNL    H13   40  -0.421   0.125  -0.326
    1UNL    H14   41  -0.097   0.166  -0.193
    1UNL    H15   42  -0.098   0.182   0.033
    1UNL    H16   43  -0.028   0.208   0.226
    1UNL    H17   44  -0.078   0.133   0.392
    1UNL    H18   45   0.067  -0.069   0.298
    1UNL    H19   46   0.160   0.076   0.327
    1UNL    H20   47   0.109   0.185   0.012
    1UNL    H21   48   0.371   0.277  -0.078
    1UNL    H22   49   0.567   0.173  -0.178
    1UNL    H23   50   0.587  -0.076  -0.156
    1UNL    H24   51   0.478  -0.182   0.033
    1UNL    H25   52  -0.187  -0.095   0.336
    1UNL    H26   53  -0.337  -0.038   0.265
   0.00000   0.00000   0.00000   0.00000   0.00000   0.00000   0.00000   0.00000   0.00000
Generated with MDTraj, t= 75.0
 53
    1UNL     C1    1   0.112  -0.149  -0.281
    1UNL     O1    2   0.055  -0.156  -0.156
    1UNL     C2    3   0.028  -0.031  -0.105
    1UNL     O2    4   0.048   0.071  -0.165
    1UNL     C3    5  -0.018  -0.034   0.041
    1UNL     C4    6  -0.076  -0.172   0.098
    1UNL     C5    7  -0.227  -0.154   0.131
    1UNL     C6    8  -0.308  -0.098   0.008
    1UNL     C7    9  -0.261   0.050  -0.020
    1UNL     C8   10  -0.260   0.085  -0.172
    1UNL     C9   11  -0.400   0.082  -0.232
    1UNL     O3   12  -0.192   0.212  -0.211
    1UNL    C10   13  -0.130   0.075   0.063
    1UNL     N1   14  -0.161   0.085   0.205
    1UNL    C11   15  -0.047   0.133   0.281
    1UNL    C12   16   0.064   0.033   0.277
    1UNL    C13   17   0.105   0.008   0.132
    1UNL     N2   18   0.163   0.131   0.062
    1UNL    C14   19   0.286   0.098   0.017
    1UNL    C15   20   0.380   0.174  -0.058
    1UNL    C16   21   0.491   0.117  -0.114
    1UNL    C17   22   0.515  -0.015  -0.088
    1UNL    C18   23   0.429  -0.098  -0.020
    1UNL    C19   24   0.314  -0.042   0.026
    1UNL    C20   25   0.209  -0.096   0.108
    1UNL     O4   26   0.202  -0.214   0.145
    1UNL    C21   27  -0.229  -0.045   0.251
    1UNL     H1   28   0.135  -0.244  -0.322
    1UNL     H2   29   0.053  -0.094  -0.353
    1UNL     H3   30   0.210  -0.095  -0.260
    1UNL     H4   31  -0.014  -0.195   0.186
    1UNL     H5   32  -0.065  -0.253   0.022
    1UNL     H6   33  -0.265  -0.247   0.169
    1UNL     H7   34  -0.406  -0.096   0.034
    1UNL     H8   35  -0.296  -0.168  -0.078
    1UNL     H9   36  -0.342   0.110   0.012
    1UNL    H10   37  -0.202   0.009  -0.216
    1UNL    H11   38  -0.439  -0.022  -0.222
    1UNL    H12   39  -0.459   0.158  -0.185
    1UNL    H13   40  -0.404   0.103  -0.339
    1UNL    H14   41  -0.097   0.183  -0.206
    1UNL    H15   42  -0.078   0.170   0.050
    1UNL    H16   43  -0.017   0.229   0.240
    1UNL    H17   44  -0.086   0.132   0.387
    1UNL    H18   45   0.045  -0.055   0.333
    1UNL    H19   46   0.168   0.064   0.320
    1UNL    H20   47   0.112   0.186  -0.006
    1UNL    H21   48   0.358   0.279  -0.066
    1UNL    H22   49   0.562   0.176  -0.171
    1UNL    H23   50   0.611  -0.062  -0.114
    1UNL    H24   51   0.456  -0.206  -0.010
    1UNL    H25   52  -0.181  -0.079   0.334
    1UNL    H26   53  -0.324  -0.020   0.289
   0.00000   0.00000   0.00000   0.00000   0.00000   0.00000   0.00000   0.00000   0.00000
Generated with MDTraj, t= 76.0
 53
    1UNL     C1    1   0.101  -0.129  -0.302
    1UNL     O1    2   0.049  -0.140  -0.173
    1UNL     C2    3   0.038  -0.019  -0.112
    1UNL     O2    4   0.070   0.089  -0.156
    1UNL     C3    5  -0.018  -0.021   0.035
    1UNL     C4    6  -0.084  -0.160   0.079
    1UNL     C5    7  -0.228  -0.144   0.133
    1UNL     C6    8  -0.322  -0.082   0.028
    1UNL     C7    9  -0.270   0.051  -0.018
    1UNL     C8   10  -0.265   0.065  -0.170
    1UNL     C9   11  -0.404   0.057  -0.240
    1UNL     O3   12  -0.208   0.192  -0.216
    1UNL    C10   13  -0.137   0.078   0.055
    1UNL     N1   14  -0.169   0.076   0.210
    1UNL    C11   15  -0.051   0.122   0.294
    1UNL    C12   16   0.063   0.026   0.272
    1UNL    C13   17   0.101   0.009   0.123
    1UNL     N2   18   0.175   0.129   0.082
    1UNL    C14   19   0.307   0.098   0.024
    1UNL    C15   20   0.389   0.170  -0.068
    1UNL    C16   21   0.494   0.101  -0.125
    1UNL    C17   22   0.524  -0.032  -0.101
    1UNL    C18   23   0.435  -0.104  -0.016
    1UNL    C19   24   0.330  -0.037   0.042
    1UNL    C20   25   0.212  -0.091   0.122
    1UNL     O4   26   0.204  -0.202   0.168
    1UNL    C21   27  -0.232  -0.052   0.254
    1UNL     H1   28   0.148  -0.221  -0.336
    1UNL     H2   29   0.031  -0.101  -0.376
    1UNL     H3   30   0.179  -0.047  -0.301
    1UNL     H4   31  -0.021  -0.201   0.156
    1UNL     H5   32  -0.082  -0.235  -0.012
    1UNL     H6   33  -0.273  -0.236   0.164
    1UNL     H7   34  -0.419  -0.074   0.061
    1UNL     H8   35  -0.322  -0.151  -0.058
    1UNL     H9   36  -0.345   0.122   0.007
    1UNL    H10   37  -0.199  -0.011  -0.205
    1UNL    H11   38  -0.446  -0.043  -0.220
    1UNL    H12   39  -0.461   0.146  -0.222
    1UNL    H13   40  -0.380   0.058  -0.349
    1UNL    H14   41  -0.109   0.176  -0.192
    1UNL    H15   42  -0.099   0.179   0.035
    1UNL    H16   43  -0.019   0.216   0.253
    1UNL    H17   44  -0.079   0.130   0.402
    1UNL    H18   45   0.042  -0.073   0.296
    1UNL    H19   46   0.157   0.036   0.340
    1UNL    H20   47   0.109   0.175   0.021
    1UNL    H21   48   0.366   0.273  -0.089
    1UNL    H22   49   0.571   0.155  -0.176
    1UNL    H23   50   0.623  -0.062  -0.122
    1UNL    H24   51   0.447  -0.205   0.001
    1UNL    H25   52  -0.192  -0.087   0.341
    1UNL    H26   53  -0.331  -0.031   0.280
   0.00000   0.00000   0.00000   0.00000   0.00000   0.00000   0.00000   0.00000   0.00000
Generated with MDTraj, t= 77.0
 53
    1UNL     C1    1   0.083  -0.099  -0.317
    1UNL     O1    2   0.034  -0.122  -0.190
    1UNL     C2    3   0.025  -0.010  -0.114
    1UNL     O2    4   0.049   0.102  -0.154
    1UNL     C3    5  -0.015  -0.018   0.038
    1UNL     C4    6  -0.062  -0.160   0.078
    1UNL     C5    7  -0.205  -0.161   0.141
    1UNL     C6    8  -0.301  -0.112   0.024
    1UNL     C7    9  -0.270   0.039  -0.018
    1UNL     C8   10  -0.263   0.062  -0.179
    1UNL     C9   11  -0.406   0.058  -0.243
    1UNL     O3   12  -0.206   0.185  -0.214
    1UNL    C10   13  -0.138   0.080   0.060
    1UNL     N1   14  -0.172   0.078   0.207
    1UNL    C11   15  -0.060   0.140   0.282
    1UNL    C12   16   0.064   0.050   0.274
    1UNL    C13   17   0.113   0.019   0.122
    1UNL     N2   18   0.193   0.133   0.075
    1UNL    C14   19   0.302   0.087   0.010
    1UNL    C15   20   0.393   0.156  -0.067
    1UNL    C16   21   0.506   0.097  -0.104
    1UNL    C17   22   0.517  -0.044  -0.081
    1UNL    C18   23   0.427  -0.118  -0.009
    1UNL    C19   24   0.323  -0.048   0.048
    1UNL    C20   25   0.209  -0.100   0.124
    1UNL     O4   26   0.188  -0.201   0.178
    1UNL    C21   27  -0.218  -0.059   0.261
    1UNL     H1   28   0.061  -0.186  -0.381
    1UNL     H2   29   0.044  -0.014  -0.364
    1UNL     H3   30   0.194  -0.079  -0.320
    1UNL     H4   31   0.012  -0.203   0.142
    1UNL     H5   32  -0.048  -0.222  -0.023
    1UNL     H6   33  -0.233  -0.260   0.165
    1UNL     H7   34  -0.402  -0.115   0.060
    1UNL     H8   35  -0.308  -0.179  -0.062
    1UNL     H9   36  -0.354   0.097   0.012
    1UNL    H10   37  -0.194  -0.011  -0.221
    1UNL    H11   38  -0.441  -0.043  -0.216
    1UNL    H12   39  -0.468   0.142  -0.212
    1UNL    H13   40  -0.404   0.067  -0.354
    1UNL    H14   41  -0.114   0.171  -0.197
    1UNL    H15   42  -0.103   0.182   0.043
    1UNL    H16   43  -0.032   0.232   0.235
    1UNL    H17   44  -0.091   0.146   0.389
    1UNL    H18   45   0.059  -0.034   0.336
    1UNL    H19   46   0.152   0.105   0.324
    1UNL    H20   47   0.140   0.205   0.021
    1UNL    H21   48   0.368   0.254  -0.107
    1UNL    H22   49   0.580   0.159  -0.153
    1UNL    H23   50   0.602  -0.099  -0.130
    1UNL    H24   51   0.445  -0.226   0.013
    1UNL    H25   52  -0.150  -0.089   0.337
    1UNL    H26   53  -0.308  -0.058   0.308
   0.00000   0.00000   0.00000   0.00000   0.00000   0.00000   0.00000   0.00000   0.00000
Generated with MDTraj, t= 78.0
 53
    1UNL     C1    1   0.065  -0.095  -0.329
    1UNL     O1    2   0.015  -0.114  -0.195
    1UNL     C2    3   0.020  -0.002  -0.113
    1UNL     O2    4   0.044   0.109  -0.160
    1UNL     C3    5  -0.017  -0.015   0.032
    1UNL     C4    6  -0.061  -0.163   0.071
    1UNL     C5    7  -0.207  -0.164   0.129
    1UNL     C6    8  -0.303  -0.109   0.018
    1UNL     C7    9  -0.267   0.036  -0.015
    1UNL     C8   10  -0.270   0.063  -0.173
    1UNL     C9   11  -0.416   0.047  -0.224
    1UNL     O3   12  -0.220   0.196  -0.215
    1UNL    C10   13  -0.139   0.080   0.057
    1UNL     N1   14  -0.174   0.072   0.202
    1UNL    C11   15  -0.066   0.131   0.288
    1UNL    C12   16   0.070   0.061   0.272
    1UNL    C13   17   0.108   0.025   0.131
    1UNL     N2   18   0.188   0.136   0.062
    1UNL    C14   19   0.311   0.084   0.013
    1UNL    C15   20   0.404   0.144  -0.073
    1UNL    C16   21   0.525   0.081  -0.103
    1UNL    C17   22   0.543  -0.053  -0.067
    1UNL    C18   23   0.443  -0.118   0.005
    1UNL    C19   24   0.333  -0.045   0.064
    1UNL    C20   25   0.213  -0.089   0.133
    1UNL     O4   26   0.201  -0.193   0.190
    1UNL    C21   27  -0.216  -0.071   0.245
    1UNL     H1   28   0.063  -0.196  -0.379
    1UNL     H2   29   0.008  -0.030  -0.386
    1UNL     H3   30   0.167  -0.051  -0.337
    1UNL     H4   31   0.018  -0.205   0.142
    1UNL     H5   32  -0.045  -0.231  -0.019
    1UNL     H6   33  -0.235  -0.263   0.154
    1UNL     H7   34  -0.412  -0.129   0.044
    1UNL     H8   35  -0.293  -0.164  -0.073
    1UNL     H9   36  -0.352   0.095   0.015
    1UNL    H10   37  -0.195  -0.005  -0.220
    1UNL    H11   38  -0.445  -0.057  -0.226
    1UNL    H12   39  -0.495   0.114  -0.184
    1UNL    H13   40  -0.418   0.081  -0.331
    1UNL    H14   41  -0.117   0.191  -0.205
    1UNL    H15   42  -0.118   0.185   0.034
    1UNL    H16   43  -0.042   0.225   0.242
    1UNL    H17   44  -0.090   0.130   0.397
    1UNL    H18   45   0.056  -0.031   0.326
    1UNL    H19   46   0.162   0.108   0.320
    1UNL    H20   47   0.124   0.194  -0.002
    1UNL    H21   48   0.374   0.238  -0.116
    1UNL    H22   49   0.576   0.114  -0.193
    1UNL    H23   50   0.628  -0.102  -0.099
    1UNL    H24   51   0.440  -0.221   0.020
    1UNL    H25   52  -0.167  -0.112   0.334
    1UNL    H26   53  -0.314  -0.064   0.267
   0.00000   0.00000   0.00000   0.00000   0.00000   0.00000   0.00000   0.00000   0.00000
Generated with MDTraj, t= 79.0
 53
    1UNL     C1    1   0.050  -0.096  -0.336
    1UNL     O1    2   0.035  -0.119  -0.197
    1UNL     C2    3   0.027  -0.005  -0.122
    1UNL     O2    4   0.054   0.106  -0.169
    1UNL     C3    5  -0.016  -0.027   0.027
    1UNL     C4    6  -0.072  -0.168   0.063
    1UNL     C5    7  -0.215  -0.167   0.125
    1UNL     C6    8  -0.311  -0.109   0.021
    1UNL     C7    9  -0.275   0.038  -0.006
    1UNL     C8   10  -0.279   0.062  -0.165
    1UNL     C9   11  -0.416   0.062  -0.218
    1UNL     O3   12  -0.214   0.186  -0.195
    1UNL    C10   13  -0.139   0.071   0.064
    1UNL     N1   14  -0.166   0.072   0.202
    1UNL    C11   15  -0.061   0.143   0.282
    1UNL    C12   16   0.061   0.060   0.263
    1UNL    C13   17   0.103   0.021   0.116
    1UNL     N2   18   0.183   0.136   0.051
    1UNL    C14   19   0.311   0.086   0.007
    1UNL    C15   20   0.405   0.150  -0.073
    1UNL    C16   21   0.528   0.081  -0.094
    1UNL    C17   22   0.549  -0.048  -0.041
    1UNL    C18   23   0.445  -0.113   0.021
    1UNL    C19   24   0.331  -0.040   0.058
    1UNL    C20   25   0.214  -0.083   0.127
    1UNL     O4   26   0.203  -0.196   0.176
    1UNL    C21   27  -0.212  -0.066   0.243
    1UNL     H1   28   0.075  -0.196  -0.384
    1UNL     H2   29  -0.040  -0.065  -0.375
    1UNL     H3   30   0.118  -0.013  -0.366
    1UNL     H4   31  -0.002  -0.226   0.136
    1UNL     H5   32  -0.070  -0.234  -0.023
    1UNL     H6   33  -0.241  -0.261   0.167
    1UNL     H7   34  -0.419  -0.106   0.070
    1UNL     H8   35  -0.326  -0.174  -0.061
    1UNL     H9   36  -0.353   0.102   0.034
    1UNL    H10   37  -0.209  -0.015  -0.213
    1UNL    H11   38  -0.459  -0.033  -0.192
    1UNL    H12   39  -0.480   0.150  -0.190
    1UNL    H13   40  -0.415   0.070  -0.327
    1UNL    H14   41  -0.118   0.178  -0.183
    1UNL    H15   42  -0.112   0.172   0.031
    1UNL    H16   43  -0.037   0.240   0.241
    1UNL    H17   44  -0.087   0.137   0.389
    1UNL    H18   45   0.062  -0.039   0.315
    1UNL    H19   46   0.144   0.111   0.316
    1UNL    H20   47   0.138   0.201  -0.018
    1UNL    H21   48   0.384   0.244  -0.122
    1UNL    H22   49   0.600   0.125  -0.159
    1UNL    H23   50   0.653  -0.091  -0.045
    1UNL    H24   51   0.456  -0.216   0.063
    1UNL    H25   52  -0.145  -0.099   0.320
    1UNL    H26   53  -0.312  -0.056   0.287
   0.00000   0.00000   0.00000   0.00000   0.00000   0.00000   0.00000   0.00000   0.00000
Generated with MDTraj, t= 80.0
 53
    1UNL     C1    1   0.083  -0.120  -0.306
    1UNL     O1    2   0.009  -0.129  -0.187
    1UNL     C2    3   0.007  -0.014  -0.120
    1UNL     O2    4   0.032   0.099  -0.162
    1UNL     C3    5  -0.021  -0.025   0.031
    1UNL     C4    6  -0.069  -0.165   0.069
    1UNL     C5    7  -0.213  -0.154   0.130
    1UNL     C6    8  -0.303  -0.102   0.012
    1UNL     C7    9  -0.271   0.042  -0.020
    1UNL     C8   10  -0.291   0.062  -0.173
    1UNL     C9   11  -0.437   0.066  -0.214
    1UNL     O3   12  -0.223   0.189  -0.212
    1UNL    C10   13  -0.133   0.083   0.051
    1UNL     N1   14  -0.157   0.079   0.200
    1UNL    C11   15  -0.042   0.134   0.276
    1UNL    C12   16   0.083   0.049   0.262
    1UNL    C13   17   0.115   0.010   0.111
    1UNL     N2   18   0.178   0.126   0.055
    1UNL    C14   19   0.311   0.096   0.016
    1UNL    C15   20   0.409   0.168  -0.049
    1UNL    C16   21   0.531   0.101  -0.076
    1UNL    C17   22   0.544  -0.038  -0.046
    1UNL    C18   23   0.447  -0.107   0.016
    1UNL    C19   24   0.332  -0.043   0.048
    1UNL    C20   25   0.219  -0.099   0.116
    1UNL     O4   26   0.202  -0.215   0.152
    1UNL    C21   27  -0.214  -0.052   0.251
    1UNL     H1   28   0.059  -0.219  -0.360
    1UNL     H2   29   0.042  -0.045  -0.364
    1UNL     H3   30   0.191  -0.090  -0.296
    1UNL     H4   31   0.002  -0.221   0.135
    1UNL     H5   32  -0.080  -0.230  -0.016
    1UNL     H6   33  -0.252  -0.243   0.173
    1UNL     H7   34  -0.417  -0.120   0.031
    1UNL     H8   35  -0.287  -0.160  -0.077
    1UNL     H9   36  -0.339   0.104   0.041
    1UNL    H10   37  -0.232  -0.018  -0.231
    1UNL    H11   38  -0.481  -0.030  -0.182
    1UNL    H12   39  -0.485   0.159  -0.172
    1UNL    H13   40  -0.437   0.078  -0.322
    1UNL    H14   41  -0.127   0.173  -0.213
    1UNL    H15   42  -0.093   0.184   0.035
    1UNL    H16   43  -0.018   0.225   0.226
    1UNL    H17   44  -0.071   0.152   0.381
    1UNL    H18   45   0.078  -0.038   0.334
    1UNL    H19   46   0.181   0.089   0.293
    1UNL    H20   47   0.122   0.181  -0.004
    1UNL    H21   48   0.383   0.262  -0.097
    1UNL    H22   49   0.615   0.168  -0.101
    1UNL    H23   50   0.633  -0.091  -0.060
    1UNL    H24   51   0.470  -0.197   0.067
    1UNL    H25   52  -0.165  -0.087   0.340
    1UNL    H26   53  -0.327  -0.034   0.276
   0.00000   0.00000   0.00000   0.00000   0.00000   0.00000   0.00000   0.00000   0.00000
Generated with MDTraj, t= 81.0
 53
    1UNL     C1    1   0.081  -0.149  -0.310
    1UNL     O1    2   0.031  -0.153  -0.178
    1UNL     C2    3   0.024  -0.031  -0.117
    1UNL     O2    4   0.052   0.074  -0.171
    1UNL     C3    5  -0.030  -0.022   0.025
    1UNL     C4    6  -0.090  -0.158   0.064
    1UNL     C5    7  -0.231  -0.146   0.132
    1UNL     C6    8  -0.333  -0.092   0.033
    1UNL     C7    9  -0.284   0.045  -0.013
    1UNL     C8   10  -0.283   0.066  -0.162
    1UNL     C9   11  -0.423   0.070  -0.222
    1UNL     O3   12  -0.202   0.188  -0.199
    1UNL    C10   13  -0.139   0.079   0.058
    1UNL     N1   14  -0.152   0.085   0.201
    1UNL    C11   15  -0.029   0.126   0.282
    1UNL    C12   16   0.084   0.033   0.258
    1UNL    C13   17   0.105   0.011   0.108
    1UNL     N2   18   0.174   0.134   0.056
    1UNL    C14   19   0.309   0.100   0.019
    1UNL    C15   20   0.410   0.183  -0.033
    1UNL    C16   21   0.530   0.121  -0.065
    1UNL    C17   22   0.547  -0.016  -0.055
    1UNL    C18   23   0.451  -0.098   0.007
    1UNL    C19   24   0.329  -0.038   0.037
    1UNL    C20   25   0.212  -0.101   0.098
    1UNL     O4   26   0.193  -0.213   0.127
    1UNL    C21   27  -0.219  -0.042   0.249
    1UNL     H1   28   0.047  -0.245  -0.365
    1UNL     H2   29   0.036  -0.069  -0.357
    1UNL     H3   30   0.189  -0.123  -0.308
    1UNL     H4   31  -0.027  -0.199   0.136
    1UNL     H5   32  -0.104  -0.235  -0.011
    1UNL     H6   33  -0.264  -0.242   0.166
    1UNL     H7   34  -0.438  -0.088   0.079
    1UNL     H8   35  -0.340  -0.158  -0.058
    1UNL     H9   36  -0.350   0.124   0.029
    1UNL    H10   37  -0.228  -0.014  -0.220
    1UNL    H11   38  -0.463  -0.033  -0.203
    1UNL    H12   39  -0.482   0.150  -0.169
    1UNL    H13   40  -0.417   0.095  -0.326
    1UNL    H14   41  -0.104   0.172  -0.193
    1UNL    H15   42  -0.099   0.175   0.027
    1UNL    H16   43  -0.002   0.225   0.257
    1UNL    H17   44  -0.056   0.111   0.389
    1UNL    H18   45   0.077  -0.075   0.301
    1UNL    H19   46   0.176   0.065   0.306
    1UNL    H20   47   0.128   0.185  -0.016
    1UNL    H21   48   0.381   0.283  -0.059
    1UNL    H22   49   0.602   0.177  -0.115
    1UNL    H23   50   0.649  -0.055  -0.074
    1UNL    H24   51   0.456  -0.202   0.039
    1UNL    H25   52  -0.160  -0.086   0.331
    1UNL    H26   53  -0.328  -0.004   0.280
   0.00000   0.00000   0.00000   0.00000   0.00000   0.00000   0.00000   0.00000   0.00000
Generated with MDTraj, t= 82.0
 53
    1UNL     C1    1   0.063  -0.158  -0.305
    1UNL     O1    2   0.009  -0.158  -0.176
    1UNL     C2    3   0.014  -0.039  -0.111
    1UNL     O2    4   0.045   0.064  -0.166
    1UNL     C3    5  -0.028  -0.037   0.032
    1UNL     C4    6  -0.087  -0.171   0.088
    1UNL     C5    7  -0.234  -0.145   0.132
    1UNL     C6    8  -0.320  -0.089   0.017
    1UNL     C7    9  -0.269   0.057  -0.017
    1UNL     C8   10  -0.265   0.074  -0.165
    1UNL     C9   11  -0.404   0.084  -0.225
    1UNL     O3   12  -0.198   0.196  -0.207
    1UNL    C10   13  -0.126   0.082   0.056
    1UNL     N1   14  -0.151   0.090   0.200
    1UNL    C11   15  -0.032   0.122   0.287
    1UNL    C12   16   0.083   0.028   0.265
    1UNL    C13   17   0.103   0.006   0.114
    1UNL     N2   18   0.173   0.125   0.067
    1UNL    C14   19   0.298   0.092   0.012
    1UNL    C15   20   0.395   0.180  -0.033
    1UNL    C16   21   0.516   0.136  -0.079
    1UNL    C17   22   0.555   0.003  -0.044
    1UNL    C18   23   0.459  -0.084   0.002
    1UNL    C19   24   0.335  -0.036   0.035
    1UNL    C20   25   0.214  -0.105   0.094
    1UNL     O4   26   0.200  -0.221   0.118
    1UNL    C21   27  -0.229  -0.034   0.244
    1UNL     H1   28   0.094  -0.263  -0.335
    1UNL     H2   29  -0.014  -0.132  -0.371
    1UNL     H3   30   0.141  -0.081  -0.301
    1UNL     H4   31  -0.038  -0.219   0.164
    1UNL     H5   32  -0.088  -0.239   0.005
    1UNL     H6   33  -0.273  -0.240   0.166
    1UNL     H7   34  -0.427  -0.090   0.046
    1UNL     H8   35  -0.310  -0.161  -0.077
    1UNL     H9   36  -0.346   0.124   0.027
    1UNL    H10   37  -0.209  -0.006  -0.216
    1UNL    H11   38  -0.462  -0.006  -0.189
    1UNL    H12   39  -0.459   0.176  -0.199
    1UNL    H13   40  -0.404   0.081  -0.334
    1UNL    H14   41  -0.106   0.175  -0.208
    1UNL    H15   42  -0.084   0.175   0.018
    1UNL    H16   43   0.009   0.213   0.253
    1UNL    H17   44  -0.069   0.115   0.392
    1UNL    H18   45   0.067  -0.080   0.309
    1UNL    H19   46   0.180   0.054   0.303
    1UNL    H20   47   0.104   0.180   0.009
    1UNL    H21   48   0.360   0.281  -0.044
    1UNL    H22   49   0.572   0.199  -0.153
    1UNL    H23   50   0.654  -0.028  -0.071
    1UNL    H24   51   0.489  -0.188   0.024
    1UNL    H25   52  -0.167  -0.071   0.336
    1UNL    H26   53  -0.339  -0.007   0.267
   0.00000   0.00000   0.00000   0.00000   0.00000   0.00000   0.00000   0.00000   0.00000
Generated with MDTraj, t= 83.0
 53
    1UNL     C1    1   0.034  -0.162  -0.313
    1UNL     O1    2  -0.012  -0.162  -0.181
    1UNL     C2    3   0.012  -0.041  -0.118
    1UNL     O2    4   0.050   0.057  -0.173
    1UNL     C3    5  -0.018  -0.031   0.032
    1UNL     C4    6  -0.078  -0.176   0.080
    1UNL     C5    7  -0.227  -0.154   0.130
    1UNL     C6    8  -0.310  -0.086   0.014
    1UNL     C7    9  -0.261   0.057  -0.021
    1UNL     C8   10  -0.265   0.083  -0.170
    1UNL     C9   11  -0.408   0.096  -0.229
    1UNL     O3   12  -0.185   0.200  -0.197
    1UNL    C10   13  -0.127   0.079   0.057
    1UNL     N1   14  -0.163   0.078   0.198
    1UNL    C11   15  -0.053   0.125   0.285
    1UNL    C12   16   0.071   0.035   0.268
    1UNL    C13   17   0.109   0.007   0.117
    1UNL     N2   18   0.182   0.129   0.069
    1UNL    C14   19   0.303   0.102   0.019
    1UNL    C15   20   0.401   0.184  -0.043
    1UNL    C16   21   0.517   0.133  -0.092
    1UNL    C17   22   0.545  -0.000  -0.053
    1UNL    C18   23   0.454  -0.085   0.012
    1UNL    C19   24   0.333  -0.033   0.044
    1UNL    C20   25   0.220  -0.099   0.103
    1UNL     O4   26   0.216  -0.214   0.146
    1UNL    C21   27  -0.219  -0.057   0.249
    1UNL     H1   28   0.008  -0.256  -0.366
    1UNL     H2   29  -0.008  -0.078  -0.363
    1UNL     H3   30   0.141  -0.151  -0.296
    1UNL     H4   31  -0.016  -0.226   0.147
    1UNL     H5   32  -0.086  -0.232  -0.008
    1UNL     H6   33  -0.272  -0.249   0.159
    1UNL     H7   34  -0.417  -0.092   0.040
    1UNL     H8   35  -0.297  -0.151  -0.084
    1UNL     H9   36  -0.334   0.123   0.033
    1UNL    H10   37  -0.210   0.009  -0.225
    1UNL    H11   38  -0.462  -0.001  -0.213
    1UNL    H12   39  -0.476   0.175  -0.199
    1UNL    H13   40  -0.406   0.104  -0.341
    1UNL    H14   41  -0.087   0.167  -0.184
    1UNL    H15   42  -0.098   0.182   0.041
    1UNL    H16   43  -0.026   0.219   0.243
    1UNL    H17   44  -0.085   0.119   0.393
    1UNL    H18   45   0.060  -0.063   0.327
    1UNL    H19   46   0.161   0.076   0.312
    1UNL    H20   47   0.125   0.187  -0.001
    1UNL    H21   48   0.374   0.288  -0.058
    1UNL    H22   49   0.578   0.185  -0.160
    1UNL    H23   50   0.641  -0.042  -0.079
    1UNL    H24   51   0.488  -0.176   0.046
    1UNL    H25   52  -0.153  -0.110   0.334
    1UNL    H26   53  -0.326  -0.034   0.282
   0.00000   0.00000   0.00000   0.00000   0.00000   0.00000   0.00000   0.00000   0.00000
Generated with MDTraj, t= 84.0
 53
    1UNL     C1    1   0.015  -0.137  -0.326
    1UNL     O1    2  -0.017  -0.144  -0.189
    1UNL     C2    3   0.024  -0.035  -0.119
    1UNL     O2    4   0.081   0.060  -0.164
    1UNL     C3    5  -0.015  -0.025   0.036
    1UNL     C4    6  -0.066  -0.160   0.086
    1UNL     C5    7  -0.212  -0.156   0.126
    1UNL     C6    8  -0.300  -0.114   0.013
    1UNL     C7    9  -0.268   0.043  -0.017
    1UNL     C8   10  -0.265   0.067  -0.173
    1UNL     C9   11  -0.409   0.100  -0.220
    1UNL     O3   12  -0.177   0.181  -0.195
    1UNL    C10   13  -0.134   0.076   0.061
    1UNL     N1   14  -0.175   0.076   0.201
    1UNL    C11   15  -0.063   0.126   0.289
    1UNL    C12   16   0.064   0.040   0.270
    1UNL    C13   17   0.109   0.016   0.121
    1UNL     N2   18   0.175   0.137   0.068
    1UNL    C14   19   0.303   0.102   0.009
    1UNL    C15   20   0.404   0.179  -0.060
    1UNL    C16   21   0.523   0.116  -0.082
    1UNL    C17   22   0.548  -0.018  -0.058
    1UNL    C18   23   0.448  -0.095   0.007
    1UNL    C19   24   0.324  -0.038   0.025
    1UNL    C20   25   0.215  -0.086   0.108
    1UNL     O4   26   0.214  -0.198   0.159
    1UNL    C21   27  -0.224  -0.057   0.242
    1UNL     H1   28  -0.050  -0.196  -0.393
    1UNL     H2   29   0.013  -0.033  -0.360
    1UNL     H3   30   0.112  -0.183  -0.331
    1UNL     H4   31  -0.005  -0.172   0.173
    1UNL     H5   32  -0.047  -0.234   0.020
    1UNL     H6   33  -0.253  -0.251   0.163
    1UNL     H7   34  -0.408  -0.127   0.035
    1UNL     H8   35  -0.282  -0.182  -0.074
    1UNL     H9   36  -0.345   0.109   0.031
    1UNL    H10   37  -0.221  -0.009  -0.233
    1UNL    H11   38  -0.472   0.010  -0.232
    1UNL    H12   39  -0.460   0.168  -0.153
    1UNL    H13   40  -0.408   0.154  -0.321
    1UNL    H14   41  -0.083   0.156  -0.194
    1UNL    H15   42  -0.106   0.176   0.028
    1UNL    H16   43  -0.029   0.224   0.262
    1UNL    H17   44  -0.097   0.105   0.395
    1UNL    H18   45   0.055  -0.057   0.317
    1UNL    H19   46   0.143   0.082   0.334
    1UNL    H20   47   0.093   0.173   0.007
    1UNL    H21   48   0.385   0.283  -0.076
    1UNL    H22   49   0.608   0.174  -0.124
    1UNL    H23   50   0.648  -0.058  -0.056
    1UNL    H24   51   0.460  -0.202   0.045
    1UNL    H25   52  -0.161  -0.097   0.335
    1UNL    H26   53  -0.335  -0.042   0.270
   0.00000   0.00000   0.00000   0.00000   0.00000   0.00000   0.00000   0.00000   0.00000
Generated with MDTraj, t= 85.0
 53
    1UNL     C1    1   0.013  -0.131  -0.330
    1UNL     O1    2  -0.027  -0.135  -0.192
    1UNL     C2    3   0.013  -0.025  -0.117
    1UNL     O2    4   0.062   0.075  -0.162
    1UNL     C3    5  -0.015  -0.023   0.031
    1UNL     C4    6  -0.059  -0.163   0.078
    1UNL     C5    7  -0.213  -0.158   0.122
    1UNL     C6    8  -0.304  -0.106   0.010
    1UNL     C7    9  -0.266   0.043  -0.019
    1UNL     C8   10  -0.266   0.068  -0.174
    1UNL     C9   11  -0.408   0.076  -0.230
    1UNL     O3   12  -0.196   0.186  -0.211
    1UNL    C10   13  -0.135   0.078   0.053
    1UNL     N1   14  -0.165   0.079   0.200
    1UNL    C11   15  -0.053   0.132   0.294
    1UNL    C12   16   0.065   0.041   0.268
    1UNL    C13   17   0.117   0.015   0.121
    1UNL     N2   18   0.183   0.131   0.065
    1UNL    C14   19   0.314   0.095   0.036
    1UNL    C15   20   0.396   0.170  -0.045
    1UNL    C16   21   0.513   0.112  -0.096
    1UNL    C17   22   0.546  -0.020  -0.068
    1UNL    C18   23   0.459  -0.095   0.009
    1UNL    C19   24   0.343  -0.041   0.058
    1UNL    C20   25   0.222  -0.091   0.127
    1UNL     O4   26   0.205  -0.203   0.164
    1UNL    C21   27  -0.213  -0.061   0.245
    1UNL     H1   28   0.002  -0.227  -0.381
    1UNL     H2   29  -0.048  -0.051  -0.377
    1UNL     H3   30   0.121  -0.121  -0.333
    1UNL     H4   31   0.004  -0.191   0.158
    1UNL     H5   32  -0.028  -0.220  -0.003
    1UNL     H6   33  -0.253  -0.253   0.161
    1UNL     H7   34  -0.415  -0.116   0.033
    1UNL     H8   35  -0.298  -0.165  -0.077
    1UNL     H9   36  -0.345   0.107   0.031
    1UNL    H10   37  -0.215  -0.013  -0.222
    1UNL    H11   38  -0.471   0.001  -0.183
    1UNL    H12   39  -0.443   0.179  -0.213
    1UNL    H13   40  -0.399   0.060  -0.343
    1UNL    H14   41  -0.095   0.173  -0.210
    1UNL    H15   42  -0.106   0.180   0.025
    1UNL    H16   43  -0.026   0.231   0.265
    1UNL    H17   44  -0.083   0.121   0.402
    1UNL    H18   45   0.062  -0.045   0.327
    1UNL    H19   46   0.154   0.082   0.321
    1UNL    H20   47   0.124   0.173  -0.014
    1UNL    H21   48   0.366   0.269  -0.080
    1UNL    H22   49   0.590   0.175  -0.128
    1UNL    H23   50   0.629  -0.070  -0.114
    1UNL    H24   51   0.484  -0.194   0.024
    1UNL    H25   52  -0.149  -0.103   0.328
    1UNL    H26   53  -0.323  -0.053   0.284
   0.00000   0.00000   0.00000   0.00000   0.00000   0.00000   0.00000   0.00000   0.00000
Generated with MDTraj, t= 86.0
 53
    1UNL     C1    1   0.057  -0.111  -0.319
    1UNL     O1    2   0.018  -0.136  -0.189
    1UNL     C2    3   0.019  -0.023  -0.110
    1UNL     O2    4   0.053   0.084  -0.155
    1UNL     C3    5  -0.022  -0.028   0.031
    1UNL     C4    6  -0.080  -0.174   0.073
    1UNL     C5    7  -0.220  -0.151   0.138
    1UNL     C6    8  -0.310  -0.097   0.024
    1UNL     C7    9  -0.270   0.051  -0.015
    1UNL     C8   10  -0.273   0.068  -0.168
    1UNL     C9   11  -0.411   0.052  -0.236
    1UNL     O3   12  -0.202   0.185  -0.201
    1UNL    C10   13  -0.140   0.082   0.059
    1UNL     N1   14  -0.167   0.084   0.205
    1UNL    C11   15  -0.044   0.128   0.283
    1UNL    C12   16   0.078   0.046   0.262
    1UNL    C13   17   0.105   0.010   0.115
    1UNL     N2   18   0.181   0.129   0.057
    1UNL    C14   19   0.303   0.089   0.005
    1UNL    C15   20   0.401   0.168  -0.063
    1UNL    C16   21   0.528   0.117  -0.080
    1UNL    C17   22   0.551  -0.016  -0.048
    1UNL    C18   23   0.449  -0.098  -0.002
    1UNL    C19   24   0.327  -0.044   0.042
    1UNL    C20   25   0.211  -0.104   0.111
    1UNL     O4   26   0.194  -0.212   0.156
    1UNL    C21   27  -0.218  -0.049   0.256
    1UNL     H1   28   0.066  -0.207  -0.371
    1UNL     H2   29  -0.026  -0.046  -0.361
    1UNL     H3   30   0.161  -0.079  -0.325
    1UNL     H4   31  -0.006  -0.230   0.125
    1UNL     H5   32  -0.090  -0.231  -0.022
    1UNL     H6   33  -0.254  -0.250   0.178
    1UNL     H7   34  -0.417  -0.093   0.065
    1UNL     H8   35  -0.324  -0.161  -0.056
    1UNL     H9   36  -0.352   0.120   0.023
    1UNL    H10   37  -0.209  -0.011  -0.209
    1UNL    H11   38  -0.450  -0.048  -0.219
    1UNL    H12   39  -0.477   0.125  -0.185
    1UNL    H13   40  -0.402   0.078  -0.345
    1UNL    H14   41  -0.106   0.168  -0.183
    1UNL    H15   42  -0.104   0.183   0.033
    1UNL    H16   43  -0.021   0.228   0.254
    1UNL    H17   44  -0.074   0.115   0.391
    1UNL    H18   45   0.068  -0.041   0.315
    1UNL    H19   46   0.176   0.074   0.311
    1UNL    H20   47   0.133   0.202   0.002
    1UNL    H21   48   0.385   0.270  -0.089
    1UNL    H22   49   0.610   0.179  -0.124
    1UNL    H23   50   0.642  -0.062  -0.085
    1UNL    H24   51   0.459  -0.207  -0.009
    1UNL    H25   52  -0.163  -0.091   0.342
    1UNL    H26   53  -0.329  -0.026   0.291
   0.00000   0.00000   0.00000   0.00000   0.00000   0.00000   0.00000   0.00000   0.00000
Generated with MDTraj, t= 87.0
 53
    1UNL     C1    1   0.122  -0.127  -0.292
    1UNL     O1    2   0.041  -0.135  -0.175
    1UNL     C2    3   0.020  -0.014  -0.119
    1UNL     O2    4   0.041   0.094  -0.169
    1UNL     C3    5  -0.026  -0.022   0.027
    1UNL     C4    6  -0.086  -0.162   0.061
    1UNL     C5    7  -0.221  -0.153   0.134
    1UNL     C6    8  -0.316  -0.097   0.031
    1UNL     C7    9  -0.279   0.047  -0.007
    1UNL     C8   10  -0.289   0.065  -0.158
    1UNL     C9   11  -0.427   0.054  -0.214
    1UNL     O3   12  -0.233   0.184  -0.214
    1UNL    C10   13  -0.141   0.082   0.056
    1UNL     N1   14  -0.157   0.087   0.201
    1UNL    C11   15  -0.038   0.126   0.284
    1UNL    C12   16   0.076   0.032   0.264
    1UNL    C13   17   0.101   0.013   0.111
    1UNL     N2   18   0.181   0.134   0.060
    1UNL    C14   19   0.316   0.102   0.019
    1UNL    C15   20   0.408   0.165  -0.058
    1UNL    C16   21   0.527   0.102  -0.083
    1UNL    C17   22   0.538  -0.034  -0.054
    1UNL    C18   23   0.444  -0.106   0.008
    1UNL    C19   24   0.331  -0.033   0.055
    1UNL    C20   25   0.208  -0.094   0.097
    1UNL     O4   26   0.192  -0.210   0.129
    1UNL    C21   27  -0.210  -0.046   0.244
    1UNL     H1   28   0.136  -0.216  -0.353
    1UNL     H2   29   0.073  -0.040  -0.351
    1UNL     H3   30   0.224  -0.097  -0.267
    1UNL     H4   31  -0.011  -0.225   0.109
    1UNL     H5   32  -0.093  -0.210  -0.043
    1UNL     H6   33  -0.254  -0.255   0.167
    1UNL     H7   34  -0.425  -0.108   0.060
    1UNL     H8   35  -0.316  -0.158  -0.053
    1UNL     H9   36  -0.358   0.118   0.034
    1UNL    H10   37  -0.218  -0.011  -0.200
    1UNL    H11   38  -0.476  -0.042  -0.192
    1UNL    H12   39  -0.489   0.131  -0.160
    1UNL    H13   40  -0.437   0.079  -0.321
    1UNL    H14   41  -0.139   0.171  -0.211
    1UNL    H15   42  -0.099   0.178   0.023
    1UNL    H16   43  -0.008   0.223   0.248
    1UNL    H17   44  -0.074   0.124   0.391
    1UNL    H18   45   0.056  -0.065   0.296
    1UNL    H19   46   0.169   0.038   0.327
    1UNL    H20   47   0.122   0.177  -0.004
    1UNL    H21   48   0.388   0.271  -0.073
    1UNL    H22   49   0.589   0.145  -0.156
    1UNL    H23   50   0.629  -0.082  -0.088
    1UNL    H24   51   0.432  -0.214   0.002
    1UNL    H25   52  -0.153  -0.084   0.331
    1UNL    H26   53  -0.316  -0.028   0.282
   0.00000   0.00000   0.00000   0.00000   0.00000   0.00000   0.00000   0.00000   0.00000
Generated with MDTraj, t= 88.0
 53
    1UNL     C1    1   0.129  -0.106  -0.291
    1UNL     O1    2   0.074  -0.131  -0.169
    1UNL     C2    3   0.020  -0.021  -0.114
    1UNL     O2    4   0.015   0.087  -0.170
    1UNL     C3    5  -0.027  -0.031   0.029
    1UNL     C4    6  -0.080  -0.169   0.064
    1UNL     C5    7  -0.224  -0.156   0.130
    1UNL     C6    8  -0.326  -0.108   0.026
    1UNL     C7    9  -0.280   0.036  -0.015
    1UNL     C8   10  -0.292   0.071  -0.164
    1UNL     C9   11  -0.437   0.079  -0.207
    1UNL     O3   12  -0.219   0.192  -0.211
    1UNL    C10   13  -0.137   0.077   0.051
    1UNL     N1   14  -0.157   0.089   0.202
    1UNL    C11   15  -0.044   0.146   0.281
    1UNL    C12   16   0.073   0.043   0.266
    1UNL    C13   17   0.103   0.005   0.112
    1UNL     N2   18   0.171   0.124   0.053
    1UNL    C14   19   0.300   0.091   0.009
    1UNL    C15   20   0.401   0.159  -0.051
    1UNL    C16   21   0.523   0.100  -0.082
    1UNL    C17   22   0.544  -0.036  -0.061
    1UNL    C18   23   0.444  -0.109  -0.004
    1UNL    C19   24   0.326  -0.042   0.039
    1UNL    C20   25   0.212  -0.098   0.100
    1UNL     O4   26   0.206  -0.207   0.154
    1UNL    C21   27  -0.212  -0.050   0.247
    1UNL     H1   28   0.159  -0.201  -0.335
    1UNL     H2   29   0.051  -0.045  -0.355
    1UNL     H3   30   0.210  -0.035  -0.277
    1UNL     H4   31   0.002  -0.226   0.122
    1UNL     H5   32  -0.094  -0.224  -0.037
    1UNL     H6   33  -0.260  -0.259   0.162
    1UNL     H7   34  -0.431  -0.122   0.054
    1UNL     H8   35  -0.320  -0.173  -0.059
    1UNL     H9   36  -0.359   0.107   0.027
    1UNL    H10   37  -0.229  -0.010  -0.216
    1UNL    H11   38  -0.502   0.001  -0.159
    1UNL    H12   39  -0.478   0.176  -0.167
    1UNL    H13   40  -0.451   0.076  -0.313
    1UNL    H14   41  -0.121   0.170  -0.194
    1UNL    H15   42  -0.086   0.174   0.031
    1UNL    H16   43  -0.013   0.234   0.227
    1UNL    H17   44  -0.071   0.160   0.390
    1UNL    H18   45   0.072  -0.044   0.331
    1UNL    H19   46   0.165   0.091   0.303
    1UNL    H20   47   0.124   0.173  -0.021
    1UNL    H21   48   0.401   0.263  -0.076
    1UNL    H22   49   0.602   0.174  -0.106
    1UNL    H23   50   0.638  -0.068  -0.102
    1UNL    H24   51   0.456  -0.213   0.024
    1UNL    H25   52  -0.156  -0.096   0.334
    1UNL    H26   53  -0.311  -0.030   0.286
   0.00000   0.00000   0.00000   0.00000   0.00000   0.00000   0.00000   0.00000   0.00000
Generated with MDTraj, t= 89.0
 53
    1UNL     C1    1   0.117  -0.125  -0.306
    1UNL     O1    2   0.060  -0.136  -0.181
    1UNL     C2    3   0.035  -0.017  -0.116
    1UNL     O2    4   0.039   0.090  -0.174
    1UNL     C3    5  -0.016  -0.019   0.029
    1UNL     C4    6  -0.074  -0.160   0.057
    1UNL     C5    7  -0.222  -0.155   0.119
    1UNL     C6    8  -0.312  -0.104   0.009
    1UNL     C7    9  -0.272   0.041  -0.019
    1UNL     C8   10  -0.287   0.075  -0.166
    1UNL     C9   11  -0.434   0.076  -0.204
    1UNL     O3   12  -0.228   0.202  -0.188
    1UNL    C10   13  -0.136   0.077   0.061
    1UNL     N1   14  -0.169   0.073   0.204
    1UNL    C11   15  -0.060   0.124   0.290
    1UNL    C12   16   0.073   0.051   0.270
    1UNL    C13   17   0.106   0.016   0.121
    1UNL     N2   18   0.178   0.128   0.052
    1UNL    C14   19   0.308   0.089   0.004
    1UNL    C15   20   0.394   0.160  -0.076
    1UNL    C16   21   0.512   0.093  -0.114
    1UNL    C17   22   0.540  -0.032  -0.064
    1UNL    C18   23   0.453  -0.103   0.020
    1UNL    C19   24   0.330  -0.045   0.048
    1UNL    C20   25   0.210  -0.096   0.128
    1UNL     O4   26   0.201  -0.208   0.172
    1UNL    C21   27  -0.227  -0.054   0.245
    1UNL     H1   28   0.169  -0.217  -0.320
    1UNL     H2   29   0.038  -0.109  -0.391
    1UNL     H3   30   0.168  -0.030  -0.308
    1UNL     H4   31  -0.001  -0.220   0.127
    1UNL     H5   32  -0.082  -0.212  -0.046
    1UNL     H6   33  -0.256  -0.255   0.159
    1UNL     H7   34  -0.414  -0.115   0.034
    1UNL     H8   35  -0.302  -0.172  -0.077
    1UNL     H9   36  -0.359   0.107   0.015
    1UNL    H10   37  -0.222   0.002  -0.226
    1UNL    H11   38  -0.478  -0.028  -0.197
    1UNL    H12   39  -0.486   0.137  -0.125
    1UNL    H13   40  -0.447   0.119  -0.301
    1UNL    H14   41  -0.135   0.182  -0.200
    1UNL    H15   42  -0.103   0.179   0.035
    1UNL    H16   43  -0.040   0.224   0.252
    1UNL    H17   44  -0.096   0.115   0.398
    1UNL    H18   45   0.065  -0.043   0.334
    1UNL    H19   46   0.161   0.099   0.312
    1UNL    H20   47   0.114   0.194   0.000
    1UNL    H21   48   0.374   0.265  -0.103
    1UNL    H22   49   0.590   0.148  -0.162
    1UNL    H23   50   0.639  -0.072  -0.071
    1UNL    H24   51   0.475  -0.205   0.049
    1UNL    H25   52  -0.173  -0.096   0.335
    1UNL    H26   53  -0.323  -0.030   0.277
   0.00000   0.00000   0.00000   0.00000   0.00000   0.00000   0.00000   0.00000   0.00000
Generated with MDTraj, t= 90.0
 53
    1UNL     C1    1   0.081  -0.113  -0.317
    1UNL     O1    2   0.039  -0.134  -0.181
    1UNL     C2    3   0.015  -0.017  -0.114
    1UNL     O2    4   0.034   0.089  -0.172
    1UNL     C3    5  -0.018  -0.029   0.036
    1UNL     C4    6  -0.063  -0.171   0.078
    1UNL     C5    7  -0.211  -0.162   0.127
    1UNL     C6    8  -0.297  -0.113   0.012
    1UNL     C7    9  -0.266   0.037  -0.018
    1UNL     C8   10  -0.267   0.069  -0.170
    1UNL     C9   11  -0.406   0.087  -0.237
    1UNL     O3   12  -0.205   0.196  -0.189
    1UNL    C10   13  -0.138   0.070   0.060
    1UNL     N1   14  -0.172   0.071   0.205
    1UNL    C11   15  -0.067   0.129   0.294
    1UNL    C12   16   0.067   0.061   0.271
    1UNL    C13   17   0.104   0.025   0.123
    1UNL     N2   18   0.182   0.139   0.065
    1UNL    C14   19   0.301   0.090   0.012
    1UNL    C15   20   0.394   0.159  -0.071
    1UNL    C16   21   0.508   0.089  -0.116
    1UNL    C17   22   0.529  -0.040  -0.081
    1UNL    C18   23   0.446  -0.101   0.011
    1UNL    C19   24   0.326  -0.044   0.048
    1UNL    C20   25   0.211  -0.090   0.125
    1UNL     O4   26   0.203  -0.196   0.175
    1UNL    C21   27  -0.220  -0.069   0.248
    1UNL     H1   28   0.070  -0.199  -0.377
    1UNL     H2   29   0.024  -0.023  -0.367
    1UNL     H3   30   0.176  -0.063  -0.316
    1UNL     H4   31   0.000  -0.220   0.161
    1UNL     H5   32  -0.058  -0.235  -0.020
    1UNL     H6   33  -0.248  -0.264   0.162
    1UNL     H7   34  -0.395  -0.124   0.039
    1UNL     H8   35  -0.280  -0.183  -0.074
    1UNL     H9   36  -0.351   0.097   0.027
    1UNL    H10   37  -0.205  -0.007  -0.225
    1UNL    H11   38  -0.465  -0.007  -0.222
    1UNL    H12   39  -0.458   0.174  -0.188
    1UNL    H13   40  -0.384   0.106  -0.342
    1UNL    H14   41  -0.109   0.178  -0.172
    1UNL    H15   42  -0.115   0.176   0.034
    1UNL    H16   43  -0.053   0.235   0.272
    1UNL    H17   44  -0.097   0.108   0.402
    1UNL    H18   45   0.083  -0.038   0.331
    1UNL    H19   46   0.144   0.122   0.315
    1UNL    H20   47   0.145   0.226   0.013
    1UNL    H21   48   0.372   0.258  -0.102
    1UNL    H22   49   0.578   0.138  -0.185
    1UNL    H23   50   0.615  -0.098  -0.113
    1UNL    H24   51   0.458  -0.203   0.040
    1UNL    H25   52  -0.171  -0.107   0.337
    1UNL    H26   53  -0.323  -0.063   0.268
   0.00000   0.00000   0.00000   0.00000   0.00000   0.00000   0.00000   0.00000   0.00000
Generated with MDTraj, t= 91.0
 53
    1UNL     C1    1   0.054  -0.117  -0.309
    1UNL     O1    2  -0.002  -0.127  -0.180
    1UNL     C2    3   0.022  -0.017  -0.110
    1UNL     O2    4   0.073   0.083  -0.156
    1UNL     C3    5  -0.014  -0.020   0.039
    1UNL     C4    6  -0.059  -0.163   0.079
    1UNL     C5    7  -0.212  -0.162   0.128
    1UNL     C6    8  -0.305  -0.112   0.008
    1UNL     C7    9  -0.265   0.046  -0.018
    1UNL     C8   10  -0.263   0.073  -0.174
    1UNL     C9   11  -0.399   0.054  -0.243
    1UNL     O3   12  -0.206   0.201  -0.211
    1UNL    C10   13  -0.133   0.079   0.053
    1UNL     N1   14  -0.168   0.075   0.192
    1UNL    C11   15  -0.061   0.124   0.292
    1UNL    C12   16   0.059   0.035   0.285
    1UNL    C13   17   0.113   0.019   0.135
    1UNL     N2   18   0.186   0.138   0.087
    1UNL    C14   19   0.303   0.095   0.021
    1UNL    C15   20   0.397   0.167  -0.057
    1UNL    C16   21   0.500   0.101  -0.116
    1UNL    C17   22   0.526  -0.036  -0.085
    1UNL    C18   23   0.432  -0.103  -0.014
    1UNL    C19   24   0.321  -0.042   0.033
    1UNL    C20   25   0.218  -0.091   0.119
    1UNL     O4   26   0.217  -0.194   0.185
    1UNL    C21   27  -0.217  -0.058   0.241
    1UNL     H1   28   0.026  -0.206  -0.359
    1UNL     H2   29   0.013  -0.030  -0.373
    1UNL     H3   30   0.158  -0.097  -0.304
    1UNL     H4   31   0.016  -0.200   0.156
    1UNL     H5   32  -0.054  -0.234  -0.014
    1UNL     H6   33  -0.248  -0.267   0.157
    1UNL     H7   34  -0.402  -0.117   0.040
    1UNL     H8   35  -0.289  -0.178  -0.082
    1UNL     H9   36  -0.345   0.109   0.030
    1UNL    H10   37  -0.193   0.003  -0.221
    1UNL    H11   38  -0.436  -0.047  -0.218
    1UNL    H12   39  -0.480   0.122  -0.208
    1UNL    H13   40  -0.384   0.055  -0.354
    1UNL    H14   41  -0.105   0.192  -0.200
    1UNL    H15   42  -0.108   0.187   0.033
    1UNL    H16   43  -0.029   0.222   0.256
    1UNL    H17   44  -0.104   0.131   0.397
    1UNL    H18   45   0.031  -0.068   0.332
    1UNL    H19   46   0.146   0.056   0.346
    1UNL    H20   47   0.116   0.203   0.042
    1UNL    H21   48   0.375   0.272  -0.071
    1UNL    H22   49   0.563   0.148  -0.185
    1UNL    H23   50   0.598  -0.094  -0.141
    1UNL    H24   51   0.458  -0.204   0.019
    1UNL    H25   52  -0.161  -0.097   0.315
    1UNL    H26   53  -0.317  -0.043   0.275
   0.00000   0.00000   0.00000   0.00000   0.00000   0.00000   0.00000   0.00000   0.00000
Generated with MDTraj, t= 92.0
 53
    1UNL     C1    1   0.043  -0.107  -0.314
    1UNL     O1    2   0.012  -0.143  -0.182
    1UNL     C2    3   0.032  -0.033  -0.104
    1UNL     O2    4   0.079   0.070  -0.145
    1UNL     C3    5  -0.020  -0.024   0.039
    1UNL     C4    6  -0.072  -0.164   0.083
    1UNL     C5    7  -0.218  -0.151   0.131
    1UNL     C6    8  -0.313  -0.097   0.024
    1UNL     C7    9  -0.260   0.045  -0.020
    1UNL     C8   10  -0.249   0.056  -0.180
    1UNL     C9   11  -0.389   0.058  -0.237
    1UNL     O3   12  -0.177   0.181  -0.214
    1UNL    C10   13  -0.134   0.079   0.062
    1UNL     N1   14  -0.171   0.081   0.205
    1UNL    C11   15  -0.052   0.125   0.289
    1UNL    C12   16   0.066   0.035   0.268
    1UNL    C13   17   0.105   0.012   0.120
    1UNL     N2   18   0.178   0.136   0.080
    1UNL    C14   19   0.303   0.110   0.029
    1UNL    C15   20   0.392   0.183  -0.058
    1UNL    C16   21   0.494   0.114  -0.114
    1UNL    C17   22   0.522  -0.024  -0.089
    1UNL    C18   23   0.438  -0.100  -0.005
    1UNL    C19   24   0.327  -0.030   0.047
    1UNL    C20   25   0.213  -0.093   0.111
    1UNL     O4   26   0.193  -0.210   0.151
    1UNL    C21   27  -0.225  -0.056   0.251
    1UNL     H1   28   0.009  -0.179  -0.385
    1UNL     H2   29  -0.024  -0.020  -0.352
    1UNL     H3   30   0.147  -0.091  -0.323
    1UNL     H4   31  -0.016  -0.208   0.170
    1UNL     H5   32  -0.059  -0.241   0.002
    1UNL     H6   33  -0.264  -0.250   0.166
    1UNL     H7   34  -0.407  -0.087   0.076
    1UNL     H8   35  -0.312  -0.163  -0.065
    1UNL     H9   36  -0.340   0.117   0.011
    1UNL    H10   37  -0.194  -0.024  -0.226
    1UNL    H11   38  -0.448  -0.032  -0.215
    1UNL    H12   39  -0.456   0.134  -0.193
    1UNL    H13   40  -0.388   0.065  -0.351
    1UNL    H14   41  -0.085   0.166  -0.208
    1UNL    H15   42  -0.093   0.180   0.033
    1UNL    H16   43  -0.019   0.228   0.271
    1UNL    H17   44  -0.083   0.117   0.397
    1UNL    H18   45   0.063  -0.070   0.316
    1UNL    H19   46   0.151   0.076   0.322
    1UNL    H20   47   0.118   0.210   0.035
    1UNL    H21   48   0.388   0.292  -0.046
    1UNL    H22   49   0.554   0.158  -0.195
    1UNL    H23   50   0.613  -0.062  -0.135
    1UNL    H24   51   0.454  -0.203   0.004
    1UNL    H25   52  -0.183  -0.094   0.335
    1UNL    H26   53  -0.327  -0.037   0.269
   0.00000   0.00000   0.00000   0.00000   0.00000   0.00000   0.00000   0.00000   0.00000
Generated with MDTraj, t= 93.0
 53
    1UNL     C1    1   0.069  -0.147  -0.293
    1UNL     O1    2  -0.012  -0.141  -0.181
    1UNL     C2    3   0.016  -0.024  -0.110
    1UNL     O2    4   0.057   0.078  -0.162
    1UNL     C3    5  -0.022  -0.024   0.030
    1UNL     C4    6  -0.081  -0.160   0.078
    1UNL     C5    7  -0.223  -0.149   0.137
    1UNL     C6    8  -0.310  -0.091   0.023
    1UNL     C7    9  -0.269   0.054  -0.021
    1UNL     C8   10  -0.259   0.064  -0.176
    1UNL     C9   11  -0.395   0.074  -0.231
    1UNL     O3   12  -0.186   0.183  -0.210
    1UNL    C10   13  -0.134   0.083   0.055
    1UNL     N1   14  -0.163   0.081   0.201
    1UNL    C11   15  -0.044   0.118   0.281
    1UNL    C12   16   0.073   0.021   0.257
    1UNL    C13   17   0.105   0.010   0.110
    1UNL     N2   18   0.178   0.126   0.068
    1UNL    C14   19   0.299   0.093   0.019
    1UNL    C15   20   0.386   0.181  -0.042
    1UNL    C16   21   0.500   0.131  -0.090
    1UNL    C17   22   0.535  -0.002  -0.074
    1UNL    C18   23   0.451  -0.092  -0.005
    1UNL    C19   24   0.332  -0.043   0.038
    1UNL    C20   25   0.219  -0.104   0.109
    1UNL     O4   26   0.213  -0.216   0.158
    1UNL    C21   27  -0.221  -0.049   0.256
    1UNL     H1   28   0.066  -0.240  -0.345
    1UNL     H2   29   0.021  -0.081  -0.377
    1UNL     H3   30   0.170  -0.128  -0.263
    1UNL     H4   31  -0.016  -0.217   0.146
    1UNL     H5   32  -0.087  -0.225  -0.006
    1UNL     H6   33  -0.267  -0.249   0.172
    1UNL     H7   34  -0.417  -0.084   0.058
    1UNL     H8   35  -0.295  -0.160  -0.059
    1UNL     H9   36  -0.349   0.119   0.023
    1UNL    H10   37  -0.211  -0.021  -0.219
    1UNL    H11   38  -0.460  -0.011  -0.203
    1UNL    H12   39  -0.449   0.159  -0.188
    1UNL    H13   40  -0.383   0.073  -0.345
    1UNL    H14   41  -0.084   0.169  -0.212
    1UNL    H15   42  -0.087   0.183   0.033
    1UNL    H16   43  -0.010   0.211   0.233
    1UNL    H17   44  -0.067   0.134   0.389
    1UNL    H18   45   0.061  -0.079   0.307
    1UNL    H19   46   0.167   0.055   0.299
    1UNL    H20   47   0.118   0.198   0.020
    1UNL    H21   48   0.357   0.284  -0.042
    1UNL    H22   49   0.568   0.208  -0.123
    1UNL    H23   50   0.629  -0.036  -0.112
    1UNL    H24   51   0.475  -0.199   0.015
    1UNL    H25   52  -0.166  -0.077   0.342
    1UNL    H26   53  -0.316  -0.030   0.286
   0.00000   0.00000   0.00000   0.00000   0.00000   0.00000   0.00000   0.00000   0.00000
Generated with MDTraj, t= 94.0
 53
    1UNL     C1    1   0.058  -0.161  -0.305
    1UNL     O1    2   0.039  -0.160  -0.169
    1UNL     C2    3   0.023  -0.038  -0.121
    1UNL     O2    4   0.051   0.061  -0.184
    1UNL     C3    5  -0.023  -0.031   0.029
    1UNL     C4    6  -0.076  -0.171   0.094
    1UNL     C5    7  -0.227  -0.149   0.133
    1UNL     C6    8  -0.318  -0.100   0.014
    1UNL     C7    9  -0.275   0.046  -0.021
    1UNL     C8   10  -0.280   0.084  -0.165
    1UNL     C9   11  -0.425   0.085  -0.210
    1UNL     O3   12  -0.205   0.207  -0.196
    1UNL    C10   13  -0.134   0.078   0.055
    1UNL     N1   14  -0.163   0.085   0.195
    1UNL    C11   15  -0.049   0.119   0.284
    1UNL    C12   16   0.081   0.037   0.259
    1UNL    C13   17   0.103   0.012   0.111
    1UNL     N2   18   0.172   0.128   0.049
    1UNL    C14   19   0.308   0.103   0.025
    1UNL    C15   20   0.405   0.178  -0.037
    1UNL    C16   21   0.528   0.126  -0.081
    1UNL    C17   22   0.552  -0.006  -0.048
    1UNL    C18   23   0.456  -0.086   0.016
    1UNL    C19   24   0.338  -0.030   0.044
    1UNL    C20   25   0.211  -0.100   0.091
    1UNL     O4   26   0.205  -0.214   0.122
    1UNL    C21   27  -0.234  -0.044   0.247
    1UNL     H1   28   0.024  -0.251  -0.350
    1UNL     H2   29  -0.003  -0.075  -0.355
    1UNL     H3   30   0.162  -0.160  -0.330
    1UNL     H4   31  -0.014  -0.197   0.177
    1UNL     H5   32  -0.067  -0.253   0.032
    1UNL     H6   33  -0.276  -0.244   0.172
    1UNL     H7   34  -0.431  -0.105   0.044
    1UNL     H8   35  -0.299  -0.155  -0.075
    1UNL     H9   36  -0.348   0.110   0.034
    1UNL    H10   37  -0.236   0.001  -0.218
    1UNL    H11   38  -0.471  -0.015  -0.192
    1UNL    H12   39  -0.486   0.153  -0.149
    1UNL    H13   40  -0.416   0.102  -0.321
    1UNL    H14   41  -0.112   0.191  -0.194
    1UNL    H15   42  -0.087   0.178   0.030
    1UNL    H16   43  -0.026   0.227   0.271
    1UNL    H17   44  -0.080   0.108   0.391
    1UNL    H18   45   0.072  -0.058   0.308
    1UNL    H19   46   0.169   0.084   0.306
    1UNL    H20   47   0.125   0.176  -0.026
    1UNL    H21   48   0.372   0.269  -0.085
    1UNL    H22   49   0.607   0.185  -0.123
    1UNL    H23   50   0.643  -0.058  -0.077
    1UNL    H24   51   0.477  -0.188   0.034
    1UNL    H25   52  -0.181  -0.083   0.331
    1UNL    H26   53  -0.324  -0.019   0.283
   0.00000   0.00000   0.00000   0.00000   0.00000   0.00000   0.00000   0.00000   0.00000
Generated with MDTraj, t= 95.0
 53
    1UNL     C1    1   0.073  -0.149  -0.311
    1UNL     O1    2   0.014  -0.164  -0.185
    1UNL     C2    3   0.010  -0.039  -0.128
    1UNL     O2    4   0.036   0.062  -0.192
    1UNL     C3    5  -0.022  -0.034   0.026
    1UNL     C4    6  -0.077  -0.167   0.076
    1UNL     C5    7  -0.218  -0.154   0.140
    1UNL     C6    8  -0.311  -0.099   0.022
    1UNL     C7    9  -0.275   0.043  -0.015
    1UNL     C8   10  -0.294   0.087  -0.164
    1UNL     C9   11  -0.443   0.106  -0.205
    1UNL     O3   12  -0.222   0.204  -0.203
    1UNL    C10   13  -0.131   0.066   0.053
    1UNL     N1   14  -0.159   0.077   0.195
    1UNL    C11   15  -0.045   0.131   0.273
    1UNL    C12   16   0.084   0.047   0.255
    1UNL    C13   17   0.106   0.013   0.103
    1UNL     N2   18   0.171   0.125   0.036
    1UNL    C14   19   0.308   0.095   0.009
    1UNL    C15   20   0.411   0.175  -0.048
    1UNL    C16   21   0.540   0.123  -0.054
    1UNL    C17   22   0.560  -0.008  -0.018
    1UNL    C18   23   0.459  -0.088   0.031
    1UNL    C19   24   0.333  -0.037   0.037
    1UNL    C20   25   0.217  -0.099   0.098
    1UNL     O4   26   0.213  -0.209   0.148
    1UNL    C21   27  -0.209  -0.057   0.254
    1UNL     H1   28   0.135  -0.232  -0.336
    1UNL     H2   29  -0.003  -0.115  -0.393
    1UNL     H3   30   0.156  -0.077  -0.314
    1UNL     H4   31  -0.009  -0.203   0.142
    1UNL     H5   32  -0.080  -0.229  -0.008
    1UNL     H6   33  -0.253  -0.257   0.170
    1UNL     H7   34  -0.425  -0.095   0.054
    1UNL     H8   35  -0.304  -0.158  -0.065
    1UNL     H9   36  -0.341   0.110   0.045
    1UNL    H10   37  -0.258  -0.001  -0.221
    1UNL    H11   38  -0.502   0.013  -0.181
    1UNL    H12   39  -0.491   0.181  -0.140
    1UNL    H13   40  -0.445   0.120  -0.314
    1UNL    H14   41  -0.126   0.190  -0.196
    1UNL    H15   42  -0.094   0.169   0.021
    1UNL    H16   43  -0.021   0.235   0.244
    1UNL    H17   44  -0.074   0.126   0.380
    1UNL    H18   45   0.071  -0.043   0.306
    1UNL    H19   46   0.171   0.094   0.307
    1UNL    H20   47   0.112   0.170  -0.030
    1UNL    H21   48   0.392   0.274  -0.087
    1UNL    H22   49   0.619   0.178  -0.109
    1UNL    H23   50   0.661  -0.040  -0.001
    1UNL    H24   51   0.464  -0.195   0.050
    1UNL    H25   52  -0.141  -0.088   0.329
    1UNL    H26   53  -0.305  -0.046   0.303
   0.00000   0.00000   0.00000   0.00000   0.00000   0.00000   0.00000   0.00000   0.00000
Generated with MDTraj, t= 96.0
 53
    1UNL     C1    1   0.054  -0.132  -0.317
    1UNL     O1    2   0.025  -0.150  -0.184
    1UNL     C2    3   0.013  -0.025  -0.126
    1UNL     O2    4   0.024   0.077  -0.193
    1UNL     C3    5  -0.021  -0.023   0.020
    1UNL     C4    6  -0.071  -0.169   0.059
    1UNL     C5    7  -0.207  -0.149   0.139
    1UNL     C6    8  -0.312  -0.106   0.033
    1UNL     C7    9  -0.277   0.038  -0.014
    1UNL     C8   10  -0.299   0.065  -0.170
    1UNL     C9   11  -0.444   0.093  -0.207
    1UNL     O3   12  -0.234   0.186  -0.210
    1UNL    C10   13  -0.133   0.081   0.052
    1UNL     N1   14  -0.159   0.084   0.200
    1UNL    C11   15  -0.042   0.139   0.272
    1UNL    C12   16   0.071   0.040   0.251
    1UNL    C13   17   0.111   0.013   0.105
    1UNL     N2   18   0.186   0.129   0.050
    1UNL    C14   19   0.313   0.091   0.011
    1UNL    C15   20   0.412   0.168  -0.050
    1UNL    C16   21   0.539   0.112  -0.060
    1UNL    C17   22   0.569  -0.019  -0.014
    1UNL    C18   23   0.471  -0.096   0.035
    1UNL    C19   24   0.340  -0.041   0.061
    1UNL    C20   25   0.219  -0.093   0.106
    1UNL     O4   26   0.201  -0.209   0.137
    1UNL    C21   27  -0.207  -0.052   0.254
    1UNL     H1   28   0.074  -0.230  -0.352
    1UNL     H2   29  -0.036  -0.074  -0.366
    1UNL     H3   30   0.150  -0.083  -0.344
    1UNL     H4   31   0.002  -0.217   0.115
    1UNL     H5   32  -0.087  -0.220  -0.029
    1UNL     H6   33  -0.233  -0.252   0.178
    1UNL     H7   34  -0.418  -0.102   0.080
    1UNL     H8   35  -0.319  -0.171  -0.052
    1UNL     H9   36  -0.346   0.108   0.034
    1UNL    H10   37  -0.262  -0.027  -0.227
    1UNL    H11   38  -0.511   0.010  -0.171
    1UNL    H12   39  -0.491   0.177  -0.151
    1UNL    H13   40  -0.463   0.098  -0.313
    1UNL    H14   41  -0.137   0.166  -0.219
    1UNL    H15   42  -0.114   0.185   0.012
    1UNL    H16   43  -0.003   0.228   0.219
    1UNL    H17   44  -0.062   0.177   0.374
    1UNL    H18   45   0.051  -0.049   0.300
    1UNL    H19   46   0.163   0.070   0.307
    1UNL    H20   47   0.134   0.162  -0.027
    1UNL    H21   48   0.393   0.271  -0.076
    1UNL    H22   49   0.621   0.172  -0.082
    1UNL    H23   50   0.668  -0.059  -0.025
    1UNL    H24   51   0.492  -0.195   0.070
    1UNL    H25   52  -0.149  -0.083   0.336
    1UNL    H26   53  -0.315  -0.043   0.293
   0.00000   0.00000   0.00000   0.00000   0.00000   0.00000   0.00000   0.00000   0.00000
Generated with MDTraj, t= 97.0
 53
    1UNL     C1    1   0.053  -0.104  -0.326
    1UNL     O1    2   0.003  -0.136  -0.199
    1UNL     C2    3   0.014  -0.023  -0.120
    1UNL     O2    4   0.046   0.082  -0.175
    1UNL     C3    5  -0.020  -0.021   0.032
    1UNL     C4    6  -0.072  -0.162   0.072
    1UNL     C5    7  -0.215  -0.155   0.142
    1UNL     C6    8  -0.317  -0.108   0.033
    1UNL     C7    9  -0.274   0.037  -0.013
    1UNL     C8   10  -0.279   0.057  -0.166
    1UNL     C9   11  -0.426   0.041  -0.207
    1UNL     O3   12  -0.228   0.185  -0.214
    1UNL    C10   13  -0.140   0.082   0.057
    1UNL     N1   14  -0.158   0.086   0.197
    1UNL    C11   15  -0.046   0.137   0.283
    1UNL    C12   16   0.072   0.050   0.261
    1UNL    C13   17   0.109   0.018   0.112
    1UNL     N2   18   0.188   0.128   0.043
    1UNL    C14   19   0.322   0.091   0.006
    1UNL    C15   20   0.424   0.167  -0.052
    1UNL    C16   21   0.550   0.110  -0.059
    1UNL    C17   22   0.566  -0.027  -0.027
    1UNL    C18   23   0.463  -0.104   0.017
    1UNL    C19   24   0.338  -0.044   0.051
    1UNL    C20   25   0.214  -0.094   0.107
    1UNL     O4   26   0.181  -0.206   0.136
    1UNL    C21   27  -0.222  -0.044   0.248
    1UNL     H1   28   0.042  -0.193  -0.382
    1UNL     H2   29  -0.006  -0.013  -0.369
    1UNL     H3   30   0.160  -0.076  -0.330
    1UNL     H4   31  -0.006  -0.197   0.152
    1UNL     H5   32  -0.073  -0.223  -0.011
    1UNL     H6   33  -0.238  -0.252   0.196
    1UNL     H7   34  -0.422  -0.102   0.075
    1UNL     H8   35  -0.332  -0.173  -0.055
    1UNL     H9   36  -0.351   0.105   0.026
    1UNL    H10   37  -0.219  -0.032  -0.212
    1UNL    H11   38  -0.468  -0.060  -0.187
    1UNL    H12   39  -0.505   0.103  -0.158
    1UNL    H13   40  -0.440   0.042  -0.314
    1UNL    H14   41  -0.135   0.173  -0.200
    1UNL    H15   42  -0.118   0.187   0.020
    1UNL    H16   43  -0.020   0.239   0.249
    1UNL    H17   44  -0.066   0.158   0.389
    1UNL    H18   45   0.068  -0.036   0.322
    1UNL    H19   46   0.165   0.100   0.297
    1UNL    H20   47   0.129   0.177  -0.022
    1UNL    H21   48   0.416   0.272  -0.076
    1UNL    H22   49   0.639   0.167  -0.099
    1UNL    H23   50   0.664  -0.071  -0.054
    1UNL    H24   51   0.481  -0.210   0.038
    1UNL    H25   52  -0.193  -0.075   0.351
    1UNL    H26   53  -0.332  -0.012   0.259
   0.00000   0.00000   0.00000   0.00000   0.00000   0.00000   0.00000   0.00000   0.00000
Generated with MDTraj, t= 98.0
 53
    1UNL     C1    1   0.040  -0.113  -0.318
    1UNL     O1    2  -0.010  -0.125  -0.187
    1UNL     C2    3   0.008  -0.009  -0.120
    1UNL     O2    4   0.049   0.092  -0.174
    1UNL     C3    5  -0.017  -0.027   0.035
    1UNL     C4    6  -0.079  -0.162   0.063
    1UNL     C5    7  -0.212  -0.151   0.133
    1UNL     C6    8  -0.317  -0.096   0.037
    1UNL     C7    9  -0.272   0.047  -0.011
    1UNL     C8   10  -0.263   0.056  -0.167
    1UNL     C9   11  -0.402   0.032  -0.237
    1UNL     O3   12  -0.209   0.178  -0.218
    1UNL    C10   13  -0.135   0.080   0.061
    1UNL     N1   14  -0.156   0.082   0.200
    1UNL    C11   15  -0.046   0.136   0.280
    1UNL    C12   16   0.077   0.052   0.262
    1UNL    C13   17   0.107   0.014   0.120
    1UNL     N2   18   0.181   0.130   0.058
    1UNL    C14   19   0.310   0.092   0.018
    1UNL    C15   20   0.407   0.165  -0.050
    1UNL    C16   21   0.534   0.108  -0.070
    1UNL    C17   22   0.548  -0.025  -0.055
    1UNL    C18   23   0.452  -0.103   0.006
    1UNL    C19   24   0.333  -0.041   0.050
    1UNL    C20   25   0.212  -0.098   0.119
    1UNL     O4   26   0.191  -0.207   0.163
    1UNL    C21   27  -0.198  -0.057   0.247
    1UNL     H1   28   0.028  -0.208  -0.362
    1UNL     H2   29  -0.023  -0.038  -0.379
    1UNL     H3   30   0.141  -0.072  -0.320
    1UNL     H4   31  -0.012  -0.218   0.135
    1UNL     H5   32  -0.100  -0.218  -0.027
    1UNL     H6   33  -0.240  -0.251   0.177
    1UNL     H7   34  -0.423  -0.092   0.066
    1UNL     H8   35  -0.326  -0.169  -0.050
    1UNL     H9   36  -0.339   0.121   0.032
    1UNL    H10   37  -0.194  -0.030  -0.203
    1UNL    H11   38  -0.454  -0.062  -0.216
    1UNL    H12   39  -0.480   0.107  -0.210
    1UNL    H13   40  -0.384   0.026  -0.344
    1UNL    H14   41  -0.109   0.161  -0.204
    1UNL    H15   42  -0.087   0.180   0.035
    1UNL    H16   43  -0.018   0.240   0.254
    1UNL    H17   44  -0.079   0.153   0.382
    1UNL    H18   45   0.063  -0.044   0.310
    1UNL    H19   46   0.165   0.095   0.315
    1UNL    H20   47   0.121   0.190  -0.005
    1UNL    H21   48   0.391   0.269  -0.079
    1UNL    H22   49   0.595   0.163  -0.133
    1UNL    H23   50   0.636  -0.069  -0.093
    1UNL    H24   51   0.456  -0.210   0.014
    1UNL    H25   52  -0.127  -0.094   0.335
    1UNL    H26   53  -0.303  -0.049   0.289
   0.00000   0.00000   0.00000   0.00000   0.00000   0.00000   0.00000   0.00000   0.00000
Generated with MDTraj, t= 99.0
 53
    1UNL     C1    1   0.053  -0.114  -0.312
    1UNL     O1    2   0.013  -0.131  -0.177
    1UNL     C2    3   0.023  -0.017  -0.108
    1UNL     O2    4   0.064   0.086  -0.157
    1UNL     C3    5  -0.018  -0.024   0.040
    1UNL     C4    6  -0.067  -0.167   0.084
    1UNL     C5    7  -0.222  -0.152   0.137
    1UNL     C6    8  -0.299  -0.106   0.011
    1UNL     C7    9  -0.268   0.033  -0.024
    1UNL     C8   10  -0.270   0.056  -0.176
    1UNL     C9   11  -0.413   0.072  -0.237
    1UNL     O3   12  -0.194   0.169  -0.202
    1UNL    C10   13  -0.136   0.077   0.057
    1UNL     N1   14  -0.160   0.086   0.196
    1UNL    C11   15  -0.050   0.127   0.284
    1UNL    C12   16   0.069   0.036   0.266
    1UNL    C13   17   0.110   0.016   0.123
    1UNL     N2   18   0.180   0.135   0.067
    1UNL    C14   19   0.306   0.104   0.018
    1UNL    C15   20   0.394   0.162  -0.063
    1UNL    C16   21   0.503   0.097  -0.108
    1UNL    C17   22   0.531  -0.031  -0.069
    1UNL    C18   23   0.440  -0.101   0.005
    1UNL    C19   24   0.332  -0.029   0.052
    1UNL    C20   25   0.218  -0.091   0.118
    1UNL     O4   26   0.217  -0.203   0.157
    1UNL    C21   27  -0.235  -0.040   0.249
    1UNL     H1   28   0.019  -0.206  -0.355
    1UNL     H2   29   0.001  -0.028  -0.363
    1UNL     H3   30   0.158  -0.086  -0.309
    1UNL     H4   31   0.001  -0.211   0.161
    1UNL     H5   32  -0.064  -0.238  -0.007
    1UNL     H6   33  -0.258  -0.249   0.181
    1UNL     H7   34  -0.405  -0.120   0.027
    1UNL     H8   35  -0.283  -0.165  -0.088
    1UNL     H9   36  -0.341   0.102   0.016
    1UNL    H10   37  -0.222  -0.033  -0.231
    1UNL    H11   38  -0.483  -0.007  -0.217
    1UNL    H12   39  -0.460   0.160  -0.188
    1UNL    H13   40  -0.400   0.084  -0.347
    1UNL    H14   41  -0.105   0.139  -0.197
    1UNL    H15   42  -0.092   0.177   0.029
    1UNL    H16   43  -0.024   0.232   0.259
    1UNL    H17   44  -0.076   0.139   0.389
    1UNL    H18   45   0.029  -0.059   0.308
    1UNL    H19   46   0.153   0.063   0.330
    1UNL    H20   47   0.117   0.192   0.002
    1UNL    H21   48   0.367   0.251  -0.113
    1UNL    H22   49   0.582   0.154  -0.164
    1UNL    H23   50   0.616  -0.087  -0.109
    1UNL    H24   51   0.456  -0.201   0.040
    1UNL    H25   52  -0.179  -0.077   0.347
    1UNL    H26   53  -0.342  -0.014   0.282
   0.00000   0.00000   0.00000   0.00000   0.00000   0.00000   0.00000   0.00000   0.00000
