1TPCN01718
10
    1res  C1    1    0.010  -0.151   0.294
    1res  C2    2   -0.221  -0.166   0.398
    1res  C3    3   -0.252  -0.073   0.151
    1res  C4    4   -0.277   0.219  -0.028
    1res  C5    5   -0.113   0.007  -0.181
    1res  C6    6   -0.205  -0.176  -0.157
    1res  C7    7    0.011  -0.241  -0.001
    1res  C8    8    0.242   0.076  -0.098
    1res  C9    9    0.507   0.163  -0.070
    1res  C10   10    0.029  -0.146  -0.303
  10.00000  10.00000  10.00000
