[ moleculetype ]
; name        nrexcl
res           1

[ atoms ]
;    nr  type  resnr resid  atom  cgnr     charge       mass
      1 TC6       1 res   C1        1      0.000     36.000
      2 TC6       1 res   C2        2      0.000     36.000
      3 TC6       1 res   C3        3      0.000     36.000
      4 TC6       1 res   C4        4      0.000     36.000

[ bonds ]
;  ai    aj   funct      b0(nm)          k(kJ/mol/nm^2)
    1     2     1      0.33295          13552.4
    3     4     1      0.33335          13527.0

[ angles ]
;  ai    aj    ak  funct     th0(deg)        k(kJ/mol/rad^2)

[ dihedrals ]
;  ai    aj    ak    al  funct   phi0(deg)        k(kJ/mol)   mult
