1TPCN06003
26
    1res  C1    1   -1.041  -0.082  -0.008
    1res  C2    2   -0.816  -0.047   0.119
    1res  C3    3   -0.625   0.181   0.061
    1res  C4    4   -0.586   0.213  -0.227
    1res  C5    5   -0.417   0.032  -0.108
    1res  C6    6   -0.252  -0.277  -0.030
    1res  C7    7   -0.091  -0.091  -0.225
    1res  C8    8    0.035  -0.248   0.019
    1res  C9    9   -0.027   0.157   0.022
    1res  C10   10    0.207   0.199  -0.113
    1res  C11   11    0.387   0.150   0.037
    1res  C12   12    0.539  -0.058   0.012
    1res  C13   13    0.557  -0.394   0.066
    1res  C14   14    0.615  -0.231  -0.204
    1res  C15   15    0.604  -0.018  -0.307
    1res  C16   16    0.656   0.108  -0.136
    1res  C17   17    0.778   0.257  -0.064
    1res  C18   18    0.884   0.119   0.179
    1res  C19   19    1.075   0.290   0.164
    1res  C20   20    1.008   0.404  -0.056
    1res  C21   21    0.964   0.242  -0.197
    1res  C22   22    0.298   0.091   0.260
    1res  C23   23    0.004  -0.063   0.255
    1res  C24   24   -0.280  -0.209   0.233
    1res  C25   25   -0.407   0.011   0.218
    1res  C26   26   -0.662  -0.339  -0.117
  10.00000  10.00000  10.00000
