1TPCN03165
21
    1res  C1    1   -0.348   0.349  -0.102
    1res  C2    2   -0.426   0.118  -0.019
    1res  C3    3   -0.378  -0.098   0.020
    1res  C4    4   -0.183  -0.164   0.059
    1res  C5    5    0.111  -0.042   0.161
    1res  C6    6    0.274  -0.157   0.001
    1res  C7    7    0.463   0.019   0.011
    1res  C8    8    0.632   0.150  -0.006
    1res  C9    9    0.525   0.381   0.062
    1res  C10   10    0.566   0.601   0.070
    1res  C11   11    0.758   0.419  -0.043
    1res  C12   12    0.702  -0.044  -0.082
    1res  C13   13    0.357  -0.049  -0.264
    1res  C14   14    0.005  -0.087  -0.179
    1res  C15   15   -0.272  -0.246   0.301
    1res  C16   16   -0.222  -0.482   0.267
    1res  C17   17   -0.490  -0.325   0.256
    1res  C18   18   -0.479  -0.299   0.018
    1res  C19   19   -0.635   0.032   0.030
    1res  C20   20   -0.743   0.211  -0.041
    1res  C21   21   -0.576   0.275  -0.233
  10.00000  10.00000  10.00000
