[ moleculetype ]
; name        nrexcl
res           1

[ atoms ]
;    nr  type  resnr resid  atom  cgnr     charge       mass
      1 SN6d      1 res   C1        1      0.000     54.000
      2 TC5       1 res   C2        2      0.000     36.000
      3 TC5e      1 res   C3        3      0.000     36.000
      4 TC5       1 res   C4        4      0.000     36.000
      5 TC5       1 res   C5        5      0.000     36.000

[ constraints ]
;  ai    aj   funct      b0(nm)
    1     2     1      0.35876
    3     5     1      0.25156
    2     3     1      0.25209
    4     5     1      0.28889
    3     4     1      0.25222
    1     3     1      0.28096

[ bonds ]
;  ai    aj   funct      b0(nm)          k(kJ/mol/nm^2)

[ angles ]
;  ai    aj    ak  funct     th0(deg)        k(kJ/mol/rad^2)
    1     2     3     1     51.20580          7123.79
    1     3     2     1     84.42607          4514.18
    1     3     4     1    165.60641          1072.36
    1     3     5     1     96.36875          1130.32
    2     1     3     1     44.36813         13082.67
    2     3     4     1    109.12019          1404.99
    2     3     5     1    175.93097          2124.13
    3     4     5     1     54.90253          9432.76
    3     5     4     1     55.11876          8165.45
    4     3     5     1     69.97868          6079.82

[ dihedrals ]
;  ai    aj    ak    al  funct   phi0(deg)        k(kJ/mol)   mult
    1     2     3     4     1     -0.93389       10.029      1
    1     2     3     5     1    -23.49118        7.795      1
    1     3     4     5     1    177.24438       24.848      1
    1     3     5     4     1     -1.85233        9.295      1
    2     1     3     4     1     -0.50387       26.817      1
    2     1     3     5     1      0.91123        7.069      1
    2     3     4     5     1      0.00894        7.800      1
    2     3     5     4     1   -170.55993        8.958      1
