[ moleculetype ]
; name        nrexcl
res           1

[ atoms ]
;    nr  type resnr resid  atom  cgnr     charge       mass
      1 SC4       1 res   C1        1      0.000     54.000
      2 TN6a      1 res   C2        2      0.000     36.000
      3 TN4a      1 res   C3        3      0.000     36.000
      4 P1        1 res   C4        4      0.000     72.000
      5 TN4a      1 res   C5        5      0.000     36.000
      6 TN3r      1 res   C6        6      0.000     36.000
      7 SN6       1 res   C7        7      0.000     54.000
      8 TC4       1 res   C8        8      0.000     36.000
      9 SN3r      1 res   C9        9      0.000     54.000
     10 N6a       1 res   C10      10      0.000     72.000
     11 TC3       1 res   C11      11      0.000     36.000

[ bonds ]
;  ai    aj   funct      b0(nm)        k
    1     2     1      0.26090    20000
    1     3     1      0.31387    20000
    1     9     1      0.31900    20000
    2     3     1      0.27384    20000
    3     4     1      0.27014    20000
    4     5     1      0.28136    20000
    5     6     1      0.29298    20000
    5     7     1      0.25856    20000
    5     8     1      0.26302    20000
    7     8     1      0.29970    20000
    8     9     1      0.33208    20000
    9    10     1      0.36962    20000
   10    11     1      0.27841    20000
