[ moleculetype ]
; name        nrexcl
res           1

[ atoms ]
;    nr  type  resnr resid  atom  cgnr     charge       mass
      1 N4a       1 res   C1        1      0.000     72.000
      2 TC5       1 res   C2        2      0.000     36.000
      3 TN4a      1 res   C3        3      0.000     36.000
      4 SP4       1 res   C4        4      0.000     54.000
      5 TN4a      1 res   C5        5      0.000     36.000
      6 TP1       1 res   C6        6      0.000     36.000
      7 SP4       1 res   C7        7      0.000     54.000
      8 SC3       1 res   C8        8      0.000     54.000
      9 TC5       1 res   C9        9      0.000     36.000
     10 TC5       1 res   C10      10      0.000     36.000
     11 TN6a      1 res   C11      11      0.000     36.000
     12 TC5       1 res   C12      12      0.000     36.000
     13 TN6d      1 res   C13      13      0.000     36.000
     14 TC5       1 res   C14      14      0.000     36.000
     15 TC5       1 res   C15      15      0.000     36.000
     16 TC5       1 res   C16      16      0.000     36.000

[ constraints ]
;  ai    aj   funct      b0(nm)
    5     7     1      0.26329
   13    14     1      0.21959
   10    12     1      0.25597
   14    15     1      0.24942
    5     6     1      0.21977
    4     7     1      0.28460
   15    16     1      0.29110
    1     2     1      0.32785
   10    11     1      0.24788
    2     3     1      0.25267
   11    12     1      0.22081
    3     8     1      0.30009
   12    14     1      0.27653
   10    13     1      0.21533
    3     4     1      0.30814
    2     8     1      0.29521
   14    16     1      0.24972
    8     9     1      0.20551

[ bonds ]
;  ai    aj   funct      b0(nm)          k(kJ/mol/nm^2)
    4     5     1      0.24335          17261.1
    9    10     1      0.25284          14691.8

[ angles ]
;  ai    aj    ak  funct     th0(deg)        k(kJ/mol/rad^2)
    1     2     3     1    153.99133           528.36
    1     2     8     1     90.46137           890.04
    2     3     4     1    134.20614           129.01
    2     3     8     1     63.88958          2649.38
    2     8     3     1     50.21352          2903.75
    2     8     9     1    150.48468          1333.93
    3     2     8     1     65.89693          2101.93
    3     4     5     1     67.02437           236.46
    3     4     7     1    124.91535           299.69
    3     8     9     1    104.77243           995.42
    4     3     8     1    129.34306           503.09
    4     5     6     1    168.36692           284.53
    4     5     7     1     68.31266           625.84
    4     7     5     1     52.55627           829.40
    5     4     7     1     59.13050          2581.30
    6     5     7     1    105.14629            87.56
    8     9    10     1    116.31430           342.26
    9    10    11     1    107.33138            55.56
    9    10    12     1    149.94050           100.37
    9    10    13     1     88.57795            53.25
   10    11    12     1     65.91404          5100.74
   10    12    11     1     62.13436          6020.81
   10    12    14     1     64.91688          6140.70
   10    13    14     1     82.33893          3052.81
   11    10    12     1     51.95159          7490.27
   11    10    13     1    161.46517          1605.66
   11    12    14     1    126.84880          2934.17
   12    10    13     1    110.24428          2270.59
   12    14    13     1    102.04105          2615.25
   12    14    15     1    160.79963          1295.46
   12    14    16     1     90.06846          1752.43
   13    14    15     1     96.38876          1284.71
   13    14    16     1    166.54900          1011.72
   14    15    16     1     54.37000          8522.30
   14    16    15     1     54.27195          8940.25
   15    14    16     1     71.35804          6308.33

[ dihedrals ]
;  ai    aj    ak    al  funct   phi0(deg)        k(kJ/mol)   mult
    1     2     3     4     1     41.38346       25.214      1
    1     2     3     8     1    162.02436       24.726      1
    1     2     8     3     1     -6.77623       15.643      1
    1     2     8     9     1     28.04399       20.336      1
    2     3     4     5     1     23.95252       23.458      1
    2     3     4     7     1     35.13812       27.342      1
    2     3     8     9     1     17.91784       10.773      1
    2     8     3     4     1    -52.93690       17.075      1
    2     8     9    10     1    154.10961       16.355      1
    3     2     8     9     1   -144.73607       18.438      1
    3     4     5     6     1     -1.01453       10.005      1
    3     4     5     7     1     -6.92698       15.664      1
    3     4     7     5     1    168.64345       18.292      1
    3     8     9    10     1   -177.00044       14.329      1
    4     3     2     8     1     57.89827       12.192      1
    4     3     8     9     1    141.64912       18.993      1
    4     7     5     6     1     -0.95013       12.883      1
    5     4     3     8     1    -65.48770       25.097      1
    6     5     4     7     1    173.70112        5.986      1
    7     4     3     8     1    -57.28786       28.077      1
    8     9    10    11     1    -71.37511       28.050      1
    8     9    10    12     1    -29.56694       17.784      1
    8     9    10    13     1     98.37091       26.514      1
    9    10    11    12     1    -23.91073       10.754      1
    9    10    12    11     1    125.51408       23.248      1
    9    10    12    14     1    -54.66787       23.991      1
    9    10    13    14     1     19.81009       12.142      1
   10    11    12    14     1   -179.91174       10.756      1
   10    12    14    13     1    178.65525        8.551      1
   10    12    14    15     1      0.92528       23.522      1
   10    12    14    16     1     -0.06998       10.720      1
   10    13    14    12     1   -178.03558        9.285      1
   10    13    14    15     1      1.24966       11.424      1
   10    13    14    16     1     -0.05786       27.277      1
   11    10    12    14     1      0.09633        9.288      1
   11    10    13    14     1    174.58953       25.831      1
   11    12    10    13     1      2.92405       10.091      1
   11    12    14    13     1   -179.87858       12.902      1
   11    12    14    15     1      0.05745       21.272      1
   11    12    14    16     1     -0.16622       13.638      1
   12    10    13    14     1    177.90965       10.742      1
   12    11    10    13     1   -175.50456       22.860      1
   12    14    15    16     1    177.39673       21.494      1
   12    14    16    15     1     -1.22645       10.020      1
   13    10    12    14     1   -178.05228        9.269      1
   13    14    15    16     1     -0.13597       12.149      1
   13    14    16    15     1    177.77443       28.582      1
