1TPCN00405
10
    1res  C1    1   -0.337  -0.226  -0.137
    1res  C2    2   -0.241   0.019  -0.051
    1res  C3    3   -0.356   0.042   0.139
    1res  C4    4   -0.121  -0.106   0.129
    1res  C5    5   -0.308   0.273  -0.068
    1res  C6    6   -0.024   0.172  -0.075
    1res  C7    7    0.195  -0.005  -0.120
    1res  C8    8    0.323  -0.275  -0.199
    1res  C9    9    0.429  -0.006   0.046
    1res  C10   10    0.239   0.203   0.056
  10.00000  10.00000  10.00000
