[ moleculetype ]
; name        nrexcl
res           1

[ atoms ]
;    nr  type resnr resid  atom  cgnr     charge       mass
      1 SN4a      1 res   C1        1      0.000     54.000
      2 TC3       1 res   C2        2      0.000     36.000
      3 SC4       1 res   C3        3      0.000     54.000
      4 TC3       1 res   C4        4      0.000     36.000
      5 SC4       1 res   C5        5      0.000     54.000
      6 SC4       1 res   C6        6      0.000     54.000
      7 TC3       1 res   C7        7      0.000     36.000
      8 TN6       1 res   C8        8      0.000     36.000
      9 SN4a      1 res   C9        9      0.000     54.000
     10 SP2       1 res   C10      10      0.000     54.000
     11 TN6       1 res   C11      11      0.000     36.000
     12 TN4a      1 res   C12      12      0.000     36.000
     13 TC4       1 res   C13      13      0.000     36.000
     14 TN6       1 res   C14      14      0.000     36.000
     15 TN6       1 res   C15      15      0.000     36.000
     16 TN6       1 res   C16      16      0.000     36.000
     17 TN6       1 res   C17      17      0.000     36.000
     18 TN6       1 res   C18      18      0.000     36.000
     19 SN4a      1 res   C19      19      0.000     54.000
     20 TP1       1 res   C20      20      0.000     36.000
     21 TN6       1 res   C21      21      0.000     36.000
     22 TN6       1 res   C22      22      0.000     36.000
     23 TN6       1 res   C23      23      0.000     36.000
     24 SC4       1 res   C24      24      0.000     54.000
     25 TC3       1 res   C25      25      0.000     36.000
     26 SC5       1 res   C26      26      0.000     54.000
     27 SC4       1 res   C27      27      0.000     54.000
     28 TN6       1 res   C28      28      0.000     36.000
     29 TN6       1 res   C29      29      0.000     36.000
     30 TP1       1 res   C30      30      0.000     36.000

[ bonds ]
;  ai    aj   funct      b0(nm)        k
    1     2     1      0.34282    20000
    2     3     1      0.28552    20000
    2    26     1      0.34258    20000
    3     4     1      0.33408    20000
    3     5     1      0.26656    20000
    3    26     1      0.37107    20000
    4     5     1      0.37444    20000
    5     6     1      0.26031    20000
    5    25     1      0.30705    20000
    6     7     1      0.28429    20000
    6    24     1      0.34168    20000
    6    25     1      0.36560    20000
    7     8     1      0.24808    20000
    8     9     1      0.25688    20000
    8    24     1      0.24348    20000
    9    10     1      0.34330    20000
    9    11     1      0.27403    20000
    9    18     1      0.24920    20000
   11    12     1      0.21787    20000
   11    17     1      0.20918    20000
   12    13     1      0.30421    20000
   12    16     1      0.20776    20000
   13    14     1      0.29949    20000
   14    15     1      0.24949    20000
   15    16     1      0.23616    20000
   17    18     1      0.20672    20000
   18    19     1      0.22953    20000
   19    20     1      0.31745    20000
   19    21     1      0.29744    20000
   19    23     1      0.27721    20000
   21    22     1      0.22805    20000
   22    23     1      0.25110    20000
   26    27     1      0.27897    20000
   26    29     1      0.33121    20000
   26    30     1      0.35606    20000
   27    28     1      0.25460    20000
   28    29     1      0.24390    20000
