[ moleculetype ]
; name        nrexcl
res           1

[ atoms ]
;    nr  type resnr resid  atom  cgnr     charge       mass
      1 TC5       1 res   C1        1      0.000     36.000
      2 TP1d      1 res   C2        2      0.000     36.000
      3 TC3       1 res   C3        3      0.000     36.000
      4 SC3       1 res   C4        4      0.000     54.000
      5 SP2       1 res   C5        5      0.000     54.000
      6 TC3       1 res   C6        6      0.000     36.000
      7 SC4       1 res   C7        7      0.000     54.000
      8 TC3       1 res   C8        8      0.000     36.000
      9 SC4       1 res   C9        9      0.000     54.000
     10 SC4       1 res   C10      10      0.000     54.000
     11 SC3       1 res   C11      11      0.000     54.000
     12 SN4a      1 res   C12      12      0.000     54.000
     13 TC4       1 res   C13      13      0.000     36.000
     14 SP2       1 res   C14      14      0.000     54.000
     15 TC3       1 res   C15      15      0.000     36.000

[ bonds ]
;  ai    aj   funct      b0(nm)        k
    1     2     1      0.26758    20000
    1     3     1      0.31597    20000
    3     4     1      0.19445    20000
    4     5     1      0.27794    20000
    4     6     1      0.25614    20000
    4     7     1      0.36365    20000
    6     7     1      0.30582    20000
    7     8     1      0.31085    20000
    7     9     1      0.28790    20000
    8     9     1      0.36980    20000
    9    10     1      0.37561    20000
    9    15     1      0.28284    20000
   10    11     1      0.28701    20000
   10    13     1      0.39251    20000
   10    15     1      0.37432    20000
   11    12     1      0.45476    20000
   11    13     1      0.38492    20000
   13    14     1      0.29681    20000
