[ moleculetype ]
; name        nrexcl
res           1

[ atoms ]
;    nr  type resnr resid  atom  cgnr     charge       mass
      1 TC5       1 res   C1        1      0.000     36.000
      2 TP1d      1 res   C2        2      0.000     36.000
      3 SN4a      1 res   C3        3      0.000     54.000
      4 TN3r      1 res   C4        4      0.000     36.000
      5 SN4a      1 res   C5        5      0.000     54.000
      6 TN6       1 res   C6        6      0.000     36.000
      7 TP1       1 res   C7        7      0.000     36.000
      8 TN6       1 res   C8        8      0.000     36.000
      9 TN6       1 res   C9        9      0.000     36.000
     10 TN6       1 res   C10      10      0.000     36.000
     11 TN6       1 res   C11      11      0.000     36.000
     12 SP1       1 res   C12      12      0.000     54.000
     13 TC3       1 res   C13      13      0.000     36.000
     14 SC2       1 res   C14      14      0.000     54.000

[ bonds ]
;  ai    aj   funct      b0(nm)        k
    1     2     1      0.26743    20000
    1    12     1      0.26044    20000
    2     3     1      0.31210    20000
    3     4     1      0.28873    20000
    3     9     1      0.29734    20000
    3    11     1      0.26567    20000
    4     5     1      0.30762    20000
    5     6     1      0.27303    20000
    5     8     1      0.23746    20000
    6     7     1      0.25911    20000
    6     8     1      0.21562    20000
    9    10     1      0.24470    20000
   10    11     1      0.24395    20000
   12    13     1      0.24539    20000
   13    14     1      0.29108    20000
