1TPCN01503
15
    1res  C1    1   -0.391   0.184  -0.254
    1res  C2    2   -0.043   0.345  -0.073
    1res  C3    3    0.247   0.274  -0.015
    1res  C4    4    0.035   0.049  -0.096
    1res  C5    5   -0.018   0.201   0.202
    1res  C6    6    0.027   0.094   0.351
    1res  C7    7   -0.096  -0.082   0.134
    1res  C8    8   -0.280  -0.152   0.018
    1res  C9    9   -0.301  -0.248  -0.219
    1res  C10   10   -0.522  -0.378  -0.162
    1res  C11   11   -0.396  -0.345  -0.317
    1res  C12   12    0.304  -0.097   0.121
    1res  C13   13    0.490  -0.237   0.028
    1res  C14   14    0.562  -0.406  -0.153
    1res  C15   15    0.283  -0.328  -0.171
  10.00000  10.00000  10.00000
