113797-63-2
6
    1res  C1    1   -0.122  -0.077  -0.039
    1res  C2    2   -0.345  -0.025  -0.027
    1res  C3    3    0.040  -0.023  -0.008
    1res  C4    4    0.267  -0.125  -0.053
    1res  C5    5    0.239   0.107   0.061
    1res  C6    6   -0.106   0.121   0.058
  10.00000  10.00000  10.00000
