1TPCN00574
16
    1res  C1    1   -0.422  -0.013  -0.267
    1res  C2    2   -0.220  -0.030  -0.141
    1res  C3    3   -0.044  -0.219  -0.085
    1res  C4    4   -0.292  -0.350  -0.057
    1res  C5    5   -0.225  -0.216   0.182
    1res  C6    6    0.090  -0.149   0.195
    1res  C7    7    0.218   0.055   0.110
    1res  C8    8    0.365   0.201   0.005
    1res  C9    9    0.584   0.106  -0.277
    1res  C10   10    0.884   0.100  -0.340
    1res  C11   11    0.797   0.178  -0.075
    1res  C12   12    0.361  -0.056   0.289
    1res  C13   13   -0.335   0.094   0.152
    1res  C14   14   -0.699   0.127   0.104
    1res  C15   15   -0.879   0.233  -0.048
    1res  C16   16   -0.608   0.310  -0.118
  10.00000  10.00000  10.00000
