[ moleculetype ]
; name        nrexcl
res           1

[ atoms ]
;    nr  type  resnr resid  atom  cgnr     charge       mass
      1 TN4a      1 res   C1        1      0.000     36.000
      2 SN6       1 res   C2        2      0.000     54.000
      3 SP2       1 res   C3        3      0.000     54.000
      4 SN4a      1 res   C4        4      0.000     54.000
      5 TP1       1 res   C5        5      0.000     36.000
      6 SP4       1 res   C6        6      0.000     54.000
      7 TN6       1 res   C7        7      0.000     36.000
      8 TC3       1 res   C8        8      0.000     36.000
      9 TC3       1 res   C9        9      0.000     36.000
     10 TP1       1 res   C10      10      0.000     36.000

[ constraints ]
;  ai    aj   funct      b0(nm)
    1     2     1      0.24195
    2     3     1      0.36675
    4     5     1      0.31657
    2     9     1      0.24220
    3     4     1      0.34178
    2     8     1      0.30872
    8     9     1      0.27780
    4     7     1      0.26836

[ bonds ]
;  ai    aj   funct      b0(nm)          k(kJ/mol/nm^2)
    9    10     1      0.23767          13245.8
    6     7     1      0.26941          11975.9
    4     6     1      0.24980          16581.2

[ angles ]
;  ai    aj    ak  funct     th0(deg)        k(kJ/mol/rad^2)
    1     2     3     1     61.23862           470.34
    1     2     8     1     81.84841           511.68
    1     2     9     1    138.51214           449.75
    2     3     4     1    118.97533           421.69
    2     8     9     1     48.40477          2428.03
    2     9     8     1     72.50378          1068.03
    2     9    10     1    162.22015           273.81
    3     2     8     1     56.34115           982.94
    3     2     9     1     85.01575           465.86
    3     4     5     1    141.88768           182.80
    3     4     6     1    120.04826           206.85
    3     4     7     1     67.55192           215.76
    4     6     7     1     62.27799           386.39
    4     7     6     1     55.26584           978.76
    5     4     6     1     73.68918           665.78
    5     4     7     1    134.25773           275.20
    6     4     7     1     62.45367           636.06
    8     2     9     1     59.09149          1945.40
    8     9    10     1     97.86191           565.95

[ dihedrals ]
;  ai    aj    ak    al  funct   phi0(deg)        k(kJ/mol)   mult
    1     2     3     4     1    124.30870       25.651      1
    1     2     8     9     1    -13.14137       10.053      1
    1     2     9     8     1    158.19096       15.074      1
    1     2     9    10     1    112.50239       23.795      1
    2     3     4     5     1   -167.93837       20.403      1
    2     3     4     6     1    -64.06870       17.457      1
    2     3     4     7     1    -30.04361       19.077      1
    2     8     9    10     1    -13.97728       15.009      1
    3     2     8     9     1    -73.03872       10.093      1
    3     2     9     8     1    127.18107        7.038      1
    3     2     9    10     1     81.47645       27.050      1
    3     4     6     7     1   -142.33098       18.295      1
    3     4     7     6     1     35.52884       18.326      1
    4     3     2     8     1   -137.46988       26.478      1
    4     3     2     9     1    -78.19785       24.861      1
    5     4     6     7     1      2.76115       20.062      1
    5     4     7     6     1    178.63161       22.865      1
    8     2     9    10     1    134.24520       30.353      1
