1TPCN01649
9
    1res  C1    1    0.441   0.067  -0.182
    1res  C2    2    0.252  -0.035   0.088
    1res  C3    3   -0.096   0.076   0.276
    1res  C4    4   -0.166   0.038  -0.011
    1res  C5    5   -0.309   0.372   0.056
    1res  C6    6   -0.358  -0.047  -0.164
    1res  C7    7   -0.006  -0.133  -0.126
    1res  C8    8    0.059  -0.384  -0.112
    1res  C9    9    0.132  -0.272   0.101
  10.00000  10.00000  10.00000
