[ moleculetype ]
; name        nrexcl
res           1

[ atoms ]
;    nr  type  resnr resid  atom  cgnr     charge       mass
      1 N4a       1 res   C1        1      0.000     72.000
      2 TN1       1 res   C2        2      0.000     36.000
      3 TC5       1 res   C3        3      0.000     36.000
      4 TC5       1 res   C4        4      0.000     36.000
      5 TC5       1 res   C5        5      0.000     36.000
      6 SN5a      1 res   C6        6      0.000     54.000
      7 TC3       1 res   C7        7      0.000     36.000
      8 SC3       1 res   C8        8      0.000     54.000
      9 TN1       1 res   C9        9      0.000     36.000
     10 SC3       1 res   C10      10      0.000     54.000
     11 TC3       1 res   C11      11      0.000     36.000
     12 SN6       1 res   C12      12      0.000     54.000
     13 N4a       1 res   C13      13      0.000     72.000

[ constraints ]
;  ai    aj   funct      b0(nm)
    1     2     1      0.29398
   10    11     1      0.39350
    3     5     1      0.20754
    2     3     1      0.17932
    4     5     1      0.25157
    7    12     1      0.24273
   10    12     1      0.37612
    3     4     1      0.25090
    7     8     1      0.22654
    5     6     1      0.20499
    8    10     1      0.38297
    3     7     1      0.19289
    7    11     1      0.25284
    9    10     1      0.24854
   12    13     1      0.34075
    2     7     1      0.18095
    8     9     1      0.27876

[ bonds ]
;  ai    aj   funct      b0(nm)          k(kJ/mol/nm^2)

[ angles ]
;  ai    aj    ak  funct     th0(deg)        k(kJ/mol/rad^2)
    1     2     3     1    125.24716           229.63
    1     2     7     1    144.91729           149.42
    2     3     4     1    174.12173           999.67
    2     3     5     1    109.94163          1598.40
    2     3     7     1     58.02187          3916.26
    2     7     3     1     57.21119          3935.79
    2     7     8     1    132.60601           913.67
    2     7    11     1     98.18214          1527.98
    2     7    12     1    106.51145          1433.80
    3     2     7     1     64.76713          2117.08
    3     4     5     1     48.78975          9367.86
    3     5     4     1     65.43391          5959.65
    3     5     6     1    151.41986          1461.12
    3     7     8     1     99.84486           998.81
    3     7    11     1    106.94103           807.42
    3     7    12     1    159.24894          1084.16
    4     3     5     1     65.77638          5450.83
    4     3     7     1    125.84037          1619.91
    4     5     6     1    142.64189          1453.34
    5     3     7     1    163.80610           854.65
    7     8     9     1    116.57856          1841.51
    7     8    10     1     83.05056          1963.74
    7    11    10     1     77.87507          4186.37
    7    12    10     1     82.63114          2866.17
    7    12    13     1    108.85199           311.98
    8     7    11     1    128.95520          1856.70
    8     7    12     1     82.21965          1066.62
    8     9    10     1     93.00379          1027.43
    8    10     9     1     46.61170          2514.38
    8    10    11     1     67.71263          4531.37
    8    10    12     1     47.97508          3267.08
    9     8    10     1     40.38452          3729.48
    9    10    11     1    104.14886          1780.52
    9    10    12     1     92.84077           707.57
   10    12    13     1    124.43748           473.32
   11     7    12     1     86.68098          2581.59
   11    10    12     1     52.40133          6141.50

[ dihedrals ]
;  ai    aj    ak    al  funct   phi0(deg)        k(kJ/mol)   mult
    1     2     3     4     1    127.16306       27.315      1
    1     2     3     5     1    132.23254       17.761      1
    1     2     3     7     1    -33.83856       19.039      1
    1     2     7     3     1     53.01993       20.576      1
    1     2     7     8     1    126.50262       22.451      1
    1     2     7    11     1    -49.43741       21.311      1
    1     2     7    12     1   -140.37760       22.686      1
    2     3     4     5     1    179.40338       28.254      1
    2     3     5     4     1     -1.05273        9.994      1
    2     3     5     6     1    179.00509       15.711      1
    2     3     7     8     1     44.05141        7.775      1
    2     3     7    11     1    -91.03119        7.073      1
    2     3     7    12     1    139.37113       15.694      1
    2     7     3     4     1     -0.01494       12.133      1
    2     7     3     5     1    142.42292       18.575      1
    2     7     8     9     1     11.16007       11.465      1
    2     7     8    10     1    -11.02413        8.515      1
    2     7    11    10     1     12.02605        6.296      1
    2     7    12    10     1    -17.97398        4.805      1
    2     7    12    13     1   -140.75707        9.928      1
    3     2     7     8     1   -108.96220       10.002      1
    3     2     7    11     1     74.98510        8.548      1
    3     2     7    12     1    -14.01258        7.800      1
    3     4     5     6     1      0.82350       11.521      1
    3     7     8     9     1     64.03151       10.736      1
    3     7     8    10     1     42.05058        6.263      1
    3     7    11    10     1    -45.97990        6.241      1
    3     7    12    10     1     16.81773       14.301      1
    3     7    12    13     1   -106.80025       17.046      1
    4     3     2     7     1    -10.07046       29.090      1
    4     3     5     6     1     -1.15860       14.329      1
    4     3     7     8     1   -135.75246       12.183      1
    4     3     7    11     1     89.08981       11.491      1
    4     3     7    12     1    -39.70797       16.391      1
    4     5     3     7     1     32.56017       19.222      1
    5     3     2     7     1     -9.14941        9.955      1
    5     3     7     8     1      7.96870       20.649      1
    5     3     7    11     1   -128.89416       20.551      1
    5     3     7    12     1    102.07978       20.839      1
    5     4     3     7     1    -10.48121        9.986      1
    6     5     3     7     1   -149.55271       23.187      1
    7     8     9    10     1    144.40792       13.599      1
    7     8    10     9     1    -31.56269       12.181      1
    7     8    10    11     1   -171.01106        4.021      1
    7     8    10    12     1    129.95916        4.760      1
    7    11    10     8     1    172.02233        4.731      1
    7    11    10     9     1    143.01691       10.019      1
    7    11    10    12     1   -134.94269        3.979      1
    7    12    10     8     1   -134.91570        3.977      1
    7    12    10     9     1   -121.95053        9.335      1
    7    12    10    11     1    133.00880        4.002      1
    8     7    11    10     1   -163.04520        8.490      1
    8     7    12    10     1    114.04296        4.801      1
    8     7    12    13     1     -9.02204       11.417      1
    8     9    10    11     1   -143.15888       11.444      1
    8     9    10    12     1    165.91764       10.723      1
    8    10    12    13     1    -26.88216       11.494      1
    9     8     7    11     1   -175.36579       12.902      1
    9     8     7    12     1    -95.19488       11.426      1
    9     8    10    11     1     39.79687       12.218      1
    9     8    10    12     1    -19.98228       13.623      1
    9    10    12    13     1    -16.80775       12.928      1
   10     8     7    11     1    163.03000        8.508      1
   10     8     7    12     1   -116.08031        4.733      1
   10    11     7    12     1    118.05714        4.790      1
   10    12     7    11     1   -115.04431        3.972      1
   11     7    12    13     1    120.35088        9.270      1
   11    10    12    13     1   -119.86683       10.745      1
