[ moleculetype ]
; name        nrexcl
res           1

[ atoms ]
;    nr  type resnr resid  atom  cgnr     charge       mass
      1 TC4       1 res   C1        1      0.000     36.000
      2 TN4a      1 res   C2        2      0.000     36.000
      3 TN6       1 res   C3        3      0.000     36.000
      4 TN6       1 res   C4        4      0.000     36.000
      5 SC4       1 res   C5        5      0.000     54.000
      6 SN6       1 res   C6        6      0.000     54.000
      7 SC4       1 res   C7        7      0.000     54.000
      8 TC3       1 res   C8        8      0.000     36.000
      9 SC4       1 res   C9        9      0.000     54.000
     10 TC3       1 res   C10      10      0.000     36.000
     11 SC4       1 res   C11      11      0.000     54.000
     12 SC5       1 res   C12      12      0.000     54.000
     13 SC4       1 res   C13      13      0.000     54.000
     14 TC3       1 res   C14      14      0.000     36.000
     15 SN4a      1 res   C15      15      0.000     54.000
     16 TN4a      1 res   C16      16      0.000     36.000
     17 TC4       1 res   C17      17      0.000     36.000
     18 TN6       1 res   C18      18      0.000     36.000
     19 TN6       1 res   C19      19      0.000     36.000
     20 TN4a      1 res   C20      20      0.000     36.000
     21 TC4       1 res   C21      21      0.000     36.000
     22 TN6       1 res   C22      22      0.000     36.000
     23 TN6       1 res   C23      23      0.000     36.000
     24 TN6       1 res   C24      24      0.000     36.000
     25 TN6       1 res   C25      25      0.000     36.000
     26 TN4a      1 res   C26      26      0.000     36.000
     27 TC4       1 res   C27      27      0.000     36.000
     28 TN6       1 res   C28      28      0.000     36.000
     29 TN6       1 res   C29      29      0.000     36.000
     30 TN6       1 res   C30      30      0.000     36.000
     31 SN6       1 res   C31      31      0.000     54.000
     32 SP2       1 res   C32      32      0.000     54.000
     33 TN4a      1 res   C33      33      0.000     36.000
     34 SP2       1 res   C34      34      0.000     54.000
     35 TN6       1 res   C35      35      0.000     36.000
     36 TN6       1 res   C36      36      0.000     36.000
     37 TN6       1 res   C37      37      0.000     36.000
     38 TN6       1 res   C38      38      0.000     36.000
     39 TN6       1 res   C39      39      0.000     36.000

[ bonds ]
;  ai    aj   funct      b0(nm)        k
    1     2     1      0.31956    20000
    1    39     1      0.24398    20000
    2     3     1      0.21740    20000
    2    37     1      0.22944    20000
    3     4     1      0.20285    20000
    3    36     1      0.21894    20000
    4     5     1      0.27588    20000
    4    33     1      0.25045    20000
    5     6     1      0.36208    20000
    5     7     1      0.33295    20000
    5    32     1      0.23194    20000
    6     7     1      0.29499    20000
    7     8     1      0.30760    20000
    7     9     1      0.29792    20000
    8     9     1      0.29065    20000
    9    10     1      0.25615    20000
    9    11     1      0.30412    20000
   10    11     1      0.38076    20000
   11    12     1      0.34663    20000
   11    31     1      0.29271    20000
   12    13     1      0.28193    20000
   12    14     1      0.27960    20000
   12    15     1      0.29783    20000
   12    31     1      0.37697    20000
   13    14     1      0.29470    20000
   15    16     1      0.22180    20000
   16    17     1      0.31580    20000
   16    25     1      0.21170    20000
   17    18     1      0.25246    20000
   18    19     1      0.22853    20000
   19    20     1      0.21567    20000
   19    25     1      0.20146    20000
   20    21     1      0.29646    20000
   20    24     1      0.25525    20000
   21    22     1      0.24602    20000
   22    23     1      0.24164    20000
   23    24     1      0.22719    20000
   25    26     1      0.21598    20000
   26    27     1      0.31997    20000
   26    30     1      0.22983    20000
   27    28     1      0.25673    20000
   28    29     1      0.21757    20000
   29    30     1      0.24696    20000
   33    34     1      0.26050    20000
   33    35     1      0.25459    20000
   35    36     1      0.25256    20000
   37    38     1      0.23235    20000
   38    39     1      0.23026    20000
