[ moleculetype ]
; name        nrexcl
res           1

[ atoms ]
;    nr  type  resnr resid  atom  cgnr     charge       mass
      1 SC2       1 res   C1        1      0.000     54.000
      2 SP2       1 res   C2        2      0.000     54.000
      3 TC5       1 res   C3        3      0.000     36.000
      4 SX3       1 res   C4        4      0.000     54.000
      5 TC5       1 res   C5        5      0.000     36.000

[ constraints ]
;  ai    aj   funct      b0(nm)
    1     2     1      0.32505
    3     5     1      0.25640
    2     3     1      0.30353
    4     5     1      0.29600
    3     4     1      0.31422

[ bonds ]
;  ai    aj   funct      b0(nm)          k(kJ/mol/nm^2)

[ angles ]
;  ai    aj    ak  funct     th0(deg)        k(kJ/mol/rad^2)
    1     2     3     1    170.12804           567.08
    2     3     4     1     76.82439          2656.88
    2     3     5     1    137.87475          2003.10
    3     4     5     1     49.57817         11316.18
    3     5     4     1     68.91224          5951.63
    4     3     5     1     61.50957          8817.84

[ dihedrals ]
;  ai    aj    ak    al  funct   phi0(deg)        k(kJ/mol)   mult
    1     2     3     4     1     19.72433       30.722      1
    1     2     3     5     1     24.99106       29.828      1
    2     3     4     5     1      0.00131       12.233      1
    2     3     5     4     1    179.98104       16.441      1
