[ moleculetype ]
; name        nrexcl
res           1

[ atoms ]
;    nr  type  resnr resid  atom  cgnr     charge       mass
      1 P1        1 res   C1        1      0.000     72.000
      2 SN3r      1 res   C2        2      0.000     54.000
      3 SN4a      1 res   C3        3      0.000     54.000
      4 TP1       1 res   C4        4      0.000     36.000
      5 TN6       1 res   C5        5      0.000     36.000
      6 TN6       1 res   C6        6      0.000     36.000
      7 TN6       1 res   C7        7      0.000     36.000
      8 TC3       1 res   C8        8      0.000     36.000
      9 P1        1 res   C9        9      0.000     72.000

[ bonds ]
;  ai    aj   funct      b0(nm)          k(kJ/mol/nm^2)
    2     3     1      0.26372           2726.6
    3     4     1      0.27708          25390.8
    3     5     1      0.29230          18001.8
    3     7     1      0.26584          14588.5
    5     6     1      0.23161           4842.5
    6     7     1      0.23917           6411.8

[ angles ]
;  ai    aj    ak  funct     th0(deg)        k(kJ/mol/rad^2)
    2     3     4     1    147.18581            22.82
    2     3     5     1    119.98501            16.39
    2     3     7     1    109.02431            29.35
    3     5     6     1     74.12080           117.80
    3     7     6     1     78.17564           115.86
    4     3     5     1     65.63505           203.22
    4     3     7     1    100.78623            45.50
    5     3     7     1     80.57583           158.60
    5     6     7     1    102.54636            29.62
