1TPCN01699
8
    1res  C1    1   -0.262  -0.226  -0.093
    1res  C2    2   -0.319   0.120  -0.141
    1res  C3    3   -0.149  -0.014   0.040
    1res  C4    4   -0.120   0.286   0.063
    1res  C5    5    0.170   0.168   0.118
    1res  C6    6    0.267  -0.024   0.004
    1res  C7    7    0.240  -0.277   0.002
    1res  C8    8    0.036  -0.095  -0.069
  10.00000  10.00000  10.00000
