[ moleculetype ]
; name        nrexcl
res           1

[ atoms ]
;    nr  type resnr resid  atom  cgnr     charge       mass
      1 SC4       1 res   C1        1      0.000     54.000
      2 C1        1 res   C2        2      0.000     72.000
      3 TC3       1 res   C3        3      0.000     36.000
      4 TN6       1 res   C4        4      0.000     36.000
      5 TN4a      1 res   C5        5      0.000     36.000
      6 TN6       1 res   C6        6      0.000     36.000
      7 TN6       1 res   C7        7      0.000     36.000
      8 TN6       1 res   C8        8      0.000     36.000
      9 SC3       1 res   C9        9      0.000     54.000
     10 SC4       1 res   C10      10      0.000     54.000
     11 TC3       1 res   C11      11      0.000     36.000
     12 SC4       1 res   C12      12      0.000     54.000
     13 TC4       1 res   C13      13      0.000     36.000
     14 SN4a      1 res   C14      14      0.000     54.000
     15 TN4a      1 res   C15      15      0.000     36.000
     16 TC4       1 res   C16      16      0.000     36.000
     17 TN6       1 res   C17      17      0.000     36.000
     18 TN6       1 res   C18      18      0.000     36.000
     19 TN6       1 res   C19      19      0.000     36.000
     20 TN6       1 res   C20      20      0.000     36.000
     21 TN4a      1 res   C21      21      0.000     36.000
     22 TC4       1 res   C22      22      0.000     36.000
     23 TN6       1 res   C23      23      0.000     36.000
     24 TN6       1 res   C24      24      0.000     36.000
     25 TN6       1 res   C25      25      0.000     36.000
     26 SN4a      1 res   C26      26      0.000     54.000
     27 TP1       1 res   C27      27      0.000     36.000
     28 TN6       1 res   C28      28      0.000     36.000
     29 TN6       1 res   C29      29      0.000     36.000
     30 TN6       1 res   C30      30      0.000     36.000
     31 TC3       1 res   C31      31      0.000     36.000
     32 TC3       1 res   C32      32      0.000     36.000

[ bonds ]
;  ai    aj   funct      b0(nm)        k
    1     2     1      0.40391    20000
    2     3     1      0.28445    20000
    3     4     1      0.25092    20000
    3     9     1      0.23327    20000
    4     5     1      0.26557    20000
    4     8     1      0.21781    20000
    5     6     1      0.23234    20000
    6     7     1      0.23763    20000
    7     8     1      0.22455    20000
    9    10     1      0.28652    20000
    9    32     1      0.34949    20000
   10    11     1      0.24633    20000
   10    12     1      0.19249    20000
   10    32     1      0.29922    20000
   11    12     1      0.32713    20000
   12    13     1      0.34465    20000
   12    31     1      0.27285    20000
   13    14     1      0.28050    20000
   13    20     1      0.27339    20000
   14    15     1      0.21338    20000
   15    16     1      0.24962    20000
   15    19     1      0.23979    20000
   16    17     1      0.28484    20000
   17    18     1      0.28121    20000
   18    19     1      0.26298    20000
   20    21     1      0.19926    20000
   20    31     1      0.24250    20000
   21    22     1      0.25071    20000
   21    25     1      0.22642    20000
   22    23     1      0.25241    20000
   23    24     1      0.23509    20000
   24    25     1      0.21121    20000
   25    26     1      0.25828    20000
   26    27     1      0.31230    20000
   26    28     1      0.30638    20000
   26    30     1      0.25907    20000
   28    29     1      0.25030    20000
   29    30     1      0.22785    20000
