1TPCN00981
8
    1res  C1    1    0.230  -0.189  -0.169
    1res  C2    2    0.439  -0.086  -0.075
    1res  C3    3    0.538   0.080   0.088
    1res  C4    4    0.031  -0.165   0.059
    1res  C5    5   -0.204  -0.022   0.113
    1res  C6    6   -0.340  -0.060  -0.135
    1res  C7    7   -0.172   0.290  -0.052
    1res  C8    8    0.069   0.098  -0.128
  10.00000  10.00000  10.00000
