1TPCN05112
28
    1res  C1    1   -0.078   0.465   0.242
    1res  C2    2   -0.345   0.256   0.290
    1res  C3    3   -0.264   0.153   0.058
    1res  C4    4    0.018   0.081   0.154
    1res  C5    5    0.175  -0.143   0.064
    1res  C6    6    0.242   0.089  -0.204
    1res  C7    7    0.387   0.183   0.013
    1res  C8    8    0.519  -0.111   0.121
    1res  C9    9    0.631   0.164  -0.139
    1res  C10   10    0.889   0.010  -0.061
    1res  C11   11    1.038  -0.219   0.150
    1res  C12   12    1.056  -0.186  -0.156
    1res  C13   13    0.649  -0.070  -0.281
    1res  C14   14   -0.098  -0.001  -0.199
    1res  C15   15   -0.136  -0.213  -0.039
    1res  C16   16   -0.463   0.128  -0.002
    1res  C17   17   -0.652   0.017  -0.162
    1res  C18   18   -0.823   0.207  -0.312
    1res  C19   19   -0.731  -0.092  -0.375
    1res  C20   20   -0.645  -0.280  -0.247
    1res  C21   21   -0.600  -0.186  -0.062
    1res  C22   22   -0.637  -0.200   0.151
    1res  C23   23   -0.819   0.019   0.301
    1res  C24   24   -0.999  -0.113   0.176
    1res  C25   25   -0.932  -0.356   0.259
    1res  C26   26   -0.725  -0.389   0.192
    1res  C27   27   -0.624   0.251   0.124
    1res  C28   28   -0.468   0.437   0.162
  10.00000  10.00000  10.00000
