1TPCN05448
27
    1res  C1    1    0.565  -0.368   0.288
    1res  C2    2    0.467  -0.147   0.119
    1res  C3    3    0.418   0.062   0.084
    1res  C4    4    0.274   0.215   0.072
    1res  C5    5    0.013   0.291   0.011
    1res  C6    6   -0.222   0.377   0.167
    1res  C7    7   -0.273   0.015   0.217
    1res  C8    8   -0.427   0.228   0.171
    1res  C9    9   -0.414   0.254  -0.158
    1res  C10   10   -0.548   0.089  -0.024
    1res  C11   11   -0.523  -0.096  -0.209
    1res  C12   12   -0.457  -0.312  -0.382
    1res  C13   13   -0.644  -0.344  -0.156
    1res  C14   14   -0.820  -0.002  -0.271
    1res  C15   15   -0.703  -0.068   0.103
    1res  C16   16   -0.713   0.241   0.004
    1res  C17   17    0.039   0.239   0.354
    1res  C18   18    0.505   0.373   0.076
    1res  C19   19    0.577   0.311   0.279
    1res  C20   20    0.496   0.084   0.297
    1res  C21   21    0.300  -0.201  -0.070
    1res  C22   22    0.473  -0.452   0.029
    1res  C23   23    0.538  -0.286  -0.216
    1res  C24   24    0.624  -0.024  -0.273
    1res  C25   25    0.839  -0.060  -0.150
    1res  C26   26    0.896  -0.223  -0.294
    1res  C27   27    0.702  -0.337  -0.393
  10.00000  10.00000  10.00000
