[ moleculetype ]
; name        nrexcl
res           1

[ atoms ]
;    nr  type  resnr resid  atom  cgnr     charge       mass
      1 SC4       1 res   C1        1      0.000     54.000
      2 TN6a      1 res   C2        2      0.000     36.000
      3 TC5       1 res   C3        3      0.000     36.000
      4 SN4a      1 res   C4        4      0.000     54.000
      5 TC3       1 res   C5        5      0.000     36.000
      6 TC3       1 res   C6        6      0.000     36.000
      7 SC4       1 res   C7        7      0.000     54.000
      8 TC3       1 res   C8        8      0.000     36.000
      9 TC5       1 res   C9        9      0.000     36.000
     10 TC5       1 res   C10      10      0.000     36.000
     11 TC5       1 res   C11      11      0.000     36.000
     12 SC4       1 res   C12      12      0.000     54.000
     13 TN6a      1 res   C13      13      0.000     36.000

[ constraints ]
;  ai    aj   funct      b0(nm)
    1     2     1      0.23425
   10    11     1      0.28706
    2     3     1      0.23921
    4     5     1      0.27392
    3     8     1      0.25358
    4     8     1      0.27493
    5     7     1      0.30977
    9    11     1      0.29701
    3     4     1      0.32903
    1    13     1      0.23625
    5     6     1      0.27570
    9    10     1      0.25626
   12    13     1      0.23504
    6     7     1      0.29221
    3    12     1      0.27581
    4     6     1      0.28593

[ bonds ]
;  ai    aj   funct      b0(nm)          k(kJ/mol/nm^2)
    8     9     1      0.25906          13931.4

[ angles ]
;  ai    aj    ak  funct     th0(deg)        k(kJ/mol/rad^2)
    1     2     3     1     99.19179          1391.45
    1    13    12     1    130.83803           399.95
    2     1    13     1    100.42333          1134.47
    2     3     4     1    146.90297           790.23
    2     3     8     1     93.88742           798.32
    2     3    12     1    119.79382           825.84
    3     4     5     1    124.71734           652.06
    3     4     6     1     66.23329           652.64
    3     4     8     1     48.61999          6014.70
    3     8     4     1     76.92426          1735.25
    3     8     9     1     95.86571           166.08
    3    12    13     1     78.03618          2021.26
    4     3     8     1     54.45575          2603.17
    4     3    12     1     92.51290           820.03
    4     5     6     1     62.70818          2245.30
    4     5     7     1     85.45558          1066.70
    4     6     5     1     58.34232          3432.04
    4     6     7     1     86.73305           852.15
    4     8     9     1    156.00975            36.32
    5     4     6     1     58.94953          4276.36
    5     4     8     1    122.12626           282.55
    5     6     7     1     66.05211          1716.94
    5     7     6     1     54.41934          3187.52
    6     4     8     1     85.46447           747.44
    6     5     7     1     59.52838          3233.94
    8     3    12     1    144.77368           489.90
    8     9    10     1    139.12877           358.30
    8     9    11     1     84.07591           352.19
    9    10    11     1     65.99721          8470.67
    9    11    10     1     52.01286         12541.81
   10     9    11     1     61.98991         12211.86

[ dihedrals ]
;  ai    aj    ak    al  funct   phi0(deg)        k(kJ/mol)   mult
    1     2     3     4     1     11.94835       22.041      1
    1     2     3     8     1     -0.03166       25.194      1
    1     2     3    12     1   -172.55243       28.713      1
    1    13    12     3     1   -177.63455       29.769      1
    2     1    13    12     1   -176.20611       28.229      1
    2     3     4     5     1    -92.70248       19.612      1
    2     3     4     6     1    -89.74807       16.430      1
    2     3     4     8     1    164.05693       16.485      1
    2     3     8     4     1     -9.94770       10.783      1
    2     3     8     9     1    144.66322       20.947      1
    2     3    12    13     1    172.99758       27.699      1
    3     2     1    13     1    173.66766       21.721      1
    3     4     5     6     1   -177.04617       14.368      1
    3     4     5     7     1    125.91075       15.121      1
    3     4     6     5     1      2.07553       12.251      1
    3     4     6     7     1     66.89774       10.089      1
    3     4     8     9     1    107.14913       25.641      1
    3     8     4     5     1     68.92763       11.500      1
    3     8     4     6     1    116.15533        7.780      1
    3     8     9    10     1     84.17925       14.977      1
    3     8     9    11     1    117.43317       16.947      1
    4     3     8     9     1    -31.63455       18.547      1
    4     3    12    13     1     -7.30718       26.377      1
    4     5     6     7     1     76.13860        7.833      1
    4     5     7     6     1   -119.97598        6.336      1
    4     6     5     7     1    -76.13860        7.833      1
    4     6     7     5     1    124.88982        3.986      1
    4     8     3    12     1    164.88670       22.242      1
    4     8     9    10     1    147.82455       25.290      1
    4     8     9    11     1    178.16070       26.116      1
    5     4     3     8     1    -76.79985       14.361      1
    5     4     3    12     1     92.90572       18.372      1
    5     4     6     7     1   -116.01656        7.768      1
    5     4     8     9     1     -1.63705       26.423      1
    5     6     4     8     1     48.82214       11.558      1
    6     4     3     8     1    -73.98438        7.780      1
    6     4     3    12     1     96.63395       14.280      1
    6     4     5     7     1    122.01743        4.772      1
    6     4     8     9     1     46.18010       25.013      1
    6     5     4     8     1   -118.08412       12.204      1
    7     5     4     8     1   -176.05698       13.664      1
    7     6     4     8     1    111.98621        9.359      1
    8     3    12    13     1      1.40782       20.689      1
    8     4     3    12     1     -9.13856       15.712      1
    8     9    10    11     1   -142.66319       15.730      1
    8     9    11    10     1     24.10076       12.172      1
    9     8     3    12     1    -38.42457       24.823      1
