1TPCN05433
31
    1res  C1    1    0.904  -0.229   0.150
    1res  C2    2    0.623  -0.135   0.058
    1res  C3    3    0.547  -0.189   0.242
    1res  C4    4    0.338  -0.133   0.262
    1res  C5    5    0.062  -0.050   0.180
    1res  C6    6   -0.049  -0.266   0.081
    1res  C7    7   -0.078  -0.123  -0.252
    1res  C8    8   -0.253  -0.274  -0.094
    1res  C9    9   -0.416  -0.162   0.115
    1res  C10   10   -0.447  -0.221  -0.288
    1res  C11   11   -0.695  -0.227  -0.157
    1res  C12   12   -0.927  -0.336  -0.263
    1res  C13   13   -0.835  -0.082  -0.372
    1res  C14   14   -0.740   0.102  -0.059
    1res  C15   15   -0.624   0.379   0.106
    1res  C16   16   -0.614   0.630   0.056
    1res  C17   17   -0.770   0.509   0.293
    1res  C18   18   -0.710   0.308   0.384
    1res  C19   19   -0.752   0.133   0.222
    1res  C20   20   -0.480   0.045  -0.266
    1res  C21   21    0.248  -0.118  -0.089
    1res  C22   22    0.464   0.028   0.460
    1res  C23   23    0.456  -0.159   0.576
    1res  C24   24    0.540  -0.306   0.428
    1res  C25   25    0.584   0.099   0.069
    1res  C26   26    0.881   0.033   0.096
    1res  C27   27    0.908   0.219  -0.056
    1res  C28   28    0.904   0.305  -0.308
    1res  C29   29    1.108   0.455  -0.314
    1res  C30   30    1.055   0.553  -0.099
    1res  C31   31    0.989   0.390   0.058
  10.00000  10.00000  10.00000
