[ moleculetype ]
; name        nrexcl
res           1

[ atoms ]
;    nr  type resnr resid  atom  cgnr     charge       mass
      1 TC3       1 res   C1        1      0.000     36.000
      2 SC3       1 res   C2        2      0.000     54.000
      3 TN6       1 res   C3        3      0.000     36.000
      4 SN4a      1 res   C4        4      0.000     54.000
      5 TP1       1 res   C5        5      0.000     36.000
      6 TN6       1 res   C6        6      0.000     36.000
      7 TN6       1 res   C7        7      0.000     36.000
      8 TN6       1 res   C8        8      0.000     36.000
      9 SC4       1 res   C9        9      0.000     54.000
     10 SN4a      1 res   C10      10      0.000     54.000
     11 SC3       1 res   C11      11      0.000     54.000
     12 TC3       1 res   C12      12      0.000     36.000
     13 TC5       1 res   C13      13      0.000     36.000
     14 SN6       1 res   C14      14      0.000     54.000

[ bonds ]
;  ai    aj   funct      b0(nm)        k
    1     2     1      0.29000    20000
    1    13     1      0.25558    20000
    2     3     1      0.21076    20000
    2     9     1      0.29836    20000
    2    10     1      0.36003    20000
    3     4     1      0.28060    20000
    3     9     1      0.24647    20000
    4     5     1      0.31117    20000
    4     6     1      0.30322    20000
    4     8     1      0.21450    20000
    6     7     1      0.23942    20000
    7     8     1      0.23581    20000
   10    11     1      0.24825    20000
   11    12     1      0.27642    20000
   11    13     1      0.29216    20000
   11    14     1      0.27027    20000
   12    13     1      0.25376    20000
   12    14     1      0.27591    20000
