[ moleculetype ]
; name        nrexcl
res           1

[ atoms ]
;    nr  type  resnr resid  atom  cgnr     charge       mass
      1 TN2a      1 res   C1        1      0.000     36.000
      2 TC5       1 res   C2        2      0.000     36.000
      3 TC5       1 res   C3        3      0.000     36.000
      4 TC5       1 res   C4        4      0.000     36.000

[ constraints ]
;  ai    aj   funct      b0(nm)
    1     2     1      0.23916
    3     4     1      0.28765
    2     3     1      0.25613
    2     4     1      0.29843

[ bonds ]
;  ai    aj   funct      b0(nm)          k(kJ/mol/nm^2)

[ angles ]
;  ai    aj    ak  funct     th0(deg)        k(kJ/mol/rad^2)
    1     2     3     1    165.03457           229.41
    1     2     4     1    108.57143           902.33
    2     3     4     1     66.27056         10277.33
    2     4     3     1     51.78701          8184.60
    3     2     4     1     61.94243          6575.53

[ dihedrals ]
;  ai    aj    ak    al  funct   phi0(deg)        k(kJ/mol)   mult
    1     2     3     4     1    174.76901       26.170      1
    1     2     4     3     1     -1.94399       19.193      1
