1TPCN02234
15
    1res  C1    1    0.131   0.217  -0.314
    1res  C2    2    0.287   0.063  -0.113
    1res  C3    3    0.115   0.026   0.140
    1res  C4    4    0.398   0.093   0.298
    1res  C5    5    0.382  -0.214   0.097
    1res  C6    6    0.160  -0.290  -0.028
    1res  C7    7    0.082  -0.222  -0.314
    1res  C8    8    0.014  -0.004  -0.103
    1res  C9    9   -0.136  -0.075   0.072
    1res  C10   10   -0.300  -0.273   0.031
    1res  C11   11   -0.327   0.031  -0.114
    1res  C12   12   -0.572  -0.011  -0.189
    1res  C13   13   -0.157   0.197   0.076
    1res  C14   14   -0.353  -0.066   0.221
    1res  C15   15    0.120   0.340   0.180
  10.00000  10.00000  10.00000
