1TPCN01368
12
    1res  C1    1   -0.126   0.117  -0.284
    1res  C2    2   -0.263   0.072  -0.020
    1res  C3    3   -0.210   0.311  -0.037
    1res  C4    4   -0.256   0.269   0.250
    1res  C5    5   -0.392   0.057   0.236
    1res  C6    6   -0.148  -0.124   0.107
    1res  C7    7   -0.245  -0.184  -0.068
    1res  C8    8    0.002  -0.328  -0.024
    1res  C9    9    0.014   0.067  -0.016
    1res  C10   10    0.232  -0.002  -0.049
    1res  C11   11    0.422  -0.057   0.147
    1res  C12   12    0.542   0.078  -0.068
  10.00000  10.00000  10.00000
