[ moleculetype ]
; name        nrexcl
res           1

[ atoms ]
;    nr  type  resnr resid  atom  cgnr     charge       mass
      1 SN4a      1 res   C1        1      0.000     54.000
      2 TC5       1 res   C2        2      0.000     36.000
      3 TC5       1 res   C3        3      0.000     36.000
      4 TC5       1 res   C4        4      0.000     36.000

[ constraints ]
;  ai    aj   funct      b0(nm)
    1     2     1      0.31096
    3     4     1      0.28855
    2     3     1      0.25660
    2     4     1      0.29731

[ bonds ]
;  ai    aj   funct      b0(nm)          k(kJ/mol/nm^2)

[ angles ]
;  ai    aj    ak  funct     th0(deg)        k(kJ/mol/rad^2)
    1     2     3     1    138.04271          1174.91
    1     2     4     1     76.38254          1376.99
    2     3     4     1     65.79837          5611.33
    2     4     3     1     51.92373          6217.01
    3     2     4     1     62.27789          6234.23

[ dihedrals ]
;  ai    aj    ak    al  funct   phi0(deg)        k(kJ/mol)   mult
    1     2     3     4     1   -178.63227       17.087      1
    1     2     4     3     1      1.89946       13.658      1
