1TPCN04405
21
    1res  C1    1    0.888  -0.200   0.002
    1res  C2    2    0.474  -0.380  -0.092
    1res  C3    3    0.364  -0.257   0.135
    1res  C4    4    0.158  -0.154   0.156
    1res  C5    5    0.314   0.018  -0.135
    1res  C6    6    0.129   0.120   0.204
    1res  C7    7    0.086   0.344   0.068
    1res  C8    8    0.202   0.456  -0.141
    1res  C9    9   -0.007   0.619  -0.054
    1res  C10   10   -0.187   0.430  -0.134
    1res  C11   11   -0.112   0.101   0.044
    1res  C12   12   -0.441   0.167   0.106
    1res  C13   13   -0.660   0.379   0.148
    1res  C14   14   -0.603   0.256  -0.105
    1res  C15   15   -0.544   0.062  -0.198
    1res  C16   16   -0.429  -0.031  -0.011
    1res  C17   17   -0.431  -0.226  -0.013
    1res  C18   18   -0.654  -0.347   0.037
    1res  C19   19   -0.469  -0.506   0.090
    1res  C20   20   -0.294  -0.532  -0.085
    1res  C21   21   -0.200  -0.307  -0.094
  10.00000  10.00000  10.00000
