Generated with MDTraj, t= 0.0
 45
    1UNL     C1    1  -0.569  -0.135  -0.036
    1UNL     C2    2  -0.458  -0.070   0.046
    1UNL     O1    3  -0.476   0.073   0.051
    1UNL     C3    4  -0.365   0.146   0.083
    1UNL     C4    5  -0.238   0.100   0.099
    1UNL     C5    6  -0.129   0.195   0.120
    1UNL     O2    7  -0.149   0.306   0.167
    1UNL     N1    8  -0.002   0.156   0.080
    1UNL     C6    9   0.107   0.255   0.087
    1UNL     C7   10   0.243   0.189   0.117
    1UNL     C8   11   0.262   0.069   0.031
    1UNL     C9   12   0.158   0.001  -0.028
    1UNL     N2   13   0.207  -0.103  -0.104
    1UNL    C10   14   0.345  -0.102  -0.095
    1UNL    C11   15   0.443  -0.184  -0.152
    1UNL    C12   16   0.575  -0.158  -0.125
    1UNL    C13   17   0.612  -0.052  -0.041
    1UNL    C14   18   0.518   0.030   0.016
    1UNL    C15   19   0.382   0.005  -0.010
    1UNL    C16   20   0.013   0.036  -0.008
    1UNL    C17   21  -0.066  -0.083   0.050
    1UNL    C18   22  -0.211  -0.047   0.091
    1UNL    C19   23  -0.316  -0.110  -0.004
    1UNL    C20   24  -0.291  -0.069  -0.146
    1UNL     O3   25  -0.198  -0.106  -0.210
    1UNL     H1   26  -0.561  -0.243  -0.037
    1UNL     H2   27  -0.667  -0.108   0.004
    1UNL     H3   28  -0.566  -0.100  -0.139
    1UNL     H4   29  -0.468  -0.102   0.151
    1UNL     H5   30  -0.382   0.252   0.090
    1UNL     H6   31   0.080   0.328   0.164
    1UNL     H7   32   0.110   0.309  -0.008
    1UNL     H8   33   0.325   0.260   0.101
    1UNL     H9   34   0.248   0.159   0.222
    1UNL    H10   35   0.152  -0.166  -0.161
    1UNL    H11   36   0.414  -0.265  -0.217
    1UNL    H12   37   0.651  -0.220  -0.168
    1UNL    H13   38   0.716  -0.034  -0.021
    1UNL    H14   39   0.546   0.111   0.081
    1UNL    H15   40  -0.030   0.063  -0.105
    1UNL    H16   41  -0.067  -0.164  -0.023
    1UNL    H17   42  -0.010  -0.122   0.136
    1UNL    H18   43  -0.229  -0.088   0.192
    1UNL    H19   44  -0.307  -0.220  -0.001
    1UNL    H20   45  -0.354   0.007  -0.190
   0.00000   0.00000   0.00000   0.00000   0.00000   0.00000   0.00000   0.00000   0.00000
Generated with MDTraj, t= 1.0
 45
    1UNL     C1    1  -0.567  -0.124  -0.060
    1UNL     C2    2  -0.462  -0.058   0.037
    1UNL     O1    3  -0.470   0.081   0.039
    1UNL     C3    4  -0.365   0.157   0.084
    1UNL     C4    5  -0.240   0.100   0.105
    1UNL     C5    6  -0.129   0.198   0.125
    1UNL     O2    7  -0.146   0.307   0.180
    1UNL     N1    8  -0.001   0.156   0.084
    1UNL     C6    9   0.112   0.245   0.084
    1UNL     C7   10   0.242   0.177   0.114
    1UNL     C8   11   0.257   0.052   0.042
    1UNL     C9   12   0.155  -0.003  -0.030
    1UNL     N2   13   0.206  -0.093  -0.117
    1UNL    C10   14   0.344  -0.094  -0.103
    1UNL    C11   15   0.441  -0.171  -0.168
    1UNL    C12   16   0.573  -0.147  -0.132
    1UNL    C13   17   0.610  -0.044  -0.043
    1UNL    C14   18   0.515   0.029   0.014
    1UNL    C15   19   0.381   0.009  -0.012
    1UNL    C16   20   0.009   0.029  -0.006
    1UNL    C17   21  -0.069  -0.077   0.068
    1UNL    C18   22  -0.218  -0.045   0.098
    1UNL    C19   23  -0.316  -0.114   0.004
    1UNL    C20   24  -0.282  -0.091  -0.135
    1UNL     O3   25  -0.186  -0.136  -0.196
    1UNL     H1   26  -0.656  -0.068  -0.079
    1UNL     H2   27  -0.528  -0.146  -0.158
    1UNL     H3   28  -0.592  -0.228  -0.023
    1UNL     H4   29  -0.477  -0.090   0.138
    1UNL     H5   30  -0.372   0.254   0.117
    1UNL     H6   31   0.092   0.325   0.154
    1UNL     H7   32   0.113   0.300  -0.009
    1UNL     H8   33   0.316   0.249   0.094
    1UNL     H9   34   0.245   0.163   0.227
    1UNL    H10   35   0.146  -0.142  -0.192
    1UNL    H11   36   0.412  -0.255  -0.236
    1UNL    H12   37   0.645  -0.208  -0.184
    1UNL    H13   38   0.709  -0.044   0.006
    1UNL    H14   39   0.547   0.102   0.097
    1UNL    H15   40  -0.036   0.060  -0.104
    1UNL    H16   41  -0.067  -0.166   0.005
    1UNL    H17   42  -0.015  -0.093   0.158
    1UNL    H18   43  -0.250  -0.085   0.193
    1UNL    H19   44  -0.316  -0.223   0.019
    1UNL    H20   45  -0.341  -0.011  -0.188
   0.00000   0.00000   0.00000   0.00000   0.00000   0.00000   0.00000   0.00000   0.00000
Generated with MDTraj, t= 2.0
 45
    1UNL     C1    1  -0.563  -0.119  -0.059
    1UNL     C2    2  -0.459  -0.060   0.034
    1UNL     O1    3  -0.473   0.080   0.020
    1UNL     C3    4  -0.369   0.155   0.078
    1UNL     C4    5  -0.240   0.104   0.095
    1UNL     C5    6  -0.128   0.200   0.122
    1UNL     O2    7  -0.157   0.304   0.178
    1UNL     N1    8  -0.003   0.162   0.081
    1UNL     C6    9   0.111   0.250   0.103
    1UNL     C7   10   0.249   0.178   0.137
    1UNL     C8   11   0.265   0.061   0.046
    1UNL     C9   12   0.155   0.002  -0.018
    1UNL     N2   13   0.195  -0.097  -0.104
    1UNL    C10   14   0.338  -0.095  -0.102
    1UNL    C11   15   0.431  -0.165  -0.176
    1UNL    C12   16   0.564  -0.149  -0.150
    1UNL    C13   17   0.604  -0.047  -0.065
    1UNL    C14   18   0.514   0.030   0.008
    1UNL    C15   19   0.376  -0.004  -0.002
    1UNL    C16   20   0.009   0.035   0.005
    1UNL    C17   21  -0.063  -0.080   0.069
    1UNL    C18   22  -0.211  -0.044   0.103
    1UNL    C19   23  -0.310  -0.115   0.007
    1UNL    C20   24  -0.263  -0.089  -0.137
    1UNL     O3   25  -0.176  -0.152  -0.191
    1UNL     H1   26  -0.530  -0.195  -0.124
    1UNL     H2   27  -0.635  -0.162   0.011
    1UNL     H3   28  -0.624  -0.037  -0.110
    1UNL     H4   29  -0.465  -0.081   0.138
    1UNL     H5   30  -0.379   0.265   0.066
    1UNL     H6   31   0.078   0.320   0.177
    1UNL     H7   32   0.117   0.323   0.023
    1UNL     H8   33   0.324   0.246   0.133
    1UNL     H9   34   0.241   0.151   0.250
    1UNL    H10   35   0.121  -0.157  -0.162
    1UNL    H11   36   0.389  -0.213  -0.257
    1UNL    H12   37   0.642  -0.213  -0.192
    1UNL    H13   38   0.705  -0.016  -0.071
    1UNL    H14   39   0.540   0.095   0.080
    1UNL    H15   40  -0.036   0.052  -0.098
    1UNL    H16   41  -0.058  -0.165  -0.003
    1UNL    H17   42  -0.012  -0.103   0.155
    1UNL    H18   43  -0.240  -0.079   0.201
    1UNL    H19   44  -0.298  -0.224   0.017
    1UNL    H20   45  -0.315  -0.014  -0.189
   0.00000   0.00000   0.00000   0.00000   0.00000   0.00000   0.00000   0.00000   0.00000
Generated with MDTraj, t= 3.0
 45
    1UNL     C1    1  -0.560  -0.137  -0.055
    1UNL     C2    2  -0.461  -0.063   0.025
    1UNL     O1    3  -0.467   0.082   0.002
    1UNL     C3    4  -0.358   0.152   0.051
    1UNL     C4    5  -0.238   0.109   0.090
    1UNL     C5    6  -0.131   0.201   0.125
    1UNL     O2    7  -0.156   0.313   0.168
    1UNL     N1    8  -0.003   0.147   0.111
    1UNL     C6    9   0.111   0.248   0.129
    1UNL     C7   10   0.252   0.175   0.142
    1UNL     C8   11   0.262   0.067   0.045
    1UNL     C9   12   0.156  -0.008  -0.004
    1UNL     N2   13   0.197  -0.105  -0.099
    1UNL    C10   14   0.336  -0.094  -0.109
    1UNL    C11   15   0.425  -0.169  -0.181
    1UNL    C12   16   0.560  -0.147  -0.163
    1UNL    C13   17   0.601  -0.048  -0.065
    1UNL    C14   18   0.512   0.034  -0.007
    1UNL    C15   19   0.374   0.011  -0.022
    1UNL    C16   20   0.015   0.030   0.021
    1UNL    C17   21  -0.064  -0.080   0.078
    1UNL    C18   22  -0.214  -0.037   0.103
    1UNL    C19   23  -0.313  -0.119   0.015
    1UNL    C20   24  -0.266  -0.087  -0.130
    1UNL     O3   25  -0.177  -0.135  -0.190
    1UNL     H1   26  -0.655  -0.119  -0.006
    1UNL     H2   27  -0.553  -0.093  -0.156
    1UNL     H3   28  -0.534  -0.244  -0.059
    1UNL     H4   29  -0.486  -0.075   0.132
    1UNL     H5   30  -0.382   0.264   0.045
    1UNL     H6   31   0.088   0.314   0.211
    1UNL     H7   32   0.106   0.325   0.053
    1UNL     H8   33   0.324   0.248   0.127
    1UNL     H9   34   0.262   0.143   0.252
    1UNL    H10   35   0.116  -0.147  -0.163
    1UNL    H11   36   0.393  -0.244  -0.258
    1UNL    H12   37   0.624  -0.189  -0.236
    1UNL    H13   38   0.709  -0.042  -0.041
    1UNL    H14   39   0.550   0.120   0.052
    1UNL    H15   40  -0.034   0.057  -0.080
    1UNL    H16   41  -0.064  -0.166   0.008
    1UNL    H17   42  -0.023  -0.105   0.170
    1UNL    H18   43  -0.249  -0.070   0.199
    1UNL    H19   44  -0.309  -0.228   0.019
    1UNL    H20   45  -0.302   0.002  -0.177
   0.00000   0.00000   0.00000   0.00000   0.00000   0.00000   0.00000   0.00000   0.00000
Generated with MDTraj, t= 4.0
 45
    1UNL     C1    1  -0.567  -0.132  -0.056
    1UNL     C2    2  -0.457  -0.062   0.026
    1UNL     O1    3  -0.463   0.080   0.008
    1UNL     C3    4  -0.362   0.154   0.061
    1UNL     C4    5  -0.239   0.106   0.095
    1UNL     C5    6  -0.132   0.202   0.128
    1UNL     O2    7  -0.150   0.313   0.174
    1UNL     N1    8   0.001   0.153   0.110
    1UNL     C6    9   0.111   0.248   0.120
    1UNL     C7   10   0.240   0.170   0.140
    1UNL     C8   11   0.259   0.059   0.045
    1UNL     C9   12   0.153  -0.005  -0.011
    1UNL     N2   13   0.196  -0.107  -0.098
    1UNL    C10   14   0.333  -0.097  -0.106
    1UNL    C11   15   0.426  -0.174  -0.179
    1UNL    C12   16   0.560  -0.136  -0.168
    1UNL    C13   17   0.605  -0.033  -0.083
    1UNL    C14   18   0.514   0.029  -0.002
    1UNL    C15   19   0.374  -0.001  -0.007
    1UNL    C16   20   0.008   0.037   0.020
    1UNL    C17   21  -0.070  -0.080   0.078
    1UNL    C18   22  -0.219  -0.042   0.095
    1UNL    C19   23  -0.310  -0.113   0.003
    1UNL    C20   24  -0.268  -0.098  -0.142
    1UNL     O3   25  -0.155  -0.127  -0.177
    1UNL     H1   26  -0.525  -0.193  -0.141
    1UNL     H2   27  -0.619  -0.193   0.019
    1UNL     H3   28  -0.633  -0.058  -0.098
    1UNL     H4   29  -0.471  -0.080   0.136
    1UNL     H5   30  -0.395   0.249   0.081
    1UNL     H6   31   0.092   0.325   0.192
    1UNL     H7   32   0.122   0.303   0.028
    1UNL     H8   33   0.318   0.247   0.126
    1UNL     H9   34   0.240   0.136   0.248
    1UNL    H10   35   0.131  -0.170  -0.155
    1UNL    H11   36   0.400  -0.256  -0.240
    1UNL    H12   37   0.638  -0.187  -0.231
    1UNL    H13   38   0.708  -0.011  -0.065
    1UNL    H14   39   0.539   0.115   0.068
    1UNL    H15   40  -0.043   0.076  -0.076
    1UNL    H16   41  -0.059  -0.167   0.018
    1UNL    H17   42  -0.035  -0.104   0.175
    1UNL    H18   43  -0.248  -0.079   0.192
    1UNL    H19   44  -0.300  -0.219   0.018
    1UNL    H20   45  -0.343  -0.057  -0.216
   0.00000   0.00000   0.00000   0.00000   0.00000   0.00000   0.00000   0.00000   0.00000
Generated with MDTraj, t= 5.0
 45
    1UNL     C1    1  -0.559  -0.128  -0.073
    1UNL     C2    2  -0.459  -0.064   0.024
    1UNL     O1    3  -0.469   0.077   0.020
    1UNL     C3    4  -0.364   0.147   0.070
    1UNL     C4    5  -0.239   0.102   0.104
    1UNL     C5    6  -0.130   0.197   0.130
    1UNL     O2    7  -0.143   0.307   0.181
    1UNL     N1    8  -0.005   0.155   0.082
    1UNL     C6    9   0.104   0.246   0.099
    1UNL     C7   10   0.241   0.177   0.130
    1UNL     C8   11   0.266   0.060   0.045
    1UNL     C9   12   0.156  -0.011  -0.011
    1UNL     N2   13   0.201  -0.103  -0.102
    1UNL    C10   14   0.337  -0.094  -0.106
    1UNL    C11   15   0.431  -0.169  -0.181
    1UNL    C12   16   0.568  -0.131  -0.169
    1UNL    C13   17   0.605  -0.033  -0.075
    1UNL    C14   18   0.518   0.032   0.008
    1UNL    C15   19   0.383  -0.004  -0.005
    1UNL    C16   20   0.004   0.020   0.018
    1UNL    C17   21  -0.068  -0.088   0.103
    1UNL    C18   22  -0.222  -0.045   0.106
    1UNL    C19   23  -0.312  -0.111   0.005
    1UNL    C20   24  -0.270  -0.067  -0.133
    1UNL     O3   25  -0.184  -0.130  -0.187
    1UNL     H1   26  -0.668  -0.120  -0.036
    1UNL     H2   27  -0.558  -0.072  -0.163
    1UNL     H3   28  -0.545  -0.237  -0.085
    1UNL     H4   29  -0.481  -0.099   0.132
    1UNL     H5   30  -0.372   0.252   0.047
    1UNL     H6   31   0.080   0.328   0.165
    1UNL     H7   32   0.109   0.291   0.000
    1UNL     H8   33   0.325   0.261   0.129
    1UNL     H9   34   0.231   0.141   0.233
    1UNL    H10   35   0.146  -0.163  -0.163
    1UNL    H11   36   0.398  -0.242  -0.251
    1UNL    H12   37   0.650  -0.179  -0.210
    1UNL    H13   38   0.711  -0.001  -0.060
    1UNL    H14   39   0.545   0.092   0.083
    1UNL    H15   40  -0.045   0.028  -0.086
    1UNL    H16   41  -0.063  -0.175   0.050
    1UNL    H17   42  -0.018  -0.109   0.196
    1UNL    H18   43  -0.253  -0.080   0.203
    1UNL    H19   44  -0.309  -0.218   0.009
    1UNL    H20   45  -0.299   0.022  -0.188
   0.00000   0.00000   0.00000   0.00000   0.00000   0.00000   0.00000   0.00000   0.00000
Generated with MDTraj, t= 6.0
 45
    1UNL     C1    1  -0.559  -0.117  -0.070
    1UNL     C2    2  -0.456  -0.066   0.035
    1UNL     O1    3  -0.475   0.074   0.057
    1UNL     C3    4  -0.361   0.143   0.087
    1UNL     C4    5  -0.237   0.094   0.110
    1UNL     C5    6  -0.126   0.191   0.129
    1UNL     O2    7  -0.144   0.307   0.161
    1UNL     N1    8   0.002   0.150   0.092
    1UNL     C6    9   0.109   0.251   0.098
    1UNL     C7   10   0.240   0.180   0.133
    1UNL     C8   11   0.253   0.067   0.043
    1UNL     C9   12   0.152  -0.007  -0.013
    1UNL     N2   13   0.200  -0.103  -0.105
    1UNL    C10   14   0.336  -0.099  -0.092
    1UNL    C11   15   0.434  -0.176  -0.162
    1UNL    C12   16   0.566  -0.137  -0.156
    1UNL    C13   17   0.607  -0.032  -0.067
    1UNL    C14   18   0.513   0.038   0.002
    1UNL    C15   19   0.376   0.012  -0.011
    1UNL    C16   20   0.012   0.025   0.008
    1UNL    C17   21  -0.068  -0.089   0.070
    1UNL    C18   22  -0.214  -0.052   0.101
    1UNL    C19   23  -0.307  -0.112  -0.004
    1UNL    C20   24  -0.271  -0.068  -0.151
    1UNL     O3   25  -0.189  -0.132  -0.208
    1UNL     H1   26  -0.520  -0.144  -0.171
    1UNL     H2   27  -0.605  -0.211  -0.045
    1UNL     H3   28  -0.639  -0.040  -0.085
    1UNL     H4   29  -0.483  -0.104   0.139
    1UNL     H5   30  -0.377   0.257   0.084
    1UNL     H6   31   0.076   0.316   0.178
    1UNL     H7   32   0.103   0.317   0.010
    1UNL     H8   33   0.330   0.256   0.107
    1UNL     H9   34   0.248   0.148   0.237
    1UNL    H10   35   0.149  -0.159  -0.166
    1UNL    H11   36   0.415  -0.251  -0.242
    1UNL    H12   37   0.635  -0.167  -0.241
    1UNL    H13   38   0.708  -0.022  -0.039
    1UNL    H14   39   0.541   0.117   0.078
    1UNL    H15   40  -0.025   0.037  -0.100
    1UNL    H16   41  -0.052  -0.175   0.017
    1UNL    H17   42  -0.012  -0.112   0.159
    1UNL    H18   43  -0.236  -0.091   0.199
    1UNL    H19   44  -0.320  -0.218   0.006
    1UNL    H20   45  -0.310   0.021  -0.191
   0.00000   0.00000   0.00000   0.00000   0.00000   0.00000   0.00000   0.00000   0.00000
Generated with MDTraj, t= 7.0
 45
    1UNL     C1    1  -0.566  -0.132  -0.068
    1UNL     C2    2  -0.468  -0.073   0.035
    1UNL     O1    3  -0.486   0.066   0.081
    1UNL     C3    4  -0.370   0.151   0.093
    1UNL     C4    5  -0.245   0.101   0.107
    1UNL     C5    6  -0.131   0.192   0.128
    1UNL     O2    7  -0.154   0.301   0.174
    1UNL     N1    8  -0.002   0.148   0.094
    1UNL     C6    9   0.105   0.250   0.104
    1UNL     C7   10   0.248   0.189   0.121
    1UNL     C8   11   0.267   0.078   0.029
    1UNL     C9   12   0.164   0.008  -0.021
    1UNL     N2   13   0.212  -0.102  -0.091
    1UNL    C10   14   0.348  -0.098  -0.102
    1UNL    C11   15   0.447  -0.176  -0.160
    1UNL    C12   16   0.579  -0.159  -0.134
    1UNL    C13   17   0.619  -0.044  -0.065
    1UNL    C14   18   0.526   0.036   0.002
    1UNL    C15   19   0.387   0.007  -0.016
    1UNL    C16   20   0.012   0.038  -0.005
    1UNL    C17   21  -0.072  -0.083   0.045
    1UNL    C18   22  -0.220  -0.050   0.091
    1UNL    C19   23  -0.321  -0.113  -0.007
    1UNL    C20   24  -0.287  -0.075  -0.149
    1UNL     O3   25  -0.195  -0.110  -0.213
    1UNL     H1   26  -0.629  -0.208  -0.022
    1UNL     H2   27  -0.638  -0.052  -0.099
    1UNL     H3   28  -0.507  -0.161  -0.158
    1UNL     H4   29  -0.486  -0.109   0.139
    1UNL     H5   30  -0.400   0.247   0.137
    1UNL     H6   31   0.080   0.323   0.182
    1UNL     H7   32   0.090   0.309   0.012
    1UNL     H8   33   0.334   0.260   0.101
    1UNL     H9   34   0.262   0.139   0.220
    1UNL    H10   35   0.166  -0.169  -0.139
    1UNL    H11   36   0.412  -0.246  -0.229
    1UNL    H12   37   0.657  -0.214  -0.173
    1UNL    H13   38   0.728  -0.017  -0.055
    1UNL    H14   39   0.550   0.112   0.078
    1UNL    H15   40  -0.030   0.071  -0.105
    1UNL    H16   41  -0.068  -0.160  -0.026
    1UNL    H17   42  -0.011  -0.139   0.114
    1UNL    H18   43  -0.230  -0.098   0.189
    1UNL    H19   44  -0.321  -0.218   0.010
    1UNL    H20   45  -0.347   0.003  -0.199
   0.00000   0.00000   0.00000   0.00000   0.00000   0.00000   0.00000   0.00000   0.00000
Generated with MDTraj, t= 8.0
 45
    1UNL     C1    1  -0.567  -0.139  -0.023
    1UNL     C2    2  -0.454  -0.069   0.051
    1UNL     O1    3  -0.475   0.073   0.052
    1UNL     C3    4  -0.358   0.140   0.098
    1UNL     C4    5  -0.235   0.084   0.110
    1UNL     C5    6  -0.128   0.177   0.139
    1UNL     O2    7  -0.151   0.286   0.191
    1UNL     N1    8  -0.000   0.148   0.080
    1UNL     C6    9   0.102   0.254   0.079
    1UNL     C7   10   0.238   0.193   0.102
    1UNL     C8   11   0.260   0.073   0.026
    1UNL     C9   12   0.156   0.006  -0.043
    1UNL     N2   13   0.206  -0.104  -0.113
    1UNL    C10   14   0.341  -0.096  -0.094
    1UNL    C11   15   0.444  -0.180  -0.149
    1UNL    C12   16   0.574  -0.148  -0.123
    1UNL    C13   17   0.610  -0.047  -0.033
    1UNL    C14   18   0.518   0.043   0.017
    1UNL    C15   19   0.385   0.009  -0.008
    1UNL    C16   20   0.011   0.036  -0.014
    1UNL    C17   21  -0.060  -0.090   0.044
    1UNL    C18   22  -0.206  -0.066   0.093
    1UNL    C19   23  -0.307  -0.105  -0.013
    1UNL    C20   24  -0.292  -0.051  -0.151
    1UNL     O3   25  -0.211  -0.082  -0.238
    1UNL     H1   26  -0.630  -0.062  -0.069
    1UNL     H2   27  -0.516  -0.198  -0.107
    1UNL     H3   28  -0.619  -0.213   0.037
    1UNL     H4   29  -0.460  -0.095   0.155
    1UNL     H5   30  -0.369   0.243   0.092
    1UNL     H6   31   0.077   0.329   0.157
    1UNL     H7   32   0.104   0.313  -0.016
    1UNL     H8   33   0.320   0.257   0.084
    1UNL     H9   34   0.235   0.149   0.208
    1UNL    H10   35   0.163  -0.171  -0.167
    1UNL    H11   36   0.424  -0.261  -0.222
    1UNL    H12   37   0.648  -0.220  -0.166
    1UNL    H13   38   0.709  -0.037  -0.003
    1UNL    H14   39   0.535   0.116   0.085
    1UNL    H15   40  -0.047   0.070  -0.103
    1UNL    H16   41  -0.048  -0.170  -0.027
    1UNL    H17   42  -0.002  -0.142   0.118
    1UNL    H18   43  -0.221  -0.124   0.187
    1UNL    H19   44  -0.311  -0.212  -0.013
    1UNL    H20   45  -0.363   0.026  -0.181
   0.00000   0.00000   0.00000   0.00000   0.00000   0.00000   0.00000   0.00000   0.00000
Generated with MDTraj, t= 9.0
 45
    1UNL     C1    1  -0.569  -0.143  -0.021
    1UNL     C2    2  -0.457  -0.086   0.056
    1UNL     O1    3  -0.476   0.059   0.075
    1UNL     C3    4  -0.368   0.136   0.097
    1UNL     C4    5  -0.239   0.091   0.100
    1UNL     C5    6  -0.131   0.179   0.127
    1UNL     O2    7  -0.146   0.272   0.205
    1UNL     N1    8  -0.007   0.155   0.058
    1UNL     C6    9   0.107   0.255   0.077
    1UNL     C7   10   0.246   0.200   0.105
    1UNL     C8   11   0.264   0.079   0.022
    1UNL     C9   12   0.162   0.013  -0.040
    1UNL     N2   13   0.213  -0.091  -0.115
    1UNL    C10   14   0.351  -0.100  -0.096
    1UNL    C11   15   0.450  -0.188  -0.149
    1UNL    C12   16   0.578  -0.160  -0.111
    1UNL    C13   17   0.611  -0.053  -0.022
    1UNL    C14   18   0.517   0.034   0.021
    1UNL    C15   19   0.386   0.008  -0.009
    1UNL    C16   20   0.014   0.039  -0.030
    1UNL    C17   21  -0.061  -0.077   0.025
    1UNL    C18   22  -0.207  -0.053   0.077
    1UNL    C19   23  -0.316  -0.112  -0.014
    1UNL    C20   24  -0.313  -0.055  -0.152
    1UNL     O3   25  -0.213  -0.057  -0.215
    1UNL     H1   26  -0.532  -0.220  -0.094
    1UNL     H2   27  -0.643  -0.193   0.049
    1UNL     H3   28  -0.626  -0.067  -0.072
    1UNL     H4   29  -0.455  -0.134   0.151
    1UNL     H5   30  -0.387   0.245   0.103
    1UNL     H6   31   0.084   0.332   0.154
    1UNL     H7   32   0.117   0.321  -0.013
    1UNL     H8   33   0.321   0.263   0.078
    1UNL     H9   34   0.256   0.164   0.214
    1UNL    H10   35   0.164  -0.143  -0.188
    1UNL    H11   36   0.418  -0.270  -0.208
    1UNL    H12   37   0.665  -0.203  -0.154
    1UNL    H13   38   0.712  -0.041   0.028
    1UNL    H14   39   0.554   0.127   0.078
    1UNL    H15   40  -0.020   0.069  -0.131
    1UNL    H16   41  -0.063  -0.162  -0.046
    1UNL    H17   42   0.006  -0.128   0.091
    1UNL    H18   43  -0.204  -0.103   0.176
    1UNL    H19   44  -0.296  -0.218  -0.021
    1UNL    H20   45  -0.398  -0.018  -0.205
   0.00000   0.00000   0.00000   0.00000   0.00000   0.00000   0.00000   0.00000   0.00000
Generated with MDTraj, t= 10.0
 45
    1UNL     C1    1  -0.573  -0.145  -0.012
    1UNL     C2    2  -0.457  -0.088   0.058
    1UNL     O1    3  -0.475   0.053   0.090
    1UNL     C3    4  -0.363   0.120   0.119
    1UNL     C4    5  -0.231   0.081   0.108
    1UNL     C5    6  -0.128   0.183   0.118
    1UNL     O2    7  -0.154   0.293   0.161
    1UNL     N1    8   0.003   0.157   0.081
    1UNL     C6    9   0.103   0.259   0.090
    1UNL     C7   10   0.242   0.195   0.113
    1UNL     C8   11   0.259   0.077   0.016
    1UNL     C9   12   0.157   0.009  -0.044
    1UNL     N2   13   0.214  -0.093  -0.121
    1UNL    C10   14   0.353  -0.084  -0.109
    1UNL    C11   15   0.451  -0.179  -0.144
    1UNL    C12   16   0.578  -0.169  -0.095
    1UNL    C13   17   0.617  -0.059  -0.020
    1UNL    C14   18   0.517   0.025   0.020
    1UNL    C15   19   0.383   0.008  -0.011
    1UNL    C16   20   0.010   0.045  -0.025
    1UNL    C17   21  -0.063  -0.077   0.004
    1UNL    C18   22  -0.203  -0.062   0.066
    1UNL    C19   23  -0.319  -0.112  -0.019
    1UNL    C20   24  -0.310  -0.057  -0.158
    1UNL     O3   25  -0.210  -0.038  -0.214
    1UNL     H1   26  -0.635  -0.214   0.054
    1UNL     H2   27  -0.636  -0.063  -0.047
    1UNL     H3   28  -0.548  -0.208  -0.101
    1UNL     H4   29  -0.454  -0.142   0.152
    1UNL     H5   30  -0.384   0.215   0.180
    1UNL     H6   31   0.077   0.339   0.165
    1UNL     H7   32   0.105   0.320  -0.003
    1UNL     H8   33   0.313   0.264   0.083
    1UNL     H9   34   0.260   0.161   0.220
    1UNL    H10   35   0.158  -0.171  -0.169
    1UNL    H11   36   0.423  -0.256  -0.212
    1UNL    H12   37   0.652  -0.243  -0.119
    1UNL    H13   38   0.720  -0.047  -0.001
    1UNL    H14   39   0.539   0.109   0.082
    1UNL    H15   40  -0.027   0.090  -0.116
    1UNL    H16   41  -0.054  -0.146  -0.086
    1UNL    H17   42   0.000  -0.135   0.066
    1UNL    H18   43  -0.199  -0.122   0.160
    1UNL    H19   44  -0.307  -0.218  -0.037
    1UNL    H20   45  -0.407  -0.023  -0.203
   0.00000   0.00000   0.00000   0.00000   0.00000   0.00000   0.00000   0.00000   0.00000
Generated with MDTraj, t= 11.0
 45
    1UNL     C1    1  -0.571  -0.170  -0.025
    1UNL     C2    2  -0.448  -0.100   0.051
    1UNL     O1    3  -0.466   0.042   0.086
    1UNL     C3    4  -0.358   0.123   0.118
    1UNL     C4    5  -0.232   0.090   0.103
    1UNL     C5    6  -0.132   0.194   0.116
    1UNL     O2    7  -0.153   0.304   0.165
    1UNL     N1    8  -0.005   0.162   0.074
    1UNL     C6    9   0.103   0.256   0.088
    1UNL     C7   10   0.245   0.193   0.117
    1UNL     C8   11   0.267   0.074   0.030
    1UNL     C9   12   0.168   0.006  -0.042
    1UNL     N2   13   0.217  -0.097  -0.120
    1UNL    C10   14   0.354  -0.101  -0.103
    1UNL    C11   15   0.454  -0.188  -0.152
    1UNL    C12   16   0.581  -0.161  -0.113
    1UNL    C13   17   0.610  -0.060  -0.018
    1UNL    C14   18   0.516   0.028   0.031
    1UNL    C15   19   0.384   0.006  -0.012
    1UNL    C16   20   0.020   0.041  -0.021
    1UNL    C17   21  -0.055  -0.077   0.030
    1UNL    C18   22  -0.201  -0.052   0.075
    1UNL    C19   23  -0.310  -0.107  -0.018
    1UNL    C20   24  -0.323  -0.027  -0.140
    1UNL     O3   25  -0.254  -0.039  -0.240
    1UNL     H1   26  -0.661  -0.108  -0.035
    1UNL     H2   27  -0.533  -0.204  -0.121
    1UNL     H3   28  -0.601  -0.266   0.032
    1UNL     H4   29  -0.449  -0.145   0.154
    1UNL     H5   30  -0.394   0.224   0.125
    1UNL     H6   31   0.075   0.335   0.163
    1UNL     H7   32   0.099   0.320  -0.004
    1UNL     H8   33   0.322   0.268   0.098
    1UNL     H9   34   0.245   0.167   0.223
    1UNL    H10   35   0.147  -0.155  -0.183
    1UNL    H11   36   0.428  -0.262  -0.232
    1UNL    H12   37   0.655  -0.225  -0.163
    1UNL    H13   38   0.711  -0.059   0.026
    1UNL    H14   39   0.545   0.091   0.109
    1UNL    H15   40  -0.024   0.074  -0.112
    1UNL    H16   41  -0.060  -0.160  -0.050
    1UNL    H17   42   0.008  -0.122   0.100
    1UNL    H18   43  -0.219  -0.114   0.167
    1UNL    H19   44  -0.284  -0.207  -0.054
    1UNL    H20   45  -0.394   0.054  -0.142
   0.00000   0.00000   0.00000   0.00000   0.00000   0.00000   0.00000   0.00000   0.00000
Generated with MDTraj, t= 12.0
 45
    1UNL     C1    1  -0.577  -0.141  -0.016
    1UNL     C2    2  -0.448  -0.089   0.057
    1UNL     O1    3  -0.478   0.048   0.087
    1UNL     C3    4  -0.362   0.123   0.115
    1UNL     C4    5  -0.233   0.089   0.094
    1UNL     C5    6  -0.126   0.188   0.118
    1UNL     O2    7  -0.143   0.288   0.189
    1UNL     N1    8  -0.003   0.165   0.061
    1UNL     C6    9   0.106   0.262   0.086
    1UNL     C7   10   0.238   0.188   0.118
    1UNL     C8   11   0.262   0.071   0.029
    1UNL     C9   12   0.163   0.006  -0.040
    1UNL     N2   13   0.211  -0.098  -0.118
    1UNL    C10   14   0.353  -0.100  -0.095
    1UNL    C11   15   0.454  -0.180  -0.149
    1UNL    C12   16   0.585  -0.151  -0.116
    1UNL    C13   17   0.621  -0.049  -0.029
    1UNL    C14   18   0.520   0.028   0.031
    1UNL    C15   19   0.382   0.009  -0.002
    1UNL    C16   20   0.016   0.043  -0.023
    1UNL    C17   21  -0.063  -0.087   0.018
    1UNL    C18   22  -0.205  -0.056   0.071
    1UNL    C19   23  -0.319  -0.105  -0.021
    1UNL    C20   24  -0.308  -0.030  -0.152
    1UNL     O3   25  -0.239  -0.081  -0.237
    1UNL     H1   26  -0.653  -0.064   0.004
    1UNL     H2   27  -0.572  -0.151  -0.126
    1UNL     H3   28  -0.617  -0.238   0.029
    1UNL     H4   29  -0.435  -0.136   0.162
    1UNL     H5   30  -0.388   0.223   0.131
    1UNL     H6   31   0.073   0.343   0.156
    1UNL     H7   32   0.112   0.318  -0.010
    1UNL     H8   33   0.323   0.265   0.119
    1UNL     H9   34   0.220   0.150   0.216
    1UNL    H10   35   0.160  -0.145  -0.206
    1UNL    H11   36   0.422  -0.249  -0.220
    1UNL    H12   37   0.660  -0.201  -0.171
    1UNL    H13   38   0.723  -0.046   0.010
    1UNL    H14   39   0.544   0.101   0.118
    1UNL    H15   40  -0.020   0.078  -0.117
    1UNL    H16   41  -0.066  -0.154  -0.077
    1UNL    H17   42  -0.016  -0.149   0.088
    1UNL    H18   43  -0.222  -0.111   0.165
    1UNL    H19   44  -0.299  -0.208  -0.055
    1UNL    H20   45  -0.339   0.070  -0.160
   0.00000   0.00000   0.00000   0.00000   0.00000   0.00000   0.00000   0.00000   0.00000
Generated with MDTraj, t= 13.0
 45
    1UNL     C1    1  -0.598  -0.109  -0.030
    1UNL     C2    2  -0.466  -0.068   0.052
    1UNL     O1    3  -0.472   0.070   0.072
    1UNL     C3    4  -0.358   0.145   0.098
    1UNL     C4    5  -0.231   0.091   0.102
    1UNL     C5    6  -0.120   0.177   0.132
    1UNL     O2    7  -0.141   0.279   0.200
    1UNL     N1    8   0.005   0.137   0.088
    1UNL     C6    9   0.108   0.246   0.094
    1UNL     C7   10   0.249   0.188   0.112
    1UNL     C8   11   0.266   0.079   0.021
    1UNL     C9   12   0.162   0.013  -0.037
    1UNL     N2   13   0.220  -0.087  -0.121
    1UNL    C10   14   0.358  -0.084  -0.109
    1UNL    C11   15   0.456  -0.173  -0.155
    1UNL    C12   16   0.588  -0.147  -0.112
    1UNL    C13   17   0.617  -0.039  -0.026
    1UNL    C14   18   0.518   0.035   0.024
    1UNL    C15   19   0.385   0.013  -0.013
    1UNL    C16   20   0.015   0.041  -0.021
    1UNL    C17   21  -0.069  -0.088   0.014
    1UNL    C18   22  -0.211  -0.051   0.070
    1UNL    C19   23  -0.333  -0.126  -0.007
    1UNL    C20   24  -0.319  -0.089  -0.157
    1UNL     O3   25  -0.222  -0.103  -0.221
    1UNL     H1   26  -0.663  -0.174   0.032
    1UNL     H2   27  -0.666  -0.026  -0.066
    1UNL     H3   28  -0.578  -0.172  -0.117
    1UNL     H4   29  -0.471  -0.118   0.155
    1UNL     H5   30  -0.370   0.244   0.154
    1UNL     H6   31   0.069   0.323   0.163
    1UNL     H7   32   0.103   0.293  -0.006
    1UNL     H8   33   0.320   0.279   0.088
    1UNL     H9   34   0.255   0.164   0.213
    1UNL    H10   35   0.175  -0.177  -0.169
    1UNL    H11   36   0.432  -0.248  -0.236
    1UNL    H12   37   0.670  -0.211  -0.150
    1UNL    H13   38   0.718  -0.018  -0.005
    1UNL    H14   39   0.540   0.101   0.101
    1UNL    H15   40  -0.017   0.088  -0.110
    1UNL    H16   41  -0.080  -0.164  -0.074
    1UNL    H17   42  -0.017  -0.146   0.084
    1UNL    H18   43  -0.223  -0.103   0.167
    1UNL    H19   44  -0.327  -0.236   0.001
    1UNL    H20   45  -0.397  -0.020  -0.200
   0.00000   0.00000   0.00000   0.00000   0.00000   0.00000   0.00000   0.00000   0.00000
Generated with MDTraj, t= 14.0
 45
    1UNL     C1    1  -0.566  -0.145  -0.034
    1UNL     C2    2  -0.455  -0.063   0.044
    1UNL     O1    3  -0.479   0.080   0.033
    1UNL     C3    4  -0.370   0.145   0.091
    1UNL     C4    5  -0.237   0.095   0.104
    1UNL     C5    6  -0.125   0.183   0.143
    1UNL     O2    7  -0.142   0.290   0.205
    1UNL     N1    8   0.003   0.144   0.102
    1UNL     C6    9   0.112   0.250   0.100
    1UNL     C7   10   0.245   0.175   0.128
    1UNL     C8   11   0.265   0.069   0.033
    1UNL     C9   12   0.155   0.006  -0.031
    1UNL     N2   13   0.208  -0.097  -0.108
    1UNL    C10   14   0.345  -0.094  -0.099
    1UNL    C11   15   0.442  -0.174  -0.158
    1UNL    C12   16   0.576  -0.143  -0.141
    1UNL    C13   17   0.617  -0.041  -0.049
    1UNL    C14   18   0.524   0.040   0.013
    1UNL    C15   19   0.382   0.012  -0.012
    1UNL    C16   20   0.014   0.045  -0.012
    1UNL    C17   21  -0.063  -0.079   0.030
    1UNL    C18   22  -0.205  -0.047   0.088
    1UNL    C19   23  -0.317  -0.109  -0.004
    1UNL    C20   24  -0.292  -0.068  -0.148
    1UNL     O3   25  -0.236  -0.126  -0.238
    1UNL     H1   26  -0.646  -0.181   0.037
    1UNL     H2   27  -0.617  -0.067  -0.102
    1UNL     H3   28  -0.535  -0.228  -0.095
    1UNL     H4   29  -0.459  -0.085   0.157
    1UNL     H5   30  -0.383   0.256   0.107
    1UNL     H6   31   0.088   0.304   0.192
    1UNL     H7   32   0.097   0.317   0.014
    1UNL     H8   33   0.329   0.256   0.112
    1UNL     H9   34   0.245   0.142   0.227
    1UNL    H10   35   0.163  -0.171  -0.175
    1UNL    H11   36   0.425  -0.258  -0.220
    1UNL    H12   37   0.655  -0.187  -0.196
    1UNL    H13   38   0.724  -0.027  -0.018
    1UNL    H14   39   0.558   0.117   0.077
    1UNL    H15   40  -0.020   0.091  -0.102
    1UNL    H16   41  -0.073  -0.146  -0.064
    1UNL    H17   42  -0.010  -0.142   0.099
    1UNL    H18   43  -0.217  -0.096   0.187
    1UNL    H19   44  -0.305  -0.219   0.003
    1UNL    H20   45  -0.348   0.017  -0.185
   0.00000   0.00000   0.00000   0.00000   0.00000   0.00000   0.00000   0.00000   0.00000
Generated with MDTraj, t= 15.0
 45
    1UNL     C1    1  -0.563  -0.135  -0.044
    1UNL     C2    2  -0.451  -0.071   0.040
    1UNL     O1    3  -0.474   0.071   0.045
    1UNL     C3    4  -0.370   0.148   0.087
    1UNL     C4    5  -0.246   0.099   0.097
    1UNL     C5    6  -0.130   0.190   0.128
    1UNL     O2    7  -0.159   0.298   0.180
    1UNL     N1    8  -0.003   0.156   0.095
    1UNL     C6    9   0.109   0.247   0.131
    1UNL     C7   10   0.250   0.178   0.142
    1UNL     C8   11   0.279   0.074   0.044
    1UNL     C9   12   0.169   0.013  -0.014
    1UNL     N2   13   0.206  -0.090  -0.097
    1UNL    C10   14   0.340  -0.094  -0.101
    1UNL    C11   15   0.429  -0.165  -0.182
    1UNL    C12   16   0.564  -0.145  -0.163
    1UNL    C13   17   0.608  -0.049  -0.069
    1UNL    C14   18   0.528   0.030   0.011
    1UNL    C15   19   0.389   0.001  -0.007
    1UNL    C16   20   0.015   0.036  -0.001
    1UNL    C17   21  -0.061  -0.082   0.056
    1UNL    C18   22  -0.214  -0.049   0.089
    1UNL    C19   23  -0.316  -0.114  -0.011
    1UNL    C20   24  -0.283  -0.069  -0.149
    1UNL     O3   25  -0.212  -0.131  -0.229
    1UNL     H1   26  -0.634  -0.054  -0.080
    1UNL     H2   27  -0.512  -0.177  -0.135
    1UNL     H3   28  -0.622  -0.213   0.007
    1UNL     H4   29  -0.466  -0.095   0.148
    1UNL     H5   30  -0.389   0.249   0.089
    1UNL     H6   31   0.076   0.292   0.223
    1UNL     H7   32   0.106   0.325   0.056
    1UNL     H8   33   0.332   0.257   0.142
    1UNL     H9   34   0.255   0.133   0.239
    1UNL    H10   35   0.145  -0.129  -0.176
    1UNL    H11   36   0.404  -0.239  -0.255
    1UNL    H12   37   0.640  -0.203  -0.221
    1UNL    H13   38   0.711  -0.040  -0.062
    1UNL    H14   39   0.552   0.119   0.084
    1UNL    H15   40  -0.016   0.059  -0.101
    1UNL    H16   41  -0.064  -0.172  -0.009
    1UNL    H17   42  -0.015  -0.119   0.148
    1UNL    H18   43  -0.238  -0.094   0.187
    1UNL    H19   44  -0.310  -0.224  -0.004
    1UNL    H20   45  -0.331   0.018  -0.185
   0.00000   0.00000   0.00000   0.00000   0.00000   0.00000   0.00000   0.00000   0.00000
Generated with MDTraj, t= 16.0
 45
    1UNL     C1    1  -0.560  -0.123  -0.060
    1UNL     C2    2  -0.460  -0.061   0.036
    1UNL     O1    3  -0.469   0.085   0.039
    1UNL     C3    4  -0.356   0.148   0.071
    1UNL     C4    5  -0.235   0.096   0.103
    1UNL     C5    6  -0.121   0.188   0.129
    1UNL     O2    7  -0.147   0.304   0.165
    1UNL     N1    8   0.000   0.141   0.098
    1UNL     C6    9   0.112   0.238   0.119
    1UNL     C7   10   0.241   0.167   0.141
    1UNL     C8   11   0.250   0.052   0.049
    1UNL     C9   12   0.148  -0.003  -0.027
    1UNL     N2   13   0.200  -0.085  -0.128
    1UNL    C10   14   0.336  -0.082  -0.116
    1UNL    C11   15   0.434  -0.150  -0.184
    1UNL    C12   16   0.570  -0.131  -0.156
    1UNL    C13   17   0.609  -0.040  -0.057
    1UNL    C14   18   0.513   0.031   0.004
    1UNL    C15   19   0.374   0.009  -0.013
    1UNL    C16   20   0.002   0.023   0.011
    1UNL    C17   21  -0.071  -0.095   0.062
    1UNL    C18   22  -0.213  -0.055   0.100
    1UNL    C19   23  -0.316  -0.115   0.005
    1UNL    C20   24  -0.278  -0.084  -0.135
    1UNL     O3   25  -0.174  -0.113  -0.180
    1UNL     H1   26  -0.668  -0.090  -0.052
    1UNL     H2   27  -0.529  -0.100  -0.163
    1UNL     H3   28  -0.562  -0.238  -0.060
    1UNL     H4   29  -0.493  -0.087   0.136
    1UNL     H5   30  -0.376   0.251   0.094
    1UNL     H6   31   0.087   0.302   0.202
    1UNL     H7   32   0.112   0.294   0.027
    1UNL     H8   33   0.326   0.234   0.133
    1UNL     H9   34   0.240   0.122   0.243
    1UNL    H10   35   0.139  -0.157  -0.171
    1UNL    H11   36   0.413  -0.214  -0.273
    1UNL    H12   37   0.642  -0.185  -0.210
    1UNL    H13   38   0.716  -0.017  -0.031
    1UNL    H14   39   0.534   0.098   0.078
    1UNL    H15   40  -0.041   0.051  -0.086
    1UNL    H16   41  -0.062  -0.187   0.005
    1UNL    H17   42  -0.022  -0.121   0.161
    1UNL    H18   43  -0.236  -0.095   0.201
    1UNL    H19   44  -0.314  -0.226   0.016
    1UNL    H20   45  -0.350  -0.037  -0.205
   0.00000   0.00000   0.00000   0.00000   0.00000   0.00000   0.00000   0.00000   0.00000
Generated with MDTraj, t= 17.0
 45
    1UNL     C1    1  -0.558  -0.148  -0.050
    1UNL     C2    2  -0.460  -0.059   0.024
    1UNL     O1    3  -0.474   0.083   0.024
    1UNL     C3    4  -0.368   0.155   0.069
    1UNL     C4    5  -0.241   0.111   0.105
    1UNL     C5    6  -0.126   0.198   0.139
    1UNL     O2    7  -0.146   0.304   0.202
    1UNL     N1    8  -0.007   0.154   0.083
    1UNL     C6    9   0.114   0.242   0.098
    1UNL     C7   10   0.234   0.161   0.145
    1UNL     C8   11   0.257   0.042   0.055
    1UNL     C9   12   0.155  -0.022  -0.013
    1UNL     N2   13   0.204  -0.100  -0.113
    1UNL    C10   14   0.343  -0.091  -0.111
    1UNL    C11   15   0.434  -0.152  -0.201
    1UNL    C12   16   0.566  -0.124  -0.171
    1UNL    C13   17   0.606  -0.030  -0.074
    1UNL    C14   18   0.514   0.019   0.015
    1UNL    C15   19   0.379  -0.004  -0.005
    1UNL    C16   20   0.010   0.025   0.009
    1UNL    C17   21  -0.070  -0.075   0.083
    1UNL    C18   22  -0.219  -0.037   0.095
    1UNL    C19   23  -0.316  -0.105  -0.008
    1UNL    C20   24  -0.271  -0.080  -0.143
    1UNL     O3   25  -0.168  -0.123  -0.183
    1UNL     H1   26  -0.584  -0.244   0.002
    1UNL     H2   27  -0.651  -0.094  -0.066
    1UNL     H3   28  -0.523  -0.173  -0.158
    1UNL     H4   29  -0.482  -0.079   0.126
    1UNL     H5   30  -0.390   0.266   0.052
    1UNL     H6   31   0.082   0.324   0.160
    1UNL     H7   32   0.140   0.275  -0.000
    1UNL     H8   33   0.321   0.215   0.142
    1UNL     H9   34   0.214   0.116   0.249
    1UNL    H10   35   0.146  -0.110  -0.192
    1UNL    H11   36   0.408  -0.211  -0.280
    1UNL    H12   37   0.656  -0.153  -0.227
    1UNL    H13   38   0.702  -0.001  -0.051
    1UNL    H14   39   0.538   0.083   0.097
    1UNL    H15   40  -0.041   0.039  -0.089
    1UNL    H16   41  -0.065  -0.171   0.038
    1UNL    H17   42  -0.024  -0.100   0.187
    1UNL    H18   43  -0.258  -0.074   0.192
    1UNL    H19   44  -0.307  -0.216   0.008
    1UNL    H20   45  -0.330  -0.011  -0.199
   0.00000   0.00000   0.00000   0.00000   0.00000   0.00000   0.00000   0.00000   0.00000
Generated with MDTraj, t= 18.0
 45
    1UNL     C1    1  -0.563  -0.121  -0.056
    1UNL     C2    2  -0.456  -0.059   0.031
    1UNL     O1    3  -0.464   0.080   0.019
    1UNL     C3    4  -0.355   0.138   0.069
    1UNL     C4    5  -0.233   0.091   0.110
    1UNL     C5    6  -0.131   0.192   0.134
    1UNL     O2    7  -0.162   0.306   0.169
    1UNL     N1    8  -0.001   0.156   0.107
    1UNL     C6    9   0.113   0.253   0.127
    1UNL     C7   10   0.247   0.169   0.150
    1UNL     C8   11   0.263   0.057   0.049
    1UNL     C9   12   0.156  -0.002  -0.012
    1UNL     N2   13   0.194  -0.097  -0.104
    1UNL    C10   14   0.333  -0.098  -0.106
    1UNL    C11   15   0.434  -0.165  -0.187
    1UNL    C12   16   0.568  -0.129  -0.172
    1UNL    C13   17   0.603  -0.036  -0.075
    1UNL    C14   18   0.515   0.029   0.001
    1UNL    C15   19   0.380  -0.001  -0.015
    1UNL    C16   20   0.014   0.036   0.020
    1UNL    C17   21  -0.065  -0.085   0.076
    1UNL    C18   22  -0.212  -0.054   0.104
    1UNL    C19   23  -0.310  -0.108  -0.005
    1UNL    C20   24  -0.280  -0.076  -0.144
    1UNL     O3   25  -0.191  -0.133  -0.207
    1UNL     H1   26  -0.519  -0.165  -0.150
    1UNL     H2   27  -0.622  -0.197   0.000
    1UNL     H3   28  -0.633  -0.036  -0.083
    1UNL     H4   29  -0.482  -0.078   0.133
    1UNL     H5   30  -0.352   0.243   0.044
    1UNL     H6   31   0.088   0.305   0.217
    1UNL     H7   32   0.115   0.316   0.040
    1UNL     H8   33   0.322   0.232   0.121
    1UNL     H9   34   0.264   0.126   0.256
    1UNL    H10   35   0.130  -0.166  -0.117
    1UNL    H11   36   0.406  -0.240  -0.267
    1UNL    H12   37   0.646  -0.177  -0.225
    1UNL    H13   38   0.712  -0.008  -0.063
    1UNL    H14   39   0.542   0.104   0.086
    1UNL    H15   40  -0.047   0.070  -0.071
    1UNL    H16   41  -0.053  -0.169   0.016
    1UNL    H17   42  -0.015  -0.125   0.175
    1UNL    H18   43  -0.249  -0.098   0.198
    1UNL    H19   44  -0.291  -0.220   0.004
    1UNL    H20   45  -0.336  -0.004  -0.199
   0.00000   0.00000   0.00000   0.00000   0.00000   0.00000   0.00000   0.00000   0.00000
Generated with MDTraj, t= 19.0
 45
    1UNL     C1    1  -0.576  -0.118  -0.064
    1UNL     C2    2  -0.466  -0.064   0.029
    1UNL     O1    3  -0.474   0.079   0.045
    1UNL     C3    4  -0.357   0.147   0.066
    1UNL     C4    5  -0.239   0.098   0.106
    1UNL     C5    6  -0.126   0.192   0.131
    1UNL     O2    7  -0.154   0.300   0.180
    1UNL     N1    8   0.002   0.151   0.108
    1UNL     C6    9   0.117   0.240   0.132
    1UNL     C7   10   0.259   0.178   0.138
    1UNL     C8   11   0.266   0.070   0.034
    1UNL     C9   12   0.160  -0.000  -0.015
    1UNL     N2   13   0.202  -0.107  -0.095
    1UNL    C10   14   0.340  -0.094  -0.111
    1UNL    C11   15   0.438  -0.169  -0.174
    1UNL    C12   16   0.564  -0.143  -0.150
    1UNL    C13   17   0.610  -0.037  -0.066
    1UNL    C14   18   0.517   0.044  -0.006
    1UNL    C15   19   0.383   0.016  -0.029
    1UNL    C16   20   0.015   0.037   0.014
    1UNL    C17   21  -0.070  -0.084   0.054
    1UNL    C18   22  -0.220  -0.050   0.091
    1UNL    C19   23  -0.323  -0.115  -0.003
    1UNL    C20   24  -0.284  -0.083  -0.146
    1UNL     O3   25  -0.190  -0.135  -0.199
    1UNL     H1   26  -0.638  -0.040  -0.112
    1UNL     H2   27  -0.516  -0.174  -0.145
    1UNL     H3   28  -0.636  -0.198  -0.013
    1UNL     H4   29  -0.501  -0.101   0.128
    1UNL     H5   30  -0.365   0.249   0.068
    1UNL     H6   31   0.098   0.287   0.228
    1UNL     H7   32   0.111   0.314   0.054
    1UNL     H8   33   0.339   0.245   0.126
    1UNL     H9   34   0.273   0.117   0.235
    1UNL    H10   35   0.154  -0.136  -0.171
    1UNL    H11   36   0.408  -0.259  -0.222
    1UNL    H12   37   0.638  -0.213  -0.189
    1UNL    H13   38   0.713  -0.016  -0.056
    1UNL    H14   39   0.543   0.126   0.048
    1UNL    H15   40  -0.025   0.071  -0.088
    1UNL    H16   41  -0.066  -0.158  -0.020
    1UNL    H17   42  -0.018  -0.139   0.141
    1UNL    H18   43  -0.246  -0.095   0.188
    1UNL    H19   44  -0.315  -0.227   0.012
    1UNL    H20   45  -0.329   0.008  -0.190
   0.00000   0.00000   0.00000   0.00000   0.00000   0.00000   0.00000   0.00000   0.00000
Generated with MDTraj, t= 20.0
 45
    1UNL     C1    1  -0.577  -0.140  -0.039
    1UNL     C2    2  -0.463  -0.064   0.028
    1UNL     O1    3  -0.478   0.082   0.040
    1UNL     C3    4  -0.364   0.148   0.089
    1UNL     C4    5  -0.242   0.096   0.118
    1UNL     C5    6  -0.121   0.186   0.139
    1UNL     O2    7  -0.138   0.287   0.207
    1UNL     N1    8   0.003   0.155   0.084
    1UNL     C6    9   0.116   0.249   0.084
    1UNL     C7   10   0.243   0.186   0.120
    1UNL     C8   11   0.255   0.062   0.040
    1UNL     C9   12   0.152  -0.002  -0.022
    1UNL     N2   13   0.204  -0.097  -0.110
    1UNL    C10   14   0.339  -0.093  -0.093
    1UNL    C11   15   0.440  -0.165  -0.166
    1UNL    C12   16   0.571  -0.142  -0.145
    1UNL    C13   17   0.613  -0.046  -0.053
    1UNL    C14   18   0.517   0.034   0.013
    1UNL    C15   19   0.378   0.008  -0.006
    1UNL    C16   20   0.012   0.032  -0.005
    1UNL    C17   21  -0.072  -0.085   0.044
    1UNL    C18   22  -0.220  -0.050   0.093
    1UNL    C19   23  -0.320  -0.101  -0.012
    1UNL    C20   24  -0.269  -0.064  -0.153
    1UNL     O3   25  -0.187  -0.126  -0.208
    1UNL     H1   26  -0.651  -0.191   0.027
    1UNL     H2   27  -0.642  -0.068  -0.102
    1UNL     H3   28  -0.539  -0.216  -0.110
    1UNL     H4   29  -0.474  -0.088   0.139
    1UNL     H5   30  -0.371   0.261   0.092
    1UNL     H6   31   0.096   0.336   0.147
    1UNL     H7   32   0.125   0.279  -0.021
    1UNL     H8   33   0.335   0.250   0.105
    1UNL     H9   34   0.237   0.150   0.227
    1UNL    H10   35   0.162  -0.169  -0.157
    1UNL    H11   36   0.395  -0.243  -0.226
    1UNL    H12   37   0.641  -0.193  -0.207
    1UNL    H13   38   0.719  -0.030  -0.053
    1UNL    H14   39   0.549   0.130   0.051
    1UNL    H15   40  -0.021   0.062  -0.111
    1UNL    H16   41  -0.080  -0.158  -0.035
    1UNL    H17   42  -0.016  -0.142   0.123
    1UNL    H18   43  -0.241  -0.096   0.190
    1UNL    H19   44  -0.310  -0.214  -0.011
    1UNL    H20   45  -0.305   0.019  -0.211
   0.00000   0.00000   0.00000   0.00000   0.00000   0.00000   0.00000   0.00000   0.00000
Generated with MDTraj, t= 21.0
 45
    1UNL     C1    1  -0.571  -0.135  -0.041
    1UNL     C2    2  -0.463  -0.073   0.049
    1UNL     O1    3  -0.473   0.072   0.048
    1UNL     C3    4  -0.361   0.142   0.087
    1UNL     C4    5  -0.237   0.088   0.108
    1UNL     C5    6  -0.125   0.185   0.131
    1UNL     O2    7  -0.138   0.293   0.191
    1UNL     N1    8  -0.003   0.151   0.075
    1UNL     C6    9   0.108   0.248   0.080
    1UNL     C7   10   0.245   0.185   0.112
    1UNL     C8   11   0.265   0.068   0.022
    1UNL     C9   12   0.155   0.011  -0.040
    1UNL     N2   13   0.204  -0.089  -0.118
    1UNL    C10   14   0.344  -0.099  -0.099
    1UNL    C11   15   0.450  -0.175  -0.160
    1UNL    C12   16   0.581  -0.151  -0.128
    1UNL    C13   17   0.609  -0.047  -0.033
    1UNL    C14   18   0.509   0.031   0.027
    1UNL    C15   19   0.383   0.002  -0.013
    1UNL    C16   20   0.011   0.031  -0.011
    1UNL    C17   21  -0.057  -0.087   0.060
    1UNL    C18   22  -0.213  -0.065   0.094
    1UNL    C19   23  -0.320  -0.117  -0.002
    1UNL    C20   24  -0.302  -0.057  -0.144
    1UNL     O3   25  -0.206  -0.075  -0.218
    1UNL     H1   26  -0.538  -0.233  -0.085
    1UNL     H2   27  -0.671  -0.159   0.004
    1UNL     H3   28  -0.590  -0.070  -0.131
    1UNL     H4   29  -0.479  -0.101   0.160
    1UNL     H5   30  -0.365   0.253   0.072
    1UNL     H6   31   0.081   0.316   0.163
    1UNL     H7   32   0.114   0.306  -0.013
    1UNL     H8   33   0.330   0.266   0.090
    1UNL     H9   34   0.260   0.156   0.218
    1UNL    H10   35   0.154  -0.163  -0.160
    1UNL    H11   36   0.423  -0.259  -0.230
    1UNL    H12   37   0.655  -0.225  -0.163
    1UNL    H13   38   0.717  -0.018  -0.023
    1UNL    H14   39   0.554   0.115   0.093
    1UNL    H15   40  -0.050   0.064  -0.102
    1UNL    H16   41  -0.042  -0.176  -0.004
    1UNL    H17   42  -0.007  -0.105   0.152
    1UNL    H18   43  -0.228  -0.105   0.195
    1UNL    H19   44  -0.310  -0.230  -0.007
    1UNL    H20   45  -0.382   0.006  -0.175
   0.00000   0.00000   0.00000   0.00000   0.00000   0.00000   0.00000   0.00000   0.00000
Generated with MDTraj, t= 22.0
 45
    1UNL     C1    1  -0.572  -0.141  -0.021
    1UNL     C2    2  -0.451  -0.081   0.052
    1UNL     O1    3  -0.475   0.052   0.086
    1UNL     C3    4  -0.372   0.133   0.110
    1UNL     C4    5  -0.242   0.090   0.103
    1UNL     C5    6  -0.133   0.184   0.111
    1UNL     O2    7  -0.160   0.295   0.153
    1UNL     N1    8   0.001   0.150   0.081
    1UNL     C6    9   0.102   0.261   0.100
    1UNL     C7   10   0.239   0.187   0.122
    1UNL     C8   11   0.266   0.074   0.017
    1UNL     C9   12   0.165   0.009  -0.040
    1UNL     N2   13   0.210  -0.105  -0.101
    1UNL    C10   14   0.353  -0.103  -0.085
    1UNL    C11   15   0.443  -0.189  -0.148
    1UNL    C12   16   0.575  -0.167  -0.120
    1UNL    C13   17   0.614  -0.058  -0.039
    1UNL    C14   18   0.518   0.026   0.018
    1UNL    C15   19   0.386   0.014  -0.020
    1UNL    C16   20   0.022   0.043  -0.016
    1UNL    C17   21  -0.056  -0.078   0.036
    1UNL    C18   22  -0.207  -0.052   0.075
    1UNL    C19   23  -0.312  -0.106  -0.022
    1UNL    C20   24  -0.304  -0.046  -0.158
    1UNL     O3   25  -0.204  -0.050  -0.226
    1UNL     H1   26  -0.598  -0.075  -0.113
    1UNL     H2   27  -0.554  -0.246  -0.051
    1UNL     H3   28  -0.662  -0.134   0.046
    1UNL     H4   29  -0.450  -0.135   0.154
    1UNL     H5   30  -0.388   0.226   0.153
    1UNL     H6   31   0.069   0.315   0.192
    1UNL     H7   32   0.103   0.335   0.018
    1UNL     H8   33   0.332   0.262   0.114
    1UNL     H9   34   0.240   0.151   0.226
    1UNL    H10   35   0.163  -0.149  -0.181
    1UNL    H11   36   0.398  -0.267  -0.195
    1UNL    H12   37   0.644  -0.244  -0.146
    1UNL    H13   38   0.712  -0.051  -0.009
    1UNL    H14   39   0.554   0.089   0.088
    1UNL    H15   40  -0.030   0.084  -0.109
    1UNL    H16   41  -0.058  -0.150  -0.051
    1UNL    H17   42  -0.004  -0.118   0.115
    1UNL    H18   43  -0.219  -0.108   0.168
    1UNL    H19   44  -0.293  -0.219  -0.034
    1UNL    H20   45  -0.389  -0.005  -0.220
   0.00000   0.00000   0.00000   0.00000   0.00000   0.00000   0.00000   0.00000   0.00000
Generated with MDTraj, t= 23.0
 45
    1UNL     C1    1  -0.557  -0.158  -0.032
    1UNL     C2    2  -0.449  -0.091   0.060
    1UNL     O1    3  -0.481   0.049   0.093
    1UNL     C3    4  -0.372   0.129   0.111
    1UNL     C4    5  -0.241   0.097   0.097
    1UNL     C5    6  -0.133   0.195   0.115
    1UNL     O2    7  -0.151   0.305   0.165
    1UNL     N1    8  -0.006   0.155   0.071
    1UNL     C6    9   0.102   0.251   0.077
    1UNL     C7   10   0.240   0.194   0.109
    1UNL     C8   11   0.265   0.070   0.030
    1UNL     C9   12   0.163   0.003  -0.031
    1UNL     N2   13   0.213  -0.103  -0.105
    1UNL    C10   14   0.353  -0.108  -0.088
    1UNL    C11   15   0.453  -0.191  -0.148
    1UNL    C12   16   0.582  -0.165  -0.110
    1UNL    C13   17   0.618  -0.062  -0.021
    1UNL    C14   18   0.520   0.020   0.025
    1UNL    C15   19   0.386   0.008  -0.015
    1UNL    C16   20   0.022   0.040  -0.019
    1UNL    C17   21  -0.061  -0.086   0.010
    1UNL    C18   22  -0.201  -0.049   0.070
    1UNL    C19   23  -0.313  -0.101  -0.014
    1UNL    C20   24  -0.316  -0.024  -0.146
    1UNL     O3   25  -0.233  -0.042  -0.228
    1UNL     H1   26  -0.634  -0.209   0.038
    1UNL     H2   27  -0.606  -0.078  -0.089
    1UNL     H3   28  -0.515  -0.232  -0.105
    1UNL     H4   29  -0.444  -0.146   0.159
    1UNL     H5   30  -0.400   0.231   0.135
    1UNL     H6   31   0.073   0.330   0.152
    1UNL     H7   32   0.109   0.294  -0.026
    1UNL     H8   33   0.313   0.277   0.082
    1UNL     H9   34   0.253   0.176   0.219
    1UNL    H10   35   0.156  -0.191  -0.122
    1UNL    H11   36   0.408  -0.267  -0.218
    1UNL    H12   37   0.654  -0.230  -0.159
    1UNL    H13   38   0.729  -0.053  -0.007
    1UNL    H14   39   0.547   0.101   0.096
    1UNL    H15   40  -0.012   0.072  -0.121
    1UNL    H16   41  -0.070  -0.140  -0.089
    1UNL    H17   42  -0.008  -0.144   0.075
    1UNL    H18   43  -0.202  -0.098   0.169
    1UNL    H19   44  -0.292  -0.211  -0.035
    1UNL    H20   45  -0.364   0.072  -0.133
   0.00000   0.00000   0.00000   0.00000   0.00000   0.00000   0.00000   0.00000   0.00000
Generated with MDTraj, t= 24.0
 45
    1UNL     C1    1  -0.586  -0.124  -0.004
    1UNL     C2    2  -0.454  -0.079   0.059
    1UNL     O1    3  -0.462   0.063   0.087
    1UNL     C3    4  -0.347   0.129   0.112
    1UNL     C4    5  -0.224   0.087   0.087
    1UNL     C5    6  -0.118   0.176   0.119
    1UNL     O2    7  -0.139   0.277   0.182
    1UNL     N1    8   0.002   0.150   0.060
    1UNL     C6    9   0.100   0.252   0.070
    1UNL     C7   10   0.238   0.197   0.100
    1UNL     C8   11   0.258   0.071   0.022
    1UNL     C9   12   0.156   0.000  -0.049
    1UNL     N2   13   0.218  -0.091  -0.125
    1UNL    C10   14   0.355  -0.095  -0.096
    1UNL    C11   15   0.457  -0.184  -0.132
    1UNL    C12   16   0.583  -0.165  -0.088
    1UNL    C13   17   0.613  -0.047  -0.011
    1UNL    C14   18   0.516   0.034   0.041
    1UNL    C15   19   0.380   0.010  -0.002
    1UNL    C16   20   0.011   0.031  -0.032
    1UNL    C17   21  -0.065  -0.094   0.021
    1UNL    C18   22  -0.208  -0.059   0.067
    1UNL    C19   23  -0.322  -0.110  -0.023
    1UNL    C20   24  -0.326  -0.044  -0.159
    1UNL     O3   25  -0.231  -0.050  -0.229
    1UNL     H1   26  -0.564  -0.187  -0.094
    1UNL     H2   27  -0.642  -0.193   0.065
    1UNL     H3   28  -0.661  -0.040  -0.025
    1UNL     H4   29  -0.444  -0.119   0.161
    1UNL     H5   30  -0.366   0.239   0.139
    1UNL     H6   31   0.069   0.330   0.147
    1UNL     H7   32   0.097   0.291  -0.035
    1UNL     H8   33   0.319   0.266   0.085
    1UNL     H9   34   0.235   0.167   0.212
    1UNL    H10   35   0.180  -0.142  -0.216
    1UNL    H11   36   0.428  -0.269  -0.189
    1UNL    H12   37   0.657  -0.243  -0.111
    1UNL    H13   38   0.712  -0.012  -0.017
    1UNL    H14   39   0.549   0.130   0.087
    1UNL    H15   40  -0.043   0.059  -0.123
    1UNL    H16   41  -0.080  -0.164  -0.066
    1UNL    H17   42  -0.003  -0.138   0.093
    1UNL    H18   43  -0.215  -0.101   0.169
    1UNL    H19   44  -0.303  -0.223  -0.036
    1UNL    H20   45  -0.399   0.025  -0.194
   0.00000   0.00000   0.00000   0.00000   0.00000   0.00000   0.00000   0.00000   0.00000
Generated with MDTraj, t= 25.0
 45
    1UNL     C1    1  -0.584  -0.135  -0.015
    1UNL     C2    2  -0.463  -0.074   0.051
    1UNL     O1    3  -0.473   0.071   0.077
    1UNL     C3    4  -0.360   0.133   0.119
    1UNL     C4    5  -0.233   0.092   0.100
    1UNL     C5    6  -0.125   0.184   0.128
    1UNL     O2    7  -0.130   0.279   0.203
    1UNL     N1    8  -0.006   0.161   0.058
    1UNL     C6    9   0.101   0.262   0.067
    1UNL     C7   10   0.239   0.199   0.099
    1UNL     C8   11   0.266   0.071   0.018
    1UNL     C9   12   0.168   0.006  -0.051
    1UNL     N2   13   0.224  -0.102  -0.119
    1UNL    C10   14   0.360  -0.103  -0.089
    1UNL    C11   15   0.460  -0.190  -0.136
    1UNL    C12   16   0.590  -0.159  -0.097
    1UNL    C13   17   0.619  -0.056  -0.007
    1UNL    C14   18   0.525   0.033   0.037
    1UNL    C15   19   0.389   0.007  -0.009
    1UNL    C16   20   0.017   0.041  -0.036
    1UNL    C17   21  -0.069  -0.081   0.003
    1UNL    C18   22  -0.211  -0.053   0.066
    1UNL    C19   23  -0.326  -0.104  -0.015
    1UNL    C20   24  -0.331  -0.057  -0.152
    1UNL     O3   25  -0.240  -0.079  -0.230
    1UNL     H1   26  -0.663  -0.060  -0.017
    1UNL     H2   27  -0.572  -0.163  -0.124
    1UNL     H3   28  -0.623  -0.232   0.037
    1UNL     H4   29  -0.461  -0.115   0.150
    1UNL     H5   30  -0.374   0.222   0.176
    1UNL     H6   31   0.068   0.333   0.150
    1UNL     H7   32   0.104   0.319  -0.029
    1UNL     H8   33   0.314   0.266   0.076
    1UNL     H9   34   0.256   0.166   0.211
    1UNL    H10   35   0.185  -0.161  -0.206
    1UNL    H11   36   0.442  -0.288  -0.172
    1UNL    H12   37   0.669  -0.223  -0.121
    1UNL    H13   38   0.725  -0.052   0.026
    1UNL    H14   39   0.545   0.123   0.080
    1UNL    H15   40  -0.016   0.080  -0.131
    1UNL    H16   41  -0.075  -0.147  -0.087
    1UNL    H17   42  -0.009  -0.134   0.076
    1UNL    H18   43  -0.212  -0.099   0.168
    1UNL    H19   44  -0.324  -0.220  -0.014
    1UNL    H20   45  -0.407   0.021  -0.178
   0.00000   0.00000   0.00000   0.00000   0.00000   0.00000   0.00000   0.00000   0.00000
Generated with MDTraj, t= 26.0
 45
    1UNL     C1    1  -0.566  -0.140  -0.022
    1UNL     C2    2  -0.452  -0.079   0.055
    1UNL     O1    3  -0.476   0.063   0.068
    1UNL     C3    4  -0.364   0.133   0.105
    1UNL     C4    5  -0.232   0.097   0.103
    1UNL     C5    6  -0.127   0.192   0.128
    1UNL     O2    7  -0.147   0.300   0.178
    1UNL     N1    8   0.001   0.156   0.079
    1UNL     C6    9   0.110   0.266   0.094
    1UNL     C7   10   0.248   0.203   0.116
    1UNL     C8   11   0.268   0.086   0.018
    1UNL     C9   12   0.163   0.008  -0.032
    1UNL     N2   13   0.210  -0.109  -0.094
    1UNL    C10   14   0.349  -0.109  -0.092
    1UNL    C11   15   0.445  -0.187  -0.148
    1UNL    C12   16   0.578  -0.164  -0.106
    1UNL    C13   17   0.614  -0.064  -0.016
    1UNL    C14   18   0.519   0.023   0.021
    1UNL    C15   19   0.388   0.008  -0.019
    1UNL    C16   20   0.021   0.047  -0.023
    1UNL    C17   21  -0.059  -0.078   0.010
    1UNL    C18   22  -0.200  -0.050   0.072
    1UNL    C19   23  -0.311  -0.109  -0.017
    1UNL    C20   24  -0.303  -0.046  -0.151
    1UNL     O3   25  -0.269  -0.102  -0.249
    1UNL     H1   26  -0.569  -0.247   0.003
    1UNL     H2   27  -0.663  -0.096   0.018
    1UNL     H3   28  -0.555  -0.121  -0.135
    1UNL     H4   29  -0.449  -0.114   0.157
    1UNL     H5   30  -0.382   0.228   0.142
    1UNL     H6   31   0.074   0.335   0.175
    1UNL     H7   32   0.108   0.325  -0.001
    1UNL     H8   33   0.331   0.261   0.087
    1UNL     H9   34   0.273   0.171   0.223
    1UNL    H10   35   0.150  -0.197  -0.117
    1UNL    H11   36   0.429  -0.280  -0.210
    1UNL    H12   37   0.658  -0.241  -0.130
    1UNL    H13   38   0.713  -0.048   0.015
    1UNL    H14   39   0.553   0.112   0.087
    1UNL    H15   40   0.001   0.090  -0.119
    1UNL    H16   41  -0.073  -0.129  -0.085
    1UNL    H17   42   0.007  -0.150   0.068
    1UNL    H18   43  -0.202  -0.095   0.174
    1UNL    H19   44  -0.291  -0.222  -0.025
    1UNL    H20   45  -0.348   0.049  -0.171
   0.00000   0.00000   0.00000   0.00000   0.00000   0.00000   0.00000   0.00000   0.00000
Generated with MDTraj, t= 27.0
 45
    1UNL     C1    1  -0.578  -0.123  -0.024
    1UNL     C2    2  -0.456  -0.078   0.058
    1UNL     O1    3  -0.473   0.063   0.076
    1UNL     C3    4  -0.361   0.141   0.090
    1UNL     C4    5  -0.234   0.100   0.087
    1UNL     C5    6  -0.125   0.189   0.123
    1UNL     O2    7  -0.152   0.301   0.155
    1UNL     N1    8   0.010   0.153   0.086
    1UNL     C6    9   0.116   0.257   0.112
    1UNL     C7   10   0.250   0.193   0.133
    1UNL     C8   11   0.270   0.082   0.031
    1UNL     C9   12   0.168   0.010  -0.031
    1UNL     N2   13   0.211  -0.094  -0.104
    1UNL    C10   14   0.348  -0.098  -0.090
    1UNL    C11   15   0.440  -0.187  -0.145
    1UNL    C12   16   0.572  -0.170  -0.109
    1UNL    C13   17   0.612  -0.062  -0.039
    1UNL    C14   18   0.529   0.028   0.023
    1UNL    C15   19   0.391   0.014  -0.013
    1UNL    C16   20   0.019   0.055  -0.019
    1UNL    C17   21  -0.062  -0.071   0.021
    1UNL    C18   22  -0.207  -0.051   0.074
    1UNL    C19   23  -0.317  -0.114  -0.014
    1UNL    C20   24  -0.303  -0.065  -0.156
    1UNL     O3   25  -0.261  -0.126  -0.248
    1UNL     H1   26  -0.569  -0.069  -0.122
    1UNL     H2   27  -0.576  -0.236  -0.040
    1UNL     H3   28  -0.670  -0.091   0.029
    1UNL     H4   29  -0.450  -0.121   0.159
    1UNL     H5   30  -0.376   0.254   0.098
    1UNL     H6   31   0.082   0.319   0.198
    1UNL     H7   32   0.122   0.320   0.021
    1UNL     H8   33   0.329   0.265   0.130
    1UNL     H9   34   0.264   0.145   0.230
    1UNL    H10   35   0.153  -0.154  -0.166
    1UNL    H11   36   0.417  -0.263  -0.211
    1UNL    H12   37   0.638  -0.245  -0.136
    1UNL    H13   38   0.719  -0.034  -0.034
    1UNL    H14   39   0.550   0.105   0.091
    1UNL    H15   40  -0.019   0.101  -0.106
    1UNL    H16   41  -0.057  -0.147  -0.055
    1UNL    H17   42  -0.002  -0.118   0.110
    1UNL    H18   43  -0.222  -0.094   0.177
    1UNL    H19   44  -0.306  -0.229  -0.010
    1UNL    H20   45  -0.343   0.033  -0.166
   0.00000   0.00000   0.00000   0.00000   0.00000   0.00000   0.00000   0.00000   0.00000
Generated with MDTraj, t= 28.0
 45
    1UNL     C1    1  -0.578  -0.135  -0.031
    1UNL     C2    2  -0.470  -0.060   0.053
    1UNL     O1    3  -0.485   0.082   0.056
    1UNL     C3    4  -0.370   0.153   0.080
    1UNL     C4    5  -0.244   0.109   0.098
    1UNL     C5    6  -0.130   0.200   0.125
    1UNL     O2    7  -0.134   0.307   0.179
    1UNL     N1    8  -0.002   0.154   0.080
    1UNL     C6    9   0.118   0.241   0.084
    1UNL     C7   10   0.250   0.171   0.119
    1UNL     C8   11   0.264   0.046   0.047
    1UNL     C9   12   0.163   0.008  -0.041
    1UNL     N2   13   0.218  -0.084  -0.126
    1UNL    C10   14   0.352  -0.107  -0.096
    1UNL    C11   15   0.459  -0.171  -0.159
    1UNL    C12   16   0.589  -0.143  -0.125
    1UNL    C13   17   0.620  -0.048  -0.027
    1UNL    C14   18   0.524   0.017   0.038
    1UNL    C15   19   0.391  -0.004  -0.002
    1UNL    C16   20   0.014   0.045  -0.025
    1UNL    C17   21  -0.073  -0.074   0.019
    1UNL    C18   22  -0.214  -0.044   0.088
    1UNL    C19   23  -0.326  -0.106   0.004
    1UNL    C20   24  -0.306  -0.077  -0.140
    1UNL     O3   25  -0.229  -0.135  -0.213
    1UNL     H1   26  -0.671  -0.144   0.035
    1UNL     H2   27  -0.612  -0.079  -0.126
    1UNL     H3   28  -0.547  -0.235  -0.060
    1UNL     H4   29  -0.472  -0.092   0.162
    1UNL     H5   30  -0.391   0.259   0.105
    1UNL     H6   31   0.102   0.325   0.154
    1UNL     H7   32   0.126   0.278  -0.019
    1UNL     H8   33   0.341   0.231   0.108
    1UNL     H9   34   0.248   0.149   0.218
    1UNL    H10   35   0.167  -0.120  -0.201
    1UNL    H11   36   0.441  -0.249  -0.235
    1UNL    H12   37   0.675  -0.191  -0.176
    1UNL    H13   38   0.721  -0.029  -0.002
    1UNL    H14   39   0.538   0.093   0.112
    1UNL    H15   40  -0.032   0.071  -0.118
    1UNL    H16   41  -0.087  -0.142  -0.063
    1UNL    H17   42  -0.006  -0.138   0.092
    1UNL    H18   43  -0.222  -0.085   0.193
    1UNL    H19   44  -0.323  -0.220   0.017
    1UNL    H20   45  -0.368  -0.002  -0.197
   0.00000   0.00000   0.00000   0.00000   0.00000   0.00000   0.00000   0.00000   0.00000
Generated with MDTraj, t= 29.0
 45
    1UNL     C1    1  -0.589  -0.118   0.004
    1UNL     C2    2  -0.460  -0.049   0.053
    1UNL     O1    3  -0.469   0.092   0.032
    1UNL     C3    4  -0.357   0.161   0.059
    1UNL     C4    5  -0.238   0.103   0.095
    1UNL     C5    6  -0.121   0.192   0.112
    1UNL     O2    7  -0.139   0.298   0.166
    1UNL     N1    8   0.003   0.155   0.061
    1UNL     C6    9   0.114   0.244   0.086
    1UNL     C7   10   0.231   0.160   0.144
    1UNL     C8   11   0.257   0.053   0.046
    1UNL     C9   12   0.157  -0.005  -0.029
    1UNL     N2   13   0.216  -0.090  -0.126
    1UNL    C10   14   0.351  -0.084  -0.105
    1UNL    C11   15   0.449  -0.148  -0.183
    1UNL    C12   16   0.573  -0.138  -0.136
    1UNL    C13   17   0.612  -0.056  -0.022
    1UNL    C14   18   0.519   0.017   0.040
    1UNL    C15   19   0.382  -0.001   0.002
    1UNL    C16   20   0.015   0.022  -0.008
    1UNL    C17   21  -0.071  -0.089   0.058
    1UNL    C18   22  -0.218  -0.048   0.092
    1UNL    C19   23  -0.323  -0.108  -0.004
    1UNL    C20   24  -0.302  -0.093  -0.156
    1UNL     O3   25  -0.197  -0.125  -0.206
    1UNL     H1   26  -0.568  -0.215  -0.051
    1UNL     H2   27  -0.658  -0.149   0.089
    1UNL     H3   28  -0.647  -0.054  -0.063
    1UNL     H4   29  -0.446  -0.064   0.167
    1UNL     H5   30  -0.370   0.262   0.049
    1UNL     H6   31   0.087   0.312   0.166
    1UNL     H7   32   0.136   0.304  -0.002
    1UNL     H8   33   0.320   0.220   0.164
    1UNL     H9   34   0.210   0.119   0.235
    1UNL    H10   35   0.169  -0.148  -0.183
    1UNL    H11   36   0.423  -0.213  -0.265
    1UNL    H12   37   0.656  -0.195  -0.168
    1UNL    H13   38   0.717  -0.032  -0.004
    1UNL    H14   39   0.544   0.101   0.112
    1UNL    H15   40  -0.028   0.024  -0.107
    1UNL    H16   41  -0.078  -0.174  -0.008
    1UNL    H17   42  -0.005  -0.122   0.147
    1UNL    H18   43  -0.241  -0.077   0.198
    1UNL    H19   44  -0.322  -0.222   0.008
    1UNL    H20   45  -0.377  -0.053  -0.220
   0.00000   0.00000   0.00000   0.00000   0.00000   0.00000   0.00000   0.00000   0.00000
Generated with MDTraj, t= 30.0
 45
    1UNL     C1    1  -0.566  -0.143  -0.026
    1UNL     C2    2  -0.462  -0.059   0.052
    1UNL     O1    3  -0.471   0.085   0.027
    1UNL     C3    4  -0.356   0.153   0.040
    1UNL     C4    5  -0.233   0.112   0.083
    1UNL     C5    6  -0.127   0.207   0.105
    1UNL     O2    7  -0.152   0.319   0.141
    1UNL     N1    8   0.003   0.163   0.078
    1UNL     C6    9   0.109   0.240   0.135
    1UNL     C7   10   0.240   0.155   0.153
    1UNL     C8   11   0.258   0.055   0.045
    1UNL     C9   12   0.153  -0.005  -0.016
    1UNL     N2   13   0.205  -0.107  -0.100
    1UNL    C10   14   0.342  -0.102  -0.100
    1UNL    C11   15   0.448  -0.159  -0.184
    1UNL    C12   16   0.580  -0.136  -0.160
    1UNL    C13   17   0.613  -0.057  -0.049
    1UNL    C14   18   0.514   0.009   0.029
    1UNL    C15   19   0.378  -0.009  -0.002
    1UNL    C16   20   0.011   0.037  -0.006
    1UNL    C17   21  -0.062  -0.079   0.058
    1UNL    C18   22  -0.206  -0.036   0.095
    1UNL    C19   23  -0.318  -0.105   0.013
    1UNL    C20   24  -0.301  -0.085  -0.137
    1UNL     O3   25  -0.205  -0.115  -0.196
    1UNL     H1   26  -0.605  -0.079  -0.110
    1UNL     H2   27  -0.514  -0.231  -0.070
    1UNL     H3   28  -0.654  -0.172   0.039
    1UNL     H4   29  -0.476  -0.072   0.165
    1UNL     H5   30  -0.362   0.256  -0.001
    1UNL     H6   31   0.074   0.282   0.228
    1UNL     H7   32   0.131   0.327   0.077
    1UNL     H8   33   0.325   0.221   0.158
    1UNL     H9   34   0.249   0.106   0.248
    1UNL    H10   35   0.154  -0.144  -0.174
    1UNL    H11   36   0.423  -0.241  -0.250
    1UNL    H12   37   0.660  -0.183  -0.216
    1UNL    H13   38   0.716  -0.031  -0.030
    1UNL    H14   39   0.537   0.086   0.090
    1UNL    H15   40  -0.036   0.067  -0.101
    1UNL    H16   41  -0.069  -0.155  -0.021
    1UNL    H17   42  -0.007  -0.118   0.147
    1UNL    H18   43  -0.227  -0.059   0.203
    1UNL    H19   44  -0.315  -0.220   0.017
    1UNL    H20   45  -0.353   0.003  -0.174
   0.00000   0.00000   0.00000   0.00000   0.00000   0.00000   0.00000   0.00000   0.00000
Generated with MDTraj, t= 31.0
 45
    1UNL     C1    1  -0.575  -0.133  -0.050
    1UNL     C2    2  -0.464  -0.065   0.030
    1UNL     O1    3  -0.479   0.079   0.053
    1UNL     C3    4  -0.365   0.151   0.076
    1UNL     C4    5  -0.239   0.112   0.098
    1UNL     C5    6  -0.135   0.208   0.108
    1UNL     O2    7  -0.151   0.327   0.117
    1UNL     N1    8  -0.006   0.155   0.110
    1UNL     C6    9   0.114   0.245   0.126
    1UNL     C7   10   0.242   0.161   0.150
    1UNL     C8   11   0.264   0.058   0.051
    1UNL     C9   12   0.159  -0.004  -0.006
    1UNL     N2   13   0.204  -0.092  -0.102
    1UNL    C10   14   0.342  -0.100  -0.104
    1UNL    C11   15   0.434  -0.176  -0.179
    1UNL    C12   16   0.570  -0.156  -0.158
    1UNL    C13   17   0.612  -0.057  -0.065
    1UNL    C14   18   0.521   0.021   0.010
    1UNL    C15   19   0.387   0.002  -0.011
    1UNL    C16   20   0.015   0.039   0.025
    1UNL    C17   21  -0.067  -0.080   0.071
    1UNL    C18   22  -0.216  -0.037   0.090
    1UNL    C19   23  -0.318  -0.098  -0.009
    1UNL    C20   24  -0.279  -0.083  -0.154
    1UNL     O3   25  -0.178  -0.133  -0.198
    1UNL     H1   26  -0.548  -0.122  -0.158
    1UNL     H2   27  -0.578  -0.239  -0.026
    1UNL     H3   28  -0.673  -0.073  -0.033
    1UNL     H4   29  -0.466  -0.097   0.139
    1UNL     H5   30  -0.386   0.262   0.076
    1UNL     H6   31   0.107   0.324   0.198
    1UNL     H7   32   0.129   0.302   0.036
    1UNL     H8   33   0.331   0.218   0.156
    1UNL     H9   34   0.236   0.123   0.258
    1UNL    H10   35   0.148  -0.164  -0.149
    1UNL    H11   36   0.393  -0.259  -0.237
    1UNL    H12   37   0.639  -0.224  -0.206
    1UNL    H13   38   0.716  -0.040  -0.051
    1UNL    H14   39   0.564   0.099   0.078
    1UNL    H15   40  -0.018   0.085  -0.073
    1UNL    H16   41  -0.068  -0.157  -0.012
    1UNL    H17   42  -0.030  -0.115   0.165
    1UNL    H18   43  -0.247  -0.084   0.186
    1UNL    H19   44  -0.305  -0.212   0.001
    1UNL    H20   45  -0.333  -0.007  -0.217
   0.00000   0.00000   0.00000   0.00000   0.00000   0.00000   0.00000   0.00000   0.00000
Generated with MDTraj, t= 32.0
 45
    1UNL     C1    1  -0.555  -0.111  -0.080
    1UNL     C2    2  -0.459  -0.059   0.028
    1UNL     O1    3  -0.466   0.083   0.028
    1UNL     C3    4  -0.355   0.154   0.071
    1UNL     C4    5  -0.239   0.102   0.111
    1UNL     C5    6  -0.127   0.195   0.128
    1UNL     O2    7  -0.136   0.297   0.192
    1UNL     N1    8  -0.004   0.158   0.074
    1UNL     C6    9   0.108   0.256   0.079
    1UNL     C7   10   0.243   0.189   0.102
    1UNL     C8   11   0.256   0.054   0.038
    1UNL     C9   12   0.150  -0.013  -0.019
    1UNL     N2   13   0.200  -0.111  -0.110
    1UNL    C10   14   0.339  -0.111  -0.094
    1UNL    C11   15   0.436  -0.186  -0.164
    1UNL    C12   16   0.567  -0.144  -0.139
    1UNL    C13   17   0.605  -0.036  -0.061
    1UNL    C14   18   0.507   0.028   0.016
    1UNL    C15   19   0.373  -0.005  -0.009
    1UNL    C16   20   0.008   0.024   0.018
    1UNL    C17   21  -0.072  -0.085   0.097
    1UNL    C18   22  -0.218  -0.045   0.113
    1UNL    C19   23  -0.314  -0.110   0.003
    1UNL    C20   24  -0.275  -0.064  -0.136
    1UNL     O3   25  -0.183  -0.122  -0.193
    1UNL     H1   26  -0.551  -0.046  -0.171
    1UNL     H2   27  -0.534  -0.214  -0.115
    1UNL     H3   28  -0.665  -0.098  -0.049
    1UNL     H4   29  -0.488  -0.096   0.128
    1UNL     H5   30  -0.364   0.256   0.057
    1UNL     H6   31   0.088   0.335   0.147
    1UNL     H7   32   0.112   0.309  -0.014
    1UNL     H8   33   0.320   0.255   0.079
    1UNL     H9   34   0.265   0.179   0.216
    1UNL    H10   35   0.147  -0.169  -0.186
    1UNL    H11   36   0.399  -0.261  -0.228
    1UNL    H12   37   0.638  -0.215  -0.178
    1UNL    H13   38   0.712   0.002  -0.056
    1UNL    H14   39   0.531   0.105   0.097
    1UNL    H15   40  -0.041   0.032  -0.086
    1UNL    H16   41  -0.062  -0.183   0.040
    1UNL    H17   42  -0.032  -0.088   0.192
    1UNL    H18   43  -0.258  -0.078   0.210
    1UNL    H19   44  -0.310  -0.225   0.002
    1UNL    H20   45  -0.327   0.008  -0.194
   0.00000   0.00000   0.00000   0.00000   0.00000   0.00000   0.00000   0.00000   0.00000
Generated with MDTraj, t= 33.0
 45
    1UNL     C1    1  -0.560  -0.106  -0.076
    1UNL     C2    2  -0.462  -0.049   0.026
    1UNL     O1    3  -0.467   0.091   0.031
    1UNL     C3    4  -0.362   0.149   0.099
    1UNL     C4    5  -0.240   0.088   0.119
    1UNL     C5    6  -0.127   0.183   0.140
    1UNL     O2    7  -0.133   0.283   0.210
    1UNL     N1    8  -0.008   0.158   0.066
    1UNL     C6    9   0.093   0.257   0.064
    1UNL     C7   10   0.238   0.206   0.101
    1UNL     C8   11   0.260   0.075   0.032
    1UNL     C9   12   0.152  -0.006  -0.010
    1UNL     N2   13   0.194  -0.118  -0.078
    1UNL    C10   14   0.334  -0.112  -0.075
    1UNL    C11   15   0.430  -0.196  -0.130
    1UNL    C12   16   0.565  -0.167  -0.131
    1UNL    C13   17   0.610  -0.044  -0.070
    1UNL    C14   18   0.513   0.037  -0.013
    1UNL    C15   19   0.374   0.012  -0.024
    1UNL    C16   20   0.009   0.027  -0.005
    1UNL    C17   21  -0.068  -0.088   0.065
    1UNL    C18   22  -0.215  -0.058   0.098
    1UNL    C19   23  -0.319  -0.110  -0.009
    1UNL    C20   24  -0.258  -0.062  -0.143
    1UNL     O3   25  -0.166  -0.113  -0.197
    1UNL     H1   26  -0.526  -0.090  -0.181
    1UNL     H2   27  -0.580  -0.219  -0.067
    1UNL     H3   28  -0.654  -0.048  -0.075
    1UNL     H4   29  -0.482  -0.091   0.122
    1UNL     H5   30  -0.372   0.254   0.112
    1UNL     H6   31   0.058   0.335   0.129
    1UNL     H7   32   0.090   0.298  -0.035
    1UNL     H8   33   0.305   0.275   0.063
    1UNL     H9   34   0.266   0.223   0.214
    1UNL    H10   35   0.134  -0.192  -0.135
    1UNL    H11   36   0.392  -0.286  -0.182
    1UNL    H12   37   0.638  -0.228  -0.184
    1UNL    H13   38   0.709  -0.021  -0.068
    1UNL    H14   39   0.550   0.118   0.031
    1UNL    H15   40  -0.039   0.034  -0.109
    1UNL    H16   41  -0.070  -0.179  -0.004
    1UNL    H17   42  -0.008  -0.104   0.147
    1UNL    H18   43  -0.247  -0.110   0.189
    1UNL    H19   44  -0.330  -0.224  -0.014
    1UNL    H20   45  -0.312   0.016  -0.192
   0.00000   0.00000   0.00000   0.00000   0.00000   0.00000   0.00000   0.00000   0.00000
Generated with MDTraj, t= 34.0
 45
    1UNL     C1    1  -0.563  -0.122  -0.068
    1UNL     C2    2  -0.456  -0.064   0.029
    1UNL     O1    3  -0.482   0.081   0.058
    1UNL     C3    4  -0.372   0.152   0.096
    1UNL     C4    5  -0.245   0.100   0.106
    1UNL     C5    6  -0.132   0.184   0.140
    1UNL     O2    7  -0.149   0.293   0.192
    1UNL     N1    8   0.006   0.142   0.109
    1UNL     C6    9   0.103   0.251   0.100
    1UNL     C7   10   0.251   0.212   0.072
    1UNL     C8   11   0.261   0.079   0.004
    1UNL     C9   12   0.161  -0.012  -0.012
    1UNL     N2   13   0.208  -0.131  -0.067
    1UNL    C10   14   0.344  -0.110  -0.088
    1UNL    C11   15   0.440  -0.208  -0.124
    1UNL    C12   16   0.573  -0.180  -0.102
    1UNL    C13   17   0.605  -0.048  -0.058
    1UNL    C14   18   0.515   0.049  -0.029
    1UNL    C15   19   0.377   0.019  -0.040
    1UNL    C16   20   0.018   0.028   0.006
    1UNL    C17   21  -0.077  -0.084   0.059
    1UNL    C18   22  -0.221  -0.047   0.089
    1UNL    C19   23  -0.315  -0.100  -0.018
    1UNL    C20   24  -0.271  -0.049  -0.154
    1UNL     O3   25  -0.188  -0.095  -0.227
    1UNL     H1   26  -0.575  -0.054  -0.157
    1UNL     H2   27  -0.529  -0.226  -0.106
    1UNL     H3   28  -0.659  -0.119  -0.017
    1UNL     H4   29  -0.457  -0.108   0.127
    1UNL     H5   30  -0.394   0.260   0.129
    1UNL     H6   31   0.105   0.303   0.194
    1UNL     H7   32   0.070   0.323   0.026
    1UNL     H8   33   0.296   0.295   0.024
    1UNL     H9   34   0.315   0.213   0.170
    1UNL    H10   35   0.152  -0.226  -0.067
    1UNL    H11   36   0.408  -0.305  -0.152
    1UNL    H12   37   0.647  -0.255  -0.116
    1UNL    H13   38   0.715  -0.024  -0.059
    1UNL    H14   39   0.543   0.153  -0.003
    1UNL    H15   40  -0.025   0.063  -0.095
    1UNL    H16   41  -0.069  -0.156  -0.027
    1UNL    H17   42  -0.035  -0.126   0.146
    1UNL    H18   43  -0.251  -0.101   0.180
    1UNL    H19   44  -0.301  -0.214  -0.019
    1UNL    H20   45  -0.335   0.032  -0.197
   0.00000   0.00000   0.00000   0.00000   0.00000   0.00000   0.00000   0.00000   0.00000
Generated with MDTraj, t= 35.0
 45
    1UNL     C1    1  -0.560  -0.117  -0.056
    1UNL     C2    2  -0.453  -0.072   0.040
    1UNL     O1    3  -0.476   0.070   0.060
    1UNL     C3    4  -0.363   0.136   0.088
    1UNL     C4    5  -0.236   0.092   0.097
    1UNL     C5    6  -0.132   0.186   0.124
    1UNL     O2    7  -0.153   0.294   0.178
    1UNL     N1    8  -0.003   0.154   0.076
    1UNL     C6    9   0.109   0.241   0.118
    1UNL     C7   10   0.249   0.217   0.056
    1UNL     C8   11   0.265   0.077   0.014
    1UNL     C9   12   0.159   0.004  -0.040
    1UNL     N2   13   0.206  -0.119  -0.080
    1UNL    C10   14   0.344  -0.126  -0.059
    1UNL    C11   15   0.439  -0.211  -0.109
    1UNL    C12   16   0.568  -0.167  -0.113
    1UNL    C13   17   0.610  -0.046  -0.058
    1UNL    C14   18   0.518   0.037  -0.004
    1UNL    C15   19   0.381  -0.002   0.000
    1UNL    C16   20   0.013   0.036  -0.008
    1UNL    C17   21  -0.054  -0.090   0.053
    1UNL    C18   22  -0.203  -0.057   0.089
    1UNL    C19   23  -0.311  -0.109  -0.010
    1UNL    C20   24  -0.302  -0.043  -0.144
    1UNL     O3   25  -0.214  -0.056  -0.229
    1UNL     H1   26  -0.534  -0.102  -0.165
    1UNL     H2   27  -0.571  -0.227  -0.033
    1UNL     H3   28  -0.651  -0.059  -0.034
    1UNL     H4   29  -0.474  -0.109   0.143
    1UNL     H5   30  -0.378   0.240   0.106
    1UNL     H6   31   0.117   0.239   0.226
    1UNL     H7   32   0.081   0.344   0.096
    1UNL     H8   33   0.284   0.282  -0.027
    1UNL     H9   34   0.326   0.245   0.134
    1UNL    H10   35   0.147  -0.189  -0.131
    1UNL    H11   36   0.407  -0.315  -0.128
    1UNL    H12   37   0.643  -0.241  -0.148
    1UNL    H13   38   0.715  -0.017  -0.073
    1UNL    H14   39   0.540   0.147   0.024
    1UNL    H15   40  -0.035   0.062  -0.109
    1UNL    H16   41  -0.051  -0.173  -0.017
    1UNL    H17   42   0.010  -0.112   0.138
    1UNL    H18   43  -0.228  -0.107   0.183
    1UNL    H19   44  -0.314  -0.223  -0.025
    1UNL    H20   45  -0.372   0.031  -0.173
   0.00000   0.00000   0.00000   0.00000   0.00000   0.00000   0.00000   0.00000   0.00000
Generated with MDTraj, t= 36.0
 45
    1UNL     C1    1  -0.577  -0.144  -0.019
    1UNL     C2    2  -0.460  -0.076   0.046
    1UNL     O1    3  -0.483   0.066   0.071
    1UNL     C3    4  -0.369   0.143   0.101
    1UNL     C4    5  -0.242   0.102   0.094
    1UNL     C5    6  -0.133   0.191   0.123
    1UNL     O2    7  -0.162   0.303   0.164
    1UNL     N1    8  -0.002   0.151   0.086
    1UNL     C6    9   0.112   0.222   0.143
    1UNL     C7   10   0.239   0.220   0.058
    1UNL     C8   11   0.271   0.086  -0.004
    1UNL     C9   12   0.165  -0.002  -0.030
    1UNL     N2   13   0.217  -0.122  -0.076
    1UNL    C10   14   0.357  -0.117  -0.074
    1UNL    C11   15   0.450  -0.209  -0.117
    1UNL    C12   16   0.583  -0.184  -0.095
    1UNL    C13   17   0.621  -0.064  -0.034
    1UNL    C14   18   0.531   0.035  -0.008
    1UNL    C15   19   0.394   0.011  -0.029
    1UNL    C16   20   0.017   0.037  -0.005
    1UNL    C17   21  -0.074  -0.079   0.033
    1UNL    C18   22  -0.217  -0.042   0.069
    1UNL    C19   23  -0.319  -0.097  -0.030
    1UNL    C20   24  -0.309  -0.042  -0.172
    1UNL     O3   25  -0.203  -0.050  -0.226
    1UNL     H1   26  -0.628  -0.078  -0.095
    1UNL     H2   27  -0.545  -0.236  -0.069
    1UNL     H3   28  -0.659  -0.166   0.058
    1UNL     H4   29  -0.456  -0.117   0.153
    1UNL     H5   30  -0.391   0.242   0.123
    1UNL     H6   31   0.128   0.186   0.244
    1UNL     H7   32   0.078   0.325   0.162
    1UNL     H8   33   0.219   0.296  -0.028
    1UNL     H9   34   0.339   0.256   0.090
    1UNL    H10   35   0.171  -0.192  -0.129
    1UNL    H11   36   0.426  -0.306  -0.155
    1UNL    H12   37   0.654  -0.254  -0.131
    1UNL    H13   38   0.721  -0.047  -0.014
    1UNL    H14   39   0.562   0.127   0.016
    1UNL    H15   40  -0.016   0.073  -0.107
    1UNL    H16   41  -0.074  -0.149  -0.046
    1UNL    H17   42  -0.026  -0.127   0.123
    1UNL    H18   43  -0.231  -0.071   0.175
    1UNL    H19   44  -0.298  -0.209  -0.046
    1UNL    H20   45  -0.382   0.026  -0.214
   0.00000   0.00000   0.00000   0.00000   0.00000   0.00000   0.00000   0.00000   0.00000
Generated with MDTraj, t= 37.0
 45
    1UNL     C1    1  -0.575  -0.137  -0.021
    1UNL     C2    2  -0.463  -0.065   0.049
    1UNL     O1    3  -0.475   0.077   0.058
    1UNL     C3    4  -0.354   0.146   0.076
    1UNL     C4    5  -0.228   0.102   0.084
    1UNL     C5    6  -0.123   0.190   0.118
    1UNL     O2    7  -0.133   0.297   0.177
    1UNL     N1    8   0.004   0.149   0.073
    1UNL     C6    9   0.119   0.195   0.154
    1UNL     C7   10   0.242   0.204   0.075
    1UNL     C8   11   0.255   0.082  -0.012
    1UNL     C9   12   0.155   0.000  -0.045
    1UNL     N2   13   0.210  -0.122  -0.073
    1UNL    C10   14   0.351  -0.114  -0.077
    1UNL    C11   15   0.456  -0.205  -0.104
    1UNL    C12   16   0.590  -0.169  -0.075
    1UNL    C13   17   0.611  -0.042  -0.030
    1UNL    C14   18   0.516   0.053  -0.009
    1UNL    C15   19   0.379   0.017  -0.038
    1UNL    C16   20   0.016   0.031  -0.028
    1UNL    C17   21  -0.070  -0.092   0.011
    1UNL    C18   22  -0.210  -0.049   0.069
    1UNL    C19   23  -0.328  -0.101  -0.012
    1UNL    C20   24  -0.323  -0.050  -0.150
    1UNL     O3   25  -0.227  -0.054  -0.217
    1UNL     H1   26  -0.567  -0.148  -0.131
    1UNL     H2   27  -0.592  -0.238   0.017
    1UNL     H3   28  -0.674  -0.077  -0.010
    1UNL     H4   29  -0.460  -0.102   0.159
    1UNL     H5   30  -0.369   0.256   0.101
    1UNL     H6   31   0.131   0.130   0.241
    1UNL     H7   32   0.094   0.294   0.200
    1UNL     H8   33   0.264   0.293  -0.003
    1UNL     H9   34   0.330   0.211   0.138
    1UNL    H10   35   0.163  -0.204  -0.081
    1UNL    H11   36   0.447  -0.299  -0.154
    1UNL    H12   37   0.677  -0.238  -0.087
    1UNL    H13   38   0.721  -0.012  -0.018
    1UNL    H14   39   0.536   0.152   0.031
    1UNL    H15   40  -0.023   0.071  -0.124
    1UNL    H16   41  -0.087  -0.150  -0.071
    1UNL    H17   42  -0.007  -0.160   0.076
    1UNL    H18   43  -0.220  -0.094   0.169
    1UNL    H19   44  -0.320  -0.215  -0.009
    1UNL    H20   45  -0.404   0.024  -0.173
   0.00000   0.00000   0.00000   0.00000   0.00000   0.00000   0.00000   0.00000   0.00000
Generated with MDTraj, t= 38.0
 45
    1UNL     C1    1  -0.595  -0.119  -0.003
    1UNL     C2    2  -0.462  -0.058   0.044
    1UNL     O1    3  -0.473   0.091   0.039
    1UNL     C3    4  -0.354   0.152   0.073
    1UNL     C4    5  -0.232   0.097   0.089
    1UNL     C5    6  -0.122   0.176   0.131
    1UNL     O2    7  -0.134   0.286   0.185
    1UNL     N1    8   0.009   0.140   0.092
    1UNL     C6    9   0.115   0.210   0.153
    1UNL     C7   10   0.235   0.221   0.060
    1UNL     C8   11   0.269   0.089   0.001
    1UNL     C9   12   0.165  -0.002  -0.034
    1UNL     N2   13   0.218  -0.114  -0.086
    1UNL    C10   14   0.356  -0.108  -0.075
    1UNL    C11   15   0.451  -0.200  -0.110
    1UNL    C12   16   0.582  -0.168  -0.090
    1UNL    C13   17   0.618  -0.044  -0.037
    1UNL    C14   18   0.527   0.047   0.001
    1UNL    C15   19   0.392   0.020  -0.026
    1UNL    C16   20   0.019   0.030  -0.007
    1UNL    C17   21  -0.071  -0.095   0.028
    1UNL    C18   22  -0.214  -0.054   0.066
    1UNL    C19   23  -0.330  -0.107  -0.025
    1UNL    C20   24  -0.323  -0.055  -0.162
    1UNL     O3   25  -0.235  -0.092  -0.237
    1UNL     H1   26  -0.635  -0.055  -0.084
    1UNL     H2   27  -0.578  -0.221  -0.044
    1UNL     H3   28  -0.678  -0.116   0.076
    1UNL     H4   29  -0.446  -0.082   0.155
    1UNL     H5   30  -0.353   0.262   0.083
    1UNL     H6   31   0.136   0.163   0.250
    1UNL     H7   32   0.076   0.316   0.167
    1UNL     H8   33   0.200   0.291  -0.029
    1UNL     H9   34   0.325   0.271   0.098
    1UNL    H10   35   0.172  -0.194  -0.107
    1UNL    H11   36   0.430  -0.293  -0.167
    1UNL    H12   37   0.658  -0.238  -0.113
    1UNL    H13   38   0.718  -0.024  -0.020
    1UNL    H14   39   0.554   0.147   0.057
    1UNL    H15   40  -0.032   0.059  -0.099
    1UNL    H16   41  -0.060  -0.163  -0.050
    1UNL    H17   42  -0.027  -0.160   0.111
    1UNL    H18   43  -0.235  -0.103   0.163
    1UNL    H19   44  -0.323  -0.221  -0.027
    1UNL    H20   45  -0.393   0.009  -0.208
   0.00000   0.00000   0.00000   0.00000   0.00000   0.00000   0.00000   0.00000   0.00000
Generated with MDTraj, t= 39.0
 45
    1UNL     C1    1  -0.575  -0.118  -0.045
    1UNL     C2    2  -0.463  -0.052   0.038
    1UNL     O1    3  -0.480   0.087   0.041
    1UNL     C3    4  -0.372   0.154   0.087
    1UNL     C4    5  -0.244   0.109   0.099
    1UNL     C5    6  -0.129   0.184   0.141
    1UNL     O2    7  -0.138   0.291   0.204
    1UNL     N1    8   0.005   0.147   0.094
    1UNL     C6    9   0.116   0.226   0.154
    1UNL     C7   10   0.248   0.210   0.075
    1UNL     C8   11   0.269   0.072   0.023
    1UNL     C9   12   0.165  -0.005  -0.018
    1UNL     N2   13   0.217  -0.111  -0.089
    1UNL    C10   14   0.355  -0.116  -0.075
    1UNL    C11   15   0.454  -0.210  -0.114
    1UNL    C12   16   0.584  -0.166  -0.109
    1UNL    C13   17   0.618  -0.038  -0.066
    1UNL    C14   18   0.528   0.045  -0.012
    1UNL    C15   19   0.390   0.008  -0.016
    1UNL    C16   20   0.023   0.046  -0.008
    1UNL    C17   21  -0.078  -0.069   0.012
    1UNL    C18   22  -0.218  -0.034   0.072
    1UNL    C19   23  -0.328  -0.097  -0.016
    1UNL    C20   24  -0.295  -0.065  -0.161
    1UNL     O3   25  -0.246  -0.149  -0.234
    1UNL     H1   26  -0.545  -0.121  -0.152
    1UNL     H2   27  -0.583  -0.226  -0.007
    1UNL     H3   28  -0.668  -0.059  -0.038
    1UNL     H4   29  -0.477  -0.081   0.147
    1UNL     H5   30  -0.389   0.251   0.115
    1UNL     H6   31   0.130   0.208   0.263
    1UNL     H7   32   0.083   0.334   0.147
    1UNL     H8   33   0.252   0.273  -0.015
    1UNL     H9   34   0.337   0.240   0.136
    1UNL    H10   35   0.154  -0.168  -0.141
    1UNL    H11   36   0.427  -0.309  -0.127
    1UNL    H12   37   0.660  -0.238  -0.137
    1UNL    H13   38   0.725  -0.009  -0.057
    1UNL    H14   39   0.550   0.138   0.028
    1UNL    H15   40  -0.002   0.085  -0.103
    1UNL    H16   41  -0.090  -0.129  -0.077
    1UNL    H17   42  -0.020  -0.143   0.073
    1UNL    H18   43  -0.218  -0.078   0.174
    1UNL    H19   44  -0.330  -0.211   0.003
    1UNL    H20   45  -0.345   0.023  -0.204
   0.00000   0.00000   0.00000   0.00000   0.00000   0.00000   0.00000   0.00000   0.00000
Generated with MDTraj, t= 40.0
 45
    1UNL     C1    1  -0.575  -0.095  -0.067
    1UNL     C2    2  -0.463  -0.053   0.036
    1UNL     O1    3  -0.471   0.094   0.040
    1UNL     C3    4  -0.351   0.156   0.064
    1UNL     C4    5  -0.228   0.103   0.085
    1UNL     C5    6  -0.123   0.192   0.133
    1UNL     O2    7  -0.146   0.299   0.190
    1UNL     N1    8   0.006   0.152   0.100
    1UNL     C6    9   0.120   0.207   0.172
    1UNL     C7   10   0.249   0.219   0.087
    1UNL     C8   11   0.270   0.086   0.021
    1UNL     C9   12   0.164   0.005  -0.008
    1UNL     N2   13   0.204  -0.109  -0.066
    1UNL    C10   14   0.342  -0.098  -0.087
    1UNL    C11   15   0.432  -0.192  -0.136
    1UNL    C12   16   0.566  -0.167  -0.127
    1UNL    C13   17   0.610  -0.046  -0.064
    1UNL    C14   18   0.524   0.045  -0.012
    1UNL    C15   19   0.387   0.017  -0.019
    1UNL    C16   20   0.019   0.038   0.001
    1UNL    C17   21  -0.068  -0.088   0.034
    1UNL    C18   22  -0.211  -0.047   0.076
    1UNL    C19   23  -0.321  -0.115  -0.004
    1UNL    C20   24  -0.293  -0.096  -0.149
    1UNL     O3   25  -0.236  -0.157  -0.230
    1UNL     H1   26  -0.585  -0.014  -0.145
    1UNL     H2   27  -0.564  -0.195  -0.123
    1UNL     H3   28  -0.670  -0.088  -0.016
    1UNL     H4   29  -0.494  -0.084   0.136
    1UNL     H5   30  -0.377   0.262   0.080
    1UNL     H6   31   0.138   0.142   0.259
    1UNL     H7   32   0.097   0.306   0.224
    1UNL     H8   33   0.241   0.298   0.020
    1UNL     H9   34   0.342   0.243   0.149
    1UNL    H10   35   0.138  -0.183  -0.103
    1UNL    H11   36   0.397  -0.296  -0.160
    1UNL    H12   37   0.646  -0.238  -0.145
    1UNL    H13   38   0.716  -0.027  -0.073
    1UNL    H14   39   0.553   0.136   0.028
    1UNL    H15   40  -0.006   0.075  -0.095
    1UNL    H16   41  -0.061  -0.168  -0.046
    1UNL    H17   42  -0.021  -0.131   0.124
    1UNL    H18   43  -0.220  -0.072   0.185
    1UNL    H19   44  -0.326  -0.226   0.020
    1UNL    H20   45  -0.348  -0.009  -0.193
   0.00000   0.00000   0.00000   0.00000   0.00000   0.00000   0.00000   0.00000   0.00000
Generated with MDTraj, t= 41.0
 45
    1UNL     C1    1  -0.576  -0.104  -0.063
    1UNL     C2    2  -0.463  -0.045   0.020
    1UNL     O1    3  -0.466   0.101   0.016
    1UNL     C3    4  -0.359   0.164   0.071
    1UNL     C4    5  -0.239   0.112   0.101
    1UNL     C5    6  -0.123   0.195   0.128
    1UNL     O2    7  -0.142   0.305   0.178
    1UNL     N1    8   0.007   0.155   0.092
    1UNL     C6    9   0.120   0.189   0.178
    1UNL     C7   10   0.246   0.197   0.097
    1UNL     C8   11   0.257   0.073   0.009
    1UNL     C9   12   0.151  -0.015  -0.019
    1UNL     N2   13   0.207  -0.127  -0.088
    1UNL    C10   14   0.343  -0.109  -0.097
    1UNL    C11   15   0.444  -0.186  -0.155
    1UNL    C12   16   0.574  -0.147  -0.133
    1UNL    C13   17   0.612  -0.034  -0.053
    1UNL    C14   18   0.513   0.053  -0.010
    1UNL    C15   19   0.379   0.012  -0.035
    1UNL    C16   20   0.009   0.023   0.010
    1UNL    C17   21  -0.082  -0.085   0.074
    1UNL    C18   22  -0.228  -0.038   0.096
    1UNL    C19   23  -0.325  -0.109  -0.002
    1UNL    C20   24  -0.269  -0.084  -0.139
    1UNL     O3   25  -0.192  -0.146  -0.207
    1UNL     H1   26  -0.563  -0.104  -0.175
    1UNL     H2   27  -0.604  -0.211  -0.039
    1UNL     H3   28  -0.667  -0.043  -0.046
    1UNL     H4   29  -0.495  -0.056   0.122
    1UNL     H5   30  -0.376   0.276   0.058
    1UNL     H6   31   0.130   0.124   0.269
    1UNL     H7   32   0.094   0.288   0.226
    1UNL     H8   33   0.240   0.280   0.038
    1UNL     H9   34   0.337   0.214   0.163
    1UNL    H10   35   0.151  -0.215  -0.126
    1UNL    H11   36   0.420  -0.271  -0.212
    1UNL    H12   37   0.647  -0.202  -0.186
    1UNL    H13   38   0.712  -0.008  -0.034
    1UNL    H14   39   0.547   0.158   0.031
    1UNL    H15   40  -0.036   0.058  -0.080
    1UNL    H16   41  -0.087  -0.173  -0.005
    1UNL    H17   42  -0.031  -0.126   0.160
    1UNL    H18   43  -0.259  -0.083   0.196
    1UNL    H19   44  -0.342  -0.220   0.019
    1UNL    H20   45  -0.311   0.000  -0.184
   0.00000   0.00000   0.00000   0.00000   0.00000   0.00000   0.00000   0.00000   0.00000
Generated with MDTraj, t= 42.0
 45
    1UNL     C1    1  -0.575  -0.126  -0.066
    1UNL     C2    2  -0.467  -0.048   0.015
    1UNL     O1    3  -0.471   0.091  -0.011
    1UNL     C3    4  -0.367   0.159   0.042
    1UNL     C4    5  -0.248   0.115   0.089
    1UNL     C5    6  -0.133   0.200   0.135
    1UNL     O2    7  -0.152   0.316   0.181
    1UNL     N1    8  -0.001   0.142   0.122
    1UNL     C6    9   0.124   0.207   0.179
    1UNL     C7   10   0.258   0.191   0.103
    1UNL     C8   11   0.266   0.063   0.036
    1UNL     C9   12   0.156  -0.004  -0.003
    1UNL     N2   13   0.200  -0.112  -0.078
    1UNL    C10   14   0.342  -0.118  -0.089
    1UNL    C11   15   0.437  -0.193  -0.162
    1UNL    C12   16   0.567  -0.150  -0.159
    1UNL    C13   17   0.613  -0.035  -0.095
    1UNL    C14   18   0.518   0.039  -0.022
    1UNL    C15   19   0.385  -0.003  -0.023
    1UNL    C16   20   0.010   0.028   0.025
    1UNL    C17   21  -0.082  -0.088   0.073
    1UNL    C18   22  -0.225  -0.031   0.095
    1UNL    C19   23  -0.323  -0.107  -0.002
    1UNL    C20   24  -0.278  -0.086  -0.140
    1UNL     O3   25  -0.163  -0.109  -0.173
    1UNL     H1   26  -0.533  -0.173  -0.159
    1UNL     H2   27  -0.617  -0.209  -0.007
    1UNL     H3   28  -0.662  -0.064  -0.105
    1UNL     H4   29  -0.493  -0.044   0.120
    1UNL     H5   30  -0.379   0.262   0.041
    1UNL     H6   31   0.135   0.161   0.278
    1UNL     H7   32   0.105   0.315   0.207
    1UNL     H8   33   0.268   0.274   0.037
    1UNL     H9   34   0.335   0.199   0.179
    1UNL    H10   35   0.135  -0.174  -0.143
    1UNL    H11   36   0.394  -0.269  -0.224
    1UNL    H12   37   0.634  -0.211  -0.223
    1UNL    H13   38   0.723  -0.005  -0.096
    1UNL    H14   39   0.541   0.123   0.035
    1UNL    H15   40  -0.026   0.069  -0.069
    1UNL    H16   41  -0.068  -0.181   0.001
    1UNL    H17   42  -0.048  -0.122   0.170
    1UNL    H18   43  -0.246  -0.070   0.199
    1UNL    H19   44  -0.312  -0.218   0.023
    1UNL    H20   45  -0.337  -0.032  -0.216
   0.00000   0.00000   0.00000   0.00000   0.00000   0.00000   0.00000   0.00000   0.00000
Generated with MDTraj, t= 43.0
 45
    1UNL     C1    1  -0.560  -0.120  -0.065
    1UNL     C2    2  -0.447  -0.054   0.017
    1UNL     O1    3  -0.463   0.083  -0.001
    1UNL     C3    4  -0.349   0.155   0.032
    1UNL     C4    5  -0.230   0.106   0.082
    1UNL     C5    6  -0.124   0.197   0.122
    1UNL     O2    7  -0.152   0.304   0.178
    1UNL     N1    8   0.007   0.154   0.102
    1UNL     C6    9   0.112   0.214   0.187
    1UNL     C7   10   0.250   0.196   0.114
    1UNL     C8   11   0.258   0.063   0.043
    1UNL     C9   12   0.150  -0.013   0.014
    1UNL     N2   13   0.186  -0.120  -0.067
    1UNL    C10   14   0.323  -0.114  -0.082
    1UNL    C11   15   0.406  -0.191  -0.162
    1UNL    C12   16   0.537  -0.153  -0.171
    1UNL    C13   17   0.585  -0.035  -0.108
    1UNL    C14   18   0.508   0.043  -0.020
    1UNL    C15   19   0.376   0.001  -0.010
    1UNL    C16   20   0.014   0.027   0.031
    1UNL    C17   21  -0.067  -0.078   0.108
    1UNL    C18   22  -0.217  -0.037   0.094
    1UNL    C19   23  -0.305  -0.101  -0.015
    1UNL    C20   24  -0.256  -0.072  -0.156
    1UNL     O3   25  -0.152  -0.113  -0.195
    1UNL     H1   26  -0.578  -0.056  -0.153
    1UNL     H2   27  -0.529  -0.221  -0.091
    1UNL     H3   28  -0.659  -0.127  -0.007
    1UNL     H4   29  -0.472  -0.081   0.122
    1UNL     H5   30  -0.363   0.259   0.019
    1UNL     H6   31   0.109   0.170   0.286
    1UNL     H7   32   0.073   0.318   0.207
    1UNL     H8   33   0.259   0.280   0.043
    1UNL     H9   34   0.324   0.204   0.184
    1UNL    H10   35   0.124  -0.178  -0.131
    1UNL    H11   36   0.349  -0.265  -0.222
    1UNL    H12   37   0.604  -0.216  -0.223
    1UNL    H13   38   0.681  -0.005  -0.126
    1UNL    H14   39   0.551   0.117   0.042
    1UNL    H15   40  -0.031   0.043  -0.070
    1UNL    H16   41  -0.047  -0.184   0.070
    1UNL    H17   42  -0.033  -0.076   0.213
    1UNL    H18   43  -0.264  -0.069   0.192
    1UNL    H19   44  -0.306  -0.214   0.002
    1UNL    H20   45  -0.316   0.001  -0.212
   0.00000   0.00000   0.00000   0.00000   0.00000   0.00000   0.00000   0.00000   0.00000
Generated with MDTraj, t= 44.0
 45
    1UNL     C1    1  -0.534  -0.120  -0.114
    1UNL     C2    2  -0.456  -0.049   0.001
    1UNL     O1    3  -0.469   0.100   0.006
    1UNL     C3    4  -0.357   0.166   0.063
    1UNL     C4    5  -0.242   0.105   0.103
    1UNL     C5    6  -0.132   0.194   0.126
    1UNL     O2    7  -0.148   0.311   0.168
    1UNL     N1    8  -0.002   0.152   0.094
    1UNL     C6    9   0.105   0.204   0.183
    1UNL     C7   10   0.241   0.197   0.108
    1UNL     C8   11   0.259   0.065   0.036
    1UNL     C9   12   0.152  -0.014   0.003
    1UNL     N2   13   0.196  -0.120  -0.068
    1UNL    C10   14   0.329  -0.111  -0.093
    1UNL    C11   15   0.421  -0.195  -0.169
    1UNL    C12   16   0.549  -0.156  -0.173
    1UNL    C13   17   0.596  -0.041  -0.097
    1UNL    C14   18   0.509   0.042  -0.035
    1UNL    C15   19   0.372   0.005  -0.030
    1UNL    C16   20   0.010   0.020   0.025
    1UNL    C17   21  -0.073  -0.079   0.108
    1UNL    C18   22  -0.228  -0.040   0.114
    1UNL    C19   23  -0.312  -0.104   0.005
    1UNL    C20   24  -0.250  -0.069  -0.126
    1UNL     O3   25  -0.156  -0.124  -0.166
    1UNL     H1   26  -0.473  -0.122  -0.204
    1UNL     H2   27  -0.565  -0.224  -0.089
    1UNL     H3   28  -0.626  -0.062  -0.145
    1UNL     H4   29  -0.508  -0.089   0.094
    1UNL     H5   30  -0.362   0.281   0.054
    1UNL     H6   31   0.095   0.155   0.279
    1UNL     H7   32   0.078   0.310   0.202
    1UNL     H8   33   0.234   0.275   0.028
    1UNL     H9   34   0.315   0.224   0.171
    1UNL    H10   35   0.138  -0.195  -0.099
    1UNL    H11   36   0.392  -0.285  -0.209
    1UNL    H12   37   0.621  -0.209  -0.238
    1UNL    H13   38   0.704  -0.028  -0.076
    1UNL    H14   39   0.550   0.134   0.022
    1UNL    H15   40  -0.040   0.030  -0.075
    1UNL    H16   41  -0.062  -0.178   0.063
    1UNL    H17   42  -0.036  -0.092   0.215
    1UNL    H18   43  -0.271  -0.070   0.214
    1UNL    H19   44  -0.312  -0.217   0.008
    1UNL    H20   45  -0.266   0.021  -0.179
   0.00000   0.00000   0.00000   0.00000   0.00000   0.00000   0.00000   0.00000   0.00000
Generated with MDTraj, t= 45.0
 45
    1UNL     C1    1  -0.538  -0.096  -0.117
    1UNL     C2    2  -0.459  -0.044  -0.002
    1UNL     O1    3  -0.477   0.098   0.030
    1UNL     C3    4  -0.368   0.167   0.081
    1UNL     C4    5  -0.241   0.119   0.092
    1UNL     C5    6  -0.126   0.203   0.139
    1UNL     O2    7  -0.143   0.319   0.182
    1UNL     N1    8   0.000   0.148   0.125
    1UNL     C6    9   0.118   0.220   0.180
    1UNL     C7   10   0.237   0.205   0.091
    1UNL     C8   11   0.253   0.072   0.019
    1UNL     C9   12   0.149  -0.014  -0.002
    1UNL     N2   13   0.191  -0.126  -0.071
    1UNL    C10   14   0.326  -0.111  -0.096
    1UNL    C11   15   0.422  -0.192  -0.157
    1UNL    C12   16   0.554  -0.161  -0.153
    1UNL    C13   17   0.596  -0.038  -0.094
    1UNL    C14   18   0.503   0.042  -0.036
    1UNL    C15   19   0.367   0.003  -0.024
    1UNL    C16   20   0.011   0.024   0.035
    1UNL    C17   21  -0.073  -0.092   0.084
    1UNL    C18   22  -0.222  -0.033   0.094
    1UNL    C19   23  -0.311  -0.102  -0.011
    1UNL    C20   24  -0.249  -0.101  -0.152
    1UNL     O3   25  -0.142  -0.160  -0.167
    1UNL     H1   26  -0.520  -0.037  -0.207
    1UNL     H2   27  -0.505  -0.203  -0.139
    1UNL     H3   28  -0.646  -0.108  -0.105
    1UNL     H4   29  -0.507  -0.084   0.095
    1UNL     H5   30  -0.387   0.267   0.119
    1UNL     H6   31   0.140   0.181   0.277
    1UNL     H7   32   0.087   0.324   0.194
    1UNL     H8   33   0.229   0.284   0.015
    1UNL     H9   34   0.328   0.215   0.147
    1UNL    H10   35   0.125  -0.167  -0.127
    1UNL    H11   36   0.391  -0.290  -0.207
    1UNL    H12   37   0.636  -0.213  -0.198
    1UNL    H13   38   0.703  -0.017  -0.109
    1UNL    H14   39   0.527   0.136  -0.007
    1UNL    H15   40  -0.041   0.055  -0.061
    1UNL    H16   41  -0.069  -0.180   0.027
    1UNL    H17   42  -0.026  -0.125   0.186
    1UNL    H18   43  -0.249  -0.072   0.197
    1UNL    H19   44  -0.308  -0.213   0.011
    1UNL    H20   45  -0.312  -0.066  -0.236
   0.00000   0.00000   0.00000   0.00000   0.00000   0.00000   0.00000   0.00000   0.00000
Generated with MDTraj, t= 46.0
 45
    1UNL     C1    1  -0.540  -0.095  -0.107
    1UNL     C2    2  -0.458  -0.051   0.010
    1UNL     O1    3  -0.464   0.096   0.006
    1UNL     C3    4  -0.358   0.168   0.053
    1UNL     C4    5  -0.241   0.111   0.096
    1UNL     C5    6  -0.128   0.190   0.146
    1UNL     O2    7  -0.159   0.290   0.213
    1UNL     N1    8  -0.002   0.150   0.101
    1UNL     C6    9   0.114   0.220   0.164
    1UNL     C7   10   0.245   0.214   0.084
    1UNL     C8   11   0.261   0.079   0.018
    1UNL     C9   12   0.157  -0.010  -0.004
    1UNL     N2   13   0.199  -0.119  -0.073
    1UNL    C10   14   0.338  -0.111  -0.079
    1UNL    C11   15   0.425  -0.207  -0.132
    1UNL    C12   16   0.554  -0.163  -0.148
    1UNL    C13   17   0.597  -0.040  -0.096
    1UNL    C14   18   0.515   0.052  -0.041
    1UNL    C15   19   0.381   0.012  -0.025
    1UNL    C16   20   0.007   0.025   0.025
    1UNL    C17   21  -0.065  -0.086   0.093
    1UNL    C18   22  -0.219  -0.039   0.106
    1UNL    C19   23  -0.309  -0.100   0.002
    1UNL    C20   24  -0.255  -0.077  -0.134
    1UNL     O3   25  -0.201  -0.162  -0.202
    1UNL     H1   26  -0.489  -0.061  -0.201
    1UNL     H2   27  -0.557  -0.207  -0.112
    1UNL     H3   28  -0.640  -0.055  -0.101
    1UNL     H4   29  -0.507  -0.079   0.110
    1UNL     H5   30  -0.372   0.267   0.075
    1UNL     H6   31   0.123   0.185   0.265
    1UNL     H7   32   0.088   0.325   0.169
    1UNL     H8   33   0.250   0.286   0.004
    1UNL     H9   34   0.333   0.230   0.158
    1UNL    H10   35   0.137  -0.189  -0.084
    1UNL    H11   36   0.393  -0.292  -0.181
    1UNL    H12   37   0.617  -0.228  -0.205
    1UNL    H13   38   0.697  -0.013  -0.106
    1UNL    H14   39   0.548   0.153  -0.010
    1UNL    H15   40  -0.042   0.043  -0.077
    1UNL    H16   41  -0.053  -0.179   0.047
    1UNL    H17   42  -0.025  -0.105   0.201
    1UNL    H18   43  -0.255  -0.073   0.207
    1UNL    H19   44  -0.307  -0.212   0.007
    1UNL    H20   45  -0.274   0.015  -0.191
   0.00000   0.00000   0.00000   0.00000   0.00000   0.00000   0.00000   0.00000   0.00000
Generated with MDTraj, t= 47.0
 45
    1UNL     C1    1  -0.562  -0.102  -0.065
    1UNL     C2    2  -0.451  -0.044   0.022
    1UNL     O1    3  -0.452   0.100  -0.003
    1UNL     C3    4  -0.352   0.159   0.066
    1UNL     C4    5  -0.235   0.097   0.097
    1UNL     C5    6  -0.128   0.182   0.144
    1UNL     O2    7  -0.149   0.290   0.200
    1UNL     N1    8  -0.001   0.147   0.110
    1UNL     C6    9   0.121   0.218   0.175
    1UNL     C7   10   0.236   0.219   0.068
    1UNL     C8   11   0.259   0.082   0.009
    1UNL     C9   12   0.150  -0.005  -0.013
    1UNL     N2   13   0.199  -0.122  -0.053
    1UNL    C10   14   0.339  -0.111  -0.073
    1UNL    C11   15   0.430  -0.204  -0.122
    1UNL    C12   16   0.564  -0.159  -0.134
    1UNL    C13   17   0.604  -0.036  -0.092
    1UNL    C14   18   0.517   0.049  -0.028
    1UNL    C15   19   0.381   0.018  -0.029
    1UNL    C16   20   0.009   0.029   0.018
    1UNL    C17   21  -0.068  -0.084   0.079
    1UNL    C18   22  -0.219  -0.050   0.094
    1UNL    C19   23  -0.311  -0.103  -0.010
    1UNL    C20   24  -0.263  -0.074  -0.153
    1UNL     O3   25  -0.226  -0.149  -0.236
    1UNL     H1   26  -0.528  -0.091  -0.173
    1UNL     H2   27  -0.578  -0.209  -0.042
    1UNL     H3   28  -0.655  -0.053  -0.042
    1UNL     H4   29  -0.474  -0.063   0.130
    1UNL     H5   30  -0.370   0.271   0.078
    1UNL     H6   31   0.152   0.164   0.262
    1UNL     H7   32   0.088   0.317   0.203
    1UNL     H8   33   0.215   0.286  -0.012
    1UNL     H9   34   0.343   0.242   0.116
    1UNL    H10   35   0.141  -0.188  -0.092
    1UNL    H11   36   0.404  -0.302  -0.159
    1UNL    H12   37   0.636  -0.225  -0.182
    1UNL    H13   38   0.714  -0.012  -0.072
    1UNL    H14   39   0.551   0.137   0.030
    1UNL    H15   40  -0.037   0.056  -0.083
    1UNL    H16   41  -0.065  -0.171   0.019
    1UNL    H17   42  -0.025  -0.110   0.182
    1UNL    H18   43  -0.261  -0.089   0.191
    1UNL    H19   44  -0.315  -0.214  -0.001
    1UNL    H20   45  -0.268   0.028  -0.175
   0.00000   0.00000   0.00000   0.00000   0.00000   0.00000   0.00000   0.00000   0.00000
Generated with MDTraj, t= 48.0
 45
    1UNL     C1    1  -0.579  -0.123  -0.061
    1UNL     C2    2  -0.475  -0.044   0.026
    1UNL     O1    3  -0.478   0.099   0.029
    1UNL     C3    4  -0.370   0.167   0.077
    1UNL     C4    5  -0.242   0.113   0.085
    1UNL     C5    6  -0.122   0.189   0.138
    1UNL     O2    7  -0.130   0.300   0.191
    1UNL     N1    8   0.004   0.138   0.113
    1UNL     C6    9   0.123   0.211   0.164
    1UNL     C7   10   0.254   0.207   0.082
    1UNL     C8   11   0.262   0.078   0.003
    1UNL     C9   12   0.162  -0.013  -0.010
    1UNL     N2   13   0.216  -0.130  -0.066
    1UNL    C10   14   0.354  -0.119  -0.085
    1UNL    C11   15   0.455  -0.207  -0.119
    1UNL    C12   16   0.587  -0.154  -0.106
    1UNL    C13   17   0.616  -0.023  -0.072
    1UNL    C14   18   0.515   0.060  -0.031
    1UNL    C15   19   0.384   0.007  -0.034
    1UNL    C16   20   0.019   0.029   0.012
    1UNL    C17   21  -0.078  -0.082   0.034
    1UNL    C18   22  -0.221  -0.036   0.080
    1UNL    C19   23  -0.331  -0.103  -0.009
    1UNL    C20   24  -0.305  -0.081  -0.152
    1UNL     O3   25  -0.224  -0.131  -0.224
    1UNL     H1   26  -0.580  -0.088  -0.168
    1UNL     H2   27  -0.557  -0.230  -0.062
    1UNL     H3   28  -0.678  -0.120  -0.009
    1UNL     H4   29  -0.492  -0.069   0.131
    1UNL     H5   30  -0.388   0.277   0.095
    1UNL     H6   31   0.136   0.157   0.256
    1UNL     H7   32   0.088   0.311   0.186
    1UNL     H8   33   0.255   0.285   0.007
    1UNL     H9   34   0.352   0.214   0.148
    1UNL    H10   35   0.177  -0.221  -0.089
    1UNL    H11   36   0.440  -0.313  -0.161
    1UNL    H12   37   0.676  -0.216  -0.125
    1UNL    H13   38   0.713   0.009  -0.061
    1UNL    H14   39   0.534   0.145   0.020
    1UNL    H15   40  -0.009   0.086  -0.082
    1UNL    H16   41  -0.083  -0.143  -0.055
    1UNL    H17   42  -0.035  -0.143   0.113
    1UNL    H18   43  -0.243  -0.068   0.184
    1UNL    H19   44  -0.324  -0.213   0.012
    1UNL    H20   45  -0.347   0.010  -0.202
   0.00000   0.00000   0.00000   0.00000   0.00000   0.00000   0.00000   0.00000   0.00000
Generated with MDTraj, t= 49.0
 45
    1UNL     C1    1  -0.604  -0.096  -0.023
    1UNL     C2    2  -0.476  -0.050   0.047
    1UNL     O1    3  -0.479   0.092   0.054
    1UNL     C3    4  -0.359   0.146   0.074
    1UNL     C4    5  -0.234   0.094   0.081
    1UNL     C5    6  -0.120   0.185   0.106
    1UNL     O2    7  -0.145   0.289   0.166
    1UNL     N1    8   0.004   0.145   0.073
    1UNL     C6    9   0.116   0.198   0.160
    1UNL     C7   10   0.240   0.220   0.077
    1UNL     C8   11   0.268   0.083   0.017
    1UNL     C9   12   0.167  -0.002  -0.029
    1UNL     N2   13   0.221  -0.120  -0.083
    1UNL    C10   14   0.357  -0.110  -0.064
    1UNL    C11   15   0.453  -0.198  -0.112
    1UNL    C12   16   0.583  -0.158  -0.116
    1UNL    C13   17   0.623  -0.039  -0.047
    1UNL    C14   18   0.533   0.052  -0.001
    1UNL    C15   19   0.392   0.015  -0.004
    1UNL    C16   20   0.021   0.025  -0.016
    1UNL    C17   21  -0.071  -0.096   0.026
    1UNL    C18   22  -0.214  -0.051   0.076
    1UNL    C19   23  -0.334  -0.105  -0.013
    1UNL    C20   24  -0.313  -0.061  -0.157
    1UNL     O3   25  -0.219  -0.110  -0.220
    1UNL     H1   26  -0.601  -0.077  -0.131
    1UNL     H2   27  -0.633  -0.199  -0.007
    1UNL     H3   28  -0.691  -0.039   0.024
    1UNL     H4   29  -0.477  -0.084   0.148
    1UNL     H5   30  -0.359   0.244   0.105
    1UNL     H6   31   0.136   0.117   0.227
    1UNL     H7   32   0.076   0.284   0.211
    1UNL     H8   33   0.221   0.291  -0.009
    1UNL     H9   34   0.325   0.251   0.144
    1UNL    H10   35   0.180  -0.209  -0.125
    1UNL    H11   36   0.433  -0.280  -0.167
    1UNL    H12   37   0.646  -0.214  -0.180
    1UNL    H13   38   0.731  -0.021  -0.038
    1UNL    H14   39   0.557   0.152   0.047
    1UNL    H15   40  -0.012   0.061  -0.116
    1UNL    H16   41  -0.083  -0.158  -0.065
    1UNL    H17   42  -0.022  -0.158   0.093
    1UNL    H18   43  -0.232  -0.094   0.176
    1UNL    H19   44  -0.332  -0.215   0.000
    1UNL    H20   45  -0.379   0.017  -0.196
   0.00000   0.00000   0.00000   0.00000   0.00000   0.00000   0.00000   0.00000   0.00000
Generated with MDTraj, t= 50.0
 45
    1UNL     C1    1  -0.570  -0.146  -0.010
    1UNL     C2    2  -0.453  -0.074   0.051
    1UNL     O1    3  -0.470   0.072   0.053
    1UNL     C3    4  -0.361   0.150   0.070
    1UNL     C4    5  -0.234   0.108   0.082
    1UNL     C5    6  -0.125   0.200   0.119
    1UNL     O2    7  -0.145   0.313   0.162
    1UNL     N1    8  -0.002   0.146   0.096
    1UNL     C6    9   0.121   0.210   0.154
    1UNL     C7   10   0.249   0.207   0.069
    1UNL     C8   11   0.270   0.073   0.020
    1UNL     C9   12   0.165  -0.006  -0.026
    1UNL     N2   13   0.211  -0.121  -0.090
    1UNL    C10   14   0.348  -0.109  -0.099
    1UNL    C11   15   0.452  -0.200  -0.123
    1UNL    C12   16   0.580  -0.175  -0.085
    1UNL    C13   17   0.617  -0.047  -0.027
    1UNL    C14   18   0.525   0.043   0.006
    1UNL    C15   19   0.385   0.006  -0.019
    1UNL    C16   20   0.019   0.041  -0.008
    1UNL    C17   21  -0.068  -0.081   0.027
    1UNL    C18   22  -0.216  -0.040   0.071
    1UNL    C19   23  -0.325  -0.103  -0.020
    1UNL    C20   24  -0.324  -0.042  -0.160
    1UNL     O3   25  -0.246  -0.083  -0.237
    1UNL     H1   26  -0.594  -0.103  -0.106
    1UNL     H2   27  -0.561  -0.255  -0.022
    1UNL     H3   28  -0.657  -0.136   0.062
    1UNL     H4   29  -0.438  -0.101   0.153
    1UNL     H5   30  -0.376   0.256   0.070
    1UNL     H6   31   0.140   0.163   0.249
    1UNL     H7   32   0.095   0.313   0.171
    1UNL     H8   33   0.245   0.289  -0.016
    1UNL     H9   34   0.330   0.219   0.140
    1UNL    H10   35   0.150  -0.170  -0.169
    1UNL    H11   36   0.416  -0.291  -0.170
    1UNL    H12   37   0.665  -0.235  -0.121
    1UNL    H13   38   0.723  -0.031  -0.009
    1UNL    H14   39   0.546   0.139   0.045
    1UNL    H15   40  -0.009   0.085  -0.105
    1UNL    H16   41  -0.078  -0.147  -0.063
    1UNL    H17   42  -0.030  -0.141   0.101
    1UNL    H18   43  -0.233  -0.081   0.171
    1UNL    H19   44  -0.304  -0.212  -0.026
    1UNL    H20   45  -0.350   0.058  -0.186
   0.00000   0.00000   0.00000   0.00000   0.00000   0.00000   0.00000   0.00000   0.00000
Generated with MDTraj, t= 51.0
 45
    1UNL     C1    1  -0.577  -0.146  -0.014
    1UNL     C2    2  -0.455  -0.076   0.050
    1UNL     O1    3  -0.476   0.065   0.058
    1UNL     C3    4  -0.365   0.137   0.090
    1UNL     C4    5  -0.235   0.100   0.092
    1UNL     C5    6  -0.128   0.203   0.118
    1UNL     O2    7  -0.153   0.305   0.180
    1UNL     N1    8  -0.001   0.173   0.071
    1UNL     C6    9   0.119   0.215   0.154
    1UNL     C7   10   0.257   0.214   0.080
    1UNL     C8   11   0.270   0.080   0.009
    1UNL     C9   12   0.163   0.010  -0.041
    1UNL     N2   13   0.211  -0.111  -0.091
    1UNL    C10   14   0.348  -0.107  -0.083
    1UNL    C11   15   0.443  -0.210  -0.107
    1UNL    C12   16   0.576  -0.191  -0.082
    1UNL    C13   17   0.622  -0.065  -0.033
    1UNL    C14   18   0.523   0.029  -0.004
    1UNL    C15   19   0.384   0.008  -0.013
    1UNL    C16   20   0.018   0.065  -0.027
    1UNL    C17   21  -0.064  -0.059  -0.000
    1UNL    C18   22  -0.207  -0.045   0.070
    1UNL    C19   23  -0.320  -0.106  -0.017
    1UNL    C20   24  -0.320  -0.055  -0.164
    1UNL     O3   25  -0.224  -0.083  -0.227
    1UNL     H1   26  -0.576  -0.123  -0.121
    1UNL     H2   27  -0.567  -0.257   0.002
    1UNL     H3   28  -0.674  -0.118   0.032
    1UNL     H4   29  -0.449  -0.098   0.156
    1UNL     H5   30  -0.395   0.246   0.106
    1UNL     H6   31   0.122   0.141   0.233
    1UNL     H7   32   0.093   0.309   0.201
    1UNL     H8   33   0.242   0.294  -0.007
    1UNL     H9   34   0.336   0.243   0.146
    1UNL    H10   35   0.149  -0.198  -0.121
    1UNL    H11   36   0.413  -0.308  -0.159
    1UNL    H12   37   0.645  -0.271  -0.100
    1UNL    H13   38   0.725  -0.049  -0.013
    1UNL    H14   39   0.548   0.121   0.047
    1UNL    H15   40  -0.014   0.110  -0.119
    1UNL    H16   41  -0.087  -0.111  -0.096
    1UNL    H17   42  -0.007  -0.128   0.053
    1UNL    H18   43  -0.205  -0.084   0.171
    1UNL    H19   44  -0.308  -0.217  -0.021
    1UNL    H20   45  -0.414  -0.013  -0.204
   0.00000   0.00000   0.00000   0.00000   0.00000   0.00000   0.00000   0.00000   0.00000
Generated with MDTraj, t= 52.0
 45
    1UNL     C1    1  -0.591  -0.131  -0.007
    1UNL     C2    2  -0.459  -0.066   0.048
    1UNL     O1    3  -0.468   0.080   0.063
    1UNL     C3    4  -0.353   0.147   0.078
    1UNL     C4    5  -0.232   0.088   0.093
    1UNL     C5    6  -0.122   0.189   0.120
    1UNL     O2    7  -0.143   0.292   0.185
    1UNL     N1    8   0.008   0.155   0.079
    1UNL     C6    9   0.120   0.226   0.149
    1UNL     C7   10   0.252   0.234   0.063
    1UNL     C8   11   0.268   0.098   0.001
    1UNL     C9   12   0.169   0.015  -0.044
    1UNL     N2   13   0.210  -0.104  -0.101
    1UNL    C10   14   0.347  -0.108  -0.076
    1UNL    C11   15   0.437  -0.208  -0.115
    1UNL    C12   16   0.574  -0.182  -0.086
    1UNL    C13   17   0.607  -0.065  -0.015
    1UNL    C14   18   0.514   0.037   0.013
    1UNL    C15   19   0.384   0.016  -0.020
    1UNL    C16   20   0.028   0.042  -0.018
    1UNL    C17   21  -0.055  -0.081   0.020
    1UNL    C18   22  -0.209  -0.060   0.068
    1UNL    C19   23  -0.324  -0.110  -0.023
    1UNL    C20   24  -0.310  -0.056  -0.161
    1UNL     O3   25  -0.244  -0.102  -0.252
    1UNL     H1   26  -0.602  -0.085  -0.108
    1UNL     H2   27  -0.583  -0.244  -0.017
    1UNL     H3   28  -0.679  -0.113   0.053
    1UNL     H4   29  -0.454  -0.089   0.156
    1UNL     H5   30  -0.362   0.250   0.103
    1UNL     H6   31   0.133   0.166   0.240
    1UNL     H7   32   0.079   0.321   0.185
    1UNL     H8   33   0.232   0.313  -0.018
    1UNL     H9   34   0.335   0.262   0.126
    1UNL    H10   35   0.145  -0.183  -0.142
    1UNL    H11   36   0.404  -0.284  -0.171
    1UNL    H12   37   0.654  -0.249  -0.114
    1UNL    H13   38   0.701  -0.052   0.040
    1UNL    H14   39   0.559   0.112   0.075
    1UNL    H15   40  -0.018   0.075  -0.107
    1UNL    H16   41  -0.049  -0.154  -0.060
    1UNL    H17   42   0.007  -0.132   0.094
    1UNL    H18   43  -0.225  -0.107   0.163
    1UNL    H19   44  -0.327  -0.221  -0.037
    1UNL    H20   45  -0.360   0.036  -0.192
   0.00000   0.00000   0.00000   0.00000   0.00000   0.00000   0.00000   0.00000   0.00000
Generated with MDTraj, t= 53.0
 45
    1UNL     C1    1  -0.565  -0.134  -0.043
    1UNL     C2    2  -0.467  -0.058   0.047
    1UNL     O1    3  -0.478   0.090   0.050
    1UNL     C3    4  -0.362   0.158   0.078
    1UNL     C4    5  -0.236   0.107   0.090
    1UNL     C5    6  -0.118   0.190   0.129
    1UNL     O2    7  -0.130   0.286   0.202
    1UNL     N1    8   0.008   0.145   0.093
    1UNL     C6    9   0.128   0.211   0.155
    1UNL     C7   10   0.250   0.216   0.058
    1UNL     C8   11   0.267   0.081  -0.005
    1UNL     C9   12   0.161   0.001  -0.038
    1UNL     N2   13   0.209  -0.123  -0.092
    1UNL    C10   14   0.352  -0.109  -0.090
    1UNL    C11   15   0.461  -0.201  -0.112
    1UNL    C12   16   0.591  -0.166  -0.075
    1UNL    C13   17   0.620  -0.043  -0.023
    1UNL    C14   18   0.513   0.047   0.005
    1UNL    C15   19   0.388   0.013  -0.033
    1UNL    C16   20   0.017   0.041  -0.013
    1UNL    C17   21  -0.071  -0.080   0.017
    1UNL    C18   22  -0.215  -0.045   0.080
    1UNL    C19   23  -0.329  -0.096  -0.008
    1UNL    C20   24  -0.312  -0.053  -0.153
    1UNL     O3   25  -0.275  -0.125  -0.244
    1UNL     H1   26  -0.551  -0.087  -0.145
    1UNL     H2   27  -0.552  -0.244  -0.046
    1UNL     H3   28  -0.669  -0.115  -0.022
    1UNL     H4   29  -0.475  -0.090   0.156
    1UNL     H5   30  -0.377   0.261   0.078
    1UNL     H6   31   0.151   0.165   0.253
    1UNL     H7   32   0.095   0.314   0.176
    1UNL     H8   33   0.240   0.293  -0.016
    1UNL     H9   34   0.336   0.229   0.125
    1UNL    H10   35   0.164  -0.180  -0.171
    1UNL    H11   36   0.435  -0.296  -0.164
    1UNL    H12   37   0.666  -0.243  -0.096
    1UNL    H13   38   0.722  -0.018   0.003
    1UNL    H14   39   0.530   0.137   0.063
    1UNL    H15   40  -0.022   0.083  -0.102
    1UNL    H16   41  -0.081  -0.134  -0.074
    1UNL    H17   42  -0.013  -0.156   0.080
    1UNL    H18   43  -0.226  -0.093   0.175
    1UNL    H19   44  -0.323  -0.208  -0.007
    1UNL    H20   45  -0.352   0.041  -0.174
   0.00000   0.00000   0.00000   0.00000   0.00000   0.00000   0.00000   0.00000   0.00000
Generated with MDTraj, t= 54.0
 45
    1UNL     C1    1  -0.584  -0.090  -0.044
    1UNL     C2    2  -0.466  -0.042   0.034
    1UNL     O1    3  -0.467   0.102   0.050
    1UNL     C3    4  -0.357   0.154   0.106
    1UNL     C4    5  -0.237   0.095   0.106
    1UNL     C5    6  -0.129   0.183   0.128
    1UNL     O2    7  -0.153   0.286   0.184
    1UNL     N1    8  -0.001   0.141   0.091
    1UNL     C6    9   0.121   0.199   0.162
    1UNL     C7   10   0.248   0.214   0.074
    1UNL     C8   11   0.273   0.087   0.012
    1UNL     C9   12   0.167   0.003  -0.019
    1UNL     N2   13   0.221  -0.114  -0.066
    1UNL    C10   14   0.356  -0.107  -0.064
    1UNL    C11   15   0.451  -0.201  -0.099
    1UNL    C12   16   0.577  -0.169  -0.103
    1UNL    C13   17   0.621  -0.036  -0.065
    1UNL    C14   18   0.532   0.059  -0.025
    1UNL    C15   19   0.397   0.020  -0.018
    1UNL    C16   20   0.014   0.034  -0.009
    1UNL    C17   21  -0.071  -0.083   0.021
    1UNL    C18   22  -0.219  -0.052   0.072
    1UNL    C19   23  -0.330  -0.102  -0.027
    1UNL    C20   24  -0.299  -0.071  -0.175
    1UNL     O3   25  -0.257  -0.154  -0.244
    1UNL     H1   26  -0.576  -0.049  -0.148
    1UNL     H2   27  -0.596  -0.198  -0.045
    1UNL     H3   28  -0.681  -0.045  -0.016
    1UNL     H4   29  -0.470  -0.086   0.140
    1UNL     H5   30  -0.359   0.267   0.118
    1UNL     H6   31   0.148   0.128   0.244
    1UNL     H7   32   0.097   0.293   0.213
    1UNL     H8   33   0.230   0.278  -0.002
    1UNL     H9   34   0.337   0.237   0.137
    1UNL    H10   35   0.185  -0.210  -0.056
    1UNL    H11   36   0.403  -0.297  -0.129
    1UNL    H12   37   0.644  -0.239  -0.142
    1UNL    H13   38   0.722  -0.012  -0.088
    1UNL    H14   39   0.567   0.161  -0.007
    1UNL    H15   40  -0.014   0.081  -0.100
    1UNL    H16   41  -0.074  -0.147  -0.063
    1UNL    H17   42  -0.021  -0.147   0.105
    1UNL    H18   43  -0.228  -0.108   0.163
    1UNL    H19   44  -0.329  -0.213  -0.025
    1UNL    H20   45  -0.331   0.023  -0.227
   0.00000   0.00000   0.00000   0.00000   0.00000   0.00000   0.00000   0.00000   0.00000
Generated with MDTraj, t= 55.0
 45
    1UNL     C1    1  -0.567  -0.098  -0.070
    1UNL     C2    2  -0.466  -0.043   0.033
    1UNL     O1    3  -0.474   0.098   0.037
    1UNL     C3    4  -0.357   0.163   0.058
    1UNL     C4    5  -0.239   0.105   0.086
    1UNL     C5    6  -0.127   0.189   0.130
    1UNL     O2    7  -0.145   0.290   0.195
    1UNL     N1    8   0.003   0.132   0.116
    1UNL     C6    9   0.122   0.221   0.158
    1UNL     C7   10   0.242   0.214   0.070
    1UNL     C8   11   0.260   0.074   0.019
    1UNL     C9   12   0.162  -0.020  -0.002
    1UNL     N2   13   0.214  -0.135  -0.057
    1UNL    C10   14   0.349  -0.116  -0.069
    1UNL    C11   15   0.453  -0.200  -0.130
    1UNL    C12   16   0.578  -0.155  -0.126
    1UNL    C13   17   0.615  -0.024  -0.080
    1UNL    C14   18   0.521   0.059  -0.026
    1UNL    C15   19   0.384   0.011  -0.017
    1UNL    C16   20   0.020   0.015   0.019
    1UNL    C17   21  -0.075  -0.096   0.034
    1UNL    C18   22  -0.219  -0.042   0.081
    1UNL    C19   23  -0.330  -0.099  -0.010
    1UNL    C20   24  -0.304  -0.070  -0.153
    1UNL     O3   25  -0.223  -0.128  -0.221
    1UNL     H1   26  -0.561  -0.033  -0.159
    1UNL     H2   27  -0.553  -0.204  -0.089
    1UNL     H3   28  -0.675  -0.079  -0.042
    1UNL     H4   29  -0.487  -0.088   0.135
    1UNL     H5   30  -0.357   0.274   0.056
    1UNL     H6   31   0.148   0.192   0.264
    1UNL     H7   32   0.081   0.323   0.169
    1UNL     H8   33   0.231   0.277  -0.010
    1UNL     H9   34   0.335   0.235   0.127
    1UNL    H10   35   0.164  -0.213  -0.091
    1UNL    H11   36   0.433  -0.298  -0.152
    1UNL    H12   37   0.664  -0.221  -0.164
    1UNL    H13   38   0.721  -0.000  -0.089
    1UNL    H14   39   0.539   0.159  -0.002
    1UNL    H15   40  -0.009   0.072  -0.068
    1UNL    H16   41  -0.076  -0.156  -0.055
    1UNL    H17   42  -0.025  -0.163   0.116
    1UNL    H18   43  -0.236  -0.079   0.181
    1UNL    H19   44  -0.335  -0.208   0.002
    1UNL    H20   45  -0.365   0.010  -0.196
   0.00000   0.00000   0.00000   0.00000   0.00000   0.00000   0.00000   0.00000   0.00000
Generated with MDTraj, t= 56.0
 45
    1UNL     C1    1  -0.577  -0.124  -0.055
    1UNL     C2    2  -0.459  -0.044   0.016
    1UNL     O1    3  -0.468   0.101   0.003
    1UNL     C3    4  -0.358   0.164   0.060
    1UNL     C4    5  -0.241   0.107   0.101
    1UNL     C5    6  -0.126   0.197   0.131
    1UNL     O2    7  -0.144   0.299   0.194
    1UNL     N1    8  -0.004   0.145   0.104
    1UNL     C6    9   0.105   0.208   0.170
    1UNL     C7   10   0.235   0.206   0.084
    1UNL     C8   11   0.259   0.069   0.016
    1UNL     C9   12   0.154  -0.018  -0.006
    1UNL     N2   13   0.203  -0.135  -0.067
    1UNL    C10   14   0.346  -0.126  -0.078
    1UNL    C11   15   0.448  -0.203  -0.138
    1UNL    C12   16   0.575  -0.150  -0.148
    1UNL    C13   17   0.606  -0.031  -0.083
    1UNL    C14   18   0.510   0.047  -0.030
    1UNL    C15   19   0.379   0.005  -0.033
    1UNL    C16   20   0.007   0.020   0.018
    1UNL    C17   21  -0.079  -0.093   0.084
    1UNL    C18   22  -0.226  -0.041   0.095
    1UNL    C19   23  -0.316  -0.097  -0.017
    1UNL    C20   24  -0.270  -0.065  -0.148
    1UNL     O3   25  -0.167  -0.102  -0.202
    1UNL     H1   26  -0.550  -0.129  -0.160
    1UNL     H2   27  -0.584  -0.226  -0.011
    1UNL     H3   28  -0.677  -0.069  -0.055
    1UNL     H4   29  -0.475  -0.058   0.125
    1UNL     H5   30  -0.364   0.266   0.056
    1UNL     H6   31   0.117   0.159   0.271
    1UNL     H7   32   0.072   0.312   0.195
    1UNL     H8   33   0.237   0.282   0.006
    1UNL     H9   34   0.313   0.225   0.155
    1UNL    H10   35   0.139  -0.183  -0.121
    1UNL    H11   36   0.428  -0.310  -0.172
    1UNL    H12   37   0.658  -0.203  -0.178
    1UNL    H13   38   0.709   0.003  -0.071
    1UNL    H14   39   0.539   0.144   0.017
    1UNL    H15   40  -0.039   0.037  -0.081
    1UNL    H16   41  -0.073  -0.180   0.017
    1UNL    H17   42  -0.031  -0.123   0.182
    1UNL    H18   43  -0.270  -0.075   0.189
    1UNL    H19   44  -0.316  -0.208  -0.013
    1UNL    H20   45  -0.312   0.015  -0.202
   0.00000   0.00000   0.00000   0.00000   0.00000   0.00000   0.00000   0.00000   0.00000
Generated with MDTraj, t= 57.0
 45
    1UNL     C1    1  -0.561  -0.122  -0.082
    1UNL     C2    2  -0.452  -0.061   0.005
    1UNL     O1    3  -0.461   0.082  -0.007
    1UNL     C3    4  -0.356   0.148   0.052
    1UNL     C4    5  -0.237   0.105   0.101
    1UNL     C5    6  -0.128   0.202   0.135
    1UNL     O2    7  -0.146   0.314   0.177
    1UNL     N1    8  -0.003   0.155   0.108
    1UNL     C6    9   0.108   0.201   0.188
    1UNL     C7   10   0.240   0.206   0.104
    1UNL     C8   11   0.254   0.083   0.017
    1UNL     C9   12   0.150  -0.002  -0.008
    1UNL     N2   13   0.194  -0.111  -0.078
    1UNL    C10   14   0.332  -0.106  -0.089
    1UNL    C11   15   0.411  -0.204  -0.147
    1UNL    C12   16   0.547  -0.173  -0.152
    1UNL    C13   17   0.596  -0.056  -0.098
    1UNL    C14   18   0.514   0.033  -0.032
    1UNL    C15   19   0.374   0.018  -0.035
    1UNL    C16   20   0.008   0.032   0.029
    1UNL    C17   21  -0.070  -0.078   0.107
    1UNL    C18   22  -0.223  -0.045   0.107
    1UNL    C19   23  -0.308  -0.111  -0.011
    1UNL    C20   24  -0.256  -0.082  -0.150
    1UNL     O3   25  -0.143  -0.086  -0.175
    1UNL     H1   26  -0.564  -0.078  -0.181
    1UNL     H2   27  -0.532  -0.231  -0.084
    1UNL     H3   28  -0.665  -0.105  -0.045
    1UNL     H4   29  -0.482  -0.065   0.109
    1UNL     H5   30  -0.369   0.256   0.033
    1UNL     H6   31   0.117   0.142   0.284
    1UNL     H7   32   0.084   0.307   0.217
    1UNL     H8   33   0.227   0.299   0.039
    1UNL     H9   34   0.321   0.220   0.165
    1UNL    H10   35   0.147  -0.193  -0.077
    1UNL    H11   36   0.381  -0.289  -0.193
    1UNL    H12   37   0.619  -0.245  -0.193
    1UNL    H13   38   0.697  -0.027  -0.102
    1UNL    H14   39   0.556   0.117   0.014
    1UNL    H15   40  -0.045   0.047  -0.070
    1UNL    H16   41  -0.052  -0.186   0.071
    1UNL    H17   42  -0.029  -0.069   0.208
    1UNL    H18   43  -0.271  -0.081   0.199
    1UNL    H19   44  -0.311  -0.222   0.001
    1UNL    H20   45  -0.335  -0.056  -0.222
   0.00000   0.00000   0.00000   0.00000   0.00000   0.00000   0.00000   0.00000   0.00000
Generated with MDTraj, t= 58.0
 45
    1UNL     C1    1  -0.534  -0.129  -0.099
    1UNL     C2    2  -0.448  -0.068   0.005
    1UNL     O1    3  -0.466   0.078   0.007
    1UNL     C3    4  -0.362   0.154   0.047
    1UNL     C4    5  -0.242   0.116   0.096
    1UNL     C5    6  -0.134   0.208   0.141
    1UNL     O2    7  -0.141   0.319   0.195
    1UNL     N1    8  -0.004   0.156   0.107
    1UNL     C6    9   0.112   0.230   0.165
    1UNL     C7   10   0.252   0.196   0.105
    1UNL     C8   11   0.256   0.067   0.038
    1UNL     C9   12   0.148  -0.003  -0.009
    1UNL     N2   13   0.184  -0.118  -0.076
    1UNL    C10   14   0.319  -0.111  -0.091
    1UNL    C11   15   0.406  -0.188  -0.167
    1UNL    C12   16   0.542  -0.159  -0.165
    1UNL    C13   17   0.587  -0.049  -0.098
    1UNL    C14   18   0.511   0.021  -0.007
    1UNL    C15   19   0.367   0.001  -0.016
    1UNL    C16   20   0.011   0.036   0.021
    1UNL    C17   21  -0.069  -0.072   0.090
    1UNL    C18   22  -0.218  -0.030   0.106
    1UNL    C19   23  -0.300  -0.106  -0.008
    1UNL    C20   24  -0.244  -0.070  -0.139
    1UNL     O3   25  -0.154  -0.137  -0.175
    1UNL     H1   26  -0.516  -0.104  -0.206
    1UNL     H2   27  -0.550  -0.240  -0.085
    1UNL     H3   28  -0.631  -0.083  -0.090
    1UNL     H4   29  -0.480  -0.093   0.103
    1UNL     H5   30  -0.386   0.265   0.059
    1UNL     H6   31   0.115   0.207   0.275
    1UNL     H7   32   0.086   0.339   0.157
    1UNL     H8   33   0.273   0.276   0.023
    1UNL     H9   34   0.327   0.206   0.175
    1UNL    H10   35   0.120  -0.160  -0.132
    1UNL    H11   36   0.375  -0.280  -0.223
    1UNL    H12   37   0.609  -0.225  -0.223
    1UNL    H13   38   0.693  -0.018  -0.119
    1UNL    H14   39   0.543   0.101   0.058
    1UNL    H15   40  -0.039   0.064  -0.078
    1UNL    H16   41  -0.053  -0.177   0.039
    1UNL    H17   42  -0.039  -0.075   0.193
    1UNL    H18   43  -0.255  -0.063   0.205
    1UNL    H19   44  -0.284  -0.216   0.005
    1UNL    H20   45  -0.274   0.018  -0.196
   0.00000   0.00000   0.00000   0.00000   0.00000   0.00000   0.00000   0.00000   0.00000
Generated with MDTraj, t= 59.0
 45
    1UNL     C1    1  -0.542  -0.106  -0.102
    1UNL     C2    2  -0.453  -0.052   0.009
    1UNL     O1    3  -0.468   0.092   0.005
    1UNL     C3    4  -0.363   0.164   0.054
    1UNL     C4    5  -0.245   0.114   0.104
    1UNL     C5    6  -0.131   0.203   0.138
    1UNL     O2    7  -0.154   0.312   0.186
    1UNL     N1    8  -0.001   0.161   0.099
    1UNL     C6    9   0.109   0.226   0.169
    1UNL     C7   10   0.250   0.197   0.114
    1UNL     C8   11   0.264   0.063   0.043
    1UNL     C9   12   0.154  -0.012  -0.003
    1UNL     N2   13   0.188  -0.114  -0.091
    1UNL    C10   14   0.329  -0.107  -0.100
    1UNL    C11   15   0.422  -0.177  -0.169
    1UNL    C12   16   0.556  -0.157  -0.168
    1UNL    C13   17   0.600  -0.054  -0.077
    1UNL    C14   18   0.515   0.037  -0.024
    1UNL    C15   19   0.374   0.009  -0.031
    1UNL    C16   20   0.012   0.029   0.033
    1UNL    C17   21  -0.072  -0.078   0.106
    1UNL    C18   22  -0.225  -0.035   0.110
    1UNL    C19   23  -0.307  -0.101  -0.003
    1UNL    C20   24  -0.238  -0.086  -0.134
    1UNL     O3   25  -0.182  -0.181  -0.188
    1UNL     H1   26  -0.517  -0.068  -0.206
    1UNL     H2   27  -0.567  -0.214  -0.101
    1UNL     H3   28  -0.636  -0.052  -0.099
    1UNL     H4   29  -0.491  -0.094   0.100
    1UNL     H5   30  -0.381   0.266   0.056
    1UNL     H6   31   0.093   0.209   0.279
    1UNL     H7   32   0.081   0.334   0.163
    1UNL     H8   33   0.284   0.277   0.039
    1UNL     H9   34   0.321   0.206   0.192
    1UNL    H10   35   0.132  -0.180  -0.140
    1UNL    H11   36   0.395  -0.265  -0.231
    1UNL    H12   37   0.625  -0.216  -0.217
    1UNL    H13   38   0.700  -0.032  -0.078
    1UNL    H14   39   0.549   0.130   0.024
    1UNL    H15   40  -0.040   0.045  -0.068
    1UNL    H16   41  -0.075  -0.176   0.044
    1UNL    H17   42  -0.031  -0.095   0.204
    1UNL    H18   43  -0.271  -0.075   0.203
    1UNL    H19   44  -0.310  -0.208   0.027
    1UNL    H20   45  -0.241   0.010  -0.180
   0.00000   0.00000   0.00000   0.00000   0.00000   0.00000   0.00000   0.00000   0.00000
Generated with MDTraj, t= 60.0
 45
    1UNL     C1    1  -0.565  -0.099  -0.088
    1UNL     C2    2  -0.463  -0.034   0.018
    1UNL     O1    3  -0.458   0.107   0.002
    1UNL     C3    4  -0.348   0.171   0.047
    1UNL     C4    5  -0.234   0.112   0.088
    1UNL     C5    6  -0.129   0.203   0.140
    1UNL     O2    7  -0.144   0.318   0.172
    1UNL     N1    8  -0.001   0.147   0.116
    1UNL     C6    9   0.116   0.180   0.192
    1UNL     C7   10   0.234   0.204   0.108
    1UNL     C8   11   0.262   0.076   0.031
    1UNL     C9   12   0.153  -0.001  -0.004
    1UNL     N2   13   0.200  -0.112  -0.080
    1UNL    C10   14   0.337  -0.105  -0.086
    1UNL    C11   15   0.426  -0.185  -0.162
    1UNL    C12   16   0.562  -0.154  -0.151
    1UNL    C13   17   0.598  -0.035  -0.088
    1UNL    C14   18   0.511   0.048  -0.028
    1UNL    C15   19   0.375   0.010  -0.020
    1UNL    C16   20   0.014   0.033   0.021
    1UNL    C17   21  -0.074  -0.084   0.066
    1UNL    C18   22  -0.216  -0.039   0.097
    1UNL    C19   23  -0.322  -0.113   0.009
    1UNL    C20   24  -0.263  -0.115  -0.132
    1UNL     O3   25  -0.181  -0.181  -0.187
    1UNL     H1   26  -0.550  -0.045  -0.187
    1UNL     H2   27  -0.541  -0.205  -0.092
    1UNL     H3   28  -0.672  -0.086  -0.072
    1UNL     H4   29  -0.500  -0.051   0.121
    1UNL     H5   30  -0.356   0.278   0.039
    1UNL     H6   31   0.129   0.099   0.268
    1UNL     H7   32   0.091   0.269   0.252
    1UNL     H8   33   0.214   0.288   0.035
    1UNL     H9   34   0.320   0.236   0.175
    1UNL    H10   35   0.144  -0.181  -0.136
    1UNL    H11   36   0.395  -0.274  -0.199
    1UNL    H12   37   0.640  -0.226  -0.190
    1UNL    H13   38   0.704   0.005  -0.103
    1UNL    H14   39   0.523   0.150  -0.005
    1UNL    H15   40  -0.024   0.064  -0.084
    1UNL    H16   41  -0.073  -0.151  -0.023
    1UNL    H17   42  -0.032  -0.138   0.150
    1UNL    H18   43  -0.238  -0.065   0.204
    1UNL    H19   44  -0.324  -0.215   0.051
    1UNL    H20   45  -0.303  -0.047  -0.210
   0.00000   0.00000   0.00000   0.00000   0.00000   0.00000   0.00000   0.00000   0.00000
Generated with MDTraj, t= 61.0
 45
    1UNL     C1    1  -0.589  -0.100  -0.046
    1UNL     C2    2  -0.466  -0.033   0.019
    1UNL     O1    3  -0.458   0.105  -0.018
    1UNL     C3    4  -0.350   0.170   0.029
    1UNL     C4    5  -0.244   0.110   0.084
    1UNL     C5    6  -0.130   0.188   0.135
    1UNL     O2    7  -0.141   0.286   0.203
    1UNL     N1    8   0.001   0.149   0.096
    1UNL     C6    9   0.117   0.207   0.170
    1UNL     C7   10   0.252   0.187   0.098
    1UNL     C8   11   0.262   0.060   0.037
    1UNL     C9   12   0.155  -0.018  -0.006
    1UNL     N2   13   0.210  -0.123  -0.072
    1UNL    C10   14   0.350  -0.109  -0.089
    1UNL    C11   15   0.448  -0.181  -0.152
    1UNL    C12   16   0.583  -0.143  -0.141
    1UNL    C13   17   0.616  -0.016  -0.084
    1UNL    C14   18   0.516   0.058  -0.025
    1UNL    C15   19   0.384   0.012  -0.027
    1UNL    C16   20   0.013   0.026   0.020
    1UNL    C17   21  -0.083  -0.082   0.072
    1UNL    C18   22  -0.231  -0.036   0.100
    1UNL    C19   23  -0.334  -0.108   0.008
    1UNL    C20   24  -0.283  -0.103  -0.141
    1UNL     O3   25  -0.202  -0.160  -0.204
    1UNL     H1   26  -0.564  -0.130  -0.150
    1UNL     H2   27  -0.620  -0.176   0.022
    1UNL     H3   28  -0.667  -0.022  -0.059
    1UNL     H4   29  -0.494  -0.015   0.128
    1UNL     H5   30  -0.351   0.285   0.032
    1UNL     H6   31   0.130   0.148   0.262
    1UNL     H7   32   0.097   0.309   0.203
    1UNL     H8   33   0.255   0.267   0.023
    1UNL     H9   34   0.342   0.200   0.176
    1UNL    H10   35   0.155  -0.194  -0.135
    1UNL    H11   36   0.419  -0.287  -0.186
    1UNL    H12   37   0.662  -0.207  -0.159
    1UNL    H13   38   0.712   0.024  -0.087
    1UNL    H14   39   0.536   0.161   0.013
    1UNL    H15   40  -0.019   0.066  -0.081
    1UNL    H16   41  -0.083  -0.162   0.005
    1UNL    H17   42  -0.035  -0.114   0.166
    1UNL    H18   43  -0.264  -0.064   0.204
    1UNL    H19   44  -0.348  -0.212   0.040
    1UNL    H20   45  -0.347  -0.027  -0.189
   0.00000   0.00000   0.00000   0.00000   0.00000   0.00000   0.00000   0.00000   0.00000
Generated with MDTraj, t= 62.0
 45
    1UNL     C1    1  -0.590  -0.108  -0.026
    1UNL     C2    2  -0.462  -0.049   0.031
    1UNL     O1    3  -0.470   0.099  -0.001
    1UNL     C3    4  -0.357   0.166   0.041
    1UNL     C4    5  -0.242   0.110   0.090
    1UNL     C5    6  -0.125   0.190   0.135
    1UNL     O2    7  -0.139   0.300   0.177
    1UNL     N1    8   0.003   0.134   0.116
    1UNL     C6    9   0.120   0.197   0.178
    1UNL     C7   10   0.248   0.213   0.080
    1UNL     C8   11   0.268   0.075   0.023
    1UNL     C9   12   0.161  -0.006  -0.005
    1UNL     N2   13   0.208  -0.122  -0.068
    1UNL    C10   14   0.345  -0.112  -0.068
    1UNL    C11   15   0.438  -0.188  -0.142
    1UNL    C12   16   0.568  -0.145  -0.148
    1UNL    C13   17   0.611  -0.035  -0.070
    1UNL    C14   18   0.522   0.052  -0.005
    1UNL    C15   19   0.386   0.017  -0.022
    1UNL    C16   20   0.015   0.029   0.018
    1UNL    C17   21  -0.077  -0.088   0.044
    1UNL    C18   22  -0.218  -0.036   0.077
    1UNL    C19   23  -0.324  -0.103  -0.010
    1UNL    C20   24  -0.292  -0.095  -0.158
    1UNL     O3   25  -0.200  -0.150  -0.211
    1UNL     H1   26  -0.601  -0.065  -0.125
    1UNL     H2   27  -0.598  -0.216  -0.019
    1UNL     H3   28  -0.678  -0.057   0.021
    1UNL     H4   29  -0.469  -0.043   0.145
    1UNL     H5   30  -0.356   0.271   0.029
    1UNL     H6   31   0.150   0.143   0.269
    1UNL     H7   32   0.089   0.294   0.217
    1UNL     H8   33   0.221   0.283  -0.001
    1UNL     H9   34   0.341   0.256   0.141
    1UNL    H10   35   0.142  -0.207  -0.097
    1UNL    H11   36   0.404  -0.271  -0.201
    1UNL    H12   37   0.635  -0.214  -0.205
    1UNL    H13   38   0.712   0.003  -0.079
    1UNL    H14   39   0.546   0.139   0.047
    1UNL    H15   40  -0.017   0.087  -0.072
    1UNL    H16   41  -0.073  -0.142  -0.043
    1UNL    H17   42  -0.041  -0.153   0.127
    1UNL    H18   43  -0.246  -0.068   0.182
    1UNL    H19   44  -0.316  -0.211   0.004
    1UNL    H20   45  -0.328  -0.020  -0.222
   0.00000   0.00000   0.00000   0.00000   0.00000   0.00000   0.00000   0.00000   0.00000
Generated with MDTraj, t= 63.0
 45
    1UNL     C1    1  -0.575  -0.113  -0.057
    1UNL     C2    2  -0.471  -0.061   0.034
    1UNL     O1    3  -0.479   0.080   0.041
    1UNL     C3    4  -0.363   0.149   0.062
    1UNL     C4    5  -0.236   0.106   0.090
    1UNL     C5    6  -0.126   0.201   0.119
    1UNL     O2    7  -0.144   0.310   0.165
    1UNL     N1    8   0.003   0.152   0.091
    1UNL     C6    9   0.117   0.199   0.173
    1UNL     C7   10   0.253   0.199   0.103
    1UNL     C8   11   0.264   0.084   0.011
    1UNL     C9   12   0.160   0.005  -0.030
    1UNL     N2   13   0.212  -0.112  -0.079
    1UNL    C10   14   0.350  -0.110  -0.077
    1UNL    C11   15   0.448  -0.201  -0.122
    1UNL    C12   16   0.581  -0.167  -0.112
    1UNL    C13   17   0.619  -0.037  -0.073
    1UNL    C14   18   0.521   0.046  -0.013
    1UNL    C15   19   0.385   0.016  -0.032
    1UNL    C16   20   0.013   0.032  -0.003
    1UNL    C17   21  -0.071  -0.092   0.044
    1UNL    C18   22  -0.217  -0.043   0.088
    1UNL    C19   23  -0.327  -0.102   0.002
    1UNL    C20   24  -0.298  -0.063  -0.143
    1UNL     O3   25  -0.220  -0.129  -0.214
    1UNL     H1   26  -0.562  -0.077  -0.156
    1UNL     H2   27  -0.563  -0.223  -0.057
    1UNL     H3   28  -0.683  -0.085  -0.048
    1UNL     H4   29  -0.493  -0.099   0.139
    1UNL     H5   30  -0.378   0.251   0.047
    1UNL     H6   31   0.115   0.143   0.265
    1UNL     H7   32   0.097   0.299   0.211
    1UNL     H8   33   0.278   0.299   0.057
    1UNL     H9   34   0.329   0.181   0.183
    1UNL    H10   35   0.145  -0.185  -0.122
    1UNL    H11   36   0.413  -0.294  -0.150
    1UNL    H12   37   0.656  -0.237  -0.143
    1UNL    H13   38   0.724  -0.003  -0.094
    1UNL    H14   39   0.558   0.144   0.022
    1UNL    H15   40  -0.026   0.060  -0.100
    1UNL    H16   41  -0.088  -0.163  -0.030
    1UNL    H17   42  -0.009  -0.140   0.123
    1UNL    H18   43  -0.239  -0.071   0.196
    1UNL    H19   44  -0.317  -0.209   0.008
    1UNL    H20   45  -0.323   0.042  -0.167
   0.00000   0.00000   0.00000   0.00000   0.00000   0.00000   0.00000   0.00000   0.00000
Generated with MDTraj, t= 64.0
 45
    1UNL     C1    1  -0.571  -0.127  -0.049
    1UNL     C2    2  -0.457  -0.064   0.029
    1UNL     O1    3  -0.472   0.073   0.074
    1UNL     C3    4  -0.362   0.151   0.094
    1UNL     C4    5  -0.237   0.105   0.096
    1UNL     C5    6  -0.131   0.203   0.119
    1UNL     O2    7  -0.143   0.312   0.169
    1UNL     N1    8  -0.001   0.156   0.083
    1UNL     C6    9   0.111   0.225   0.147
    1UNL     C7   10   0.234   0.212   0.064
    1UNL     C8   11   0.260   0.074   0.005
    1UNL     C9   12   0.154  -0.009  -0.025
    1UNL     N2   13   0.209  -0.116  -0.093
    1UNL    C10   14   0.347  -0.114  -0.082
    1UNL    C11   15   0.449  -0.200  -0.139
    1UNL    C12   16   0.578  -0.164  -0.116
    1UNL    C13   17   0.616  -0.055  -0.033
    1UNL    C14   18   0.515   0.030   0.012
    1UNL    C15   19   0.383   0.010  -0.022
    1UNL    C16   20   0.011   0.031  -0.002
    1UNL    C17   21  -0.072  -0.080   0.063
    1UNL    C18   22  -0.217  -0.042   0.085
    1UNL    C19   23  -0.311  -0.103  -0.023
    1UNL    C20   24  -0.286  -0.055  -0.161
    1UNL     O3   25  -0.208  -0.109  -0.228
    1UNL     H1   26  -0.578  -0.090  -0.149
    1UNL     H2   27  -0.559  -0.240  -0.044
    1UNL     H3   28  -0.673  -0.095  -0.022
    1UNL     H4   29  -0.465  -0.119   0.125
    1UNL     H5   30  -0.375   0.262   0.121
    1UNL     H6   31   0.120   0.184   0.245
    1UNL     H7   32   0.082   0.327   0.167
    1UNL     H8   33   0.211   0.275  -0.031
    1UNL     H9   34   0.316   0.253   0.113
    1UNL    H10   35   0.158  -0.199  -0.124
    1UNL    H11   36   0.421  -0.304  -0.181
    1UNL    H12   37   0.656  -0.227  -0.148
    1UNL    H13   38   0.715  -0.032  -0.016
    1UNL    H14   39   0.548   0.115   0.069
    1UNL    H15   40  -0.037   0.047  -0.096
    1UNL    H16   41  -0.061  -0.172   0.009
    1UNL    H17   42  -0.035  -0.095   0.164
    1UNL    H18   43  -0.253  -0.080   0.186
    1UNL    H19   44  -0.292  -0.209  -0.040
    1UNL    H20   45  -0.330   0.034  -0.210
   0.00000   0.00000   0.00000   0.00000   0.00000   0.00000   0.00000   0.00000   0.00000
Generated with MDTraj, t= 65.0
 45
    1UNL     C1    1  -0.554  -0.130  -0.061
    1UNL     C2    2  -0.457  -0.070   0.038
    1UNL     O1    3  -0.477   0.071   0.049
    1UNL     C3    4  -0.362   0.136   0.094
    1UNL     C4    5  -0.234   0.093   0.107
    1UNL     C5    6  -0.135   0.194   0.127
    1UNL     O2    7  -0.155   0.303   0.175
    1UNL     N1    8  -0.006   0.154   0.082
    1UNL     C6    9   0.101   0.249   0.131
    1UNL     C7   10   0.243   0.222   0.072
    1UNL     C8   11   0.263   0.083   0.007
    1UNL     C9   12   0.161   0.004  -0.032
    1UNL     N2   13   0.204  -0.113  -0.091
    1UNL    C10   14   0.340  -0.111  -0.082
    1UNL    C11   15   0.436  -0.216  -0.117
    1UNL    C12   16   0.568  -0.187  -0.101
    1UNL    C13   17   0.606  -0.065  -0.045
    1UNL    C14   18   0.523   0.034  -0.011
    1UNL    C15   19   0.385   0.011  -0.027
    1UNL    C16   20   0.014   0.038  -0.013
    1UNL    C17   21  -0.061  -0.089   0.036
    1UNL    C18   22  -0.204  -0.057   0.090
    1UNL    C19   23  -0.318  -0.106  -0.009
    1UNL    C20   24  -0.294  -0.052  -0.146
    1UNL     O3   25  -0.190  -0.063  -0.201
    1UNL     H1   26  -0.566  -0.063  -0.147
    1UNL     H2   27  -0.530  -0.239  -0.079
    1UNL     H3   28  -0.652  -0.106  -0.020
    1UNL     H4   29  -0.469  -0.112   0.137
    1UNL     H5   30  -0.382   0.242   0.113
    1UNL     H6   31   0.094   0.259   0.237
    1UNL     H7   32   0.066   0.343   0.091
    1UNL     H8   33   0.245   0.300  -0.015
    1UNL     H9   34   0.317   0.241   0.139
    1UNL    H10   35   0.156  -0.189  -0.121
    1UNL    H11   36   0.394  -0.310  -0.125
    1UNL    H12   37   0.644  -0.272  -0.094
    1UNL    H13   38   0.718  -0.047  -0.036
    1UNL    H14   39   0.566   0.126   0.020
    1UNL    H15   40  -0.031   0.066  -0.104
    1UNL    H16   41  -0.077  -0.161  -0.047
    1UNL    H17   42   0.000  -0.133   0.108
    1UNL    H18   43  -0.219  -0.116   0.184
    1UNL    H19   44  -0.309  -0.213  -0.014
    1UNL    H20   45  -0.382  -0.007  -0.179
   0.00000   0.00000   0.00000   0.00000   0.00000   0.00000   0.00000   0.00000   0.00000
Generated with MDTraj, t= 66.0
 45
    1UNL     C1    1  -0.560  -0.141  -0.043
    1UNL     C2    2  -0.446  -0.074   0.038
    1UNL     O1    3  -0.472   0.071   0.047
    1UNL     C3    4  -0.367   0.144   0.092
    1UNL     C4    5  -0.237   0.100   0.099
    1UNL     C5    6  -0.129   0.188   0.135
    1UNL     O2    7  -0.149   0.286   0.201
    1UNL     N1    8  -0.002   0.150   0.089
    1UNL     C6    9   0.100   0.259   0.097
    1UNL     C7   10   0.246   0.219   0.077
    1UNL     C8   11   0.260   0.086   0.004
    1UNL     C9   12   0.157  -0.001  -0.021
    1UNL     N2   13   0.200  -0.125  -0.070
    1UNL    C10   14   0.337  -0.120  -0.079
    1UNL    C11   15   0.436  -0.215  -0.109
    1UNL    C12   16   0.562  -0.186  -0.088
    1UNL    C13   17   0.606  -0.058  -0.055
    1UNL    C14   18   0.511   0.037  -0.019
    1UNL    C15   19   0.377   0.012  -0.034
    1UNL    C16   20   0.014   0.033  -0.008
    1UNL    C17   21  -0.065  -0.085   0.053
    1UNL    C18   22  -0.207  -0.050   0.082
    1UNL    C19   23  -0.306  -0.105  -0.026
    1UNL    C20   24  -0.287  -0.043  -0.161
    1UNL     O3   25  -0.187  -0.049  -0.227
    1UNL     H1   26  -0.564  -0.092  -0.145
    1UNL     H2   27  -0.530  -0.247  -0.041
    1UNL     H3   28  -0.657  -0.114  -0.005
    1UNL     H4   29  -0.444  -0.101   0.141
    1UNL     H5   30  -0.390   0.242   0.110
    1UNL     H6   31   0.082   0.321   0.183
    1UNL     H7   32   0.068   0.322   0.017
    1UNL     H8   33   0.300   0.293   0.006
    1UNL     H9   34   0.288   0.214   0.171
    1UNL    H10   35   0.141  -0.191  -0.104
    1UNL    H11   36   0.403  -0.317  -0.126
    1UNL    H12   37   0.632  -0.260  -0.099
    1UNL    H13   38   0.709  -0.045  -0.057
    1UNL    H14   39   0.545   0.143  -0.009
    1UNL    H15   40  -0.024   0.057  -0.104
    1UNL    H16   41  -0.048  -0.169  -0.022
    1UNL    H17   42  -0.021  -0.108   0.142
    1UNL    H18   43  -0.239  -0.098   0.177
    1UNL    H19   44  -0.296  -0.211  -0.043
    1UNL    H20   45  -0.351   0.028  -0.212
   0.00000   0.00000   0.00000   0.00000   0.00000   0.00000   0.00000   0.00000   0.00000
Generated with MDTraj, t= 67.0
 45
    1UNL     C1    1  -0.567  -0.108  -0.063
    1UNL     C2    2  -0.456  -0.064   0.035
    1UNL     O1    3  -0.478   0.078   0.067
    1UNL     C3    4  -0.371   0.145   0.107
    1UNL     C4    5  -0.245   0.091   0.109
    1UNL     C5    6  -0.130   0.183   0.123
    1UNL     O2    7  -0.135   0.281   0.192
    1UNL     N1    8  -0.005   0.146   0.069
    1UNL     C6    9   0.095   0.252   0.050
    1UNL     C7   10   0.243   0.210   0.072
    1UNL     C8   11   0.255   0.069   0.026
    1UNL     C9   12   0.156  -0.014  -0.021
    1UNL     N2   13   0.210  -0.129  -0.082
    1UNL    C10   14   0.348  -0.117  -0.067
    1UNL    C11   15   0.448  -0.198  -0.125
    1UNL    C12   16   0.576  -0.159  -0.109
    1UNL    C13   17   0.616  -0.049  -0.040
    1UNL    C14   18   0.520   0.040   0.005
    1UNL    C15   19   0.379   0.007  -0.015
    1UNL    C16   20   0.006   0.022  -0.009
    1UNL    C17   21  -0.068  -0.088   0.065
    1UNL    C18   22  -0.215  -0.055   0.092
    1UNL    C19   23  -0.312  -0.103  -0.015
    1UNL    C20   24  -0.279  -0.038  -0.147
    1UNL     O3   25  -0.197  -0.073  -0.229
    1UNL     H1   26  -0.549  -0.069  -0.169
    1UNL     H2   27  -0.569  -0.215  -0.057
    1UNL     H3   28  -0.664  -0.058  -0.048
    1UNL     H4   29  -0.474  -0.108   0.131
    1UNL     H5   30  -0.383   0.255   0.130
    1UNL     H6   31   0.070   0.326   0.125
    1UNL     H7   32   0.076   0.307  -0.041
    1UNL     H8   33   0.306   0.276   0.007
    1UNL     H9   34   0.271   0.204   0.176
    1UNL    H10   35   0.159  -0.204  -0.121
    1UNL    H11   36   0.420  -0.285  -0.189
    1UNL    H12   37   0.652  -0.227  -0.157
    1UNL    H13   38   0.721  -0.014  -0.041
    1UNL    H14   39   0.554   0.130   0.044
    1UNL    H15   40  -0.035   0.052  -0.103
    1UNL    H16   41  -0.065  -0.182   0.002
    1UNL    H17   42  -0.003  -0.095   0.145
    1UNL    H18   43  -0.241  -0.100   0.190
    1UNL    H19   44  -0.324  -0.209  -0.024
    1UNL    H20   45  -0.336   0.058  -0.157
   0.00000   0.00000   0.00000   0.00000   0.00000   0.00000   0.00000   0.00000   0.00000
Generated with MDTraj, t= 68.0
 45
    1UNL     C1    1  -0.565  -0.056  -0.083
    1UNL     C2    2  -0.473  -0.065   0.036
    1UNL     O1    3  -0.482   0.064   0.107
    1UNL     C3    4  -0.368   0.140   0.120
    1UNL     C4    5  -0.240   0.093   0.111
    1UNL     C5    6  -0.131   0.190   0.106
    1UNL     O2    7  -0.142   0.300   0.150
    1UNL     N1    8  -0.006   0.150   0.064
    1UNL     C6    9   0.101   0.242   0.049
    1UNL     C7   10   0.233   0.181   0.110
    1UNL     C8   11   0.263   0.060   0.031
    1UNL     C9   12   0.161  -0.009  -0.034
    1UNL     N2   13   0.214  -0.116  -0.094
    1UNL    C10   14   0.353  -0.115  -0.074
    1UNL    C11   15   0.451  -0.187  -0.141
    1UNL    C12   16   0.584  -0.152  -0.110
    1UNL    C13   17   0.613  -0.035  -0.041
    1UNL    C14   18   0.517   0.045   0.016
    1UNL    C15   19   0.388   0.005   0.001
    1UNL    C16   20   0.013   0.020  -0.019
    1UNL    C17   21  -0.070  -0.096   0.050
    1UNL    C18   22  -0.216  -0.057   0.096
    1UNL    C19   23  -0.329  -0.105  -0.006
    1UNL    C20   24  -0.283  -0.064  -0.143
    1UNL     O3   25  -0.193  -0.100  -0.207
    1UNL     H1   26  -0.571   0.051  -0.120
    1UNL     H2   27  -0.547  -0.132  -0.157
    1UNL     H3   28  -0.671  -0.057  -0.054
    1UNL     H4   29  -0.504  -0.137   0.114
    1UNL     H5   30  -0.381   0.250   0.135
    1UNL     H6   31   0.079   0.344   0.078
    1UNL     H7   32   0.118   0.248  -0.059
    1UNL     H8   33   0.320   0.242   0.088
    1UNL     H9   34   0.213   0.152   0.215
    1UNL    H10   35   0.168  -0.178  -0.167
    1UNL    H11   36   0.433  -0.268  -0.199
    1UNL    H12   37   0.664  -0.218  -0.134
    1UNL    H13   38   0.715   0.004  -0.045
    1UNL    H14   39   0.548   0.134   0.076
    1UNL    H15   40  -0.029   0.040  -0.118
    1UNL    H16   41  -0.077  -0.173  -0.031
    1UNL    H17   42  -0.016  -0.139   0.131
    1UNL    H18   43  -0.223  -0.091   0.200
    1UNL    H19   44  -0.319  -0.211  -0.009
    1UNL    H20   45  -0.332   0.013  -0.196
   0.00000   0.00000   0.00000   0.00000   0.00000   0.00000   0.00000   0.00000   0.00000
Generated with MDTraj, t= 69.0
 45
    1UNL     C1    1  -0.566  -0.044  -0.080
    1UNL     C2    2  -0.464  -0.072   0.035
    1UNL     O1    3  -0.471   0.038   0.132
    1UNL     C3    4  -0.370   0.137   0.128
    1UNL     C4    5  -0.241   0.107   0.109
    1UNL     C5    6  -0.131   0.198   0.097
    1UNL     O2    7  -0.154   0.314   0.105
    1UNL     N1    8  -0.001   0.150   0.077
    1UNL     C6    9   0.110   0.248   0.077
    1UNL     C7   10   0.240   0.184   0.115
    1UNL     C8   11   0.257   0.061   0.033
    1UNL     C9   12   0.155  -0.009  -0.029
    1UNL     N2   13   0.207  -0.112  -0.099
    1UNL    C10   14   0.347  -0.111  -0.084
    1UNL    C11   15   0.451  -0.175  -0.157
    1UNL    C12   16   0.585  -0.147  -0.122
    1UNL    C13   17   0.616  -0.048  -0.026
    1UNL    C14   18   0.516   0.024   0.028
    1UNL    C15   19   0.379  -0.001  -0.006
    1UNL    C16   20   0.013   0.031  -0.007
    1UNL    C17   21  -0.064  -0.081   0.065
    1UNL    C18   22  -0.213  -0.042   0.091
    1UNL    C19   23  -0.316  -0.101  -0.014
    1UNL    C20   24  -0.279  -0.067  -0.159
    1UNL     O3   25  -0.206  -0.137  -0.225
    1UNL     H1   26  -0.545   0.051  -0.133
    1UNL     H2   27  -0.571  -0.131  -0.147
    1UNL     H3   28  -0.668  -0.010  -0.050
    1UNL     H4   29  -0.507  -0.167   0.081
    1UNL     H5   30  -0.394   0.236   0.135
    1UNL     H6   31   0.096   0.323   0.156
    1UNL     H7   32   0.114   0.306  -0.016
    1UNL     H8   33   0.317   0.253   0.100
    1UNL     H9   34   0.230   0.139   0.220
    1UNL    H10   35   0.156  -0.195  -0.150
    1UNL    H11   36   0.425  -0.266  -0.223
    1UNL    H12   37   0.666  -0.201  -0.172
    1UNL    H13   38   0.715  -0.035   0.003
    1UNL    H14   39   0.539   0.106   0.091
    1UNL    H15   40  -0.038   0.048  -0.105
    1UNL    H16   41  -0.071  -0.179   0.015
    1UNL    H17   42  -0.015  -0.098   0.165
    1UNL    H18   43  -0.233  -0.096   0.183
    1UNL    H19   44  -0.308  -0.206  -0.007
    1UNL    H20   45  -0.305   0.033  -0.193
   0.00000   0.00000   0.00000   0.00000   0.00000   0.00000   0.00000   0.00000   0.00000
Generated with MDTraj, t= 70.0
 45
    1UNL     C1    1  -0.546  -0.065  -0.095
    1UNL     C2    2  -0.461  -0.074   0.033
    1UNL     O1    3  -0.476   0.050   0.105
    1UNL     C3    4  -0.368   0.137   0.110
    1UNL     C4    5  -0.238   0.096   0.113
    1UNL     C5    6  -0.130   0.197   0.106
    1UNL     O2    7  -0.157   0.311   0.138
    1UNL     N1    8  -0.004   0.165   0.052
    1UNL     C6    9   0.109   0.261   0.077
    1UNL     C7   10   0.232   0.189   0.125
    1UNL     C8   11   0.264   0.071   0.038
    1UNL     C9   12   0.157   0.007  -0.023
    1UNL     N2   13   0.212  -0.101  -0.095
    1UNL    C10   14   0.350  -0.098  -0.093
    1UNL    C11   15   0.441  -0.183  -0.153
    1UNL    C12   16   0.572  -0.165  -0.132
    1UNL    C13   17   0.610  -0.068  -0.031
    1UNL    C14   18   0.520   0.015   0.028
    1UNL    C15   19   0.382   0.006  -0.004
    1UNL    C16   20   0.013   0.040  -0.014
    1UNL    C17   21  -0.058  -0.080   0.058
    1UNL    C18   22  -0.205  -0.051   0.098
    1UNL    C19   23  -0.311  -0.112  -0.004
    1UNL    C20   24  -0.274  -0.063  -0.135
    1UNL     O3   25  -0.230  -0.143  -0.215
    1UNL     H1   26  -0.515   0.015  -0.159
    1UNL     H2   27  -0.540  -0.169  -0.136
    1UNL     H3   28  -0.648  -0.028  -0.073
    1UNL     H4   29  -0.507  -0.152   0.103
    1UNL     H5   30  -0.385   0.245   0.104
    1UNL     H6   31   0.072   0.337   0.151
    1UNL     H7   32   0.126   0.321  -0.014
    1UNL     H8   33   0.319   0.241   0.126
    1UNL     H9   34   0.202   0.142   0.227
    1UNL    H10   35   0.158  -0.166  -0.165
    1UNL    H11   36   0.403  -0.264  -0.214
    1UNL    H12   37   0.641  -0.238  -0.175
    1UNL    H13   38   0.721  -0.048  -0.022
    1UNL    H14   39   0.547   0.098   0.089
    1UNL    H15   40  -0.038   0.036  -0.115
    1UNL    H16   41  -0.057  -0.169  -0.005
    1UNL    H17   42  -0.004  -0.101   0.159
    1UNL    H18   43  -0.215  -0.094   0.196
    1UNL    H19   44  -0.302  -0.217  -0.004
    1UNL    H20   45  -0.262   0.043  -0.164
   0.00000   0.00000   0.00000   0.00000   0.00000   0.00000   0.00000   0.00000   0.00000
Generated with MDTraj, t= 71.0
 45
    1UNL     C1    1  -0.563  -0.114  -0.070
    1UNL     C2    2  -0.453  -0.067   0.026
    1UNL     O1    3  -0.474   0.076   0.055
    1UNL     C3    4  -0.361   0.152   0.089
    1UNL     C4    5  -0.232   0.103   0.107
    1UNL     C5    6  -0.120   0.197   0.131
    1UNL     O2    7  -0.130   0.300   0.197
    1UNL     N1    8  -0.000   0.162   0.074
    1UNL     C6    9   0.107   0.262   0.081
    1UNL     C7   10   0.244   0.189   0.099
    1UNL     C8   11   0.255   0.067   0.023
    1UNL     C9   12   0.153  -0.001  -0.032
    1UNL     N2   13   0.197  -0.101  -0.110
    1UNL    C10   14   0.338  -0.102  -0.105
    1UNL    C11   15   0.439  -0.193  -0.146
    1UNL    C12   16   0.571  -0.165  -0.109
    1UNL    C13   17   0.603  -0.048  -0.026
    1UNL    C14   18   0.506   0.031   0.028
    1UNL    C15   19   0.374   0.002  -0.016
    1UNL    C16   20   0.013   0.031  -0.003
    1UNL    C17   21  -0.062  -0.085   0.064
    1UNL    C18   22  -0.207  -0.044   0.095
    1UNL    C19   23  -0.307  -0.097  -0.010
    1UNL    C20   24  -0.273  -0.065  -0.150
    1UNL     O3   25  -0.220  -0.147  -0.217
    1UNL     H1   26  -0.575  -0.046  -0.150
    1UNL     H2   27  -0.543  -0.223  -0.090
    1UNL     H3   28  -0.658  -0.098  -0.016
    1UNL     H4   29  -0.467  -0.114   0.127
    1UNL     H5   30  -0.387   0.263   0.096
    1UNL     H6   31   0.078   0.334   0.162
    1UNL     H7   32   0.103   0.328  -0.009
    1UNL     H8   33   0.315   0.255   0.063
    1UNL     H9   34   0.266   0.156   0.207
    1UNL    H10   35   0.137  -0.171  -0.166
    1UNL    H11   36   0.412  -0.276  -0.198
    1UNL    H12   37   0.649  -0.233  -0.133
    1UNL    H13   38   0.704  -0.030  -0.014
    1UNL    H14   39   0.526   0.130   0.084
    1UNL    H15   40  -0.039   0.064  -0.100
    1UNL    H16   41  -0.068  -0.167  -0.006
    1UNL    H17   42   0.000  -0.105   0.164
    1UNL    H18   43  -0.232  -0.085   0.190
    1UNL    H19   44  -0.297  -0.203   0.003
    1UNL    H20   45  -0.308   0.026  -0.184
   0.00000   0.00000   0.00000   0.00000   0.00000   0.00000   0.00000   0.00000   0.00000
Generated with MDTraj, t= 72.0
 45
    1UNL     C1    1  -0.583  -0.129  -0.019
    1UNL     C2    2  -0.464  -0.057   0.038
    1UNL     O1    3  -0.458   0.083   0.002
    1UNL     C3    4  -0.354   0.150   0.058
    1UNL     C4    5  -0.233   0.103   0.095
    1UNL     C5    6  -0.125   0.190   0.149
    1UNL     O2    7  -0.154   0.287   0.217
    1UNL     N1    8   0.000   0.155   0.104
    1UNL     C6    9   0.100   0.261   0.089
    1UNL     C7   10   0.248   0.209   0.101
    1UNL     C8   11   0.266   0.076   0.031
    1UNL     C9   12   0.160   0.005  -0.024
    1UNL     N2   13   0.206  -0.098  -0.102
    1UNL    C10   14   0.343  -0.105  -0.086
    1UNL    C11   15   0.432  -0.206  -0.133
    1UNL    C12   16   0.569  -0.176  -0.114
    1UNL    C13   17   0.613  -0.059  -0.053
    1UNL    C14   18   0.523   0.032  -0.000
    1UNL    C15   19   0.384   0.015  -0.019
    1UNL    C16   20   0.014   0.038   0.001
    1UNL    C17   21  -0.075  -0.084   0.036
    1UNL    C18   22  -0.213  -0.045   0.073
    1UNL    C19   23  -0.327  -0.113  -0.013
    1UNL    C20   24  -0.287  -0.082  -0.152
    1UNL     O3   25  -0.185  -0.110  -0.202
    1UNL     H1   26  -0.568  -0.156  -0.123
    1UNL     H2   27  -0.602  -0.217   0.045
    1UNL     H3   28  -0.672  -0.065  -0.032
    1UNL     H4   29  -0.472  -0.055   0.147
    1UNL     H5   30  -0.369   0.252   0.074
    1UNL     H6   31   0.077   0.331   0.174
    1UNL     H7   32   0.078   0.322  -0.004
    1UNL     H8   33   0.320   0.281   0.056
    1UNL     H9   34   0.260   0.200   0.213
    1UNL    H10   35   0.149  -0.171  -0.143
    1UNL    H11   36   0.388  -0.303  -0.179
    1UNL    H12   37   0.638  -0.248  -0.158
    1UNL    H13   38   0.717  -0.039  -0.022
    1UNL    H14   39   0.552   0.114   0.053
    1UNL    H15   40  -0.023   0.086  -0.096
    1UNL    H16   41  -0.069  -0.138  -0.057
    1UNL    H17   42  -0.023  -0.140   0.126
    1UNL    H18   43  -0.235  -0.082   0.170
    1UNL    H19   44  -0.335  -0.220  -0.006
    1UNL    H20   45  -0.351  -0.025  -0.219
   0.00000   0.00000   0.00000   0.00000   0.00000   0.00000   0.00000   0.00000   0.00000
Generated with MDTraj, t= 73.0
 45
    1UNL     C1    1  -0.571  -0.131  -0.030
    1UNL     C2    2  -0.457  -0.059   0.033
    1UNL     O1    3  -0.467   0.082   0.016
    1UNL     C3    4  -0.360   0.153   0.058
    1UNL     C4    5  -0.237   0.108   0.088
    1UNL     C5    6  -0.126   0.197   0.126
    1UNL     O2    7  -0.152   0.303   0.176
    1UNL     N1    8   0.001   0.155   0.092
    1UNL     C6    9   0.108   0.247   0.125
    1UNL     C7   10   0.252   0.187   0.118
    1UNL     C8   11   0.265   0.074   0.024
    1UNL     C9   12   0.160  -0.004  -0.022
    1UNL     N2   13   0.201  -0.119  -0.086
    1UNL    C10   14   0.343  -0.114  -0.085
    1UNL    C11   15   0.441  -0.195  -0.135
    1UNL    C12   16   0.575  -0.162  -0.119
    1UNL    C13   17   0.615  -0.045  -0.058
    1UNL    C14   18   0.513   0.034  -0.006
    1UNL    C15   19   0.380   0.004  -0.019
    1UNL    C16   20   0.014   0.041   0.001
    1UNL    C17   21  -0.076  -0.083   0.046
    1UNL    C18   22  -0.212  -0.044   0.086
    1UNL    C19   23  -0.316  -0.117  -0.005
    1UNL    C20   24  -0.297  -0.077  -0.143
    1UNL     O3   25  -0.196  -0.098  -0.207
    1UNL     H1   26  -0.610  -0.081  -0.124
    1UNL     H2   27  -0.552  -0.236  -0.041
    1UNL     H3   28  -0.665  -0.121   0.024
    1UNL     H4   29  -0.460  -0.067   0.139
    1UNL     H5   30  -0.365   0.257   0.053
    1UNL     H6   31   0.089   0.288   0.228
    1UNL     H7   32   0.096   0.334   0.055
    1UNL     H8   33   0.315   0.282   0.088
    1UNL     H9   34   0.281   0.150   0.217
    1UNL    H10   35   0.148  -0.178  -0.142
    1UNL    H11   36   0.410  -0.280  -0.192
    1UNL    H12   37   0.651  -0.232  -0.150
    1UNL    H13   38   0.713  -0.004  -0.056
    1UNL    H14   39   0.541   0.110   0.068
    1UNL    H15   40  -0.025   0.071  -0.103
    1UNL    H16   41  -0.087  -0.161  -0.030
    1UNL    H17   42  -0.012  -0.118   0.136
    1UNL    H18   43  -0.226  -0.079   0.185
    1UNL    H19   44  -0.309  -0.225   0.005
    1UNL    H20   45  -0.383  -0.017  -0.185
   0.00000   0.00000   0.00000   0.00000   0.00000   0.00000   0.00000   0.00000   0.00000
Generated with MDTraj, t= 74.0
 45
    1UNL     C1    1  -0.569  -0.114  -0.048
    1UNL     C2    2  -0.460  -0.058   0.035
    1UNL     O1    3  -0.483   0.078   0.059
    1UNL     C3    4  -0.369   0.142   0.093
    1UNL     C4    5  -0.240   0.103   0.104
    1UNL     C5    6  -0.134   0.203   0.101
    1UNL     O2    7  -0.152   0.321   0.125
    1UNL     N1    8  -0.004   0.153   0.074
    1UNL     C6    9   0.113   0.242   0.084
    1UNL     C7   10   0.236   0.176   0.137
    1UNL     C8   11   0.264   0.057   0.053
    1UNL     C9   12   0.166  -0.013  -0.006
    1UNL     N2   13   0.212  -0.116  -0.091
    1UNL    C10   14   0.347  -0.100  -0.093
    1UNL    C11   15   0.442  -0.171  -0.170
    1UNL    C12   16   0.577  -0.150  -0.144
    1UNL    C13   17   0.612  -0.055  -0.044
    1UNL    C14   18   0.522   0.024   0.024
    1UNL    C15   19   0.383   0.005  -0.001
    1UNL    C16   20   0.018   0.026   0.001
    1UNL    C17   21  -0.066  -0.084   0.074
    1UNL    C18   22  -0.212  -0.050   0.096
    1UNL    C19   23  -0.317  -0.108  -0.007
    1UNL    C20   24  -0.284  -0.066  -0.146
    1UNL     O3   25  -0.199  -0.107  -0.221
    1UNL     H1   26  -0.555  -0.084  -0.157
    1UNL     H2   27  -0.586  -0.218  -0.028
    1UNL     H3   28  -0.659  -0.054  -0.031
    1UNL     H4   29  -0.470  -0.097   0.135
    1UNL     H5   30  -0.395   0.253   0.109
    1UNL     H6   31   0.084   0.332   0.144
    1UNL     H7   32   0.124   0.281  -0.021
    1UNL     H8   33   0.333   0.247   0.129
    1UNL     H9   34   0.220   0.149   0.240
    1UNL    H10   35   0.150  -0.177  -0.130
    1UNL    H11   36   0.416  -0.244  -0.238
    1UNL    H12   37   0.648  -0.200  -0.208
    1UNL    H13   38   0.720  -0.049  -0.025
    1UNL    H14   39   0.556   0.096   0.108
    1UNL    H15   40  -0.035   0.028  -0.099
    1UNL    H16   41  -0.065  -0.177   0.013
    1UNL    H17   42  -0.025  -0.106   0.175
    1UNL    H18   43  -0.239  -0.083   0.192
    1UNL    H19   44  -0.312  -0.216  -0.011
    1UNL    H20   45  -0.348   0.004  -0.195
   0.00000   0.00000   0.00000   0.00000   0.00000   0.00000   0.00000   0.00000   0.00000
Generated with MDTraj, t= 75.0
 45
    1UNL     C1    1  -0.555  -0.104  -0.074
    1UNL     C2    2  -0.459  -0.073   0.047
    1UNL     O1    3  -0.483   0.066   0.088
    1UNL     C3    4  -0.372   0.150   0.092
    1UNL     C4    5  -0.240   0.115   0.099
    1UNL     C5    6  -0.128   0.204   0.093
    1UNL     O2    7  -0.137   0.322   0.120
    1UNL     N1    8  -0.002   0.147   0.055
    1UNL     C6    9   0.114   0.234   0.063
    1UNL     C7   10   0.229   0.160   0.130
    1UNL     C8   11   0.254   0.035   0.056
    1UNL     C9   12   0.156  -0.023  -0.026
    1UNL     N2   13   0.208  -0.111  -0.118
    1UNL    C10   14   0.345  -0.107  -0.095
    1UNL    C11   15   0.456  -0.160  -0.169
    1UNL    C12   16   0.580  -0.125  -0.140
    1UNL    C13   17   0.610  -0.037  -0.031
    1UNL    C14   18   0.509   0.016   0.043
    1UNL    C15   19   0.373  -0.023   0.015
    1UNL    C16   20   0.009   0.022  -0.014
    1UNL    C17   21  -0.074  -0.072   0.072
    1UNL    C18   22  -0.217  -0.035   0.108
    1UNL    C19   23  -0.313  -0.102   0.014
    1UNL    C20   24  -0.279  -0.064  -0.131
    1UNL     O3   25  -0.193  -0.107  -0.200
    1UNL     H1   26  -0.549  -0.013  -0.137
    1UNL     H2   27  -0.527  -0.199  -0.118
    1UNL     H3   28  -0.660  -0.101  -0.048
    1UNL     H4   29  -0.490  -0.141   0.126
    1UNL     H5   30  -0.400   0.255   0.098
    1UNL     H6   31   0.081   0.329   0.109
    1UNL     H7   32   0.137   0.268  -0.041
    1UNL     H8   33   0.325   0.223   0.130
    1UNL     H9   34   0.212   0.131   0.235
    1UNL    H10   35   0.165  -0.146  -0.196
    1UNL    H11   36   0.437  -0.235  -0.254
    1UNL    H12   37   0.664  -0.154  -0.197
    1UNL    H13   38   0.713  -0.018  -0.006
    1UNL    H14   39   0.526   0.097   0.100
    1UNL    H15   40  -0.038   0.038  -0.113
    1UNL    H16   41  -0.092  -0.173   0.022
    1UNL    H17   42  -0.020  -0.085   0.164
    1UNL    H18   43  -0.246  -0.063   0.206
    1UNL    H19   44  -0.302  -0.210   0.020
    1UNL    H20   45  -0.333   0.022  -0.167
   0.00000   0.00000   0.00000   0.00000   0.00000   0.00000   0.00000   0.00000   0.00000
Generated with MDTraj, t= 76.0
 45
    1UNL     C1    1  -0.580  -0.096  -0.049
    1UNL     C2    2  -0.463  -0.058   0.044
    1UNL     O1    3  -0.481   0.081   0.075
    1UNL     C3    4  -0.369   0.153   0.089
    1UNL     C4    5  -0.242   0.102   0.097
    1UNL     C5    6  -0.130   0.195   0.104
    1UNL     O2    7  -0.138   0.313   0.134
    1UNL     N1    8  -0.004   0.151   0.059
    1UNL     C6    9   0.108   0.242   0.081
    1UNL     C7   10   0.234   0.167   0.132
    1UNL     C8   11   0.257   0.053   0.045
    1UNL     C9   12   0.153  -0.005  -0.030
    1UNL     N2   13   0.213  -0.098  -0.118
    1UNL    C10   14   0.348  -0.092  -0.101
    1UNL    C11   15   0.452  -0.170  -0.159
    1UNL    C12   16   0.580  -0.147  -0.122
    1UNL    C13   17   0.613  -0.049  -0.031
    1UNL    C14   18   0.518   0.028   0.022
    1UNL    C15   19   0.382  -0.005   0.007
    1UNL    C16   20   0.004   0.018  -0.008
    1UNL    C17   21  -0.067  -0.090   0.072
    1UNL    C18   22  -0.215  -0.051   0.096
    1UNL    C19   23  -0.324  -0.109  -0.004
    1UNL    C20   24  -0.282  -0.079  -0.149
    1UNL     O3   25  -0.181  -0.122  -0.199
    1UNL     H1   26  -0.568  -0.036  -0.139
    1UNL     H2   27  -0.568  -0.205  -0.061
    1UNL     H3   28  -0.678  -0.064  -0.014
    1UNL     H4   29  -0.477  -0.095   0.150
    1UNL     H5   30  -0.370   0.255   0.076
    1UNL     H6   31   0.075   0.327   0.141
    1UNL     H7   32   0.126   0.287  -0.018
    1UNL     H8   33   0.324   0.223   0.127
    1UNL     H9   34   0.225   0.131   0.239
    1UNL    H10   35   0.175  -0.159  -0.189
    1UNL    H11   36   0.419  -0.231  -0.236
    1UNL    H12   37   0.659  -0.219  -0.153
    1UNL    H13   38   0.716  -0.026  -0.013
    1UNL    H14   39   0.544   0.117   0.082
    1UNL    H15   40  -0.025   0.033  -0.111
    1UNL    H16   41  -0.061  -0.185   0.007
    1UNL    H17   42  -0.021  -0.110   0.164
    1UNL    H18   43  -0.239  -0.079   0.195
    1UNL    H19   44  -0.318  -0.218   0.006
    1UNL    H20   45  -0.317   0.013  -0.201
   0.00000   0.00000   0.00000   0.00000   0.00000   0.00000   0.00000   0.00000   0.00000
Generated with MDTraj, t= 77.0
 45
    1UNL     C1    1  -0.575  -0.140  -0.033
    1UNL     C2    2  -0.457  -0.068   0.040
    1UNL     O1    3  -0.472   0.079   0.033
    1UNL     C3    4  -0.361   0.155   0.065
    1UNL     C4    5  -0.241   0.105   0.097
    1UNL     C5    6  -0.133   0.195   0.123
    1UNL     O2    7  -0.147   0.302   0.174
    1UNL     N1    8  -0.003   0.159   0.087
    1UNL     C6    9   0.107   0.256   0.108
    1UNL     C7   10   0.250   0.202   0.109
    1UNL     C8   11   0.264   0.081   0.032
    1UNL     C9   12   0.162   0.010  -0.020
    1UNL     N2   13   0.210  -0.102  -0.085
    1UNL    C10   14   0.347  -0.110  -0.074
    1UNL    C11   15   0.438  -0.191  -0.150
    1UNL    C12   16   0.575  -0.171  -0.130
    1UNL    C13   17   0.615  -0.068  -0.047
    1UNL    C14   18   0.527   0.023   0.015
    1UNL    C15   19   0.391   0.005   0.001
    1UNL    C16   20   0.015   0.043  -0.010
    1UNL    C17   21  -0.069  -0.074   0.034
    1UNL    C18   22  -0.207  -0.042   0.087
    1UNL    C19   23  -0.316  -0.105  -0.002
    1UNL    C20   24  -0.300  -0.071  -0.149
    1UNL     O3   25  -0.220  -0.130  -0.221
    1UNL     H1   26  -0.574  -0.120  -0.137
    1UNL     H2   27  -0.580  -0.249  -0.011
    1UNL     H3   28  -0.673  -0.095  -0.013
    1UNL     H4   29  -0.470  -0.081   0.154
    1UNL     H5   30  -0.370   0.267   0.079
    1UNL     H6   31   0.089   0.303   0.204
    1UNL     H7   32   0.096   0.337   0.036
    1UNL     H8   33   0.316   0.276   0.085
    1UNL     H9   34   0.275   0.172   0.217
    1UNL    H10   35   0.162  -0.178  -0.142
    1UNL    H11   36   0.408  -0.253  -0.236
    1UNL    H12   37   0.648  -0.217  -0.187
    1UNL    H13   38   0.719  -0.064  -0.016
    1UNL    H14   39   0.568   0.105   0.079
    1UNL    H15   40  -0.013   0.086  -0.103
    1UNL    H16   41  -0.081  -0.139  -0.062
    1UNL    H17   42  -0.008  -0.134   0.093
    1UNL    H18   43  -0.226  -0.082   0.182
    1UNL    H19   44  -0.305  -0.214   0.013
    1UNL    H20   45  -0.352   0.010  -0.194
   0.00000   0.00000   0.00000   0.00000   0.00000   0.00000   0.00000   0.00000   0.00000
Generated with MDTraj, t= 78.0
 45
    1UNL     C1    1  -0.564  -0.142  -0.003
    1UNL     C2    2  -0.452  -0.059   0.050
    1UNL     O1    3  -0.462   0.083   0.013
    1UNL     C3    4  -0.352   0.159   0.054
    1UNL     C4    5  -0.234   0.103   0.092
    1UNL     C5    6  -0.130   0.191   0.144
    1UNL     O2    7  -0.140   0.296   0.204
    1UNL     N1    8  -0.001   0.157   0.104
    1UNL     C6    9   0.104   0.258   0.109
    1UNL     C7   10   0.244   0.192   0.115
    1UNL     C8   11   0.265   0.085   0.015
    1UNL     C9   12   0.158   0.014  -0.031
    1UNL     N2   13   0.204  -0.105  -0.087
    1UNL    C10   14   0.341  -0.106  -0.083
    1UNL    C11   15   0.435  -0.202  -0.120
    1UNL    C12   16   0.568  -0.179  -0.098
    1UNL    C13   17   0.614  -0.062  -0.044
    1UNL    C14   18   0.522   0.039   0.000
    1UNL    C15   19   0.385   0.015  -0.024
    1UNL    C16   20   0.015   0.055  -0.008
    1UNL    C17   21  -0.061  -0.073   0.020
    1UNL    C18   22  -0.201  -0.046   0.068
    1UNL    C19   23  -0.318  -0.107  -0.015
    1UNL    C20   24  -0.309  -0.082  -0.167
    1UNL     O3   25  -0.229  -0.135  -0.236
    1UNL     H1   26  -0.593  -0.105  -0.098
    1UNL     H2   27  -0.546  -0.250  -0.003
    1UNL     H3   28  -0.664  -0.126   0.042
    1UNL     H4   29  -0.449  -0.054   0.163
    1UNL     H5   30  -0.370   0.270   0.069
    1UNL     H6   31   0.091   0.321   0.195
    1UNL     H7   32   0.093   0.321   0.022
    1UNL     H8   33   0.315   0.266   0.104
    1UNL     H9   34   0.256   0.153   0.220
    1UNL    H10   35   0.143  -0.174  -0.147
    1UNL    H11   36   0.406  -0.291  -0.177
    1UNL    H12   37   0.644  -0.253  -0.140
    1UNL    H13   38   0.715  -0.042  -0.013
    1UNL    H14   39   0.560   0.111   0.065
    1UNL    H15   40  -0.042   0.100  -0.087
    1UNL    H16   41  -0.061  -0.140  -0.074
    1UNL    H17   42  -0.005  -0.136   0.083
    1UNL    H18   43  -0.216  -0.082   0.166
    1UNL    H19   44  -0.308  -0.216  -0.002
    1UNL    H20   45  -0.370  -0.004  -0.210
   0.00000   0.00000   0.00000   0.00000   0.00000   0.00000   0.00000   0.00000   0.00000
Generated with MDTraj, t= 79.0
 45
    1UNL     C1    1  -0.591  -0.110  -0.029
    1UNL     C2    2  -0.468  -0.060   0.046
    1UNL     O1    3  -0.470   0.083   0.059
    1UNL     C3    4  -0.360   0.157   0.085
    1UNL     C4    5  -0.236   0.100   0.092
    1UNL     C5    6  -0.126   0.183   0.130
    1UNL     O2    7  -0.143   0.289   0.189
    1UNL     N1    8  -0.001   0.150   0.078
    1UNL     C6    9   0.101   0.261   0.092
    1UNL     C7   10   0.247   0.203   0.099
    1UNL     C8   11   0.266   0.077   0.020
    1UNL     C9   12   0.165   0.010  -0.045
    1UNL     N2   13   0.222  -0.095  -0.120
    1UNL    C10   14   0.360  -0.095  -0.102
    1UNL    C11   15   0.457  -0.195  -0.135
    1UNL    C12   16   0.586  -0.168  -0.098
    1UNL    C13   17   0.618  -0.058  -0.013
    1UNL    C14   18   0.520   0.022   0.033
    1UNL    C15   19   0.385   0.005  -0.006
    1UNL    C16   20   0.016   0.045  -0.022
    1UNL    C17   21  -0.063  -0.082   0.021
    1UNL    C18   22  -0.210  -0.051   0.079
    1UNL    C19   23  -0.328  -0.109  -0.008
    1UNL    C20   24  -0.312  -0.083  -0.156
    1UNL     O3   25  -0.224  -0.136  -0.214
    1UNL     H1   26  -0.578  -0.103  -0.137
    1UNL     H2   27  -0.618  -0.209   0.003
    1UNL     H3   28  -0.677  -0.042  -0.020
    1UNL     H4   29  -0.488  -0.099   0.147
    1UNL     H5   30  -0.371   0.259   0.089
    1UNL     H6   31   0.072   0.326   0.172
    1UNL     H7   32   0.092   0.326   0.006
    1UNL     H8   33   0.312   0.281   0.062
    1UNL     H9   34   0.276   0.195   0.203
    1UNL    H10   35   0.153  -0.171  -0.163
    1UNL    H11   36   0.424  -0.276  -0.192
    1UNL    H12   37   0.660  -0.235  -0.129
    1UNL    H13   38   0.723  -0.037   0.006
    1UNL    H14   39   0.534   0.093   0.118
    1UNL    H15   40  -0.027   0.067  -0.116
    1UNL    H16   41  -0.084  -0.155  -0.062
    1UNL    H17   42  -0.008  -0.145   0.087
    1UNL    H18   43  -0.208  -0.080   0.181
    1UNL    H19   44  -0.316  -0.218   0.006
    1UNL    H20   45  -0.385  -0.018  -0.209
   0.00000   0.00000   0.00000   0.00000   0.00000   0.00000   0.00000   0.00000   0.00000
Generated with MDTraj, t= 80.0
 45
    1UNL     C1    1  -0.574  -0.111  -0.045
    1UNL     C2    2  -0.457  -0.071   0.053
    1UNL     O1    3  -0.476   0.072   0.091
    1UNL     C3    4  -0.363   0.141   0.102
    1UNL     C4    5  -0.234   0.100   0.099
    1UNL     C5    6  -0.123   0.197   0.107
    1UNL     O2    7  -0.136   0.309   0.157
    1UNL     N1    8  -0.006   0.165   0.040
    1UNL     C6    9   0.112   0.260   0.064
    1UNL     C7   10   0.236   0.185   0.116
    1UNL     C8   11   0.256   0.058   0.037
    1UNL     C9   12   0.158  -0.012  -0.032
    1UNL     N2   13   0.217  -0.098  -0.119
    1UNL    C10   14   0.354  -0.096  -0.095
    1UNL    C11   15   0.453  -0.180  -0.144
    1UNL    C12   16   0.584  -0.154  -0.109
    1UNL    C13   17   0.615  -0.051  -0.009
    1UNL    C14   18   0.515   0.015   0.050
    1UNL    C15   19   0.377  -0.002   0.012
    1UNL    C16   20   0.014   0.032  -0.029
    1UNL    C17   21  -0.066  -0.084   0.031
    1UNL    C18   22  -0.207  -0.054   0.088
    1UNL    C19   23  -0.315  -0.104  -0.005
    1UNL    C20   24  -0.297  -0.058  -0.144
    1UNL     O3   25  -0.234  -0.122  -0.226
    1UNL     H1   26  -0.588  -0.023  -0.112
    1UNL     H2   27  -0.540  -0.198  -0.095
    1UNL     H3   28  -0.671  -0.126  -0.000
    1UNL     H4   29  -0.482  -0.134   0.137
    1UNL     H5   30  -0.377   0.243   0.134
    1UNL     H6   31   0.076   0.338   0.127
    1UNL     H7   32   0.129   0.312  -0.029
    1UNL     H8   33   0.325   0.252   0.116
    1UNL     H9   34   0.220   0.166   0.215
    1UNL    H10   35   0.159  -0.158  -0.191
    1UNL    H11   36   0.418  -0.270  -0.203
    1UNL    H12   37   0.668  -0.193  -0.170
    1UNL    H13   38   0.717  -0.049   0.028
    1UNL    H14   39   0.536   0.097   0.110
    1UNL    H15   40  -0.017   0.048  -0.132
    1UNL    H16   41  -0.082  -0.166  -0.041
    1UNL    H17   42  -0.013  -0.127   0.115
    1UNL    H18   43  -0.212  -0.104   0.182
    1UNL    H19   44  -0.304  -0.215  -0.006
    1UNL    H20   45  -0.311   0.044  -0.174
   0.00000   0.00000   0.00000   0.00000   0.00000   0.00000   0.00000   0.00000   0.00000
Generated with MDTraj, t= 81.0
 45
    1UNL     C1    1  -0.569  -0.123  -0.043
    1UNL     C2    2  -0.452  -0.084   0.048
    1UNL     O1    3  -0.471   0.052   0.101
    1UNL     C3    4  -0.365   0.137   0.113
    1UNL     C4    5  -0.235   0.103   0.098
    1UNL     C5    6  -0.125   0.207   0.092
    1UNL     O2    7  -0.150   0.324   0.120
    1UNL     N1    8  -0.004   0.167   0.043
    1UNL     C6    9   0.115   0.246   0.077
    1UNL     C7   10   0.237   0.171   0.134
    1UNL     C8   11   0.262   0.060   0.036
    1UNL     C9   12   0.158  -0.010  -0.024
    1UNL     N2   13   0.210  -0.107  -0.107
    1UNL    C10   14   0.352  -0.100  -0.100
    1UNL    C11   15   0.455  -0.183  -0.146
    1UNL    C12   16   0.589  -0.159  -0.107
    1UNL    C13   17   0.613  -0.055  -0.014
    1UNL    C14   18   0.515   0.027   0.033
    1UNL    C15   19   0.379  -0.004  -0.004
    1UNL    C16   20   0.009   0.024  -0.020
    1UNL    C17   21  -0.066  -0.081   0.063
    1UNL    C18   22  -0.213  -0.048   0.096
    1UNL    C19   23  -0.315  -0.100  -0.012
    1UNL    C20   24  -0.294  -0.044  -0.149
    1UNL     O3   25  -0.233  -0.086  -0.244
    1UNL     H1   26  -0.562  -0.063  -0.136
    1UNL     H2   27  -0.561  -0.228  -0.059
    1UNL     H3   28  -0.662  -0.092   0.001
    1UNL     H4   29  -0.459  -0.136   0.141
    1UNL     H5   30  -0.392   0.244   0.148
    1UNL     H6   31   0.075   0.330   0.129
    1UNL     H7   32   0.143   0.282  -0.022
    1UNL     H8   33   0.322   0.242   0.149
    1UNL     H9   34   0.212   0.135   0.225
    1UNL    H10   35   0.157  -0.160  -0.183
    1UNL    H11   36   0.438  -0.257  -0.217
    1UNL    H12   37   0.661  -0.232  -0.143
    1UNL    H13   38   0.715  -0.039   0.030
    1UNL    H14   39   0.535   0.111   0.103
    1UNL    H15   40  -0.033   0.044  -0.119
    1UNL    H16   41  -0.063  -0.168   0.002
    1UNL    H17   42  -0.015  -0.103   0.160
    1UNL    H18   43  -0.233  -0.091   0.193
    1UNL    H19   44  -0.291  -0.209  -0.016
    1UNL    H20   45  -0.338   0.052  -0.163
   0.00000   0.00000   0.00000   0.00000   0.00000   0.00000   0.00000   0.00000   0.00000
Generated with MDTraj, t= 82.0
 45
    1UNL     C1    1  -0.576  -0.130  -0.042
    1UNL     C2    2  -0.462  -0.079   0.047
    1UNL     O1    3  -0.484   0.064   0.066
    1UNL     C3    4  -0.370   0.135   0.093
    1UNL     C4    5  -0.242   0.089   0.102
    1UNL     C5    6  -0.135   0.195   0.111
    1UNL     O2    7  -0.160   0.316   0.120
    1UNL     N1    8  -0.001   0.157   0.083
    1UNL     C6    9   0.114   0.262   0.080
    1UNL     C7   10   0.252   0.196   0.106
    1UNL     C8   11   0.268   0.066   0.036
    1UNL     C9   12   0.164  -0.006  -0.025
    1UNL     N2   13   0.211  -0.119  -0.098
    1UNL    C10   14   0.355  -0.111  -0.088
    1UNL    C11   15   0.446  -0.187  -0.148
    1UNL    C12   16   0.580  -0.161  -0.116
    1UNL    C13   17   0.620  -0.061  -0.028
    1UNL    C14   18   0.524   0.027   0.025
    1UNL    C15   19   0.389  -0.004  -0.002
    1UNL    C16   20   0.023   0.035  -0.008
    1UNL    C17   21  -0.070  -0.081   0.042
    1UNL    C18   22  -0.212  -0.052   0.093
    1UNL    C19   23  -0.319  -0.116  -0.006
    1UNL    C20   24  -0.301  -0.052  -0.144
    1UNL     O3   25  -0.206  -0.054  -0.211
    1UNL     H1   26  -0.576  -0.089  -0.142
    1UNL     H2   27  -0.579  -0.238  -0.048
    1UNL     H3   28  -0.673  -0.098  -0.012
    1UNL     H4   29  -0.480  -0.111   0.151
    1UNL     H5   30  -0.383   0.242   0.103
    1UNL     H6   31   0.093   0.330   0.160
    1UNL     H7   32   0.104   0.310  -0.018
    1UNL     H8   33   0.324   0.268   0.064
    1UNL     H9   34   0.266   0.180   0.212
    1UNL    H10   35   0.165  -0.202  -0.133
    1UNL    H11   36   0.416  -0.252  -0.233
    1UNL    H12   37   0.652  -0.227  -0.158
    1UNL    H13   38   0.717  -0.065   0.004
    1UNL    H14   39   0.544   0.094   0.104
    1UNL    H15   40  -0.012   0.072  -0.108
    1UNL    H16   41  -0.083  -0.149  -0.035
    1UNL    H17   42  -0.004  -0.130   0.121
    1UNL    H18   43  -0.232  -0.089   0.193
    1UNL    H19   44  -0.314  -0.227  -0.009
    1UNL    H20   45  -0.376   0.029  -0.167
   0.00000   0.00000   0.00000   0.00000   0.00000   0.00000   0.00000   0.00000   0.00000
Generated with MDTraj, t= 83.0
 45
    1UNL     C1    1  -0.577  -0.136  -0.012
    1UNL     C2    2  -0.453  -0.066   0.038
    1UNL     O1    3  -0.475   0.073   0.026
    1UNL     C3    4  -0.363   0.147   0.061
    1UNL     C4    5  -0.235   0.100   0.094
    1UNL     C5    6  -0.132   0.188   0.130
    1UNL     O2    7  -0.152   0.290   0.193
    1UNL     N1    8  -0.006   0.154   0.078
    1UNL     C6    9   0.108   0.252   0.073
    1UNL     C7   10   0.244   0.192   0.115
    1UNL     C8   11   0.263   0.069   0.026
    1UNL     C9   12   0.158   0.002  -0.030
    1UNL     N2   13   0.201  -0.120  -0.085
    1UNL    C10   14   0.344  -0.119  -0.080
    1UNL    C11   15   0.444  -0.204  -0.123
    1UNL    C12   16   0.574  -0.169  -0.099
    1UNL    C13   17   0.610  -0.041  -0.053
    1UNL    C14   18   0.517   0.040  -0.004
    1UNL    C15   19   0.382   0.001  -0.015
    1UNL    C16   20   0.013   0.039  -0.014
    1UNL    C17   21  -0.062  -0.078   0.051
    1UNL    C18   22  -0.208  -0.044   0.083
    1UNL    C19   23  -0.314  -0.107  -0.013
    1UNL    C20   24  -0.294  -0.063  -0.156
    1UNL     O3   25  -0.187  -0.057  -0.210
    1UNL     H1   26  -0.616  -0.101  -0.103
    1UNL     H2   27  -0.565  -0.245  -0.017
    1UNL     H3   28  -0.663  -0.122   0.052
    1UNL     H4   29  -0.456  -0.085   0.150
    1UNL     H5   30  -0.382   0.248   0.073
    1UNL     H6   31   0.081   0.330   0.145
    1UNL     H7   32   0.124   0.284  -0.031
    1UNL     H8   33   0.325   0.261   0.089
    1UNL     H9   34   0.237   0.162   0.228
    1UNL    H10   35   0.161  -0.171  -0.156
    1UNL    H11   36   0.414  -0.288  -0.184
    1UNL    H12   37   0.651  -0.231  -0.155
    1UNL    H13   38   0.719  -0.018  -0.029
    1UNL    H14   39   0.537   0.129   0.053
    1UNL    H15   40  -0.031   0.054  -0.118
    1UNL    H16   41  -0.053  -0.163  -0.005
    1UNL    H17   42  -0.010  -0.102   0.151
    1UNL    H18   43  -0.236  -0.080   0.184
    1UNL    H19   44  -0.309  -0.218  -0.006
    1UNL    H20   45  -0.370  -0.072  -0.232
   0.00000   0.00000   0.00000   0.00000   0.00000   0.00000   0.00000   0.00000   0.00000
Generated with MDTraj, t= 84.0
 45
    1UNL     C1    1  -0.571  -0.128  -0.041
    1UNL     C2    2  -0.458  -0.058   0.037
    1UNL     O1    3  -0.478   0.085   0.029
    1UNL     C3    4  -0.360   0.151   0.064
    1UNL     C4    5  -0.237   0.099   0.093
    1UNL     C5    6  -0.125   0.183   0.140
    1UNL     O2    7  -0.145   0.288   0.198
    1UNL     N1    8   0.003   0.149   0.093
    1UNL     C6    9   0.102   0.257   0.084
    1UNL     C7   10   0.247   0.209   0.086
    1UNL     C8   11   0.260   0.073   0.017
    1UNL     C9   12   0.152  -0.004  -0.027
    1UNL     N2   13   0.204  -0.112  -0.089
    1UNL    C10   14   0.340  -0.106  -0.087
    1UNL    C11   15   0.442  -0.196  -0.133
    1UNL    C12   16   0.573  -0.171  -0.110
    1UNL    C13   17   0.607  -0.052  -0.037
    1UNL    C14   18   0.518   0.042  -0.001
    1UNL    C15   19   0.380   0.006  -0.014
    1UNL    C16   20   0.011   0.039  -0.001
    1UNL    C17   21  -0.067  -0.083   0.054
    1UNL    C18   22  -0.216  -0.050   0.082
    1UNL    C19   23  -0.322  -0.110  -0.011
    1UNL    C20   24  -0.284  -0.065  -0.146
    1UNL     O3   25  -0.184  -0.108  -0.205
    1UNL     H1   26  -0.541  -0.137  -0.142
    1UNL     H2   27  -0.596  -0.226  -0.003
    1UNL     H3   28  -0.657  -0.063  -0.050
    1UNL     H4   29  -0.470  -0.091   0.146
    1UNL     H5   30  -0.365   0.261   0.083
    1UNL     H6   31   0.081   0.333   0.163
    1UNL     H7   32   0.081   0.296  -0.019
    1UNL     H8   33   0.309   0.280   0.033
    1UNL     H9   34   0.287   0.184   0.196
    1UNL    H10   35   0.155  -0.181  -0.131
    1UNL    H11   36   0.418  -0.268  -0.205
    1UNL    H12   37   0.644  -0.227  -0.157
    1UNL    H13   38   0.709  -0.032  -0.035
    1UNL    H14   39   0.546   0.133   0.057
    1UNL    H15   40  -0.046   0.076  -0.094
    1UNL    H16   41  -0.062  -0.169  -0.009
    1UNL    H17   42  -0.020  -0.118   0.150
    1UNL    H18   43  -0.235  -0.095   0.182
    1UNL    H19   44  -0.305  -0.219  -0.002
    1UNL    H20   45  -0.325   0.031  -0.171
   0.00000   0.00000   0.00000   0.00000   0.00000   0.00000   0.00000   0.00000   0.00000
Generated with MDTraj, t= 85.0
 45
    1UNL     C1    1  -0.559  -0.091  -0.095
    1UNL     C2    2  -0.458  -0.062   0.023
    1UNL     O1    3  -0.470   0.076   0.066
    1UNL     C3    4  -0.363   0.145   0.106
    1UNL     C4    5  -0.239   0.101   0.103
    1UNL     C5    6  -0.123   0.192   0.126
    1UNL     O2    7  -0.148   0.303   0.171
    1UNL     N1    8   0.002   0.154   0.081
    1UNL     C6    9   0.103   0.261   0.082
    1UNL     C7   10   0.239   0.206   0.107
    1UNL     C8   11   0.260   0.080   0.024
    1UNL     C9   12   0.155   0.007  -0.029
    1UNL     N2   13   0.203  -0.099  -0.091
    1UNL    C10   14   0.340  -0.099  -0.088
    1UNL    C11   15   0.432  -0.190  -0.146
    1UNL    C12   16   0.565  -0.168  -0.122
    1UNL    C13   17   0.608  -0.058  -0.044
    1UNL    C14   18   0.516   0.036   0.005
    1UNL    C15   19   0.378   0.007  -0.006
    1UNL    C16   20   0.015   0.034  -0.002
    1UNL    C17   21  -0.065  -0.087   0.057
    1UNL    C18   22  -0.213  -0.045   0.096
    1UNL    C19   23  -0.316  -0.109  -0.003
    1UNL    C20   24  -0.272  -0.086  -0.142
    1UNL     O3   25  -0.197  -0.158  -0.196
    1UNL     H1   26  -0.556  -0.008  -0.164
    1UNL     H2   27  -0.525  -0.179  -0.141
    1UNL     H3   28  -0.664  -0.099  -0.066
    1UNL     H4   29  -0.505  -0.120   0.107
    1UNL     H5   30  -0.365   0.256   0.127
    1UNL     H6   31   0.064   0.327   0.163
    1UNL     H7   32   0.091   0.318  -0.015
    1UNL     H8   33   0.330   0.260   0.085
    1UNL     H9   34   0.241   0.164   0.218
    1UNL    H10   35   0.141  -0.162  -0.132
    1UNL    H11   36   0.402  -0.283  -0.205
    1UNL    H12   37   0.654  -0.229  -0.163
    1UNL    H13   38   0.716  -0.058  -0.022
    1UNL    H14   39   0.553   0.121   0.047
    1UNL    H15   40  -0.032   0.053  -0.107
    1UNL    H16   41  -0.073  -0.169  -0.020
    1UNL    H17   42  -0.017  -0.137   0.142
    1UNL    H18   43  -0.232  -0.084   0.199
    1UNL    H19   44  -0.307  -0.218   0.007
    1UNL    H20   45  -0.290   0.009  -0.198
   0.00000   0.00000   0.00000   0.00000   0.00000   0.00000   0.00000   0.00000   0.00000
Generated with MDTraj, t= 86.0
 45
    1UNL     C1    1  -0.536  -0.071  -0.109
    1UNL     C2    2  -0.457  -0.069   0.020
    1UNL     O1    3  -0.482   0.058   0.094
    1UNL     C3    4  -0.374   0.140   0.112
    1UNL     C4    5  -0.240   0.109   0.100
    1UNL     C5    6  -0.131   0.212   0.105
    1UNL     O2    7  -0.147   0.323   0.154
    1UNL     N1    8  -0.011   0.167   0.064
    1UNL     C6    9   0.106   0.255   0.088
    1UNL     C7   10   0.234   0.179   0.125
    1UNL     C8   11   0.259   0.060   0.028
    1UNL     C9   12   0.155  -0.002  -0.027
    1UNL     N2   13   0.203  -0.107  -0.102
    1UNL    C10   14   0.342  -0.102  -0.096
    1UNL    C11   15   0.438  -0.184  -0.151
    1UNL    C12   16   0.570  -0.151  -0.134
    1UNL    C13   17   0.606  -0.048  -0.049
    1UNL    C14   18   0.511   0.026   0.016
    1UNL    C15   19   0.379   0.000  -0.012
    1UNL    C16   20   0.011   0.032   0.005
    1UNL    C17   21  -0.056  -0.077   0.089
    1UNL    C18   22  -0.210  -0.038   0.098
    1UNL    C19   23  -0.308  -0.104  -0.001
    1UNL    C20   24  -0.264  -0.086  -0.145
    1UNL     O3   25  -0.205  -0.173  -0.199
    1UNL     H1   26  -0.484  -0.013  -0.186
    1UNL     H2   27  -0.550  -0.169  -0.142
    1UNL     H3   28  -0.631  -0.022  -0.100
    1UNL     H4   29  -0.509  -0.139   0.086
    1UNL     H5   30  -0.412   0.233   0.138
    1UNL     H6   31   0.076   0.305   0.184
    1UNL     H7   32   0.110   0.333   0.007
    1UNL     H8   33   0.322   0.245   0.121
    1UNL     H9   34   0.230   0.123   0.223
    1UNL    H10   35   0.143  -0.156  -0.169
    1UNL    H11   36   0.414  -0.271  -0.203
    1UNL    H12   37   0.638  -0.216  -0.183
    1UNL    H13   38   0.704  -0.038  -0.008
    1UNL    H14   39   0.553   0.105   0.085
    1UNL    H15   40  -0.031   0.035  -0.103
    1UNL    H16   41  -0.042  -0.185   0.047
    1UNL    H17   42  -0.007  -0.070   0.184
    1UNL    H18   43  -0.248  -0.068   0.200
    1UNL    H19   44  -0.299  -0.211   0.021
    1UNL    H20   45  -0.271   0.014  -0.182
   0.00000   0.00000   0.00000   0.00000   0.00000   0.00000   0.00000   0.00000   0.00000
Generated with MDTraj, t= 87.0
 45
    1UNL     C1    1  -0.536  -0.073  -0.103
    1UNL     C2    2  -0.460  -0.066   0.024
    1UNL     O1    3  -0.477   0.066   0.089
    1UNL     C3    4  -0.369   0.149   0.097
    1UNL     C4    5  -0.237   0.102   0.105
    1UNL     C5    6  -0.128   0.197   0.104
    1UNL     O2    7  -0.153   0.315   0.119
    1UNL     N1    8  -0.001   0.151   0.088
    1UNL     C6    9   0.110   0.247   0.071
    1UNL     C7   10   0.236   0.190   0.126
    1UNL     C8   11   0.259   0.060   0.046
    1UNL     C9   12   0.156  -0.013  -0.009
    1UNL     N2   13   0.203  -0.095  -0.103
    1UNL    C10   14   0.340  -0.094  -0.102
    1UNL    C11   15   0.440  -0.175  -0.162
    1UNL    C12   16   0.572  -0.143  -0.148
    1UNL    C13   17   0.602  -0.051  -0.050
    1UNL    C14   18   0.509   0.016   0.031
    1UNL    C15   19   0.381   0.001  -0.005
    1UNL    C16   20   0.011   0.024   0.012
    1UNL    C17   21  -0.070  -0.085   0.079
    1UNL    C18   22  -0.216  -0.042   0.106
    1UNL    C19   23  -0.312  -0.110   0.002
    1UNL    C20   24  -0.274  -0.079  -0.135
    1UNL     O3   25  -0.191  -0.150  -0.187
    1UNL     H1   26  -0.539   0.021  -0.156
    1UNL     H2   27  -0.506  -0.150  -0.171
    1UNL     H3   28  -0.637  -0.092  -0.078
    1UNL     H4   29  -0.509  -0.122   0.101
    1UNL     H5   30  -0.397   0.251   0.101
    1UNL     H6   31   0.078   0.338   0.129
    1UNL     H7   32   0.121   0.263  -0.040
    1UNL     H8   33   0.324   0.257   0.105
    1UNL     H9   34   0.221   0.168   0.227
    1UNL    H10   35   0.142  -0.175  -0.142
    1UNL    H11   36   0.407  -0.236  -0.248
    1UNL    H12   37   0.648  -0.196  -0.201
    1UNL    H13   38   0.710  -0.031  -0.048
    1UNL    H14   39   0.541   0.066   0.118
    1UNL    H15   40  -0.033   0.052  -0.091
    1UNL    H16   41  -0.064  -0.176   0.004
    1UNL    H17   42  -0.024  -0.110   0.173
    1UNL    H18   43  -0.262  -0.074   0.205
    1UNL    H19   44  -0.307  -0.220   0.008
    1UNL    H20   45  -0.315  -0.004  -0.199
   0.00000   0.00000   0.00000   0.00000   0.00000   0.00000   0.00000   0.00000   0.00000
Generated with MDTraj, t= 88.0
 45
    1UNL     C1    1  -0.561  -0.109  -0.071
    1UNL     C2    2  -0.463  -0.058   0.034
    1UNL     O1    3  -0.480   0.086   0.067
    1UNL     C3    4  -0.366   0.150   0.079
    1UNL     C4    5  -0.241   0.100   0.092
    1UNL     C5    6  -0.136   0.201   0.105
    1UNL     O2    7  -0.159   0.316   0.146
    1UNL     N1    8  -0.006   0.154   0.075
    1UNL     C6    9   0.113   0.245   0.092
    1UNL     C7   10   0.235   0.172   0.134
    1UNL     C8   11   0.257   0.056   0.038
    1UNL     C9   12   0.156  -0.015  -0.018
    1UNL     N2   13   0.206  -0.120  -0.092
    1UNL    C10   14   0.342  -0.112  -0.092
    1UNL    C11   15   0.451  -0.186  -0.152
    1UNL    C12   16   0.574  -0.144  -0.141
    1UNL    C13   17   0.612  -0.031  -0.065
    1UNL    C14   18   0.515   0.031   0.012
    1UNL    C15   19   0.376  -0.001  -0.013
    1UNL    C16   20   0.015   0.021   0.008
    1UNL    C17   21  -0.069  -0.083   0.082
    1UNL    C18   22  -0.221  -0.043   0.097
    1UNL    C19   23  -0.320  -0.108  -0.005
    1UNL    C20   24  -0.271  -0.072  -0.144
    1UNL     O3   25  -0.166  -0.112  -0.189
    1UNL     H1   26  -0.523  -0.099  -0.169
    1UNL     H2   27  -0.586  -0.216  -0.060
    1UNL     H3   28  -0.652  -0.057  -0.069
    1UNL     H4   29  -0.490  -0.101   0.128
    1UNL     H5   30  -0.368   0.263   0.063
    1UNL     H6   31   0.084   0.319   0.173
    1UNL     H7   32   0.138   0.290  -0.007
    1UNL     H8   33   0.326   0.240   0.123
    1UNL     H9   34   0.225   0.131   0.226
    1UNL    H10   35   0.143  -0.178  -0.163
    1UNL    H11   36   0.412  -0.271  -0.208
    1UNL    H12   37   0.649  -0.187  -0.213
    1UNL    H13   38   0.717  -0.004  -0.056
    1UNL    H14   39   0.543   0.102   0.087
    1UNL    H15   40  -0.030   0.043  -0.095
    1UNL    H16   41  -0.062  -0.184   0.027
    1UNL    H17   42  -0.022  -0.093   0.178
    1UNL    H18   43  -0.260  -0.091   0.194
    1UNL    H19   44  -0.311  -0.217   0.002
    1UNL    H20   45  -0.349  -0.020  -0.206
   0.00000   0.00000   0.00000   0.00000   0.00000   0.00000   0.00000   0.00000   0.00000
Generated with MDTraj, t= 89.0
 45
    1UNL     C1    1  -0.570  -0.150  -0.021
    1UNL     C2    2  -0.454  -0.053   0.030
    1UNL     O1    3  -0.467   0.086   0.008
    1UNL     C3    4  -0.356   0.153   0.046
    1UNL     C4    5  -0.239   0.103   0.093
    1UNL     C5    6  -0.130   0.197   0.123
    1UNL     O2    7  -0.162   0.302   0.178
    1UNL     N1    8  -0.002   0.155   0.090
    1UNL     C6    9   0.108   0.254   0.093
    1UNL     C7   10   0.251   0.190   0.122
    1UNL     C8   11   0.264   0.060   0.036
    1UNL     C9   12   0.156  -0.011  -0.009
    1UNL     N2   13   0.204  -0.126  -0.081
    1UNL    C10   14   0.342  -0.112  -0.079
    1UNL    C11   15   0.439  -0.186  -0.152
    1UNL    C12   16   0.565  -0.153  -0.143
    1UNL    C13   17   0.612  -0.043  -0.059
    1UNL    C14   18   0.518   0.034  -0.001
    1UNL    C15   19   0.386  -0.003  -0.007
    1UNL    C16   20   0.016   0.027   0.016
    1UNL    C17   21  -0.075  -0.088   0.071
    1UNL    C18   22  -0.224  -0.045   0.095
    1UNL    C19   23  -0.320  -0.105  -0.008
    1UNL    C20   24  -0.280  -0.060  -0.146
    1UNL     O3   25  -0.185  -0.083  -0.210
    1UNL     H1   26  -0.585  -0.137  -0.123
    1UNL     H2   27  -0.540  -0.255  -0.009
    1UNL     H3   28  -0.663  -0.140   0.031
    1UNL     H4   29  -0.455  -0.069   0.139
    1UNL     H5   30  -0.361   0.259   0.031
    1UNL     H6   31   0.079   0.328   0.173
    1UNL     H7   32   0.105   0.299  -0.008
    1UNL     H8   33   0.335   0.263   0.102
    1UNL     H9   34   0.257   0.166   0.222
    1UNL    H10   35   0.153  -0.201  -0.145
    1UNL    H11   36   0.404  -0.269  -0.209
    1UNL    H12   37   0.632  -0.208  -0.198
    1UNL    H13   38   0.716  -0.028  -0.050
    1UNL    H14   39   0.546   0.124   0.055
    1UNL    H15   40  -0.025   0.048  -0.086
    1UNL    H16   41  -0.060  -0.168  -0.005
    1UNL    H17   42  -0.038  -0.129   0.167
    1UNL    H18   43  -0.255  -0.090   0.197
    1UNL    H19   44  -0.298  -0.213  -0.009
    1UNL    H20   45  -0.354  -0.007  -0.204
   0.00000   0.00000   0.00000   0.00000   0.00000   0.00000   0.00000   0.00000   0.00000
Generated with MDTraj, t= 90.0
 45
    1UNL     C1    1  -0.575  -0.134  -0.037
    1UNL     C2    2  -0.463  -0.053   0.034
    1UNL     O1    3  -0.470   0.085   0.012
    1UNL     C3    4  -0.358   0.143   0.069
    1UNL     C4    5  -0.240   0.094   0.109
    1UNL     C5    6  -0.126   0.192   0.131
    1UNL     O2    7  -0.148   0.304   0.175
    1UNL     N1    8   0.002   0.154   0.091
    1UNL     C6    9   0.112   0.254   0.102
    1UNL     C7   10   0.261   0.199   0.112
    1UNL     C8   11   0.265   0.072   0.034
    1UNL     C9   12   0.157   0.002  -0.013
    1UNL     N2   13   0.202  -0.102  -0.088
    1UNL    C10   14   0.340  -0.105  -0.087
    1UNL    C11   15   0.435  -0.191  -0.148
    1UNL    C12   16   0.574  -0.166  -0.126
    1UNL    C13   17   0.609  -0.056  -0.050
    1UNL    C14   18   0.518   0.039   0.001
    1UNL    C15   19   0.383   0.000  -0.004
    1UNL    C16   20   0.015   0.039  -0.002
    1UNL    C17   21  -0.070  -0.082   0.036
    1UNL    C18   22  -0.218  -0.052   0.089
    1UNL    C19   23  -0.322  -0.114  -0.001
    1UNL    C20   24  -0.297  -0.088  -0.149
    1UNL     O3   25  -0.188  -0.094  -0.202
    1UNL     H1   26  -0.564  -0.120  -0.143
    1UNL     H2   27  -0.566  -0.239  -0.023
    1UNL     H3   28  -0.676  -0.112  -0.007
    1UNL     H4   29  -0.484  -0.076   0.142
    1UNL     H5   30  -0.373   0.245   0.072
    1UNL     H6   31   0.076   0.319   0.185
    1UNL     H7   32   0.105   0.311   0.009
    1UNL     H8   33   0.330   0.279   0.078
    1UNL     H9   34   0.295   0.184   0.216
    1UNL    H10   35   0.145  -0.178  -0.136
    1UNL    H11   36   0.396  -0.274  -0.206
    1UNL    H12   37   0.658  -0.239  -0.152
    1UNL    H13   38   0.717  -0.032  -0.045
    1UNL    H14   39   0.558   0.128   0.039
    1UNL    H15   40  -0.026   0.077  -0.096
    1UNL    H16   41  -0.084  -0.152  -0.041
    1UNL    H17   42  -0.014  -0.134   0.119
    1UNL    H18   43  -0.239  -0.098   0.193
    1UNL    H19   44  -0.329  -0.223   0.004
    1UNL    H20   45  -0.379  -0.057  -0.208
   0.00000   0.00000   0.00000   0.00000   0.00000   0.00000   0.00000   0.00000   0.00000
Generated with MDTraj, t= 91.0
 45
    1UNL     C1    1  -0.574  -0.113  -0.055
    1UNL     C2    2  -0.464  -0.067   0.036
    1UNL     O1    3  -0.482   0.072   0.076
    1UNL     C3    4  -0.371   0.146   0.099
    1UNL     C4    5  -0.242   0.103   0.098
    1UNL     C5    6  -0.127   0.193   0.115
    1UNL     O2    7  -0.143   0.300   0.172
    1UNL     N1    8   0.001   0.161   0.064
    1UNL     C6    9   0.115   0.253   0.096
    1UNL     C7   10   0.245   0.181   0.116
    1UNL     C8   11   0.260   0.064   0.031
    1UNL     C9   12   0.158  -0.000  -0.030
    1UNL     N2   13   0.206  -0.097  -0.110
    1UNL    C10   14   0.348  -0.097  -0.106
    1UNL    C11   15   0.445  -0.190  -0.147
    1UNL    C12   16   0.574  -0.169  -0.099
    1UNL    C13   17   0.614  -0.057  -0.030
    1UNL    C14   18   0.515   0.035   0.014
    1UNL    C15   19   0.380   0.011  -0.018
    1UNL    C16   20   0.014   0.040  -0.020
    1UNL    C17   21  -0.061  -0.070   0.055
    1UNL    C18   22  -0.219  -0.040   0.086
    1UNL    C19   23  -0.318  -0.102  -0.011
    1UNL    C20   24  -0.282  -0.073  -0.155
    1UNL     O3   25  -0.198  -0.141  -0.212
    1UNL     H1   26  -0.555  -0.066  -0.151
    1UNL     H2   27  -0.585  -0.215  -0.072
    1UNL     H3   28  -0.669  -0.085  -0.011
    1UNL     H4   29  -0.476  -0.111   0.142
    1UNL     H5   30  -0.396   0.255   0.110
    1UNL     H6   31   0.090   0.307   0.189
    1UNL     H7   32   0.119   0.326   0.017
    1UNL     H8   33   0.325   0.251   0.099
    1UNL     H9   34   0.259   0.164   0.231
    1UNL    H10   35   0.152  -0.147  -0.180
    1UNL    H11   36   0.427  -0.282  -0.197
    1UNL    H12   37   0.637  -0.245  -0.131
    1UNL    H13   38   0.708  -0.042   0.018
    1UNL    H14   39   0.541   0.130   0.067
    1UNL    H15   40  -0.026   0.058  -0.117
    1UNL    H16   41  -0.055  -0.162   0.010
    1UNL    H17   42  -0.013  -0.084   0.158
    1UNL    H18   43  -0.238  -0.069   0.197
    1UNL    H19   44  -0.294  -0.210  -0.011
    1UNL    H20   45  -0.304   0.025  -0.206
   0.00000   0.00000   0.00000   0.00000   0.00000   0.00000   0.00000   0.00000   0.00000
Generated with MDTraj, t= 92.0
 45
    1UNL     C1    1  -0.554  -0.105  -0.070
    1UNL     C2    2  -0.448  -0.077   0.038
    1UNL     O1    3  -0.470   0.065   0.079
    1UNL     C3    4  -0.362   0.140   0.097
    1UNL     C4    5  -0.231   0.101   0.108
    1UNL     C5    6  -0.127   0.197   0.115
    1UNL     O2    7  -0.155   0.308   0.154
    1UNL     N1    8  -0.003   0.161   0.068
    1UNL     C6    9   0.105   0.263   0.060
    1UNL     C7   10   0.236   0.195   0.104
    1UNL     C8   11   0.259   0.060   0.047
    1UNL     C9   12   0.160   0.008  -0.037
    1UNL     N2   13   0.210  -0.095  -0.118
    1UNL    C10   14   0.345  -0.102  -0.097
    1UNL    C11   15   0.437  -0.176  -0.154
    1UNL    C12   16   0.568  -0.159  -0.117
    1UNL    C13   17   0.602  -0.065  -0.014
    1UNL    C14   18   0.511   0.010   0.046
    1UNL    C15   19   0.378  -0.004   0.002
    1UNL    C16   20   0.009   0.042  -0.018
    1UNL    C17   21  -0.051  -0.083   0.048
    1UNL    C18   22  -0.200  -0.051   0.098
    1UNL    C19   23  -0.303  -0.111   0.006
    1UNL    C20   24  -0.280  -0.055  -0.136
    1UNL     O3   25  -0.239  -0.129  -0.218
    1UNL     H1   26  -0.541  -0.026  -0.143
    1UNL     H2   27  -0.542  -0.195  -0.124
    1UNL     H3   28  -0.651  -0.110  -0.027
    1UNL     H4   29  -0.480  -0.126   0.135
    1UNL     H5   30  -0.381   0.250   0.109
    1UNL     H6   31   0.075   0.345   0.125
    1UNL     H7   32   0.119   0.305  -0.038
    1UNL     H8   33   0.321   0.260   0.093
    1UNL     H9   34   0.235   0.189   0.224
    1UNL    H10   35   0.152  -0.148  -0.174
    1UNL    H11   36   0.406  -0.233  -0.244
    1UNL    H12   37   0.650  -0.220  -0.165
    1UNL    H13   38   0.708  -0.064   0.006
    1UNL    H14   39   0.532   0.069   0.128
    1UNL    H15   40  -0.037   0.061  -0.112
    1UNL    H16   41  -0.051  -0.157  -0.025
    1UNL    H17   42   0.015  -0.128   0.129
    1UNL    H18   43  -0.217  -0.098   0.202
    1UNL    H19   44  -0.289  -0.222  -0.000
    1UNL    H20   45  -0.276   0.050  -0.146
   0.00000   0.00000   0.00000   0.00000   0.00000   0.00000   0.00000   0.00000   0.00000
Generated with MDTraj, t= 93.0
 45
    1UNL     C1    1  -0.569  -0.125  -0.045
    1UNL     C2    2  -0.451  -0.079   0.045
    1UNL     O1    3  -0.475   0.057   0.081
    1UNL     C3    4  -0.369   0.136   0.103
    1UNL     C4    5  -0.236   0.108   0.089
    1UNL     C5    6  -0.133   0.208   0.114
    1UNL     O2    7  -0.161   0.321   0.156
    1UNL     N1    8  -0.001   0.163   0.078
    1UNL     C6    9   0.110   0.260   0.079
    1UNL     C7   10   0.233   0.178   0.119
    1UNL     C8   11   0.269   0.075   0.018
    1UNL     C9   12   0.161   0.006  -0.036
    1UNL     N2   13   0.211  -0.103  -0.107
    1UNL    C10   14   0.353  -0.104  -0.094
    1UNL    C11   15   0.455  -0.193  -0.146
    1UNL    C12   16   0.584  -0.174  -0.105
    1UNL    C13   17   0.617  -0.064  -0.018
    1UNL    C14   18   0.526   0.023   0.025
    1UNL    C15   19   0.386   0.006  -0.014
    1UNL    C16   20   0.017   0.035  -0.003
    1UNL    C17   21  -0.056  -0.080   0.059
    1UNL    C18   22  -0.207  -0.040   0.084
    1UNL    C19   23  -0.310  -0.102  -0.013
    1UNL    C20   24  -0.302  -0.051  -0.158
    1UNL     O3   25  -0.243  -0.115  -0.238
    1UNL     H1   26  -0.556  -0.078  -0.139
    1UNL     H2   27  -0.579  -0.232  -0.064
    1UNL     H3   28  -0.663  -0.101  -0.004
    1UNL     H4   29  -0.472  -0.127   0.143
    1UNL     H5   30  -0.392   0.231   0.136
    1UNL     H6   31   0.092   0.341   0.148
    1UNL     H7   32   0.113   0.298  -0.020
    1UNL     H8   33   0.321   0.237   0.141
    1UNL     H9   34   0.216   0.134   0.227
    1UNL    H10   35   0.155  -0.168  -0.146
    1UNL    H11   36   0.436  -0.258  -0.224
    1UNL    H12   37   0.665  -0.227  -0.144
    1UNL    H13   38   0.722  -0.036  -0.007
    1UNL    H14   39   0.536   0.102   0.102
    1UNL    H15   40  -0.035   0.066  -0.089
    1UNL    H16   41  -0.038  -0.168   0.001
    1UNL    H17   42  -0.001  -0.107   0.153
    1UNL    H18   43  -0.247  -0.080   0.184
    1UNL    H19   44  -0.293  -0.213  -0.019
    1UNL    H20   45  -0.334   0.046  -0.194
   0.00000   0.00000   0.00000   0.00000   0.00000   0.00000   0.00000   0.00000   0.00000
Generated with MDTraj, t= 94.0
 45
    1UNL     C1    1  -0.577  -0.141  -0.016
    1UNL     C2    2  -0.458  -0.069   0.052
    1UNL     O1    3  -0.470   0.074   0.054
    1UNL     C3    4  -0.355   0.145   0.092
    1UNL     C4    5  -0.232   0.098   0.085
    1UNL     C5    6  -0.127   0.192   0.121
    1UNL     O2    7  -0.149   0.307   0.159
    1UNL     N1    8   0.007   0.148   0.090
    1UNL     C6    9   0.105   0.256   0.094
    1UNL     C7   10   0.246   0.194   0.108
    1UNL     C8   11   0.264   0.080   0.020
    1UNL     C9   12   0.161  -0.000  -0.029
    1UNL     N2   13   0.212  -0.115  -0.087
    1UNL    C10   14   0.352  -0.117  -0.071
    1UNL    C11   15   0.451  -0.198  -0.129
    1UNL    C12   16   0.583  -0.160  -0.113
    1UNL    C13   17   0.616  -0.047  -0.034
    1UNL    C14   18   0.522   0.030   0.021
    1UNL    C15   19   0.384   0.004  -0.003
    1UNL    C16   20   0.017   0.040  -0.021
    1UNL    C17   21  -0.071  -0.079   0.011
    1UNL    C18   22  -0.211  -0.050   0.070
    1UNL    C19   23  -0.327  -0.112  -0.016
    1UNL    C20   24  -0.317  -0.057  -0.153
    1UNL     O3   25  -0.226  -0.086  -0.229
    1UNL     H1   26  -0.574  -0.123  -0.119
    1UNL     H2   27  -0.585  -0.249   0.001
    1UNL     H3   28  -0.669  -0.103   0.020
    1UNL     H4   29  -0.459  -0.093   0.156
    1UNL     H5   30  -0.386   0.245   0.117
    1UNL     H6   31   0.071   0.321   0.174
    1UNL     H7   32   0.105   0.309   0.002
    1UNL     H8   33   0.326   0.271   0.105
    1UNL     H9   34   0.267   0.154   0.209
    1UNL    H10   35   0.170  -0.172  -0.152
    1UNL    H11   36   0.427  -0.300  -0.167
    1UNL    H12   37   0.666  -0.204  -0.172
    1UNL    H13   38   0.716  -0.015  -0.004
    1UNL    H14   39   0.550   0.125   0.077
    1UNL    H15   40  -0.016   0.083  -0.111
    1UNL    H16   41  -0.076  -0.141  -0.081
    1UNL    H17   42  -0.010  -0.149   0.070
    1UNL    H18   43  -0.222  -0.083   0.179
    1UNL    H19   44  -0.299  -0.220  -0.002
    1UNL    H20   45  -0.383   0.032  -0.179
   0.00000   0.00000   0.00000   0.00000   0.00000   0.00000   0.00000   0.00000   0.00000
Generated with MDTraj, t= 95.0
 45
    1UNL     C1    1  -0.587  -0.137   0.003
    1UNL     C2    2  -0.462  -0.062   0.052
    1UNL     O1    3  -0.482   0.083   0.037
    1UNL     C3    4  -0.362   0.149   0.063
    1UNL     C4    5  -0.237   0.098   0.076
    1UNL     C5    6  -0.125   0.179   0.117
    1UNL     O2    7  -0.137   0.279   0.186
    1UNL     N1    8   0.004   0.146   0.071
    1UNL     C6    9   0.103   0.253   0.080
    1UNL     C7   10   0.251   0.207   0.108
    1UNL     C8   11   0.271   0.077   0.035
    1UNL     C9   12   0.168  -0.002  -0.020
    1UNL     N2   13   0.221  -0.110  -0.095
    1UNL    C10   14   0.357  -0.101  -0.080
    1UNL    C11   15   0.447  -0.190  -0.127
    1UNL    C12   16   0.584  -0.157  -0.108
    1UNL    C13   17   0.625  -0.053  -0.032
    1UNL    C14   18   0.532   0.034   0.021
    1UNL    C15   19   0.397   0.007   0.004
    1UNL    C16   20   0.018   0.032  -0.020
    1UNL    C17   21  -0.069  -0.089   0.010
    1UNL    C18   22  -0.214  -0.054   0.069
    1UNL    C19   23  -0.331  -0.111  -0.011
    1UNL    C20   24  -0.329  -0.065  -0.151
    1UNL     O3   25  -0.231  -0.068  -0.216
    1UNL     H1   26  -0.627  -0.097  -0.087
    1UNL     H2   27  -0.574  -0.242  -0.009
    1UNL     H3   28  -0.663  -0.131   0.078
    1UNL     H4   29  -0.468  -0.078   0.158
    1UNL     H5   30  -0.377   0.259   0.089
    1UNL     H6   31   0.079   0.324   0.157
    1UNL     H7   32   0.088   0.303  -0.012
    1UNL     H8   33   0.333   0.280   0.083
    1UNL     H9   34   0.268   0.201   0.209
    1UNL    H10   35   0.175  -0.191  -0.135
    1UNL    H11   36   0.416  -0.286  -0.164
    1UNL    H12   37   0.652  -0.236  -0.127
    1UNL    H13   38   0.730  -0.044  -0.019
    1UNL    H14   39   0.550   0.117   0.073
    1UNL    H15   40  -0.008   0.067  -0.116
    1UNL    H16   41  -0.078  -0.155  -0.081
    1UNL    H17   42  -0.012  -0.151   0.077
    1UNL    H18   43  -0.223  -0.097   0.173
    1UNL    H19   44  -0.330  -0.223   0.003
    1UNL    H20   45  -0.417  -0.046  -0.207
   0.00000   0.00000   0.00000   0.00000   0.00000   0.00000   0.00000   0.00000   0.00000
Generated with MDTraj, t= 96.0
 45
    1UNL     C1    1  -0.570  -0.140  -0.004
    1UNL     C2    2  -0.455  -0.062   0.057
    1UNL     O1    3  -0.480   0.082   0.060
    1UNL     C3    4  -0.369   0.146   0.101
    1UNL     C4    5  -0.238   0.101   0.101
    1UNL     C5    6  -0.129   0.188   0.113
    1UNL     O2    7  -0.132   0.297   0.168
    1UNL     N1    8  -0.002   0.150   0.060
    1UNL     C6    9   0.111   0.246   0.084
    1UNL     C7   10   0.244   0.184   0.117
    1UNL     C8   11   0.260   0.065   0.031
    1UNL     C9   12   0.164  -0.005  -0.038
    1UNL     N2   13   0.215  -0.106  -0.118
    1UNL    C10   14   0.352  -0.103  -0.098
    1UNL    C11   15   0.455  -0.191  -0.132
    1UNL    C12   16   0.579  -0.161  -0.089
    1UNL    C13   17   0.612  -0.045  -0.017
    1UNL    C14   18   0.514   0.040   0.033
    1UNL    C15   19   0.380   0.005  -0.008
    1UNL    C16   20   0.014   0.032  -0.035
    1UNL    C17   21  -0.071  -0.081   0.023
    1UNL    C18   22  -0.217  -0.046   0.078
    1UNL    C19   23  -0.324  -0.101  -0.016
    1UNL    C20   24  -0.304  -0.055  -0.161
    1UNL     O3   25  -0.217  -0.094  -0.233
    1UNL     H1   26  -0.558  -0.159  -0.110
    1UNL     H2   27  -0.571  -0.233   0.043
    1UNL     H3   28  -0.668  -0.099   0.011
    1UNL     H4   29  -0.461  -0.083   0.164
    1UNL     H5   30  -0.379   0.250   0.134
    1UNL     H6   31   0.078   0.324   0.151
    1UNL     H7   32   0.134   0.298  -0.006
    1UNL     H8   33   0.330   0.256   0.104
    1UNL     H9   34   0.264   0.160   0.213
    1UNL    H10   35   0.158  -0.182  -0.168
    1UNL    H11   36   0.441  -0.282  -0.189
    1UNL    H12   37   0.655  -0.238  -0.104
    1UNL    H13   38   0.713  -0.017   0.017
    1UNL    H14   39   0.537   0.133   0.091
    1UNL    H15   40  -0.015   0.052  -0.134
    1UNL    H16   41  -0.076  -0.162  -0.059
    1UNL    H17   42  -0.016  -0.127   0.101
    1UNL    H18   43  -0.218  -0.100   0.176
    1UNL    H19   44  -0.310  -0.213  -0.018
    1UNL    H20   45  -0.376   0.015  -0.202
   0.00000   0.00000   0.00000   0.00000   0.00000   0.00000   0.00000   0.00000   0.00000
Generated with MDTraj, t= 97.0
 45
    1UNL     C1    1  -0.559  -0.124  -0.055
    1UNL     C2    2  -0.457  -0.079   0.054
    1UNL     O1    3  -0.479   0.062   0.092
    1UNL     C3    4  -0.364   0.139   0.097
    1UNL     C4    5  -0.234   0.097   0.094
    1UNL     C5    6  -0.132   0.199   0.105
    1UNL     O2    7  -0.163   0.312   0.143
    1UNL     N1    8  -0.000   0.167   0.060
    1UNL     C6    9   0.113   0.264   0.080
    1UNL     C7   10   0.245   0.197   0.117
    1UNL     C8   11   0.266   0.070   0.038
    1UNL     C9   12   0.160   0.009  -0.034
    1UNL     N2   13   0.211  -0.091  -0.115
    1UNL    C10   14   0.344  -0.095  -0.093
    1UNL    C11   15   0.446  -0.178  -0.154
    1UNL    C12   16   0.576  -0.174  -0.111
    1UNL    C13   17   0.614  -0.082  -0.010
    1UNL    C14   18   0.523   0.001   0.043
    1UNL    C15   19   0.387   0.004  -0.003
    1UNL    C16   20   0.015   0.050  -0.022
    1UNL    C17   21  -0.062  -0.075   0.039
    1UNL    C18   22  -0.207  -0.047   0.094
    1UNL    C19   23  -0.316  -0.113   0.002
    1UNL    C20   24  -0.305  -0.078  -0.141
    1UNL     O3   25  -0.222  -0.101  -0.227
    1UNL     H1   26  -0.585  -0.045  -0.125
    1UNL     H2   27  -0.525  -0.208  -0.106
    1UNL     H3   28  -0.653  -0.153  -0.014
    1UNL     H4   29  -0.487  -0.134   0.147
    1UNL     H5   30  -0.379   0.241   0.099
    1UNL     H6   31   0.089   0.345   0.148
    1UNL     H7   32   0.115   0.316  -0.015
    1UNL     H8   33   0.336   0.261   0.098
    1UNL     H9   34   0.259   0.194   0.220
    1UNL    H10   35   0.163  -0.125  -0.208
    1UNL    H11   36   0.422  -0.243  -0.238
    1UNL    H12   37   0.658  -0.222  -0.162
    1UNL    H13   38   0.714  -0.086   0.024
    1UNL    H14   39   0.557   0.077   0.124
    1UNL    H15   40  -0.033   0.080  -0.114
    1UNL    H16   41  -0.060  -0.154  -0.047
    1UNL    H17   42   0.006  -0.107   0.111
    1UNL    H18   43  -0.204  -0.086   0.198
    1UNL    H19   44  -0.288  -0.222   0.004
    1UNL    H20   45  -0.379  -0.000  -0.174
   0.00000   0.00000   0.00000   0.00000   0.00000   0.00000   0.00000   0.00000   0.00000
Generated with MDTraj, t= 98.0
 45
    1UNL     C1    1  -0.562  -0.126  -0.039
    1UNL     C2    2  -0.443  -0.073   0.046
    1UNL     O1    3  -0.473   0.067   0.088
    1UNL     C3    4  -0.360   0.148   0.096
    1UNL     C4    5  -0.236   0.102   0.107
    1UNL     C5    6  -0.137   0.205   0.109
    1UNL     O2    7  -0.172   0.319   0.138
    1UNL     N1    8  -0.005   0.171   0.072
    1UNL     C6    9   0.111   0.261   0.091
    1UNL     C7   10   0.236   0.174   0.129
    1UNL     C8   11   0.258   0.069   0.021
    1UNL     C9   12   0.156   0.015  -0.045
    1UNL     N2   13   0.205  -0.090  -0.124
    1UNL    C10   14   0.341  -0.103  -0.101
    1UNL    C11   15   0.440  -0.187  -0.158
    1UNL    C12   16   0.565  -0.173  -0.106
    1UNL    C13   17   0.600  -0.074  -0.009
    1UNL    C14   18   0.509   0.016   0.029
    1UNL    C15   19   0.376  -0.002  -0.009
    1UNL    C16   20   0.012   0.047  -0.012
    1UNL    C17   21  -0.056  -0.078   0.050
    1UNL    C18   22  -0.202  -0.044   0.093
    1UNL    C19   23  -0.306  -0.109  -0.011
    1UNL    C20   24  -0.272  -0.071  -0.153
    1UNL     O3   25  -0.185  -0.119  -0.222
    1UNL     H1   26  -0.562  -0.088  -0.139
    1UNL     H2   27  -0.559  -0.233  -0.040
    1UNL     H3   28  -0.657  -0.099  -0.001
    1UNL     H4   29  -0.466  -0.130   0.142
    1UNL     H5   30  -0.391   0.254   0.102
    1UNL     H6   31   0.072   0.336   0.164
    1UNL     H7   32   0.138   0.317   0.001
    1UNL     H8   33   0.321   0.235   0.159
    1UNL     H9   34   0.220   0.115   0.224
    1UNL    H10   35   0.146  -0.172  -0.169
    1UNL    H11   36   0.411  -0.244  -0.244
    1UNL    H12   37   0.647  -0.236  -0.137
    1UNL    H13   38   0.708  -0.052   0.002
    1UNL    H14   39   0.525   0.086   0.098
    1UNL    H15   40  -0.035   0.062  -0.109
    1UNL    H16   41  -0.057  -0.150  -0.041
    1UNL    H17   42   0.007  -0.110   0.127
    1UNL    H18   43  -0.227  -0.096   0.186
    1UNL    H19   44  -0.299  -0.221  -0.016
    1UNL    H20   45  -0.312   0.020  -0.186
   0.00000   0.00000   0.00000   0.00000   0.00000   0.00000   0.00000   0.00000   0.00000
Generated with MDTraj, t= 99.0
 45
    1UNL     C1    1  -0.564  -0.148  -0.048
    1UNL     C2    2  -0.460  -0.077   0.049
    1UNL     O1    3  -0.480   0.069   0.038
    1UNL     C3    4  -0.366   0.146   0.056
    1UNL     C4    5  -0.241   0.108   0.090
    1UNL     C5    6  -0.132   0.202   0.123
    1UNL     O2    7  -0.145   0.306   0.188
    1UNL     N1    8  -0.001   0.167   0.077
    1UNL     C6    9   0.114   0.261   0.076
    1UNL     C7   10   0.240   0.182   0.114
    1UNL     C8   11   0.258   0.065   0.030
    1UNL     C9   12   0.152   0.006  -0.035
    1UNL     N2   13   0.205  -0.097  -0.111
    1UNL    C10   14   0.345  -0.102  -0.103
    1UNL    C11   15   0.445  -0.183  -0.158
    1UNL    C12   16   0.574  -0.170  -0.120
    1UNL    C13   17   0.610  -0.069  -0.029
    1UNL    C14   18   0.515   0.018   0.021
    1UNL    C15   19   0.379   0.000  -0.011
    1UNL    C16   20   0.012   0.042  -0.004
    1UNL    C17   21  -0.066  -0.076   0.061
    1UNL    C18   22  -0.212  -0.034   0.100
    1UNL    C19   23  -0.318  -0.103   0.002
    1UNL    C20   24  -0.285  -0.065  -0.143
    1UNL     O3   25  -0.183  -0.102  -0.190
    1UNL     H1   26  -0.553  -0.123  -0.149
    1UNL     H2   27  -0.552  -0.256  -0.039
    1UNL     H3   28  -0.664  -0.126  -0.029
    1UNL     H4   29  -0.473  -0.099   0.159
    1UNL     H5   30  -0.399   0.252   0.041
    1UNL     H6   31   0.108   0.338   0.157
    1UNL     H7   32   0.107   0.303  -0.026
    1UNL     H8   33   0.332   0.238   0.111
    1UNL     H9   34   0.226   0.153   0.228
    1UNL    H10   35   0.141  -0.148  -0.181
    1UNL    H11   36   0.408  -0.271  -0.211
    1UNL    H12   37   0.645  -0.240  -0.167
    1UNL    H13   38   0.706  -0.057   0.016
    1UNL    H14   39   0.548   0.096   0.090
    1UNL    H15   40  -0.033   0.063  -0.103
    1UNL    H16   41  -0.072  -0.160  -0.017
    1UNL    H17   42  -0.009  -0.093   0.150
    1UNL    H18   43  -0.231  -0.075   0.198
    1UNL    H19   44  -0.290  -0.211  -0.001
    1UNL    H20   45  -0.357  -0.007  -0.199
   0.00000   0.00000   0.00000   0.00000   0.00000   0.00000   0.00000   0.00000   0.00000
