[ moleculetype ]
; name        nrexcl
res           1

[ atoms ]
;    nr  type  resnr resid  atom  cgnr     charge       mass
      1 SC4       1 res   C1        1      0.000     54.000
      2 TN4a      1 res   C2        2      0.000     36.000
      3 TC5       1 res   C3        3      0.000     36.000
      4 TN6a      1 res   C4        4      0.000     36.000
      5 SN6d      1 res   C5        5      0.000     54.000
      6 TC3       1 res   C6        6      0.000     36.000
      7 TC5       1 res   C7        7      0.000     36.000
      8 TN6d      1 res   C8        8      0.000     36.000
      9 TC5       1 res   C9        9      0.000     36.000
     10 TC5       1 res   C10      10      0.000     36.000
     11 TC5       1 res   C11      11      0.000     36.000
     12 TN4a      1 res   C12      12      0.000     36.000

[ constraints ]
;  ai    aj   funct      b0(nm)
    1     2     1      0.31277
   10    11     1      0.29166
    3     5     1      0.22574
    2     3     1      0.25238
    4     5     1      0.31564
    7     9     1      0.18331
    5     7     1      0.24568
    9    11     1      0.25022
    3     4     1      0.27605
    7     8     1      0.21889
    1     3     1      0.31818
    5     6     1      0.35488
    9    10     1      0.25028
    6     7     1      0.24463
    8     9     1      0.21878

[ bonds ]
;  ai    aj   funct      b0(nm)          k(kJ/mol/nm^2)
    1    12     1      0.28476          18445.9

[ angles ]
;  ai    aj    ak  funct     th0(deg)        k(kJ/mol/rad^2)
    1     2     3     1     67.57045          2012.86
    1     3     2     1     65.29744          2256.14
    1     3     4     1    130.45071           388.00
    1     3     5     1    122.20195           563.31
    2     1     3     1     47.13199          4943.77
    2     1    12     1     74.75424           268.54
    2     3     4     1     67.39533          1381.08
    2     3     5     1    124.42283           355.41
    3     1    12     1     63.58334          2272.04
    3     4     5     1     44.20870          6835.38
    3     5     4     1     58.54230          2176.57
    3     5     6     1    112.86440           764.39
    3     5     7     1    153.63160           250.08
    4     3     5     1     77.24891          1834.57
    4     5     6     1     58.14057          2563.55
    4     5     7     1    100.74528          1415.16
    5     6     7     1     43.73814          3690.64
    5     7     6     1     92.75811          1305.72
    5     7     8     1     74.82954           652.92
    5     7     9     1    137.72966           699.64
    6     5     7     1     43.50404          3454.66
    6     7     8     1    161.77812           460.95
    6     7     9     1    128.01573          1148.73
    7     8     9     1     49.53291          5088.41
    7     9     8     1     65.26048          4288.68
    7     9    10     1    161.16149          1814.48
    7     9    11     1    126.81338          1687.23
    8     7     9     1     65.20667          4915.85
    8     9    10     1     96.42360          1425.14
    8     9    11     1    166.70237          1183.68
    9    10    11     1     54.34402         14979.15
    9    11    10     1     54.36753          9263.61
   10     9    11     1     71.28846          6739.16

[ dihedrals ]
;  ai    aj    ak    al  funct   phi0(deg)        k(kJ/mol)   mult
    1     2     3     4     1    -14.93423       14.933      1
    1     2     3     5     1    -67.94254       10.768      1
    1     3     4     5     1     57.05868       11.519      1
    1     3     5     4     1    -52.21127       12.175      1
    1     3     5     6     1    -29.02232       12.858      1
    1     3     5     7     1    -19.78227       21.966      1
    2     1     3     4     1    163.31655       17.642      1
    2     1     3     5     1     62.05576       12.184      1
    2     3     1    12     1    -82.59103       13.437      1
    2     3     4     5     1     40.04774       12.169      1
    2     3     5     4     1   -132.12632       10.777      1
    2     3     5     6     1   -108.78795       12.865      1
    2     3     5     7     1    -96.77233       20.570      1
    3     2     1    12     1    115.14908        9.923      1
    3     4     5     6     1     23.88635       12.203      1
    3     4     5     7     1     15.07382       14.350      1
    3     5     6     7     1     -9.16501       15.771      1
    3     5     7     6     1    163.53122       22.851      1
    3     5     7     8     1    -12.73613       24.369      1
    3     5     7     9     1    -28.38217       22.423      1
    4     3     1    12     1    -99.94503       14.987      1
    4     3     5     6     1   -158.08913       10.783      1
    4     3     5     7     1   -149.15878       22.553      1
    4     5     6     7     1     10.02732       16.452      1
    4     5     7     6     1   -171.06908       14.346      1
    4     5     7     8     1     13.87626       19.107      1
    4     5     7     9     1     -0.98577       17.141      1
    5     3     1    12     1    155.10733       12.889      1
    5     6     7     8     1   -159.43192       28.909      1
    5     6     7     9     1     11.19866       14.342      1
    5     7     8     9     1     12.98006       10.027      1
    5     7     9     8     1   -161.93772       13.659      1
    5     7     9    10     1   -163.94231       23.900      1
    5     7     9    11     1     17.68344       13.628      1
    6     5     7     8     1      3.09343       18.396      1
    6     5     7     9     1    -12.72299       17.079      1
    6     7     8     9     1     -5.62027       29.469      1
    6     7     9     8     1      1.94067       20.337      1
    6     7     9    10     1      3.16440       24.500      1
    6     7     9    11     1   -179.07597       22.219      1
    7     8     9    10     1     -0.92023       10.001      1
    7     8     9    11     1      4.84466       27.297      1
    7     9    10    11     1     -0.35944       21.491      1
    7     9    11    10     1      0.96760       11.450      1
    8     7     9    10     1    178.03132       21.669      1
    8     7     9    11     1     -1.26314       12.881      1
    8     9    10    11     1     -1.94150       10.724      1
    8     9    11    10     1    174.91099       27.519      1
