1TPCN06299
33
    1res  C1    1   -1.429   0.034   0.034
    1res  C2    2   -1.126   0.123   0.094
    1res  C3    3   -0.905   0.120   0.068
    1res  C4    4   -0.950   0.098  -0.193
    1res  C5    5   -0.852  -0.019  -0.466
    1res  C6    6   -0.683  -0.043   0.071
    1res  C7    7   -0.728   0.265   0.239
    1res  C8    8   -0.915  -0.186   0.137
    1res  C9    9   -0.458   0.000  -0.143
    1res  C10   10   -0.369  -0.204   0.084
    1res  C11   11   -0.191   0.067  -0.109
    1res  C12   12   -0.025  -0.186   0.063
    1res  C13   13    0.122  -0.091  -0.139
    1res  C14   14    0.285  -0.121   0.061
    1res  C15   15    0.491  -0.097   0.287
    1res  C16   16    0.508  -0.292   0.442
    1res  C17   17    0.757  -0.021   0.359
    1res  C18   18    0.725  -0.008   0.123
    1res  C19   19    0.982   0.056   0.178
    1res  C20   20    1.170  -0.127   0.152
    1res  C21   21    1.168  -0.033  -0.035
    1res  C22   22    1.299   0.098  -0.168
    1res  C23   23    1.432   0.320  -0.307
    1res  C24   24    1.595   0.145  -0.254
    1res  C25   25    1.546  -0.096  -0.292
    1res  C26   26    1.446  -0.042  -0.064
    1res  C27   27    0.999   0.088  -0.098
    1res  C28   28    0.633  -0.199   0.054
    1res  C29   29    0.143  -0.136   0.287
    1res  C30   30    0.209   0.126   0.229
    1res  C31   31   -0.175   0.072   0.201
    1res  C32   32   -0.436   0.254  -0.002
    1res  C33   33   -0.636   0.295  -0.107
  10.00000  10.00000  10.00000
