[ moleculetype ]
; name        nrexcl
res           1

[ atoms ]
;    nr  type resnr resid  atom  cgnr     charge       mass
      1 SC4       1 res   C1        1      0.000     54.000
      2 TC3       1 res   C2        2      0.000     36.000
      3 SC5       1 res   C3        3      0.000     54.000
      4 SN4a      1 res   C4        4      0.000     54.000
      5 SN4a      1 res   C5        5      0.000     54.000
      6 TN3r      1 res   C6        6      0.000     36.000
      7 SN4a      1 res   C7        7      0.000     54.000
      8 TP1       1 res   C8        8      0.000     36.000
      9 TN6       1 res   C9        9      0.000     36.000
     10 TN6       1 res   C10      10      0.000     36.000
     11 TN6       1 res   C11      11      0.000     36.000
     12 TN6       1 res   C12      12      0.000     36.000
     13 TN6       1 res   C13      13      0.000     36.000
     14 TN6       1 res   C14      14      0.000     36.000
     15 TC3       1 res   C15      15      0.000     36.000
     16 SC4       1 res   C16      16      0.000     54.000
     17 TC3       1 res   C17      17      0.000     36.000
     18 SC4       1 res   C18      18      0.000     54.000
     19 SC4       1 res   C19      19      0.000     54.000
     20 SN6       1 res   C20      20      0.000     54.000
     21 TN6       1 res   C21      21      0.000     36.000
     22 SN4a      1 res   C22      22      0.000     54.000
     23 TP1       1 res   C23      23      0.000     36.000
     24 TN6       1 res   C24      24      0.000     36.000
     25 TN6       1 res   C25      25      0.000     36.000
     26 SN4a      1 res   C26      26      0.000     54.000
     27 TP1       1 res   C27      27      0.000     36.000
     28 TN6       1 res   C28      28      0.000     36.000
     29 TN6       1 res   C29      29      0.000     36.000
     30 TN6       1 res   C30      30      0.000     36.000
     31 TN6       1 res   C31      31      0.000     36.000
     32 TC4       1 res   C32      32      0.000     36.000
     33 TP1       1 res   C33      33      0.000     36.000
     34 TC3       1 res   C34      34      0.000     36.000

[ bonds ]
;  ai    aj   funct      b0(nm)        k
    1     2     1      0.30191    20000
    1     3     1      0.28566    20000
    2     3     1      0.28239    20000
    3     4     1      0.29804    20000
    3    15     1      0.36207    20000
    3    16     1      0.34308    20000
    4     5     1      0.32019    20000
    5     6     1      0.29571    20000
    5    12     1      0.28560    20000
    5    14     1      0.24807    20000
    6     7     1      0.35433    20000
    7     8     1      0.24599    20000
    7     9     1      0.28508    20000
    7    11     1      0.30028    20000
    9    10     1      0.24450    20000
   10    11     1      0.26142    20000
   12    13     1      0.23975    20000
   13    14     1      0.23530    20000
   15    16     1      0.31535    20000
   16    17     1      0.33913    20000
   16    18     1      0.26865    20000
   17    18     1      0.38099    20000
   18    19     1      0.34383    20000
   18    34     1      0.30002    20000
   19    20     1      0.29671    20000
   19    32     1      0.29039    20000
   19    34     1      0.32060    20000
   20    21     1      0.26460    20000
   21    22     1      0.26541    20000
   21    32     1      0.26428    20000
   22    23     1      0.30729    20000
   22    24     1      0.28719    20000
   22    31     1      0.26671    20000
   24    25     1      0.20949    20000
   25    26     1      0.27251    20000
   25    31     1      0.24395    20000
   26    27     1      0.23902    20000
   26    28     1      0.27990    20000
   26    30     1      0.28781    20000
   28    29     1      0.26434    20000
   29    30     1      0.21155    20000
   32    33     1      0.28541    20000
