[ moleculetype ]
; name        nrexcl
res           1

[ atoms ]
;    nr  type  resnr resid  atom  cgnr     charge       mass
      1 SC2       1 res   C1        1      0.000     54.000
      2 TP1       1 res   C2        2      0.000     36.000
      3 SC2       1 res   C3        3      0.000     54.000
      4 N3r       1 res   C4        4      0.000     72.000
      5 SN4a      1 res   C5        5      0.000     54.000
      6 TP1       1 res   C6        6      0.000     36.000
      7 SP4       1 res   C7        7      0.000     54.000
      8 TN6       1 res   C8        8      0.000     36.000

[ constraints ]
;  ai    aj   funct      b0(nm)
    1     2     1      0.33358
    5     7     1      0.27199
    7     8     1      0.23433
    5     6     1      0.28975
    1     3     1      0.33866
    5     8     1      0.24644

[ bonds ]
;  ai    aj   funct      b0(nm)          k(kJ/mol/nm^2)
    4     5     1      0.34599           5412.2
    3     4     1      0.31985           9645.8

[ angles ]
;  ai    aj    ak  funct     th0(deg)        k(kJ/mol/rad^2)
    1     3     4     1    140.80897            82.56
    2     1     3     1     91.44530           421.82
    3     4     5     1    107.60949            37.74
    4     5     6     1    128.54134           159.35
    4     5     7     1    136.02874            84.73
    4     5     8     1    109.96610           199.38
    5     7     8     1     57.69767          1264.50
    5     8     7     1     68.86453          1463.58
    6     5     7     1     80.79122          1244.48
    6     5     8     1    120.11252           338.21
    7     5     8     1     53.43799          2023.80

[ dihedrals ]
;  ai    aj    ak    al  funct   phi0(deg)        k(kJ/mol)   mult
    1     3     4     5     1     12.88024       28.160      1
    2     1     3     4     1    -18.88064       27.547      1
    3     4     5     6     1    115.17378       29.600      1
    3     4     5     7     1   -124.74197       28.497      1
    3     4     5     8     1    -67.82187       28.261      1
    4     5     7     8     1   -103.09646       21.783      1
    4     5     8     7     1     45.79416       20.256      1
    6     5     7     8     1     39.09757       11.524      1
    6     5     8     7     1   -134.02186       10.757      1
