[ moleculetype ]
; name        nrexcl
res           1

[ atoms ]
;    nr  type  resnr resid  atom  cgnr     charge       mass
      1 TC5       1 res   C1        1      0.000     36.000
      2 SN3r      1 res   C2        2      0.000     54.000
      3 SC2       1 res   C3        3      0.000     54.000
      4 TC3       1 res   C4        4      0.000     36.000
      5 SP2       1 res   C5        5      0.000     54.000
      6 TN4a      1 res   C6        6      0.000     36.000
      7 TC3       1 res   C7        7      0.000     36.000
      8 TP1       1 res   C8        8      0.000     36.000
      9 SN3r      1 res   C9        9      0.000     54.000
     10 TC5       1 res   C10      10      0.000     36.000
     11 SC2       1 res   C11      11      0.000     54.000
     12 TC3       1 res   C12      12      0.000     36.000
     13 SP2       1 res   C13      13      0.000     54.000
     14 SP4       1 res   C14      14      0.000     54.000

[ constraints ]
;  ai    aj   funct      b0(nm)
    1     2     1      0.28852
    4     5     1      0.30264
    7     9     1      0.37722
    9    11     1      0.26916
    6    14     1      0.26791
    7     8     1      0.26591
    7    14     1      0.29727
   12    13     1      0.32262
    6     7     1      0.21867

[ bonds ]
;  ai    aj   funct      b0(nm)          k(kJ/mol/nm^2)
    2     3     1      0.27793           8275.5
   11    12     1      0.29384          12663.6
    2     6     1      0.27864          14139.3
    3     4     1      0.31284           5929.5
    9    10     1      0.29080           9003.9

[ angles ]
;  ai    aj    ak  funct     th0(deg)        k(kJ/mol/rad^2)
    1     2     3     1     91.04111           111.39
    1     2     6     1     81.31132           251.27
    2     3     4     1    112.39541            27.66
    2     6     7     1    130.90740           179.73
    2     6    14     1     93.96119            52.94
    3     2     6     1    101.85506           164.84
    3     4     5     1     97.62590           751.76
    6     7     8     1     90.64681           695.87
    6     7     9     1    151.34299           227.05
    6     7    14     1     60.27775           672.82
    6    14     7     1     45.06775          1466.91
    7     6    14     1     74.65264           411.16
    7     9    10     1     76.91992           143.97
    7     9    11     1     60.49781           340.63
    8     7     9     1     99.87950           200.12
    8     7    14     1     84.86993           135.98
    9     7    14     1     95.29302           222.20
    9    11    12     1    124.88139            18.61
   10     9    11     1     97.13745           109.95
   11    12    13     1     90.31674          1100.57

[ dihedrals ]
;  ai    aj    ak    al  funct   phi0(deg)        k(kJ/mol)   mult
    1     2     3     4     1     37.68836       19.180      1
    1     2     6     7     1    -85.59219       13.618      1
    1     2     6    14     1      1.76069       20.334      1
    2     3     4     5     1    155.05582       21.262      1
    2     6     7     8     1    179.05438       22.863      1
    2     6     7     9     1    -67.30626       26.432      1
    2     6     7    14     1    -91.86899       20.361      1
    2     6    14     7     1     45.00065       12.960      1
    3     2     6     7     1      6.03644       15.062      1
    3     2     6    14     1     85.60681       17.191      1
    4     3     2     6     1    -36.61134       17.766      1
    6     7     9    10     1   -140.25908       22.481      1
    6     7     9    11     1    -35.22299       21.562      1
    6    14     7     8     1    -89.38853        8.499      1
    6    14     7     9     1     11.78205       14.946      1
    7     9    11    12     1     13.88225       28.260      1
    8     7     6    14     1     88.76862       13.452      1
    8     7     9    10     1    -27.23848       17.084      1
    8     7     9    11     1     76.35480       20.972      1
    9     7     6    14     1   -150.50316       24.043      1
    9    11    12    13     1    118.77257       22.258      1
   10     9     7    14     1   -111.56428       17.729      1
   10     9    11    12     1     84.82623       25.665      1
   11     9     7    14     1     -7.35903       19.674      1
