1TPCN04743
12
    1res  C1    1    0.193  -0.185  -0.139
    1res  C2    2    0.131   0.001   0.174
    1res  C3    3    0.479  -0.031   0.094
    1res  C4    4    0.773  -0.071   0.005
    1res  C5    5    0.884   0.201  -0.032
    1res  C6    6    0.037   0.170  -0.045
    1res  C7    7   -0.126  -0.064  -0.102
    1res  C8    8   -0.366  -0.048  -0.255
    1res  C9    9   -0.379  -0.244   0.056
    1res  C10   10   -0.359   0.149   0.064
    1res  C11   11   -0.668  -0.037  -0.043
    1res  C12   12   -0.693   0.257  -0.024
  10.00000  10.00000  10.00000
