[ moleculetype ]
; name        nrexcl
res           1

[ atoms ]
;    nr  type resnr resid  atom  cgnr     charge       mass
      1 SC4       1 res   C1        1      0.000     54.000
      2 SC3       1 res   C2        2      0.000     54.000
      3 SC4       1 res   C3        3      0.000     54.000
      4 SN6       1 res   C4        4      0.000     54.000
      5 SN4a      1 res   C5        5      0.000     54.000
      6 TN6       1 res   C6        6      0.000     36.000
      7 TN6       1 res   C7        7      0.000     36.000
      8 TN6       1 res   C8        8      0.000     36.000
      9 SC4       1 res   C9        9      0.000     54.000
     10 SC3       1 res   C10      10      0.000     54.000
     11 SP1       1 res   C11      11      0.000     54.000
     12 SC4       1 res   C12      12      0.000     54.000
     13 SN4a      1 res   C13      13      0.000     54.000
     14 TC4       1 res   C14      14      0.000     36.000
     15 P2        1 res   C15      15      0.000     72.000

[ bonds ]
;  ai    aj   funct      b0(nm)        k
    1     2     1      0.35032    20000
    2     3     1      0.26237    20000
    2    14     1      0.36184    20000
    3     4     1      0.30048    20000
    3     9     1      0.26963    20000
    3    14     1      0.39276    20000
    4     5     1      0.29029    20000
    4     9     1      0.37446    20000
    5     6     1      0.28279    20000
    5     8     1      0.28362    20000
    6     7     1      0.21928    20000
    7     8     1      0.21116    20000
    9    10     1      0.26125    20000
   10    11     1      0.37820    20000
   11    12     1      0.28347    20000
   12    13     1      0.38032    20000
   14    15     1      0.29185    20000
