[ moleculetype ]
; name        nrexcl
res           1

[ atoms ]
;    nr  type  resnr resid  atom  cgnr     charge       mass
      1 SN6a      1 res   C1        1      0.000     54.000
      2 TC6       1 res   C2        2      0.000     36.000
      3 SN6a      1 res   C3        3      0.000     54.000

[ constraints ]
;  ai    aj   funct      b0(nm)
    1     2     1      0.34058
    1     3     1      0.29697
    2     3     1      0.34046

[ bonds ]
;  ai    aj   funct      b0(nm)          k(kJ/mol/nm^2)

[ angles ]
;  ai    aj    ak  funct     th0(deg)        k(kJ/mol/rad^2)
    1     2     3     1     51.70842          3844.70
    1     3     2     1     64.16723          7038.59
    2     1     3     1     64.12428          6898.73

[ dihedrals ]
;  ai    aj    ak    al  funct   phi0(deg)        k(kJ/mol)   mult
