1TPCN05068
30
    1res  C1    1    0.900   0.407  -0.065
    1res  C2    2    0.666   0.249   0.163
    1res  C3    3    0.724  -0.169  -0.002
    1res  C4    4    0.470  -0.189   0.228
    1res  C5    5    0.487  -0.315  -0.050
    1res  C6    6    0.444   0.047  -0.199
    1res  C7    7    0.292  -0.183  -0.187
    1res  C8    8    0.089   0.023  -0.268
    1res  C9    9   -0.004   0.095   0.019
    1res  C10   10   -0.230   0.038  -0.055
    1res  C11   11   -0.458   0.155  -0.050
    1res  C12   12   -0.492   0.449   0.103
    1res  C13   13   -0.688   0.219   0.058
    1res  C14   14   -0.822   0.366   0.110
    1res  C15   15   -0.886   0.565   0.253
    1res  C16   16   -1.077   0.626   0.061
    1res  C17   17   -0.997   0.476  -0.110
    1res  C18   18   -1.054   0.290   0.047
    1res  C19   19   -0.744   0.017  -0.012
    1res  C20   20   -0.538  -0.078   0.046
    1res  C21   21   -0.528  -0.338  -0.023
    1res  C22   22   -0.498  -0.504  -0.265
    1res  C23   23   -0.650  -0.590  -0.008
    1res  C24   24   -0.698  -0.490   0.206
    1res  C25   25   -0.653  -0.282   0.193
    1res  C26   26   -0.216  -0.117  -0.251
    1res  C27   27    0.094  -0.269  -0.030
    1res  C28   28    0.996  -0.237  -0.024
    1res  C29   29    0.964  -0.028   0.156
    1res  C30   30    0.793  -0.108   0.316
  10.00000  10.00000  10.00000
