[ moleculetype ]
; name        nrexcl
res           1

[ atoms ]
;    nr  type  resnr resid  atom  cgnr     charge       mass
      1 TN4a      1 res   C1        1      0.000     36.000
      2 TN6a      1 res   C2        2      0.000     36.000
      3 TN6a      1 res   C3        3      0.000     36.000
      4 TN6a      1 res   C4        4      0.000     36.000
      5 P4        1 res   C5        5      0.000     72.000

[ bonds ]
;  ai    aj   funct      b0(nm)          k(kJ/mol/nm^2)
    1     2     1      0.26629         120836.3
    1     4     1      0.22869         112954.3
    1     5     1      0.24057          66183.7
    2     3     1      0.21909         119927.6
    3     4     1      0.21929         110948.7

[ angles ]
;  ai    aj    ak  funct     th0(deg)        k(kJ/mol/rad^2)
    1     2     3     1     76.62648          2220.07
    1     4     3     1     85.16722          1368.94
    2     1     4     1     89.39604          2834.03
    2     1     5     1    132.43177           453.63
    2     3     4     1    105.62196          1629.67
    4     1     5     1     77.96180          1015.84

[ dihedrals ]
;  ai    aj    ak    al  funct   phi0(deg)        k(kJ/mol)   mult
    1     2     3     4     1    171.05961       17.141      1
    1     2     3     4     1    162.12393       15.804      2
    1     2     3     4     1    153.19924       13.716      3
    1     4     3     2     1   -170.80574       17.787      1
    1     4     3     2     1   -161.57541       16.083      2
    1     4     3     2     1   -152.25307       13.455      3
    2     1     4     3     1    173.80593       15.105      1
    2     1     4     3     1    167.63193       14.185      2
    2     1     4     3     1    161.50169       12.729      3
    3     2     1     4     1   -172.00723       16.470      1
    3     2     1     4     1   -164.01432       15.298      2
    3     2     1     4     1   -156.02099       13.456      3
    3     2     1     5     1    -98.83048       12.938      1
    3     2     1     5     1    -17.71098       12.339      2
    3     2     1     5     1     63.30220       11.384      3
    3     4     1     5     1     39.05228       18.469      1
    3     4     1     5     1   -101.93711       16.672      2
    3     4     1     5     1    116.97826       13.929      3
