1TPCN04062
33
    1res  C1    1    0.326  -0.392   0.070
    1res  C2    2    0.458  -0.241  -0.140
    1res  C3    3    0.334  -0.190  -0.293
    1res  C4    4    0.407   0.072  -0.253
    1res  C5    5    0.631   0.096  -0.081
    1res  C6    6    0.853   0.038   0.101
    1res  C7    7    1.115   0.055   0.179
    1res  C8    8    1.382  -0.061   0.100
    1res  C9    9    1.335   0.151   0.298
    1res  C10   10    1.273   0.343   0.175
    1res  C11   11    1.057   0.327   0.127
    1res  C12   12    0.862  -0.070  -0.194
    1res  C13   13    0.855   0.114  -0.314
    1res  C14   14    0.653   0.186  -0.364
    1res  C15   15    0.096  -0.078  -0.386
    1res  C16   16    0.092   0.055  -0.151
    1res  C17   17    0.089  -0.044   0.122
    1res  C18   18   -0.151  -0.075  -0.071
    1res  C19   19   -0.245   0.174   0.176
    1res  C20   20   -0.356  -0.086   0.237
    1res  C21   21   -0.576  -0.030   0.120
    1res  C22   22   -0.707  -0.142   0.292
    1res  C23   23   -0.734  -0.192   0.605
    1res  C24   24   -0.926  -0.029   0.443
    1res  C25   25   -1.003  -0.239   0.307
    1res  C26   26   -0.894  -0.133   0.115
    1res  C27   27   -0.877   0.034  -0.142
    1res  C28   28   -0.935   0.288  -0.328
    1res  C29   29   -0.973  -0.013  -0.391
    1res  C30   30   -1.147  -0.095  -0.256
    1res  C31   31   -1.107  -0.091  -0.034
    1res  C32   32   -0.569   0.214   0.090
    1res  C33   33   -0.291   0.106  -0.182
  10.00000  10.00000  10.00000
