Generated with MDTraj, t= 0.0
 50
    1UNL     C1    1   0.038   0.448   0.128
    1UNL     O1    2  -0.006   0.326   0.077
    1UNL     C2    3   0.086   0.228   0.104
    1UNL     O2    4   0.191   0.250   0.163
    1UNL     C3    5   0.055   0.093   0.059
    1UNL     C4    6  -0.063   0.062  -0.001
    1UNL     N1    7  -0.179   0.138  -0.002
    1UNL     C5    8  -0.293   0.056  -0.012
    1UNL     C6    9  -0.428   0.091   0.002
    1UNL     O3   10  -0.462   0.223   0.024
    1UNL     C7   11  -0.522  -0.012  -0.006
    1UNL     C8   12  -0.483  -0.143  -0.027
    1UNL     C9   13  -0.349  -0.177  -0.039
    1UNL    C10   14  -0.254  -0.077  -0.030
    1UNL    C11   15  -0.103  -0.079  -0.045
    1UNL    C12   16  -0.063  -0.104  -0.193
    1UNL    C13   17   0.013  -0.236  -0.197
    1UNL     N2   18   0.064  -0.261  -0.059
    1UNL    C14   19   0.208  -0.226  -0.040
    1UNL    C15   20   0.230  -0.075  -0.018
    1UNL    C16   21   0.381  -0.044  -0.003
    1UNL    C17   22   0.409   0.105  -0.001
    1UNL     O4   23   0.454  -0.109  -0.106
    1UNL    C18   24   0.144  -0.021   0.101
    1UNL    C19   25   0.050  -0.132   0.157
    1UNL    C20   26  -0.029  -0.191   0.039
    1UNL     H1   27  -0.036   0.525   0.105
    1UNL     H2   28   0.134   0.472   0.083
    1UNL     H3   29   0.050   0.439   0.236
    1UNL     H4   30  -0.184   0.230   0.041
    1UNL     H5   31  -0.560   0.232   0.032
    1UNL     H6   32  -0.626   0.012   0.004
    1UNL     H7   33  -0.558  -0.220  -0.033
    1UNL     H8   34  -0.319  -0.279  -0.056
    1UNL     H9   35  -0.152  -0.106  -0.257
    1UNL    H10   36  -0.001  -0.021  -0.229
    1UNL    H11   37  -0.052  -0.319  -0.225
    1UNL    H12   38   0.096  -0.234  -0.269
    1UNL    H13   39   0.265  -0.261  -0.126
    1UNL    H14   40   0.246  -0.282   0.045
    1UNL    H15   41   0.197  -0.023  -0.109
    1UNL    H16   42   0.414  -0.090   0.092
    1UNL    H17   43   0.357   0.156   0.080
    1UNL    H18   44   0.377   0.151  -0.094
    1UNL    H19   45   0.516   0.125   0.010
    1UNL    H20   46   0.550  -0.087  -0.100
    1UNL    H21   47   0.211   0.013   0.181
    1UNL    H22   48  -0.019  -0.090   0.231
    1UNL    H23   49   0.107  -0.210   0.208
    1UNL    H24   50  -0.102  -0.265   0.074
   0.00000   0.00000   0.00000   0.00000   0.00000   0.00000   0.00000   0.00000   0.00000
Generated with MDTraj, t= 1.0
 50
    1UNL     C1    1   0.012   0.436   0.174
    1UNL     O1    2  -0.009   0.323   0.092
    1UNL     C2    3   0.085   0.227   0.118
    1UNL     O2    4   0.183   0.245   0.190
    1UNL     C3    5   0.064   0.100   0.049
    1UNL     C4    6  -0.057   0.073  -0.015
    1UNL     N1    7  -0.180   0.141  -0.013
    1UNL     C5    8  -0.288   0.063  -0.020
    1UNL     C6    9  -0.429   0.094   0.001
    1UNL     O3   10  -0.458   0.228   0.005
    1UNL     C7   11  -0.519  -0.008  -0.009
    1UNL     C8   12  -0.480  -0.142  -0.019
    1UNL     C9   13  -0.345  -0.172  -0.031
    1UNL    C10   14  -0.247  -0.069  -0.037
    1UNL    C11   15  -0.096  -0.079  -0.049
    1UNL    C12   16  -0.044  -0.116  -0.194
    1UNL    C13   17   0.020  -0.256  -0.183
    1UNL     N2   18   0.061  -0.265  -0.036
    1UNL    C14   19   0.206  -0.230  -0.026
    1UNL    C15   20   0.230  -0.078  -0.029
    1UNL    C16   21   0.375  -0.036  -0.024
    1UNL    C17   22   0.394   0.115  -0.057
    1UNL     O4   23   0.451  -0.127  -0.103
    1UNL    C18   24   0.151  -0.017   0.094
    1UNL    C19   25   0.051  -0.121   0.154
    1UNL    C20   26  -0.030  -0.182   0.041
    1UNL     H1   27   0.068   0.505   0.114
    1UNL     H2   28   0.081   0.404   0.250
    1UNL     H3   29  -0.073   0.482   0.223
    1UNL     H4   30  -0.183   0.230   0.032
    1UNL     H5   31  -0.555   0.240  -0.026
    1UNL     H6   32  -0.626   0.012  -0.012
    1UNL     H7   33  -0.548  -0.224  -0.046
    1UNL     H8   34  -0.301  -0.273  -0.027
    1UNL     H9   35  -0.133  -0.110  -0.253
    1UNL    H10   36   0.025  -0.029  -0.234
    1UNL    H11   37  -0.056  -0.331  -0.222
    1UNL    H12   38   0.103  -0.263  -0.247
    1UNL    H13   39   0.256  -0.282  -0.108
    1UNL    H14   40   0.236  -0.287   0.062
    1UNL    H15   41   0.193  -0.050  -0.128
    1UNL    H16   42   0.412  -0.066   0.080
    1UNL    H17   43   0.474   0.125  -0.122
    1UNL    H18   44   0.400   0.188   0.026
    1UNL    H19   45   0.301   0.135  -0.114
    1UNL    H20   46   0.543  -0.117  -0.097
    1UNL    H21   47   0.241   0.018   0.145
    1UNL    H22   48  -0.025  -0.080   0.217
    1UNL    H23   49   0.103  -0.194   0.217
    1UNL    H24   50  -0.111  -0.241   0.087
   0.00000   0.00000   0.00000   0.00000   0.00000   0.00000   0.00000   0.00000   0.00000
Generated with MDTraj, t= 2.0
 50
    1UNL     C1    1  -0.000   0.432   0.184
    1UNL     O1    2  -0.021   0.314   0.115
    1UNL     C2    3   0.085   0.233   0.120
    1UNL     O2    4   0.190   0.260   0.177
    1UNL     C3    5   0.062   0.097   0.064
    1UNL     C4    6  -0.051   0.068  -0.010
    1UNL     N1    7  -0.173   0.143  -0.025
    1UNL     C5    8  -0.288   0.058  -0.021
    1UNL     C6    9  -0.420   0.101  -0.023
    1UNL     O3   10  -0.447   0.234  -0.004
    1UNL     C7   11  -0.523   0.003  -0.023
    1UNL     C8   12  -0.483  -0.136  -0.025
    1UNL     C9   13  -0.352  -0.178  -0.026
    1UNL    C10   14  -0.254  -0.079  -0.024
    1UNL    C11   15  -0.095  -0.079  -0.045
    1UNL    C12   16  -0.053  -0.128  -0.188
    1UNL    C13   17   0.021  -0.260  -0.175
    1UNL     N2   18   0.068  -0.270  -0.039
    1UNL    C14   19   0.212  -0.224  -0.035
    1UNL    C15   20   0.225  -0.074  -0.015
    1UNL    C16   21   0.374  -0.034  -0.033
    1UNL    C17   22   0.400   0.114  -0.060
    1UNL     O4   23   0.442  -0.122  -0.125
    1UNL    C18   24   0.148  -0.015   0.098
    1UNL    C19   25   0.061  -0.131   0.165
    1UNL    C20   26  -0.027  -0.192   0.051
    1UNL     H1   27   0.089   0.417   0.244
    1UNL     H2   28  -0.083   0.452   0.252
    1UNL     H3   29   0.010   0.519   0.119
    1UNL     H4   30  -0.188   0.243  -0.008
    1UNL     H5   31  -0.541   0.265  -0.027
    1UNL     H6   32  -0.622   0.035  -0.048
    1UNL     H7   33  -0.560  -0.208  -0.011
    1UNL     H8   34  -0.326  -0.278  -0.039
    1UNL     H9   35  -0.138  -0.130  -0.253
    1UNL    H10   36   0.014  -0.040  -0.230
    1UNL    H11   37  -0.051  -0.349  -0.187
    1UNL    H12   38   0.086  -0.264  -0.257
    1UNL    H13   39   0.277  -0.267  -0.113
    1UNL    H14   40   0.250  -0.271   0.056
    1UNL    H15   41   0.162  -0.040  -0.098
    1UNL    H16   42   0.429  -0.050   0.069
    1UNL    H17   43   0.315   0.168  -0.089
    1UNL    H18   44   0.457   0.116  -0.153
    1UNL    H19   45   0.454   0.170   0.020
    1UNL    H20   46   0.535  -0.097  -0.116
    1UNL    H21   47   0.212   0.015   0.182
    1UNL    H22   48   0.006  -0.091   0.243
    1UNL    H23   49   0.103  -0.220   0.220
    1UNL    H24   50  -0.098  -0.270   0.082
   0.00000   0.00000   0.00000   0.00000   0.00000   0.00000   0.00000   0.00000   0.00000
Generated with MDTraj, t= 3.0
 50
    1UNL     C1    1   0.017   0.439   0.175
    1UNL     O1    2  -0.016   0.315   0.117
    1UNL     C2    3   0.091   0.231   0.112
    1UNL     O2    4   0.204   0.265   0.145
    1UNL     C3    5   0.059   0.089   0.067
    1UNL     C4    6  -0.063   0.060   0.005
    1UNL     N1    7  -0.172   0.139  -0.011
    1UNL     C5    8  -0.293   0.055  -0.008
    1UNL     C6    9  -0.427   0.095  -0.011
    1UNL     O3   10  -0.449   0.229  -0.033
    1UNL     C7   11  -0.526  -0.006  -0.027
    1UNL     C8   12  -0.493  -0.138  -0.032
    1UNL     C9   13  -0.352  -0.172  -0.031
    1UNL    C10   14  -0.256  -0.076  -0.019
    1UNL    C11   15  -0.104  -0.085  -0.035
    1UNL    C12   16  -0.066  -0.116  -0.181
    1UNL    C13   17   0.008  -0.248  -0.180
    1UNL     N2   18   0.067  -0.269  -0.038
    1UNL    C14   19   0.211  -0.238  -0.033
    1UNL    C15   20   0.233  -0.085  -0.022
    1UNL    C16   21   0.381  -0.041  -0.030
    1UNL    C17   22   0.396   0.109  -0.012
    1UNL     O4   23   0.450  -0.084  -0.141
    1UNL    C18   24   0.157  -0.020   0.101
    1UNL    C19   25   0.062  -0.130   0.162
    1UNL    C20   26  -0.027  -0.198   0.054
    1UNL     H1   27  -0.046   0.454   0.264
    1UNL     H2   28  -0.005   0.519   0.100
    1UNL     H3   29   0.122   0.453   0.207
    1UNL     H4   30  -0.167   0.235   0.029
    1UNL     H5   31  -0.542   0.247  -0.065
    1UNL     H6   32  -0.634   0.016  -0.032
    1UNL     H7   33  -0.574  -0.210  -0.049
    1UNL     H8   34  -0.319  -0.278  -0.025
    1UNL     H9   35  -0.151  -0.112  -0.253
    1UNL    H10   36  -0.003  -0.026  -0.206
    1UNL    H11   37  -0.077  -0.320  -0.203
    1UNL    H12   38   0.078  -0.255  -0.258
    1UNL    H13   39   0.263  -0.292  -0.115
    1UNL    H14   40   0.260  -0.281   0.055
    1UNL    H15   41   0.189  -0.024  -0.102
    1UNL    H16   42   0.424  -0.091   0.066
    1UNL    H17   43   0.459   0.147   0.069
    1UNL    H18   44   0.296   0.147  -0.004
    1UNL    H19   45   0.438   0.161  -0.097
    1UNL    H20   46   0.549  -0.054  -0.154
    1UNL    H21   47   0.232   0.021   0.171
    1UNL    H22   48  -0.005  -0.100   0.235
    1UNL    H23   49   0.115  -0.206   0.226
    1UNL    H24   50  -0.100  -0.271   0.095
   0.00000   0.00000   0.00000   0.00000   0.00000   0.00000   0.00000   0.00000   0.00000
Generated with MDTraj, t= 4.0
 50
    1UNL     C1    1   0.041   0.451   0.142
    1UNL     O1    2  -0.012   0.330   0.097
    1UNL     C2    3   0.086   0.229   0.112
    1UNL     O2    4   0.199   0.249   0.157
    1UNL     C3    5   0.050   0.090   0.075
    1UNL     C4    6  -0.070   0.062   0.007
    1UNL     N1    7  -0.186   0.134  -0.011
    1UNL     C5    8  -0.293   0.052  -0.016
    1UNL     C6    9  -0.430   0.087  -0.020
    1UNL     O3   10  -0.465   0.217  -0.012
    1UNL     C7   11  -0.524  -0.015  -0.027
    1UNL     C8   12  -0.483  -0.146  -0.036
    1UNL     C9   13  -0.349  -0.183  -0.024
    1UNL    C10   14  -0.254  -0.079  -0.007
    1UNL    C11   15  -0.105  -0.078  -0.030
    1UNL    C12   16  -0.068  -0.101  -0.189
    1UNL    C13   17  -0.003  -0.240  -0.191
    1UNL     N2   18   0.064  -0.251  -0.048
    1UNL    C14   19   0.210  -0.214  -0.045
    1UNL    C15   20   0.233  -0.068  -0.014
    1UNL    C16   21   0.387  -0.047  -0.015
    1UNL    C17   22   0.430   0.098   0.014
    1UNL     O4   23   0.445  -0.101  -0.142
    1UNL    C18   24   0.145  -0.022   0.110
    1UNL    C19   25   0.060  -0.134   0.163
    1UNL    C20   26  -0.023  -0.190   0.044
    1UNL     H1   27  -0.015   0.533   0.094
    1UNL     H2   28   0.152   0.460   0.125
    1UNL     H3   29   0.021   0.468   0.250
    1UNL     H4   30  -0.193   0.230   0.029
    1UNL     H5   31  -0.555   0.236  -0.041
    1UNL     H6   32  -0.624   0.018  -0.009
    1UNL     H7   33  -0.550  -0.230  -0.042
    1UNL     H8   34  -0.324  -0.284  -0.033
    1UNL     H9   35  -0.170  -0.088  -0.241
    1UNL    H10   36   0.004  -0.035  -0.230
    1UNL    H11   37  -0.076  -0.322  -0.201
    1UNL    H12   38   0.069  -0.247  -0.273
    1UNL    H13   39   0.264  -0.233  -0.141
    1UNL    H14   40   0.258  -0.287   0.022
    1UNL    H15   41   0.206  -0.006  -0.100
    1UNL    H16   42   0.418  -0.106   0.078
    1UNL    H17   43   0.476   0.128  -0.083
    1UNL    H18   44   0.498   0.110   0.103
    1UNL    H19   45   0.359   0.175   0.032
    1UNL    H20   46   0.547  -0.080  -0.144
    1UNL    H21   47   0.230   0.009   0.175
    1UNL    H22   48  -0.006  -0.106   0.239
    1UNL    H23   49   0.125  -0.207   0.222
    1UNL    H24   50  -0.094  -0.266   0.083
   0.00000   0.00000   0.00000   0.00000   0.00000   0.00000   0.00000   0.00000   0.00000
Generated with MDTraj, t= 5.0
 50
    1UNL     C1    1   0.039   0.446   0.103
    1UNL     O1    2  -0.000   0.327   0.056
    1UNL     C2    3   0.086   0.230   0.100
    1UNL     O2    4   0.185   0.242   0.175
    1UNL     C3    5   0.058   0.090   0.059
    1UNL     C4    6  -0.064   0.061   0.006
    1UNL     N1    7  -0.183   0.137   0.025
    1UNL     C5    8  -0.295   0.056   0.005
    1UNL     C6    9  -0.433   0.091   0.011
    1UNL     O3   10  -0.475   0.223   0.023
    1UNL     C7   11  -0.524  -0.017  -0.010
    1UNL     C8   12  -0.477  -0.150  -0.027
    1UNL     C9   13  -0.344  -0.182  -0.038
    1UNL    C10   14  -0.256  -0.075  -0.037
    1UNL    C11   15  -0.106  -0.074  -0.045
    1UNL    C12   16  -0.062  -0.094  -0.194
    1UNL    C13   17   0.007  -0.229  -0.203
    1UNL     N2   18   0.066  -0.256  -0.074
    1UNL    C14   19   0.209  -0.221  -0.050
    1UNL    C15   20   0.241  -0.074  -0.014
    1UNL    C16   21   0.384  -0.052   0.004
    1UNL    C17   22   0.405   0.100   0.016
    1UNL     O4   23   0.467  -0.102  -0.097
    1UNL    C18   24   0.145  -0.025   0.103
    1UNL    C19   25   0.046  -0.131   0.157
    1UNL    C20   26  -0.029  -0.189   0.026
    1UNL     H1   27   0.103   0.495   0.031
    1UNL     H2   28   0.085   0.437   0.204
    1UNL     H3   29  -0.047   0.514   0.104
    1UNL     H4   30  -0.183   0.233   0.057
    1UNL     H5   31  -0.567   0.228  -0.000
    1UNL     H6   32  -0.627   0.009  -0.032
    1UNL     H7   33  -0.546  -0.232  -0.018
    1UNL     H8   34  -0.300  -0.280  -0.059
    1UNL     H9   35  -0.156  -0.087  -0.262
    1UNL    H10   36   0.002  -0.018  -0.218
    1UNL    H11   37  -0.065  -0.305  -0.226
    1UNL    H12   38   0.093  -0.241  -0.276
    1UNL    H13   39   0.269  -0.273  -0.128
    1UNL    H14   40   0.248  -0.273   0.040
    1UNL    H15   41   0.203  -0.034  -0.108
    1UNL    H16   42   0.405  -0.099   0.104
    1UNL    H17   43   0.302   0.143   0.014
    1UNL    H18   44   0.471   0.145  -0.061
    1UNL    H19   45   0.456   0.124   0.106
    1UNL    H20   46   0.557  -0.076  -0.071
    1UNL    H21   47   0.211   0.014   0.184
    1UNL    H22   48   0.002  -0.086   0.244
    1UNL    H23   49   0.092  -0.216   0.210
    1UNL    H24   50  -0.101  -0.274   0.041
   0.00000   0.00000   0.00000   0.00000   0.00000   0.00000   0.00000   0.00000   0.00000
Generated with MDTraj, t= 6.0
 50
    1UNL     C1    1   0.052   0.454   0.084
    1UNL     O1    2   0.003   0.329   0.043
    1UNL     C2    3   0.076   0.228   0.094
    1UNL     O2    4   0.181   0.239   0.159
    1UNL     C3    5   0.045   0.087   0.059
    1UNL     C4    6  -0.068   0.058  -0.009
    1UNL     N1    7  -0.182   0.131  -0.004
    1UNL     C5    8  -0.299   0.052  -0.024
    1UNL     C6    9  -0.427   0.088   0.020
    1UNL     O3   10  -0.450   0.210   0.088
    1UNL     C7   11  -0.526  -0.005   0.008
    1UNL     C8   12  -0.493  -0.141  -0.022
    1UNL     C9   13  -0.359  -0.177  -0.057
    1UNL    C10   14  -0.264  -0.080  -0.044
    1UNL    C11   15  -0.110  -0.084  -0.057
    1UNL    C12   16  -0.070  -0.109  -0.207
    1UNL    C13   17   0.031  -0.220  -0.215
    1UNL     N2   18   0.077  -0.246  -0.075
    1UNL    C14   19   0.222  -0.217  -0.053
    1UNL    C15   20   0.236  -0.067  -0.007
    1UNL    C16   21   0.381  -0.041   0.032
    1UNL    C17   22   0.409   0.116   0.026
    1UNL     O4   23   0.466  -0.115  -0.068
    1UNL    C18   24   0.130  -0.026   0.113
    1UNL    C19   25   0.039  -0.139   0.149
    1UNL    C20   26  -0.028  -0.192   0.025
    1UNL     H1   27   0.146   0.443   0.132
    1UNL     H2   28  -0.018   0.505   0.153
    1UNL     H3   29   0.082   0.515   0.001
    1UNL     H4   30  -0.183   0.218   0.047
    1UNL     H5   31  -0.542   0.222   0.115
    1UNL     H6   32  -0.625   0.008   0.045
    1UNL     H7   33  -0.582  -0.202  -0.037
    1UNL     H8   34  -0.322  -0.272  -0.089
    1UNL     H9   35  -0.159  -0.137  -0.273
    1UNL    H10   36  -0.038  -0.014  -0.239
    1UNL    H11   37  -0.005  -0.315  -0.244
    1UNL    H12   38   0.121  -0.198  -0.284
    1UNL    H13   39   0.299  -0.235  -0.131
    1UNL    H14   40   0.264  -0.279   0.028
    1UNL    H15   41   0.232  -0.006  -0.099
    1UNL    H16   42   0.408  -0.087   0.126
    1UNL    H17   43   0.413   0.169   0.124
    1UNL    H18   44   0.328   0.172  -0.019
    1UNL    H19   45   0.488   0.144  -0.044
    1UNL    H20   46   0.558  -0.107  -0.064
    1UNL    H21   47   0.184   0.007   0.206
    1UNL    H22   48  -0.033  -0.105   0.222
    1UNL    H23   49   0.093  -0.212   0.204
    1UNL    H24   50  -0.088  -0.286   0.029
   0.00000   0.00000   0.00000   0.00000   0.00000   0.00000   0.00000   0.00000   0.00000
Generated with MDTraj, t= 7.0
 50
    1UNL     C1    1   0.046   0.456   0.080
    1UNL     O1    2  -0.008   0.328   0.044
    1UNL     C2    3   0.081   0.229   0.079
    1UNL     O2    4   0.178   0.256   0.148
    1UNL     C3    5   0.055   0.091   0.040
    1UNL     C4    6  -0.068   0.064  -0.013
    1UNL     N1    7  -0.178   0.135  -0.001
    1UNL     C5    8  -0.292   0.061  -0.011
    1UNL     C6    9  -0.425   0.083   0.036
    1UNL     O3   10  -0.458   0.206   0.076
    1UNL     C7   11  -0.516  -0.025   0.047
    1UNL     C8   12  -0.481  -0.153  -0.015
    1UNL     C9   13  -0.349  -0.166  -0.055
    1UNL    C10   14  -0.261  -0.064  -0.055
    1UNL    C11   15  -0.110  -0.074  -0.071
    1UNL    C12   16  -0.068  -0.099  -0.212
    1UNL    C13   17   0.021  -0.220  -0.219
    1UNL     N2   18   0.068  -0.247  -0.077
    1UNL    C14   19   0.216  -0.226  -0.049
    1UNL    C15   20   0.241  -0.080  -0.013
    1UNL    C16   21   0.383  -0.058   0.036
    1UNL    C17   22   0.402   0.090   0.059
    1UNL     O4   23   0.476  -0.105  -0.059
    1UNL    C18   24   0.130  -0.029   0.095
    1UNL    C19   25   0.034  -0.137   0.144
    1UNL    C20   26  -0.030  -0.188   0.016
    1UNL     H1   27   0.030   0.472   0.184
    1UNL     H2   28   0.004   0.540   0.022
    1UNL     H3   29   0.152   0.446   0.072
    1UNL     H4   30  -0.188   0.213   0.063
    1UNL     H5   31  -0.556   0.219   0.096
    1UNL     H6   32  -0.617   0.000   0.082
    1UNL     H7   33  -0.547  -0.236  -0.025
    1UNL     H8   34  -0.330  -0.264  -0.099
    1UNL     H9   35  -0.161  -0.118  -0.266
    1UNL    H10   36  -0.021  -0.009  -0.252
    1UNL    H11   37  -0.028  -0.308  -0.248
    1UNL    H12   38   0.114  -0.212  -0.285
    1UNL    H13   39   0.268  -0.240  -0.146
    1UNL    H14   40   0.275  -0.295   0.015
    1UNL    H15   41   0.217  -0.015  -0.099
    1UNL    H16   42   0.402  -0.105   0.129
    1UNL    H17   43   0.314   0.125   0.112
    1UNL    H18   44   0.398   0.148  -0.031
    1UNL    H19   45   0.497   0.123   0.110
    1UNL    H20   46   0.559  -0.060  -0.026
    1UNL    H21   47   0.181   0.008   0.187
    1UNL    H22   48  -0.044  -0.105   0.213
    1UNL    H23   49   0.094  -0.196   0.204
    1UNL    H24   50  -0.111  -0.257   0.047
   0.00000   0.00000   0.00000   0.00000   0.00000   0.00000   0.00000   0.00000   0.00000
Generated with MDTraj, t= 8.0
 50
    1UNL     C1    1   0.024   0.451   0.094
    1UNL     O1    2  -0.001   0.333   0.031
    1UNL     C2    3   0.083   0.235   0.079
    1UNL     O2    4   0.169   0.258   0.162
    1UNL     C3    5   0.059   0.100   0.039
    1UNL     C4    6  -0.066   0.070  -0.011
    1UNL     N1    7  -0.189   0.143  -0.012
    1UNL     C5    8  -0.299   0.053  -0.012
    1UNL     C6    9  -0.436   0.083   0.014
    1UNL     O3   10  -0.469   0.210   0.064
    1UNL     C7   11  -0.521  -0.033   0.016
    1UNL     C8   12  -0.478  -0.162   0.001
    1UNL     C9   13  -0.339  -0.185  -0.027
    1UNL    C10   14  -0.251  -0.079  -0.035
    1UNL    C11   15  -0.113  -0.070  -0.059
    1UNL    C12   16  -0.077  -0.083  -0.206
    1UNL    C13   17   0.010  -0.209  -0.212
    1UNL     N2   18   0.066  -0.241  -0.081
    1UNL    C14   19   0.212  -0.201  -0.072
    1UNL    C15   20   0.245  -0.070  -0.006
    1UNL    C16   21   0.391  -0.076   0.036
    1UNL    C17   22   0.444   0.067   0.071
    1UNL     O4   23   0.469  -0.136  -0.073
    1UNL    C18   24   0.136  -0.010   0.098
    1UNL    C19   25   0.045  -0.123   0.146
    1UNL    C20   26  -0.030  -0.179   0.018
    1UNL     H1   27  -0.051   0.467   0.170
    1UNL     H2   28   0.006   0.526   0.011
    1UNL     H3   29   0.124   0.451   0.138
    1UNL     H4   30  -0.209   0.237   0.025
    1UNL     H5   31  -0.570   0.213   0.052
    1UNL     H6   32  -0.616  -0.010   0.054
    1UNL     H7   33  -0.551  -0.242   0.011
    1UNL     H8   34  -0.292  -0.283  -0.036
    1UNL     H9   35  -0.167  -0.100  -0.253
    1UNL    H10   36  -0.024   0.008  -0.249
    1UNL    H11   37  -0.047  -0.295  -0.240
    1UNL    H12   38   0.098  -0.198  -0.281
    1UNL    H13   39   0.265  -0.204  -0.170
    1UNL    H14   40   0.262  -0.286  -0.022
    1UNL    H15   41   0.242   0.003  -0.090
    1UNL    H16   42   0.398  -0.147   0.115
    1UNL    H17   43   0.389   0.117   0.149
    1UNL    H18   44   0.436   0.126  -0.020
    1UNL    H19   45   0.555   0.049   0.084
    1UNL    H20   46   0.574  -0.139  -0.068
    1UNL    H21   47   0.190   0.029   0.188
    1UNL    H22   48  -0.009  -0.087   0.235
    1UNL    H23   49   0.099  -0.201   0.187
    1UNL    H24   50  -0.097  -0.259   0.052
   0.00000   0.00000   0.00000   0.00000   0.00000   0.00000   0.00000   0.00000   0.00000
Generated with MDTraj, t= 9.0
 50
    1UNL     C1    1   0.032   0.450   0.102
    1UNL     O1    2  -0.014   0.324   0.061
    1UNL     C2    3   0.078   0.228   0.094
    1UNL     O2    4   0.182   0.252   0.157
    1UNL     C3    5   0.055   0.094   0.037
    1UNL     C4    6  -0.067   0.059  -0.014
    1UNL     N1    7  -0.185   0.136   0.009
    1UNL     C5    8  -0.301   0.049   0.009
    1UNL     C6    9  -0.437   0.085   0.014
    1UNL     O3   10  -0.467   0.228   0.022
    1UNL     C7   11  -0.534  -0.017   0.010
    1UNL     C8   12  -0.492  -0.149   0.003
    1UNL     C9   13  -0.360  -0.187  -0.019
    1UNL    C10   14  -0.267  -0.081  -0.019
    1UNL    C11   15  -0.111  -0.080  -0.050
    1UNL    C12   16  -0.083  -0.098  -0.208
    1UNL    C13   17   0.009  -0.221  -0.221
    1UNL     N2   18   0.066  -0.240  -0.087
    1UNL    C14   19   0.215  -0.205  -0.087
    1UNL    C15   20   0.255  -0.066  -0.024
    1UNL    C16   21   0.403  -0.055   0.038
    1UNL    C17   22   0.436   0.092   0.044
    1UNL     O4   23   0.487  -0.128  -0.047
    1UNL    C18   24   0.145  -0.018   0.088
    1UNL    C19   25   0.055  -0.131   0.139
    1UNL    C20   26  -0.022  -0.189   0.021
    1UNL     H1   27   0.088   0.447   0.196
    1UNL     H2   28  -0.065   0.509   0.113
    1UNL     H3   29   0.093   0.491   0.019
    1UNL     H4   30  -0.188   0.233   0.047
    1UNL     H5   31  -0.542   0.239  -0.039
    1UNL     H6   32  -0.635   0.019   0.041
    1UNL     H7   33  -0.557  -0.233   0.011
    1UNL     H8   34  -0.321  -0.285  -0.028
    1UNL     H9   35  -0.167  -0.124  -0.259
    1UNL    H10   36  -0.047   0.008  -0.240
    1UNL    H11   37  -0.051  -0.312  -0.246
    1UNL    H12   38   0.089  -0.204  -0.293
    1UNL    H13   39   0.252  -0.233  -0.188
    1UNL    H14   40   0.265  -0.283  -0.028
    1UNL    H15   41   0.253   0.012  -0.102
    1UNL    H16   42   0.413  -0.099   0.137
    1UNL    H17   43   0.359   0.154   0.087
    1UNL    H18   44   0.452   0.131  -0.059
    1UNL    H19   45   0.532   0.107   0.096
    1UNL    H20   46   0.577  -0.137   0.000
    1UNL    H21   47   0.207   0.018   0.173
    1UNL    H22   48  -0.016  -0.090   0.211
    1UNL    H23   49   0.114  -0.200   0.190
    1UNL    H24   50  -0.087  -0.274   0.046
   0.00000   0.00000   0.00000   0.00000   0.00000   0.00000   0.00000   0.00000   0.00000
Generated with MDTraj, t= 10.0
 50
    1UNL     C1    1   0.040   0.449   0.126
    1UNL     O1    2  -0.018   0.319   0.091
    1UNL     C2    3   0.086   0.225   0.098
    1UNL     O2    4   0.205   0.253   0.119
    1UNL     C3    5   0.049   0.088   0.065
    1UNL     C4    6  -0.063   0.055  -0.005
    1UNL     N1    7  -0.177   0.132  -0.016
    1UNL     C5    8  -0.291   0.049  -0.020
    1UNL     C6    9  -0.425   0.090   0.003
    1UNL     O3   10  -0.468   0.221   0.020
    1UNL     C7   11  -0.530  -0.003   0.008
    1UNL     C8   12  -0.496  -0.139  -0.006
    1UNL     C9   13  -0.362  -0.173  -0.012
    1UNL    C10   14  -0.262  -0.082  -0.034
    1UNL    C11   15  -0.104  -0.086  -0.046
    1UNL    C12   16  -0.077  -0.106  -0.204
    1UNL    C13   17   0.026  -0.214  -0.215
    1UNL     N2   18   0.074  -0.251  -0.078
    1UNL    C14   19   0.216  -0.205  -0.055
    1UNL    C15   20   0.232  -0.068  -0.010
    1UNL    C16   21   0.383  -0.037   0.025
    1UNL    C17   22   0.420   0.110   0.004
    1UNL     O4   23   0.471  -0.108  -0.064
    1UNL    C18   24   0.134  -0.037   0.110
    1UNL    C19   25   0.048  -0.154   0.152
    1UNL    C20   26  -0.027  -0.203   0.025
    1UNL     H1   27   0.116   0.445   0.203
    1UNL     H2   28  -0.042   0.520   0.160
    1UNL     H3   29   0.085   0.483   0.032
    1UNL     H4   30  -0.188   0.226   0.025
    1UNL     H5   31  -0.556   0.232  -0.015
    1UNL     H6   32  -0.629   0.031   0.006
    1UNL     H7   33  -0.578  -0.210   0.000
    1UNL     H8   34  -0.341  -0.281  -0.025
    1UNL     H9   35  -0.169  -0.115  -0.255
    1UNL    H10   36  -0.031  -0.009  -0.243
    1UNL    H11   37  -0.023  -0.309  -0.258
    1UNL    H12   38   0.101  -0.180  -0.284
    1UNL    H13   39   0.261  -0.221  -0.154
    1UNL    H14   40   0.263  -0.279   0.010
    1UNL    H15   41   0.194   0.006  -0.083
    1UNL    H16   42   0.401  -0.082   0.128
    1UNL    H17   43   0.370   0.182   0.076
    1UNL    H18   44   0.394   0.150  -0.097
    1UNL    H19   45   0.526   0.125   0.012
    1UNL    H20   46   0.557  -0.109  -0.026
    1UNL    H21   47   0.201   0.000   0.190
    1UNL    H22   48  -0.032  -0.121   0.216
    1UNL    H23   49   0.113  -0.222   0.203
    1UNL    H24   50  -0.087  -0.294   0.046
   0.00000   0.00000   0.00000   0.00000   0.00000   0.00000   0.00000   0.00000   0.00000
Generated with MDTraj, t= 11.0
 50
    1UNL     C1    1   0.015   0.451   0.155
    1UNL     O1    2  -0.017   0.325   0.096
    1UNL     C2    3   0.089   0.234   0.107
    1UNL     O2    4   0.199   0.262   0.156
    1UNL     C3    5   0.060   0.103   0.052
    1UNL     C4    6  -0.059   0.063  -0.001
    1UNL     N1    7  -0.172   0.134  -0.012
    1UNL     C5    8  -0.293   0.055  -0.023
    1UNL     C6    9  -0.428   0.091  -0.001
    1UNL     O3   10  -0.475   0.219   0.021
    1UNL     C7   11  -0.519  -0.014  -0.006
    1UNL     C8   12  -0.487  -0.150  -0.019
    1UNL     C9   13  -0.350  -0.180  -0.045
    1UNL    C10   14  -0.249  -0.081  -0.034
    1UNL    C11   15  -0.104  -0.077  -0.049
    1UNL    C12   16  -0.048  -0.104  -0.195
    1UNL    C13   17   0.024  -0.234  -0.193
    1UNL     N2   18   0.059  -0.262  -0.045
    1UNL    C14   19   0.208  -0.229  -0.034
    1UNL    C15   20   0.233  -0.082  -0.019
    1UNL    C16   21   0.380  -0.052  -0.013
    1UNL    C17   22   0.409   0.099  -0.011
    1UNL     O4   23   0.461  -0.120  -0.112
    1UNL    C18   24   0.152  -0.012   0.102
    1UNL    C19   25   0.046  -0.119   0.161
    1UNL    C20   26  -0.036  -0.189   0.040
    1UNL     H1   27   0.008   0.460   0.262
    1UNL     H2   28  -0.068   0.516   0.118
    1UNL     H3   29   0.108   0.481   0.110
    1UNL     H4   30  -0.177   0.223   0.035
    1UNL     H5   31  -0.562   0.238  -0.018
    1UNL     H6   32  -0.626   0.000   0.017
    1UNL     H7   33  -0.570  -0.215  -0.044
    1UNL     H8   34  -0.328  -0.276  -0.078
    1UNL     H9   35  -0.136  -0.097  -0.267
    1UNL    H10   36   0.021  -0.027  -0.234
    1UNL    H11   37  -0.045  -0.310  -0.246
    1UNL    H12   38   0.110  -0.231  -0.254
    1UNL    H13   39   0.259  -0.261  -0.124
    1UNL    H14   40   0.238  -0.294   0.048
    1UNL    H15   41   0.205  -0.033  -0.115
    1UNL    H16   42   0.423  -0.104   0.081
    1UNL    H17   43   0.345   0.139   0.072
    1UNL    H18   44   0.383   0.152  -0.106
    1UNL    H19   45   0.515   0.114   0.009
    1UNL    H20   46   0.549  -0.097  -0.099
    1UNL    H21   47   0.219   0.029   0.179
    1UNL    H22   48  -0.015  -0.053   0.215
    1UNL    H23   49   0.075  -0.203   0.222
    1UNL    H24   50  -0.109  -0.261   0.079
   0.00000   0.00000   0.00000   0.00000   0.00000   0.00000   0.00000   0.00000   0.00000
Generated with MDTraj, t= 12.0
 50
    1UNL     C1    1   0.006   0.443   0.167
    1UNL     O1    2  -0.004   0.331   0.082
    1UNL     C2    3   0.085   0.236   0.116
    1UNL     O2    4   0.178   0.250   0.194
    1UNL     C3    5   0.068   0.104   0.048
    1UNL     C4    6  -0.055   0.063  -0.011
    1UNL     N1    7  -0.174   0.138  -0.003
    1UNL     C5    8  -0.285   0.053  -0.007
    1UNL     C6    9  -0.423   0.086  -0.003
    1UNL     O3   10  -0.459   0.216   0.028
    1UNL     C7   11  -0.515  -0.012  -0.034
    1UNL     C8   12  -0.471  -0.142  -0.061
    1UNL     C9   13  -0.341  -0.182  -0.056
    1UNL    C10   14  -0.249  -0.080  -0.037
    1UNL    C11   15  -0.097  -0.077  -0.040
    1UNL    C12   16  -0.056  -0.120  -0.187
    1UNL    C13   17  -0.000  -0.262  -0.167
    1UNL     N2   18   0.059  -0.263  -0.026
    1UNL    C14   19   0.202  -0.225  -0.037
    1UNL    C15   20   0.226  -0.073  -0.027
    1UNL    C16   21   0.377  -0.048  -0.026
    1UNL    C17   22   0.415   0.100  -0.023
    1UNL     O4   23   0.447  -0.119  -0.138
    1UNL    C18   24   0.156  -0.009   0.094
    1UNL    C19   25   0.051  -0.095   0.168
    1UNL    C20   26  -0.030  -0.181   0.068
    1UNL     H1   27  -0.016   0.427   0.269
    1UNL     H2   28  -0.070   0.516   0.133
    1UNL     H3   29   0.104   0.484   0.152
    1UNL     H4   30  -0.168   0.240  -0.005
    1UNL     H5   31  -0.550   0.237  -0.009
    1UNL     H6   32  -0.617   0.018  -0.049
    1UNL     H7   33  -0.540  -0.226  -0.068
    1UNL     H8   34  -0.311  -0.286  -0.079
    1UNL     H9   35  -0.153  -0.123  -0.257
    1UNL    H10   36   0.011  -0.051  -0.234
    1UNL    H11   37  -0.083  -0.339  -0.170
    1UNL    H12   38   0.066  -0.285  -0.248
    1UNL    H13   39   0.237  -0.277  -0.126
    1UNL    H14   40   0.253  -0.255   0.055
    1UNL    H15   41   0.188  -0.016  -0.114
    1UNL    H16   42   0.429  -0.094   0.067
    1UNL    H17   43   0.369   0.142   0.066
    1UNL    H18   44   0.365   0.146  -0.112
    1UNL    H19   45   0.526   0.120  -0.038
    1UNL    H20   46   0.503  -0.054  -0.182
    1UNL    H21   47   0.219   0.028   0.176
    1UNL    H22   48  -0.018  -0.035   0.220
    1UNL    H23   49   0.108  -0.169   0.224
    1UNL    H24   50  -0.106  -0.248   0.107
   0.00000   0.00000   0.00000   0.00000   0.00000   0.00000   0.00000   0.00000   0.00000
Generated with MDTraj, t= 13.0
 50
    1UNL     C1    1   0.026   0.437   0.143
    1UNL     O1    2  -0.010   0.318   0.083
    1UNL     C2    3   0.083   0.224   0.118
    1UNL     O2    4   0.183   0.251   0.184
    1UNL     C3    5   0.058   0.087   0.071
    1UNL     C4    6  -0.057   0.059   0.005
    1UNL     N1    7  -0.175   0.135   0.003
    1UNL     C5    8  -0.286   0.052  -0.016
    1UNL     C6    9  -0.419   0.098  -0.019
    1UNL     O3   10  -0.455   0.230   0.007
    1UNL     C7   11  -0.520   0.001  -0.034
    1UNL     C8   12  -0.485  -0.126  -0.053
    1UNL     C9   13  -0.352  -0.172  -0.050
    1UNL    C10   14  -0.253  -0.080  -0.025
    1UNL    C11   15  -0.099  -0.091  -0.030
    1UNL    C12   16  -0.053  -0.116  -0.174
    1UNL    C13   17   0.024  -0.251  -0.174
    1UNL     N2   18   0.078  -0.268  -0.037
    1UNL    C14   19   0.218  -0.228  -0.023
    1UNL    C15   20   0.227  -0.073  -0.018
    1UNL    C16   21   0.376  -0.024  -0.031
    1UNL    C17   22   0.386   0.117  -0.043
    1UNL     O4   23   0.439  -0.098  -0.141
    1UNL    C18   24   0.148  -0.026   0.106
    1UNL    C19   25   0.047  -0.129   0.176
    1UNL    C20   26  -0.028  -0.198   0.054
    1UNL     H1   27   0.025   0.430   0.250
    1UNL     H2   28  -0.051   0.512   0.113
    1UNL     H3   29   0.124   0.466   0.104
    1UNL     H4   30  -0.170   0.210   0.076
    1UNL     H5   31  -0.553   0.243  -0.019
    1UNL     H6   32  -0.623   0.026  -0.014
    1UNL     H7   33  -0.566  -0.198  -0.054
    1UNL     H8   34  -0.319  -0.274  -0.047
    1UNL     H9   35  -0.152  -0.121  -0.237
    1UNL    H10   36   0.002  -0.030  -0.210
    1UNL    H11   37  -0.037  -0.339  -0.202
    1UNL    H12   38   0.103  -0.238  -0.249
    1UNL    H13   39   0.270  -0.251  -0.116
    1UNL    H14   40   0.254  -0.280   0.066
    1UNL    H15   41   0.169  -0.028  -0.099
    1UNL    H16   42   0.425  -0.065   0.066
    1UNL    H17   43   0.346   0.169   0.042
    1UNL    H18   44   0.330   0.154  -0.131
    1UNL    H19   45   0.494   0.150  -0.070
    1UNL    H20   46   0.541  -0.098  -0.133
    1UNL    H21   47   0.220   0.004   0.182
    1UNL    H22   48  -0.035  -0.081   0.218
    1UNL    H23   49   0.108  -0.189   0.247
    1UNL    H24   50  -0.100  -0.275   0.078
   0.00000   0.00000   0.00000   0.00000   0.00000   0.00000   0.00000   0.00000   0.00000
Generated with MDTraj, t= 14.0
 50
    1UNL     C1    1   0.062   0.441   0.116
    1UNL     O1    2  -0.008   0.324   0.087
    1UNL     C2    3   0.083   0.222   0.116
    1UNL     O2    4   0.189   0.251   0.172
    1UNL     C3    5   0.055   0.079   0.087
    1UNL     C4    6  -0.063   0.053   0.031
    1UNL     N1    7  -0.173   0.136   0.003
    1UNL     C5    8  -0.288   0.058  -0.016
    1UNL     C6    9  -0.420   0.099  -0.017
    1UNL     O3   10  -0.457   0.231  -0.028
    1UNL     C7   11  -0.513  -0.010  -0.022
    1UNL     C8   12  -0.479  -0.145  -0.024
    1UNL     C9   13  -0.346  -0.177  -0.024
    1UNL    C10   14  -0.251  -0.076  -0.020
    1UNL    C11   15  -0.103  -0.086  -0.033
    1UNL    C12   16  -0.060  -0.109  -0.177
    1UNL    C13   17   0.017  -0.238  -0.189
    1UNL     N2   18   0.075  -0.264  -0.056
    1UNL    C14   19   0.217  -0.227  -0.042
    1UNL    C15   20   0.221  -0.073  -0.012
    1UNL    C16   21   0.366  -0.023  -0.017
    1UNL    C17   22   0.365   0.128  -0.028
    1UNL     O4   23   0.445  -0.085  -0.117
    1UNL    C18   24   0.139  -0.035   0.121
    1UNL    C19   25   0.047  -0.158   0.160
    1UNL    C20   26  -0.030  -0.203   0.035
    1UNL     H1   27   0.098   0.434   0.220
    1UNL     H2   28  -0.004   0.532   0.112
    1UNL     H3   29   0.149   0.449   0.047
    1UNL     H4   30  -0.182   0.238   0.015
    1UNL     H5   31  -0.551   0.251  -0.054
    1UNL     H6   32  -0.619   0.019  -0.013
    1UNL     H7   33  -0.549  -0.227  -0.032
    1UNL     H8   34  -0.323  -0.282  -0.015
    1UNL     H9   35  -0.145  -0.114  -0.249
    1UNL    H10   36   0.000  -0.021  -0.210
    1UNL    H11   37  -0.049  -0.313  -0.231
    1UNL    H12   38   0.105  -0.227  -0.259
    1UNL    H13   39   0.272  -0.248  -0.134
    1UNL    H14   40   0.248  -0.286   0.044
    1UNL    H15   41   0.173  -0.022  -0.096
    1UNL    H16   42   0.405  -0.060   0.081
    1UNL    H17   43   0.320   0.182   0.061
    1UNL    H18   44   0.314   0.164  -0.120
    1UNL    H19   45   0.471   0.163  -0.045
    1UNL    H20   46   0.543  -0.045  -0.108
    1UNL    H21   47   0.218  -0.015   0.191
    1UNL    H22   48  -0.007  -0.102   0.230
    1UNL    H23   49   0.091  -0.248   0.207
    1UNL    H24   50  -0.096  -0.276   0.080
   0.00000   0.00000   0.00000   0.00000   0.00000   0.00000   0.00000   0.00000   0.00000
Generated with MDTraj, t= 15.0
 50
    1UNL     C1    1   0.066   0.442   0.120
    1UNL     O1    2   0.004   0.327   0.070
    1UNL     C2    3   0.075   0.226   0.118
    1UNL     O2    4   0.167   0.246   0.193
    1UNL     C3    5   0.046   0.090   0.072
    1UNL     C4    6  -0.070   0.059  -0.001
    1UNL     N1    7  -0.185   0.140  -0.010
    1UNL     C5    8  -0.299   0.057  -0.015
    1UNL     C6    9  -0.437   0.091  -0.017
    1UNL     O3   10  -0.466   0.223  -0.018
    1UNL     C7   11  -0.525  -0.017  -0.012
    1UNL     C8   12  -0.474  -0.148  -0.013
    1UNL     C9   13  -0.344  -0.183  -0.016
    1UNL    C10   14  -0.259  -0.079  -0.015
    1UNL    C11   15  -0.109  -0.082  -0.036
    1UNL    C12   16  -0.077  -0.107  -0.183
    1UNL    C13   17   0.008  -0.232  -0.195
    1UNL     N2   18   0.069  -0.258  -0.059
    1UNL    C14   19   0.212  -0.222  -0.048
    1UNL    C15   20   0.237  -0.067  -0.020
    1UNL    C16   21   0.392  -0.045  -0.013
    1UNL    C17   22   0.419   0.114   0.002
    1UNL     O4   23   0.462  -0.101  -0.119
    1UNL    C18   24   0.139  -0.018   0.104
    1UNL    C19   25   0.052  -0.134   0.159
    1UNL    C20   26  -0.024  -0.195   0.045
    1UNL     H1   27   0.078   0.427   0.228
    1UNL     H2   28   0.003   0.533   0.106
    1UNL     H3   29   0.169   0.458   0.080
    1UNL     H4   30  -0.190   0.235   0.027
    1UNL     H5   31  -0.561   0.238  -0.025
    1UNL     H6   32  -0.627  -0.006  -0.033
    1UNL     H7   33  -0.546  -0.228  -0.011
    1UNL     H8   34  -0.309  -0.282  -0.047
    1UNL     H9   35  -0.162  -0.118  -0.240
    1UNL    H10   36  -0.025  -0.015  -0.229
    1UNL    H11   37  -0.043  -0.323  -0.208
    1UNL    H12   38   0.077  -0.221  -0.285
    1UNL    H13   39   0.257  -0.254  -0.142
    1UNL    H14   40   0.261  -0.273   0.034
    1UNL    H15   41   0.202  -0.004  -0.101
    1UNL    H16   42   0.422  -0.098   0.077
    1UNL    H17   43   0.350   0.156   0.084
    1UNL    H18   44   0.400   0.167  -0.096
    1UNL    H19   45   0.525   0.130   0.029
    1UNL    H20   46   0.544  -0.043  -0.120
    1UNL    H21   47   0.203   0.012   0.187
    1UNL    H22   48  -0.011  -0.099   0.237
    1UNL    H23   49   0.118  -0.207   0.206
    1UNL    H24   50  -0.081  -0.278   0.088
   0.00000   0.00000   0.00000   0.00000   0.00000   0.00000   0.00000   0.00000   0.00000
Generated with MDTraj, t= 16.0
 50
    1UNL     C1    1   0.014   0.438   0.117
    1UNL     O1    2  -0.001   0.324   0.046
    1UNL     C2    3   0.083   0.228   0.098
    1UNL     O2    4   0.175   0.256   0.172
    1UNL     C3    5   0.051   0.096   0.055
    1UNL     C4    6  -0.071   0.070  -0.005
    1UNL     N1    7  -0.184   0.143   0.003
    1UNL     C5    8  -0.291   0.056  -0.014
    1UNL     C6    9  -0.427   0.081   0.009
    1UNL     O3   10  -0.457   0.221   0.023
    1UNL     C7   11  -0.522  -0.017   0.004
    1UNL     C8   12  -0.478  -0.144  -0.014
    1UNL     C9   13  -0.346  -0.177  -0.036
    1UNL    C10   14  -0.251  -0.076  -0.030
    1UNL    C11   15  -0.102  -0.072  -0.052
    1UNL    C12   16  -0.070  -0.105  -0.198
    1UNL    C13   17   0.001  -0.245  -0.196
    1UNL     N2   18   0.064  -0.256  -0.063
    1UNL    C14   19   0.209  -0.219  -0.051
    1UNL    C15   20   0.235  -0.072  -0.020
    1UNL    C16   21   0.386  -0.061   0.007
    1UNL    C17   22   0.423   0.091   0.035
    1UNL     O4   23   0.476  -0.102  -0.097
    1UNL    C18   24   0.146  -0.020   0.096
    1UNL    C19   25   0.054  -0.126   0.156
    1UNL    C20   26  -0.031  -0.180   0.034
    1UNL     H1   27  -0.044   0.426   0.207
    1UNL     H2   28  -0.014   0.527   0.059
    1UNL     H3   29   0.118   0.451   0.152
    1UNL     H4   30  -0.170   0.241   0.023
    1UNL     H5   31  -0.550   0.237   0.031
    1UNL     H6   32  -0.633  -0.009   0.016
    1UNL     H7   33  -0.549  -0.223  -0.036
    1UNL     H8   34  -0.302  -0.271  -0.060
    1UNL     H9   35  -0.156  -0.112  -0.253
    1UNL    H10   36  -0.010  -0.017  -0.243
    1UNL    H11   37  -0.063  -0.325  -0.218
    1UNL    H12   38   0.089  -0.256  -0.265
    1UNL    H13   39   0.268  -0.241  -0.140
    1UNL    H14   40   0.253  -0.283   0.024
    1UNL    H15   41   0.220  -0.002  -0.104
    1UNL    H16   42   0.402  -0.131   0.086
    1UNL    H17   43   0.380   0.137   0.129
    1UNL    H18   44   0.384   0.152  -0.056
    1UNL    H19   45   0.533   0.103   0.032
    1UNL    H20   46   0.563  -0.072  -0.093
    1UNL    H21   47   0.201   0.003   0.187
    1UNL    H22   48  -0.017  -0.093   0.228
    1UNL    H23   49   0.121  -0.192   0.210
    1UNL    H24   50  -0.114  -0.250   0.048
   0.00000   0.00000   0.00000   0.00000   0.00000   0.00000   0.00000   0.00000   0.00000
Generated with MDTraj, t= 17.0
 50
    1UNL     C1    1   0.020   0.450   0.108
    1UNL     O1    2  -0.017   0.322   0.061
    1UNL     C2    3   0.080   0.233   0.086
    1UNL     O2    4   0.187   0.267   0.133
    1UNL     C3    5   0.053   0.093   0.052
    1UNL     C4    6  -0.063   0.064  -0.014
    1UNL     N1    7  -0.186   0.134  -0.007
    1UNL     C5    8  -0.298   0.054  -0.011
    1UNL     C6    9  -0.428   0.091   0.025
    1UNL     O3   10  -0.444   0.219   0.076
    1UNL     C7   11  -0.524  -0.014   0.008
    1UNL     C8   12  -0.488  -0.146  -0.026
    1UNL     C9   13  -0.358  -0.174  -0.046
    1UNL    C10   14  -0.257  -0.076  -0.049
    1UNL    C11   15  -0.108  -0.075  -0.064
    1UNL    C12   16  -0.061  -0.112  -0.210
    1UNL    C13   17   0.035  -0.233  -0.205
    1UNL     N2   18   0.071  -0.255  -0.066
    1UNL    C14   19   0.213  -0.222  -0.032
    1UNL    C15   20   0.234  -0.069  -0.017
    1UNL    C16   21   0.384  -0.050   0.018
    1UNL    C17   22   0.413   0.094   0.034
    1UNL     O4   23   0.471  -0.123  -0.068
    1UNL    C18   24   0.137  -0.022   0.100
    1UNL    C19   25   0.041  -0.131   0.148
    1UNL    C20   26  -0.031  -0.184   0.020
    1UNL     H1   27   0.050   0.439   0.210
    1UNL     H2   28  -0.052   0.528   0.084
    1UNL     H3   29   0.113   0.480   0.061
    1UNL     H4   30  -0.183   0.211   0.060
    1UNL     H5   31  -0.530   0.250   0.108
    1UNL     H6   32  -0.626   0.007   0.023
    1UNL     H7   33  -0.558  -0.229  -0.022
    1UNL     H8   34  -0.338  -0.282  -0.058
    1UNL     H9   35  -0.145  -0.136  -0.272
    1UNL    H10   36  -0.000  -0.037  -0.265
    1UNL    H11   37  -0.002  -0.324  -0.245
    1UNL    H12   38   0.129  -0.212  -0.259
    1UNL    H13   39   0.271  -0.262  -0.115
    1UNL    H14   40   0.254  -0.279   0.051
    1UNL    H15   41   0.219  -0.009  -0.109
    1UNL    H16   42   0.403  -0.093   0.113
    1UNL    H17   43   0.348   0.141   0.113
    1UNL    H18   44   0.389   0.152  -0.060
    1UNL    H19   45   0.518   0.127   0.067
    1UNL    H20   46   0.554  -0.079  -0.060
    1UNL    H21   47   0.185   0.016   0.190
    1UNL    H22   48  -0.010  -0.082   0.229
    1UNL    H23   49   0.087  -0.220   0.187
    1UNL    H24   50  -0.097  -0.271   0.039
   0.00000   0.00000   0.00000   0.00000   0.00000   0.00000   0.00000   0.00000   0.00000
Generated with MDTraj, t= 18.0
 50
    1UNL     C1    1   0.046   0.450   0.099
    1UNL     O1    2  -0.003   0.325   0.062
    1UNL     C2    3   0.091   0.231   0.088
    1UNL     O2    4   0.202   0.259   0.129
    1UNL     C3    5   0.050   0.097   0.048
    1UNL     C4    6  -0.071   0.072  -0.012
    1UNL     N1    7  -0.192   0.139  -0.006
    1UNL     C5    8  -0.302   0.051  -0.004
    1UNL     C6    9  -0.437   0.083   0.027
    1UNL     O3   10  -0.478   0.205   0.073
    1UNL     C7   11  -0.529  -0.024   0.017
    1UNL     C8   12  -0.486  -0.147  -0.020
    1UNL     C9   13  -0.355  -0.174  -0.056
    1UNL    C10   14  -0.262  -0.073  -0.047
    1UNL    C11   15  -0.107  -0.072  -0.063
    1UNL    C12   16  -0.064  -0.105  -0.214
    1UNL    C13   17   0.041  -0.216  -0.211
    1UNL     N2   18   0.069  -0.251  -0.070
    1UNL    C14   19   0.218  -0.219  -0.038
    1UNL    C15   20   0.239  -0.064  -0.010
    1UNL    C16   21   0.383  -0.041   0.030
    1UNL    C17   22   0.419   0.103   0.020
    1UNL     O4   23   0.476  -0.139  -0.046
    1UNL    C18   24   0.129  -0.022   0.099
    1UNL    C19   25   0.037  -0.135   0.143
    1UNL    C20   26  -0.034  -0.185   0.018
    1UNL     H1   27   0.131   0.441   0.164
    1UNL     H2   28  -0.038   0.511   0.131
    1UNL     H3   29   0.081   0.503   0.010
    1UNL     H4   30  -0.191   0.231   0.042
    1UNL     H5   31  -0.577   0.212   0.083
    1UNL     H6   32  -0.635  -0.026   0.049
    1UNL     H7   33  -0.558  -0.225  -0.001
    1UNL     H8   34  -0.330  -0.275  -0.066
    1UNL     H9   35  -0.148  -0.155  -0.268
    1UNL    H10   36  -0.032  -0.025  -0.275
    1UNL    H11   37  -0.004  -0.309  -0.252
    1UNL    H12   38   0.129  -0.195  -0.269
    1UNL    H13   39   0.271  -0.269  -0.118
    1UNL    H14   40   0.243  -0.283   0.046
    1UNL    H15   41   0.215  -0.014  -0.105
    1UNL    H16   42   0.385  -0.075   0.133
    1UNL    H17   43   0.354   0.169   0.083
    1UNL    H18   44   0.415   0.128  -0.088
    1UNL    H19   45   0.529   0.118   0.058
    1UNL    H20   46   0.569  -0.102  -0.050
    1UNL    H21   47   0.188   0.014   0.184
    1UNL    H22   48  -0.025  -0.094   0.222
    1UNL    H23   49   0.088  -0.219   0.187
    1UNL    H24   50  -0.112  -0.257   0.053
   0.00000   0.00000   0.00000   0.00000   0.00000   0.00000   0.00000   0.00000   0.00000
Generated with MDTraj, t= 19.0
 50
    1UNL     C1    1   0.038   0.455   0.091
    1UNL     O1    2  -0.003   0.330   0.050
    1UNL     C2    3   0.088   0.238   0.097
    1UNL     O2    4   0.192   0.269   0.153
    1UNL     C3    5   0.051   0.102   0.057
    1UNL     C4    6  -0.070   0.066   0.002
    1UNL     N1    7  -0.188   0.144   0.006
    1UNL     C5    8  -0.300   0.049  -0.002
    1UNL     C6    9  -0.440   0.066   0.019
    1UNL     O3   10  -0.469   0.207   0.039
    1UNL     C7   11  -0.531  -0.037   0.008
    1UNL     C8   12  -0.484  -0.160  -0.021
    1UNL     C9   13  -0.349  -0.181  -0.039
    1UNL    C10   14  -0.258  -0.081  -0.027
    1UNL    C11   15  -0.102  -0.073  -0.050
    1UNL    C12   16  -0.069  -0.077  -0.199
    1UNL    C13   17   0.009  -0.212  -0.212
    1UNL     N2   18   0.064  -0.246  -0.080
    1UNL    C14   19   0.205  -0.211  -0.066
    1UNL    C15   20   0.239  -0.070  -0.022
    1UNL    C16   21   0.380  -0.061   0.028
    1UNL    C17   22   0.438   0.083   0.021
    1UNL     O4   23   0.469  -0.143  -0.045
    1UNL    C18   24   0.142  -0.011   0.089
    1UNL    C19   25   0.057  -0.127   0.149
    1UNL    C20   26  -0.030  -0.182   0.029
    1UNL     H1   27   0.034   0.464   0.201
    1UNL     H2   28  -0.016   0.527   0.026
    1UNL     H3   29   0.145   0.471   0.065
    1UNL     H4   30  -0.193   0.240   0.044
    1UNL     H5   31  -0.568   0.225   0.022
    1UNL     H6   32  -0.635  -0.021   0.025
    1UNL     H7   33  -0.541  -0.252  -0.039
    1UNL     H8   34  -0.308  -0.284  -0.052
    1UNL     H9   35  -0.162  -0.077  -0.264
    1UNL    H10   36  -0.019   0.008  -0.221
    1UNL    H11   37  -0.061  -0.292  -0.250
    1UNL    H12   38   0.086  -0.209  -0.282
    1UNL    H13   39   0.250  -0.228  -0.164
    1UNL    H14   40   0.241  -0.294  -0.006
    1UNL    H15   41   0.231  -0.007  -0.112
    1UNL    H16   42   0.381  -0.104   0.131
    1UNL    H17   43   0.374   0.152   0.084
    1UNL    H18   44   0.443   0.111  -0.088
    1UNL    H19   45   0.544   0.088   0.066
    1UNL    H20   46   0.566  -0.107  -0.025
    1UNL    H21   47   0.221   0.021   0.158
    1UNL    H22   48  -0.020  -0.113   0.227
    1UNL    H23   49   0.134  -0.188   0.189
    1UNL    H24   50  -0.095  -0.270   0.047
   0.00000   0.00000   0.00000   0.00000   0.00000   0.00000   0.00000   0.00000   0.00000
Generated with MDTraj, t= 20.0
 50
    1UNL     C1    1   0.033   0.447   0.096
    1UNL     O1    2  -0.008   0.321   0.058
    1UNL     C2    3   0.087   0.230   0.097
    1UNL     O2    4   0.191   0.255   0.158
    1UNL     C3    5   0.056   0.098   0.051
    1UNL     C4    6  -0.066   0.063   0.001
    1UNL     N1    7  -0.190   0.135  -0.003
    1UNL     C5    8  -0.303   0.052  -0.006
    1UNL     C6    9  -0.438   0.086   0.004
    1UNL     O3   10  -0.469   0.221   0.026
    1UNL     C7   11  -0.530  -0.021  -0.003
    1UNL     C8   12  -0.490  -0.151  -0.018
    1UNL     C9   13  -0.359  -0.186  -0.024
    1UNL    C10   14  -0.265  -0.087  -0.012
    1UNL    C11   15  -0.109  -0.076  -0.045
    1UNL    C12   16  -0.080  -0.094  -0.193
    1UNL    C13   17   0.003  -0.224  -0.204
    1UNL     N2   18   0.064  -0.248  -0.068
    1UNL    C14   19   0.214  -0.213  -0.066
    1UNL    C15   20   0.240  -0.072  -0.018
    1UNL    C16   21   0.397  -0.052   0.015
    1UNL    C17   22   0.449   0.094   0.041
    1UNL     O4   23   0.476  -0.115  -0.080
    1UNL    C18   24   0.142  -0.013   0.096
    1UNL    C19   25   0.060  -0.133   0.145
    1UNL    C20   26  -0.022  -0.189   0.034
    1UNL     H1   27  -0.031   0.478   0.180
    1UNL     H2   28   0.026   0.506   0.002
    1UNL     H3   29   0.140   0.450   0.134
    1UNL     H4   30  -0.205   0.229   0.036
    1UNL     H5   31  -0.562   0.236  -0.010
    1UNL     H6   32  -0.631   0.010  -0.021
    1UNL     H7   33  -0.563  -0.227  -0.030
    1UNL     H8   34  -0.328  -0.280  -0.060
    1UNL     H9   35  -0.178  -0.102  -0.246
    1UNL    H10   36  -0.037  -0.008  -0.236
    1UNL    H11   37  -0.049  -0.318  -0.240
    1UNL    H12   38   0.076  -0.212  -0.277
    1UNL    H13   39   0.250  -0.227  -0.168
    1UNL    H14   40   0.267  -0.279   0.003
    1UNL    H15   41   0.214   0.002  -0.096
    1UNL    H16   42   0.413  -0.114   0.111
    1UNL    H17   43   0.393   0.146   0.126
    1UNL    H18   44   0.434   0.156  -0.052
    1UNL    H19   45   0.557   0.110   0.067
    1UNL    H20   46   0.576  -0.088  -0.065
    1UNL    H21   47   0.208   0.031   0.171
    1UNL    H22   48  -0.007  -0.090   0.224
    1UNL    H23   49   0.103  -0.216   0.193
    1UNL    H24   50  -0.081  -0.275   0.078
   0.00000   0.00000   0.00000   0.00000   0.00000   0.00000   0.00000   0.00000   0.00000
Generated with MDTraj, t= 21.0
 50
    1UNL     C1    1   0.031   0.448   0.117
    1UNL     O1    2  -0.010   0.322   0.063
    1UNL     C2    3   0.089   0.225   0.093
    1UNL     O2    4   0.195   0.251   0.150
    1UNL     C3    5   0.060   0.086   0.052
    1UNL     C4    6  -0.058   0.053  -0.003
    1UNL     N1    7  -0.173   0.133  -0.009
    1UNL     C5    8  -0.293   0.056  -0.014
    1UNL     C6    9  -0.428   0.100   0.009
    1UNL     O3   10  -0.456   0.233   0.013
    1UNL     C7   11  -0.520  -0.004  -0.001
    1UNL     C8   12  -0.491  -0.140  -0.002
    1UNL     C9   13  -0.356  -0.175  -0.022
    1UNL    C10   14  -0.254  -0.077  -0.028
    1UNL    C11   15  -0.110  -0.093  -0.049
    1UNL    C12   16  -0.066  -0.118  -0.195
    1UNL    C13   17   0.026  -0.235  -0.204
    1UNL     N2   18   0.072  -0.264  -0.063
    1UNL    C14   19   0.213  -0.225  -0.041
    1UNL    C15   20   0.239  -0.074  -0.014
    1UNL    C16   21   0.383  -0.031   0.010
    1UNL    C17   22   0.402   0.113   0.039
    1UNL     O4   23   0.451  -0.075  -0.108
    1UNL    C18   24   0.140  -0.030   0.105
    1UNL    C19   25   0.040  -0.153   0.154
    1UNL    C20   26  -0.033  -0.205   0.029
    1UNL     H1   27   0.019   0.436   0.225
    1UNL     H2   28  -0.029   0.529   0.075
    1UNL     H3   29   0.141   0.460   0.097
    1UNL     H4   30  -0.175   0.228   0.022
    1UNL     H5   31  -0.553   0.236   0.008
    1UNL     H6   32  -0.628   0.019  -0.002
    1UNL     H7   33  -0.578  -0.207  -0.006
    1UNL     H8   34  -0.337  -0.281  -0.034
    1UNL     H9   35  -0.148  -0.142  -0.263
    1UNL    H10   36  -0.018  -0.028  -0.240
    1UNL    H11   37  -0.043  -0.319  -0.231
    1UNL    H12   38   0.098  -0.232  -0.282
    1UNL    H13   39   0.275  -0.250  -0.128
    1UNL    H14   40   0.234  -0.281   0.052
    1UNL    H15   41   0.197  -0.011  -0.095
    1UNL    H16   42   0.426  -0.092   0.100
    1UNL    H17   43   0.365   0.152   0.140
    1UNL    H18   44   0.355   0.176  -0.045
    1UNL    H19   45   0.509   0.136   0.037
    1UNL    H20   46   0.549  -0.065  -0.098
    1UNL    H21   47   0.203  -0.007   0.192
    1UNL    H22   48  -0.039  -0.114   0.221
    1UNL    H23   49   0.079  -0.230   0.216
    1UNL    H24   50  -0.108  -0.278   0.067
   0.00000   0.00000   0.00000   0.00000   0.00000   0.00000   0.00000   0.00000   0.00000
Generated with MDTraj, t= 22.0
 50
    1UNL     C1    1   0.037   0.460   0.120
    1UNL     O1    2  -0.014   0.329   0.080
    1UNL     C2    3   0.073   0.229   0.117
    1UNL     O2    4   0.167   0.241   0.191
    1UNL     C3    5   0.052   0.092   0.067
    1UNL     C4    6  -0.051   0.061  -0.014
    1UNL     N1    7  -0.166   0.136  -0.023
    1UNL     C5    8  -0.284   0.053  -0.035
    1UNL     C6    9  -0.415   0.096  -0.011
    1UNL     O3   10  -0.454   0.233   0.011
    1UNL     C7   11  -0.512   0.000   0.007
    1UNL     C8   12  -0.478  -0.137  -0.009
    1UNL     C9   13  -0.351  -0.179  -0.027
    1UNL    C10   14  -0.252  -0.080  -0.040
    1UNL    C11   15  -0.092  -0.086  -0.049
    1UNL    C12   16  -0.048  -0.113  -0.198
    1UNL    C13   17   0.022  -0.251  -0.186
    1UNL     N2   18   0.072  -0.277  -0.051
    1UNL    C14   19   0.212  -0.232  -0.029
    1UNL    C15   20   0.226  -0.082  -0.016
    1UNL    C16   21   0.371  -0.035  -0.010
    1UNL    C17   22   0.397   0.111   0.010
    1UNL     O4   23   0.436  -0.081  -0.135
    1UNL    C18   24   0.140  -0.029   0.100
    1UNL    C19   25   0.040  -0.136   0.164
    1UNL    C20   26  -0.029  -0.203   0.040
    1UNL     H1   27   0.134   0.445   0.163
    1UNL     H2   28  -0.030   0.496   0.195
    1UNL     H3   29   0.044   0.523   0.030
    1UNL     H4   30  -0.170   0.214   0.042
    1UNL     H5   31  -0.536   0.245   0.059
    1UNL     H6   32  -0.604   0.037   0.039
    1UNL     H7   33  -0.548  -0.211   0.024
    1UNL     H8   34  -0.335  -0.287  -0.033
    1UNL     H9   35  -0.130  -0.108  -0.267
    1UNL    H10   36   0.025  -0.024  -0.230
    1UNL    H11   37  -0.047  -0.332  -0.210
    1UNL    H12   38   0.106  -0.252  -0.256
    1UNL    H13   39   0.277  -0.259  -0.114
    1UNL    H14   40   0.245  -0.273   0.068
    1UNL    H15   41   0.178  -0.035  -0.104
    1UNL    H16   42   0.437  -0.090   0.067
    1UNL    H17   43   0.349   0.149   0.104
    1UNL    H18   44   0.352   0.163  -0.082
    1UNL    H19   45   0.508   0.127   0.011
    1UNL    H20   46   0.528  -0.070  -0.135
    1UNL    H21   47   0.211  -0.006   0.181
    1UNL    H22   48  -0.038  -0.096   0.232
    1UNL    H23   49   0.089  -0.201   0.233
    1UNL    H24   50  -0.111  -0.277   0.049
   0.00000   0.00000   0.00000   0.00000   0.00000   0.00000   0.00000   0.00000   0.00000
Generated with MDTraj, t= 23.0
 50
    1UNL     C1    1   0.025   0.442   0.147
    1UNL     O1    2   0.009   0.331   0.065
    1UNL     C2    3   0.088   0.229   0.111
    1UNL     O2    4   0.161   0.228   0.208
    1UNL     C3    5   0.062   0.095   0.052
    1UNL     C4    6  -0.061   0.054   0.003
    1UNL     N1    7  -0.165   0.140  -0.014
    1UNL     C5    8  -0.281   0.062  -0.013
    1UNL     C6    9  -0.418   0.097  -0.009
    1UNL     O3   10  -0.464   0.228  -0.004
    1UNL     C7   11  -0.516  -0.013  -0.018
    1UNL     C8   12  -0.475  -0.141  -0.039
    1UNL     C9   13  -0.342  -0.177  -0.037
    1UNL    C10   14  -0.246  -0.079  -0.022
    1UNL    C11   15  -0.096  -0.086  -0.036
    1UNL    C12   16  -0.067  -0.111  -0.192
    1UNL    C13   17   0.004  -0.252  -0.188
    1UNL     N2   18   0.061  -0.263  -0.042
    1UNL    C14   19   0.210  -0.226  -0.029
    1UNL    C15   20   0.226  -0.077  -0.018
    1UNL    C16   21   0.376  -0.034  -0.019
    1UNL    C17   22   0.397   0.115  -0.033
    1UNL     O4   23   0.446  -0.101  -0.125
    1UNL    C18   24   0.149  -0.019   0.109
    1UNL    C19   25   0.047  -0.118   0.166
    1UNL    C20   26  -0.024  -0.192   0.056
    1UNL     H1   27   0.111   0.497   0.115
    1UNL     H2   28   0.046   0.402   0.244
    1UNL     H3   29  -0.067   0.501   0.138
    1UNL     H4   30  -0.161   0.241   0.008
    1UNL     H5   31  -0.559   0.222   0.021
    1UNL     H6   32  -0.624  -0.008   0.012
    1UNL     H7   33  -0.552  -0.217  -0.032
    1UNL     H8   34  -0.304  -0.276  -0.031
    1UNL     H9   35  -0.163  -0.101  -0.239
    1UNL    H10   36   0.001  -0.024  -0.236
    1UNL    H11   37  -0.066  -0.329  -0.209
    1UNL    H12   38   0.092  -0.258  -0.257
    1UNL    H13   39   0.257  -0.269  -0.119
    1UNL    H14   40   0.257  -0.264   0.063
    1UNL    H15   41   0.178  -0.036  -0.109
    1UNL    H16   42   0.436  -0.077   0.068
    1UNL    H17   43   0.347   0.165   0.053
    1UNL    H18   44   0.331   0.144  -0.119
    1UNL    H19   45   0.504   0.158  -0.043
    1UNL    H20   46   0.536  -0.080  -0.127
    1UNL    H21   47   0.223   0.026   0.178
    1UNL    H22   48  -0.012  -0.068   0.244
    1UNL    H23   49   0.092  -0.197   0.224
    1UNL    H24   50  -0.088  -0.276   0.088
   0.00000   0.00000   0.00000   0.00000   0.00000   0.00000   0.00000   0.00000   0.00000
Generated with MDTraj, t= 24.0
 50
    1UNL     C1    1   0.030   0.446   0.147
    1UNL     O1    2  -0.020   0.322   0.104
    1UNL     C2    3   0.081   0.229   0.113
    1UNL     O2    4   0.190   0.251   0.163
    1UNL     C3    5   0.054   0.096   0.062
    1UNL     C4    6  -0.064   0.051   0.008
    1UNL     N1    7  -0.175   0.125   0.011
    1UNL     C5    8  -0.291   0.052  -0.009
    1UNL     C6    9  -0.427   0.097  -0.021
    1UNL     O3   10  -0.458   0.229  -0.008
    1UNL     C7   11  -0.513  -0.004  -0.029
    1UNL     C8   12  -0.484  -0.140  -0.049
    1UNL     C9   13  -0.348  -0.177  -0.049
    1UNL    C10   14  -0.254  -0.083  -0.017
    1UNL    C11   15  -0.107  -0.086  -0.029
    1UNL    C12   16  -0.067  -0.110  -0.182
    1UNL    C13   17   0.003  -0.239  -0.180
    1UNL     N2   18   0.065  -0.265  -0.043
    1UNL    C14   19   0.214  -0.221  -0.037
    1UNL    C15   20   0.234  -0.073  -0.020
    1UNL    C16   21   0.385  -0.031  -0.017
    1UNL    C17   22   0.406   0.116  -0.049
    1UNL     O4   23   0.455  -0.119  -0.115
    1UNL    C18   24   0.148  -0.016   0.106
    1UNL    C19   25   0.055  -0.127   0.170
    1UNL    C20   26  -0.024  -0.197   0.056
    1UNL     H1   27   0.098   0.488   0.072
    1UNL     H2   28   0.088   0.430   0.238
    1UNL     H3   29  -0.058   0.513   0.156
    1UNL     H4   30  -0.170   0.225   0.039
    1UNL     H5   31  -0.552   0.254   0.021
    1UNL     H6   32  -0.613   0.024  -0.032
    1UNL     H7   33  -0.558  -0.216  -0.066
    1UNL     H8   34  -0.314  -0.280  -0.069
    1UNL     H9   35  -0.157  -0.106  -0.246
    1UNL    H10   36  -0.001  -0.029  -0.223
    1UNL    H11   37  -0.074  -0.308  -0.194
    1UNL    H12   38   0.084  -0.250  -0.259
    1UNL    H13   39   0.266  -0.257  -0.127
    1UNL    H14   40   0.248  -0.286   0.046
    1UNL    H15   41   0.190  -0.031  -0.111
    1UNL    H16   42   0.428  -0.055   0.082
    1UNL    H17   43   0.345   0.186   0.016
    1UNL    H18   44   0.369   0.142  -0.150
    1UNL    H19   45   0.516   0.150  -0.036
    1UNL    H20   46   0.547  -0.085  -0.117
    1UNL    H21   47   0.227   0.024   0.174
    1UNL    H22   48  -0.005  -0.088   0.252
    1UNL    H23   49   0.115  -0.197   0.229
    1UNL    H24   50  -0.095  -0.270   0.093
   0.00000   0.00000   0.00000   0.00000   0.00000   0.00000   0.00000   0.00000   0.00000
Generated with MDTraj, t= 25.0
 50
    1UNL     C1    1   0.026   0.452   0.148
    1UNL     O1    2  -0.022   0.315   0.131
    1UNL     C2    3   0.088   0.232   0.099
    1UNL     O2    4   0.205   0.276   0.096
    1UNL     C3    5   0.057   0.092   0.068
    1UNL     C4    6  -0.060   0.060   0.015
    1UNL     N1    7  -0.178   0.136   0.018
    1UNL     C5    8  -0.288   0.057  -0.017
    1UNL     C6    9  -0.423   0.093  -0.019
    1UNL     O3   10  -0.471   0.222   0.001
    1UNL     C7   11  -0.520  -0.009  -0.034
    1UNL     C8   12  -0.482  -0.146  -0.039
    1UNL     C9   13  -0.348  -0.178  -0.040
    1UNL    C10   14  -0.256  -0.075  -0.027
    1UNL    C11   15  -0.104  -0.079  -0.029
    1UNL    C12   16  -0.062  -0.104  -0.178
    1UNL    C13   17   0.011  -0.231  -0.186
    1UNL     N2   18   0.065  -0.266  -0.057
    1UNL    C14   19   0.212  -0.230  -0.036
    1UNL    C15   20   0.237  -0.084  -0.014
    1UNL    C16   21   0.383  -0.044  -0.002
    1UNL    C17   22   0.405   0.106  -0.018
    1UNL     O4   23   0.451  -0.112  -0.107
    1UNL    C18   24   0.144  -0.025   0.100
    1UNL    C19   25   0.053  -0.138   0.167
    1UNL    C20   26  -0.026  -0.194   0.047
    1UNL     H1   27   0.112   0.475   0.080
    1UNL     H2   28   0.069   0.461   0.247
    1UNL     H3   29  -0.056   0.526   0.123
    1UNL     H4   30  -0.186   0.226   0.067
    1UNL     H5   31  -0.560   0.220   0.050
    1UNL     H6   32  -0.622   0.020  -0.070
    1UNL     H7   33  -0.555  -0.220  -0.072
    1UNL     H8   34  -0.329  -0.279  -0.059
    1UNL     H9   35  -0.144  -0.098  -0.258
    1UNL    H10   36   0.000  -0.020  -0.198
    1UNL    H11   37  -0.053  -0.313  -0.197
    1UNL    H12   38   0.093  -0.223  -0.263
    1UNL    H13   39   0.263  -0.280  -0.120
    1UNL    H14   40   0.248  -0.284   0.053
    1UNL    H15   41   0.199  -0.029  -0.101
    1UNL    H16   42   0.412  -0.079   0.096
    1UNL    H17   43   0.354   0.168   0.062
    1UNL    H18   44   0.364   0.146  -0.114
    1UNL    H19   45   0.518   0.120  -0.011
    1UNL    H20   46   0.550  -0.078  -0.119
    1UNL    H21   47   0.215   0.008   0.179
    1UNL    H22   48  -0.013  -0.097   0.240
    1UNL    H23   49   0.113  -0.209   0.227
    1UNL    H24   50  -0.104  -0.266   0.070
   0.00000   0.00000   0.00000   0.00000   0.00000   0.00000   0.00000   0.00000   0.00000
Generated with MDTraj, t= 26.0
 50
    1UNL     C1    1   0.032   0.440   0.157
    1UNL     O1    2  -0.014   0.324   0.100
    1UNL     C2    3   0.090   0.237   0.082
    1UNL     O2    4   0.206   0.265   0.113
    1UNL     C3    5   0.062   0.097   0.041
    1UNL     C4    6  -0.063   0.067  -0.001
    1UNL     N1    7  -0.189   0.140   0.009
    1UNL     C5    8  -0.302   0.052  -0.012
    1UNL     C6    9  -0.434   0.084  -0.002
    1UNL     O3   10  -0.470   0.222   0.013
    1UNL     C7   11  -0.534  -0.022  -0.008
    1UNL     C8   12  -0.487  -0.151  -0.031
    1UNL     C9   13  -0.351  -0.180  -0.046
    1UNL    C10   14  -0.258  -0.077  -0.031
    1UNL    C11   15  -0.105  -0.076  -0.044
    1UNL    C12   16  -0.066  -0.111  -0.191
    1UNL    C13   17   0.016  -0.246  -0.195
    1UNL     N2   18   0.063  -0.256  -0.052
    1UNL    C14   19   0.210  -0.223  -0.038
    1UNL    C15   20   0.234  -0.073  -0.021
    1UNL    C16   21   0.391  -0.056   0.007
    1UNL    C17   22   0.440   0.092   0.030
    1UNL     O4   23   0.449  -0.112  -0.103
    1UNL    C18   24   0.143  -0.008   0.099
    1UNL    C19   25   0.050  -0.120   0.153
    1UNL    C20   26  -0.024  -0.177   0.040
    1UNL     H1   27   0.064   0.518   0.084
    1UNL     H2   28   0.118   0.414   0.219
    1UNL     H3   29  -0.059   0.480   0.209
    1UNL     H4   30  -0.196   0.237   0.035
    1UNL     H5   31  -0.555   0.217   0.059
    1UNL     H6   32  -0.638  -0.006  -0.009
    1UNL     H7   33  -0.567  -0.218  -0.057
    1UNL     H8   34  -0.312  -0.280  -0.075
    1UNL     H9   35  -0.169  -0.114  -0.247
    1UNL    H10   36  -0.017  -0.027  -0.225
    1UNL    H11   37  -0.039  -0.335  -0.212
    1UNL    H12   38   0.109  -0.239  -0.254
    1UNL    H13   39   0.267  -0.261  -0.124
    1UNL    H14   40   0.249  -0.280   0.049
    1UNL    H15   41   0.219  -0.007  -0.106
    1UNL    H16   42   0.414  -0.109   0.097
    1UNL    H17   43   0.384   0.145   0.114
    1UNL    H18   44   0.408   0.150  -0.063
    1UNL    H19   45   0.552   0.098   0.038
    1UNL    H20   46   0.553  -0.098  -0.106
    1UNL    H21   47   0.207   0.033   0.181
    1UNL    H22   48  -0.020  -0.069   0.213
    1UNL    H23   49   0.100  -0.200   0.213
    1UNL    H24   50  -0.096  -0.249   0.074
   0.00000   0.00000   0.00000   0.00000   0.00000   0.00000   0.00000   0.00000   0.00000
Generated with MDTraj, t= 27.0
 50
    1UNL     C1    1   0.033   0.440   0.121
    1UNL     O1    2  -0.011   0.326   0.072
    1UNL     C2    3   0.087   0.228   0.094
    1UNL     O2    4   0.183   0.258   0.161
    1UNL     C3    5   0.059   0.094   0.044
    1UNL     C4    6  -0.067   0.067  -0.019
    1UNL     N1    7  -0.189   0.142  -0.022
    1UNL     C5    8  -0.296   0.054  -0.013
    1UNL     C6    9  -0.435   0.087   0.012
    1UNL     O3   10  -0.463   0.222   0.040
    1UNL     C7   11  -0.521  -0.015   0.010
    1UNL     C8   12  -0.478  -0.147  -0.020
    1UNL     C9   13  -0.344  -0.181  -0.036
    1UNL    C10   14  -0.250  -0.076  -0.035
    1UNL    C11   15  -0.104  -0.073  -0.057
    1UNL    C12   16  -0.062  -0.103  -0.199
    1UNL    C13   17   0.006  -0.242  -0.200
    1UNL     N2   18   0.062  -0.261  -0.068
    1UNL    C14   19   0.210  -0.223  -0.051
    1UNL    C15   20   0.236  -0.075  -0.023
    1UNL    C16   21   0.383  -0.052   0.016
    1UNL    C17   22   0.415   0.097   0.034
    1UNL     O4   23   0.468  -0.115  -0.074
    1UNL    C18   24   0.142  -0.012   0.087
    1UNL    C19   25   0.053  -0.122   0.145
    1UNL    C20   26  -0.028  -0.183   0.029
    1UNL     H1   27   0.120   0.483   0.070
    1UNL     H2   28   0.062   0.423   0.223
    1UNL     H3   29  -0.055   0.505   0.108
    1UNL     H4   30  -0.193   0.223   0.038
    1UNL     H5   31  -0.534   0.245   0.100
    1UNL     H6   32  -0.622   0.016   0.042
    1UNL     H7   33  -0.540  -0.236  -0.012
    1UNL     H8   34  -0.307  -0.279  -0.048
    1UNL     H9   35  -0.166  -0.113  -0.249
    1UNL    H10   36  -0.011  -0.019  -0.236
    1UNL    H11   37  -0.071  -0.319  -0.216
    1UNL    H12   38   0.094  -0.252  -0.262
    1UNL    H13   39   0.262  -0.247  -0.145
    1UNL    H14   40   0.249  -0.296   0.023
    1UNL    H15   41   0.206  -0.020  -0.115
    1UNL    H16   42   0.396  -0.101   0.111
    1UNL    H17   43   0.358   0.153   0.113
    1UNL    H18   44   0.394   0.160  -0.061
    1UNL    H19   45   0.523   0.112   0.058
    1UNL    H20   46   0.562  -0.084  -0.054
    1UNL    H21   47   0.212   0.020   0.168
    1UNL    H22   48  -0.003  -0.094   0.231
    1UNL    H23   49   0.132  -0.193   0.180
    1UNL    H24   50  -0.104  -0.244   0.076
   0.00000   0.00000   0.00000   0.00000   0.00000   0.00000   0.00000   0.00000   0.00000
Generated with MDTraj, t= 28.0
 50
    1UNL     C1    1   0.036   0.444   0.087
    1UNL     O1    2   0.007   0.318   0.037
    1UNL     C2    3   0.076   0.220   0.105
    1UNL     O2    4   0.161   0.255   0.184
    1UNL     C3    5   0.049   0.082   0.063
    1UNL     C4    6  -0.066   0.059  -0.010
    1UNL     N1    7  -0.180   0.136  -0.015
    1UNL     C5    8  -0.291   0.057  -0.007
    1UNL     C6    9  -0.424   0.093   0.023
    1UNL     O3   10  -0.453   0.218   0.043
    1UNL     C7   11  -0.525  -0.010   0.025
    1UNL     C8   12  -0.488  -0.141  -0.003
    1UNL     C9   13  -0.355  -0.173  -0.032
    1UNL    C10   14  -0.256  -0.076  -0.037
    1UNL    C11   15  -0.106  -0.077  -0.060
    1UNL    C12   16  -0.059  -0.099  -0.210
    1UNL    C13   17   0.031  -0.215  -0.217
    1UNL     N2   18   0.072  -0.247  -0.085
    1UNL    C14   19   0.218  -0.220  -0.040
    1UNL    C15   20   0.236  -0.068  -0.009
    1UNL    C16   21   0.378  -0.039   0.019
    1UNL    C17   22   0.410   0.105   0.009
    1UNL     O4   23   0.468  -0.118  -0.065
    1UNL    C18   24   0.133  -0.026   0.106
    1UNL    C19   25   0.041  -0.149   0.142
    1UNL    C20   26  -0.032  -0.198   0.011
    1UNL     H1   27   0.131   0.453   0.140
    1UNL     H2   28  -0.033   0.466   0.164
    1UNL     H3   29   0.033   0.517   0.006
    1UNL     H4   30  -0.184   0.238   0.004
    1UNL     H5   31  -0.534   0.227   0.102
    1UNL     H6   32  -0.619  -0.000   0.075
    1UNL     H7   33  -0.558  -0.219   0.024
    1UNL     H8   34  -0.318  -0.276  -0.043
    1UNL     H9   35  -0.147  -0.109  -0.275
    1UNL    H10   36  -0.005  -0.006  -0.233
    1UNL    H11   37  -0.013  -0.314  -0.245
    1UNL    H12   38   0.112  -0.186  -0.279
    1UNL    H13   39   0.275  -0.252  -0.127
    1UNL    H14   40   0.249  -0.285   0.044
    1UNL    H15   41   0.201  -0.020  -0.103
    1UNL    H16   42   0.398  -0.074   0.123
    1UNL    H17   43   0.350   0.178   0.070
    1UNL    H18   44   0.400   0.141  -0.098
    1UNL    H19   45   0.519   0.115   0.040
    1UNL    H20   46   0.556  -0.082  -0.069
    1UNL    H21   47   0.194   0.005   0.194
    1UNL    H22   48  -0.022  -0.125   0.225
    1UNL    H23   49   0.118  -0.225   0.167
    1UNL    H24   50  -0.095  -0.281   0.039
   0.00000   0.00000   0.00000   0.00000   0.00000   0.00000   0.00000   0.00000   0.00000
Generated with MDTraj, t= 29.0
 50
    1UNL     C1    1   0.066   0.447   0.085
    1UNL     O1    2   0.024   0.326   0.032
    1UNL     C2    3   0.076   0.226   0.100
    1UNL     O2    4   0.165   0.249   0.183
    1UNL     C3    5   0.045   0.084   0.056
    1UNL     C4    6  -0.065   0.060  -0.016
    1UNL     N1    7  -0.181   0.134  -0.005
    1UNL     C5    8  -0.297   0.050   0.002
    1UNL     C6    9  -0.427   0.086   0.020
    1UNL     O3   10  -0.463   0.221   0.041
    1UNL     C7   11  -0.529  -0.012   0.020
    1UNL     C8   12  -0.495  -0.145  -0.007
    1UNL     C9   13  -0.357  -0.182  -0.029
    1UNL    C10   14  -0.263  -0.080  -0.023
    1UNL    C11   15  -0.107  -0.081  -0.052
    1UNL    C12   16  -0.088  -0.115  -0.212
    1UNL    C13   17   0.035  -0.210  -0.224
    1UNL     N2   18   0.072  -0.249  -0.085
    1UNL    C14   19   0.216  -0.227  -0.040
    1UNL    C15   20   0.235  -0.072  -0.009
    1UNL    C16   21   0.380  -0.036   0.015
    1UNL    C17   22   0.406   0.114   0.032
    1UNL     O4   23   0.480  -0.100  -0.071
    1UNL    C18   24   0.130  -0.029   0.110
    1UNL    C19   25   0.042  -0.146   0.137
    1UNL    C20   26  -0.026  -0.191   0.012
    1UNL     H1   27   0.176   0.451   0.088
    1UNL     H2   28   0.041   0.452   0.188
    1UNL     H3   29   0.034   0.536   0.029
    1UNL     H4   30  -0.167   0.227   0.044
    1UNL     H5   31  -0.552   0.247   0.085
    1UNL     H6   32  -0.635   0.016   0.021
    1UNL     H7   33  -0.576  -0.216  -0.013
    1UNL     H8   34  -0.327  -0.277  -0.065
    1UNL     H9   35  -0.180  -0.143  -0.252
    1UNL    H10   36  -0.065  -0.012  -0.252
    1UNL    H11   37   0.006  -0.300  -0.282
    1UNL    H12   38   0.121  -0.169  -0.267
    1UNL    H13   39   0.286  -0.268  -0.113
    1UNL    H14   40   0.231  -0.291   0.049
    1UNL    H15   41   0.206  -0.022  -0.105
    1UNL    H16   42   0.414  -0.071   0.118
    1UNL    H17   43   0.334   0.156   0.109
    1UNL    H18   44   0.380   0.167  -0.063
    1UNL    H19   45   0.512   0.139   0.068
    1UNL    H20   46   0.563  -0.060  -0.066
    1UNL    H21   47   0.182   0.001   0.204
    1UNL    H22   48  -0.037  -0.092   0.190
    1UNL    H23   49   0.092  -0.231   0.187
    1UNL    H24   50  -0.098  -0.271   0.032
   0.00000   0.00000   0.00000   0.00000   0.00000   0.00000   0.00000   0.00000   0.00000
Generated with MDTraj, t= 30.0
 50
    1UNL     C1    1   0.061   0.444   0.080
    1UNL     O1    2   0.005   0.322   0.054
    1UNL     C2    3   0.084   0.223   0.101
    1UNL     O2    4   0.190   0.249   0.155
    1UNL     C3    5   0.048   0.087   0.064
    1UNL     C4    6  -0.073   0.059   0.002
    1UNL     N1    7  -0.193   0.136  -0.013
    1UNL     C5    8  -0.303   0.051  -0.019
    1UNL     C6    9  -0.436   0.091   0.014
    1UNL     O3   10  -0.467   0.221   0.032
    1UNL     C7   11  -0.528  -0.013   0.011
    1UNL     C8   12  -0.486  -0.150  -0.006
    1UNL     C9   13  -0.351  -0.188  -0.025
    1UNL    C10   14  -0.260  -0.081  -0.029
    1UNL    C11   15  -0.110  -0.079  -0.048
    1UNL    C12   16  -0.074  -0.099  -0.201
    1UNL    C13   17   0.009  -0.231  -0.211
    1UNL     N2   18   0.068  -0.250  -0.082
    1UNL    C14   19   0.203  -0.204  -0.051
    1UNL    C15   20   0.239  -0.066  -0.016
    1UNL    C16   21   0.387  -0.054   0.021
    1UNL    C17   22   0.426   0.097   0.064
    1UNL     O4   23   0.475  -0.081  -0.085
    1UNL    C18   24   0.145  -0.026   0.103
    1UNL    C19   25   0.049  -0.140   0.145
    1UNL    C20   26  -0.033  -0.194   0.018
    1UNL     H1   27   0.135   0.471   0.001
    1UNL     H2   28   0.116   0.436   0.173
    1UNL     H3   29  -0.012   0.528   0.086
    1UNL     H4   30  -0.184   0.231   0.027
    1UNL     H5   31  -0.543   0.232   0.097
    1UNL     H6   32  -0.630   0.016  -0.009
    1UNL     H7   33  -0.556  -0.226  -0.041
    1UNL     H8   34  -0.333  -0.295  -0.041
    1UNL     H9   35  -0.165  -0.092  -0.247
    1UNL    H10   36  -0.011  -0.010  -0.238
    1UNL    H11   37  -0.064  -0.315  -0.230
    1UNL    H12   38   0.078  -0.236  -0.286
    1UNL    H13   39   0.260  -0.236  -0.139
    1UNL    H14   40   0.243  -0.269   0.029
    1UNL    H15   41   0.214  -0.004  -0.105
    1UNL    H16   42   0.418  -0.124   0.107
    1UNL    H17   43   0.378   0.132   0.161
    1UNL    H18   44   0.382   0.167  -0.010
    1UNL    H19   45   0.537   0.120   0.081
    1UNL    H20   46   0.570  -0.072  -0.067
    1UNL    H21   47   0.207   0.001   0.192
    1UNL    H22   48  -0.018  -0.100   0.221
    1UNL    H23   49   0.107  -0.223   0.182
    1UNL    H24   50  -0.099  -0.280   0.033
   0.00000   0.00000   0.00000   0.00000   0.00000   0.00000   0.00000   0.00000   0.00000
Generated with MDTraj, t= 31.0
 50
    1UNL     C1    1   0.027   0.447   0.100
    1UNL     O1    2  -0.016   0.320   0.079
    1UNL     C2    3   0.088   0.225   0.095
    1UNL     O2    4   0.199   0.269   0.118
    1UNL     C3    5   0.054   0.093   0.065
    1UNL     C4    6  -0.069   0.063   0.004
    1UNL     N1    7  -0.189   0.139   0.008
    1UNL     C5    8  -0.295   0.059  -0.003
    1UNL     C6    9  -0.431   0.088   0.005
    1UNL     O3   10  -0.464   0.221   0.015
    1UNL     C7   11  -0.523  -0.020   0.006
    1UNL     C8   12  -0.482  -0.147  -0.022
    1UNL     C9   13  -0.344  -0.180  -0.040
    1UNL    C10   14  -0.250  -0.077  -0.021
    1UNL    C11   15  -0.100  -0.073  -0.047
    1UNL    C12   16  -0.064  -0.094  -0.195
    1UNL    C13   17   0.008  -0.223  -0.207
    1UNL     N2   18   0.061  -0.252  -0.074
    1UNL    C14   19   0.210  -0.219  -0.049
    1UNL    C15   20   0.235  -0.074  -0.015
    1UNL    C16   21   0.380  -0.056   0.007
    1UNL    C17   22   0.427   0.081   0.060
    1UNL     O4   23   0.460  -0.100  -0.100
    1UNL    C18   24   0.144  -0.024   0.105
    1UNL    C19   25   0.049  -0.138   0.153
    1UNL    C20   26  -0.024  -0.198   0.030
    1UNL     H1   27   0.123   0.465   0.042
    1UNL     H2   28   0.046   0.453   0.207
    1UNL     H3   29  -0.048   0.524   0.072
    1UNL     H4   30  -0.194   0.235   0.043
    1UNL     H5   31  -0.552   0.222   0.057
    1UNL     H6   32  -0.627   0.004   0.007
    1UNL     H7   33  -0.561  -0.220  -0.025
    1UNL     H8   34  -0.303  -0.278  -0.054
    1UNL     H9   35  -0.158  -0.102  -0.243
    1UNL    H10   36  -0.000  -0.013  -0.242
    1UNL    H11   37  -0.049  -0.314  -0.233
    1UNL    H12   38   0.073  -0.216  -0.288
    1UNL    H13   39   0.274  -0.258  -0.128
    1UNL    H14   40   0.232  -0.282   0.038
    1UNL    H15   41   0.201  -0.005  -0.097
    1UNL    H16   42   0.409  -0.121   0.099
    1UNL    H17   43   0.396   0.111   0.165
    1UNL    H18   44   0.402   0.171  -0.002
    1UNL    H19   45   0.539   0.080   0.077
    1UNL    H20   46   0.561  -0.103  -0.075
    1UNL    H21   47   0.203   0.002   0.195
    1UNL    H22   48  -0.031  -0.101   0.220
    1UNL    H23   49   0.103  -0.216   0.202
    1UNL    H24   50  -0.105  -0.264   0.061
   0.00000   0.00000   0.00000   0.00000   0.00000   0.00000   0.00000   0.00000   0.00000
Generated with MDTraj, t= 32.0
 50
    1UNL     C1    1   0.040   0.438   0.145
    1UNL     O1    2  -0.010   0.324   0.085
    1UNL     C2    3   0.084   0.228   0.091
    1UNL     O2    4   0.196   0.254   0.127
    1UNL     C3    5   0.055   0.094   0.053
    1UNL     C4    6  -0.067   0.059   0.003
    1UNL     N1    7  -0.182   0.144   0.002
    1UNL     C5    8  -0.303   0.057  -0.002
    1UNL     C6    9  -0.436   0.090   0.000
    1UNL     O3   10  -0.473   0.218   0.025
    1UNL     C7   11  -0.528  -0.011  -0.019
    1UNL     C8   12  -0.495  -0.147  -0.043
    1UNL     C9   13  -0.357  -0.174  -0.046
    1UNL    C10   14  -0.259  -0.075  -0.025
    1UNL    C11   15  -0.108  -0.084  -0.044
    1UNL    C12   16  -0.073  -0.108  -0.188
    1UNL    C13   17   0.024  -0.230  -0.191
    1UNL     N2   18   0.075  -0.258  -0.051
    1UNL    C14   19   0.219  -0.226  -0.030
    1UNL    C15   20   0.234  -0.071  -0.025
    1UNL    C16   21   0.384  -0.042  -0.001
    1UNL    C17   22   0.423   0.106   0.006
    1UNL     O4   23   0.466  -0.120  -0.088
    1UNL    C18   24   0.141  -0.014   0.091
    1UNL    C19   25   0.055  -0.126   0.147
    1UNL    C20   26  -0.027  -0.194   0.042
    1UNL     H1   27   0.125   0.479   0.084
    1UNL     H2   28   0.072   0.409   0.243
    1UNL     H3   29  -0.039   0.513   0.156
    1UNL     H4   30  -0.185   0.235   0.045
    1UNL     H5   31  -0.562   0.230   0.056
    1UNL     H6   32  -0.632   0.022  -0.001
    1UNL     H7   33  -0.564  -0.231  -0.032
    1UNL     H8   34  -0.326  -0.277  -0.040
    1UNL     H9   35  -0.155  -0.121  -0.266
    1UNL    H10   36  -0.009  -0.019  -0.204
    1UNL    H11   37  -0.038  -0.311  -0.230
    1UNL    H12   38   0.100  -0.227  -0.262
    1UNL    H13   39   0.266  -0.261  -0.122
    1UNL    H14   40   0.264  -0.285   0.051
    1UNL    H15   41   0.198  -0.010  -0.112
    1UNL    H16   42   0.413  -0.070   0.105
    1UNL    H17   43   0.362   0.169   0.075
    1UNL    H18   44   0.415   0.146  -0.101
    1UNL    H19   45   0.526   0.121   0.049
    1UNL    H20   46   0.571  -0.106  -0.086
    1UNL    H21   47   0.201   0.033   0.173
    1UNL    H22   48  -0.023  -0.081   0.213
    1UNL    H23   49   0.111  -0.198   0.202
    1UNL    H24   50  -0.098  -0.267   0.086
   0.00000   0.00000   0.00000   0.00000   0.00000   0.00000   0.00000   0.00000   0.00000
Generated with MDTraj, t= 33.0
 50
    1UNL     C1    1   0.028   0.449   0.153
    1UNL     O1    2  -0.016   0.330   0.098
    1UNL     C2    3   0.087   0.231   0.109
    1UNL     O2    4   0.192   0.257   0.169
    1UNL     C3    5   0.059   0.099   0.053
    1UNL     C4    6  -0.059   0.062  -0.003
    1UNL     N1    7  -0.178   0.137  -0.003
    1UNL     C5    8  -0.289   0.054  -0.019
    1UNL     C6    9  -0.424   0.091  -0.000
    1UNL     O3   10  -0.464   0.223   0.024
    1UNL     C7   11  -0.520  -0.011  -0.016
    1UNL     C8   12  -0.472  -0.142  -0.041
    1UNL     C9   13  -0.338  -0.180  -0.053
    1UNL    C10   14  -0.251  -0.074  -0.032
    1UNL    C11   15  -0.093  -0.082  -0.049
    1UNL    C12   16  -0.056  -0.106  -0.192
    1UNL    C13   17   0.005  -0.253  -0.185
    1UNL     N2   18   0.059  -0.266  -0.049
    1UNL    C14   19   0.210  -0.225  -0.035
    1UNL    C15   20   0.227  -0.075  -0.020
    1UNL    C16   21   0.374  -0.033  -0.009
    1UNL    C17   22   0.401   0.106  -0.063
    1UNL     O4   23   0.459  -0.126  -0.071
    1UNL    C18   24   0.138  -0.016   0.095
    1UNL    C19   25   0.051  -0.127   0.162
    1UNL    C20   26  -0.035  -0.187   0.042
    1UNL     H1   27   0.114   0.482   0.090
    1UNL     H2   28   0.052   0.424   0.253
    1UNL     H3   29  -0.052   0.521   0.152
    1UNL     H4   30  -0.195   0.230   0.034
    1UNL     H5   31  -0.557   0.229   0.051
    1UNL     H6   32  -0.622   0.002   0.008
    1UNL     H7   33  -0.552  -0.213  -0.040
    1UNL     H8   34  -0.308  -0.285  -0.066
    1UNL     H9   35  -0.154  -0.101  -0.261
    1UNL    H10   36   0.016  -0.032  -0.226
    1UNL    H11   37  -0.068  -0.333  -0.194
    1UNL    H12   38   0.072  -0.277  -0.262
    1UNL    H13   39   0.264  -0.264  -0.122
    1UNL    H14   40   0.256  -0.286   0.043
    1UNL    H15   41   0.190  -0.032  -0.119
    1UNL    H16   42   0.415  -0.035   0.094
    1UNL    H17   43   0.347   0.180   0.000
    1UNL    H18   44   0.365   0.107  -0.173
    1UNL    H19   45   0.509   0.135  -0.046
    1UNL    H20   46   0.556  -0.101  -0.085
    1UNL    H21   47   0.215   0.023   0.165
    1UNL    H22   48  -0.021  -0.084   0.233
    1UNL    H23   49   0.110  -0.197   0.216
    1UNL    H24   50  -0.114  -0.259   0.072
   0.00000   0.00000   0.00000   0.00000   0.00000   0.00000   0.00000   0.00000   0.00000
Generated with MDTraj, t= 34.0
 50
    1UNL     C1    1   0.019   0.445   0.150
    1UNL     O1    2  -0.016   0.327   0.092
    1UNL     C2    3   0.083   0.234   0.115
    1UNL     O2    4   0.184   0.249   0.185
    1UNL     C3    5   0.063   0.098   0.055
    1UNL     C4    6  -0.054   0.063  -0.002
    1UNL     N1    7  -0.176   0.135  -0.006
    1UNL     C5    8  -0.291   0.058  -0.026
    1UNL     C6    9  -0.424   0.096  -0.002
    1UNL     O3   10  -0.457   0.226   0.007
    1UNL     C7   11  -0.517  -0.009  -0.009
    1UNL     C8   12  -0.482  -0.141  -0.031
    1UNL     C9   13  -0.349  -0.178  -0.039
    1UNL    C10   14  -0.253  -0.078  -0.034
    1UNL    C11   15  -0.097  -0.083  -0.043
    1UNL    C12   16  -0.055  -0.109  -0.191
    1UNL    C13   17   0.027  -0.236  -0.193
    1UNL     N2   18   0.064  -0.265  -0.054
    1UNL    C14   19   0.209  -0.231  -0.020
    1UNL    C15   20   0.236  -0.081  -0.008
    1UNL    C16   21   0.385  -0.036  -0.009
    1UNL    C17   22   0.399   0.108  -0.070
    1UNL     O4   23   0.451  -0.124  -0.108
    1UNL    C18   24   0.145  -0.020   0.114
    1UNL    C19   25   0.035  -0.119   0.169
    1UNL    C20   26  -0.027  -0.192   0.040
    1UNL     H1   27   0.122   0.470   0.114
    1UNL     H2   28   0.002   0.432   0.254
    1UNL     H3   29  -0.054   0.516   0.113
    1UNL     H4   30  -0.174   0.217   0.058
    1UNL     H5   31  -0.555   0.228   0.024
    1UNL     H6   32  -0.624   0.016  -0.026
    1UNL     H7   33  -0.556  -0.221  -0.032
    1UNL     H8   34  -0.314  -0.271  -0.078
    1UNL     H9   35  -0.148  -0.118  -0.265
    1UNL    H10   36   0.009  -0.029  -0.226
    1UNL    H11   37  -0.021  -0.323  -0.238
    1UNL    H12   38   0.115  -0.232  -0.253
    1UNL    H13   39   0.274  -0.295  -0.080
    1UNL    H14   40   0.219  -0.279   0.077
    1UNL    H15   41   0.184  -0.047  -0.101
    1UNL    H16   42   0.440  -0.053   0.082
    1UNL    H17   43   0.368   0.190   0.002
    1UNL    H18   44   0.339   0.112  -0.168
    1UNL    H19   45   0.505   0.145  -0.084
    1UNL    H20   46   0.526  -0.076  -0.132
    1UNL    H21   47   0.211   0.024   0.192
    1UNL    H22   48  -0.044  -0.079   0.233
    1UNL    H23   49   0.094  -0.184   0.232
    1UNL    H24   50  -0.100  -0.268   0.075
   0.00000   0.00000   0.00000   0.00000   0.00000   0.00000   0.00000   0.00000   0.00000
Generated with MDTraj, t= 35.0
 50
    1UNL     C1    1   0.028   0.445   0.147
    1UNL     O1    2  -0.007   0.330   0.074
    1UNL     C2    3   0.086   0.232   0.107
    1UNL     O2    4   0.189   0.241   0.175
    1UNL     C3    5   0.060   0.091   0.062
    1UNL     C4    6  -0.053   0.055  -0.003
    1UNL     N1    7  -0.166   0.131  -0.012
    1UNL     C5    8  -0.285   0.060  -0.025
    1UNL     C6    9  -0.421   0.092  -0.013
    1UNL     O3   10  -0.459   0.226   0.002
    1UNL     C7   11  -0.514  -0.005  -0.023
    1UNL     C8   12  -0.493  -0.141  -0.025
    1UNL     C9   13  -0.357  -0.180  -0.030
    1UNL    C10   14  -0.254  -0.083  -0.022
    1UNL    C11   15  -0.102  -0.081  -0.035
    1UNL    C12   16  -0.069  -0.117  -0.184
    1UNL    C13   17  -0.005  -0.251  -0.182
    1UNL     N2   18   0.061  -0.270  -0.046
    1UNL    C14   19   0.211  -0.229  -0.040
    1UNL    C15   20   0.233  -0.078  -0.022
    1UNL    C16   21   0.381  -0.033  -0.007
    1UNL    C17   22   0.407   0.116   0.002
    1UNL     O4   23   0.447  -0.081  -0.125
    1UNL    C18   24   0.147  -0.028   0.103
    1UNL    C19   25   0.054  -0.131   0.164
    1UNL    C20   26  -0.021  -0.187   0.045
    1UNL     H1   27   0.130   0.476   0.107
    1UNL     H2   28   0.020   0.421   0.252
    1UNL     H3   29  -0.048   0.521   0.126
    1UNL     H4   30  -0.158   0.235  -0.007
    1UNL     H5   31  -0.559   0.245   0.002
    1UNL     H6   32  -0.609   0.036  -0.031
    1UNL     H7   33  -0.571  -0.213  -0.038
    1UNL     H8   34  -0.335  -0.286  -0.049
    1UNL     H9   35  -0.155  -0.108  -0.257
    1UNL    H10   36   0.010  -0.050  -0.223
    1UNL    H11   37  -0.081  -0.325  -0.195
    1UNL    H12   38   0.065  -0.285  -0.257
    1UNL    H13   39   0.261  -0.274  -0.128
    1UNL    H14   40   0.263  -0.277   0.043
    1UNL    H15   41   0.188  -0.026  -0.111
    1UNL    H16   42   0.426  -0.091   0.069
    1UNL    H17   43   0.351   0.158   0.093
    1UNL    H18   44   0.385   0.168  -0.095
    1UNL    H19   45   0.511   0.144   0.036
    1UNL    H20   46   0.529  -0.040  -0.139
    1UNL    H21   47   0.209   0.007   0.189
    1UNL    H22   48  -0.010  -0.079   0.232
    1UNL    H23   49   0.102  -0.210   0.224
    1UNL    H24   50  -0.091  -0.264   0.087
   0.00000   0.00000   0.00000   0.00000   0.00000   0.00000   0.00000   0.00000   0.00000
Generated with MDTraj, t= 36.0
 50
    1UNL     C1    1   0.048   0.456   0.115
    1UNL     O1    2  -0.009   0.322   0.085
    1UNL     C2    3   0.091   0.224   0.097
    1UNL     O2    4   0.189   0.250   0.165
    1UNL     C3    5   0.055   0.089   0.057
    1UNL     C4    6  -0.063   0.050  -0.002
    1UNL     N1    7  -0.172   0.129  -0.002
    1UNL     C5    8  -0.288   0.050  -0.005
    1UNL     C6    9  -0.425   0.098  -0.012
    1UNL     O3   10  -0.463   0.231  -0.016
    1UNL     C7   11  -0.525  -0.004  -0.013
    1UNL     C8   12  -0.489  -0.139  -0.021
    1UNL     C9   13  -0.354  -0.176  -0.031
    1UNL    C10   14  -0.257  -0.084  -0.018
    1UNL    C11   15  -0.101  -0.092  -0.036
    1UNL    C12   16  -0.074  -0.113  -0.188
    1UNL    C13   17   0.007  -0.243  -0.193
    1UNL     N2   18   0.068  -0.262  -0.057
    1UNL    C14   19   0.216  -0.221  -0.049
    1UNL    C15   20   0.228  -0.072  -0.021
    1UNL    C16   21   0.382  -0.041  -0.004
    1UNL    C17   22   0.410   0.099   0.056
    1UNL     O4   23   0.439  -0.063  -0.137
    1UNL    C18   24   0.142  -0.019   0.101
    1UNL    C19   25   0.059  -0.139   0.171
    1UNL    C20   26  -0.026  -0.204   0.046
    1UNL     H1   27   0.137   0.464   0.043
    1UNL     H2   28   0.067   0.470   0.221
    1UNL     H3   29  -0.027   0.530   0.083
    1UNL     H4   30  -0.166   0.217   0.049
    1UNL     H5   31  -0.563   0.229  -0.031
    1UNL     H6   32  -0.635   0.014  -0.016
    1UNL     H7   33  -0.568  -0.213  -0.010
    1UNL     H8   34  -0.332  -0.280  -0.028
    1UNL     H9   35  -0.160  -0.099  -0.249
    1UNL    H10   36   0.001  -0.032  -0.217
    1UNL    H11   37  -0.052  -0.331  -0.193
    1UNL    H12   38   0.081  -0.264  -0.269
    1UNL    H13   39   0.275  -0.236  -0.141
    1UNL    H14   40   0.275  -0.276   0.025
    1UNL    H15   41   0.203  -0.009  -0.110
    1UNL    H16   42   0.427  -0.112   0.064
    1UNL    H17   43   0.388   0.103   0.169
    1UNL    H18   44   0.355   0.164  -0.016
    1UNL    H19   45   0.521   0.123   0.046
    1UNL    H20   46   0.536  -0.088  -0.135
    1UNL    H21   47   0.212   0.015   0.180
    1UNL    H22   48  -0.001  -0.100   0.248
    1UNL    H23   49   0.122  -0.215   0.222
    1UNL    H24   50  -0.098  -0.287   0.068
   0.00000   0.00000   0.00000   0.00000   0.00000   0.00000   0.00000   0.00000   0.00000
Generated with MDTraj, t= 37.0
 50
    1UNL     C1    1   0.048   0.442   0.096
    1UNL     O1    2  -0.001   0.315   0.060
    1UNL     C2    3   0.092   0.226   0.090
    1UNL     O2    4   0.198   0.243   0.147
    1UNL     C3    5   0.054   0.085   0.069
    1UNL     C4    6  -0.067   0.050   0.016
    1UNL     N1    7  -0.179   0.135   0.001
    1UNL     C5    8  -0.297   0.053  -0.010
    1UNL     C6    9  -0.432   0.092  -0.012
    1UNL     O3   10  -0.477   0.222   0.006
    1UNL     C7   11  -0.527  -0.010  -0.007
    1UNL     C8   12  -0.488  -0.143  -0.019
    1UNL     C9   13  -0.352  -0.181  -0.023
    1UNL    C10   14  -0.254  -0.078  -0.019
    1UNL    C11   15  -0.102  -0.084  -0.039
    1UNL    C12   16  -0.065  -0.087  -0.193
    1UNL    C13   17   0.022  -0.212  -0.204
    1UNL     N2   18   0.067  -0.256  -0.066
    1UNL    C14   19   0.213  -0.218  -0.043
    1UNL    C15   20   0.234  -0.070  -0.008
    1UNL    C16   21   0.388  -0.045   0.009
    1UNL    C17   22   0.409   0.100   0.049
    1UNL     O4   23   0.445  -0.088  -0.109
    1UNL    C18   24   0.144  -0.027   0.109
    1UNL    C19   25   0.049  -0.142   0.155
    1UNL    C20   26  -0.025  -0.199   0.035
    1UNL     H1   27   0.133   0.460   0.024
    1UNL     H2   28   0.077   0.448   0.199
    1UNL     H3   29  -0.032   0.515   0.075
    1UNL     H4   30  -0.185   0.234   0.012
    1UNL     H5   31  -0.574   0.231   0.011
    1UNL     H6   32  -0.630   0.012   0.010
    1UNL     H7   33  -0.560  -0.222  -0.008
    1UNL     H8   34  -0.326  -0.282   0.006
    1UNL     H9   35  -0.151  -0.104  -0.246
    1UNL    H10   36  -0.017   0.013  -0.226
    1UNL    H11   37  -0.038  -0.286  -0.246
    1UNL    H12   38   0.118  -0.210  -0.258
    1UNL    H13   39   0.279  -0.245  -0.128
    1UNL    H14   40   0.254  -0.270   0.043
    1UNL    H15   41   0.190  -0.005  -0.088
    1UNL    H16   42   0.413  -0.107   0.097
    1UNL    H17   43   0.367   0.116   0.154
    1UNL    H18   44   0.372   0.161  -0.037
    1UNL    H19   45   0.522   0.118   0.059
    1UNL    H20   46   0.446  -0.011  -0.180
    1UNL    H21   47   0.202   0.000   0.198
    1UNL    H22   48  -0.024  -0.123   0.230
    1UNL    H23   49   0.123  -0.213   0.197
    1UNL    H24   50  -0.104  -0.270   0.072
   0.00000   0.00000   0.00000   0.00000   0.00000   0.00000   0.00000   0.00000   0.00000
Generated with MDTraj, t= 38.0
 50
    1UNL     C1    1   0.056   0.448   0.087
    1UNL     O1    2  -0.002   0.327   0.056
    1UNL     C2    3   0.083   0.229   0.099
    1UNL     O2    4   0.185   0.249   0.164
    1UNL     C3    5   0.055   0.097   0.056
    1UNL     C4    6  -0.065   0.066  -0.005
    1UNL     N1    7  -0.190   0.138   0.009
    1UNL     C5    8  -0.299   0.054  -0.004
    1UNL     C6    9  -0.434   0.085   0.015
    1UNL     O3   10  -0.462   0.216   0.042
    1UNL     C7   11  -0.523  -0.023   0.001
    1UNL     C8   12  -0.489  -0.155  -0.027
    1UNL     C9   13  -0.357  -0.184  -0.048
    1UNL    C10   14  -0.257  -0.079  -0.036
    1UNL    C11   15  -0.106  -0.079  -0.054
    1UNL    C12   16  -0.068  -0.102  -0.203
    1UNL    C13   17   0.005  -0.232  -0.207
    1UNL     N2   18   0.064  -0.248  -0.070
    1UNL    C14   19   0.212  -0.221  -0.053
    1UNL    C15   20   0.229  -0.075  -0.019
    1UNL    C16   21   0.379  -0.046   0.022
    1UNL    C17   22   0.417   0.104   0.022
    1UNL     O4   23   0.472  -0.112  -0.064
    1UNL    C18   24   0.143  -0.017   0.100
    1UNL    C19   25   0.048  -0.127   0.156
    1UNL    C20   26  -0.021  -0.183   0.030
    1UNL     H1   27   0.154   0.450   0.035
    1UNL     H2   28   0.064   0.467   0.191
    1UNL     H3   29  -0.010   0.518   0.037
    1UNL     H4   30  -0.192   0.215   0.075
    1UNL     H5   31  -0.554   0.233   0.063
    1UNL     H6   32  -0.627   0.008   0.012
    1UNL     H7   33  -0.566  -0.228  -0.051
    1UNL     H8   34  -0.312  -0.280  -0.057
    1UNL     H9   35  -0.158  -0.108  -0.255
    1UNL    H10   36  -0.006  -0.009  -0.231
    1UNL    H11   37  -0.058  -0.313  -0.216
    1UNL    H12   38   0.080  -0.222  -0.289
    1UNL    H13   39   0.263  -0.241  -0.150
    1UNL    H14   40   0.249  -0.286   0.026
    1UNL    H15   41   0.216  -0.025  -0.119
    1UNL    H16   42   0.390  -0.098   0.124
    1UNL    H17   43   0.367   0.180   0.090
    1UNL    H18   44   0.427   0.144  -0.083
    1UNL    H19   45   0.524   0.112   0.060
    1UNL    H20   46   0.556  -0.055  -0.090
    1UNL    H21   47   0.209   0.013   0.184
    1UNL    H22   48  -0.019  -0.079   0.226
    1UNL    H23   49   0.092  -0.218   0.203
    1UNL    H24   50  -0.080  -0.267   0.073
   0.00000   0.00000   0.00000   0.00000   0.00000   0.00000   0.00000   0.00000   0.00000
Generated with MDTraj, t= 39.0
 50
    1UNL     C1    1   0.032   0.454   0.107
    1UNL     O1    2   0.000   0.331   0.035
    1UNL     C2    3   0.081   0.238   0.094
    1UNL     O2    4   0.178   0.261   0.166
    1UNL     C3    5   0.055   0.104   0.042
    1UNL     C4    6  -0.067   0.071  -0.017
    1UNL     N1    7  -0.188   0.136   0.004
    1UNL     C5    8  -0.297   0.054  -0.011
    1UNL     C6    9  -0.434   0.082   0.023
    1UNL     O3   10  -0.458   0.204   0.077
    1UNL     C7   11  -0.530  -0.022   0.008
    1UNL     C8   12  -0.486  -0.149  -0.032
    1UNL     C9   13  -0.353  -0.178  -0.058
    1UNL    C10   14  -0.257  -0.076  -0.042
    1UNL    C11   15  -0.105  -0.072  -0.059
    1UNL    C12   16  -0.068  -0.106  -0.205
    1UNL    C13   17   0.016  -0.237  -0.203
    1UNL     N2   18   0.064  -0.250  -0.071
    1UNL    C14   19   0.211  -0.215  -0.041
    1UNL    C15   20   0.243  -0.072  -0.005
    1UNL    C16   21   0.399  -0.047   0.027
    1UNL    C17   22   0.426   0.095  -0.002
    1UNL     O4   23   0.476  -0.132  -0.052
    1UNL    C18   24   0.141  -0.014   0.093
    1UNL    C19   25   0.044  -0.130   0.149
    1UNL    C20   26  -0.033  -0.184   0.023
    1UNL     H1   27   0.134   0.488   0.080
    1UNL     H2   28   0.041   0.434   0.211
    1UNL     H3   29  -0.035   0.537   0.093
    1UNL     H4   30  -0.189   0.238   0.022
    1UNL     H5   31  -0.549   0.207   0.104
    1UNL     H6   32  -0.637  -0.009   0.010
    1UNL     H7   33  -0.561  -0.222  -0.056
    1UNL     H8   34  -0.326  -0.264  -0.118
    1UNL     H9   35  -0.164  -0.113  -0.255
    1UNL    H10   36  -0.020  -0.011  -0.235
    1UNL    H11   37  -0.048  -0.315  -0.225
    1UNL    H12   38   0.103  -0.230  -0.271
    1UNL    H13   39   0.263  -0.253  -0.131
    1UNL    H14   40   0.236  -0.277   0.045
    1UNL    H15   41   0.232  -0.024  -0.106
    1UNL    H16   42   0.419  -0.077   0.137
    1UNL    H17   43   0.377   0.160   0.074
    1UNL    H18   44   0.400   0.134  -0.106
    1UNL    H19   45   0.532   0.133   0.011
    1UNL    H20   46   0.487  -0.220  -0.008
    1UNL    H21   47   0.197   0.030   0.177
    1UNL    H22   48  -0.038  -0.088   0.209
    1UNL    H23   49   0.096  -0.203   0.212
    1UNL    H24   50  -0.112  -0.251   0.064
   0.00000   0.00000   0.00000   0.00000   0.00000   0.00000   0.00000   0.00000   0.00000
Generated with MDTraj, t= 40.0
 50
    1UNL     C1    1   0.022   0.456   0.114
    1UNL     O1    2  -0.015   0.324   0.063
    1UNL     C2    3   0.080   0.239   0.088
    1UNL     O2    4   0.187   0.275   0.135
    1UNL     C3    5   0.058   0.099   0.042
    1UNL     C4    6  -0.065   0.067  -0.010
    1UNL     N1    7  -0.184   0.143  -0.008
    1UNL     C5    8  -0.300   0.056  -0.012
    1UNL     C6    9  -0.431   0.082   0.029
    1UNL     O3   10  -0.467   0.214   0.067
    1UNL     C7   11  -0.523  -0.019   0.015
    1UNL     C8   12  -0.479  -0.147  -0.024
    1UNL     C9   13  -0.343  -0.174  -0.053
    1UNL    C10   14  -0.259  -0.070  -0.052
    1UNL    C11   15  -0.102  -0.072  -0.057
    1UNL    C12   16  -0.052  -0.097  -0.210
    1UNL    C13   17   0.025  -0.230  -0.204
    1UNL     N2   18   0.070  -0.258  -0.064
    1UNL    C14   19   0.218  -0.231  -0.033
    1UNL    C15   20   0.235  -0.080  -0.014
    1UNL    C16   21   0.385  -0.054   0.026
    1UNL    C17   22   0.408   0.097   0.010
    1UNL     O4   23   0.473  -0.135  -0.060
    1UNL    C18   24   0.142  -0.019   0.097
    1UNL    C19   25   0.045  -0.134   0.144
    1UNL    C20   26  -0.033  -0.188   0.022
    1UNL     H1   27   0.129   0.484   0.097
    1UNL     H2   28   0.015   0.462   0.221
    1UNL     H3   29  -0.040   0.537   0.072
    1UNL     H4   30  -0.189   0.227   0.054
    1UNL     H5   31  -0.556   0.233   0.101
    1UNL     H6   32  -0.624  -0.009   0.046
    1UNL     H7   33  -0.547  -0.229  -0.039
    1UNL     H8   34  -0.319  -0.267  -0.098
    1UNL     H9   35  -0.139  -0.079  -0.279
    1UNL    H10   36   0.011  -0.016  -0.234
    1UNL    H11   37  -0.044  -0.308  -0.225
    1UNL    H12   38   0.102  -0.235  -0.281
    1UNL    H13   39   0.281  -0.272  -0.115
    1UNL    H14   40   0.234  -0.289   0.058
    1UNL    H15   41   0.212  -0.037  -0.115
    1UNL    H16   42   0.396  -0.082   0.137
    1UNL    H17   43   0.331   0.153   0.070
    1UNL    H18   44   0.409   0.122  -0.102
    1UNL    H19   45   0.508   0.129   0.049
    1UNL    H20   46   0.504  -0.212  -0.019
    1UNL    H21   47   0.194   0.011   0.190
    1UNL    H22   48  -0.035  -0.110   0.220
    1UNL    H23   49   0.106  -0.211   0.189
    1UNL    H24   50  -0.114  -0.257   0.050
   0.00000   0.00000   0.00000   0.00000   0.00000   0.00000   0.00000   0.00000   0.00000
Generated with MDTraj, t= 41.0
 50
    1UNL     C1    1   0.045   0.441   0.121
    1UNL     O1    2  -0.012   0.324   0.088
    1UNL     C2    3   0.084   0.227   0.091
    1UNL     O2    4   0.200   0.256   0.126
    1UNL     C3    5   0.049   0.094   0.049
    1UNL     C4    6  -0.072   0.065  -0.007
    1UNL     N1    7  -0.187   0.142  -0.013
    1UNL     C5    8  -0.297   0.053  -0.007
    1UNL     C6    9  -0.434   0.088   0.004
    1UNL     O3   10  -0.463   0.216   0.028
    1UNL     C7   11  -0.528  -0.020   0.000
    1UNL     C8   12  -0.490  -0.149  -0.025
    1UNL     C9   13  -0.353  -0.179  -0.036
    1UNL    C10   14  -0.255  -0.082  -0.031
    1UNL    C11   15  -0.103  -0.075  -0.050
    1UNL    C12   16  -0.065  -0.108  -0.202
    1UNL    C13   17   0.008  -0.236  -0.200
    1UNL     N2   18   0.071  -0.254  -0.065
    1UNL    C14   19   0.218  -0.219  -0.045
    1UNL    C15   20   0.232  -0.072  -0.015
    1UNL    C16   21   0.377  -0.044   0.013
    1UNL    C17   22   0.420   0.101   0.031
    1UNL     O4   23   0.468  -0.107  -0.078
    1UNL    C18   24   0.142  -0.016   0.100
    1UNL    C19   25   0.051  -0.123   0.155
    1UNL    C20   26  -0.024  -0.178   0.031
    1UNL     H1   27   0.112   0.488   0.043
    1UNL     H2   28   0.105   0.434   0.213
    1UNL     H3   29  -0.041   0.507   0.142
    1UNL     H4   30  -0.189   0.230   0.039
    1UNL     H5   31  -0.562   0.225   0.037
    1UNL     H6   32  -0.626  -0.009   0.050
    1UNL     H7   33  -0.565  -0.227  -0.009
    1UNL     H8   34  -0.332  -0.283  -0.067
    1UNL     H9   35  -0.161  -0.109  -0.265
    1UNL    H10   36  -0.014  -0.031  -0.245
    1UNL    H11   37  -0.061  -0.317  -0.223
    1UNL    H12   38   0.083  -0.240  -0.277
    1UNL    H13   39   0.264  -0.250  -0.141
    1UNL    H14   40   0.269  -0.273   0.036
    1UNL    H15   41   0.217  -0.017  -0.112
    1UNL    H16   42   0.401  -0.078   0.119
    1UNL    H17   43   0.363   0.143   0.120
    1UNL    H18   44   0.420   0.156  -0.069
    1UNL    H19   45   0.526   0.085   0.062
    1UNL    H20   46   0.492  -0.189  -0.042
    1UNL    H21   47   0.202   0.014   0.188
    1UNL    H22   48  -0.006  -0.082   0.245
    1UNL    H23   49   0.095  -0.218   0.181
    1UNL    H24   50  -0.087  -0.262   0.064
   0.00000   0.00000   0.00000   0.00000   0.00000   0.00000   0.00000   0.00000   0.00000
Generated with MDTraj, t= 42.0
 50
    1UNL     C1    1   0.028   0.439   0.125
    1UNL     O1    2  -0.010   0.316   0.076
    1UNL     C2    3   0.087   0.225   0.102
    1UNL     O2    4   0.199   0.250   0.147
    1UNL     C3    5   0.052   0.089   0.065
    1UNL     C4    6  -0.068   0.061   0.006
    1UNL     N1    7  -0.183   0.134  -0.002
    1UNL     C5    8  -0.297   0.054  -0.002
    1UNL     C6    9  -0.437   0.085  -0.011
    1UNL     O3   10  -0.460   0.222  -0.012
    1UNL     C7   11  -0.528  -0.016  -0.019
    1UNL     C8   12  -0.487  -0.144  -0.020
    1UNL     C9   13  -0.355  -0.181  -0.015
    1UNL    C10   14  -0.258  -0.078  -0.019
    1UNL    C11   15  -0.108  -0.077  -0.035
    1UNL    C12   16  -0.076  -0.098  -0.184
    1UNL    C13   17  -0.000  -0.233  -0.201
    1UNL     N2   18   0.063  -0.250  -0.067
    1UNL    C14   19   0.210  -0.214  -0.046
    1UNL    C15   20   0.241  -0.068  -0.021
    1UNL    C16   21   0.396  -0.053   0.011
    1UNL    C17   22   0.425   0.097   0.035
    1UNL     O4   23   0.471  -0.101  -0.106
    1UNL    C18   24   0.152  -0.015   0.096
    1UNL    C19   25   0.061  -0.125   0.155
    1UNL    C20   26  -0.023  -0.191   0.035
    1UNL     H1   27   0.103   0.497   0.066
    1UNL     H2   28   0.068   0.427   0.225
    1UNL     H3   29  -0.064   0.498   0.134
    1UNL     H4   30  -0.185   0.231   0.025
    1UNL     H5   31  -0.560   0.237  -0.024
    1UNL     H6   32  -0.627   0.017  -0.012
    1UNL     H7   33  -0.558  -0.224  -0.020
    1UNL     H8   34  -0.324  -0.281  -0.007
    1UNL     H9   35  -0.174  -0.092  -0.241
    1UNL    H10   36  -0.019  -0.022  -0.226
    1UNL    H11   37  -0.058  -0.323  -0.228
    1UNL    H12   38   0.078  -0.219  -0.270
    1UNL    H13   39   0.266  -0.236  -0.140
    1UNL    H14   40   0.240  -0.281   0.035
    1UNL    H15   41   0.204  -0.003  -0.105
    1UNL    H16   42   0.420  -0.112   0.101
    1UNL    H17   43   0.383   0.136   0.133
    1UNL    H18   44   0.391   0.156  -0.056
    1UNL    H19   45   0.535   0.117   0.046
    1UNL    H20   46   0.427  -0.070  -0.192
    1UNL    H21   47   0.216   0.031   0.174
    1UNL    H22   48  -0.011  -0.086   0.237
    1UNL    H23   49   0.122  -0.200   0.202
    1UNL    H24   50  -0.093  -0.266   0.073
   0.00000   0.00000   0.00000   0.00000   0.00000   0.00000   0.00000   0.00000   0.00000
Generated with MDTraj, t= 43.0
 50
    1UNL     C1    1   0.030   0.455   0.124
    1UNL     O1    2  -0.009   0.327   0.081
    1UNL     C2    3   0.089   0.227   0.113
    1UNL     O2    4   0.192   0.258   0.175
    1UNL     C3    5   0.056   0.086   0.070
    1UNL     C4    6  -0.062   0.055   0.003
    1UNL     N1    7  -0.180   0.130   0.003
    1UNL     C5    8  -0.294   0.048  -0.016
    1UNL     C6    9  -0.426   0.096  -0.019
    1UNL     O3   10  -0.462   0.233  -0.019
    1UNL     C7   11  -0.521  -0.004  -0.015
    1UNL     C8   12  -0.480  -0.137  -0.013
    1UNL     C9   13  -0.353  -0.181  -0.020
    1UNL    C10   14  -0.253  -0.085  -0.024
    1UNL    C11   15  -0.103  -0.087  -0.038
    1UNL    C12   16  -0.068  -0.108  -0.185
    1UNL    C13   17   0.014  -0.241  -0.195
    1UNL     N2   18   0.071  -0.255  -0.062
    1UNL    C14   19   0.214  -0.232  -0.040
    1UNL    C15   20   0.229  -0.075  -0.015
    1UNL    C16   21   0.381  -0.040  -0.015
    1UNL    C17   22   0.404   0.107   0.007
    1UNL     O4   23   0.451  -0.091  -0.127
    1UNL    C18   24   0.141  -0.026   0.113
    1UNL    C19   25   0.058  -0.149   0.163
    1UNL    C20   26  -0.024  -0.192   0.044
    1UNL     H1   27   0.138   0.471   0.122
    1UNL     H2   28  -0.002   0.465   0.227
    1UNL     H3   29  -0.019   0.534   0.067
    1UNL     H4   30  -0.191   0.222   0.040
    1UNL     H5   31  -0.560   0.232  -0.042
    1UNL     H6   32  -0.626   0.029  -0.029
    1UNL     H7   33  -0.555  -0.210  -0.040
    1UNL     H8   34  -0.331  -0.290  -0.021
    1UNL     H9   35  -0.156  -0.109  -0.251
    1UNL    H10   36  -0.006  -0.023  -0.219
    1UNL    H11   37  -0.062  -0.324  -0.203
    1UNL    H12   38   0.087  -0.251  -0.270
    1UNL    H13   39   0.275  -0.274  -0.122
    1UNL    H14   40   0.239  -0.281   0.055
    1UNL    H15   41   0.179  -0.014  -0.094
    1UNL    H16   42   0.425  -0.101   0.061
    1UNL    H17   43   0.363   0.131   0.110
    1UNL    H18   44   0.360   0.180  -0.063
    1UNL    H19   45   0.510   0.147   0.025
    1UNL    H20   46   0.540  -0.037  -0.152
    1UNL    H21   47   0.218  -0.003   0.189
    1UNL    H22   48  -0.025  -0.122   0.237
    1UNL    H23   49   0.130  -0.220   0.208
    1UNL    H24   50  -0.096  -0.267   0.076
   0.00000   0.00000   0.00000   0.00000   0.00000   0.00000   0.00000   0.00000   0.00000
Generated with MDTraj, t= 44.0
 50
    1UNL     C1    1   0.053   0.448   0.138
    1UNL     O1    2   0.008   0.337   0.076
    1UNL     C2    3   0.083   0.225   0.114
    1UNL     O2    4   0.177   0.234   0.192
    1UNL     C3    5   0.057   0.089   0.073
    1UNL     C4    6  -0.053   0.057   0.001
    1UNL     N1    7  -0.163   0.138  -0.023
    1UNL     C5    8  -0.288   0.061  -0.026
    1UNL     C6    9  -0.420   0.092  -0.016
    1UNL     O3   10  -0.456   0.222   0.014
    1UNL     C7   11  -0.518  -0.009  -0.016
    1UNL     C8   12  -0.481  -0.141  -0.025
    1UNL     C9   13  -0.352  -0.174  -0.041
    1UNL    C10   14  -0.258  -0.072  -0.032
    1UNL    C11   15  -0.102  -0.088  -0.046
    1UNL    C12   16  -0.063  -0.130  -0.187
    1UNL    C13   17   0.018  -0.257  -0.177
    1UNL     N2   18   0.068  -0.273  -0.043
    1UNL    C14   19   0.210  -0.230  -0.021
    1UNL    C15   20   0.227  -0.073  -0.014
    1UNL    C16   21   0.372  -0.027  -0.011
    1UNL    C17   22   0.370   0.130  -0.026
    1UNL     O4   23   0.449  -0.074  -0.128
    1UNL    C18   24   0.145  -0.020   0.109
    1UNL    C19   25   0.047  -0.139   0.157
    1UNL    C20   26  -0.030  -0.195   0.043
    1UNL     H1   27   0.149   0.479   0.097
    1UNL     H2   28   0.059   0.427   0.244
    1UNL     H3   29  -0.019   0.525   0.119
    1UNL     H4   30  -0.179   0.231   0.016
    1UNL     H5   31  -0.553   0.228   0.000
    1UNL     H6   32  -0.619   0.013  -0.031
    1UNL     H7   33  -0.567  -0.203  -0.049
    1UNL     H8   34  -0.319  -0.273  -0.063
    1UNL     H9   35  -0.136  -0.146  -0.263
    1UNL    H10   36   0.008  -0.044  -0.224
    1UNL    H11   37  -0.048  -0.350  -0.190
    1UNL    H12   38   0.094  -0.260  -0.248
    1UNL    H13   39   0.279  -0.270  -0.097
    1UNL    H14   40   0.239  -0.283   0.071
    1UNL    H15   41   0.178  -0.020  -0.100
    1UNL    H16   42   0.423  -0.065   0.075
    1UNL    H17   43   0.331   0.184   0.066
    1UNL    H18   44   0.335   0.177  -0.121
    1UNL    H19   45   0.481   0.157  -0.020
    1UNL    H20   46   0.420  -0.168  -0.156
    1UNL    H21   47   0.216   0.016   0.187
    1UNL    H22   48  -0.020  -0.079   0.227
    1UNL    H23   49   0.098  -0.223   0.211
    1UNL    H24   50  -0.102  -0.270   0.075
   0.00000   0.00000   0.00000   0.00000   0.00000   0.00000   0.00000   0.00000   0.00000
Generated with MDTraj, t= 45.0
 50
    1UNL     C1    1   0.034   0.446   0.126
    1UNL     O1    2  -0.004   0.323   0.075
    1UNL     C2    3   0.085   0.222   0.112
    1UNL     O2    4   0.174   0.240   0.194
    1UNL     C3    5   0.055   0.093   0.060
    1UNL     C4    6  -0.059   0.061  -0.013
    1UNL     N1    7  -0.177   0.142  -0.008
    1UNL     C5    8  -0.288   0.053  -0.014
    1UNL     C6    9  -0.424   0.092   0.003
    1UNL     O3   10  -0.449   0.225   0.022
    1UNL     C7   11  -0.512  -0.008  -0.011
    1UNL     C8   12  -0.474  -0.137  -0.044
    1UNL     C9   13  -0.340  -0.173  -0.060
    1UNL    C10   14  -0.244  -0.078  -0.043
    1UNL    C11   15  -0.095  -0.086  -0.045
    1UNL    C12   16  -0.052  -0.113  -0.185
    1UNL    C13   17   0.011  -0.251  -0.181
    1UNL     N2   18   0.064  -0.270  -0.041
    1UNL    C14   19   0.211  -0.233  -0.019
    1UNL    C15   20   0.225  -0.080  -0.013
    1UNL    C16   21   0.370  -0.030  -0.017
    1UNL    C17   22   0.387   0.122  -0.030
    1UNL     O4   23   0.439  -0.095  -0.125
    1UNL    C18   24   0.146  -0.024   0.108
    1UNL    C19   25   0.042  -0.125   0.173
    1UNL    C20   26  -0.028  -0.190   0.052
    1UNL     H1   27   0.131   0.473   0.084
    1UNL     H2   28   0.051   0.417   0.230
    1UNL     H3   29  -0.039   0.528   0.118
    1UNL     H4   30  -0.188   0.234   0.041
    1UNL     H5   31  -0.541   0.248   0.006
    1UNL     H6   32  -0.619   0.016   0.006
    1UNL     H7   33  -0.546  -0.217  -0.049
    1UNL     H8   34  -0.317  -0.278  -0.077
    1UNL     H9   35  -0.137  -0.117  -0.249
    1UNL    H10   36   0.021  -0.032  -0.233
    1UNL    H11   37  -0.054  -0.337  -0.214
    1UNL    H12   38   0.098  -0.256  -0.243
    1UNL    H13   39   0.262  -0.267  -0.110
    1UNL    H14   40   0.260  -0.292   0.061
    1UNL    H15   41   0.173  -0.033  -0.100
    1UNL    H16   42   0.425  -0.061   0.071
    1UNL    H17   43   0.351   0.165   0.069
    1UNL    H18   44   0.330   0.165  -0.114
    1UNL    H19   45   0.499   0.140  -0.047
    1UNL    H20   46   0.535  -0.085  -0.119
    1UNL    H21   47   0.217   0.024   0.178
    1UNL    H22   48  -0.019  -0.064   0.243
    1UNL    H23   49   0.105  -0.199   0.231
    1UNL    H24   50  -0.105  -0.258   0.088
   0.00000   0.00000   0.00000   0.00000   0.00000   0.00000   0.00000   0.00000   0.00000
Generated with MDTraj, t= 46.0
 50
    1UNL     C1    1   0.019   0.450   0.129
    1UNL     O1    2  -0.014   0.322   0.084
    1UNL     C2    3   0.083   0.227   0.097
    1UNL     O2    4   0.189   0.254   0.153
    1UNL     C3    5   0.055   0.101   0.055
    1UNL     C4    6  -0.068   0.062   0.008
    1UNL     N1    7  -0.184   0.136   0.007
    1UNL     C5    8  -0.292   0.056  -0.010
    1UNL     C6    9  -0.428   0.092  -0.005
    1UNL     O3   10  -0.461   0.223   0.026
    1UNL     C7   11  -0.519  -0.014  -0.028
    1UNL     C8   12  -0.477  -0.141  -0.048
    1UNL     C9   13  -0.345  -0.181  -0.036
    1UNL    C10   14  -0.254  -0.081  -0.021
    1UNL    C11   15  -0.103  -0.078  -0.037
    1UNL    C12   16  -0.060  -0.095  -0.190
    1UNL    C13   17   0.018  -0.235  -0.196
    1UNL     N2   18   0.059  -0.260  -0.052
    1UNL    C14   19   0.210  -0.229  -0.037
    1UNL    C15   20   0.231  -0.077  -0.021
    1UNL    C16   21   0.383  -0.046   0.003
    1UNL    C17   22   0.424   0.098   0.001
    1UNL     O4   23   0.460  -0.107  -0.112
    1UNL    C18   24   0.152  -0.022   0.098
    1UNL    C19   25   0.054  -0.126   0.160
    1UNL    C20   26  -0.034  -0.193   0.051
    1UNL     H1   27   0.127   0.461   0.123
    1UNL     H2   28  -0.016   0.455   0.235
    1UNL     H3   29  -0.035   0.525   0.067
    1UNL     H4   30  -0.186   0.236   0.038
    1UNL     H5   31  -0.550   0.240  -0.004
    1UNL     H6   32  -0.619   0.002   0.004
    1UNL     H7   33  -0.547  -0.224  -0.042
    1UNL     H8   34  -0.322  -0.288  -0.045
    1UNL     H9   35  -0.143  -0.084  -0.259
    1UNL    H10   36   0.013  -0.014  -0.222
    1UNL    H11   37  -0.033  -0.324  -0.239
    1UNL    H12   38   0.111  -0.234  -0.253
    1UNL    H13   39   0.265  -0.277  -0.120
    1UNL    H14   40   0.247  -0.288   0.048
    1UNL    H15   41   0.195  -0.028  -0.114
    1UNL    H16   42   0.426  -0.092   0.096
    1UNL    H17   43   0.370   0.144   0.088
    1UNL    H18   44   0.372   0.144  -0.089
    1UNL    H19   45   0.535   0.119   0.005
    1UNL    H20   46   0.399  -0.149  -0.166
    1UNL    H21   47   0.225  -0.002   0.180
    1UNL    H22   48  -0.010  -0.075   0.234
    1UNL    H23   49   0.125  -0.195   0.218
    1UNL    H24   50  -0.108  -0.262   0.094
   0.00000   0.00000   0.00000   0.00000   0.00000   0.00000   0.00000   0.00000   0.00000
Generated with MDTraj, t= 47.0
 50
    1UNL     C1    1   0.038   0.454   0.145
    1UNL     O1    2  -0.007   0.331   0.080
    1UNL     C2    3   0.089   0.238   0.087
    1UNL     O2    4   0.208   0.256   0.117
    1UNL     C3    5   0.052   0.099   0.054
    1UNL     C4    6  -0.069   0.059   0.004
    1UNL     N1    7  -0.181   0.138   0.016
    1UNL     C5    8  -0.300   0.056  -0.009
    1UNL     C6    9  -0.435   0.087   0.000
    1UNL     O3   10  -0.485   0.221   0.013
    1UNL     C7   11  -0.528  -0.019  -0.018
    1UNL     C8   12  -0.491  -0.148  -0.026
    1UNL     C9   13  -0.355  -0.179  -0.032
    1UNL    C10   14  -0.262  -0.078  -0.028
    1UNL    C11   15  -0.108  -0.082  -0.043
    1UNL    C12   16  -0.077  -0.110  -0.191
    1UNL    C13   17   0.009  -0.234  -0.195
    1UNL     N2   18   0.069  -0.269  -0.062
    1UNL    C14   19   0.211  -0.214  -0.056
    1UNL    C15   20   0.238  -0.066  -0.022
    1UNL    C16   21   0.388  -0.042   0.014
    1UNL    C17   22   0.433   0.096   0.037
    1UNL     O4   23   0.474  -0.103  -0.096
    1UNL    C18   24   0.149  -0.020   0.100
    1UNL    C19   25   0.050  -0.137   0.152
    1UNL    C20   26  -0.031  -0.195   0.034
    1UNL     H1   27   0.115   0.482   0.072
    1UNL     H2   28   0.093   0.431   0.239
    1UNL     H3   29  -0.041   0.532   0.157
    1UNL     H4   30  -0.171   0.237   0.043
    1UNL     H5   31  -0.580   0.220  -0.009
    1UNL     H6   32  -0.635  -0.002  -0.012
    1UNL     H7   33  -0.563  -0.228  -0.020
    1UNL     H8   34  -0.324  -0.278  -0.057
    1UNL     H9   35  -0.169  -0.119  -0.255
    1UNL    H10   36  -0.019  -0.029  -0.230
    1UNL    H11   37  -0.052  -0.321  -0.215
    1UNL    H12   38   0.084  -0.234  -0.278
    1UNL    H13   39   0.256  -0.241  -0.152
    1UNL    H14   40   0.268  -0.278   0.013
    1UNL    H15   41   0.214  -0.004  -0.112
    1UNL    H16   42   0.418  -0.099   0.109
    1UNL    H17   43   0.377   0.138   0.125
    1UNL    H18   44   0.422   0.177  -0.043
    1UNL    H19   45   0.536   0.098   0.075
    1UNL    H20   46   0.522  -0.175  -0.056
    1UNL    H21   47   0.203   0.024   0.186
    1UNL    H22   48  -0.007  -0.085   0.230
    1UNL    H23   49   0.107  -0.229   0.193
    1UNL    H24   50  -0.097  -0.278   0.065
   0.00000   0.00000   0.00000   0.00000   0.00000   0.00000   0.00000   0.00000   0.00000
Generated with MDTraj, t= 48.0
 50
    1UNL     C1    1   0.034   0.461   0.113
    1UNL     O1    2  -0.016   0.325   0.091
    1UNL     C2    3   0.086   0.235   0.095
    1UNL     O2    4   0.202   0.263   0.125
    1UNL     C3    5   0.053   0.099   0.053
    1UNL     C4    6  -0.067   0.060  -0.005
    1UNL     N1    7  -0.183   0.135  -0.005
    1UNL     C5    8  -0.300   0.054  -0.020
    1UNL     C6    9  -0.432   0.087   0.005
    1UNL     O3   10  -0.466   0.218   0.023
    1UNL     C7   11  -0.521  -0.016   0.008
    1UNL     C8   12  -0.481  -0.151  -0.000
    1UNL     C9   13  -0.352  -0.182  -0.028
    1UNL    C10   14  -0.260  -0.078  -0.030
    1UNL    C11   15  -0.108  -0.083  -0.047
    1UNL    C12   16  -0.077  -0.105  -0.205
    1UNL    C13   17   0.007  -0.225  -0.210
    1UNL     N2   18   0.068  -0.244  -0.076
    1UNL    C14   19   0.207  -0.215  -0.062
    1UNL    C15   20   0.237  -0.073  -0.025
    1UNL    C16   21   0.385  -0.050   0.024
    1UNL    C17   22   0.426   0.098   0.049
    1UNL     O4   23   0.489  -0.109  -0.069
    1UNL    C18   24   0.137  -0.027   0.090
    1UNL    C19   25   0.046  -0.145   0.151
    1UNL    C20   26  -0.029  -0.193   0.028
    1UNL     H1   27   0.077   0.470   0.015
    1UNL     H2   28   0.115   0.467   0.187
    1UNL     H3   29  -0.049   0.532   0.124
    1UNL     H4   30  -0.186   0.225   0.038
    1UNL     H5   31  -0.566   0.236   0.028
    1UNL     H6   32  -0.627   0.007   0.010
    1UNL     H7   33  -0.562  -0.223   0.001
    1UNL     H8   34  -0.333  -0.282  -0.067
    1UNL     H9   35  -0.169  -0.129  -0.270
    1UNL    H10   36  -0.028  -0.024  -0.244
    1UNL    H11   37  -0.050  -0.310  -0.240
    1UNL    H12   38   0.093  -0.213  -0.285
    1UNL    H13   39   0.260  -0.246  -0.152
    1UNL    H14   40   0.243  -0.281   0.019
    1UNL    H15   41   0.219  -0.012  -0.117
    1UNL    H16   42   0.410  -0.104   0.123
    1UNL    H17   43   0.380   0.134   0.144
    1UNL    H18   44   0.407   0.177  -0.031
    1UNL    H19   45   0.533   0.097   0.076
    1UNL    H20   46   0.495  -0.213  -0.057
    1UNL    H21   47   0.206   0.004   0.170
    1UNL    H22   48  -0.032  -0.100   0.214
    1UNL    H23   49   0.098  -0.234   0.206
    1UNL    H24   50  -0.091  -0.280   0.055
   0.00000   0.00000   0.00000   0.00000   0.00000   0.00000   0.00000   0.00000   0.00000
Generated with MDTraj, t= 49.0
 50
    1UNL     C1    1   0.014   0.441   0.107
    1UNL     O1    2  -0.010   0.320   0.040
    1UNL     C2    3   0.082   0.227   0.089
    1UNL     O2    4   0.187   0.249   0.151
    1UNL     C3    5   0.050   0.095   0.051
    1UNL     C4    6  -0.071   0.058  -0.004
    1UNL     N1    7  -0.182   0.137  -0.022
    1UNL     C5    8  -0.294   0.055  -0.022
    1UNL     C6    9  -0.426   0.089   0.019
    1UNL     O3   10  -0.452   0.224   0.046
    1UNL     C7   11  -0.520  -0.019   0.031
    1UNL     C8   12  -0.481  -0.150   0.000
    1UNL     C9   13  -0.356  -0.179  -0.030
    1UNL    C10   14  -0.258  -0.080  -0.039
    1UNL    C11   15  -0.110  -0.082  -0.055
    1UNL    C12   16  -0.072  -0.083  -0.203
    1UNL    C13   17   0.024  -0.207  -0.213
    1UNL     N2   18   0.065  -0.249  -0.075
    1UNL    C14   19   0.207  -0.216  -0.050
    1UNL    C15   20   0.239  -0.069  -0.020
    1UNL    C16   21   0.394  -0.056   0.031
    1UNL    C17   22   0.429   0.096   0.040
    1UNL     O4   23   0.483  -0.114  -0.061
    1UNL    C18   24   0.138  -0.018   0.092
    1UNL    C19   25   0.040  -0.132   0.142
    1UNL    C20   26  -0.032  -0.194   0.020
    1UNL     H1   27   0.114   0.459   0.073
    1UNL     H2   28   0.007   0.431   0.215
    1UNL     H3   29  -0.058   0.508   0.059
    1UNL     H4   30  -0.195   0.227   0.021
    1UNL     H5   31  -0.552   0.236   0.057
    1UNL     H6   32  -0.626  -0.003   0.040
    1UNL     H7   33  -0.552  -0.231  -0.002
    1UNL     H8   34  -0.319  -0.278  -0.040
    1UNL     H9   35  -0.168  -0.112  -0.257
    1UNL    H10   36  -0.037   0.007  -0.240
    1UNL    H11   37  -0.012  -0.294  -0.263
    1UNL    H12   38   0.115  -0.166  -0.272
    1UNL    H13   39   0.270  -0.255  -0.130
    1UNL    H14   40   0.232  -0.267   0.044
    1UNL    H15   41   0.204  -0.015  -0.112
    1UNL    H16   42   0.416  -0.106   0.131
    1UNL    H17   43   0.363   0.136   0.121
    1UNL    H18   44   0.399   0.148  -0.054
    1UNL    H19   45   0.535   0.111   0.071
    1UNL    H20   46   0.501  -0.216  -0.044
    1UNL    H21   47   0.213   0.011   0.168
    1UNL    H22   48  -0.048  -0.097   0.200
    1UNL    H23   49   0.090  -0.219   0.196
    1UNL    H24   50  -0.108  -0.264   0.062
   0.00000   0.00000   0.00000   0.00000   0.00000   0.00000   0.00000   0.00000   0.00000
Generated with MDTraj, t= 50.0
 50
    1UNL     C1    1   0.047   0.449   0.094
    1UNL     O1    2   0.002   0.328   0.040
    1UNL     C2    3   0.074   0.229   0.091
    1UNL     O2    4   0.158   0.239   0.181
    1UNL     C3    5   0.052   0.094   0.040
    1UNL     C4    6  -0.064   0.065  -0.025
    1UNL     N1    7  -0.181   0.145  -0.015
    1UNL     C5    8  -0.292   0.052   0.003
    1UNL     C6    9  -0.427   0.090   0.032
    1UNL     O3   10  -0.462   0.224   0.066
    1UNL     C7   11  -0.514  -0.018   0.027
    1UNL     C8   12  -0.482  -0.144  -0.013
    1UNL     C9   13  -0.351  -0.176  -0.043
    1UNL    C10   14  -0.249  -0.080  -0.030
    1UNL    C11   15  -0.106  -0.076  -0.069
    1UNL    C12   16  -0.071  -0.113  -0.218
    1UNL    C13   17   0.021  -0.241  -0.219
    1UNL     N2   18   0.072  -0.257  -0.077
    1UNL    C14   19   0.216  -0.222  -0.053
    1UNL    C15   20   0.230  -0.072  -0.022
    1UNL    C16   21   0.381  -0.040   0.023
    1UNL    C17   22   0.416   0.108   0.036
    1UNL     O4   23   0.485  -0.108  -0.053
    1UNL    C18   24   0.131  -0.015   0.089
    1UNL    C19   25   0.036  -0.129   0.147
    1UNL    C20   26  -0.033  -0.190   0.019
    1UNL     H1   27   0.154   0.442   0.115
    1UNL     H2   28  -0.006   0.463   0.190
    1UNL     H3   29   0.022   0.521   0.013
    1UNL     H4   30  -0.183   0.235   0.035
    1UNL     H5   31  -0.558   0.242   0.048
    1UNL     H6   32  -0.617  -0.002   0.063
    1UNL     H7   33  -0.556  -0.223  -0.015
    1UNL     H8   34  -0.315  -0.280  -0.041
    1UNL     H9   35  -0.167  -0.142  -0.263
    1UNL    H10   36  -0.038  -0.026  -0.271
    1UNL    H11   37  -0.038  -0.323  -0.256
    1UNL    H12   38   0.112  -0.234  -0.289
    1UNL    H13   39   0.276  -0.243  -0.142
    1UNL    H14   40   0.256  -0.281   0.032
    1UNL    H15   41   0.204  -0.010  -0.111
    1UNL    H16   42   0.393  -0.085   0.123
    1UNL    H17   43   0.356   0.166   0.111
    1UNL    H18   44   0.419   0.164  -0.059
    1UNL    H19   45   0.523   0.108   0.073
    1UNL    H20   46   0.491  -0.202  -0.020
    1UNL    H21   47   0.206   0.031   0.158
    1UNL    H22   48  -0.050  -0.085   0.207
    1UNL    H23   49   0.083  -0.219   0.194
    1UNL    H24   50  -0.099  -0.275   0.048
   0.00000   0.00000   0.00000   0.00000   0.00000   0.00000   0.00000   0.00000   0.00000
Generated with MDTraj, t= 51.0
 50
    1UNL     C1    1   0.059   0.456   0.091
    1UNL     O1    2   0.012   0.329   0.038
    1UNL     C2    3   0.080   0.226   0.098
    1UNL     O2    4   0.172   0.253   0.177
    1UNL     C3    5   0.044   0.089   0.065
    1UNL     C4    6  -0.072   0.061  -0.000
    1UNL     N1    7  -0.182   0.140  -0.014
    1UNL     C5    8  -0.295   0.051  -0.014
    1UNL     C6    9  -0.429   0.085   0.015
    1UNL     O3   10  -0.458   0.216   0.062
    1UNL     C7   11  -0.526  -0.019   0.009
    1UNL     C8   12  -0.484  -0.146  -0.017
    1UNL     C9   13  -0.351  -0.175  -0.037
    1UNL    C10   14  -0.262  -0.074  -0.043
    1UNL    C11   15  -0.103  -0.078  -0.055
    1UNL    C12   16  -0.048  -0.102  -0.210
    1UNL    C13   17   0.018  -0.233  -0.207
    1UNL     N2   18   0.069  -0.262  -0.066
    1UNL    C14   19   0.215  -0.219  -0.049
    1UNL    C15   20   0.231  -0.067  -0.017
    1UNL    C16   21   0.380  -0.035   0.022
    1UNL    C17   22   0.408   0.107   0.026
    1UNL     O4   23   0.470  -0.097  -0.078
    1UNL    C18   24   0.128  -0.028   0.096
    1UNL    C19   25   0.036  -0.142   0.147
    1UNL    C20   26  -0.035  -0.199   0.025
    1UNL     H1   27   0.158   0.484   0.054
    1UNL     H2   28   0.074   0.425   0.198
    1UNL     H3   29  -0.020   0.534   0.080
    1UNL     H4   30  -0.180   0.234   0.032
    1UNL     H5   31  -0.551   0.230   0.083
    1UNL     H6   32  -0.626   0.001   0.034
    1UNL     H7   33  -0.551  -0.229  -0.000
    1UNL     H8   34  -0.325  -0.277  -0.035
    1UNL     H9   35  -0.128  -0.098  -0.279
    1UNL    H10   36   0.015  -0.014  -0.242
    1UNL    H11   37  -0.056  -0.310  -0.237
    1UNL    H12   38   0.097  -0.243  -0.287
    1UNL    H13   39   0.267  -0.237  -0.144
    1UNL    H14   40   0.266  -0.285   0.024
    1UNL    H15   41   0.203   0.004  -0.100
    1UNL    H16   42   0.407  -0.076   0.118
    1UNL    H17   43   0.358   0.166   0.106
    1UNL    H18   44   0.392   0.158  -0.069
    1UNL    H19   45   0.521   0.113   0.042
    1UNL    H20   46   0.495  -0.187  -0.066
    1UNL    H21   47   0.196  -0.003   0.182
    1UNL    H22   48  -0.050  -0.110   0.215
    1UNL    H23   49   0.092  -0.229   0.184
    1UNL    H24   50  -0.105  -0.285   0.047
   0.00000   0.00000   0.00000   0.00000   0.00000   0.00000   0.00000   0.00000   0.00000
Generated with MDTraj, t= 52.0
 50
    1UNL     C1    1   0.048   0.446   0.089
    1UNL     O1    2  -0.008   0.323   0.079
    1UNL     C2    3   0.087   0.229   0.108
    1UNL     O2    4   0.199   0.261   0.154
    1UNL     C3    5   0.054   0.094   0.066
    1UNL     C4    6  -0.067   0.065   0.005
    1UNL     N1    7  -0.186   0.136   0.012
    1UNL     C5    8  -0.295   0.053  -0.005
    1UNL     C6    9  -0.432   0.087   0.009
    1UNL     O3   10  -0.466   0.222   0.016
    1UNL     C7   11  -0.528  -0.019  -0.008
    1UNL     C8   12  -0.484  -0.148  -0.031
    1UNL     C9   13  -0.347  -0.173  -0.041
    1UNL    C10   14  -0.255  -0.077  -0.028
    1UNL    C11   15  -0.110  -0.075  -0.038
    1UNL    C12   16  -0.071  -0.098  -0.195
    1UNL    C13   17   0.029  -0.213  -0.197
    1UNL     N2   18   0.066  -0.262  -0.062
    1UNL    C14   19   0.210  -0.236  -0.031
    1UNL    C15   20   0.232  -0.082  -0.011
    1UNL    C16   21   0.393  -0.046   0.000
    1UNL    C17   22   0.408   0.107   0.021
    1UNL     O4   23   0.471  -0.089  -0.115
    1UNL    C18   24   0.139  -0.030   0.106
    1UNL    C19   25   0.040  -0.145   0.158
    1UNL    C20   26  -0.032  -0.195   0.029
    1UNL     H1   27   0.137   0.466   0.028
    1UNL     H2   28   0.074   0.441   0.197
    1UNL     H3   29  -0.035   0.520   0.076
    1UNL     H4   30  -0.187   0.235   0.047
    1UNL     H5   31  -0.561   0.226   0.017
    1UNL     H6   32  -0.639  -0.012   0.001
    1UNL     H7   33  -0.548  -0.234  -0.051
    1UNL     H8   34  -0.321  -0.275  -0.077
    1UNL     H9   35  -0.157  -0.119  -0.246
    1UNL    H10   36  -0.034  -0.007  -0.254
    1UNL    H11   37  -0.008  -0.305  -0.251
    1UNL    H12   38   0.120  -0.183  -0.252
    1UNL    H13   39   0.263  -0.298  -0.104
    1UNL    H14   40   0.236  -0.283   0.066
    1UNL    H15   41   0.188  -0.021  -0.094
    1UNL    H16   42   0.428  -0.096   0.088
    1UNL    H17   43   0.367   0.127   0.122
    1UNL    H18   44   0.346   0.167  -0.047
    1UNL    H19   45   0.514   0.147   0.016
    1UNL    H20   46   0.448  -0.178  -0.130
    1UNL    H21   47   0.201  -0.010   0.197
    1UNL    H22   48  -0.046  -0.104   0.223
    1UNL    H23   49   0.087  -0.230   0.206
    1UNL    H24   50  -0.105  -0.278   0.053
   0.00000   0.00000   0.00000   0.00000   0.00000   0.00000   0.00000   0.00000   0.00000
Generated with MDTraj, t= 53.0
 50
    1UNL     C1    1   0.034   0.440   0.138
    1UNL     O1    2  -0.009   0.323   0.083
    1UNL     C2    3   0.089   0.230   0.098
    1UNL     O2    4   0.204   0.261   0.138
    1UNL     C3    5   0.054   0.091   0.073
    1UNL     C4    6  -0.069   0.058   0.019
    1UNL     N1    7  -0.182   0.136   0.001
    1UNL     C5    8  -0.296   0.053  -0.014
    1UNL     C6    9  -0.432   0.086  -0.013
    1UNL     O3   10  -0.454   0.227   0.002
    1UNL     C7   11  -0.525  -0.015  -0.031
    1UNL     C8   12  -0.489  -0.148  -0.044
    1UNL     C9   13  -0.355  -0.183  -0.035
    1UNL    C10   14  -0.260  -0.085  -0.015
    1UNL    C11   15  -0.115  -0.078  -0.026
    1UNL    C12   16  -0.072  -0.109  -0.180
    1UNL    C13   17  -0.007  -0.254  -0.183
    1UNL     N2   18   0.062  -0.255  -0.052
    1UNL    C14   19   0.204  -0.207  -0.060
    1UNL    C15   20   0.228  -0.068  -0.020
    1UNL    C16   21   0.388  -0.044  -0.004
    1UNL    C17   22   0.429   0.109   0.014
    1UNL     O4   23   0.464  -0.085  -0.118
    1UNL    C18   24   0.151  -0.024   0.106
    1UNL    C19   25   0.065  -0.139   0.169
    1UNL    C20   26  -0.027  -0.190   0.045
    1UNL     H1   27   0.132   0.469   0.101
    1UNL     H2   28   0.044   0.410   0.242
    1UNL     H3   29  -0.038   0.522   0.133
    1UNL     H4   30  -0.182   0.228   0.045
    1UNL     H5   31  -0.544   0.268   0.006
    1UNL     H6   32  -0.625   0.012  -0.044
    1UNL     H7   33  -0.557  -0.226  -0.069
    1UNL     H8   34  -0.319  -0.272  -0.078
    1UNL     H9   35  -0.157  -0.112  -0.238
    1UNL    H10   36  -0.003  -0.028  -0.221
    1UNL    H11   37  -0.094  -0.330  -0.193
    1UNL    H12   38   0.073  -0.267  -0.256
    1UNL    H13   39   0.256  -0.236  -0.151
    1UNL    H14   40   0.245  -0.279   0.014
    1UNL    H15   41   0.199  -0.000  -0.104
    1UNL    H16   42   0.427  -0.096   0.082
    1UNL    H17   43   0.397   0.136   0.116
    1UNL    H18   44   0.383   0.178  -0.060
    1UNL    H19   45   0.541   0.117   0.010
    1UNL    H20   46   0.470  -0.181  -0.140
    1UNL    H21   47   0.218   0.017   0.186
    1UNL    H22   48   0.012  -0.092   0.260
    1UNL    H23   49   0.119  -0.227   0.203
    1UNL    H24   50  -0.092  -0.273   0.083
   0.00000   0.00000   0.00000   0.00000   0.00000   0.00000   0.00000   0.00000   0.00000
Generated with MDTraj, t= 54.0
 50
    1UNL     C1    1   0.019   0.438   0.158
    1UNL     O1    2  -0.022   0.318   0.100
    1UNL     C2    3   0.082   0.229   0.110
    1UNL     O2    4   0.190   0.257   0.164
    1UNL     C3    5   0.060   0.099   0.058
    1UNL     C4    6  -0.063   0.068  -0.003
    1UNL     N1    7  -0.181   0.140   0.001
    1UNL     C5    8  -0.291   0.052  -0.008
    1UNL     C6    9  -0.423   0.096  -0.012
    1UNL     O3   10  -0.462   0.227  -0.013
    1UNL     C7   11  -0.521  -0.005  -0.031
    1UNL     C8   12  -0.479  -0.139  -0.027
    1UNL     C9   13  -0.348  -0.176  -0.021
    1UNL    C10   14  -0.256  -0.077  -0.018
    1UNL    C11   15  -0.102  -0.077  -0.037
    1UNL    C12   16  -0.068  -0.118  -0.186
    1UNL    C13   17  -0.000  -0.252  -0.184
    1UNL     N2   18   0.063  -0.270  -0.044
    1UNL    C14   19   0.209  -0.228  -0.041
    1UNL    C15   20   0.237  -0.074  -0.031
    1UNL    C16   21   0.386  -0.047  -0.015
    1UNL    C17   22   0.406   0.104  -0.007
    1UNL     O4   23   0.470  -0.101  -0.122
    1UNL    C18   24   0.153  -0.012   0.087
    1UNL    C19   25   0.059  -0.121   0.155
    1UNL    C20   26  -0.022  -0.185   0.047
    1UNL     H1   27   0.105   0.472   0.103
    1UNL     H2   28   0.053   0.409   0.256
    1UNL     H3   29  -0.046   0.526   0.164
    1UNL     H4   30  -0.183   0.236   0.028
    1UNL     H5   31  -0.562   0.236  -0.022
    1UNL     H6   32  -0.629   0.011  -0.049
    1UNL     H7   33  -0.556  -0.217  -0.026
    1UNL     H8   34  -0.306  -0.277  -0.023
    1UNL     H9   35  -0.163  -0.130  -0.237
    1UNL    H10   36  -0.005  -0.034  -0.225
    1UNL    H11   37  -0.082  -0.334  -0.201
    1UNL    H12   38   0.080  -0.246  -0.259
    1UNL    H13   39   0.247  -0.277  -0.131
    1UNL    H14   40   0.270  -0.279   0.036
    1UNL    H15   41   0.217  -0.023  -0.129
    1UNL    H16   42   0.418  -0.094   0.082
    1UNL    H17   43   0.358   0.142   0.086
    1UNL    H18   44   0.373   0.165  -0.096
    1UNL    H19   45   0.513   0.115   0.011
    1UNL    H20   46   0.491  -0.201  -0.106
    1UNL    H21   47   0.226   0.023   0.165
    1UNL    H22   48  -0.014  -0.081   0.234
    1UNL    H23   49   0.125  -0.193   0.205
    1UNL    H24   50  -0.084  -0.269   0.089
   0.00000   0.00000   0.00000   0.00000   0.00000   0.00000   0.00000   0.00000   0.00000
Generated with MDTraj, t= 55.0
 50
    1UNL     C1    1   0.016   0.436   0.166
    1UNL     O1    2  -0.011   0.324   0.095
    1UNL     C2    3   0.078   0.228   0.109
    1UNL     O2    4   0.180   0.252   0.171
    1UNL     C3    5   0.058   0.092   0.062
    1UNL     C4    6  -0.056   0.061  -0.014
    1UNL     N1    7  -0.172   0.136  -0.019
    1UNL     C5    8  -0.286   0.056  -0.027
    1UNL     C6    9  -0.420   0.097  -0.014
    1UNL     O3   10  -0.461   0.232  -0.005
    1UNL     C7   11  -0.522  -0.005   0.002
    1UNL     C8   12  -0.476  -0.137  -0.005
    1UNL     C9   13  -0.344  -0.171  -0.027
    1UNL    C10   14  -0.249  -0.071  -0.036
    1UNL    C11   15  -0.100  -0.084  -0.052
    1UNL    C12   16  -0.045  -0.115  -0.198
    1UNL    C13   17   0.031  -0.242  -0.199
    1UNL     N2   18   0.073  -0.262  -0.050
    1UNL    C14   19   0.219  -0.227  -0.025
    1UNL    C15   20   0.222  -0.071  -0.014
    1UNL    C16   21   0.374  -0.034  -0.015
    1UNL    C17   22   0.392   0.111  -0.038
    1UNL     O4   23   0.443  -0.122  -0.113
    1UNL    C18   24   0.141  -0.021   0.106
    1UNL    C19   25   0.046  -0.134   0.160
    1UNL    C20   26  -0.031  -0.192   0.044
    1UNL     H1   27   0.102   0.478   0.112
    1UNL     H2   28   0.043   0.409   0.269
    1UNL     H3   29  -0.057   0.518   0.156
    1UNL     H4   30  -0.185   0.226   0.024
    1UNL     H5   31  -0.561   0.246   0.003
    1UNL     H6   32  -0.621   0.010   0.037
    1UNL     H7   33  -0.540  -0.220   0.015
    1UNL     H8   34  -0.305  -0.270  -0.004
    1UNL     H9   35  -0.128  -0.120  -0.275
    1UNL    H10   36   0.015  -0.026  -0.223
    1UNL    H11   37  -0.036  -0.336  -0.222
    1UNL    H12   38   0.118  -0.228  -0.264
    1UNL    H13   39   0.292  -0.263  -0.097
    1UNL    H14   40   0.247  -0.274   0.071
    1UNL    H15   41   0.165  -0.032  -0.103
    1UNL    H16   42   0.406  -0.068   0.089
    1UNL    H17   43   0.331   0.170   0.033
    1UNL    H18   44   0.362   0.142  -0.144
    1UNL    H19   45   0.494   0.142  -0.019
    1UNL    H20   46   0.526  -0.166  -0.065
    1UNL    H21   47   0.216   0.009   0.184
    1UNL    H22   48  -0.025  -0.081   0.227
    1UNL    H23   49   0.099  -0.203   0.231
    1UNL    H24   50  -0.100  -0.271   0.083
   0.00000   0.00000   0.00000   0.00000   0.00000   0.00000   0.00000   0.00000   0.00000
Generated with MDTraj, t= 56.0
 50
    1UNL     C1    1   0.025   0.439   0.145
    1UNL     O1    2  -0.008   0.321   0.086
    1UNL     C2    3   0.080   0.220   0.107
    1UNL     O2    4   0.182   0.240   0.175
    1UNL     C3    5   0.060   0.089   0.056
    1UNL     C4    6  -0.058   0.059  -0.013
    1UNL     N1    7  -0.168   0.141  -0.030
    1UNL     C5    8  -0.282   0.056  -0.027
    1UNL     C6    9  -0.416   0.098  -0.006
    1UNL     O3   10  -0.454   0.227   0.021
    1UNL     C7   11  -0.514  -0.002   0.008
    1UNL     C8   12  -0.485  -0.136  -0.015
    1UNL     C9   13  -0.353  -0.175  -0.039
    1UNL    C10   14  -0.251  -0.082  -0.041
    1UNL    C11   15  -0.109  -0.085  -0.055
    1UNL    C12   16  -0.057  -0.117  -0.196
    1UNL    C13   17   0.007  -0.257  -0.189
    1UNL     N2   18   0.070  -0.264  -0.049
    1UNL    C14   19   0.210  -0.230  -0.036
    1UNL    C15   20   0.229  -0.075  -0.013
    1UNL    C16   21   0.375  -0.026  -0.001
    1UNL    C17   22   0.385   0.124  -0.023
    1UNL     O4   23   0.466  -0.092  -0.086
    1UNL    C18   24   0.147  -0.017   0.100
    1UNL    C19   25   0.048  -0.131   0.153
    1UNL    C20   26  -0.031  -0.191   0.033
    1UNL     H1   27   0.128   0.443   0.101
    1UNL     H2   28   0.039   0.428   0.254
    1UNL     H3   29  -0.029   0.533   0.118
    1UNL     H4   30  -0.171   0.234   0.012
    1UNL     H5   31  -0.551   0.243   0.039
    1UNL     H6   32  -0.615   0.039   0.023
    1UNL     H7   33  -0.562  -0.212  -0.006
    1UNL     H8   34  -0.318  -0.276  -0.042
    1UNL     H9   35  -0.149  -0.119  -0.270
    1UNL    H10   36  -0.005  -0.032  -0.234
    1UNL    H11   37  -0.071  -0.344  -0.203
    1UNL    H12   38   0.093  -0.280  -0.253
    1UNL    H13   39   0.261  -0.256  -0.128
    1UNL    H14   40   0.250  -0.293   0.046
    1UNL    H15   41   0.185  -0.031  -0.106
    1UNL    H16   42   0.415  -0.052   0.104
    1UNL    H17   43   0.335   0.180   0.058
    1UNL    H18   44   0.340   0.155  -0.121
    1UNL    H19   45   0.487   0.163  -0.020
    1UNL    H20   46   0.426  -0.168  -0.138
    1UNL    H21   47   0.225   0.019   0.173
    1UNL    H22   48  -0.010  -0.079   0.231
    1UNL    H23   49   0.097  -0.212   0.216
    1UNL    H24   50  -0.108  -0.259   0.073
   0.00000   0.00000   0.00000   0.00000   0.00000   0.00000   0.00000   0.00000   0.00000
Generated with MDTraj, t= 57.0
 50
    1UNL     C1    1   0.029   0.454   0.111
    1UNL     O1    2   0.002   0.328   0.063
    1UNL     C2    3   0.082   0.227   0.103
    1UNL     O2    4   0.178   0.247   0.180
    1UNL     C3    5   0.064   0.094   0.050
    1UNL     C4    6  -0.060   0.059  -0.009
    1UNL     N1    7  -0.181   0.124  -0.004
    1UNL     C5    8  -0.294   0.050  -0.008
    1UNL     C6    9  -0.428   0.090   0.007
    1UNL     O3   10  -0.452   0.223   0.029
    1UNL     C7   11  -0.529  -0.004  -0.012
    1UNL     C8   12  -0.490  -0.137  -0.033
    1UNL     C9   13  -0.357  -0.181  -0.043
    1UNL    C10   14  -0.260  -0.084  -0.025
    1UNL    C11   15  -0.105  -0.085  -0.040
    1UNL    C12   16  -0.072  -0.109  -0.190
    1UNL    C13   17   0.005  -0.234  -0.199
    1UNL     N2   18   0.070  -0.257  -0.062
    1UNL    C14   19   0.208  -0.226  -0.043
    1UNL    C15   20   0.239  -0.078  -0.010
    1UNL    C16   21   0.382  -0.052   0.005
    1UNL    C17   22   0.413   0.105   0.020
    1UNL     O4   23   0.463  -0.097  -0.108
    1UNL    C18   24   0.150  -0.017   0.104
    1UNL    C19   25   0.050  -0.125   0.153
    1UNL    C20   26  -0.018  -0.194   0.040
    1UNL     H1   27   0.128   0.471   0.067
    1UNL     H2   28   0.056   0.450   0.218
    1UNL     H3   29  -0.051   0.532   0.100
    1UNL     H4   30  -0.184   0.220   0.041
    1UNL     H5   31  -0.549   0.231   0.023
    1UNL     H6   32  -0.634   0.020  -0.016
    1UNL     H7   33  -0.564  -0.207  -0.068
    1UNL     H8   34  -0.330  -0.284  -0.070
    1UNL     H9   35  -0.178  -0.117  -0.243
    1UNL    H10   36  -0.034  -0.025  -0.246
    1UNL    H11   37  -0.044  -0.337  -0.226
    1UNL    H12   38   0.087  -0.214  -0.271
    1UNL    H13   39   0.272  -0.260  -0.124
    1UNL    H14   40   0.237  -0.275   0.051
    1UNL    H15   41   0.209  -0.010  -0.095
    1UNL    H16   42   0.424  -0.094   0.100
    1UNL    H17   43   0.365   0.151   0.110
    1UNL    H18   44   0.385   0.163  -0.069
    1UNL    H19   45   0.523   0.121   0.036
    1UNL    H20   46   0.514  -0.031  -0.150
    1UNL    H21   47   0.223   0.021   0.181
    1UNL    H22   48  -0.022  -0.080   0.222
    1UNL    H23   49   0.102  -0.199   0.224
    1UNL    H24   50  -0.070  -0.287   0.068
   0.00000   0.00000   0.00000   0.00000   0.00000   0.00000   0.00000   0.00000   0.00000
Generated with MDTraj, t= 58.0
 50
    1UNL     C1    1   0.043   0.455   0.078
    1UNL     O1    2   0.009   0.323   0.060
    1UNL     C2    3   0.092   0.226   0.099
    1UNL     O2    4   0.202   0.258   0.150
    1UNL     C3    5   0.055   0.090   0.068
    1UNL     C4    6  -0.070   0.061   0.018
    1UNL     N1    7  -0.185   0.132   0.021
    1UNL     C5    8  -0.298   0.050  -0.009
    1UNL     C6    9  -0.434   0.082   0.002
    1UNL     O3   10  -0.484   0.212   0.025
    1UNL     C7   11  -0.528  -0.018  -0.010
    1UNL     C8   12  -0.487  -0.150  -0.033
    1UNL     C9   13  -0.350  -0.179  -0.039
    1UNL    C10   14  -0.261  -0.079  -0.029
    1UNL    C11   15  -0.106  -0.074  -0.039
    1UNL    C12   16  -0.058  -0.089  -0.186
    1UNL    C13   17   0.006  -0.216  -0.209
    1UNL     N2   18   0.065  -0.247  -0.072
    1UNL    C14   19   0.204  -0.221  -0.053
    1UNL    C15   20   0.242  -0.078  -0.010
    1UNL    C16   21   0.389  -0.058   0.014
    1UNL    C17   22   0.421   0.090   0.052
    1UNL     O4   23   0.455  -0.085  -0.109
    1UNL    C18   24   0.149  -0.027   0.107
    1UNL    C19   25   0.051  -0.142   0.152
    1UNL    C20   26  -0.031  -0.188   0.037
    1UNL     H1   27   0.149   0.467   0.062
    1UNL     H2   28   0.029   0.465   0.185
    1UNL     H3   29  -0.024   0.526   0.031
    1UNL     H4   30  -0.179   0.236   0.037
    1UNL     H5   31  -0.580   0.213   0.019
    1UNL     H6   32  -0.632   0.004   0.001
    1UNL     H7   33  -0.557  -0.229  -0.048
    1UNL     H8   34  -0.322  -0.271  -0.081
    1UNL     H9   35  -0.137  -0.064  -0.266
    1UNL    H10   36   0.013  -0.010  -0.206
    1UNL    H11   37  -0.079  -0.292  -0.229
    1UNL    H12   38   0.075  -0.217  -0.296
    1UNL    H13   39   0.256  -0.253  -0.145
    1UNL    H14   40   0.232  -0.286   0.031
    1UNL    H15   41   0.202  -0.008  -0.088
    1UNL    H16   42   0.422  -0.117   0.102
    1UNL    H17   43   0.367   0.118   0.144
    1UNL    H18   44   0.393   0.161  -0.027
    1UNL    H19   45   0.530   0.112   0.076
    1UNL    H20   46   0.528  -0.144  -0.098
    1UNL    H21   47   0.216   0.000   0.194
    1UNL    H22   48  -0.011  -0.097   0.229
    1UNL    H23   49   0.098  -0.228   0.211
    1UNL    H24   50  -0.105  -0.267   0.050
   0.00000   0.00000   0.00000   0.00000   0.00000   0.00000   0.00000   0.00000   0.00000
Generated with MDTraj, t= 59.0
 50
    1UNL     C1    1   0.075   0.458   0.078
    1UNL     O1    2   0.006   0.328   0.071
    1UNL     C2    3   0.088   0.224   0.088
    1UNL     O2    4   0.203   0.246   0.132
    1UNL     C3    5   0.052   0.090   0.060
    1UNL     C4    6  -0.068   0.059   0.001
    1UNL     N1    7  -0.185   0.134   0.010
    1UNL     C5    8  -0.303   0.047   0.002
    1UNL     C6    9  -0.439   0.082   0.013
    1UNL     O3   10  -0.478   0.212   0.043
    1UNL     C7   11  -0.532  -0.021  -0.016
    1UNL     C8   12  -0.493  -0.152  -0.035
    1UNL     C9   13  -0.356  -0.182  -0.039
    1UNL    C10   14  -0.260  -0.083  -0.031
    1UNL    C11   15  -0.112  -0.075  -0.043
    1UNL    C12   16  -0.076  -0.090  -0.192
    1UNL    C13   17   0.012  -0.219  -0.210
    1UNL     N2   18   0.076  -0.252  -0.077
    1UNL    C14   19   0.218  -0.215  -0.052
    1UNL    C15   20   0.234  -0.071  -0.002
    1UNL    C16   21   0.382  -0.043   0.026
    1UNL    C17   22   0.418   0.101   0.057
    1UNL     O4   23   0.464  -0.096  -0.082
    1UNL    C18   24   0.137  -0.019   0.110
    1UNL    C19   25   0.050  -0.143   0.148
    1UNL    C20   26  -0.028  -0.192   0.024
    1UNL     H1   27   0.177   0.452   0.038
    1UNL     H2   28   0.080   0.457   0.184
    1UNL     H3   29   0.033   0.552   0.043
    1UNL     H4   30  -0.181   0.220   0.066
    1UNL     H5   31  -0.574   0.219   0.051
    1UNL     H6   32  -0.637   0.004   0.005
    1UNL     H7   33  -0.573  -0.226  -0.036
    1UNL     H8   34  -0.323  -0.283  -0.070
    1UNL     H9   35  -0.164  -0.096  -0.257
    1UNL    H10   36  -0.020  -0.006  -0.239
    1UNL    H11   37  -0.059  -0.298  -0.252
    1UNL    H12   38   0.088  -0.197  -0.289
    1UNL    H13   39   0.262  -0.230  -0.153
    1UNL    H14   40   0.256  -0.294   0.013
    1UNL    H15   41   0.207  -0.008  -0.091
    1UNL    H16   42   0.420  -0.101   0.109
    1UNL    H17   43   0.376   0.128   0.156
    1UNL    H18   44   0.387   0.172  -0.019
    1UNL    H19   45   0.528   0.121   0.075
    1UNL    H20   46   0.418  -0.115  -0.169
    1UNL    H21   47   0.205   0.012   0.195
    1UNL    H22   48  -0.014  -0.101   0.227
    1UNL    H23   49   0.102  -0.222   0.210
    1UNL    H24   50  -0.100  -0.270   0.044
   0.00000   0.00000   0.00000   0.00000   0.00000   0.00000   0.00000   0.00000   0.00000
Generated with MDTraj, t= 60.0
 50
    1UNL     C1    1   0.025   0.448   0.097
    1UNL     O1    2  -0.003   0.325   0.048
    1UNL     C2    3   0.081   0.224   0.084
    1UNL     O2    4   0.177   0.247   0.158
    1UNL     C3    5   0.059   0.093   0.040
    1UNL     C4    6  -0.069   0.060  -0.007
    1UNL     N1    7  -0.183   0.134  -0.001
    1UNL     C5    8  -0.295   0.054   0.001
    1UNL     C6    9  -0.431   0.089   0.017
    1UNL     O3   10  -0.461   0.220   0.052
    1UNL     C7   11  -0.528  -0.013   0.010
    1UNL     C8   12  -0.484  -0.138  -0.025
    1UNL     C9   13  -0.355  -0.174  -0.050
    1UNL    C10   14  -0.258  -0.075  -0.031
    1UNL    C11   15  -0.108  -0.082  -0.051
    1UNL    C12   16  -0.066  -0.095  -0.202
    1UNL    C13   17   0.021  -0.228  -0.208
    1UNL     N2   18   0.072  -0.246  -0.069
    1UNL    C14   19   0.217  -0.220  -0.048
    1UNL    C15   20   0.241  -0.076  -0.016
    1UNL    C16   21   0.387  -0.051   0.029
    1UNL    C17   22   0.418   0.092   0.044
    1UNL     O4   23   0.472  -0.098  -0.079
    1UNL    C18   24   0.141  -0.024   0.099
    1UNL    C19   25   0.046  -0.135   0.145
    1UNL    C20   26  -0.030  -0.190   0.030
    1UNL     H1   27   0.079   0.501   0.012
    1UNL     H2   28   0.094   0.432   0.179
    1UNL     H3   29  -0.061   0.510   0.132
    1UNL     H4   30  -0.188   0.226   0.036
    1UNL     H5   31  -0.557   0.227   0.069
    1UNL     H6   32  -0.623  -0.003   0.055
    1UNL     H7   33  -0.548  -0.223  -0.032
    1UNL     H8   34  -0.327  -0.272  -0.076
    1UNL     H9   35  -0.150  -0.111  -0.261
    1UNL    H10   36  -0.011  -0.006  -0.249
    1UNL    H11   37  -0.032  -0.322  -0.239
    1UNL    H12   38   0.097  -0.195  -0.284
    1UNL    H13   39   0.261  -0.259  -0.143
    1UNL    H14   40   0.248  -0.288   0.032
    1UNL    H15   41   0.219  -0.012  -0.105
    1UNL    H16   42   0.412  -0.103   0.119
    1UNL    H17   43   0.361   0.142   0.125
    1UNL    H18   44   0.406   0.137  -0.057
    1UNL    H19   45   0.524   0.109   0.075
    1UNL    H20   46   0.499  -0.199  -0.071
    1UNL    H21   47   0.206   0.027   0.175
    1UNL    H22   48  -0.002  -0.113   0.243
    1UNL    H23   49   0.110  -0.222   0.174
    1UNL    H24   50  -0.096  -0.270   0.063
   0.00000   0.00000   0.00000   0.00000   0.00000   0.00000   0.00000   0.00000   0.00000
Generated with MDTraj, t= 61.0
 50
    1UNL     C1    1   0.004   0.445   0.118
    1UNL     O1    2  -0.017   0.328   0.061
    1UNL     C2    3   0.069   0.230   0.099
    1UNL     O2    4   0.165   0.255   0.173
    1UNL     C3    5   0.055   0.100   0.044
    1UNL     C4    6  -0.066   0.064  -0.023
    1UNL     N1    7  -0.179   0.144  -0.024
    1UNL     C5    8  -0.292   0.056  -0.023
    1UNL     C6    9  -0.422   0.093   0.013
    1UNL     O3   10  -0.448   0.224   0.050
    1UNL     C7   11  -0.510  -0.014   0.026
    1UNL     C8   12  -0.472  -0.142  -0.011
    1UNL     C9   13  -0.344  -0.171  -0.037
    1UNL    C10   14  -0.252  -0.073  -0.047
    1UNL    C11   15  -0.105  -0.080  -0.063
    1UNL    C12   16  -0.067  -0.105  -0.205
    1UNL    C13   17   0.007  -0.241  -0.205
    1UNL     N2   18   0.067  -0.261  -0.072
    1UNL    C14   19   0.213  -0.225  -0.052
    1UNL    C15   20   0.243  -0.079  -0.014
    1UNL    C16   21   0.394  -0.047   0.028
    1UNL    C17   22   0.417   0.099   0.025
    1UNL     O4   23   0.471  -0.125  -0.075
    1UNL    C18   24   0.142  -0.018   0.092
    1UNL    C19   25   0.050  -0.130   0.144
    1UNL    C20   26  -0.030  -0.182   0.032
    1UNL     H1   27   0.103   0.469   0.070
    1UNL     H2   28   0.017   0.437   0.226
    1UNL     H3   29  -0.067   0.526   0.093
    1UNL     H4   30  -0.179   0.223   0.036
    1UNL     H5   31  -0.535   0.234   0.100
    1UNL     H6   32  -0.618   0.008   0.037
    1UNL     H7   33  -0.548  -0.218  -0.025
    1UNL     H8   34  -0.306  -0.275  -0.046
    1UNL     H9   35  -0.149  -0.117  -0.267
    1UNL    H10   36  -0.010  -0.017  -0.250
    1UNL    H11   37  -0.065  -0.317  -0.238
    1UNL    H12   38   0.092  -0.235  -0.280
    1UNL    H13   39   0.261  -0.255  -0.149
    1UNL    H14   40   0.241  -0.299   0.022
    1UNL    H15   41   0.229  -0.018  -0.107
    1UNL    H16   42   0.412  -0.086   0.128
    1UNL    H17   43   0.348   0.154   0.094
    1UNL    H18   44   0.419   0.130  -0.084
    1UNL    H19   45   0.516   0.119   0.066
    1UNL    H20   46   0.527  -0.187  -0.018
    1UNL    H21   47   0.205   0.022   0.177
    1UNL    H22   48  -0.023  -0.099   0.225
    1UNL    H23   49   0.108  -0.207   0.192
    1UNL    H24   50  -0.099  -0.260   0.058
   0.00000   0.00000   0.00000   0.00000   0.00000   0.00000   0.00000   0.00000   0.00000
Generated with MDTraj, t= 62.0
 50
    1UNL     C1    1   0.027   0.450   0.157
    1UNL     O1    2  -0.004   0.338   0.073
    1UNL     C2    3   0.081   0.231   0.090
    1UNL     O2    4   0.184   0.238   0.164
    1UNL     C3    5   0.057   0.101   0.045
    1UNL     C4    6  -0.059   0.070  -0.018
    1UNL     N1    7  -0.180   0.139  -0.016
    1UNL     C5    8  -0.299   0.056  -0.032
    1UNL     C6    9  -0.431   0.087  -0.003
    1UNL     O3   10  -0.460   0.227   0.021
    1UNL     C7   11  -0.523  -0.020   0.019
    1UNL     C8   12  -0.478  -0.151   0.008
    1UNL     C9   13  -0.351  -0.178  -0.033
    1UNL    C10   14  -0.261  -0.076  -0.043
    1UNL    C11   15  -0.109  -0.072  -0.066
    1UNL    C12   16  -0.071  -0.113  -0.208
    1UNL    C13   17   0.019  -0.242  -0.206
    1UNL     N2   18   0.071  -0.256  -0.070
    1UNL    C14   19   0.213  -0.230  -0.031
    1UNL    C15   20   0.234  -0.080  -0.010
    1UNL    C16   21   0.385  -0.041   0.018
    1UNL    C17   22   0.414   0.106  -0.001
    1UNL     O4   23   0.476  -0.120  -0.069
    1UNL    C18   24   0.138  -0.014   0.097
    1UNL    C19   25   0.040  -0.129   0.151
    1UNL    C20   26  -0.027  -0.184   0.024
    1UNL     H1   27   0.136   0.442   0.157
    1UNL     H2   28   0.004   0.437   0.261
    1UNL     H3   29  -0.001   0.554   0.135
    1UNL     H4   30  -0.189   0.238   0.013
    1UNL     H5   31  -0.546   0.244   0.073
    1UNL     H6   32  -0.625  -0.009   0.038
    1UNL     H7   33  -0.554  -0.225  -0.007
    1UNL     H8   34  -0.318  -0.279  -0.044
    1UNL     H9   35  -0.151  -0.131  -0.274
    1UNL    H10   36  -0.015  -0.035  -0.267
    1UNL    H11   37  -0.022  -0.338  -0.233
    1UNL    H12   38   0.107  -0.229  -0.279
    1UNL    H13   39   0.271  -0.261  -0.123
    1UNL    H14   40   0.240  -0.289   0.056
    1UNL    H15   41   0.215  -0.033  -0.110
    1UNL    H16   42   0.412  -0.085   0.117
    1UNL    H17   43   0.361   0.160   0.080
    1UNL    H18   44   0.388   0.138  -0.107
    1UNL    H19   45   0.519   0.129   0.014
    1UNL    H20   46   0.492  -0.079  -0.152
    1UNL    H21   47   0.196   0.021   0.187
    1UNL    H22   48  -0.040  -0.079   0.216
    1UNL    H23   49   0.077  -0.206   0.218
    1UNL    H24   50  -0.099  -0.261   0.046
   0.00000   0.00000   0.00000   0.00000   0.00000   0.00000   0.00000   0.00000   0.00000
Generated with MDTraj, t= 63.0
 50
    1UNL     C1    1   0.026   0.449   0.131
    1UNL     O1    2  -0.011   0.322   0.092
    1UNL     C2    3   0.085   0.227   0.106
    1UNL     O2    4   0.197   0.248   0.160
    1UNL     C3    5   0.048   0.090   0.071
    1UNL     C4    6  -0.070   0.063   0.003
    1UNL     N1    7  -0.179   0.141   0.001
    1UNL     C5    8  -0.285   0.056  -0.017
    1UNL     C6    9  -0.424   0.094  -0.015
    1UNL     O3   10  -0.464   0.229  -0.001
    1UNL     C7   11  -0.519  -0.009  -0.014
    1UNL     C8   12  -0.482  -0.142  -0.019
    1UNL     C9   13  -0.351  -0.176  -0.030
    1UNL    C10   14  -0.253  -0.081  -0.033
    1UNL    C11   15  -0.107  -0.084  -0.041
    1UNL    C12   16  -0.064  -0.103  -0.194
    1UNL    C13   17   0.009  -0.235  -0.198
    1UNL     N2   18   0.072  -0.257  -0.061
    1UNL    C14   19   0.216  -0.222  -0.037
    1UNL    C15   20   0.234  -0.073  -0.019
    1UNL    C16   21   0.383  -0.044   0.006
    1UNL    C17   22   0.409   0.108  -0.010
    1UNL     O4   23   0.458  -0.108  -0.098
    1UNL    C18   24   0.141  -0.025   0.104
    1UNL    C19   25   0.052  -0.143   0.155
    1UNL    C20   26  -0.027  -0.199   0.038
    1UNL     H1   27   0.100   0.486   0.060
    1UNL     H2   28   0.086   0.447   0.218
    1UNL     H3   29  -0.057   0.517   0.149
    1UNL     H4   30  -0.183   0.232   0.057
    1UNL     H5   31  -0.560   0.227   0.027
    1UNL     H6   32  -0.628   0.006  -0.023
    1UNL     H7   33  -0.551  -0.225  -0.015
    1UNL     H8   34  -0.332  -0.280  -0.049
    1UNL     H9   35  -0.143  -0.110  -0.268
    1UNL    H10   36  -0.007  -0.022  -0.241
    1UNL    H11   37  -0.053  -0.319  -0.220
    1UNL    H12   38   0.093  -0.247  -0.275
    1UNL    H13   39   0.286  -0.258  -0.118
    1UNL    H14   40   0.243  -0.262   0.061
    1UNL    H15   41   0.201  -0.012  -0.108
    1UNL    H16   42   0.419  -0.094   0.102
    1UNL    H17   43   0.357   0.152   0.077
    1UNL    H18   44   0.377   0.146  -0.109
    1UNL    H19   45   0.514   0.143   0.000
    1UNL    H20   46   0.479  -0.038  -0.156
    1UNL    H21   47   0.199   0.020   0.189
    1UNL    H22   48  -0.020  -0.105   0.235
    1UNL    H23   49   0.105  -0.220   0.209
    1UNL    H24   50  -0.096  -0.274   0.078
   0.00000   0.00000   0.00000   0.00000   0.00000   0.00000   0.00000   0.00000   0.00000
Generated with MDTraj, t= 64.0
 50
    1UNL     C1    1   0.026   0.444   0.116
    1UNL     O1    2  -0.015   0.319   0.100
    1UNL     C2    3   0.085   0.224   0.108
    1UNL     O2    4   0.199   0.243   0.159
    1UNL     C3    5   0.056   0.088   0.075
    1UNL     C4    6  -0.067   0.056   0.016
    1UNL     N1    7  -0.181   0.130   0.017
    1UNL     C5    8  -0.294   0.053   0.001
    1UNL     C6    9  -0.430   0.095  -0.016
    1UNL     O3   10  -0.458   0.233  -0.010
    1UNL     C7   11  -0.516  -0.008  -0.045
    1UNL     C8   12  -0.476  -0.134  -0.064
    1UNL     C9   13  -0.347  -0.173  -0.038
    1UNL    C10   14  -0.255  -0.080  -0.010
    1UNL    C11   15  -0.103  -0.087  -0.020
    1UNL    C12   16  -0.066  -0.100  -0.182
    1UNL    C13   17  -0.000  -0.237  -0.186
    1UNL     N2   18   0.069  -0.266  -0.049
    1UNL    C14   19   0.209  -0.223  -0.038
    1UNL    C15   20   0.234  -0.071  -0.022
    1UNL    C16   21   0.379  -0.039  -0.016
    1UNL    C17   22   0.408   0.116   0.010
    1UNL     O4   23   0.442  -0.100  -0.133
    1UNL    C18   24   0.153  -0.022   0.105
    1UNL    C19   25   0.066  -0.139   0.168
    1UNL    C20   26  -0.023  -0.200   0.053
    1UNL     H1   27   0.098   0.480   0.041
    1UNL     H2   28   0.076   0.460   0.210
    1UNL     H3   29  -0.068   0.500   0.117
    1UNL     H4   30  -0.177   0.234   0.030
    1UNL     H5   31  -0.552   0.255  -0.009
    1UNL     H6   32  -0.619   0.017  -0.043
    1UNL     H7   33  -0.552  -0.209  -0.080
    1UNL     H8   34  -0.313  -0.276  -0.050
    1UNL     H9   35  -0.159  -0.112  -0.243
    1UNL    H10   36  -0.014  -0.025  -0.232
    1UNL    H11   37  -0.074  -0.310  -0.207
    1UNL    H12   38   0.078  -0.254  -0.266
    1UNL    H13   39   0.270  -0.246  -0.129
    1UNL    H14   40   0.257  -0.267   0.050
    1UNL    H15   41   0.197  -0.012  -0.109
    1UNL    H16   42   0.433  -0.103   0.063
    1UNL    H17   43   0.364   0.144   0.107
    1UNL    H18   44   0.380   0.179  -0.076
    1UNL    H19   45   0.516   0.144   0.023
    1UNL    H20   46   0.460  -0.029  -0.199
    1UNL    H21   47   0.227   0.014   0.180
    1UNL    H22   48  -0.005  -0.100   0.246
    1UNL    H23   49   0.126  -0.209   0.224
    1UNL    H24   50  -0.077  -0.285   0.097
   0.00000   0.00000   0.00000   0.00000   0.00000   0.00000   0.00000   0.00000   0.00000
Generated with MDTraj, t= 65.0
 50
    1UNL     C1    1   0.043   0.454   0.141
    1UNL     O1    2  -0.001   0.333   0.079
    1UNL     C2    3   0.094   0.229   0.101
    1UNL     O2    4   0.207   0.235   0.161
    1UNL     C3    5   0.056   0.089   0.070
    1UNL     C4    6  -0.069   0.056   0.024
    1UNL     N1    7  -0.177   0.138   0.010
    1UNL     C5    8  -0.295   0.048  -0.004
    1UNL     C6    9  -0.425   0.090  -0.015
    1UNL     O3   10  -0.466   0.228  -0.002
    1UNL     C7   11  -0.523  -0.013  -0.047
    1UNL     C8   12  -0.482  -0.141  -0.068
    1UNL     C9   13  -0.353  -0.178  -0.055
    1UNL    C10   14  -0.258  -0.086  -0.014
    1UNL    C11   15  -0.101  -0.081  -0.023
    1UNL    C12   16  -0.057  -0.103  -0.177
    1UNL    C13   17   0.009  -0.244  -0.175
    1UNL     N2   18   0.070  -0.267  -0.043
    1UNL    C14   19   0.211  -0.231  -0.029
    1UNL    C15   20   0.224  -0.076  -0.016
    1UNL    C16   21   0.370  -0.036  -0.018
    1UNL    C17   22   0.398   0.107   0.004
    1UNL     O4   23   0.426  -0.075  -0.143
    1UNL    C18   24   0.148  -0.019   0.103
    1UNL    C19   25   0.061  -0.131   0.173
    1UNL    C20   26  -0.023  -0.197   0.054
    1UNL     H1   27   0.154   0.475   0.139
    1UNL     H2   28   0.028   0.438   0.248
    1UNL     H3   29  -0.014   0.545   0.113
    1UNL     H4   30  -0.187   0.233   0.043
    1UNL     H5   31  -0.560   0.238  -0.001
    1UNL     H6   32  -0.630  -0.001  -0.030
    1UNL     H7   33  -0.547  -0.223  -0.092
    1UNL     H8   34  -0.323  -0.276  -0.078
    1UNL     H9   35  -0.140  -0.105  -0.254
    1UNL    H10   36   0.012  -0.036  -0.209
    1UNL    H11   37  -0.061  -0.324  -0.188
    1UNL    H12   38   0.085  -0.255  -0.255
    1UNL    H13   39   0.267  -0.267  -0.118
    1UNL    H14   40   0.258  -0.280   0.057
    1UNL    H15   41   0.164  -0.037  -0.101
    1UNL    H16   42   0.421  -0.105   0.058
    1UNL    H17   43   0.379   0.137   0.108
    1UNL    H18   44   0.355   0.168  -0.075
    1UNL    H19   45   0.509   0.122  -0.013
    1UNL    H20   46   0.529  -0.066  -0.137
    1UNL    H21   47   0.223   0.013   0.178
    1UNL    H22   48   0.004  -0.085   0.254
    1UNL    H23   49   0.125  -0.209   0.216
    1UNL    H24   50  -0.079  -0.283   0.092
   0.00000   0.00000   0.00000   0.00000   0.00000   0.00000   0.00000   0.00000   0.00000
Generated with MDTraj, t= 66.0
 50
    1UNL     C1    1   0.040   0.458   0.125
    1UNL     O1    2  -0.004   0.333   0.090
    1UNL     C2    3   0.082   0.232   0.124
    1UNL     O2    4   0.188   0.237   0.192
    1UNL     C3    5   0.056   0.101   0.063
    1UNL     C4    6  -0.060   0.066  -0.007
    1UNL     N1    7  -0.175   0.145  -0.012
    1UNL     C5    8  -0.286   0.057  -0.018
    1UNL     C6    9  -0.425   0.092  -0.007
    1UNL     O3   10  -0.468   0.223   0.015
    1UNL     C7   11  -0.517  -0.013  -0.016
    1UNL     C8   12  -0.475  -0.143  -0.034
    1UNL     C9   13  -0.345  -0.175  -0.043
    1UNL    C10   14  -0.248  -0.075  -0.038
    1UNL    C11   15  -0.098  -0.078  -0.044
    1UNL    C12   16  -0.053  -0.113  -0.189
    1UNL    C13   17   0.013  -0.251  -0.191
    1UNL     N2   18   0.068  -0.270  -0.049
    1UNL    C14   19   0.213  -0.240  -0.026
    1UNL    C15   20   0.227  -0.079  -0.012
    1UNL    C16   21   0.381  -0.035  -0.008
    1UNL    C17   22   0.391   0.114  -0.014
    1UNL     O4   23   0.441  -0.100  -0.125
    1UNL    C18   24   0.137  -0.021   0.103
    1UNL    C19   25   0.045  -0.134   0.161
    1UNL    C20   26  -0.030  -0.197   0.041
    1UNL     H1   27   0.118   0.514   0.066
    1UNL     H2   28   0.072   0.450   0.230
    1UNL     H3   29  -0.049   0.522   0.125
    1UNL     H4   30  -0.179   0.229   0.041
    1UNL     H5   31  -0.563   0.228   0.028
    1UNL     H6   32  -0.624   0.005  -0.035
    1UNL     H7   33  -0.554  -0.217  -0.037
    1UNL     H8   34  -0.317  -0.279  -0.072
    1UNL     H9   35  -0.138  -0.110  -0.261
    1UNL    H10   36   0.019  -0.045  -0.225
    1UNL    H11   37  -0.062  -0.326  -0.219
    1UNL    H12   38   0.095  -0.263  -0.261
    1UNL    H13   39   0.281  -0.291  -0.100
    1UNL    H14   40   0.241  -0.293   0.066
    1UNL    H15   41   0.178  -0.035  -0.102
    1UNL    H16   42   0.424  -0.080   0.085
    1UNL    H17   43   0.334   0.164   0.067
    1UNL    H18   44   0.352   0.136  -0.113
    1UNL    H19   45   0.496   0.150  -0.018
    1UNL    H20   46   0.535  -0.061  -0.144
    1UNL    H21   47   0.210   0.019   0.177
    1UNL    H22   48  -0.033  -0.089   0.218
    1UNL    H23   49   0.103  -0.209   0.222
    1UNL    H24   50  -0.099  -0.272   0.085
   0.00000   0.00000   0.00000   0.00000   0.00000   0.00000   0.00000   0.00000   0.00000
Generated with MDTraj, t= 67.0
 50
    1UNL     C1    1   0.015   0.455   0.130
    1UNL     O1    2  -0.012   0.329   0.077
    1UNL     C2    3   0.078   0.224   0.112
    1UNL     O2    4   0.182   0.240   0.184
    1UNL     C3    5   0.060   0.094   0.055
    1UNL     C4    6  -0.057   0.061  -0.012
    1UNL     N1    7  -0.178   0.129  -0.020
    1UNL     C5    8  -0.295   0.057  -0.029
    1UNL     C6    9  -0.430   0.094   0.006
    1UNL     O3   10  -0.445   0.232   0.024
    1UNL     C7   11  -0.520  -0.006   0.012
    1UNL     C8   12  -0.481  -0.141  -0.005
    1UNL     C9   13  -0.353  -0.175  -0.032
    1UNL    C10   14  -0.254  -0.074  -0.041
    1UNL    C11   15  -0.101  -0.084  -0.060
    1UNL    C12   16  -0.053  -0.108  -0.205
    1UNL    C13   17   0.018  -0.242  -0.207
    1UNL     N2   18   0.072  -0.259  -0.061
    1UNL    C14   19   0.213  -0.225  -0.036
    1UNL    C15   20   0.235  -0.076  -0.007
    1UNL    C16   21   0.388  -0.030   0.006
    1UNL    C17   22   0.409   0.118  -0.024
    1UNL     O4   23   0.461  -0.118  -0.077
    1UNL    C18   24   0.138  -0.032   0.103
    1UNL    C19   25   0.035  -0.140   0.154
    1UNL    C20   26  -0.034  -0.195   0.025
    1UNL     H1   27   0.114   0.496   0.108
    1UNL     H2   28  -0.005   0.442   0.234
    1UNL     H3   29  -0.055   0.526   0.089
    1UNL     H4   30  -0.170   0.224   0.012
    1UNL     H5   31  -0.534   0.265   0.047
    1UNL     H6   32  -0.623   0.013   0.025
    1UNL     H7   33  -0.556  -0.217  -0.026
    1UNL     H8   34  -0.319  -0.274  -0.038
    1UNL     H9   35  -0.147  -0.112  -0.261
    1UNL    H10   36   0.009  -0.021  -0.241
    1UNL    H11   37  -0.053  -0.327  -0.226
    1UNL    H12   38   0.092  -0.247  -0.283
    1UNL    H13   39   0.283  -0.263  -0.113
    1UNL    H14   40   0.247  -0.289   0.047
    1UNL    H15   41   0.214  -0.017  -0.100
    1UNL    H16   42   0.421  -0.050   0.107
    1UNL    H17   43   0.342   0.178   0.041
    1UNL    H18   44   0.392   0.142  -0.131
    1UNL    H19   45   0.512   0.152  -0.011
    1UNL    H20   46   0.544  -0.069  -0.100
    1UNL    H21   47   0.203   0.004   0.184
    1UNL    H22   48  -0.043  -0.104   0.216
    1UNL    H23   49   0.090  -0.230   0.195
    1UNL    H24   50  -0.118  -0.264   0.051
   0.00000   0.00000   0.00000   0.00000   0.00000   0.00000   0.00000   0.00000   0.00000
Generated with MDTraj, t= 68.0
 50
    1UNL     C1    1   0.009   0.446   0.137
    1UNL     O1    2  -0.006   0.320   0.064
    1UNL     C2    3   0.082   0.227   0.090
    1UNL     O2    4   0.189   0.241   0.155
    1UNL     C3    5   0.057   0.094   0.037
    1UNL     C4    6  -0.063   0.062  -0.019
    1UNL     N1    7  -0.180   0.146  -0.019
    1UNL     C5    8  -0.291   0.056  -0.009
    1UNL     C6    9  -0.422   0.093   0.006
    1UNL     O3   10  -0.455   0.222   0.027
    1UNL     C7   11  -0.523  -0.008   0.012
    1UNL     C8   12  -0.494  -0.142  -0.003
    1UNL     C9   13  -0.361  -0.181  -0.022
    1UNL    C10   14  -0.257  -0.083  -0.020
    1UNL    C11   15  -0.108  -0.079  -0.059
    1UNL    C12   16  -0.085  -0.105  -0.205
    1UNL    C13   17   0.017  -0.222  -0.211
    1UNL     N2   18   0.074  -0.253  -0.074
    1UNL    C14   19   0.216  -0.224  -0.050
    1UNL    C15   20   0.241  -0.077  -0.012
    1UNL    C16   21   0.384  -0.049   0.027
    1UNL    C17   22   0.423   0.104   0.015
    1UNL     O4   23   0.481  -0.116  -0.056
    1UNL    C18   24   0.139  -0.018   0.085
    1UNL    C19   25   0.049  -0.129   0.146
    1UNL    C20   26  -0.027  -0.190   0.021
    1UNL     H1   27   0.114   0.466   0.154
    1UNL     H2   28  -0.047   0.437   0.228
    1UNL     H3   29  -0.030   0.532   0.086
    1UNL     H4   30  -0.186   0.230   0.042
    1UNL     H5   31  -0.555   0.226   0.044
    1UNL     H6   32  -0.632   0.016   0.020
    1UNL     H7   33  -0.575  -0.215   0.006
    1UNL     H8   34  -0.341  -0.288  -0.035
    1UNL     H9   35  -0.179  -0.137  -0.245
    1UNL    H10   36  -0.056  -0.002  -0.253
    1UNL    H11   37  -0.022  -0.316  -0.262
    1UNL    H12   38   0.098  -0.188  -0.267
    1UNL    H13   39   0.278  -0.269  -0.131
    1UNL    H14   40   0.252  -0.287   0.033
    1UNL    H15   41   0.230  -0.019  -0.107
    1UNL    H16   42   0.388  -0.091   0.126
    1UNL    H17   43   0.364   0.171   0.081
    1UNL    H18   44   0.415   0.146  -0.089
    1UNL    H19   45   0.528   0.111   0.037
    1UNL    H20   46   0.566  -0.084  -0.037
    1UNL    H21   47   0.182   0.029   0.175
    1UNL    H22   48  -0.022  -0.093   0.216
    1UNL    H23   49   0.111  -0.218   0.177
    1UNL    H24   50  -0.103  -0.271   0.036
   0.00000   0.00000   0.00000   0.00000   0.00000   0.00000   0.00000   0.00000   0.00000
Generated with MDTraj, t= 69.0
 50
    1UNL     C1    1   0.030   0.459   0.106
    1UNL     O1    2  -0.008   0.324   0.068
    1UNL     C2    3   0.080   0.230   0.087
    1UNL     O2    4   0.189   0.250   0.139
    1UNL     C3    5   0.051   0.095   0.045
    1UNL     C4    6  -0.072   0.057  -0.007
    1UNL     N1    7  -0.184   0.138  -0.015
    1UNL     C5    8  -0.301   0.054  -0.009
    1UNL     C6    9  -0.439   0.087   0.014
    1UNL     O3   10  -0.474   0.221   0.026
    1UNL     C7   11  -0.530  -0.022   0.022
    1UNL     C8   12  -0.487  -0.149  -0.004
    1UNL     C9   13  -0.349  -0.177  -0.030
    1UNL    C10   14  -0.262  -0.077  -0.028
    1UNL    C11   15  -0.104  -0.083  -0.054
    1UNL    C12   16  -0.074  -0.096  -0.203
    1UNL    C13   17   0.017  -0.214  -0.221
    1UNL     N2   18   0.070  -0.250  -0.078
    1UNL    C14   19   0.209  -0.210  -0.067
    1UNL    C15   20   0.238  -0.059  -0.018
    1UNL    C16   21   0.388  -0.061   0.032
    1UNL    C17   22   0.441   0.077   0.066
    1UNL     O4   23   0.474  -0.123  -0.066
    1UNL    C18   24   0.140  -0.015   0.090
    1UNL    C19   25   0.062  -0.134   0.147
    1UNL    C20   26  -0.020  -0.189   0.024
    1UNL     H1   27   0.083   0.501   0.018
    1UNL     H2   28   0.081   0.459   0.201
    1UNL     H3   29  -0.062   0.514   0.124
    1UNL     H4   30  -0.184   0.241   0.009
    1UNL     H5   31  -0.571   0.238   0.047
    1UNL     H6   32  -0.628  -0.001   0.045
    1UNL     H7   33  -0.555  -0.230   0.019
    1UNL     H8   34  -0.319  -0.279  -0.030
    1UNL     H9   35  -0.169  -0.098  -0.253
    1UNL    H10   36  -0.018   0.005  -0.229
    1UNL    H11   37  -0.048  -0.298  -0.259
    1UNL    H12   38   0.092  -0.197  -0.291
    1UNL    H13   39   0.264  -0.230  -0.161
    1UNL    H14   40   0.256  -0.280   0.004
    1UNL    H15   41   0.232   0.010  -0.106
    1UNL    H16   42   0.388  -0.123   0.119
    1UNL    H17   43   0.367   0.119   0.135
    1UNL    H18   44   0.440   0.144  -0.023
    1UNL    H19   45   0.543   0.074   0.105
    1UNL    H20   46   0.561  -0.123  -0.032
    1UNL    H21   47   0.188   0.013   0.185
    1UNL    H22   48  -0.014  -0.093   0.213
    1UNL    H23   49   0.126  -0.219   0.180
    1UNL    H24   50  -0.099  -0.261   0.059
   0.00000   0.00000   0.00000   0.00000   0.00000   0.00000   0.00000   0.00000   0.00000
Generated with MDTraj, t= 70.0
 50
    1UNL     C1    1   0.049   0.461   0.075
    1UNL     O1    2  -0.006   0.323   0.070
    1UNL     C2    3   0.085   0.229   0.091
    1UNL     O2    4   0.204   0.256   0.120
    1UNL     C3    5   0.047   0.092   0.063
    1UNL     C4    6  -0.074   0.065   0.001
    1UNL     N1    7  -0.188   0.132   0.005
    1UNL     C5    8  -0.299   0.054  -0.005
    1UNL     C6    9  -0.435   0.087   0.023
    1UNL     O3   10  -0.479   0.215   0.040
    1UNL     C7   11  -0.516  -0.021   0.008
    1UNL     C8   12  -0.478  -0.153  -0.015
    1UNL     C9   13  -0.343  -0.186  -0.037
    1UNL    C10   14  -0.253  -0.079  -0.027
    1UNL    C11   15  -0.106  -0.072  -0.055
    1UNL    C12   16  -0.070  -0.090  -0.204
    1UNL    C13   17   0.014  -0.212  -0.219
    1UNL     N2   18   0.062  -0.245  -0.085
    1UNL    C14   19   0.206  -0.214  -0.064
    1UNL    C15   20   0.235  -0.063  -0.015
    1UNL    C16   21   0.385  -0.054   0.037
    1UNL    C17   22   0.423   0.086   0.078
    1UNL     O4   23   0.470  -0.115  -0.067
    1UNL    C18   24   0.136  -0.029   0.097
    1UNL    C19   25   0.047  -0.143   0.143
    1UNL    C20   26  -0.034  -0.189   0.011
    1UNL     H1   27   0.101   0.468  -0.024
    1UNL     H2   28   0.107   0.475   0.168
    1UNL     H3   29  -0.038   0.531   0.078
    1UNL     H4   30  -0.194   0.227   0.045
    1UNL     H5   31  -0.576   0.214   0.063
    1UNL     H6   32  -0.623  -0.005   0.037
    1UNL     H7   33  -0.548  -0.237  -0.016
    1UNL     H8   34  -0.315  -0.290  -0.047
    1UNL     H9   35  -0.166  -0.091  -0.257
    1UNL    H10   36  -0.012   0.006  -0.232
    1UNL    H11   37  -0.053  -0.297  -0.250
    1UNL    H12   38   0.084  -0.197  -0.297
    1UNL    H13   39   0.265  -0.225  -0.156
    1UNL    H14   40   0.250  -0.280   0.012
    1UNL    H15   41   0.228   0.010  -0.100
    1UNL    H16   42   0.394  -0.113   0.129
    1UNL    H17   43   0.353   0.127   0.150
    1UNL    H18   44   0.415   0.158  -0.006
    1UNL    H19   45   0.526   0.092   0.119
    1UNL    H20   46   0.564  -0.114  -0.033
    1UNL    H21   47   0.202  -0.010   0.181
    1UNL    H22   48  -0.018  -0.113   0.226
    1UNL    H23   49   0.117  -0.224   0.166
    1UNL    H24   50  -0.100  -0.269   0.058
   0.00000   0.00000   0.00000   0.00000   0.00000   0.00000   0.00000   0.00000   0.00000
Generated with MDTraj, t= 71.0
 50
    1UNL     C1    1   0.056   0.450   0.089
    1UNL     O1    2   0.003   0.326   0.039
    1UNL     C2    3   0.083   0.230   0.078
    1UNL     O2    4   0.197   0.243   0.133
    1UNL     C3    5   0.048   0.088   0.051
    1UNL     C4    6  -0.074   0.057  -0.001
    1UNL     N1    7  -0.188   0.131   0.021
    1UNL     C5    8  -0.305   0.055  -0.005
    1UNL     C6    9  -0.440   0.082   0.022
    1UNL     O3   10  -0.463   0.206   0.067
    1UNL     C7   11  -0.537  -0.016  -0.003
    1UNL     C8   12  -0.499  -0.147  -0.036
    1UNL     C9   13  -0.369  -0.177  -0.048
    1UNL    C10   14  -0.268  -0.078  -0.037
    1UNL    C11   15  -0.113  -0.078  -0.048
    1UNL    C12   16  -0.075  -0.096  -0.196
    1UNL    C13   17   0.034  -0.206  -0.212
    1UNL     N2   18   0.072  -0.240  -0.080
    1UNL    C14   19   0.216  -0.220  -0.036
    1UNL    C15   20   0.242  -0.067  -0.007
    1UNL    C16   21   0.392  -0.048   0.026
    1UNL    C17   22   0.430   0.095   0.047
    1UNL     O4   23   0.484  -0.103  -0.071
    1UNL    C18   24   0.137  -0.026   0.104
    1UNL    C19   25   0.037  -0.137   0.151
    1UNL    C20   26  -0.033  -0.195   0.013
    1UNL     H1   27   0.162   0.454   0.053
    1UNL     H2   28   0.036   0.461   0.198
    1UNL     H3   29  -0.007   0.527   0.040
    1UNL     H4   30  -0.188   0.213   0.078
    1UNL     H5   31  -0.557   0.210   0.094
    1UNL     H6   32  -0.634   0.020  -0.020
    1UNL     H7   33  -0.577  -0.217  -0.032
    1UNL     H8   34  -0.330  -0.267  -0.089
    1UNL     H9   35  -0.176  -0.127  -0.237
    1UNL    H10   36  -0.054   0.007  -0.235
    1UNL    H11   37  -0.004  -0.290  -0.272
    1UNL    H12   38   0.119  -0.163  -0.262
    1UNL    H13   39   0.288  -0.256  -0.110
    1UNL    H14   40   0.237  -0.275   0.057
    1UNL    H15   41   0.212  -0.014  -0.100
    1UNL    H16   42   0.400  -0.109   0.119
    1UNL    H17   43   0.390   0.140   0.138
    1UNL    H18   44   0.400   0.163  -0.031
    1UNL    H19   45   0.542   0.092   0.058
    1UNL    H20   46   0.584  -0.076  -0.056
    1UNL    H21   47   0.189   0.011   0.191
    1UNL    H22   48  -0.035  -0.094   0.225
    1UNL    H23   49   0.095  -0.214   0.193
    1UNL    H24   50  -0.088  -0.289   0.042
   0.00000   0.00000   0.00000   0.00000   0.00000   0.00000   0.00000   0.00000   0.00000
Generated with MDTraj, t= 72.0
 50
    1UNL     C1    1   0.036   0.455   0.089
    1UNL     O1    2  -0.006   0.329   0.041
    1UNL     C2    3   0.073   0.233   0.099
    1UNL     O2    4   0.170   0.258   0.177
    1UNL     C3    5   0.054   0.091   0.061
    1UNL     C4    6  -0.064   0.059  -0.002
    1UNL     N1    7  -0.180   0.139   0.012
    1UNL     C5    8  -0.294   0.054  -0.009
    1UNL     C6    9  -0.425   0.086   0.022
    1UNL     O3   10  -0.455   0.217   0.065
    1UNL     C7   11  -0.519  -0.013   0.003
    1UNL     C8   12  -0.475  -0.142  -0.035
    1UNL     C9   13  -0.344  -0.173  -0.060
    1UNL    C10   14  -0.254  -0.074  -0.031
    1UNL    C11   15  -0.104  -0.081  -0.051
    1UNL    C12   16  -0.076  -0.107  -0.207
    1UNL    C13   17   0.016  -0.233  -0.209
    1UNL     N2   18   0.065  -0.256  -0.073
    1UNL    C14   19   0.211  -0.227  -0.049
    1UNL    C15   20   0.232  -0.074  -0.013
    1UNL    C16   21   0.387  -0.050   0.016
    1UNL    C17   22   0.418   0.105   0.023
    1UNL     O4   23   0.474  -0.118  -0.074
    1UNL    C18   24   0.139  -0.026   0.104
    1UNL    C19   25   0.042  -0.132   0.142
    1UNL    C20   26  -0.029  -0.189   0.024
    1UNL     H1   27   0.132   0.482   0.044
    1UNL     H2   28   0.023   0.465   0.196
    1UNL     H3   29  -0.048   0.509   0.047
    1UNL     H4   30  -0.197   0.234   0.041
    1UNL     H5   31  -0.549   0.227   0.083
    1UNL     H6   32  -0.627   0.006   0.014
    1UNL     H7   33  -0.559  -0.211  -0.062
    1UNL     H8   34  -0.303  -0.267  -0.103
    1UNL     H9   35  -0.175  -0.104  -0.270
    1UNL    H10   36  -0.022  -0.016  -0.231
    1UNL    H11   37  -0.048  -0.315  -0.235
    1UNL    H12   38   0.096  -0.232  -0.284
    1UNL    H13   39   0.273  -0.257  -0.134
    1UNL    H14   40   0.255  -0.289   0.032
    1UNL    H15   41   0.215  -0.019  -0.108
    1UNL    H16   42   0.405  -0.095   0.119
    1UNL    H17   43   0.363   0.154   0.107
    1UNL    H18   44   0.386   0.156  -0.065
    1UNL    H19   45   0.527   0.115   0.044
    1UNL    H20   46   0.570  -0.081  -0.064
    1UNL    H21   47   0.196  -0.017   0.195
    1UNL    H22   48  -0.033  -0.089   0.212
    1UNL    H23   49   0.092  -0.212   0.187
    1UNL    H24   50  -0.110  -0.263   0.047
   0.00000   0.00000   0.00000   0.00000   0.00000   0.00000   0.00000   0.00000   0.00000
Generated with MDTraj, t= 73.0
 50
    1UNL     C1    1   0.040   0.455   0.129
    1UNL     O1    2  -0.005   0.325   0.063
    1UNL     C2    3   0.078   0.225   0.106
    1UNL     O2    4   0.171   0.249   0.187
    1UNL     C3    5   0.049   0.092   0.055
    1UNL     C4    6  -0.071   0.060  -0.008
    1UNL     N1    7  -0.181   0.142  -0.026
    1UNL     C5    8  -0.296   0.062  -0.026
    1UNL     C6    9  -0.428   0.096   0.011
    1UNL     O3   10  -0.464   0.224   0.034
    1UNL     C7   11  -0.512  -0.015   0.013
    1UNL     C8   12  -0.469  -0.147  -0.023
    1UNL     C9   13  -0.334  -0.181  -0.050
    1UNL    C10   14  -0.251  -0.071  -0.042
    1UNL    C11   15  -0.107  -0.081  -0.049
    1UNL    C12   16  -0.060  -0.107  -0.196
    1UNL    C13   17   0.020  -0.232  -0.194
    1UNL     N2   18   0.062  -0.258  -0.061
    1UNL    C14   19   0.215  -0.225  -0.035
    1UNL    C15   20   0.230  -0.073  -0.018
    1UNL    C16   21   0.382  -0.049   0.001
    1UNL    C17   22   0.413   0.105  -0.000
    1UNL     O4   23   0.456  -0.119  -0.090
    1UNL    C18   24   0.138  -0.017   0.097
    1UNL    C19   25   0.050  -0.133   0.152
    1UNL    C20   26  -0.032  -0.197   0.035
    1UNL     H1   27   0.140   0.481   0.096
    1UNL     H2   28   0.035   0.451   0.236
    1UNL     H3   29  -0.037   0.523   0.097
    1UNL     H4   30  -0.187   0.231   0.024
    1UNL     H5   31  -0.557   0.225   0.058
    1UNL     H6   32  -0.618   0.002   0.031
    1UNL     H7   33  -0.536  -0.227  -0.021
    1UNL     H8   34  -0.317  -0.286  -0.046
    1UNL     H9   35  -0.152  -0.114  -0.270
    1UNL    H10   36  -0.004  -0.021  -0.229
    1UNL    H11   37  -0.037  -0.315  -0.224
    1UNL    H12   38   0.106  -0.226  -0.265
    1UNL    H13   39   0.270  -0.253  -0.125
    1UNL    H14   40   0.268  -0.288   0.040
    1UNL    H15   41   0.209  -0.018  -0.113
    1UNL    H16   42   0.395  -0.089   0.107
    1UNL    H17   43   0.341   0.162   0.062
    1UNL    H18   44   0.403   0.154  -0.097
    1UNL    H19   45   0.510   0.121   0.049
    1UNL    H20   46   0.549  -0.086  -0.087
    1UNL    H21   47   0.194   0.040   0.170
    1UNL    H22   48  -0.028  -0.085   0.212
    1UNL    H23   49   0.107  -0.199   0.213
    1UNL    H24   50  -0.113  -0.268   0.062
   0.00000   0.00000   0.00000   0.00000   0.00000   0.00000   0.00000   0.00000   0.00000
Generated with MDTraj, t= 74.0
 50
    1UNL     C1    1   0.038   0.436   0.166
    1UNL     O1    2  -0.014   0.322   0.093
    1UNL     C2    3   0.084   0.223   0.097
    1UNL     O2    4   0.197   0.240   0.154
    1UNL     C3    5   0.057   0.091   0.051
    1UNL     C4    6  -0.063   0.066  -0.010
    1UNL     N1    7  -0.180   0.142  -0.011
    1UNL     C5    8  -0.293   0.060  -0.018
    1UNL     C6    9  -0.429   0.092  -0.016
    1UNL     O3   10  -0.459   0.227  -0.009
    1UNL     C7   11  -0.522  -0.012  -0.001
    1UNL     C8   12  -0.486  -0.142  -0.014
    1UNL     C9   13  -0.348  -0.173  -0.030
    1UNL    C10   14  -0.252  -0.076  -0.024
    1UNL    C11   15  -0.104  -0.080  -0.047
    1UNL    C12   16  -0.064  -0.113  -0.190
    1UNL    C13   17   0.029  -0.235  -0.189
    1UNL     N2   18   0.072  -0.264  -0.057
    1UNL    C14   19   0.217  -0.225  -0.026
    1UNL    C15   20   0.224  -0.077  -0.021
    1UNL    C16   21   0.375  -0.040  -0.005
    1UNL    C17   22   0.398   0.115  -0.007
    1UNL     O4   23   0.455  -0.101  -0.104
    1UNL    C18   24   0.143  -0.023   0.101
    1UNL    C19   25   0.044  -0.129   0.153
    1UNL    C20   26  -0.026  -0.199   0.037
    1UNL     H1   27   0.142   0.462   0.137
    1UNL     H2   28   0.032   0.415   0.272
    1UNL     H3   29  -0.038   0.510   0.136
    1UNL     H4   30  -0.185   0.244   0.015
    1UNL     H5   31  -0.556   0.240  -0.013
    1UNL     H6   32  -0.619   0.026   0.012
    1UNL     H7   33  -0.564  -0.216   0.018
    1UNL     H8   34  -0.313  -0.277  -0.023
    1UNL     H9   35  -0.160  -0.123  -0.250
    1UNL    H10   36  -0.010  -0.027  -0.233
    1UNL    H11   37  -0.028  -0.318  -0.211
    1UNL    H12   38   0.112  -0.228  -0.265
    1UNL    H13   39   0.287  -0.261  -0.102
    1UNL    H14   40   0.254  -0.275   0.065
    1UNL    H15   41   0.189  -0.031  -0.116
    1UNL    H16   42   0.395  -0.083   0.097
    1UNL    H17   43   0.361   0.168   0.081
    1UNL    H18   44   0.342   0.167  -0.088
    1UNL    H19   45   0.502   0.143  -0.004
    1UNL    H20   46   0.539  -0.062  -0.109
    1UNL    H21   47   0.201   0.022   0.179
    1UNL    H22   48  -0.029  -0.082   0.215
    1UNL    H23   49   0.098  -0.203   0.211
    1UNL    H24   50  -0.110  -0.262   0.070
   0.00000   0.00000   0.00000   0.00000   0.00000   0.00000   0.00000   0.00000   0.00000
Generated with MDTraj, t= 75.0
 50
    1UNL     C1    1   0.008   0.439   0.155
    1UNL     O1    2  -0.026   0.313   0.123
    1UNL     C2    3   0.081   0.229   0.119
    1UNL     O2    4   0.199   0.262   0.155
    1UNL     C3    5   0.056   0.090   0.071
    1UNL     C4    6  -0.061   0.059   0.005
    1UNL     N1    7  -0.177   0.144  -0.004
    1UNL     C5    8  -0.288   0.057  -0.020
    1UNL     C6    9  -0.421   0.097  -0.022
    1UNL     O3   10  -0.445   0.232  -0.024
    1UNL     C7   11  -0.516  -0.001  -0.041
    1UNL     C8   12  -0.489  -0.136  -0.024
    1UNL     C9   13  -0.355  -0.180  -0.016
    1UNL    C10   14  -0.253  -0.079  -0.018
    1UNL    C11   15  -0.097  -0.083  -0.034
    1UNL    C12   16  -0.069  -0.116  -0.185
    1UNL    C13   17   0.005  -0.257  -0.182
    1UNL     N2   18   0.065  -0.267  -0.052
    1UNL    C14   19   0.210  -0.222  -0.051
    1UNL    C15   20   0.233  -0.069  -0.028
    1UNL    C16   21   0.380  -0.036  -0.017
    1UNL    C17   22   0.414   0.110  -0.013
    1UNL     O4   23   0.448  -0.107  -0.124
    1UNL    C18   24   0.155  -0.023   0.103
    1UNL    C19   25   0.060  -0.132   0.158
    1UNL    C20   26  -0.020  -0.193   0.051
    1UNL     H1   27   0.051   0.501   0.071
    1UNL     H2   28   0.066   0.437   0.249
    1UNL     H3   29  -0.098   0.475   0.169
    1UNL     H4   30  -0.193   0.233   0.050
    1UNL     H5   31  -0.546   0.237  -0.020
    1UNL     H6   32  -0.623   0.035  -0.050
    1UNL     H7   33  -0.561  -0.212  -0.034
    1UNL     H8   34  -0.325  -0.283  -0.001
    1UNL     H9   35  -0.160  -0.108  -0.244
    1UNL    H10   36   0.002  -0.036  -0.225
    1UNL    H11   37  -0.065  -0.330  -0.195
    1UNL    H12   38   0.087  -0.272  -0.257
    1UNL    H13   39   0.258  -0.258  -0.141
    1UNL    H14   40   0.262  -0.274   0.032
    1UNL    H15   41   0.207  -0.025  -0.127
    1UNL    H16   42   0.422  -0.076   0.075
    1UNL    H17   43   0.378   0.156   0.080
    1UNL    H18   44   0.361   0.168  -0.093
    1UNL    H19   45   0.521   0.128  -0.007
    1UNL    H20   46   0.533  -0.070  -0.141
    1UNL    H21   47   0.222  -0.004   0.184
    1UNL    H22   48  -0.007  -0.090   0.228
    1UNL    H23   49   0.122  -0.207   0.210
    1UNL    H24   50  -0.083  -0.277   0.083
   0.00000   0.00000   0.00000   0.00000   0.00000   0.00000   0.00000   0.00000   0.00000
Generated with MDTraj, t= 76.0
 50
    1UNL     C1    1   0.009   0.446   0.168
    1UNL     O1    2  -0.018   0.318   0.107
    1UNL     C2    3   0.091   0.231   0.116
    1UNL     O2    4   0.203   0.262   0.167
    1UNL     C3    5   0.060   0.093   0.067
    1UNL     C4    6  -0.061   0.057   0.011
    1UNL     N1    7  -0.177   0.131   0.009
    1UNL     C5    8  -0.296   0.055  -0.013
    1UNL     C6    9  -0.434   0.097  -0.022
    1UNL     O3   10  -0.461   0.232  -0.027
    1UNL     C7   11  -0.527  -0.005  -0.035
    1UNL     C8   12  -0.482  -0.142  -0.045
    1UNL     C9   13  -0.349  -0.182  -0.032
    1UNL    C10   14  -0.257  -0.077  -0.021
    1UNL    C11   15  -0.094  -0.085  -0.030
    1UNL    C12   16  -0.064  -0.111  -0.183
    1UNL    C13   17   0.007  -0.248  -0.176
    1UNL     N2   18   0.059  -0.263  -0.044
    1UNL    C14   19   0.208  -0.225  -0.032
    1UNL    C15   20   0.233  -0.073  -0.023
    1UNL    C16   21   0.385  -0.043  -0.020
    1UNL    C17   22   0.414   0.104  -0.028
    1UNL     O4   23   0.452  -0.106  -0.140
    1UNL    C18   24   0.157  -0.022   0.105
    1UNL    C19   25   0.061  -0.130   0.171
    1UNL    C20   26  -0.028  -0.191   0.052
    1UNL     H1   27   0.078   0.512   0.109
    1UNL     H2   28   0.058   0.421   0.262
    1UNL     H3   29  -0.084   0.504   0.179
    1UNL     H4   30  -0.186   0.233   0.018
    1UNL     H5   31  -0.560   0.248  -0.037
    1UNL     H6   32  -0.620   0.025  -0.066
    1UNL     H7   33  -0.564  -0.213  -0.061
    1UNL     H8   34  -0.317  -0.277  -0.067
    1UNL     H9   35  -0.143  -0.113  -0.254
    1UNL    H10   36   0.012  -0.032  -0.221
    1UNL    H11   37  -0.056  -0.330  -0.192
    1UNL    H12   38   0.090  -0.248  -0.247
    1UNL    H13   39   0.253  -0.252  -0.126
    1UNL    H14   40   0.253  -0.282   0.051
    1UNL    H15   41   0.185  -0.036  -0.116
    1UNL    H16   42   0.428  -0.078   0.071
    1UNL    H17   43   0.369   0.167   0.048
    1UNL    H18   44   0.374   0.133  -0.127
    1UNL    H19   45   0.523   0.119  -0.019
    1UNL    H20   46   0.537  -0.063  -0.171
    1UNL    H21   47   0.227   0.023   0.171
    1UNL    H22   48   0.014  -0.081   0.252
    1UNL    H23   49   0.131  -0.202   0.216
    1UNL    H24   50  -0.105  -0.255   0.091
   0.00000   0.00000   0.00000   0.00000   0.00000   0.00000   0.00000   0.00000   0.00000
Generated with MDTraj, t= 77.0
 50
    1UNL     C1    1   0.048   0.446   0.165
    1UNL     O1    2   0.001   0.333   0.097
    1UNL     C2    3   0.091   0.232   0.111
    1UNL     O2    4   0.205   0.245   0.163
    1UNL     C3    5   0.054   0.104   0.061
    1UNL     C4    6  -0.062   0.067  -0.006
    1UNL     N1    7  -0.173   0.139  -0.019
    1UNL     C5    8  -0.291   0.057  -0.010
    1UNL     C6    9  -0.426   0.089  -0.009
    1UNL     O3   10  -0.464   0.213   0.007
    1UNL     C7   11  -0.518  -0.015  -0.030
    1UNL     C8   12  -0.483  -0.149  -0.049
    1UNL     C9   13  -0.344  -0.180  -0.049
    1UNL    C10   14  -0.248  -0.080  -0.020
    1UNL    C11   15  -0.099  -0.082  -0.039
    1UNL    C12   16  -0.070  -0.114  -0.189
    1UNL    C13   17   0.021  -0.238  -0.186
    1UNL     N2   18   0.059  -0.269  -0.045
    1UNL    C14   19   0.205  -0.235  -0.022
    1UNL    C15   20   0.223  -0.079  -0.013
    1UNL    C16   21   0.374  -0.035  -0.017
    1UNL    C17   22   0.388   0.112  -0.030
    1UNL     O4   23   0.448  -0.101  -0.117
    1UNL    C18   24   0.139  -0.016   0.109
    1UNL    C19   25   0.045  -0.128   0.169
    1UNL    C20   26  -0.034  -0.187   0.049
    1UNL     H1   27   0.156   0.458   0.156
    1UNL     H2   28   0.021   0.442   0.268
    1UNL     H3   29   0.003   0.529   0.112
    1UNL     H4   30  -0.175   0.217   0.043
    1UNL     H5   31  -0.564   0.219  -0.002
    1UNL     H6   32  -0.625   0.019  -0.019
    1UNL     H7   33  -0.564  -0.215  -0.076
    1UNL     H8   34  -0.307  -0.277  -0.092
    1UNL     H9   35  -0.150  -0.119  -0.259
    1UNL    H10   36  -0.001  -0.035  -0.234
    1UNL    H11   37  -0.039  -0.322  -0.212
    1UNL    H12   38   0.106  -0.240  -0.253
    1UNL    H13   39   0.263  -0.272  -0.105
    1UNL    H14   40   0.239  -0.281   0.072
    1UNL    H15   41   0.175  -0.045  -0.107
    1UNL    H16   42   0.428  -0.056   0.073
    1UNL    H17   43   0.335   0.157   0.054
    1UNL    H18   44   0.333   0.143  -0.118
    1UNL    H19   45   0.489   0.159  -0.025
    1UNL    H20   46   0.537  -0.048  -0.135
    1UNL    H21   47   0.205   0.018   0.186
    1UNL    H22   48  -0.014  -0.081   0.244
    1UNL    H23   49   0.111  -0.195   0.224
    1UNL    H24   50  -0.111  -0.241   0.101
   0.00000   0.00000   0.00000   0.00000   0.00000   0.00000   0.00000   0.00000   0.00000
Generated with MDTraj, t= 78.0
 50
    1UNL     C1    1   0.039   0.444   0.116
    1UNL     O1    2  -0.009   0.323   0.068
    1UNL     C2    3   0.074   0.225   0.112
    1UNL     O2    4   0.177   0.241   0.184
    1UNL     C3    5   0.053   0.091   0.068
    1UNL     C4    6  -0.061   0.055   0.001
    1UNL     N1    7  -0.174   0.136  -0.011
    1UNL     C5    8  -0.293   0.060  -0.010
    1UNL     C6    9  -0.426   0.089   0.012
    1UNL     O3   10  -0.457   0.222   0.034
    1UNL     C7   11  -0.522  -0.010  -0.004
    1UNL     C8   12  -0.491  -0.141  -0.041
    1UNL     C9   13  -0.354  -0.177  -0.057
    1UNL    C10   14  -0.253  -0.071  -0.049
    1UNL    C11   15  -0.092  -0.079  -0.054
    1UNL    C12   16  -0.044  -0.098  -0.190
    1UNL    C13   17   0.023  -0.236  -0.192
    1UNL     N2   18   0.065  -0.261  -0.050
    1UNL    C14   19   0.213  -0.226  -0.036
    1UNL    C15   20   0.228  -0.075  -0.015
    1UNL    C16   21   0.375  -0.039  -0.004
    1UNL    C17   22   0.404   0.119  -0.020
    1UNL     O4   23   0.453  -0.110  -0.100
    1UNL    C18   24   0.144  -0.025   0.110
    1UNL    C19   25   0.043  -0.138   0.161
    1UNL    C20   26  -0.030  -0.189   0.045
    1UNL     H1   27   0.123   0.471   0.049
    1UNL     H2   28   0.073   0.445   0.218
    1UNL     H3   29  -0.031   0.525   0.098
    1UNL     H4   30  -0.175   0.235   0.008
    1UNL     H5   31  -0.553   0.226   0.029
    1UNL     H6   32  -0.618   0.019   0.030
    1UNL     H7   33  -0.560  -0.224  -0.050
    1UNL     H8   34  -0.324  -0.275  -0.065
    1UNL     H9   35  -0.117  -0.080  -0.268
    1UNL    H10   36   0.033  -0.027  -0.221
    1UNL    H11   37  -0.047  -0.317  -0.212
    1UNL    H12   38   0.102  -0.257  -0.259
    1UNL    H13   39   0.278  -0.259  -0.115
    1UNL    H14   40   0.248  -0.274   0.056
    1UNL    H15   41   0.199  -0.025  -0.110
    1UNL    H16   42   0.412  -0.078   0.090
    1UNL    H17   43   0.357   0.195   0.047
    1UNL    H18   44   0.372   0.147  -0.119
    1UNL    H19   45   0.512   0.144  -0.018
    1UNL    H20   46   0.556  -0.112  -0.089
    1UNL    H21   47   0.198   0.004   0.197
    1UNL    H22   48  -0.025  -0.097   0.234
    1UNL    H23   49   0.099  -0.218   0.203
    1UNL    H24   50  -0.109  -0.257   0.068
   0.00000   0.00000   0.00000   0.00000   0.00000   0.00000   0.00000   0.00000   0.00000
Generated with MDTraj, t= 79.0
 50
    1UNL     C1    1   0.025   0.448   0.096
    1UNL     O1    2  -0.001   0.321   0.043
    1UNL     C2    3   0.082   0.227   0.096
    1UNL     O2    4   0.173   0.254   0.179
    1UNL     C3    5   0.057   0.092   0.051
    1UNL     C4    6  -0.062   0.059  -0.012
    1UNL     N1    7  -0.180   0.134   0.008
    1UNL     C5    8  -0.294   0.054   0.007
    1UNL     C6    9  -0.430   0.099   0.008
    1UNL     O3   10  -0.462   0.225   0.048
    1UNL     C7   11  -0.522  -0.004  -0.005
    1UNL     C8   12  -0.485  -0.138  -0.025
    1UNL     C9   13  -0.351  -0.183  -0.031
    1UNL    C10   14  -0.258  -0.078  -0.025
    1UNL    C11   15  -0.093  -0.085  -0.056
    1UNL    C12   16  -0.067  -0.101  -0.200
    1UNL    C13   17   0.024  -0.229  -0.214
    1UNL     N2   18   0.070  -0.260  -0.078
    1UNL    C14   19   0.210  -0.217  -0.047
    1UNL    C15   20   0.240  -0.075  -0.013
    1UNL    C16   21   0.388  -0.048   0.018
    1UNL    C17   22   0.410   0.106   0.032
    1UNL     O4   23   0.464  -0.107  -0.080
    1UNL    C18   24   0.139  -0.028   0.094
    1UNL    C19   25   0.039  -0.142   0.150
    1UNL    C20   26  -0.026  -0.197   0.021
    1UNL     H1   27   0.108   0.484   0.032
    1UNL     H2   28   0.059   0.454   0.200
    1UNL     H3   29  -0.057   0.523   0.090
    1UNL     H4   30  -0.171   0.219   0.067
    1UNL     H5   31  -0.558   0.228   0.042
    1UNL     H6   32  -0.623   0.030   0.005
    1UNL     H7   33  -0.571  -0.202  -0.012
    1UNL     H8   34  -0.316  -0.289  -0.048
    1UNL     H9   35  -0.159  -0.108  -0.260
    1UNL    H10   36  -0.013  -0.022  -0.241
    1UNL    H11   37  -0.028  -0.319  -0.252
    1UNL    H12   38   0.109  -0.221  -0.272
    1UNL    H13   39   0.269  -0.239  -0.134
    1UNL    H14   40   0.253  -0.285   0.026
    1UNL    H15   41   0.223  -0.012  -0.103
    1UNL    H16   42   0.419  -0.091   0.116
    1UNL    H17   43   0.351   0.157   0.110
    1UNL    H18   44   0.391   0.153  -0.063
    1UNL    H19   45   0.516   0.124   0.055
    1UNL    H20   46   0.552  -0.121  -0.045
    1UNL    H21   47   0.197   0.016   0.173
    1UNL    H22   48  -0.037  -0.103   0.218
    1UNL    H23   49   0.097  -0.212   0.199
    1UNL    H24   50  -0.109  -0.264   0.031
   0.00000   0.00000   0.00000   0.00000   0.00000   0.00000   0.00000   0.00000   0.00000
Generated with MDTraj, t= 80.0
 50
    1UNL     C1    1   0.051   0.450   0.101
    1UNL     O1    2   0.004   0.330   0.059
    1UNL     C2    3   0.088   0.228   0.082
    1UNL     O2    4   0.197   0.250   0.137
    1UNL     C3    5   0.052   0.094   0.044
    1UNL     C4    6  -0.071   0.061  -0.003
    1UNL     N1    7  -0.187   0.133  -0.006
    1UNL     C5    8  -0.307   0.057  -0.021
    1UNL     C6    9  -0.438   0.087   0.010
    1UNL     O3   10  -0.469   0.216   0.042
    1UNL     C7   11  -0.530  -0.017   0.016
    1UNL     C8   12  -0.496  -0.155   0.002
    1UNL     C9   13  -0.359  -0.187  -0.030
    1UNL    C10   14  -0.262  -0.081  -0.040
    1UNL    C11   15  -0.107  -0.085  -0.055
    1UNL    C12   16  -0.088  -0.102  -0.207
    1UNL    C13   17   0.014  -0.219  -0.216
    1UNL     N2   18   0.069  -0.247  -0.082
    1UNL    C14   19   0.219  -0.207  -0.070
    1UNL    C15   20   0.241  -0.063  -0.012
    1UNL    C16   21   0.393  -0.053   0.040
    1UNL    C17   22   0.437   0.085   0.077
    1UNL     O4   23   0.481  -0.100  -0.064
    1UNL    C18   24   0.137  -0.024   0.099
    1UNL    C19   25   0.040  -0.136   0.143
    1UNL    C20   26  -0.030  -0.191   0.020
    1UNL     H1   27   0.163   0.447   0.103
    1UNL     H2   28   0.008   0.491   0.195
    1UNL     H3   29   0.022   0.532   0.030
    1UNL     H4   30  -0.199   0.232   0.029
    1UNL     H5   31  -0.560   0.223   0.079
    1UNL     H6   32  -0.634   0.013   0.042
    1UNL     H7   33  -0.576  -0.225  -0.022
    1UNL     H8   34  -0.336  -0.290  -0.033
    1UNL     H9   35  -0.176  -0.126  -0.271
    1UNL    H10   36  -0.041  -0.022  -0.252
    1UNL    H11   37  -0.042  -0.313  -0.234
    1UNL    H12   38   0.084  -0.210  -0.289
    1UNL    H13   39   0.277  -0.231  -0.159
    1UNL    H14   40   0.257  -0.283  -0.002
    1UNL    H15   41   0.222   0.008  -0.095
    1UNL    H16   42   0.402  -0.120   0.131
    1UNL    H17   43   0.376   0.136   0.152
    1UNL    H18   44   0.417   0.130  -0.023
    1UNL    H19   45   0.543   0.097   0.095
    1UNL    H20   46   0.568  -0.070  -0.057
    1UNL    H21   47   0.202   0.013   0.176
    1UNL    H22   48  -0.032  -0.089   0.211
    1UNL    H23   49   0.092  -0.209   0.196
    1UNL    H24   50  -0.106  -0.259   0.055
   0.00000   0.00000   0.00000   0.00000   0.00000   0.00000   0.00000   0.00000   0.00000
Generated with MDTraj, t= 81.0
 50
    1UNL     C1    1   0.041   0.452   0.091
    1UNL     O1    2  -0.009   0.328   0.060
    1UNL     C2    3   0.087   0.233   0.082
    1UNL     O2    4   0.201   0.263   0.122
    1UNL     C3    5   0.053   0.094   0.049
    1UNL     C4    6  -0.070   0.061  -0.006
    1UNL     N1    7  -0.182   0.139  -0.006
    1UNL     C5    8  -0.300   0.060  -0.016
    1UNL     C6    9  -0.435   0.082   0.012
    1UNL     O3   10  -0.469   0.215   0.029
    1UNL     C7   11  -0.516  -0.027   0.040
    1UNL     C8   12  -0.481  -0.162   0.007
    1UNL     C9   13  -0.350  -0.185  -0.032
    1UNL    C10   14  -0.259  -0.076  -0.031
    1UNL    C11   15  -0.105  -0.075  -0.056
    1UNL    C12   16  -0.094  -0.088  -0.206
    1UNL    C13   17   0.011  -0.202  -0.224
    1UNL     N2   18   0.064  -0.241  -0.093
    1UNL    C14   19   0.215  -0.216  -0.076
    1UNL    C15   20   0.243  -0.070  -0.013
    1UNL    C16   21   0.385  -0.058   0.042
    1UNL    C17   22   0.425   0.076   0.085
    1UNL     O4   23   0.479  -0.122  -0.045
    1UNL    C18   24   0.138  -0.023   0.097
    1UNL    C19   25   0.038  -0.136   0.142
    1UNL    C20   26  -0.028  -0.191   0.017
    1UNL     H1   27   0.135   0.470   0.037
    1UNL     H2   28   0.061   0.465   0.197
    1UNL     H3   29  -0.027   0.537   0.074
    1UNL     H4   30  -0.188   0.233   0.038
    1UNL     H5   31  -0.566   0.215   0.054
    1UNL     H6   32  -0.615  -0.002   0.058
    1UNL     H7   33  -0.556  -0.238  -0.005
    1UNL     H8   34  -0.320  -0.281  -0.073
    1UNL     H9   35  -0.190  -0.112  -0.255
    1UNL    H10   36  -0.057  -0.001  -0.251
    1UNL    H11   37  -0.040  -0.290  -0.261
    1UNL    H12   38   0.090  -0.178  -0.287
    1UNL    H13   39   0.264  -0.236  -0.171
    1UNL    H14   40   0.256  -0.296  -0.014
    1UNL    H15   41   0.233  -0.006  -0.102
    1UNL    H16   42   0.382  -0.124   0.137
    1UNL    H17   43   0.358   0.120   0.159
    1UNL    H18   44   0.415   0.139  -0.005
    1UNL    H19   45   0.526   0.092   0.119
    1UNL    H20   46   0.567  -0.078  -0.043
    1UNL    H21   47   0.203   0.013   0.174
    1UNL    H22   48  -0.027  -0.092   0.216
    1UNL    H23   49   0.085  -0.218   0.191
    1UNL    H24   50  -0.094  -0.272   0.044
   0.00000   0.00000   0.00000   0.00000   0.00000   0.00000   0.00000   0.00000   0.00000
Generated with MDTraj, t= 82.0
 50
    1UNL     C1    1   0.030   0.444   0.091
    1UNL     O1    2  -0.019   0.324   0.048
    1UNL     C2    3   0.079   0.228   0.081
    1UNL     O2    4   0.187   0.251   0.140
    1UNL     C3    5   0.048   0.090   0.041
    1UNL     C4    6  -0.075   0.055  -0.009
    1UNL     N1    7  -0.186   0.137  -0.010
    1UNL     C5    8  -0.300   0.053  -0.011
    1UNL     C6    9  -0.433   0.092   0.017
    1UNL     O3   10  -0.469   0.218   0.056
    1UNL     C7   11  -0.523  -0.011   0.017
    1UNL     C8   12  -0.485  -0.142   0.000
    1UNL     C9   13  -0.354  -0.181  -0.024
    1UNL    C10   14  -0.263  -0.077  -0.034
    1UNL    C11   15  -0.108  -0.083  -0.055
    1UNL    C12   16  -0.081  -0.093  -0.207
    1UNL    C13   17   0.030  -0.202  -0.220
    1UNL     N2   18   0.076  -0.239  -0.089
    1UNL    C14   19   0.219  -0.204  -0.057
    1UNL    C15   20   0.246  -0.067  -0.009
    1UNL    C16   21   0.387  -0.060   0.041
    1UNL    C17   22   0.439   0.088   0.058
    1UNL     O4   23   0.480  -0.134  -0.046
    1UNL    C18   24   0.136  -0.019   0.085
    1UNL    C19   25   0.042  -0.137   0.138
    1UNL    C20   26  -0.028  -0.198   0.016
    1UNL     H1   27   0.046   0.512   0.009
    1UNL     H2   28   0.125   0.443   0.140
    1UNL     H3   29  -0.033   0.494   0.163
    1UNL     H4   30  -0.183   0.228   0.033
    1UNL     H5   31  -0.568   0.213   0.073
    1UNL     H6   32  -0.630   0.021   0.040
    1UNL     H7   33  -0.571  -0.209   0.006
    1UNL     H8   34  -0.307  -0.277  -0.047
    1UNL     H9   35  -0.176  -0.099  -0.261
    1UNL    H10   36  -0.040   0.000  -0.239
    1UNL    H11   37  -0.009  -0.288  -0.272
    1UNL    H12   38   0.115  -0.166  -0.272
    1UNL    H13   39   0.282  -0.211  -0.146
    1UNL    H14   40   0.257  -0.280   0.011
    1UNL    H15   41   0.249  -0.004  -0.100
    1UNL    H16   42   0.384  -0.112   0.142
    1UNL    H17   43   0.374   0.153   0.116
    1UNL    H18   44   0.447   0.142  -0.038
    1UNL    H19   45   0.535   0.100   0.104
    1UNL    H20   46   0.570  -0.140   0.004
    1UNL    H21   47   0.199   0.020   0.165
    1UNL    H22   48  -0.034  -0.107   0.207
    1UNL    H23   49   0.110  -0.206   0.183
    1UNL    H24   50  -0.082  -0.291   0.031
   0.00000   0.00000   0.00000   0.00000   0.00000   0.00000   0.00000   0.00000   0.00000
Generated with MDTraj, t= 83.0
 50
    1UNL     C1    1   0.039   0.443   0.102
    1UNL     O1    2  -0.009   0.333   0.043
    1UNL     C2    3   0.075   0.228   0.082
    1UNL     O2    4   0.173   0.244   0.161
    1UNL     C3    5   0.052   0.089   0.037
    1UNL     C4    6  -0.062   0.059  -0.025
    1UNL     N1    7  -0.177   0.130   0.003
    1UNL     C5    8  -0.295   0.054   0.008
    1UNL     C6    9  -0.427   0.094   0.030
    1UNL     O3   10  -0.464   0.226   0.057
    1UNL     C7   11  -0.524  -0.007   0.008
    1UNL     C8   12  -0.485  -0.141  -0.015
    1UNL     C9   13  -0.352  -0.181  -0.033
    1UNL    C10   14  -0.255  -0.076  -0.031
    1UNL    C11   15  -0.105  -0.084  -0.061
    1UNL    C12   16  -0.076  -0.111  -0.216
    1UNL    C13   17   0.037  -0.213  -0.222
    1UNL     N2   18   0.072  -0.244  -0.081
    1UNL    C14   19   0.220  -0.222  -0.044
    1UNL    C15   20   0.238  -0.070  -0.013
    1UNL    C16   21   0.380  -0.049   0.029
    1UNL    C17   22   0.422   0.103   0.027
    1UNL     O4   23   0.474  -0.126  -0.039
    1UNL    C18   24   0.137  -0.019   0.099
    1UNL    C19   25   0.033  -0.137   0.137
    1UNL    C20   26  -0.029  -0.194   0.016
    1UNL     H1   27  -0.014   0.528   0.065
    1UNL     H2   28   0.143   0.467   0.088
    1UNL     H3   29   0.012   0.437   0.208
    1UNL     H4   30  -0.180   0.219   0.044
    1UNL     H5   31  -0.562   0.242   0.047
    1UNL     H6   32  -0.617   0.015   0.050
    1UNL     H7   33  -0.553  -0.224  -0.020
    1UNL     H8   34  -0.331  -0.284  -0.047
    1UNL     H9   35  -0.160  -0.131  -0.276
    1UNL    H10   36  -0.046  -0.013  -0.255
    1UNL    H11   37   0.002  -0.305  -0.259
    1UNL    H12   38   0.120  -0.178  -0.281
    1UNL    H13   39   0.292  -0.260  -0.117
    1UNL    H14   40   0.242  -0.273   0.050
    1UNL    H15   41   0.215  -0.015  -0.105
    1UNL    H16   42   0.379  -0.082   0.135
    1UNL    H17   43   0.350   0.158   0.086
    1UNL    H18   44   0.411   0.142  -0.073
    1UNL    H19   45   0.520   0.130   0.063
    1UNL    H20   46   0.541  -0.061  -0.086
    1UNL    H21   47   0.180   0.022   0.190
    1UNL    H22   48  -0.047  -0.093   0.188
    1UNL    H23   49   0.069  -0.218   0.199
    1UNL    H24   50  -0.097  -0.276   0.041
   0.00000   0.00000   0.00000   0.00000   0.00000   0.00000   0.00000   0.00000   0.00000
Generated with MDTraj, t= 84.0
 50
    1UNL     C1    1   0.043   0.454   0.106
    1UNL     O1    2  -0.001   0.331   0.054
    1UNL     C2    3   0.083   0.224   0.098
    1UNL     O2    4   0.180   0.244   0.172
    1UNL     C3    5   0.053   0.087   0.066
    1UNL     C4    6  -0.065   0.063  -0.005
    1UNL     N1    7  -0.179   0.145  -0.023
    1UNL     C5    8  -0.291   0.057  -0.025
    1UNL     C6    9  -0.424   0.091   0.009
    1UNL     O3   10  -0.458   0.212   0.046
    1UNL     C7   11  -0.516  -0.013   0.016
    1UNL     C8   12  -0.487  -0.145  -0.022
    1UNL     C9   13  -0.351  -0.178  -0.046
    1UNL    C10   14  -0.257  -0.078  -0.049
    1UNL    C11   15  -0.109  -0.078  -0.052
    1UNL    C12   16  -0.058  -0.102  -0.205
    1UNL    C13   17   0.016  -0.233  -0.204
    1UNL     N2   18   0.061  -0.256  -0.070
    1UNL    C14   19   0.209  -0.225  -0.042
    1UNL    C15   20   0.231  -0.073  -0.008
    1UNL    C16   21   0.386  -0.042   0.013
    1UNL    C17   22   0.413   0.111   0.023
    1UNL     O4   23   0.471  -0.113  -0.073
    1UNL    C18   24   0.141  -0.023   0.109
    1UNL    C19   25   0.040  -0.133   0.154
    1UNL    C20   26  -0.036  -0.196   0.025
    1UNL     H1   27  -0.040   0.513   0.150
    1UNL     H2   28   0.088   0.526   0.037
    1UNL     H3   29   0.104   0.435   0.198
    1UNL     H4   30  -0.196   0.228   0.032
    1UNL     H5   31  -0.555   0.219   0.061
    1UNL     H6   32  -0.619   0.014   0.047
    1UNL     H7   33  -0.564  -0.215   0.006
    1UNL     H8   34  -0.332  -0.283  -0.080
    1UNL     H9   35  -0.137  -0.098  -0.271
    1UNL    H10   36   0.005  -0.019  -0.241
    1UNL    H11   37  -0.046  -0.311  -0.228
    1UNL    H12   38   0.106  -0.234  -0.269
    1UNL    H13   39   0.273  -0.253  -0.127
    1UNL    H14   40   0.249  -0.282   0.042
    1UNL    H15   41   0.199  -0.018  -0.097
    1UNL    H16   42   0.414  -0.088   0.107
    1UNL    H17   43   0.353   0.159   0.099
    1UNL    H18   44   0.381   0.154  -0.069
    1UNL    H19   45   0.520   0.134   0.032
    1UNL    H20   46   0.458  -0.100  -0.172
    1UNL    H21   47   0.194   0.014   0.196
    1UNL    H22   48  -0.027  -0.097   0.224
    1UNL    H23   49   0.086  -0.217   0.205
    1UNL    H24   50  -0.114  -0.262   0.066
   0.00000   0.00000   0.00000   0.00000   0.00000   0.00000   0.00000   0.00000   0.00000
Generated with MDTraj, t= 85.0
 50
    1UNL     C1    1   0.040   0.452   0.111
    1UNL     O1    2  -0.009   0.328   0.097
    1UNL     C2    3   0.090   0.232   0.112
    1UNL     O2    4   0.196   0.263   0.168
    1UNL     C3    5   0.060   0.090   0.065
    1UNL     C4    6  -0.061   0.060  -0.001
    1UNL     N1    7  -0.178   0.137  -0.003
    1UNL     C5    8  -0.292   0.056  -0.021
    1UNL     C6    9  -0.430   0.085  -0.005
    1UNL     O3   10  -0.461   0.221   0.012
    1UNL     C7   11  -0.521  -0.014  -0.016
    1UNL     C8   12  -0.478  -0.145  -0.035
    1UNL     C9   13  -0.344  -0.175  -0.054
    1UNL    C10   14  -0.254  -0.076  -0.036
    1UNL    C11   15  -0.103  -0.077  -0.043
    1UNL    C12   16  -0.066  -0.106  -0.191
    1UNL    C13   17   0.007  -0.240  -0.186
    1UNL     N2   18   0.056  -0.263  -0.052
    1UNL    C14   19   0.199  -0.231  -0.025
    1UNL    C15   20   0.231  -0.081  -0.015
    1UNL    C16   21   0.381  -0.051  -0.009
    1UNL    C17   22   0.403   0.093   0.023
    1UNL     O4   23   0.461  -0.082  -0.122
    1UNL    C18   24   0.151  -0.028   0.103
    1UNL    C19   25   0.052  -0.133   0.166
    1UNL    C20   26  -0.032  -0.193   0.044
    1UNL     H1   27  -0.043   0.524   0.089
    1UNL     H2   28   0.120   0.469   0.037
    1UNL     H3   29   0.064   0.464   0.220
    1UNL     H4   30  -0.183   0.241   0.008
    1UNL     H5   31  -0.556   0.228   0.009
    1UNL     H6   32  -0.625  -0.001   0.006
    1UNL     H7   33  -0.551  -0.222  -0.065
    1UNL     H8   34  -0.306  -0.270  -0.074
    1UNL     H9   35  -0.152  -0.098  -0.250
    1UNL    H10   36  -0.005  -0.018  -0.215
    1UNL    H11   37  -0.061  -0.313  -0.208
    1UNL    H12   38   0.094  -0.242  -0.254
    1UNL    H13   39   0.261  -0.259  -0.113
    1UNL    H14   40   0.236  -0.293   0.055
    1UNL    H15   41   0.204  -0.033  -0.109
    1UNL    H16   42   0.420  -0.108   0.072
    1UNL    H17   43   0.370   0.139   0.116
    1UNL    H18   44   0.357   0.149  -0.054
    1UNL    H19   45   0.512   0.104   0.005
    1UNL    H20   46   0.404  -0.063  -0.194
    1UNL    H21   47   0.217   0.001   0.185
    1UNL    H22   48  -0.025  -0.100   0.228
    1UNL    H23   49   0.107  -0.208   0.221
    1UNL    H24   50  -0.111  -0.264   0.077
   0.00000   0.00000   0.00000   0.00000   0.00000   0.00000   0.00000   0.00000   0.00000
Generated with MDTraj, t= 86.0
 50
    1UNL     C1    1   0.033   0.434   0.162
    1UNL     O1    2   0.006   0.327   0.079
    1UNL     C2    3   0.098   0.230   0.100
    1UNL     O2    4   0.210   0.260   0.147
    1UNL     C3    5   0.050   0.088   0.074
    1UNL     C4    6  -0.066   0.058   0.012
    1UNL     N1    7  -0.184   0.131   0.014
    1UNL     C5    8  -0.298   0.052  -0.007
    1UNL     C6    9  -0.426   0.095  -0.025
    1UNL     O3   10  -0.457   0.229  -0.011
    1UNL     C7   11  -0.522  -0.004  -0.046
    1UNL     C8   12  -0.486  -0.139  -0.054
    1UNL     C9   13  -0.359  -0.182  -0.041
    1UNL    C10   14  -0.262  -0.084  -0.016
    1UNL    C11   15  -0.107  -0.086  -0.027
    1UNL    C12   16  -0.076  -0.118  -0.180
    1UNL    C13   17   0.012  -0.246  -0.178
    1UNL     N2   18   0.063  -0.266  -0.043
    1UNL    C14   19   0.212  -0.226  -0.034
    1UNL    C15   20   0.228  -0.070  -0.016
    1UNL    C16   21   0.380  -0.038  -0.018
    1UNL    C17   22   0.422   0.112   0.008
    1UNL     O4   23   0.437  -0.086  -0.137
    1UNL    C18   24   0.147  -0.023   0.114
    1UNL    C19   25   0.060  -0.132   0.165
    1UNL    C20   26  -0.025  -0.196   0.058
    1UNL     H1   27  -0.032   0.518   0.132
    1UNL     H2   28   0.138   0.459   0.141
    1UNL     H3   29   0.003   0.416   0.268
    1UNL     H4   30  -0.187   0.231   0.051
    1UNL     H5   31  -0.550   0.246  -0.032
    1UNL     H6   32  -0.617   0.027  -0.083
    1UNL     H7   33  -0.555  -0.212  -0.086
    1UNL     H8   34  -0.329  -0.287  -0.063
    1UNL     H9   35  -0.169  -0.121  -0.234
    1UNL    H10   36  -0.027  -0.025  -0.206
    1UNL    H11   37  -0.040  -0.332  -0.201
    1UNL    H12   38   0.096  -0.224  -0.243
    1UNL    H13   39   0.270  -0.272  -0.117
    1UNL    H14   40   0.263  -0.269   0.051
    1UNL    H15   41   0.197  -0.023  -0.110
    1UNL    H16   42   0.421  -0.107   0.053
    1UNL    H17   43   0.382   0.164   0.093
    1UNL    H18   44   0.385   0.172  -0.074
    1UNL    H19   45   0.530   0.123   0.005
    1UNL    H20   46   0.404  -0.036  -0.211
    1UNL    H21   47   0.210   0.017   0.196
    1UNL    H22   48  -0.009  -0.099   0.237
    1UNL    H23   49   0.114  -0.211   0.212
    1UNL    H24   50  -0.083  -0.277   0.109
   0.00000   0.00000   0.00000   0.00000   0.00000   0.00000   0.00000   0.00000   0.00000
Generated with MDTraj, t= 87.0
 50
    1UNL     C1    1   0.028   0.441   0.142
    1UNL     O1    2  -0.022   0.309   0.115
    1UNL     C2    3   0.084   0.224   0.119
    1UNL     O2    4   0.189   0.251   0.175
    1UNL     C3    5   0.059   0.090   0.070
    1UNL     C4    6  -0.061   0.064   0.017
    1UNL     N1    7  -0.173   0.143   0.012
    1UNL     C5    8  -0.289   0.062  -0.012
    1UNL     C6    9  -0.426   0.101  -0.031
    1UNL     O3   10  -0.457   0.227  -0.027
    1UNL     C7   11  -0.519  -0.006  -0.045
    1UNL     C8   12  -0.482  -0.136  -0.036
    1UNL     C9   13  -0.348  -0.170  -0.023
    1UNL    C10   14  -0.250  -0.069  -0.018
    1UNL    C11   15  -0.102  -0.078  -0.028
    1UNL    C12   16  -0.052  -0.118  -0.178
    1UNL    C13   17   0.010  -0.256  -0.179
    1UNL     N2   18   0.062  -0.274  -0.046
    1UNL    C14   19   0.208  -0.229  -0.039
    1UNL    C15   20   0.227  -0.078  -0.031
    1UNL    C16   21   0.378  -0.039  -0.028
    1UNL    C17   22   0.397   0.117  -0.027
    1UNL     O4   23   0.451  -0.101  -0.120
    1UNL    C18   24   0.153  -0.022   0.104
    1UNL    C19   25   0.067  -0.132   0.165
    1UNL    C20   26  -0.029  -0.191   0.046
    1UNL     H1   27  -0.049   0.519   0.146
    1UNL     H2   28   0.097   0.448   0.058
    1UNL     H3   29   0.077   0.448   0.239
    1UNL     H4   30  -0.179   0.238   0.051
    1UNL     H5   31  -0.551   0.243  -0.049
    1UNL     H6   32  -0.622   0.022  -0.072
    1UNL     H7   33  -0.571  -0.202  -0.047
    1UNL     H8   34  -0.323  -0.273  -0.012
    1UNL     H9   35  -0.143  -0.113  -0.242
    1UNL    H10   36   0.015  -0.044  -0.214
    1UNL    H11   37  -0.068  -0.329  -0.193
    1UNL    H12   38   0.090  -0.262  -0.249
    1UNL    H13   39   0.261  -0.271  -0.129
    1UNL    H14   40   0.258  -0.283   0.039
    1UNL    H15   41   0.185  -0.045  -0.127
    1UNL    H16   42   0.403  -0.096   0.061
    1UNL    H17   43   0.365   0.157   0.068
    1UNL    H18   44   0.336   0.165  -0.104
    1UNL    H19   45   0.498   0.143  -0.048
    1UNL    H20   46   0.465  -0.036  -0.196
    1UNL    H21   47   0.228   0.016   0.174
    1UNL    H22   48   0.010  -0.095   0.247
    1UNL    H23   49   0.118  -0.213   0.206
    1UNL    H24   50  -0.109  -0.246   0.102
   0.00000   0.00000   0.00000   0.00000   0.00000   0.00000   0.00000   0.00000   0.00000
Generated with MDTraj, t= 88.0
 50
    1UNL     C1    1   0.034   0.440   0.162
    1UNL     O1    2  -0.014   0.323   0.096
    1UNL     C2    3   0.078   0.226   0.115
    1UNL     O2    4   0.181   0.245   0.174
    1UNL     C3    5   0.052   0.092   0.065
    1UNL     C4    6  -0.059   0.061  -0.008
    1UNL     N1    7  -0.172   0.134  -0.020
    1UNL     C5    8  -0.288   0.051  -0.019
    1UNL     C6    9  -0.423   0.097  -0.012
    1UNL     O3   10  -0.448   0.236  -0.021
    1UNL     C7   11  -0.517  -0.005  -0.017
    1UNL     C8   12  -0.474  -0.136  -0.017
    1UNL     C9   13  -0.341  -0.178  -0.027
    1UNL    C10   14  -0.245  -0.078  -0.029
    1UNL    C11   15  -0.093  -0.078  -0.042
    1UNL    C12   16  -0.055  -0.110  -0.189
    1UNL    C13   17   0.023  -0.237  -0.187
    1UNL     N2   18   0.068  -0.268  -0.048
    1UNL    C14   19   0.209  -0.222  -0.025
    1UNL    C15   20   0.222  -0.075  -0.019
    1UNL    C16   21   0.368  -0.036  -0.012
    1UNL    C17   22   0.396   0.117  -0.038
    1UNL     O4   23   0.442  -0.114  -0.107
    1UNL    C18   24   0.139  -0.024   0.107
    1UNL    C19   25   0.051  -0.136   0.164
    1UNL    C20   26  -0.032  -0.192   0.041
    1UNL     H1   27  -0.052   0.499   0.195
    1UNL     H2   28   0.098   0.481   0.085
    1UNL     H3   29   0.092   0.415   0.250
    1UNL     H4   30  -0.182   0.213   0.040
    1UNL     H5   31  -0.546   0.251  -0.032
    1UNL     H6   32  -0.617   0.021   0.008
    1UNL     H7   33  -0.536  -0.220  -0.012
    1UNL     H8   34  -0.320  -0.283  -0.007
    1UNL     H9   35  -0.149  -0.111  -0.250
    1UNL    H10   36   0.004  -0.031  -0.223
    1UNL    H11   37  -0.035  -0.325  -0.224
    1UNL    H12   38   0.110  -0.228  -0.243
    1UNL    H13   39   0.275  -0.257  -0.107
    1UNL    H14   40   0.253  -0.267   0.063
    1UNL    H15   41   0.181  -0.027  -0.109
    1UNL    H16   42   0.398  -0.072   0.089
    1UNL    H17   43   0.362   0.184   0.038
    1UNL    H18   44   0.354   0.142  -0.135
    1UNL    H19   45   0.500   0.126  -0.055
    1UNL    H20   46   0.452  -0.073  -0.204
    1UNL    H21   47   0.202  -0.003   0.194
    1UNL    H22   48  -0.023  -0.104   0.233
    1UNL    H23   49   0.104  -0.211   0.213
    1UNL    H24   50  -0.124  -0.251   0.073
   0.00000   0.00000   0.00000   0.00000   0.00000   0.00000   0.00000   0.00000   0.00000
Generated with MDTraj, t= 89.0
 50
    1UNL     C1    1   0.023   0.430   0.154
    1UNL     O1    2  -0.005   0.320   0.075
    1UNL     C2    3   0.082   0.224   0.102
    1UNL     O2    4   0.189   0.243   0.160
    1UNL     C3    5   0.055   0.090   0.048
    1UNL     C4    6  -0.064   0.059  -0.010
    1UNL     N1    7  -0.172   0.142  -0.029
    1UNL     C5    8  -0.291   0.064  -0.019
    1UNL     C6    9  -0.425   0.097  -0.000
    1UNL     O3   10  -0.466   0.230   0.016
    1UNL     C7   11  -0.515  -0.009   0.005
    1UNL     C8   12  -0.482  -0.138  -0.025
    1UNL     C9   13  -0.351  -0.171  -0.041
    1UNL    C10   14  -0.256  -0.075  -0.039
    1UNL    C11   15  -0.102  -0.080  -0.050
    1UNL    C12   16  -0.061  -0.117  -0.194
    1UNL    C13   17   0.017  -0.249  -0.192
    1UNL     N2   18   0.064  -0.261  -0.050
    1UNL    C14   19   0.205  -0.233  -0.028
    1UNL    C15   20   0.239  -0.080  -0.017
    1UNL    C16   21   0.386  -0.037  -0.002
    1UNL    C17   22   0.410   0.111   0.001
    1UNL     O4   23   0.469  -0.098  -0.095
    1UNL    C18   24   0.138  -0.020   0.101
    1UNL    C19   25   0.046  -0.126   0.159
    1UNL    C20   26  -0.033  -0.186   0.045
    1UNL     H1   27  -0.017   0.515   0.095
    1UNL     H2   28   0.130   0.423   0.173
    1UNL     H3   29  -0.034   0.424   0.247
    1UNL     H4   30  -0.171   0.240  -0.010
    1UNL     H5   31  -0.566   0.225   0.015
    1UNL     H6   32  -0.620   0.018   0.024
    1UNL     H7   33  -0.557  -0.215   0.006
    1UNL     H8   34  -0.321  -0.271  -0.069
    1UNL     H9   35  -0.155  -0.118  -0.255
    1UNL    H10   36  -0.004  -0.033  -0.224
    1UNL    H11   37  -0.033  -0.347  -0.215
    1UNL    H12   38   0.100  -0.243  -0.251
    1UNL    H13   39   0.258  -0.280  -0.112
    1UNL    H14   40   0.245  -0.275   0.063
    1UNL    H15   41   0.213  -0.024  -0.108
    1UNL    H16   42   0.417  -0.065   0.104
    1UNL    H17   43   0.345   0.163   0.070
    1UNL    H18   44   0.390   0.148  -0.097
    1UNL    H19   45   0.511   0.142   0.017
    1UNL    H20   46   0.470  -0.051  -0.188
    1UNL    H21   47   0.186   0.018   0.194
    1UNL    H22   48  -0.017  -0.090   0.237
    1UNL    H23   49   0.098  -0.208   0.197
    1UNL    H24   50  -0.102  -0.268   0.080
   0.00000   0.00000   0.00000   0.00000   0.00000   0.00000   0.00000   0.00000   0.00000
Generated with MDTraj, t= 90.0
 50
    1UNL     C1    1   0.020   0.464   0.110
    1UNL     O1    2  -0.016   0.336   0.061
    1UNL     C2    3   0.073   0.237   0.105
    1UNL     O2    4   0.174   0.269   0.171
    1UNL     C3    5   0.057   0.098   0.051
    1UNL     C4    6  -0.057   0.059  -0.009
    1UNL     N1    7  -0.173   0.135  -0.001
    1UNL     C5    8  -0.290   0.055  -0.016
    1UNL     C6    9  -0.425   0.085   0.011
    1UNL     O3   10  -0.447   0.219   0.044
    1UNL     C7   11  -0.518  -0.011  -0.010
    1UNL     C8   12  -0.487  -0.146  -0.030
    1UNL     C9   13  -0.353  -0.178  -0.041
    1UNL    C10   14  -0.255  -0.080  -0.027
    1UNL    C11   15  -0.104  -0.081  -0.053
    1UNL    C12   16  -0.068  -0.108  -0.200
    1UNL    C13   17   0.003  -0.244  -0.203
    1UNL     N2   18   0.067  -0.262  -0.070
    1UNL    C14   19   0.205  -0.223  -0.051
    1UNL    C15   20   0.234  -0.077  -0.017
    1UNL    C16   21   0.385  -0.058   0.011
    1UNL    C17   22   0.429   0.089   0.042
    1UNL     O4   23   0.473  -0.120  -0.089
    1UNL    C18   24   0.140  -0.015   0.100
    1UNL    C19   25   0.052  -0.125   0.154
    1UNL    C20   26  -0.028  -0.192   0.031
    1UNL     H1   27  -0.067   0.528   0.078
    1UNL     H2   28   0.122   0.481   0.070
    1UNL     H3   29   0.031   0.458   0.219
    1UNL     H4   30  -0.172   0.229   0.043
    1UNL     H5   31  -0.544   0.238   0.053
    1UNL     H6   32  -0.620   0.016   0.004
    1UNL     H7   33  -0.569  -0.205  -0.052
    1UNL     H8   34  -0.326  -0.277  -0.070
    1UNL     H9   35  -0.168  -0.124  -0.245
    1UNL    H10   36  -0.021  -0.025  -0.252
    1UNL    H11   37  -0.061  -0.333  -0.220
    1UNL    H12   38   0.079  -0.249  -0.273
    1UNL    H13   39   0.263  -0.238  -0.146
    1UNL    H14   40   0.243  -0.294   0.021
    1UNL    H15   41   0.212  -0.025  -0.111
    1UNL    H16   42   0.406  -0.111   0.111
    1UNL    H17   43   0.379   0.144   0.119
    1UNL    H18   44   0.408   0.138  -0.049
    1UNL    H19   45   0.536   0.109   0.050
    1UNL    H20   46   0.471  -0.069  -0.171
    1UNL    H21   47   0.206   0.024   0.182
    1UNL    H22   48  -0.008  -0.081   0.230
    1UNL    H23   49   0.110  -0.199   0.202
    1UNL    H24   50  -0.107  -0.256   0.078
   0.00000   0.00000   0.00000   0.00000   0.00000   0.00000   0.00000   0.00000   0.00000
Generated with MDTraj, t= 91.0
 50
    1UNL     C1    1   0.047   0.459   0.083
    1UNL     O1    2   0.009   0.326   0.043
    1UNL     C2    3   0.095   0.226   0.090
    1UNL     O2    4   0.197   0.254   0.151
    1UNL     C3    5   0.057   0.091   0.054
    1UNL     C4    6  -0.068   0.059   0.008
    1UNL     N1    7  -0.189   0.127   0.020
    1UNL     C5    8  -0.302   0.050  -0.012
    1UNL     C6    9  -0.442   0.086   0.015
    1UNL     O3   10  -0.484   0.213   0.046
    1UNL     C7   11  -0.537  -0.017   0.006
    1UNL     C8   12  -0.493  -0.148  -0.018
    1UNL     C9   13  -0.362  -0.179  -0.046
    1UNL    C10   14  -0.260  -0.077  -0.041
    1UNL    C11   15  -0.107  -0.075  -0.053
    1UNL    C12   16  -0.066  -0.086  -0.203
    1UNL    C13   17   0.017  -0.209  -0.207
    1UNL     N2   18   0.075  -0.243  -0.075
    1UNL    C14   19   0.214  -0.216  -0.046
    1UNL    C15   20   0.247  -0.068  -0.012
    1UNL    C16   21   0.392  -0.053   0.026
    1UNL    C17   22   0.431   0.090   0.046
    1UNL     O4   23   0.474  -0.114  -0.067
    1UNL    C18   24   0.139  -0.027   0.102
    1UNL    C19   25   0.040  -0.140   0.150
    1UNL    C20   26  -0.032  -0.190   0.021
    1UNL     H1   27  -0.058   0.494   0.099
    1UNL     H2   28   0.101   0.511   0.004
    1UNL     H3   29   0.111   0.455   0.171
    1UNL     H4   30  -0.204   0.217   0.074
    1UNL     H5   31  -0.580   0.216   0.058
    1UNL     H6   32  -0.644   0.001  -0.008
    1UNL     H7   33  -0.558  -0.240  -0.031
    1UNL     H8   34  -0.351  -0.283  -0.074
    1UNL     H9   35  -0.153  -0.094  -0.268
    1UNL    H10   36  -0.013   0.003  -0.244
    1UNL    H11   37  -0.036  -0.299  -0.237
    1UNL    H12   38   0.094  -0.198  -0.281
    1UNL    H13   39   0.263  -0.257  -0.138
    1UNL    H14   40   0.246  -0.286   0.030
    1UNL    H15   41   0.227  -0.025  -0.110
    1UNL    H16   42   0.417  -0.114   0.118
    1UNL    H17   43   0.372   0.128   0.125
    1UNL    H18   44   0.408   0.143  -0.042
    1UNL    H19   45   0.537   0.109   0.065
    1UNL    H20   46   0.459  -0.093  -0.156
    1UNL    H21   47   0.205   0.013   0.183
    1UNL    H22   48  -0.034  -0.102   0.212
    1UNL    H23   49   0.099  -0.208   0.208
    1UNL    H24   50  -0.110  -0.262   0.055
   0.00000   0.00000   0.00000   0.00000   0.00000   0.00000   0.00000   0.00000   0.00000
Generated with MDTraj, t= 92.0
 50
    1UNL     C1    1   0.080   0.451   0.065
    1UNL     O1    2   0.001   0.327   0.067
    1UNL     C2    3   0.095   0.226   0.090
    1UNL     O2    4   0.209   0.244   0.127
    1UNL     C3    5   0.051   0.091   0.059
    1UNL     C4    6  -0.071   0.063   0.006
    1UNL     N1    7  -0.189   0.139   0.003
    1UNL     C5    8  -0.302   0.052  -0.003
    1UNL     C6    9  -0.436   0.082   0.013
    1UNL     O3   10  -0.479   0.209   0.056
    1UNL     C7   11  -0.526  -0.033   0.001
    1UNL     C8   12  -0.491  -0.156  -0.029
    1UNL     C9   13  -0.356  -0.184  -0.045
    1UNL    C10   14  -0.264  -0.081  -0.027
    1UNL    C11   15  -0.107  -0.075  -0.046
    1UNL    C12   16  -0.077  -0.087  -0.203
    1UNL    C13   17   0.019  -0.207  -0.222
    1UNL     N2   18   0.071  -0.241  -0.083
    1UNL    C14   19   0.211  -0.205  -0.056
    1UNL    C15   20   0.235  -0.060  -0.009
    1UNL    C16   21   0.378  -0.051   0.037
    1UNL    C17   22   0.417   0.103   0.054
    1UNL     O4   23   0.468  -0.120  -0.053
    1UNL    C18   24   0.132  -0.027   0.105
    1UNL    C19   25   0.042  -0.141   0.146
    1UNL    C20   26  -0.031  -0.192   0.028
    1UNL     H1   27   0.008   0.517   0.016
    1UNL     H2   28   0.178   0.454   0.018
    1UNL     H3   29   0.098   0.476   0.168
    1UNL     H4   30  -0.193   0.240   0.037
    1UNL     H5   31  -0.574   0.213   0.069
    1UNL     H6   32  -0.629  -0.009   0.009
    1UNL     H7   33  -0.567  -0.228  -0.023
    1UNL     H8   34  -0.309  -0.280  -0.053
    1UNL     H9   35  -0.165  -0.099  -0.264
    1UNL    H10   36  -0.025   0.009  -0.237
    1UNL    H11   37  -0.029  -0.292  -0.263
    1UNL    H12   38   0.102  -0.177  -0.292
    1UNL    H13   39   0.269  -0.235  -0.145
    1UNL    H14   40   0.241  -0.275   0.021
    1UNL    H15   41   0.219  -0.000  -0.099
    1UNL    H16   42   0.394  -0.097   0.136
    1UNL    H17   43   0.382   0.156   0.140
    1UNL    H18   44   0.388   0.150  -0.038
    1UNL    H19   45   0.524   0.110   0.053
    1UNL    H20   46   0.441  -0.086  -0.140
    1UNL    H21   47   0.185   0.026   0.189
    1UNL    H22   48  -0.028  -0.091   0.203
    1UNL    H23   49   0.097  -0.214   0.202
    1UNL    H24   50  -0.097  -0.277   0.046
   0.00000   0.00000   0.00000   0.00000   0.00000   0.00000   0.00000   0.00000   0.00000
Generated with MDTraj, t= 93.0
 50
    1UNL     C1    1   0.036   0.447   0.085
    1UNL     O1    2  -0.015   0.326   0.035
    1UNL     C2    3   0.081   0.233   0.086
    1UNL     O2    4   0.180   0.256   0.154
    1UNL     C3    5   0.051   0.095   0.045
    1UNL     C4    6  -0.071   0.061  -0.006
    1UNL     N1    7  -0.185   0.138   0.006
    1UNL     C5    8  -0.301   0.050   0.002
    1UNL     C6    9  -0.434   0.086   0.028
    1UNL     O3   10  -0.467   0.220   0.045
    1UNL     C7   11  -0.523  -0.019   0.014
    1UNL     C8   12  -0.488  -0.146  -0.032
    1UNL     C9   13  -0.355  -0.177  -0.056
    1UNL    C10   14  -0.259  -0.081  -0.025
    1UNL    C11   15  -0.105  -0.077  -0.049
    1UNL    C12   16  -0.065  -0.079  -0.195
    1UNL    C13   17   0.013  -0.215  -0.210
    1UNL     N2   18   0.071  -0.251  -0.075
    1UNL    C14   19   0.213  -0.218  -0.059
    1UNL    C15   20   0.243  -0.074  -0.022
    1UNL    C16   21   0.388  -0.066   0.021
    1UNL    C17   22   0.429   0.077   0.067
    1UNL     O4   23   0.473  -0.123  -0.069
    1UNL    C18   24   0.146  -0.015   0.093
    1UNL    C19   25   0.051  -0.127   0.154
    1UNL    C20   26  -0.024  -0.191   0.033
    1UNL     H1   27  -0.046   0.514   0.055
    1UNL     H2   28   0.130   0.484   0.047
    1UNL     H3   29   0.046   0.429   0.192
    1UNL     H4   30  -0.179   0.236   0.045
    1UNL     H5   31  -0.562   0.233   0.057
    1UNL     H6   32  -0.624  -0.002   0.053
    1UNL     H7   33  -0.558  -0.232  -0.041
    1UNL     H8   34  -0.322  -0.280  -0.049
    1UNL     H9   35  -0.150  -0.083  -0.260
    1UNL    H10   36   0.005   0.006  -0.233
    1UNL    H11   37  -0.054  -0.289  -0.239
    1UNL    H12   38   0.095  -0.207  -0.289
    1UNL    H13   39   0.258  -0.246  -0.155
    1UNL    H14   40   0.255  -0.289   0.013
    1UNL    H15   41   0.246  -0.011  -0.111
    1UNL    H16   42   0.409  -0.131   0.106
    1UNL    H17   43   0.355   0.132   0.122
    1UNL    H18   44   0.457   0.143  -0.014
    1UNL    H19   45   0.513   0.076   0.130
    1UNL    H20   46   0.527  -0.049  -0.119
    1UNL    H21   47   0.209   0.024   0.175
    1UNL    H22   48  -0.015  -0.081   0.220
    1UNL    H23   49   0.112  -0.200   0.202
    1UNL    H24   50  -0.095  -0.270   0.046
   0.00000   0.00000   0.00000   0.00000   0.00000   0.00000   0.00000   0.00000   0.00000
Generated with MDTraj, t= 94.0
 50
    1UNL     C1    1   0.015   0.442   0.115
    1UNL     O1    2  -0.016   0.321   0.049
    1UNL     C2    3   0.082   0.233   0.091
    1UNL     O2    4   0.175   0.255   0.166
    1UNL     C3    5   0.057   0.096   0.043
    1UNL     C4    6  -0.062   0.062  -0.010
    1UNL     N1    7  -0.177   0.140  -0.020
    1UNL     C5    8  -0.288   0.061  -0.009
    1UNL     C6    9  -0.428   0.093   0.016
    1UNL     O3   10  -0.461   0.220   0.049
    1UNL     C7   11  -0.524  -0.005   0.009
    1UNL     C8   12  -0.482  -0.138  -0.025
    1UNL     C9   13  -0.346  -0.173  -0.034
    1UNL    C10   14  -0.250  -0.071  -0.025
    1UNL    C11   15  -0.106  -0.078  -0.061
    1UNL    C12   16  -0.079  -0.109  -0.214
    1UNL    C13   17   0.005  -0.242  -0.203
    1UNL     N2   18   0.069  -0.246  -0.070
    1UNL    C14   19   0.220  -0.218  -0.054
    1UNL    C15   20   0.242  -0.075  -0.011
    1UNL    C16   21   0.393  -0.060   0.030
    1UNL    C17   22   0.433   0.094   0.036
    1UNL     O4   23   0.474  -0.121  -0.069
    1UNL    C18   24   0.141  -0.023   0.098
    1UNL    C19   25   0.040  -0.129   0.149
    1UNL    C20   26  -0.030  -0.190   0.026
    1UNL     H1   27  -0.068   0.507   0.082
    1UNL     H2   28   0.107   0.492   0.082
    1UNL     H3   29   0.009   0.415   0.221
    1UNL     H4   30  -0.186   0.228   0.029
    1UNL     H5   31  -0.555   0.216   0.077
    1UNL     H6   32  -0.628   0.014   0.005
    1UNL     H7   33  -0.557  -0.210  -0.008
    1UNL     H8   34  -0.332  -0.276  -0.062
    1UNL     H9   35  -0.164  -0.127  -0.278
    1UNL    H10   36  -0.010  -0.043  -0.279
    1UNL    H11   37  -0.046  -0.332  -0.221
    1UNL    H12   38   0.088  -0.240  -0.280
    1UNL    H13   39   0.271  -0.246  -0.146
    1UNL    H14   40   0.251  -0.290   0.022
    1UNL    H15   41   0.203  -0.012  -0.091
    1UNL    H16   42   0.411  -0.111   0.122
    1UNL    H17   43   0.396   0.151   0.119
    1UNL    H18   44   0.393   0.141  -0.054
    1UNL    H19   45   0.536   0.110   0.031
    1UNL    H20   46   0.502  -0.058  -0.148
    1UNL    H21   47   0.198   0.006   0.190
    1UNL    H22   48  -0.027  -0.079   0.213
    1UNL    H23   49   0.099  -0.198   0.202
    1UNL    H24   50  -0.102  -0.266   0.049
   0.00000   0.00000   0.00000   0.00000   0.00000   0.00000   0.00000   0.00000   0.00000
Generated with MDTraj, t= 95.0
 50
    1UNL     C1    1   0.042   0.450   0.152
    1UNL     O1    2  -0.015   0.334   0.087
    1UNL     C2    3   0.083   0.236   0.103
    1UNL     O2    4   0.189   0.250   0.163
    1UNL     C3    5   0.050   0.099   0.047
    1UNL     C4    6  -0.062   0.062  -0.019
    1UNL     N1    7  -0.181   0.133  -0.017
    1UNL     C5    8  -0.298   0.054  -0.036
    1UNL     C6    9  -0.429   0.094   0.002
    1UNL     O3   10  -0.447   0.233   0.014
    1UNL     C7   11  -0.526  -0.007   0.007
    1UNL     C8   12  -0.488  -0.143   0.007
    1UNL     C9   13  -0.357  -0.178  -0.027
    1UNL    C10   14  -0.261  -0.084  -0.043
    1UNL    C11   15  -0.104  -0.089  -0.063
    1UNL    C12   16  -0.059  -0.112  -0.207
    1UNL    C13   17   0.023  -0.241  -0.205
    1UNL     N2   18   0.073  -0.266  -0.064
    1UNL    C14   19   0.216  -0.231  -0.031
    1UNL    C15   20   0.236  -0.073  -0.011
    1UNL    C16   21   0.386  -0.040   0.010
    1UNL    C17   22   0.403   0.108  -0.004
    1UNL     O4   23   0.473  -0.113  -0.073
    1UNL    C18   24   0.133  -0.022   0.105
    1UNL    C19   25   0.033  -0.135   0.147
    1UNL    C20   26  -0.029  -0.196   0.022
    1UNL     H1   27  -0.005   0.543   0.110
    1UNL     H2   28   0.142   0.461   0.104
    1UNL     H3   29   0.035   0.441   0.262
    1UNL     H4   30  -0.175   0.215   0.038
    1UNL     H5   31  -0.537   0.243   0.057
    1UNL     H6   32  -0.630   0.031   0.014
    1UNL     H7   33  -0.566  -0.219   0.018
    1UNL     H8   34  -0.325  -0.277  -0.055
    1UNL     H9   35  -0.141  -0.106  -0.283
    1UNL    H10   36   0.013  -0.032  -0.243
    1UNL    H11   37  -0.044  -0.318  -0.235
    1UNL    H12   38   0.105  -0.250  -0.281
    1UNL    H13   39   0.273  -0.260  -0.118
    1UNL    H14   40   0.248  -0.290   0.057
    1UNL    H15   41   0.218  -0.010  -0.098
    1UNL    H16   42   0.411  -0.059   0.111
    1UNL    H17   43   0.327   0.162   0.050
    1UNL    H18   44   0.393   0.134  -0.107
    1UNL    H19   45   0.500   0.139   0.030
    1UNL    H20   46   0.472  -0.083  -0.168
    1UNL    H21   47   0.187   0.013   0.196
    1UNL    H22   48  -0.037  -0.078   0.205
    1UNL    H23   49   0.075  -0.210   0.206
    1UNL    H24   50  -0.101  -0.269   0.052
   0.00000   0.00000   0.00000   0.00000   0.00000   0.00000   0.00000   0.00000   0.00000
Generated with MDTraj, t= 96.0
 50
    1UNL     C1    1   0.029   0.440   0.156
    1UNL     O1    2  -0.007   0.316   0.089
    1UNL     C2    3   0.094   0.230   0.112
    1UNL     O2    4   0.197   0.250   0.169
    1UNL     C3    5   0.062   0.092   0.068
    1UNL     C4    6  -0.055   0.065  -0.001
    1UNL     N1    7  -0.177   0.141  -0.010
    1UNL     C5    8  -0.291   0.064  -0.027
    1UNL     C6    9  -0.424   0.094  -0.014
    1UNL     O3   10  -0.471   0.229  -0.019
    1UNL     C7   11  -0.517  -0.011  -0.012
    1UNL     C8   12  -0.484  -0.143  -0.018
    1UNL     C9   13  -0.346  -0.179  -0.027
    1UNL    C10   14  -0.254  -0.072  -0.026
    1UNL    C11   15  -0.099  -0.074  -0.044
    1UNL    C12   16  -0.064  -0.106  -0.192
    1UNL    C13   17   0.015  -0.240  -0.192
    1UNL     N2   18   0.066  -0.258  -0.061
    1UNL    C14   19   0.211  -0.233  -0.034
    1UNL    C15   20   0.232  -0.079  -0.010
    1UNL    C16   21   0.378  -0.039  -0.000
    1UNL    C17   22   0.392   0.112  -0.022
    1UNL     O4   23   0.457  -0.110  -0.103
    1UNL    C18   24   0.146  -0.032   0.107
    1UNL    C19   25   0.050  -0.138   0.163
    1UNL    C20   26  -0.035  -0.188   0.042
    1UNL     H1   27  -0.054   0.514   0.153
    1UNL     H2   28   0.103   0.478   0.082
    1UNL     H3   29   0.057   0.431   0.262
    1UNL     H4   30  -0.187   0.241   0.002
    1UNL     H5   31  -0.569   0.230   0.005
    1UNL     H6   32  -0.615   0.024  -0.013
    1UNL     H7   33  -0.553  -0.223  -0.021
    1UNL     H8   34  -0.309  -0.280  -0.043
    1UNL     H9   35  -0.153  -0.114  -0.266
    1UNL    H10   36  -0.008  -0.017  -0.231
    1UNL    H11   37  -0.047  -0.326  -0.221
    1UNL    H12   38   0.094  -0.239  -0.269
    1UNL    H13   39   0.272  -0.263  -0.117
    1UNL    H14   40   0.245  -0.283   0.059
    1UNL    H15   41   0.208  -0.027  -0.100
    1UNL    H16   42   0.408  -0.072   0.099
    1UNL    H17   43   0.327   0.170   0.040
    1UNL    H18   44   0.361   0.136  -0.120
    1UNL    H19   45   0.495   0.145  -0.010
    1UNL    H20   46   0.430  -0.074  -0.184
    1UNL    H21   47   0.221  -0.006   0.184
    1UNL    H22   48  -0.006  -0.084   0.236
    1UNL    H23   49   0.107  -0.208   0.215
    1UNL    H24   50  -0.100  -0.267   0.070
   0.00000   0.00000   0.00000   0.00000   0.00000   0.00000   0.00000   0.00000   0.00000
Generated with MDTraj, t= 97.0
 50
    1UNL     C1    1   0.033   0.439   0.148
    1UNL     O1    2  -0.013   0.318   0.096
    1UNL     C2    3   0.085   0.226   0.115
    1UNL     O2    4   0.186   0.245   0.176
    1UNL     C3    5   0.055   0.094   0.066
    1UNL     C4    6  -0.067   0.058   0.010
    1UNL     N1    7  -0.180   0.139   0.005
    1UNL     C5    8  -0.292   0.049  -0.004
    1UNL     C6    9  -0.426   0.096  -0.024
    1UNL     O3   10  -0.447   0.227  -0.021
    1UNL     C7   11  -0.529  -0.003  -0.043
    1UNL     C8   12  -0.486  -0.137  -0.064
    1UNL     C9   13  -0.351  -0.175  -0.046
    1UNL    C10   14  -0.256  -0.083  -0.011
    1UNL    C11   15  -0.100  -0.089  -0.026
    1UNL    C12   16  -0.071  -0.112  -0.170
    1UNL    C13   17  -0.000  -0.250  -0.172
    1UNL     N2   18   0.066  -0.258  -0.042
    1UNL    C14   19   0.211  -0.221  -0.043
    1UNL    C15   20   0.234  -0.064  -0.026
    1UNL    C16   21   0.383  -0.044  -0.019
    1UNL    C17   22   0.420   0.105  -0.013
    1UNL     O4   23   0.437  -0.105  -0.132
    1UNL    C18   24   0.158  -0.013   0.102
    1UNL    C19   25   0.071  -0.123   0.170
    1UNL    C20   26  -0.016  -0.189   0.060
    1UNL     H1   27  -0.050   0.509   0.134
    1UNL     H2   28   0.119   0.461   0.083
    1UNL     H3   29   0.047   0.437   0.254
    1UNL     H4   30  -0.182   0.221   0.072
    1UNL     H5   31  -0.544   0.246  -0.017
    1UNL     H6   32  -0.637   0.024  -0.055
    1UNL     H7   33  -0.561  -0.217  -0.067
    1UNL     H8   34  -0.320  -0.277  -0.046
    1UNL     H9   35  -0.175  -0.121  -0.225
    1UNL    H10   36  -0.017  -0.025  -0.216
    1UNL    H11   37  -0.066  -0.338  -0.192
    1UNL    H12   38   0.065  -0.243  -0.256
    1UNL    H13   39   0.257  -0.246  -0.136
    1UNL    H14   40   0.255  -0.277   0.041
    1UNL    H15   41   0.195  -0.022  -0.117
    1UNL    H16   42   0.407  -0.121   0.060
    1UNL    H17   43   0.394   0.131   0.087
    1UNL    H18   44   0.359   0.171  -0.069
    1UNL    H19   45   0.525   0.125  -0.031
    1UNL    H20   46   0.404  -0.061  -0.207
    1UNL    H21   47   0.228   0.019   0.181
    1UNL    H22   48   0.020  -0.086   0.256
    1UNL    H23   49   0.138  -0.189   0.219
    1UNL    H24   50  -0.083  -0.253   0.114
   0.00000   0.00000   0.00000   0.00000   0.00000   0.00000   0.00000   0.00000   0.00000
Generated with MDTraj, t= 98.0
 50
    1UNL     C1    1   0.036   0.443   0.142
    1UNL     O1    2  -0.005   0.317   0.085
    1UNL     C2    3   0.094   0.227   0.106
    1UNL     O2    4   0.198   0.251   0.160
    1UNL     C3    5   0.061   0.093   0.065
    1UNL     C4    6  -0.059   0.058   0.019
    1UNL     N1    7  -0.178   0.133   0.022
    1UNL     C5    8  -0.291   0.058  -0.004
    1UNL     C6    9  -0.424   0.096  -0.025
    1UNL     O3   10  -0.460   0.224  -0.005
    1UNL     C7   11  -0.516  -0.002  -0.058
    1UNL     C8   12  -0.475  -0.138  -0.059
    1UNL     C9   13  -0.342  -0.179  -0.051
    1UNL    C10   14  -0.249  -0.077  -0.017
    1UNL    C11   15  -0.102  -0.082  -0.030
    1UNL    C12   16  -0.061  -0.103  -0.174
    1UNL    C13   17   0.002  -0.245  -0.171
    1UNL     N2   18   0.063  -0.269  -0.040
    1UNL    C14   19   0.205  -0.238  -0.029
    1UNL    C15   20   0.220  -0.080  -0.020
    1UNL    C16   21   0.369  -0.043  -0.020
    1UNL    C17   22   0.391   0.113   0.005
    1UNL     O4   23   0.440  -0.088  -0.141
    1UNL    C18   24   0.150  -0.024   0.104
    1UNL    C19   25   0.065  -0.131   0.164
    1UNL    C20   26  -0.023  -0.192   0.058
    1UNL     H1   27  -0.045   0.516   0.125
    1UNL     H2   28   0.136   0.471   0.109
    1UNL     H3   29   0.026   0.441   0.248
    1UNL     H4   30  -0.187   0.233   0.052
    1UNL     H5   31  -0.553   0.249   0.000
    1UNL     H6   32  -0.618   0.021  -0.059
    1UNL     H7   33  -0.554  -0.208  -0.076
    1UNL     H8   34  -0.314  -0.281  -0.026
    1UNL     H9   35  -0.160  -0.103  -0.237
    1UNL    H10   36   0.012  -0.024  -0.208
    1UNL    H11   37  -0.079  -0.318  -0.200
    1UNL    H12   38   0.076  -0.257  -0.244
    1UNL    H13   39   0.258  -0.259  -0.119
    1UNL    H14   40   0.259  -0.282   0.056
    1UNL    H15   41   0.184  -0.023  -0.104
    1UNL    H16   42   0.410  -0.109   0.063
    1UNL    H17   43   0.344   0.141   0.095
    1UNL    H18   44   0.344   0.172  -0.072
    1UNL    H19   45   0.496   0.132   0.006
    1UNL    H20   46   0.405  -0.043  -0.220
    1UNL    H21   47   0.215   0.018   0.183
    1UNL    H22   48   0.015  -0.094   0.251
    1UNL    H23   49   0.130  -0.201   0.213
    1UNL    H24   50  -0.089  -0.252   0.116
   0.00000   0.00000   0.00000   0.00000   0.00000   0.00000   0.00000   0.00000   0.00000
Generated with MDTraj, t= 99.0
 50
    1UNL     C1    1   0.058   0.453   0.123
    1UNL     O1    2  -0.003   0.324   0.089
    1UNL     C2    3   0.088   0.222   0.115
    1UNL     O2    4   0.196   0.246   0.164
    1UNL     C3    5   0.050   0.087   0.071
    1UNL     C4    6  -0.064   0.052   0.008
    1UNL     N1    7  -0.179   0.132   0.005
    1UNL     C5    8  -0.293   0.060  -0.022
    1UNL     C6    9  -0.428   0.097  -0.014
    1UNL     O3   10  -0.471   0.228   0.014
    1UNL     C7   11  -0.519  -0.007  -0.016
    1UNL     C8   12  -0.483  -0.142  -0.037
    1UNL     C9   13  -0.351  -0.174  -0.048
    1UNL    C10   14  -0.256  -0.074  -0.043
    1UNL    C11   15  -0.105  -0.083  -0.048
    1UNL    C12   16  -0.056  -0.117  -0.192
    1UNL    C13   17   0.034  -0.241  -0.188
    1UNL     N2   18   0.071  -0.260  -0.052
    1UNL    C14   19   0.211  -0.227  -0.017
    1UNL    C15   20   0.228  -0.070  -0.005
    1UNL    C16   21   0.377  -0.034  -0.010
    1UNL    C17   22   0.405   0.111  -0.009
    1UNL     O4   23   0.434  -0.099  -0.118
    1UNL    C18   24   0.143  -0.025   0.114
    1UNL    C19   25   0.043  -0.140   0.164
    1UNL    C20   26  -0.035  -0.192   0.037
    1UNL     H1   27  -0.029   0.522   0.119
    1UNL     H2   28   0.149   0.484   0.069
    1UNL     H3   29   0.080   0.456   0.228
    1UNL     H4   30  -0.172   0.232   0.017
    1UNL     H5   31  -0.565   0.224   0.028
    1UNL     H6   32  -0.626   0.013  -0.031
    1UNL     H7   33  -0.553  -0.225  -0.049
    1UNL     H8   34  -0.311  -0.273  -0.061
    1UNL     H9   35  -0.146  -0.137  -0.258
    1UNL    H10   36   0.007  -0.024  -0.220
    1UNL    H11   37  -0.019  -0.336  -0.217
    1UNL    H12   38   0.112  -0.233  -0.256
    1UNL    H13   39   0.285  -0.258  -0.087
    1UNL    H14   40   0.246  -0.275   0.076
    1UNL    H15   41   0.200  -0.014  -0.094
    1UNL    H16   42   0.424  -0.080   0.084
    1UNL    H17   43   0.361   0.152   0.078
    1UNL    H18   44   0.367   0.169  -0.093
    1UNL    H19   45   0.510   0.124  -0.008
    1UNL    H20   46   0.398  -0.042  -0.197
    1UNL    H21   47   0.203   0.004   0.201
    1UNL    H22   48  -0.020  -0.099   0.237
    1UNL    H23   49   0.087  -0.222   0.218
    1UNL    H24   50  -0.113  -0.260   0.057
   0.00000   0.00000   0.00000   0.00000   0.00000   0.00000   0.00000   0.00000   0.00000
