[ moleculetype ]
; name        nrexcl
res           1

[ atoms ]
;    nr  type  resnr resid  atom  cgnr     charge       mass
      1 TN6       1 res   C1        1      0.000     36.000
      2 SX3       1 res   C2        2      0.000     54.000
      3 TX3       1 res   C3        3      0.000     36.000
      4 SX3       1 res   C4        4      0.000     54.000

[ constraints ]
;  ai    aj   funct      b0(nm)
    2     3     1      0.28298
    3     4     1      0.28315

[ bonds ]
;  ai    aj   funct      b0(nm)          k(kJ/mol/nm^2)
    1     2     1      0.31186          10696.0
    1     4     1      0.31272          10821.0

[ angles ]
;  ai    aj    ak  funct     th0(deg)        k(kJ/mol/rad^2)
    1     2     3     1    104.91112           509.89
    1     4     3     1    104.64390           509.36
    2     1     4     1     70.55394          4314.26
    2     3     4     1     79.36322          3724.27

[ dihedrals ]
;  ai    aj    ak    al  funct   phi0(deg)        k(kJ/mol)   mult
    1     2     3     4     1   -179.09076       10.070      1
    1     4     3     2     1    179.06795       10.072      1
    2     1     4     3     1    179.99735        9.325      1
    3     2     1     4     1    179.99499        9.335      1
