[ moleculetype ]
; name        nrexcl
res           1

[ atoms ]
;    nr  type  resnr resid  atom  cgnr     charge       mass
      1 TC4       1 res   C1        1      0.000     36.000
      2 SN6       1 res   C2        2      0.000     54.000
      3 SN5a      1 res   C3        3      0.000     54.000
      4 SC5       1 res   C4        4      0.000     54.000
      5 N4a       1 res   C5        5      0.000     72.000
      6 TC5       1 res   C6        6      0.000     36.000
      7 TC5       1 res   C7        7      0.000     36.000
      8 TC5       1 res   C8        8      0.000     36.000
      9 TN6       1 res   C9        9      0.000     36.000
     10 SN4a      1 res   C10      10      0.000     54.000
     11 N4a       1 res   C11      11      0.000     72.000
     12 TC5       1 res   C12      12      0.000     36.000
     13 SP4       1 res   C13      13      0.000     54.000
     14 SN6       1 res   C14      14      0.000     54.000
     15 SP4       1 res   C15      15      0.000     54.000
     16 TN6       1 res   C16      16      0.000     36.000

[ constraints ]
;  ai    aj   funct      b0(nm)
    4     5     1      0.27206
   13    14     1      0.33195
    6     8     1      0.29801
    1     3     1      0.35762
    9    10     1      0.28191
    1     9     1      0.26072
    2     4     1      0.27881
    5     6     1      0.35165
    6     7     1      0.25595
    1     2     1      0.36556
    2     3     1      0.28703
   11    12     1      0.35144
   12    14     1      0.33473
    7     8     1      0.28766
    4     9     1      0.22803
    3     4     1      0.31839
   12    13     1      0.28249

[ bonds ]
;  ai    aj   funct      b0(nm)          k(kJ/mol/nm^2)
   10    15     1      0.22942          18328.9
   15    16     1      0.24520          14630.9
   10    11     1      0.26966          12338.5
   10    16     1      0.27524          15386.2

[ angles ]
;  ai    aj    ak  funct     th0(deg)        k(kJ/mol/rad^2)
    1     2     3     1     65.14674          4186.39
    1     2     4     1     73.92210          2231.15
    1     3     2     1     68.08487          2220.58
    1     3     4     1     70.94003          3942.31
    1     9     4     1    107.12985          1179.16
    1     9    10     1    105.49055            21.88
    2     1     3     1     46.76837          2287.04
    2     1     9     1     74.81590          1691.76
    2     3     4     1     54.54172          1900.13
    2     4     3     1     56.99119          1982.01
    2     4     5     1    129.17545           242.53
    2     4     9     1     99.94695          2010.53
    3     1     9     1     58.66361          2789.50
    3     2     4     1     68.46686          2461.49
    3     4     5     1     77.42050           758.17
    3     4     9     1     67.97435          2690.47
    4     5     6     1     85.24295           158.28
    4     9    10     1     92.45428           168.07
    5     4     9     1     79.89346           517.09
    5     6     7     1    143.81866          1082.17
    5     6     8     1     82.41297           866.73
    6     7     8     1     66.19547          3792.12
    6     8     7     1     51.78293          7588.21
    7     6     8     1     62.02157          4488.47
    9    10    11     1    138.62211           173.22
    9    10    15     1    124.64502           253.34
    9    10    16     1     78.81183           447.90
   10    11    12     1    140.54684           113.80
   10    15    16     1     70.88930           475.49
   10    16    15     1     51.96495           615.95
   11    10    15     1     94.15639           395.76
   11    10    16     1    123.95254            44.09
   11    12    13     1    152.95774           542.70
   11    12    14     1     89.75565           770.79
   12    13    14     1     65.44028          9053.05
   12    14    13     1     50.13936          9902.39
   13    12    14     1     64.42035          7115.19
   15    10    16     1     57.14335          1481.85

[ dihedrals ]
;  ai    aj    ak    al  funct   phi0(deg)        k(kJ/mol)   mult
    1     2     3     4     1    -97.05771        5.528      1
    1     2     4     3     1    110.97535        4.013      1
    1     2     4     5     1     83.77426       11.397      1
    1     2     4     9     1    166.01717        7.766      1
    1     3     2     4     1     97.05771        5.528      1
    1     3     4     2     1   -104.95178        5.518      1
    1     3     4     5     1     52.03198       10.702      1
    1     3     4     9     1    136.06573        4.789      1
    1     9     4     2     1   -160.95029        9.996      1
    1     9     4     3     1   -112.01528        6.253      1
    1     9     4     5     1    -33.88389        9.308      1
    1     9    10    11     1    -70.29768       25.040      1
    1     9    10    15     1     90.72418       22.077      1
    1     9    10    16     1     67.10301       18.346      1
    2     1     3     4     1    121.95678        4.795      1
    2     1     9     4     1    165.00807        8.481      1
    2     1     9    10     1     66.83932       10.026      1
    2     3     1     9     1    -81.94310        7.746      1
    2     3     4     5     1    -22.06811       10.754      1
    2     3     4     9     1     60.99264        5.599      1
    2     4     5     6     1     39.95748       22.660      1
    2     4     9    10     1    -52.98093       25.941      1
    3     1     2     4     1   -106.06621        4.759      1
    3     1     9     4     1    116.03969        4.799      1
    3     1     9    10     1     16.77686        8.557      1
    3     2     1     9     1    119.01670        5.514      1
    3     2     4     5     1    152.07252       10.721      1
    3     2     4     9     1   -124.98183        5.568      1
    3     4     5     6     1     15.10456       20.954      1
    3     4     9    10     1     -0.68071       25.304      1
    4     2     1     9     1   -168.71343        6.980      1
    4     3     1     9     1   -139.96138        4.723      1
    4     5     6     7     1     67.90206       23.826      1
    4     5     6     8     1     64.30022       23.431      1
    4     9    10    11     1   -179.78844       23.402      1
    4     9    10    15     1    -20.27065       21.832      1
    4     9    10    16     1    -40.26628       16.409      1
    5     4     9    10     1     75.59831       21.612      1
    5     6     7     8     1    179.04684       17.120      1
    5     6     8     7     1     -1.00094       11.553      1
    6     5     4     9     1    -52.50647       21.669      1
    9    10    11    12     1     39.95610       23.744      1
    9    10    15    16     1    151.22017       23.985      1
    9    10    16    15     1    -24.08947       22.837      1
   10    11    12    13     1     51.83542       27.274      1
   10    11    12    14     1     58.23050       23.610      1
   11    10    15    16     1    -35.83639       23.214      1
   11    10    16    15     1    129.67442       18.799      1
   11    12    13    14     1   -174.77963       23.531      1
   11    12    14    13     1      4.14985       14.985      1
   12    11    10    15     1   -120.61140       21.388      1
   12    11    10    16     1    -84.07411       25.993      1
