[ moleculetype ]
; name        nrexcl
res           1

[ atoms ]
;    nr  type  resnr resid  atom  cgnr     charge       mass
      1 TC5       1 res   C1        1      0.000     36.000
      2 TC5       1 res   C2        2      0.000     36.000
      3 TC5       1 res   C3        3      0.000     36.000
      4 TC5       1 res   C4        4      0.000     36.000
      5 TC5       1 res   C5        5      0.000     36.000
      6 TC5       1 res   C6        6      0.000     36.000
      7 TC5       1 res   C7        7      0.000     36.000

[ constraints ]
;  ai    aj   funct      b0(nm)
    1     2     1      0.29042
    2     3     1      0.28814
    4     5     1      0.25280
    1     7     1      0.28813
    3     4     1      0.22296
    5     6     1      0.29047
    3     7     1      0.30571
    4     7     1      0.22288
    4     6     1      0.25286

[ bonds ]
;  ai    aj   funct      b0(nm)          k(kJ/mol/nm^2)

[ angles ]
;  ai    aj    ak  funct     th0(deg)        k(kJ/mol/rad^2)
    1     2     3     1     91.47911         10212.88
    1     7     3     1     88.44430          8061.56
    1     7     4     1    135.05264          4939.22
    2     1     7     1     91.51881         11172.79
    2     3     4     1    135.07146          4198.72
    2     3     7     1     88.48262          9695.02
    3     4     5     1    101.57512          7082.66
    3     4     6     1    171.11827          4032.47
    3     4     7     1     86.59150          4311.30
    3     7     4     1     46.71423         13350.53
    4     3     7     1     46.69424         11898.90
    4     5     6     1     54.94378         10932.77
    4     6     5     1     54.92463         13265.05
    5     4     6     1     70.13158          4697.79
    5     4     7     1    171.03917          3338.75
    6     4     7     1    101.53178          5374.25

[ dihedrals ]
;  ai    aj    ak    al  funct   phi0(deg)        k(kJ/mol)   mult
    1     2     3     4     1    179.97099        9.294      1
    1     2     3     7     1   -179.04782        4.034      1
    1     7     3     2     1    179.05635        4.028      1
    1     7     3     4     1     -0.03517        7.775      1
    1     7     4     3     1   -179.89559        9.302      1
    1     7     4     5     1     -1.68548       25.625      1
    1     7     4     6     1     -0.04893        6.279      1
    2     1     7     3     1   -179.05635        4.028      1
    2     1     7     4     1   -179.92127        9.291      1
    2     3     4     5     1      0.03911        6.287      1
    2     3     4     6     1     -2.25334       24.711      1
    2     3     4     7     1   -179.98845       10.690      1
    2     3     7     4     1      0.01491        7.758      1
    3     2     1     7     1    179.95868        4.763      1
    3     4     5     6     1      0.00798        6.338      1
    3     4     6     5     1   -177.33527       27.410      1
    3     7     4     5     1      0.85160       28.039      1
    3     7     4     6     1      0.93917        7.072      1
    5     4     3     7     1     -0.00079        7.818      1
    5     6     4     7     1      0.02400        7.784      1
    6     4     3     7     1      1.66045       28.644      1
    6     5     4     7     1    177.77264       27.942      1
