[ moleculetype ]
; name        nrexcl
res           1

[ atoms ]
;    nr  type  resnr resid  atom  cgnr     charge       mass
      1 TC5       1 res   C1        1      0.000     36.000
      2 TC5       1 res   C2        2      0.000     36.000
      3 TC5       1 res   C3        3      0.000     36.000
      4 TC5       1 res   C4        4      0.000     36.000
      5 TC5       1 res   C5        5      0.000     36.000
      6 TC5       1 res   C6        6      0.000     36.000
      7 TC5       1 res   C7        7      0.000     36.000

[ constraints ]
;  ai    aj   funct      b0(nm)
    1     2     1      0.29008
    2     3     1      0.28782
    4     5     1      0.25253
    1     7     1      0.28815
    3     4     1      0.22284
    5     6     1      0.29012
    3     7     1      0.30528
    4     7     1      0.22262
    4     6     1      0.25277

[ bonds ]
;  ai    aj   funct      b0(nm)          k(kJ/mol/nm^2)

[ angles ]
;  ai    aj    ak  funct     th0(deg)        k(kJ/mol/rad^2)
    1     2     3     1     91.38997          7438.78
    1     7     3     1     88.32140          3190.60
    1     7     4     1    134.89404          2796.17
    2     1     7     1     91.53955          6433.27
    2     3     4     1    135.09604          2745.67
    2     3     7     1     88.59053          2999.81
    3     4     5     1    101.76243          2552.83
    3     4     6     1    171.08292          2201.42
    3     4     7     1     86.52714          5713.51
    3     7     4     1     46.76920         11187.94
    4     3     7     1     46.70368         16123.45
    4     5     6     1     55.00002          9532.18
    4     6     5     1     54.92261          7956.01
    5     4     6     1     70.07738          8139.47
    5     4     7     1    170.88054          2192.02
    6     4     7     1    101.53887          2834.52

[ dihedrals ]
;  ai    aj    ak    al  funct   phi0(deg)        k(kJ/mol)   mult
    1     2     3     4     1   -176.44834       10.731      1
    1     2     3     7     1    179.07936        5.555      1
    1     7     3     2     1   -179.07826        5.555      1
    1     7     3     4     1      4.10779        7.764      1
    1     7     4     3     1   -174.76977        9.977      1
    1     7     4     5     1     -3.79167       28.579      1
    1     7     4     6     1      2.09250        7.846      1
    2     1     7     3     1    179.07936        5.555      1
    2     1     7     4     1    175.89387       10.724      1
    2     3     4     5     1     -1.14607        8.514      1
    2     3     4     6     1      4.42972       26.045      1
    2     3     4     7     1    175.30245        9.991      1
    2     3     7     4     1     -2.63224        7.056      1
    3     2     1     7     1   -179.04819        5.584      1
    3     4     5     6     1     -1.95076        7.789      1
    3     4     6     5     1    173.68627       28.397      1
    3     7     4     5     1     -8.67851       28.979      1
    3     7     4     6     1     -1.94082        7.790      1
    5     4     3     7     1      2.88788        7.066      1
    5     6     4     7     1      1.96001        7.766      1
    6     4     3     7     1     12.47945       25.772      1
    6     5     4     7     1   -173.99919       28.583      1
