1TPCN03685
24
    1res  C1    1   -0.645  -0.076   0.348
    1res  C2    2   -0.594   0.178   0.188
    1res  C3    3   -0.348   0.127   0.248
    1res  C4    4   -0.391   0.089  -0.040
    1res  C5    5   -0.375  -0.053  -0.285
    1res  C6    6   -0.582   0.023  -0.436
    1res  C7    7   -0.447  -0.245  -0.448
    1res  C8    8   -0.285  -0.340  -0.308
    1res  C9    9   -0.213  -0.242  -0.122
    1res  C10   10   -0.207   0.313   0.108
    1res  C11   11   -0.133   0.229   0.355
    1res  C12   12   -0.061  -0.069   0.100
    1res  C13   13    0.113   0.080   0.353
    1res  C14   14    0.356   0.052   0.169
    1res  C15   15    0.269  -0.164  -0.032
    1res  C16   16    0.396  -0.029  -0.190
    1res  C17   17    0.604  -0.254  -0.201
    1res  C18   18    0.816  -0.338  -0.331
    1res  C19   19    0.894  -0.122  -0.246
    1res  C20   20    0.750  -0.002  -0.135
    1res  C21   21    0.394   0.220  -0.190
    1res  C22   22    0.140   0.181  -0.251
    1res  C23   23    0.175   0.294   0.133
    1res  C24   24   -0.387  -0.138   0.337
  10.00000  10.00000  10.00000
