[ moleculetype ]
; name        nrexcl
res           1

[ atoms ]
;    nr  type  resnr resid  atom  cgnr     charge       mass
      1 SN3r      1 res   C1        1      0.000     54.000
      2 TP1       1 res   C2        2      0.000     36.000
      3 SN6       1 res   C3        3      0.000     54.000
      4 TN6a      1 res   C4        4      0.000     36.000
      5 TN4a      1 res   C5        5      0.000     36.000
      6 SC4       1 res   C6        6      0.000     54.000

[ constraints ]
;  ai    aj   funct      b0(nm)
    3     5     1      0.22645
    4     5     1      0.26681
    5     6     1      0.32574

[ bonds ]
;  ai    aj   funct      b0(nm)          k(kJ/mol/nm^2)
    1     2     1      0.25843           2073.5
    3     4     1      0.28974          16014.9
    1     3     1      0.34248          14313.3

[ angles ]
;  ai    aj    ak  funct     th0(deg)        k(kJ/mol/rad^2)
    1     3     4     1     54.25667           182.97
    1     3     5     1    112.59809           139.97
    2     1     3     1     69.29772           276.71
    3     4     5     1     47.72608          3079.28
    3     5     4     1     71.38287           908.85
    3     5     6     1     93.13199           143.88
    4     3     5     1     60.89037           766.64
    4     5     6     1    143.04360            88.29

[ dihedrals ]
;  ai    aj    ak    al  funct   phi0(deg)        k(kJ/mol)   mult
    1     3     4     5     1      5.05268       25.988      1
    1     3     5     4     1   -172.00579       24.199      1
    1     3     5     6     1    -24.69660       25.090      1
    2     1     3     4     1     95.71123       16.343      1
    2     1     3     5     1     83.64936       23.955      1
    3     4     5     6     1    108.16417       20.350      1
    4     3     5     6     1    -33.15502       14.354      1
