1TPCN00732
27
    1res  C1    1    0.024  -0.474  -0.146
    1res  C2    2   -0.115  -0.234  -0.102
    1res  C3    3   -0.264  -0.433  -0.110
    1res  C4    4   -0.336  -0.162  -0.017
    1res  C5    5   -0.578  -0.194  -0.317
    1res  C6    6   -0.581  -0.389  -0.445
    1res  C7    7   -0.839  -0.221  -0.336
    1res  C8    8   -0.791   0.010  -0.270
    1res  C9    9   -0.610  -0.024  -0.115
    1res  C10   10   -0.404   0.141   0.041
    1res  C11   11   -0.198   0.369   0.015
    1res  C12   12   -0.432   0.273   0.275
    1res  C13   13   -0.598   0.392   0.138
    1res  C14   14   -0.692   0.251  -0.008
    1res  C15   15   -0.229  -0.295   0.252
    1res  C16   16    0.081  -0.182  -0.046
    1res  C17   17    0.316  -0.175  -0.013
    1res  C18   18    0.266   0.035  -0.044
    1res  C19   19    0.434  -0.064   0.055
    1res  C20   20    0.545   0.157   0.129
    1res  C21   21    0.780   0.284   0.094
    1res  C22   22    1.020   0.143  -0.045
    1res  C23   23    1.022   0.416   0.047
    1res  C24   24    0.918   0.569   0.161
    1res  C25   25    0.720   0.449   0.291
    1res  C26   26    0.635  -0.119   0.193
    1res  C27   27    0.333  -0.416  -0.035
  10.00000  10.00000  10.00000
