Generated with MDTraj, t= 0.0
 51
    1UNL     C1    1  -0.524   0.049  -0.145
    1UNL     C2    2  -0.394   0.129  -0.153
    1UNL     C3    3  -0.418   0.278  -0.126
    1UNL     C4    4  -0.287   0.074  -0.061
    1UNL     C5    5  -0.161   0.069  -0.104
    1UNL     C6    6  -0.044   0.020  -0.024
    1UNL     O1    7   0.040  -0.064  -0.102
    1UNL     C7    8   0.172  -0.057  -0.054
    1UNL     O2    9   0.226   0.076  -0.055
    1UNL     C8   10   0.344   0.090   0.025
    1UNL     C9   11   0.306   0.122   0.169
    1UNL     O3   12   0.235   0.243   0.178
    1UNL    C10   13   0.438  -0.036   0.014
    1UNL     O4   14   0.416  -0.126   0.120
    1UNL    C11   15   0.415  -0.111  -0.121
    1UNL     O5   16   0.502  -0.222  -0.127
    1UNL    C12   17   0.266  -0.157  -0.129
    1UNL     O6   18   0.251  -0.286  -0.072
    1UNL    C13   19  -0.085  -0.054   0.109
    1UNL    C14   20  -0.117  -0.200   0.078
    1UNL     O7   21   0.027  -0.048   0.199
    1UNL    C15   22  -0.205   0.018   0.174
    1UNL    C16   23  -0.325   0.033   0.078
    1UNL     H1   24  -0.569   0.058  -0.046
    1UNL     H2   25  -0.598   0.085  -0.217
    1UNL     H3   26  -0.507  -0.057  -0.164
    1UNL     H4   27  -0.356   0.119  -0.256
    1UNL     H5   28  -0.490   0.320  -0.196
    1UNL     H6   29  -0.325   0.335  -0.135
    1UNL     H7   30  -0.457   0.293  -0.026
    1UNL     H8   31  -0.139   0.098  -0.205
    1UNL     H9   32   0.018   0.107   0.005
    1UNL    H10   33   0.169  -0.089   0.051
    1UNL    H11   34   0.396   0.177  -0.018
    1UNL    H12   35   0.244   0.041   0.208
    1UNL    H13   36   0.396   0.128   0.231
    1UNL    H14   37   0.200   0.257   0.268
    1UNL    H15   38   0.543  -0.005   0.020
    1UNL    H16   39   0.446  -0.215   0.090
    1UNL    H17   40   0.438  -0.042  -0.204
    1UNL    H18   41   0.500  -0.262  -0.217
    1UNL    H19   42   0.233  -0.163  -0.233
    1UNL    H20   43   0.330  -0.341  -0.094
    1UNL    H21   44  -0.198  -0.208   0.006
    1UNL    H22   45  -0.030  -0.249   0.034
    1UNL    H23   46  -0.145  -0.255   0.168
    1UNL    H24   47   0.006  -0.099   0.281
    1UNL    H25   48  -0.234  -0.035   0.265
    1UNL    H26   49  -0.172   0.117   0.207
    1UNL    H27   50  -0.380  -0.062   0.073
    1UNL    H28   51  -0.396   0.106   0.119
   0.00000   0.00000   0.00000   0.00000   0.00000   0.00000   0.00000   0.00000   0.00000
Generated with MDTraj, t= 1.0
 51
    1UNL     C1    1  -0.528   0.057  -0.139
    1UNL     C2    2  -0.402   0.138  -0.131
    1UNL     C3    3  -0.426   0.279  -0.078
    1UNL     C4    4  -0.288   0.077  -0.053
    1UNL     C5    5  -0.166   0.074  -0.103
    1UNL     C6    6  -0.050   0.020  -0.028
    1UNL     O1    7   0.048  -0.042  -0.113
    1UNL     C7    8   0.178  -0.036  -0.058
    1UNL     O2    9   0.248   0.084  -0.073
    1UNL     C8   10   0.369   0.095   0.013
    1UNL     C9   11   0.313   0.151   0.151
    1UNL     O3   12   0.228   0.249   0.129
    1UNL    C10   13   0.448  -0.036   0.021
    1UNL     O4   14   0.398  -0.117   0.128
    1UNL    C11   15   0.424  -0.121  -0.107
    1UNL     O5   16   0.502  -0.241  -0.090
    1UNL    C12   17   0.270  -0.158  -0.110
    1UNL     O6   18   0.252  -0.276  -0.044
    1UNL    C13   19  -0.090  -0.079   0.093
    1UNL    C14   20  -0.140  -0.207   0.022
    1UNL     O7   21   0.030  -0.108   0.177
    1UNL    C15   22  -0.202   0.004   0.173
    1UNL    C16   23  -0.326   0.033   0.088
    1UNL     H1   24  -0.595   0.075  -0.053
    1UNL     H2   25  -0.584   0.091  -0.228
    1UNL     H3   26  -0.512  -0.042  -0.166
    1UNL     H4   27  -0.358   0.155  -0.229
    1UNL     H5   28  -0.503   0.326  -0.137
    1UNL     H6   29  -0.339   0.342  -0.049
    1UNL     H7   30  -0.473   0.287   0.025
    1UNL     H8   31  -0.143   0.117  -0.208
    1UNL     H9   32  -0.004   0.103   0.028
    1UNL    H10   33   0.175  -0.050   0.053
    1UNL    H11   34   0.428   0.178  -0.026
    1UNL    H12   35   0.264   0.076   0.211
    1UNL    H13   36   0.393   0.186   0.215
    1UNL    H14   37   0.171   0.210   0.054
    1UNL    H15   38   0.555  -0.020   0.032
    1UNL    H16   39   0.472  -0.163   0.181
    1UNL    H17   40   0.448  -0.061  -0.200
    1UNL    H18   41   0.473  -0.314  -0.147
    1UNL    H19   42   0.223  -0.175  -0.206
    1UNL    H20   43   0.270  -0.248   0.051
    1UNL    H21   44  -0.229  -0.187  -0.041
    1UNL    H22   45  -0.067  -0.261  -0.044
    1UNL    H23   46  -0.178  -0.279   0.100
    1UNL    H24   47  -0.002  -0.176   0.244
    1UNL    H25   48  -0.232  -0.062   0.248
    1UNL    H26   49  -0.156   0.087   0.227
    1UNL    H27   50  -0.391  -0.053   0.072
    1UNL    H28   51  -0.388   0.107   0.138
   0.00000   0.00000   0.00000   0.00000   0.00000   0.00000   0.00000   0.00000   0.00000
Generated with MDTraj, t= 2.0
 51
    1UNL     C1    1  -0.498   0.066  -0.144
    1UNL     C2    2  -0.388   0.162  -0.117
    1UNL     C3    3  -0.439   0.292  -0.057
    1UNL     C4    4  -0.278   0.094  -0.037
    1UNL     C5    5  -0.158   0.085  -0.091
    1UNL     C6    6  -0.038   0.018  -0.021
    1UNL     O1    7   0.055  -0.045  -0.113
    1UNL     C7    8   0.185  -0.041  -0.066
    1UNL     O2    9   0.247   0.083  -0.096
    1UNL     C8   10   0.362   0.110  -0.007
    1UNL     C9   11   0.309   0.169   0.131
    1UNL     O3   12   0.233   0.285   0.118
    1UNL    C10   13   0.440  -0.019   0.022
    1UNL     O4   14   0.417  -0.069   0.150
    1UNL    C11   15   0.411  -0.131  -0.087
    1UNL     O5   16   0.482  -0.251  -0.053
    1UNL    C12   17   0.262  -0.174  -0.113
    1UNL     O6   18   0.218  -0.276  -0.025
    1UNL    C13   19  -0.092  -0.106   0.072
    1UNL    C14   20  -0.145  -0.235  -0.009
    1UNL     O7   21   0.018  -0.160   0.154
    1UNL    C15   22  -0.199  -0.050   0.168
    1UNL    C16   23  -0.309   0.031   0.098
    1UNL     H1   24  -0.523   0.019  -0.046
    1UNL     H2   25  -0.587   0.120  -0.181
    1UNL     H3   26  -0.473   0.005  -0.222
    1UNL     H4   27  -0.342   0.192  -0.208
    1UNL     H5   28  -0.526   0.320  -0.112
    1UNL     H6   29  -0.364   0.372  -0.038
    1UNL     H7   30  -0.477   0.300   0.051
    1UNL     H8   31  -0.128   0.130  -0.175
    1UNL     H9   32   0.017   0.095   0.041
    1UNL    H10   33   0.199  -0.058   0.043
    1UNL    H11   34   0.418   0.182  -0.063
    1UNL    H12   35   0.263   0.089   0.186
    1UNL    H13   36   0.389   0.188   0.200
    1UNL    H14   37   0.219   0.307   0.023
    1UNL    H15   38   0.548  -0.010   0.013
    1UNL    H16   39   0.456  -0.161   0.160
    1UNL    H17   40   0.459  -0.091  -0.184
    1UNL    H18   41   0.430  -0.332  -0.081
    1UNL    H19   42   0.230  -0.209  -0.207
    1UNL    H20   43   0.129  -0.310  -0.042
    1UNL    H21   44  -0.248  -0.229  -0.062
    1UNL    H22   45  -0.077  -0.272  -0.094
    1UNL    H23   46  -0.160  -0.324   0.061
    1UNL    H24   47   0.063  -0.078   0.193
    1UNL    H25   48  -0.235  -0.128   0.224
    1UNL    H26   49  -0.141   0.009   0.240
    1UNL    H27   50  -0.387  -0.046   0.096
    1UNL    H28   51  -0.352   0.111   0.157
   0.00000   0.00000   0.00000   0.00000   0.00000   0.00000   0.00000   0.00000   0.00000
Generated with MDTraj, t= 3.0
 51
    1UNL     C1    1  -0.498   0.092  -0.170
    1UNL     C2    2  -0.382   0.173  -0.103
    1UNL     C3    3  -0.437   0.281  -0.008
    1UNL     C4    4  -0.275   0.087  -0.028
    1UNL     C5    5  -0.153   0.078  -0.081
    1UNL     C6    6  -0.040  -0.007  -0.016
    1UNL     O1    7   0.052  -0.053  -0.111
    1UNL     C7    8   0.184  -0.037  -0.058
    1UNL     O2    9   0.254   0.085  -0.090
    1UNL     C8   10   0.369   0.110  -0.010
    1UNL     C9   11   0.341   0.208   0.100
    1UNL     O3   12   0.234   0.298   0.062
    1UNL    C10   13   0.448  -0.021   0.031
    1UNL     O4   14   0.404  -0.060   0.160
    1UNL    C11   15   0.419  -0.136  -0.070
    1UNL     O5   16   0.488  -0.252  -0.031
    1UNL    C12   17   0.274  -0.163  -0.100
    1UNL     O6   18   0.235  -0.287  -0.055
    1UNL    C13   19  -0.106  -0.122   0.073
    1UNL    C14   20  -0.179  -0.221  -0.030
    1UNL     O7   21  -0.005  -0.195   0.144
    1UNL    C15   22  -0.211  -0.055   0.176
    1UNL    C16   23  -0.326   0.020   0.104
    1UNL     H1   24  -0.581   0.085  -0.099
    1UNL     H2   25  -0.532   0.135  -0.264
    1UNL     H3   26  -0.462  -0.004  -0.203
    1UNL     H4   27  -0.329   0.223  -0.182
    1UNL     H5   28  -0.493   0.352  -0.063
    1UNL     H6   29  -0.366   0.327   0.063
    1UNL     H7   30  -0.515   0.240   0.064
    1UNL     H8   31  -0.117   0.121  -0.177
    1UNL     H9   32   0.015   0.068   0.049
    1UNL    H10   33   0.188  -0.030   0.051
    1UNL    H11   34   0.426   0.163  -0.083
    1UNL    H12   35   0.315   0.166   0.196
    1UNL    H13   36   0.431   0.257   0.132
    1UNL    H14   37   0.256   0.369  -0.001
    1UNL    H15   38   0.554   0.006   0.056
    1UNL    H16   39   0.416  -0.153   0.182
    1UNL    H17   40   0.468  -0.093  -0.166
    1UNL    H18   41   0.454  -0.328  -0.079
    1UNL    H19   42   0.260  -0.167  -0.203
    1UNL    H20   43   0.232  -0.283   0.042
    1UNL    H21   44  -0.240  -0.163  -0.112
    1UNL    H22   45  -0.100  -0.279  -0.093
    1UNL    H23   46  -0.252  -0.298   0.017
    1UNL    H24   47   0.062  -0.132   0.178
    1UNL    H25   48  -0.246  -0.130   0.240
    1UNL    H26   49  -0.163   0.016   0.243
    1UNL    H27   50  -0.398  -0.056   0.072
    1UNL    H28   51  -0.383   0.076   0.177
   0.00000   0.00000   0.00000   0.00000   0.00000   0.00000   0.00000   0.00000   0.00000
Generated with MDTraj, t= 4.0
 51
    1UNL     C1    1  -0.455   0.116  -0.184
    1UNL     C2    2  -0.362   0.193  -0.093
    1UNL     C3    3  -0.435   0.280   0.013
    1UNL     C4    4  -0.272   0.088  -0.020
    1UNL     C5    5  -0.148   0.079  -0.058
    1UNL     C6    6  -0.036  -0.015  -0.003
    1UNL     O1    7   0.045  -0.073  -0.102
    1UNL     C7    8   0.179  -0.049  -0.061
    1UNL     O2    9   0.227   0.082  -0.079
    1UNL     C8   10   0.355   0.109  -0.026
    1UNL     C9   11   0.347   0.221   0.075
    1UNL     O3   12   0.270   0.333   0.030
    1UNL    C10   13   0.434  -0.014   0.040
    1UNL     O4   14   0.366  -0.070   0.147
    1UNL    C11   15   0.426  -0.125  -0.066
    1UNL     O5   16   0.486  -0.241  -0.009
    1UNL    C12   17   0.280  -0.152  -0.113
    1UNL     O6   18   0.243  -0.279  -0.063
    1UNL    C13   19  -0.110  -0.136   0.074
    1UNL    C14   20  -0.163  -0.239  -0.034
    1UNL     O7   21  -0.011  -0.194   0.165
    1UNL    C15   22  -0.228  -0.087   0.165
    1UNL    C16   23  -0.331   0.004   0.093
    1UNL     H1   24  -0.493   0.030  -0.135
    1UNL     H2   25  -0.539   0.176  -0.208
    1UNL     H3   26  -0.413   0.094  -0.289
    1UNL     H4   27  -0.302   0.252  -0.160
    1UNL     H5   28  -0.487   0.362  -0.030
    1UNL     H6   29  -0.365   0.329   0.084
    1UNL     H7   30  -0.507   0.208   0.062
    1UNL     H8   31  -0.113   0.139  -0.147
    1UNL     H9   32   0.029   0.050   0.061
    1UNL    H10   33   0.184  -0.050   0.047
    1UNL    H11   34   0.407   0.125  -0.116
    1UNL    H12   35   0.303   0.190   0.171
    1UNL    H13   36   0.440   0.256   0.116
    1UNL    H14   37   0.189   0.296  -0.019
    1UNL    H15   38   0.541  -0.012   0.079
    1UNL    H16   39   0.373  -0.171   0.142
    1UNL    H17   40   0.486  -0.091  -0.158
    1UNL    H18   41   0.412  -0.301   0.022
    1UNL    H19   42   0.277  -0.163  -0.217
    1UNL    H20   43   0.146  -0.293  -0.049
    1UNL    H21   44  -0.254  -0.189  -0.087
    1UNL    H22   45  -0.078  -0.261  -0.113
    1UNL    H23   46  -0.198  -0.336   0.023
    1UNL    H24   47   0.036  -0.138   0.228
    1UNL    H25   48  -0.272  -0.172   0.211
    1UNL    H26   49  -0.189  -0.028   0.244
    1UNL    H27   50  -0.420  -0.048   0.055
    1UNL    H28   51  -0.368   0.069   0.170
   0.00000   0.00000   0.00000   0.00000   0.00000   0.00000   0.00000   0.00000   0.00000
Generated with MDTraj, t= 5.0
 51
    1UNL     C1    1  -0.418   0.150  -0.204
    1UNL     C2    2  -0.351   0.193  -0.080
    1UNL     C3    3  -0.436   0.277   0.018
    1UNL     C4    4  -0.264   0.084  -0.019
    1UNL     C5    5  -0.139   0.075  -0.054
    1UNL     C6    6  -0.042  -0.028   0.007
    1UNL     O1    7   0.050  -0.082  -0.085
    1UNL     C7    8   0.180  -0.047  -0.055
    1UNL     O2    9   0.214   0.083  -0.085
    1UNL     C8   10   0.346   0.114  -0.037
    1UNL     C9   11   0.331   0.228   0.071
    1UNL     O3   12   0.298   0.353   0.016
    1UNL    C10   13   0.426  -0.012   0.039
    1UNL     O4   14   0.369  -0.038   0.162
    1UNL    C11   15   0.417  -0.126  -0.065
    1UNL     O5   16   0.479  -0.240  -0.011
    1UNL    C12   17   0.269  -0.148  -0.119
    1UNL     O6   18   0.223  -0.280  -0.074
    1UNL    C13   19  -0.115  -0.149   0.075
    1UNL    C14   20  -0.173  -0.258  -0.020
    1UNL     O7   21  -0.011  -0.215   0.153
    1UNL    C15   22  -0.226  -0.097   0.174
    1UNL    C16   23  -0.329  -0.020   0.090
    1UNL     H1   24  -0.509   0.101  -0.184
    1UNL     H2   25  -0.441   0.230  -0.269
    1UNL     H3   26  -0.356   0.078  -0.271
    1UNL     H4   27  -0.277   0.261  -0.122
    1UNL     H5   28  -0.494   0.352  -0.038
    1UNL     H6   29  -0.376   0.345   0.081
    1UNL     H7   30  -0.499   0.198   0.067
    1UNL     H8   31  -0.109   0.110  -0.145
    1UNL     H9   32   0.021   0.028   0.077
    1UNL    H10   33   0.190  -0.045   0.052
    1UNL    H11   34   0.401   0.148  -0.118
    1UNL    H12   35   0.258   0.209   0.154
    1UNL    H13   36   0.416   0.247   0.135
    1UNL    H14   37   0.343   0.360  -0.072
    1UNL    H15   38   0.533   0.021   0.051
    1UNL    H16   39   0.365  -0.139   0.170
    1UNL    H17   40   0.469  -0.074  -0.151
    1UNL    H18   41   0.418  -0.315  -0.023
    1UNL    H19   42   0.263  -0.152  -0.225
    1UNL    H20   43   0.150  -0.268  -0.011
    1UNL    H21   44  -0.262  -0.214  -0.082
    1UNL    H22   45  -0.083  -0.289  -0.088
    1UNL    H23   46  -0.209  -0.347   0.047
    1UNL    H24   47   0.000  -0.177   0.240
    1UNL    H25   48  -0.270  -0.173   0.236
    1UNL    H26   49  -0.179  -0.029   0.235
    1UNL    H27   50  -0.383  -0.100   0.035
    1UNL    H28   51  -0.399   0.034   0.145
   0.00000   0.00000   0.00000   0.00000   0.00000   0.00000   0.00000   0.00000   0.00000
Generated with MDTraj, t= 6.0
 51
    1UNL     C1    1  -0.414   0.148  -0.199
    1UNL     C2    2  -0.354   0.202  -0.066
    1UNL     C3    3  -0.469   0.249   0.028
    1UNL     C4    4  -0.264   0.097  -0.010
    1UNL     C5    5  -0.139   0.082  -0.047
    1UNL     C6    6  -0.050  -0.030   0.011
    1UNL     O1    7   0.053  -0.087  -0.073
    1UNL     C7    8   0.188  -0.045  -0.049
    1UNL     O2    9   0.228   0.082  -0.099
    1UNL     C8   10   0.356   0.116  -0.041
    1UNL     C9   11   0.344   0.228   0.059
    1UNL     O3   12   0.301   0.348   0.005
    1UNL    C10   13   0.439  -0.003   0.024
    1UNL     O4   14   0.387  -0.021   0.154
    1UNL    C11   15   0.425  -0.132  -0.062
    1UNL     O5   16   0.491  -0.245   0.002
    1UNL    C12   17   0.274  -0.159  -0.097
    1UNL     O6   18   0.235  -0.287  -0.057
    1UNL    C13   19  -0.128  -0.154   0.067
    1UNL    C14   20  -0.180  -0.243  -0.053
    1UNL     O7   21  -0.030  -0.233   0.143
    1UNL    C15   22  -0.247  -0.100   0.161
    1UNL    C16   23  -0.336   0.010   0.100
    1UNL     H1   24  -0.483   0.073  -0.169
    1UNL     H2   25  -0.472   0.222  -0.250
    1UNL     H3   26  -0.346   0.103  -0.276
    1UNL     H4   27  -0.293   0.289  -0.093
    1UNL     H5   28  -0.497   0.349  -0.014
    1UNL     H6   29  -0.445   0.280   0.130
    1UNL     H7   30  -0.548   0.173   0.013
    1UNL     H8   31  -0.108   0.127  -0.150
    1UNL     H9   32  -0.001   0.020   0.092
    1UNL    H10   33   0.191  -0.021   0.055
    1UNL    H11   34   0.402   0.158  -0.123
    1UNL    H12   35   0.294   0.195   0.155
    1UNL    H13   36   0.445   0.241   0.098
    1UNL    H14   37   0.209   0.330  -0.014
    1UNL    H15   38   0.548   0.022   0.027
    1UNL    H16   39   0.342  -0.104   0.150
    1UNL    H17   40   0.481  -0.121  -0.155
    1UNL    H18   41   0.452  -0.331  -0.028
    1UNL    H19   42   0.258  -0.169  -0.204
    1UNL    H20   43   0.154  -0.268  -0.003
    1UNL    H21   44  -0.237  -0.176  -0.129
    1UNL    H22   45  -0.083  -0.276  -0.104
    1UNL    H23   46  -0.242  -0.335  -0.021
    1UNL    H24   47  -0.045  -0.198   0.236
    1UNL    H25   48  -0.306  -0.184   0.195
    1UNL    H26   49  -0.207  -0.054   0.243
    1UNL    H27   50  -0.435  -0.024   0.063
    1UNL    H28   51  -0.353   0.076   0.180
   0.00000   0.00000   0.00000   0.00000   0.00000   0.00000   0.00000   0.00000   0.00000
Generated with MDTraj, t= 7.0
 51
    1UNL     C1    1  -0.394   0.135  -0.196
    1UNL     C2    2  -0.355   0.198  -0.069
    1UNL     C3    3  -0.470   0.247   0.010
    1UNL     C4    4  -0.268   0.099   0.012
    1UNL     C5    5  -0.143   0.087  -0.029
    1UNL     C6    6  -0.051  -0.024   0.023
    1UNL     O1    7   0.043  -0.058  -0.075
    1UNL     C7    8   0.179  -0.034  -0.038
    1UNL     O2    9   0.234   0.089  -0.090
    1UNL     C8   10   0.377   0.113  -0.041
    1UNL     C9   11   0.364   0.245   0.033
    1UNL     O3   12   0.258   0.337  -0.008
    1UNL    C10   13   0.455  -0.010   0.017
    1UNL     O4   14   0.422  -0.035   0.152
    1UNL    C11   15   0.422  -0.134  -0.060
    1UNL     O5   16   0.483  -0.252  -0.006
    1UNL    C12   17   0.266  -0.162  -0.076
    1UNL     O6   18   0.227  -0.268   0.003
    1UNL    C13   19  -0.134  -0.158   0.054
    1UNL    C14   20  -0.201  -0.211  -0.078
    1UNL     O7   21  -0.029  -0.255   0.092
    1UNL    C15   22  -0.233  -0.108   0.162
    1UNL    C16   23  -0.335  -0.002   0.112
    1UNL     H1   24  -0.442   0.042  -0.165
    1UNL     H2   25  -0.464   0.198  -0.252
    1UNL     H3   26  -0.311   0.115  -0.260
    1UNL     H4   27  -0.289   0.283  -0.098
    1UNL     H5   28  -0.516   0.348  -0.021
    1UNL     H6   29  -0.437   0.277   0.109
    1UNL     H7   30  -0.548   0.175   0.017
    1UNL     H8   31  -0.109   0.138  -0.113
    1UNL     H9   32  -0.000   0.012   0.110
    1UNL    H10   33   0.184  -0.034   0.068
    1UNL    H11   34   0.412   0.148  -0.131
    1UNL    H12   35   0.347   0.213   0.141
    1UNL    H13   36   0.464   0.291   0.039
    1UNL    H14   37   0.175   0.279  -0.013
    1UNL    H15   38   0.559   0.019   0.022
    1UNL    H16   39   0.417  -0.134   0.173
    1UNL    H17   40   0.464  -0.126  -0.157
    1UNL    H18   41   0.415  -0.312   0.032
    1UNL    H19   42   0.242  -0.199  -0.178
    1UNL    H20   43   0.136  -0.256   0.033
    1UNL    H21   44  -0.268  -0.133  -0.124
    1UNL    H22   45  -0.131  -0.241  -0.161
    1UNL    H23   46  -0.270  -0.301  -0.062
    1UNL    H24   47  -0.068  -0.338   0.138
    1UNL    H25   48  -0.275  -0.187   0.219
    1UNL    H26   49  -0.175  -0.056   0.232
    1UNL    H27   50  -0.417  -0.055   0.061
    1UNL    H28   51  -0.380   0.043   0.198
   0.00000   0.00000   0.00000   0.00000   0.00000   0.00000   0.00000   0.00000   0.00000
Generated with MDTraj, t= 8.0
 51
    1UNL     C1    1  -0.395   0.144  -0.202
    1UNL     C2    2  -0.353   0.196  -0.057
    1UNL     C3    3  -0.475   0.250   0.024
    1UNL     C4    4  -0.270   0.097   0.022
    1UNL     C5    5  -0.141   0.088  -0.016
    1UNL     C6    6  -0.048  -0.024   0.027
    1UNL     O1    7   0.053  -0.057  -0.073
    1UNL     C7    8   0.186  -0.031  -0.039
    1UNL     O2    9   0.244   0.072  -0.122
    1UNL     C8   10   0.372   0.113  -0.055
    1UNL     C9   11   0.351   0.228   0.045
    1UNL     O3   12   0.273   0.335  -0.005
    1UNL    C10   13   0.452  -0.007   0.000
    1UNL     O4   14   0.418  -0.032   0.139
    1UNL    C11   15   0.427  -0.136  -0.074
    1UNL     O5   16   0.503  -0.240  -0.010
    1UNL    C12   17   0.273  -0.165  -0.060
    1UNL     O6   18   0.242  -0.240   0.050
    1UNL    C13   19  -0.146  -0.158   0.045
    1UNL    C14   20  -0.186  -0.207  -0.097
    1UNL     O7   21  -0.068  -0.269   0.093
    1UNL    C15   22  -0.268  -0.131   0.146
    1UNL    C16   23  -0.334   0.005   0.122
    1UNL     H1   24  -0.458   0.053  -0.197
    1UNL     H2   25  -0.446   0.224  -0.259
    1UNL     H3   26  -0.316   0.123  -0.262
    1UNL     H4   27  -0.277   0.278  -0.071
    1UNL     H5   28  -0.536   0.320  -0.045
    1UNL     H6   29  -0.461   0.308   0.114
    1UNL     H7   30  -0.541   0.170   0.044
    1UNL     H8   31  -0.103   0.149  -0.094
    1UNL     H9   32  -0.012   0.003   0.123
    1UNL    H10   33   0.189  -0.006   0.064
    1UNL    H11   34   0.421   0.149  -0.138
    1UNL    H12   35   0.324   0.191   0.150
    1UNL    H13   36   0.452   0.265   0.059
    1UNL    H14   37   0.188   0.298  -0.029
    1UNL    H15   38   0.559   0.002   0.003
    1UNL    H16   39   0.402  -0.132   0.150
    1UNL    H17   40   0.465  -0.137  -0.171
    1UNL    H18   41   0.449  -0.282   0.062
    1UNL    H19   42   0.230  -0.209  -0.155
    1UNL    H20   43   0.144  -0.259   0.062
    1UNL    H21   44  -0.260  -0.152  -0.153
    1UNL    H22   45  -0.102  -0.228  -0.168
    1UNL    H23   46  -0.233  -0.305  -0.085
    1UNL    H24   47  -0.042  -0.271   0.188
    1UNL    H25   48  -0.343  -0.206   0.142
    1UNL    H26   49  -0.233  -0.149   0.244
    1UNL    H27   50  -0.439  -0.014   0.091
    1UNL    H28   51  -0.354   0.062   0.211
   0.00000   0.00000   0.00000   0.00000   0.00000   0.00000   0.00000   0.00000   0.00000
Generated with MDTraj, t= 9.0
 51
    1UNL     C1    1  -0.389   0.179  -0.188
    1UNL     C2    2  -0.342   0.212  -0.055
    1UNL     C3    3  -0.452   0.253   0.057
    1UNL     C4    4  -0.273   0.086  -0.009
    1UNL     C5    5  -0.138   0.086  -0.027
    1UNL     C6    6  -0.053  -0.035   0.024
    1UNL     O1    7   0.048  -0.053  -0.077
    1UNL     C7    8   0.182  -0.032  -0.041
    1UNL     O2    9   0.246   0.074  -0.113
    1UNL     C8   10   0.372   0.113  -0.058
    1UNL     C9   11   0.337   0.231   0.035
    1UNL     O3   12   0.263   0.330  -0.021
    1UNL    C10   13   0.447  -0.008   0.010
    1UNL     O4   14   0.420  -0.029   0.154
    1UNL    C11   15   0.405  -0.133  -0.070
    1UNL     O5   16   0.494  -0.241  -0.047
    1UNL    C12   17   0.255  -0.167  -0.040
    1UNL     O6   18   0.246  -0.230   0.089
    1UNL    C13   19  -0.132  -0.168   0.036
    1UNL    C14   20  -0.180  -0.242  -0.090
    1UNL     O7   21  -0.050  -0.265   0.111
    1UNL    C15   22  -0.247  -0.121   0.135
    1UNL    C16   23  -0.348  -0.018   0.072
    1UNL     H1   24  -0.463   0.098  -0.191
    1UNL     H2   25  -0.419   0.266  -0.248
    1UNL     H3   26  -0.304   0.146  -0.239
    1UNL     H4   27  -0.270   0.300  -0.056
    1UNL     H5   28  -0.512   0.338   0.015
    1UNL     H6   29  -0.402   0.287   0.146
    1UNL     H7   30  -0.522   0.174   0.083
    1UNL     H8   31  -0.076   0.171  -0.073
    1UNL     H9   32  -0.024  -0.012   0.125
    1UNL    H10   33   0.179  -0.006   0.063
    1UNL    H11   34   0.435   0.155  -0.130
    1UNL    H12   35   0.279   0.195   0.125
    1UNL    H13   36   0.423   0.280   0.081
    1UNL    H14   37   0.189   0.283  -0.071
    1UNL    H15   38   0.549   0.023   0.013
    1UNL    H16   39   0.358  -0.102   0.150
    1UNL    H17   40   0.413  -0.103  -0.170
    1UNL    H18   41   0.444  -0.303   0.010
    1UNL    H19   42   0.221  -0.234  -0.126
    1UNL    H20   43   0.148  -0.246   0.101
    1UNL    H21   44  -0.248  -0.177  -0.146
    1UNL    H22   45  -0.096  -0.263  -0.154
    1UNL    H23   46  -0.227  -0.336  -0.076
    1UNL    H24   47  -0.102  -0.281   0.189
    1UNL    H25   48  -0.294  -0.212   0.154
    1UNL    H26   49  -0.209  -0.087   0.231
    1UNL    H27   50  -0.419  -0.075   0.010
    1UNL    H28   51  -0.411   0.028   0.146
   0.00000   0.00000   0.00000   0.00000   0.00000   0.00000   0.00000   0.00000   0.00000
Generated with MDTraj, t= 10.0
 51
    1UNL     C1    1  -0.412   0.214  -0.185
    1UNL     C2    2  -0.347   0.219  -0.044
    1UNL     C3    3  -0.437   0.254   0.082
    1UNL     C4    4  -0.282   0.092   0.004
    1UNL     C5    5  -0.148   0.081  -0.019
    1UNL     C6    6  -0.058  -0.035   0.015
    1UNL     O1    7   0.041  -0.051  -0.087
    1UNL     C7    8   0.175  -0.031  -0.040
    1UNL     O2    9   0.243   0.061  -0.126
    1UNL     C8   10   0.364   0.110  -0.072
    1UNL     C9   11   0.346   0.222   0.035
    1UNL     O3   12   0.251   0.314  -0.009
    1UNL    C10   13   0.459  -0.000  -0.008
    1UNL     O4   14   0.447  -0.013   0.134
    1UNL    C11   15   0.419  -0.140  -0.063
    1UNL     O5   16   0.495  -0.237   0.008
    1UNL    C12   17   0.262  -0.157  -0.045
    1UNL     O6   18   0.243  -0.246   0.062
    1UNL    C13   19  -0.132  -0.170   0.044
    1UNL    C14   20  -0.142  -0.261  -0.081
    1UNL     O7   21  -0.054  -0.239   0.142
    1UNL    C15   22  -0.275  -0.134   0.110
    1UNL    C16   23  -0.352  -0.031   0.026
    1UNL     H1   24  -0.487   0.139  -0.192
    1UNL     H2   25  -0.442   0.311  -0.223
    1UNL     H3   26  -0.332   0.188  -0.257
    1UNL     H4   27  -0.268   0.302  -0.050
    1UNL     H5   28  -0.456   0.362   0.084
    1UNL     H6   29  -0.391   0.228   0.177
    1UNL     H7   30  -0.537   0.204   0.085
    1UNL     H8   31  -0.099   0.155  -0.066
    1UNL     H9   32  -0.021   0.001   0.110
    1UNL    H10   33   0.174   0.011   0.059
    1UNL    H11   34   0.422   0.138  -0.156
    1UNL    H12   35   0.312   0.183   0.134
    1UNL    H13   36   0.433   0.277   0.061
    1UNL    H14   37   0.175   0.274  -0.053
    1UNL    H15   38   0.564   0.010  -0.031
    1UNL    H16   39   0.360  -0.066   0.142
    1UNL    H17   40   0.448  -0.163  -0.162
    1UNL    H18   41   0.434  -0.273   0.074
    1UNL    H19   42   0.229  -0.204  -0.143
    1UNL    H20   43   0.148  -0.243   0.081
    1UNL    H21   44  -0.183  -0.203  -0.160
    1UNL    H22   45  -0.043  -0.289  -0.098
    1UNL    H23   46  -0.194  -0.352  -0.063
    1UNL    H24   47  -0.112  -0.304   0.186
    1UNL    H25   48  -0.336  -0.216   0.123
    1UNL    H26   49  -0.257  -0.097   0.212
    1UNL    H27   50  -0.378  -0.068  -0.073
    1UNL    H28   51  -0.448  -0.012   0.074
   0.00000   0.00000   0.00000   0.00000   0.00000   0.00000   0.00000   0.00000   0.00000
Generated with MDTraj, t= 11.0
 51
    1UNL     C1    1  -0.433   0.218  -0.157
    1UNL     C2    2  -0.345   0.225  -0.035
    1UNL     C3    3  -0.425   0.250   0.093
    1UNL     C4    4  -0.270   0.092  -0.022
    1UNL     C5    5  -0.139   0.096   0.004
    1UNL     C6    6  -0.058  -0.027   0.018
    1UNL     O1    7   0.035  -0.042  -0.081
    1UNL     C7    8   0.176  -0.028  -0.045
    1UNL     O2    9   0.252   0.065  -0.139
    1UNL     C8   10   0.373   0.110  -0.079
    1UNL     C9   11   0.337   0.213   0.024
    1UNL     O3   12   0.232   0.302  -0.027
    1UNL    C10   13   0.460  -0.004  -0.003
    1UNL     O4   14   0.462   0.003   0.140
    1UNL    C11   15   0.414  -0.144  -0.047
    1UNL     O5   16   0.481  -0.247   0.012
    1UNL    C12   17   0.260  -0.164  -0.044
    1UNL     O6   18   0.227  -0.246   0.067
    1UNL    C13   19  -0.134  -0.168   0.043
    1UNL    C14   20  -0.114  -0.258  -0.080
    1UNL     O7   21  -0.065  -0.249   0.143
    1UNL    C15   22  -0.275  -0.139   0.091
    1UNL    C16   23  -0.343  -0.041  -0.005
    1UNL     H1   24  -0.487   0.128  -0.156
    1UNL     H2   25  -0.486   0.306  -0.179
    1UNL     H3   26  -0.361   0.211  -0.246
    1UNL     H4   27  -0.269   0.307  -0.058
    1UNL     H5   28  -0.481   0.341   0.094
    1UNL     H6   29  -0.370   0.243   0.187
    1UNL     H7   30  -0.504   0.170   0.109
    1UNL     H8   31  -0.095   0.200   0.019
    1UNL     H9   32  -0.002  -0.001   0.108
    1UNL    H10   33   0.187   0.000   0.058
    1UNL    H11   34   0.437   0.153  -0.154
    1UNL    H12   35   0.288   0.174   0.115
    1UNL    H13   36   0.419   0.267   0.062
    1UNL    H14   37   0.162   0.264  -0.087
    1UNL    H15   38   0.562   0.029  -0.035
    1UNL    H16   39   0.416  -0.071   0.183
    1UNL    H17   40   0.451  -0.153  -0.149
    1UNL    H18   41   0.434  -0.265   0.099
    1UNL    H19   42   0.230  -0.212  -0.140
    1UNL    H20   43   0.129  -0.258   0.084
    1UNL    H21   44  -0.147  -0.207  -0.163
    1UNL    H22   45  -0.017  -0.294  -0.084
    1UNL    H23   46  -0.175  -0.339  -0.053
    1UNL    H24   47  -0.074  -0.206   0.234
    1UNL    H25   48  -0.331  -0.226   0.100
    1UNL    H26   49  -0.268  -0.096   0.192
    1UNL    H27   50  -0.337  -0.088  -0.101
    1UNL    H28   51  -0.449  -0.018   0.016
   0.00000   0.00000   0.00000   0.00000   0.00000   0.00000   0.00000   0.00000   0.00000
Generated with MDTraj, t= 12.0
 51
    1UNL     C1    1  -0.441   0.213  -0.137
    1UNL     C2    2  -0.342   0.217  -0.026
    1UNL     C3    3  -0.409   0.256   0.109
    1UNL     C4    4  -0.268   0.089  -0.017
    1UNL     C5    5  -0.133   0.083  -0.001
    1UNL     C6    6  -0.049  -0.037   0.023
    1UNL     O1    7   0.044  -0.038  -0.089
    1UNL     C7    8   0.180  -0.024  -0.049
    1UNL     O2    9   0.251   0.060  -0.139
    1UNL     C8   10   0.369   0.104  -0.072
    1UNL     C9   11   0.351   0.228   0.010
    1UNL     O3   12   0.239   0.303  -0.038
    1UNL    C10   13   0.444  -0.011   0.009
    1UNL     O4   14   0.416  -0.002   0.149
    1UNL    C11   15   0.400  -0.149  -0.059
    1UNL     O5   16   0.479  -0.256  -0.010
    1UNL    C12   17   0.250  -0.161  -0.023
    1UNL     O6   18   0.234  -0.199   0.110
    1UNL    C13   19  -0.126  -0.173   0.031
    1UNL    C14   20  -0.105  -0.263  -0.087
    1UNL     O7   21  -0.055  -0.250   0.142
    1UNL    C15   22  -0.272  -0.138   0.065
    1UNL    C16   23  -0.344  -0.034  -0.023
    1UNL     H1   24  -0.517   0.142  -0.114
    1UNL     H2   25  -0.477   0.306  -0.171
    1UNL     H3   26  -0.392   0.174  -0.232
    1UNL     H4   27  -0.263   0.291  -0.060
    1UNL     H5   28  -0.482   0.332   0.099
    1UNL     H6   29  -0.332   0.284   0.184
    1UNL     H7   30  -0.459   0.164   0.154
    1UNL     H8   31  -0.092   0.183  -0.003
    1UNL     H9   32   0.005  -0.021   0.118
    1UNL    H10   33   0.176   0.023   0.049
    1UNL    H11   34   0.444   0.119  -0.153
    1UNL    H12   35   0.336   0.201   0.116
    1UNL    H13   36   0.437   0.287   0.005
    1UNL    H14   37   0.171   0.251  -0.085
    1UNL    H15   38   0.554   0.005  -0.009
    1UNL    H16   39   0.333  -0.040   0.175
    1UNL    H17   40   0.422  -0.166  -0.167
    1UNL    H18   41   0.438  -0.289   0.071
    1UNL    H19   42   0.192  -0.233  -0.081
    1UNL    H20   43   0.137  -0.214   0.130
    1UNL    H21   44  -0.137  -0.205  -0.166
    1UNL    H22   45  -0.002  -0.267  -0.093
    1UNL    H23   46  -0.137  -0.360  -0.084
    1UNL    H24   47  -0.078  -0.348   0.130
    1UNL    H25   48  -0.336  -0.223   0.070
    1UNL    H26   49  -0.269  -0.093   0.164
    1UNL    H27   50  -0.360  -0.054  -0.127
    1UNL    H28   51  -0.442  -0.005   0.025
   0.00000   0.00000   0.00000   0.00000   0.00000   0.00000   0.00000   0.00000   0.00000
Generated with MDTraj, t= 13.0
 51
    1UNL     C1    1  -0.459   0.209  -0.124
    1UNL     C2    2  -0.342   0.211  -0.024
    1UNL     C3    3  -0.383   0.261   0.119
    1UNL     C4    4  -0.278   0.081  -0.018
    1UNL     C5    5  -0.143   0.084  -0.001
    1UNL     C6    6  -0.068  -0.043   0.018
    1UNL     O1    7   0.040  -0.037  -0.088
    1UNL     C7    8   0.176  -0.025  -0.049
    1UNL     O2    9   0.257   0.061  -0.133
    1UNL     C8   10   0.389   0.104  -0.073
    1UNL     C9   11   0.357   0.236   0.008
    1UNL     O3   12   0.275   0.323  -0.064
    1UNL    C10   13   0.457  -0.013   0.011
    1UNL     O4   14   0.431   0.001   0.142
    1UNL    C11   15   0.412  -0.145  -0.050
    1UNL     O5   16   0.466  -0.252   0.025
    1UNL    C12   17   0.256  -0.156  -0.022
    1UNL     O6   18   0.231  -0.180   0.113
    1UNL    C13   19  -0.131  -0.179   0.023
    1UNL    C14   20  -0.125  -0.247  -0.112
    1UNL     O7   21  -0.075  -0.269   0.122
    1UNL    C15   22  -0.276  -0.162   0.073
    1UNL    C16   23  -0.355  -0.052  -0.010
    1UNL     H1   24  -0.536   0.144  -0.083
    1UNL     H2   25  -0.494   0.303  -0.162
    1UNL     H3   26  -0.428   0.162  -0.219
    1UNL     H4   27  -0.264   0.279  -0.067
    1UNL     H5   28  -0.377   0.368   0.120
    1UNL     H6   29  -0.319   0.209   0.195
    1UNL     H7   30  -0.486   0.224   0.135
    1UNL     H8   31  -0.097   0.178   0.001
    1UNL     H9   32  -0.014  -0.036   0.115
    1UNL    H10   33   0.163   0.030   0.045
    1UNL    H11   34   0.469   0.133  -0.150
    1UNL    H12   35   0.310   0.214   0.105
    1UNL    H13   36   0.446   0.287   0.021
    1UNL    H14   37   0.208   0.276  -0.121
    1UNL    H15   38   0.567   0.010  -0.003
    1UNL    H16   39   0.337  -0.028   0.174
    1UNL    H17   40   0.446  -0.170  -0.157
    1UNL    H18   41   0.414  -0.267   0.107
    1UNL    H19   42   0.207  -0.237  -0.073
    1UNL    H20   43   0.137  -0.208   0.114
    1UNL    H21   44  -0.169  -0.190  -0.185
    1UNL    H22   45  -0.030  -0.267  -0.145
    1UNL    H23   46  -0.166  -0.339  -0.106
    1UNL    H24   47  -0.083  -0.363   0.097
    1UNL    H25   48  -0.329  -0.259   0.060
    1UNL    H26   49  -0.281  -0.132   0.176
    1UNL    H27   50  -0.372  -0.084  -0.110
    1UNL    H28   51  -0.452  -0.020   0.036
   0.00000   0.00000   0.00000   0.00000   0.00000   0.00000   0.00000   0.00000   0.00000
Generated with MDTraj, t= 14.0
 51
    1UNL     C1    1  -0.475   0.192  -0.115
    1UNL     C2    2  -0.361   0.208  -0.016
    1UNL     C3    3  -0.387   0.271   0.124
    1UNL     C4    4  -0.282   0.084   0.006
    1UNL     C5    5  -0.146   0.081  -0.006
    1UNL     C6    6  -0.065  -0.047   0.010
    1UNL     O1    7   0.052  -0.046  -0.092
    1UNL     C7    8   0.176  -0.031  -0.042
    1UNL     O2    9   0.255   0.053  -0.129
    1UNL     C8   10   0.381   0.107  -0.079
    1UNL     C9   11   0.365   0.240  -0.003
    1UNL     O3   12   0.316   0.341  -0.088
    1UNL    C10   13   0.456  -0.004   0.011
    1UNL     O4   14   0.443   0.026   0.141
    1UNL    C11   15   0.411  -0.150  -0.028
    1UNL     O5   16   0.467  -0.245   0.065
    1UNL    C12   17   0.253  -0.166  -0.012
    1UNL     O6   18   0.223  -0.212   0.115
    1UNL    C13   19  -0.140  -0.182   0.008
    1UNL    C14   20  -0.154  -0.227  -0.138
    1UNL     O7   21  -0.067  -0.279   0.077
    1UNL    C15   22  -0.274  -0.163   0.078
    1UNL    C16   23  -0.349  -0.043   0.010
    1UNL     H1   24  -0.537   0.110  -0.073
    1UNL     H2   25  -0.531   0.285  -0.134
    1UNL     H3   26  -0.442   0.166  -0.211
    1UNL     H4   27  -0.294   0.281  -0.067
    1UNL     H5   28  -0.480   0.327   0.122
    1UNL     H6   29  -0.301   0.335   0.160
    1UNL     H7   30  -0.392   0.194   0.199
    1UNL     H8   31  -0.090   0.179  -0.033
    1UNL     H9   32  -0.011  -0.041   0.108
    1UNL    H10   33   0.162   0.024   0.052
    1UNL    H11   34   0.452   0.128  -0.169
    1UNL    H12   35   0.297   0.226   0.083
    1UNL    H13   36   0.457   0.281   0.025
    1UNL    H14   37   0.246   0.307  -0.146
    1UNL    H15   38   0.563   0.016  -0.018
    1UNL    H16   39   0.383  -0.036   0.185
    1UNL    H17   40   0.449  -0.192  -0.130
    1UNL    H18   41   0.405  -0.248   0.143
    1UNL    H19   42   0.211  -0.238  -0.076
    1UNL    H20   43   0.126  -0.236   0.126
    1UNL    H21   44  -0.204  -0.164  -0.202
    1UNL    H22   45  -0.064  -0.247  -0.183
    1UNL    H23   46  -0.197  -0.322  -0.144
    1UNL    H24   47  -0.107  -0.366   0.075
    1UNL    H25   48  -0.340  -0.255   0.064
    1UNL    H26   49  -0.260  -0.141   0.182
    1UNL    H27   50  -0.370  -0.063  -0.093
    1UNL    H28   51  -0.448  -0.031   0.062
   0.00000   0.00000   0.00000   0.00000   0.00000   0.00000   0.00000   0.00000   0.00000
Generated with MDTraj, t= 15.0
 51
    1UNL     C1    1  -0.471   0.190  -0.103
    1UNL     C2    2  -0.352   0.201  -0.009
    1UNL     C3    3  -0.371   0.277   0.126
    1UNL     C4    4  -0.286   0.068   0.003
    1UNL     C5    5  -0.148   0.066  -0.013
    1UNL     C6    6  -0.054  -0.050   0.004
    1UNL     O1    7   0.050  -0.041  -0.097
    1UNL     C7    8   0.184  -0.019  -0.043
    1UNL     O2    9   0.268   0.070  -0.127
    1UNL     C8   10   0.395   0.109  -0.079
    1UNL     C9   11   0.384   0.246  -0.026
    1UNL     O3   12   0.314   0.326  -0.125
    1UNL    C10   13   0.444  -0.002   0.038
    1UNL     O4   14   0.394   0.026   0.162
    1UNL    C11   15   0.412  -0.147  -0.012
    1UNL     O5   16   0.464  -0.244   0.073
    1UNL    C12   17   0.255  -0.158  -0.008
    1UNL     O6   18   0.216  -0.217   0.114
    1UNL    C13   19  -0.133  -0.180  -0.009
    1UNL    C14   20  -0.173  -0.212  -0.149
    1UNL     O7   21  -0.054  -0.292   0.040
    1UNL    C15   22  -0.262  -0.162   0.084
    1UNL    C16   23  -0.361  -0.048   0.054
    1UNL     H1   24  -0.543   0.118  -0.056
    1UNL     H2   25  -0.515   0.287  -0.135
    1UNL     H3   26  -0.442   0.147  -0.192
    1UNL     H4   27  -0.285   0.269  -0.062
    1UNL     H5   28  -0.361   0.389   0.122
    1UNL     H6   29  -0.318   0.234   0.214
    1UNL     H7   30  -0.473   0.270   0.158
    1UNL     H8   31  -0.097   0.153  -0.032
    1UNL     H9   32  -0.003  -0.053   0.104
    1UNL    H10   33   0.165   0.043   0.046
    1UNL    H11   34   0.474   0.100  -0.164
    1UNL    H12   35   0.315   0.248   0.064
    1UNL    H13   36   0.479   0.288  -0.006
    1UNL    H14   37   0.242   0.270  -0.164
    1UNL    H15   38   0.552   0.013   0.052
    1UNL    H16   39   0.302  -0.004   0.176
    1UNL    H17   40   0.457  -0.174  -0.116
    1UNL    H18   41   0.416  -0.234   0.157
    1UNL    H19   42   0.219  -0.218  -0.087
    1UNL    H20   43   0.124  -0.248   0.100
    1UNL    H21   44  -0.223  -0.132  -0.190
    1UNL    H22   45  -0.084  -0.224  -0.200
    1UNL    H23   46  -0.225  -0.302  -0.162
    1UNL    H24   47  -0.118  -0.366   0.049
    1UNL    H25   48  -0.316  -0.261   0.058
    1UNL    H26   49  -0.229  -0.169   0.185
    1UNL    H27   50  -0.440  -0.080  -0.013
    1UNL    H28   51  -0.418  -0.015   0.144
   0.00000   0.00000   0.00000   0.00000   0.00000   0.00000   0.00000   0.00000   0.00000
Generated with MDTraj, t= 16.0
 51
    1UNL     C1    1  -0.456   0.179  -0.083
    1UNL     C2    2  -0.329   0.206  -0.006
    1UNL     C3    3  -0.367   0.270   0.132
    1UNL     C4    4  -0.257   0.078   0.023
    1UNL     C5    5  -0.127   0.068  -0.011
    1UNL     C6    6  -0.048  -0.055  -0.013
    1UNL     O1    7   0.045  -0.052  -0.116
    1UNL     C7    8   0.182  -0.024  -0.060
    1UNL     O2    9   0.278   0.046  -0.146
    1UNL     C8   10   0.387   0.106  -0.079
    1UNL     C9   11   0.362   0.243  -0.020
    1UNL     O3   12   0.314   0.319  -0.130
    1UNL    C10   13   0.432   0.006   0.044
    1UNL     O4   14   0.346   0.032   0.157
    1UNL    C11   15   0.413  -0.142   0.004
    1UNL     O5   16   0.462  -0.231   0.099
    1UNL    C12   17   0.255  -0.152  -0.006
    1UNL     O6   18   0.204  -0.199   0.115
    1UNL    C13   19  -0.143  -0.186  -0.018
    1UNL    C14   20  -0.184  -0.195  -0.167
    1UNL     O7   21  -0.059  -0.298   0.028
    1UNL    C15   22  -0.256  -0.168   0.095
    1UNL    C16   23  -0.331  -0.040   0.063
    1UNL     H1   24  -0.527   0.131  -0.016
    1UNL     H2   25  -0.501   0.273  -0.122
    1UNL     H3   26  -0.451   0.119  -0.169
    1UNL     H4   27  -0.272   0.282  -0.058
    1UNL     H5   28  -0.478   0.294   0.143
    1UNL     H6   29  -0.306   0.354   0.171
    1UNL     H7   30  -0.352   0.197   0.209
    1UNL     H8   31  -0.072   0.162  -0.036
    1UNL     H9   32   0.012  -0.064   0.081
    1UNL    H10   33   0.170   0.039   0.031
    1UNL    H11   34   0.469   0.116  -0.161
    1UNL    H12   35   0.268   0.233   0.047
    1UNL    H13   36   0.447   0.293   0.026
    1UNL    H14   37   0.258   0.264  -0.189
    1UNL    H15   38   0.530   0.029   0.086
    1UNL    H16   39   0.337  -0.047   0.217
    1UNL    H17   40   0.477  -0.166  -0.090
    1UNL    H18   41   0.384  -0.275   0.142
    1UNL    H19   42   0.235  -0.222  -0.084
    1UNL    H20   43   0.112  -0.231   0.092
    1UNL    H21   44  -0.231  -0.105  -0.194
    1UNL    H22   45  -0.099  -0.212  -0.227
    1UNL    H23   46  -0.251  -0.274  -0.172
    1UNL    H24   47  -0.054  -0.368  -0.044
    1UNL    H25   48  -0.312  -0.269   0.095
    1UNL    H26   49  -0.203  -0.168   0.188
    1UNL    H27   50  -0.401  -0.061  -0.019
    1UNL    H28   51  -0.405  -0.012   0.141
   0.00000   0.00000   0.00000   0.00000   0.00000   0.00000   0.00000   0.00000   0.00000
Generated with MDTraj, t= 17.0
 51
    1UNL     C1    1  -0.447   0.222  -0.073
    1UNL     C2    2  -0.317   0.211   0.009
    1UNL     C3    3  -0.347   0.271   0.144
    1UNL     C4    4  -0.253   0.071   0.016
    1UNL     C5    5  -0.123   0.060  -0.020
    1UNL     C6    6  -0.045  -0.064  -0.023
    1UNL     O1    7   0.057  -0.075  -0.114
    1UNL     C7    8   0.183  -0.035  -0.052
    1UNL     O2    9   0.267   0.042  -0.137
    1UNL     C8   10   0.374   0.099  -0.075
    1UNL     C9   11   0.335   0.240  -0.034
    1UNL     O3   12   0.288   0.305  -0.148
    1UNL    C10   13   0.427   0.020   0.048
    1UNL     O4   14   0.365   0.056   0.177
    1UNL    C11   15   0.419  -0.132   0.021
    1UNL     O5   16   0.450  -0.197   0.138
    1UNL    C12   17   0.261  -0.164  -0.015
    1UNL     O6   18   0.207  -0.229   0.099
    1UNL    C13   19  -0.140  -0.188  -0.033
    1UNL    C14   20  -0.205  -0.194  -0.175
    1UNL     O7   21  -0.065  -0.304  -0.001
    1UNL    C15   22  -0.244  -0.167   0.083
    1UNL    C16   23  -0.327  -0.040   0.072
    1UNL     H1   24  -0.526   0.157  -0.041
    1UNL     H2   25  -0.489   0.324  -0.077
    1UNL     H3   26  -0.435   0.193  -0.177
    1UNL     H4   27  -0.250   0.283  -0.037
    1UNL     H5   28  -0.378   0.183   0.209
    1UNL     H6   29  -0.422   0.350   0.148
    1UNL     H7   30  -0.254   0.314   0.184
    1UNL     H8   31  -0.072   0.152  -0.049
    1UNL     H9   32   0.002  -0.081   0.076
    1UNL    H10   33   0.168   0.019   0.046
    1UNL    H11   34   0.451   0.106  -0.161
    1UNL    H12   35   0.242   0.227   0.035
    1UNL    H13   36   0.421   0.292   0.013
    1UNL    H14   37   0.238   0.239  -0.203
    1UNL    H15   38   0.530   0.047   0.072
    1UNL    H16   39   0.383  -0.016   0.237
    1UNL    H17   40   0.495  -0.163  -0.057
    1UNL    H18   41   0.417  -0.289   0.128
    1UNL    H19   42   0.249  -0.214  -0.112
    1UNL    H20   43   0.115  -0.258   0.088
    1UNL    H21   44  -0.286  -0.128  -0.195
    1UNL    H22   45  -0.126  -0.173  -0.243
    1UNL    H23   46  -0.234  -0.294  -0.185
    1UNL    H24   47  -0.026  -0.327  -0.092
    1UNL    H25   48  -0.313  -0.259   0.087
    1UNL    H26   49  -0.181  -0.176   0.172
    1UNL    H27   50  -0.418  -0.050   0.010
    1UNL    H28   51  -0.372  -0.018   0.172
   0.00000   0.00000   0.00000   0.00000   0.00000   0.00000   0.00000   0.00000   0.00000
Generated with MDTraj, t= 18.0
 51
    1UNL     C1    1  -0.426   0.227  -0.061
    1UNL     C2    2  -0.290   0.211   0.023
    1UNL     C3    3  -0.309   0.281   0.160
    1UNL     C4    4  -0.237   0.071   0.020
    1UNL     C5    5  -0.107   0.056  -0.005
    1UNL     C6    6  -0.046  -0.082  -0.015
    1UNL     O1    7   0.061  -0.105  -0.103
    1UNL     C7    8   0.188  -0.055  -0.059
    1UNL     O2    9   0.258   0.038  -0.143
    1UNL     C8   10   0.376   0.096  -0.084
    1UNL     C9   11   0.342   0.248  -0.051
    1UNL     O3   12   0.250   0.293  -0.145
    1UNL    C10   13   0.415   0.037   0.051
    1UNL     O4   14   0.342   0.091   0.168
    1UNL    C11   15   0.420  -0.113   0.043
    1UNL     O5   16   0.450  -0.178   0.160
    1UNL    C12   17   0.273  -0.166  -0.001
    1UNL     O6   18   0.208  -0.243   0.095
    1UNL    C13   19  -0.151  -0.191  -0.053
    1UNL    C14   20  -0.216  -0.178  -0.189
    1UNL     O7   21  -0.095  -0.316  -0.029
    1UNL    C15   22  -0.250  -0.181   0.057
    1UNL    C16   23  -0.319  -0.042   0.069
    1UNL     H1   24  -0.505   0.170  -0.022
    1UNL     H2   25  -0.460   0.329  -0.069
    1UNL     H3   26  -0.416   0.184  -0.165
    1UNL     H4   27  -0.216   0.271  -0.026
    1UNL     H5   28  -0.405   0.245   0.201
    1UNL     H6   29  -0.308   0.389   0.158
    1UNL     H7   30  -0.224   0.253   0.230
    1UNL     H8   31  -0.046   0.137  -0.019
    1UNL     H9   32  -0.004  -0.112   0.082
    1UNL    H10   33   0.161   0.011   0.030
    1UNL    H11   34   0.454   0.094  -0.165
    1UNL    H12   35   0.288   0.248   0.053
    1UNL    H13   36   0.433   0.313  -0.054
    1UNL    H14   37   0.207   0.211  -0.179
    1UNL    H15   38   0.520   0.070   0.071
    1UNL    H16   39   0.378   0.046   0.247
    1UNL    H17   40   0.499  -0.142  -0.029
    1UNL    H18   41   0.365  -0.210   0.198
    1UNL    H19   42   0.301  -0.237  -0.085
    1UNL    H20   43   0.117  -0.271   0.070
    1UNL    H21   44  -0.255  -0.079  -0.196
    1UNL    H22   45  -0.149  -0.187  -0.272
    1UNL    H23   46  -0.301  -0.246  -0.201
    1UNL    H24   47  -0.036  -0.339  -0.101
    1UNL    H25   48  -0.322  -0.264   0.027
    1UNL    H26   49  -0.198  -0.206   0.154
    1UNL    H27   50  -0.415  -0.046   0.015
    1UNL    H28   51  -0.346  -0.015   0.173
   0.00000   0.00000   0.00000   0.00000   0.00000   0.00000   0.00000   0.00000   0.00000
Generated with MDTraj, t= 19.0
 51
    1UNL     C1    1  -0.396   0.241  -0.050
    1UNL     C2    2  -0.270   0.214   0.034
    1UNL     C3    3  -0.261   0.272   0.172
    1UNL     C4    4  -0.218   0.074   0.040
    1UNL     C5    5  -0.093   0.045   0.012
    1UNL     C6    6  -0.045  -0.093  -0.009
    1UNL     O1    7   0.066  -0.108  -0.106
    1UNL     C7    8   0.186  -0.058  -0.058
    1UNL     O2    9   0.261   0.027  -0.145
    1UNL     C8   10   0.359   0.107  -0.074
    1UNL     C9   11   0.295   0.248  -0.060
    1UNL     O3   12   0.235   0.287  -0.180
    1UNL    C10   13   0.397   0.045   0.059
    1UNL     O4   14   0.313   0.097   0.161
    1UNL    C11   15   0.414  -0.111   0.054
    1UNL     O5   16   0.424  -0.161   0.185
    1UNL    C12   17   0.277  -0.172  -0.012
    1UNL     O6   18   0.206  -0.242   0.077
    1UNL    C13   19  -0.151  -0.194  -0.050
    1UNL    C14   20  -0.195  -0.171  -0.193
    1UNL     O7   21  -0.079  -0.321  -0.033
    1UNL    C15   22  -0.269  -0.190   0.043
    1UNL    C16   23  -0.316  -0.038   0.058
    1UNL     H1   24  -0.478   0.210   0.009
    1UNL     H2   25  -0.405   0.346  -0.062
    1UNL     H3   26  -0.404   0.183  -0.149
    1UNL     H4   27  -0.192   0.264  -0.023
    1UNL     H5   28  -0.333   0.240   0.245
    1UNL     H6   29  -0.254   0.381   0.172
    1UNL     H7   30  -0.156   0.242   0.210
    1UNL     H8   31  -0.023   0.131  -0.014
    1UNL     H9   32  -0.003  -0.129   0.085
    1UNL    H10   33   0.153   0.013   0.025
    1UNL    H11   34   0.441   0.107  -0.148
    1UNL    H12   35   0.207   0.236   0.017
    1UNL    H13   36   0.369   0.326  -0.032
    1UNL    H14   37   0.218   0.202  -0.225
    1UNL    H15   38   0.500   0.085   0.077
    1UNL    H16   39   0.319   0.033   0.238
    1UNL    H17   40   0.501  -0.147   0.002
    1UNL    H18   41   0.361  -0.236   0.196
    1UNL    H19   42   0.306  -0.246  -0.098
    1UNL    H20   43   0.118  -0.276   0.042
    1UNL    H21   44  -0.235  -0.072  -0.218
    1UNL    H22   45  -0.107  -0.179  -0.256
    1UNL    H23   46  -0.267  -0.245  -0.228
    1UNL    H24   47  -0.022  -0.343  -0.106
    1UNL    H25   48  -0.357  -0.252   0.011
    1UNL    H26   49  -0.224  -0.220   0.146
    1UNL    H27   50  -0.389  -0.015  -0.023
    1UNL    H28   51  -0.362  -0.019   0.157
   0.00000   0.00000   0.00000   0.00000   0.00000   0.00000   0.00000   0.00000   0.00000
Generated with MDTraj, t= 20.0
 51
    1UNL     C1    1  -0.387   0.253  -0.005
    1UNL     C2    2  -0.245   0.225   0.045
    1UNL     C3    3  -0.233   0.249   0.193
    1UNL     C4    4  -0.213   0.076   0.011
    1UNL     C5    5  -0.091   0.037  -0.020
    1UNL     C6    6  -0.039  -0.099  -0.033
    1UNL     O1    7   0.080  -0.129  -0.114
    1UNL     C7    8   0.192  -0.066  -0.060
    1UNL     O2    9   0.261   0.034  -0.150
    1UNL     C8   10   0.356   0.119  -0.076
    1UNL     C9   11   0.283   0.250  -0.070
    1UNL     O3   12   0.238   0.297  -0.196
    1UNL    C10   13   0.394   0.059   0.068
    1UNL     O4   14   0.288   0.089   0.156
    1UNL    C11   15   0.417  -0.099   0.075
    1UNL     O5   16   0.407  -0.144   0.206
    1UNL    C12   17   0.297  -0.176  -0.003
    1UNL     O6   18   0.215  -0.250   0.081
    1UNL    C13   19  -0.156  -0.200  -0.055
    1UNL    C14   20  -0.208  -0.196  -0.192
    1UNL     O7   21  -0.101  -0.331  -0.032
    1UNL    C15   22  -0.270  -0.167   0.048
    1UNL    C16   23  -0.330  -0.026   0.035
    1UNL     H1   24  -0.447   0.182   0.050
    1UNL     H2   25  -0.421   0.349   0.019
    1UNL     H3   26  -0.401   0.226  -0.115
    1UNL     H4   27  -0.175   0.288  -0.010
    1UNL     H5   28  -0.269   0.169   0.253
    1UNL     H6   29  -0.291   0.341   0.215
    1UNL     H7   30  -0.128   0.279   0.223
    1UNL     H8   31  -0.022   0.113  -0.040
    1UNL     H9   32  -0.009  -0.131   0.067
    1UNL    H10   33   0.158  -0.002   0.026
    1UNL    H11   34   0.438   0.129  -0.144
    1UNL    H12   35   0.187   0.247  -0.004
    1UNL    H13   36   0.353   0.326  -0.032
    1UNL    H14   37   0.221   0.217  -0.250
    1UNL    H15   38   0.485   0.117   0.096
    1UNL    H16   39   0.275   0.017   0.219
    1UNL    H17   40   0.513  -0.130   0.043
    1UNL    H18   41   0.376  -0.238   0.213
    1UNL    H19   42   0.332  -0.258  -0.080
    1UNL    H20   43   0.141  -0.287   0.027
    1UNL    H21   44  -0.245  -0.094  -0.218
    1UNL    H22   45  -0.120  -0.210  -0.258
    1UNL    H23   46  -0.285  -0.271  -0.212
    1UNL    H24   47  -0.041  -0.353  -0.106
    1UNL    H25   48  -0.355  -0.235   0.024
    1UNL    H26   49  -0.234  -0.172   0.160
    1UNL    H27   50  -0.409  -0.019  -0.044
    1UNL    H28   51  -0.368   0.002   0.135
   0.00000   0.00000   0.00000   0.00000   0.00000   0.00000   0.00000   0.00000   0.00000
Generated with MDTraj, t= 21.0
 51
    1UNL     C1    1  -0.373   0.277   0.021
    1UNL     C2    2  -0.231   0.215   0.042
    1UNL     C3    3  -0.188   0.242   0.187
    1UNL     C4    4  -0.215   0.066   0.008
    1UNL     C5    5  -0.097   0.029  -0.038
    1UNL     C6    6  -0.048  -0.108  -0.023
    1UNL     O1    7   0.067  -0.132  -0.109
    1UNL     C7    8   0.176  -0.061  -0.059
    1UNL     O2    9   0.240   0.046  -0.139
    1UNL     C8   10   0.349   0.128  -0.072
    1UNL     C9   11   0.307   0.276  -0.084
    1UNL     O3   12   0.243   0.295  -0.210
    1UNL    C10   13   0.385   0.059   0.074
    1UNL     O4   14   0.277   0.093   0.154
    1UNL    C11   15   0.407  -0.095   0.082
    1UNL     O5   16   0.415  -0.138   0.220
    1UNL    C12   17   0.285  -0.165   0.004
    1UNL     O6   18   0.217  -0.253   0.086
    1UNL    C13   19  -0.159  -0.211  -0.065
    1UNL    C14   20  -0.198  -0.211  -0.213
    1UNL     O7   21  -0.104  -0.339  -0.039
    1UNL    C15   22  -0.281  -0.182   0.037
    1UNL    C16   23  -0.324  -0.038   0.038
    1UNL     H1   24  -0.448   0.220   0.078
    1UNL     H2   25  -0.376   0.376   0.062
    1UNL     H3   26  -0.410   0.280  -0.082
    1UNL     H4   27  -0.160   0.263  -0.026
    1UNL     H5   28  -0.276   0.228   0.248
    1UNL     H6   29  -0.154   0.350   0.193
    1UNL     H7   30  -0.108   0.180   0.228
    1UNL     H8   31  -0.023   0.096  -0.074
    1UNL     H9   32  -0.033  -0.137   0.082
    1UNL    H10   33   0.137  -0.008   0.031
    1UNL    H11   34   0.433   0.110  -0.133
    1UNL    H12   35   0.227   0.297  -0.005
    1UNL    H13   36   0.385   0.352  -0.073
    1UNL    H14   37   0.192   0.213  -0.230
    1UNL    H15   38   0.476   0.108   0.110
    1UNL    H16   39   0.284   0.045   0.243
    1UNL    H17   40   0.502  -0.124   0.043
    1UNL    H18   41   0.357  -0.215   0.241
    1UNL    H19   42   0.323  -0.239  -0.078
    1UNL    H20   43   0.131  -0.268   0.043
    1UNL    H21   44  -0.250  -0.112  -0.218
    1UNL    H22   45  -0.106  -0.203  -0.277
    1UNL    H23   46  -0.270  -0.289  -0.246
    1UNL    H24   47  -0.026  -0.351  -0.102
    1UNL    H25   48  -0.368  -0.250   0.025
    1UNL    H26   49  -0.231  -0.200   0.143
    1UNL    H27   50  -0.401  -0.024  -0.043
    1UNL    H28   51  -0.373  -0.015   0.133
   0.00000   0.00000   0.00000   0.00000   0.00000   0.00000   0.00000   0.00000   0.00000
Generated with MDTraj, t= 22.0
 51
    1UNL     C1    1  -0.387   0.248   0.033
    1UNL     C2    2  -0.241   0.213   0.045
    1UNL     C3    3  -0.177   0.266   0.168
    1UNL     C4    4  -0.213   0.064   0.022
    1UNL     C5    5  -0.088   0.025  -0.004
    1UNL     C6    6  -0.046  -0.119  -0.022
    1UNL     O1    7   0.075  -0.137  -0.111
    1UNL     C7    8   0.179  -0.072  -0.049
    1UNL     O2    9   0.240   0.030  -0.133
    1UNL     C8   10   0.342   0.114  -0.083
    1UNL     C9   11   0.292   0.258  -0.083
    1UNL     O3   12   0.268   0.312  -0.214
    1UNL    C10   13   0.384   0.068   0.064
    1UNL     O4   14   0.284   0.112   0.157
    1UNL    C11   15   0.410  -0.083   0.081
    1UNL     O5   16   0.413  -0.120   0.222
    1UNL    C12   17   0.289  -0.168   0.010
    1UNL     O6   18   0.235  -0.275   0.083
    1UNL    C13   19  -0.168  -0.210  -0.067
    1UNL    C14   20  -0.188  -0.172  -0.218
    1UNL     O7   21  -0.135  -0.355  -0.050
    1UNL    C15   22  -0.295  -0.178   0.025
    1UNL    C16   23  -0.330  -0.032   0.035
    1UNL     H1   24  -0.455   0.221   0.118
    1UNL     H2   25  -0.388   0.356   0.029
    1UNL     H3   26  -0.435   0.211  -0.053
    1UNL     H4   27  -0.192   0.264  -0.041
    1UNL     H5   28  -0.177   0.182   0.240
    1UNL     H6   29  -0.224   0.358   0.213
    1UNL     H7   30  -0.075   0.289   0.150
    1UNL     H8   31   0.004   0.091  -0.006
    1UNL     H9   32  -0.029  -0.161   0.079
    1UNL    H10   33   0.139  -0.017   0.037
    1UNL    H11   34   0.426   0.114  -0.146
    1UNL    H12   35   0.205   0.273  -0.016
    1UNL    H13   36   0.369   0.321  -0.038
    1UNL    H14   37   0.210   0.259  -0.271
    1UNL    H15   38   0.475   0.121   0.087
    1UNL    H16   39   0.310   0.089   0.246
    1UNL    H17   40   0.505  -0.109   0.037
    1UNL    H18   41   0.348  -0.193   0.236
    1UNL    H19   42   0.337  -0.213  -0.084
    1UNL    H20   43   0.159  -0.311   0.030
    1UNL    H21   44  -0.206  -0.065  -0.244
    1UNL    H22   45  -0.097  -0.210  -0.272
    1UNL    H23   46  -0.282  -0.229  -0.251
    1UNL    H24   47  -0.038  -0.375  -0.042
    1UNL    H25   48  -0.373  -0.244  -0.019
    1UNL    H26   49  -0.265  -0.221   0.128
    1UNL    H27   50  -0.411  -0.011  -0.040
    1UNL    H28   51  -0.384  -0.012   0.128
   0.00000   0.00000   0.00000   0.00000   0.00000   0.00000   0.00000   0.00000   0.00000
Generated with MDTraj, t= 23.0
 51
    1UNL     C1    1  -0.401   0.241   0.037
    1UNL     C2    2  -0.248   0.209   0.032
    1UNL     C3    3  -0.164   0.278   0.144
    1UNL     C4    4  -0.221   0.059   0.029
    1UNL     C5    5  -0.095   0.024   0.009
    1UNL     C6    6  -0.050  -0.120  -0.004
    1UNL     O1    7   0.070  -0.141  -0.081
    1UNL     C7    8   0.176  -0.076  -0.024
    1UNL     O2    9   0.212   0.031  -0.106
    1UNL     C8   10   0.331   0.100  -0.078
    1UNL     C9   11   0.303   0.253  -0.093
    1UNL     O3   12   0.267   0.285  -0.222
    1UNL    C10   13   0.381   0.070   0.066
    1UNL     O4   14   0.287   0.122   0.165
    1UNL    C11   15   0.412  -0.077   0.080
    1UNL     O5   16   0.414  -0.114   0.218
    1UNL    C12   17   0.303  -0.165   0.000
    1UNL     O6   18   0.270  -0.287   0.060
    1UNL    C13   19  -0.165  -0.205  -0.074
    1UNL    C14   20  -0.187  -0.139  -0.217
    1UNL     O7   21  -0.130  -0.340  -0.069
    1UNL    C15   22  -0.292  -0.184   0.015
    1UNL    C16   23  -0.336  -0.039   0.037
    1UNL     H1   24  -0.447   0.224   0.137
    1UNL     H2   25  -0.401   0.352   0.030
    1UNL     H3   26  -0.468   0.196  -0.027
    1UNL     H4   27  -0.209   0.248  -0.065
    1UNL     H5   28  -0.221   0.279   0.241
    1UNL     H6   29  -0.140   0.383   0.119
    1UNL     H7   30  -0.072   0.229   0.161
    1UNL     H8   31  -0.017   0.082  -0.021
    1UNL     H9   32  -0.042  -0.164   0.098
    1UNL    H10   33   0.149  -0.028   0.071
    1UNL    H11   34   0.407   0.073  -0.146
    1UNL    H12   35   0.226   0.275  -0.022
    1UNL    H13   36   0.386   0.312  -0.054
    1UNL    H14   37   0.196   0.229  -0.266
    1UNL    H15   38   0.473   0.119   0.090
    1UNL    H16   39   0.305   0.076   0.254
    1UNL    H17   40   0.512  -0.097   0.036
    1UNL    H18   41   0.350  -0.189   0.224
    1UNL    H19   42   0.354  -0.186  -0.097
    1UNL    H20   43   0.194  -0.326   0.016
    1UNL    H21   44  -0.229  -0.033  -0.204
    1UNL    H22   45  -0.091  -0.130  -0.275
    1UNL    H23   46  -0.270  -0.189  -0.276
    1UNL    H24   47  -0.055  -0.362  -0.125
    1UNL    H25   48  -0.360  -0.240  -0.057
    1UNL    H26   49  -0.282  -0.245   0.110
    1UNL    H27   50  -0.413  -0.013  -0.041
    1UNL    H28   51  -0.391  -0.028   0.129
   0.00000   0.00000   0.00000   0.00000   0.00000   0.00000   0.00000   0.00000   0.00000
Generated with MDTraj, t= 24.0
 51
    1UNL     C1    1  -0.387   0.246   0.029
    1UNL     C2    2  -0.235   0.208   0.023
    1UNL     C3    3  -0.157   0.276   0.133
    1UNL     C4    4  -0.214   0.060   0.021
    1UNL     C5    5  -0.092   0.026  -0.005
    1UNL     C6    6  -0.057  -0.122  -0.004
    1UNL     O1    7   0.068  -0.149  -0.065
    1UNL     C7    8   0.166  -0.070   0.006
    1UNL     O2    9   0.182   0.064  -0.049
    1UNL     C8   10   0.316   0.110  -0.065
    1UNL     C9   11   0.326   0.252  -0.116
    1UNL     O3   12   0.241   0.265  -0.220
    1UNL    C10   13   0.392   0.078   0.066
    1UNL     O4   14   0.308   0.122   0.181
    1UNL    C11   15   0.412  -0.075   0.078
    1UNL     O5   16   0.413  -0.119   0.213
    1UNL    C12   17   0.304  -0.151  -0.006
    1UNL     O6   18   0.285  -0.281   0.036
    1UNL    C13   19  -0.169  -0.204  -0.080
    1UNL    C14   20  -0.179  -0.157  -0.227
    1UNL     O7   21  -0.145  -0.346  -0.076
    1UNL    C15   22  -0.306  -0.187  -0.007
    1UNL    C16   23  -0.319  -0.046   0.051
    1UNL     H1   24  -0.429   0.202   0.119
    1UNL     H2   25  -0.407   0.355   0.036
    1UNL     H3   26  -0.445   0.197  -0.044
    1UNL     H4   27  -0.194   0.247  -0.075
    1UNL     H5   28  -0.152   0.220   0.231
    1UNL     H6   29  -0.200   0.375   0.147
    1UNL     H7   30  -0.057   0.285   0.094
    1UNL     H8   31  -0.008   0.090  -0.040
    1UNL     H9   32  -0.062  -0.163   0.099
    1UNL    H10   33   0.142  -0.052   0.110
    1UNL    H11   34   0.353   0.048  -0.145
    1UNL    H12   35   0.300   0.312  -0.034
    1UNL    H13   36   0.426   0.285  -0.138
    1UNL    H14   37   0.153   0.225  -0.207
    1UNL    H15   38   0.487   0.128   0.077
    1UNL    H16   39   0.327   0.064   0.255
    1UNL    H17   40   0.515  -0.094   0.035
    1UNL    H18   41   0.348  -0.194   0.219
    1UNL    H19   42   0.331  -0.150  -0.112
    1UNL    H20   43   0.198  -0.315  -0.002
    1UNL    H21   44  -0.209  -0.046  -0.240
    1UNL    H22   45  -0.078  -0.170  -0.281
    1UNL    H23   46  -0.260  -0.209  -0.286
    1UNL    H24   47  -0.218  -0.400  -0.044
    1UNL    H25   48  -0.390  -0.201  -0.085
    1UNL    H26   49  -0.298  -0.270   0.067
    1UNL    H27   50  -0.409   0.000   0.000
    1UNL    H28   51  -0.346  -0.053   0.155
   0.00000   0.00000   0.00000   0.00000   0.00000   0.00000   0.00000   0.00000   0.00000
Generated with MDTraj, t= 25.0
 51
    1UNL     C1    1  -0.385   0.264   0.024
    1UNL     C2    2  -0.232   0.219   0.020
    1UNL     C3    3  -0.166   0.287   0.140
    1UNL     C4    4  -0.217   0.064   0.011
    1UNL     C5    5  -0.100   0.016  -0.017
    1UNL     C6    6  -0.063  -0.130  -0.010
    1UNL     O1    7   0.067  -0.173  -0.042
    1UNL     C7    8   0.173  -0.073   0.002
    1UNL     O2    9   0.180   0.053  -0.064
    1UNL     C8   10   0.308   0.118  -0.064
    1UNL     C9   11   0.287   0.265  -0.073
    1UNL     O3   12   0.221   0.289  -0.191
    1UNL    C10   13   0.408   0.070   0.046
    1UNL     O4   14   0.375   0.134   0.173
    1UNL    C11   15   0.415  -0.084   0.070
    1UNL     O5   16   0.395  -0.118   0.202
    1UNL    C12   17   0.311  -0.161  -0.012
    1UNL     O6   18   0.295  -0.289   0.046
    1UNL    C13   19  -0.176  -0.212  -0.085
    1UNL    C14   20  -0.171  -0.184  -0.235
    1UNL     O7   21  -0.136  -0.355  -0.060
    1UNL    C15   22  -0.315  -0.175  -0.013
    1UNL    C16   23  -0.336  -0.028   0.033
    1UNL     H1   24  -0.439   0.209   0.097
    1UNL     H2   25  -0.402   0.370   0.049
    1UNL     H3   26  -0.444   0.235  -0.064
    1UNL     H4   27  -0.181   0.258  -0.074
    1UNL     H5   28  -0.207   0.268   0.241
    1UNL     H6   29  -0.165   0.393   0.124
    1UNL     H7   30  -0.060   0.252   0.138
    1UNL     H8   31  -0.014   0.087  -0.032
    1UNL     H9   32  -0.072  -0.157   0.097
    1UNL    H10   33   0.157  -0.049   0.105
    1UNL    H11   34   0.351   0.088  -0.162
    1UNL    H12   35   0.228   0.301   0.004
    1UNL    H13   36   0.377   0.321  -0.058
    1UNL    H14   37   0.159   0.213  -0.211
    1UNL    H15   38   0.505   0.110   0.015
    1UNL    H16   39   0.327   0.064   0.230
    1UNL    H17   40   0.518  -0.125   0.039
    1UNL    H18   41   0.332  -0.195   0.208
    1UNL    H19   42   0.335  -0.185  -0.114
    1UNL    H20   43   0.219  -0.336   0.006
    1UNL    H21   44  -0.202  -0.078  -0.271
    1UNL    H22   45  -0.069  -0.217  -0.281
    1UNL    H23   46  -0.251  -0.248  -0.286
    1UNL    H24   47  -0.089  -0.362   0.027
    1UNL    H25   48  -0.390  -0.197  -0.098
    1UNL    H26   49  -0.330  -0.232   0.081
    1UNL    H27   50  -0.431   0.011  -0.013
    1UNL    H28   51  -0.346  -0.016   0.141
   0.00000   0.00000   0.00000   0.00000   0.00000   0.00000   0.00000   0.00000   0.00000
Generated with MDTraj, t= 26.0
 51
    1UNL     C1    1  -0.369   0.272  -0.015
    1UNL     C2    2  -0.225   0.214   0.000
    1UNL     C3    3  -0.172   0.271   0.134
    1UNL     C4    4  -0.217   0.064   0.002
    1UNL     C5    5  -0.098   0.015   0.011
    1UNL     C6    6  -0.061  -0.131   0.015
    1UNL     O1    7   0.060  -0.164  -0.052
    1UNL     C7    8   0.169  -0.080  -0.012
    1UNL     O2    9   0.183   0.051  -0.054
    1UNL     C8   10   0.313   0.112  -0.072
    1UNL     C9   11   0.298   0.268  -0.066
    1UNL     O3   12   0.177   0.307  -0.133
    1UNL    C10   13   0.419   0.064   0.034
    1UNL     O4   14   0.379   0.129   0.156
    1UNL    C11   15   0.419  -0.090   0.061
    1UNL     O5   16   0.396  -0.116   0.197
    1UNL    C12   17   0.306  -0.160  -0.023
    1UNL     O6   18   0.290  -0.287   0.031
    1UNL    C13   19  -0.172  -0.217  -0.057
    1UNL    C14   20  -0.155  -0.185  -0.207
    1UNL     O7   21  -0.149  -0.350  -0.042
    1UNL    C15   22  -0.310  -0.177  -0.001
    1UNL    C16   23  -0.345  -0.022  -0.011
    1UNL     H1   24  -0.444   0.231   0.046
    1UNL     H2   25  -0.363   0.378   0.000
    1UNL     H3   26  -0.411   0.256  -0.120
    1UNL     H4   27  -0.160   0.255  -0.083
    1UNL     H5   28  -0.221   0.229   0.221
    1UNL     H6   29  -0.173   0.376   0.147
    1UNL     H7   30  -0.066   0.232   0.145
    1UNL     H8   31  -0.019   0.079   0.014
    1UNL     H9   32  -0.043  -0.159   0.120
    1UNL    H10   33   0.149  -0.055   0.092
    1UNL    H11   34   0.338   0.085  -0.178
    1UNL    H12   35   0.291   0.297   0.033
    1UNL    H13   36   0.378   0.329  -0.100
    1UNL    H14   37   0.120   0.227  -0.123
    1UNL    H15   38   0.519   0.101  -0.002
    1UNL    H16   39   0.431   0.089   0.225
    1UNL    H17   40   0.522  -0.134   0.041
    1UNL    H18   41   0.335  -0.189   0.209
    1UNL    H19   42   0.328  -0.177  -0.125
    1UNL    H20   43   0.210  -0.332  -0.005
    1UNL    H21   44  -0.175  -0.073  -0.229
    1UNL    H22   45  -0.050  -0.219  -0.239
    1UNL    H23   46  -0.230  -0.242  -0.277
    1UNL    H24   47  -0.087  -0.363   0.037
    1UNL    H25   48  -0.401  -0.227  -0.052
    1UNL    H26   49  -0.304  -0.199   0.105
    1UNL    H27   50  -0.372   0.009  -0.115
    1UNL    H28   51  -0.422   0.004   0.061
   0.00000   0.00000   0.00000   0.00000   0.00000   0.00000   0.00000   0.00000   0.00000
Generated with MDTraj, t= 27.0
 51
    1UNL     C1    1  -0.358   0.268  -0.066
    1UNL     C2    2  -0.222   0.226  -0.003
    1UNL     C3    3  -0.200   0.284   0.137
    1UNL     C4    4  -0.206   0.075   0.000
    1UNL     C5    5  -0.092   0.016   0.013
    1UNL     C6    6  -0.058  -0.130   0.009
    1UNL     O1    7   0.070  -0.148  -0.059
    1UNL     C7    8   0.174  -0.091   0.010
    1UNL     O2    9   0.175   0.050  -0.004
    1UNL     C8   10   0.292   0.109  -0.057
    1UNL     C9   11   0.280   0.265  -0.059
    1UNL     O3   12   0.162   0.310  -0.124
    1UNL    C10   13   0.407   0.069   0.039
    1UNL     O4   14   0.381   0.121   0.166
    1UNL    C11   15   0.432  -0.087   0.046
    1UNL     O5   16   0.445  -0.137   0.177
    1UNL    C12   17   0.310  -0.157  -0.033
    1UNL     O6   18   0.300  -0.297  -0.007
    1UNL    C13   19  -0.179  -0.211  -0.050
    1UNL    C14   20  -0.161  -0.211  -0.202
    1UNL     O7   21  -0.168  -0.353  -0.003
    1UNL    C15   22  -0.311  -0.163  -0.000
    1UNL    C16   23  -0.334  -0.010  -0.020
    1UNL     H1   24  -0.451   0.236  -0.025
    1UNL     H2   25  -0.352   0.373  -0.082
    1UNL     H3   26  -0.354   0.224  -0.170
    1UNL     H4   27  -0.143   0.271  -0.069
    1UNL     H5   28  -0.282   0.252   0.198
    1UNL     H6   29  -0.195   0.391   0.150
    1UNL     H7   30  -0.113   0.231   0.185
    1UNL     H8   31  -0.006   0.079   0.018
    1UNL     H9   32  -0.037  -0.169   0.109
    1UNL    H10   33   0.162  -0.092   0.119
    1UNL    H11   34   0.295   0.073  -0.165
    1UNL    H12   35   0.279   0.305   0.036
    1UNL    H13   36   0.367   0.305  -0.107
    1UNL    H14   37   0.090   0.253  -0.087
    1UNL    H15   38   0.503   0.117   0.001
    1UNL    H16   39   0.293   0.084   0.193
    1UNL    H17   40   0.535  -0.106   0.004
    1UNL    H18   41   0.396  -0.226   0.179
    1UNL    H19   42   0.332  -0.144  -0.134
    1UNL    H20   43   0.214  -0.333  -0.035
    1UNL    H21   44  -0.171  -0.105  -0.249
    1UNL    H22   45  -0.055  -0.252  -0.220
    1UNL    H23   46  -0.235  -0.281  -0.258
    1UNL    H24   47  -0.090  -0.390  -0.056
    1UNL    H25   48  -0.388  -0.224  -0.063
    1UNL    H26   49  -0.316  -0.182   0.105
    1UNL    H27   50  -0.381   0.014  -0.118
    1UNL    H28   51  -0.390   0.029   0.065
   0.00000   0.00000   0.00000   0.00000   0.00000   0.00000   0.00000   0.00000   0.00000
Generated with MDTraj, t= 28.0
 51
    1UNL     C1    1  -0.341   0.289  -0.112
    1UNL     C2    2  -0.234   0.233  -0.017
    1UNL     C3    3  -0.257   0.281   0.138
    1UNL     C4    4  -0.217   0.085  -0.022
    1UNL     C5    5  -0.097   0.034  -0.008
    1UNL     C6    6  -0.062  -0.113   0.012
    1UNL     O1    7   0.072  -0.162  -0.031
    1UNL     C7    8   0.181  -0.105   0.034
    1UNL     O2    9   0.167   0.048   0.032
    1UNL     C8   10   0.276   0.114  -0.026
    1UNL     C9   11   0.237   0.261  -0.025
    1UNL     O3   12   0.157   0.298  -0.136
    1UNL    C10   13   0.409   0.066   0.045
    1UNL     O4   14   0.428   0.103   0.178
    1UNL    C11   15   0.432  -0.091   0.027
    1UNL     O5   16   0.480  -0.154   0.142
    1UNL    C12   17   0.309  -0.154  -0.041
    1UNL     O6   18   0.311  -0.298  -0.040
    1UNL    C13   19  -0.166  -0.208  -0.039
    1UNL    C14   20  -0.173  -0.212  -0.189
    1UNL     O7   21  -0.146  -0.343   0.003
    1UNL    C15   22  -0.304  -0.154   0.009
    1UNL    C16   23  -0.337  -0.007  -0.030
    1UNL     H1   24  -0.444   0.274  -0.076
    1UNL     H2   25  -0.324   0.393  -0.127
    1UNL     H3   26  -0.341   0.241  -0.211
    1UNL     H4   27  -0.142   0.287  -0.050
    1UNL     H5   28  -0.320   0.224   0.202
    1UNL     H6   29  -0.305   0.380   0.127
    1UNL     H7   30  -0.162   0.291   0.194
    1UNL     H8   31  -0.002   0.096  -0.002
    1UNL     H9   32  -0.065  -0.130   0.120
    1UNL    H10   33   0.171  -0.130   0.141
    1UNL    H11   34   0.273   0.083  -0.135
    1UNL    H12   35   0.186   0.275   0.064
    1UNL    H13   36   0.329   0.321  -0.029
    1UNL    H14   37   0.084   0.231  -0.144
    1UNL    H15   38   0.499   0.113  -0.008
    1UNL    H16   39   0.418   0.023   0.236
    1UNL    H17   40   0.512  -0.115  -0.044
    1UNL    H18   41   0.484  -0.248   0.123
    1UNL    H19   42   0.301  -0.128  -0.141
    1UNL    H20   43   0.220  -0.324  -0.057
    1UNL    H21   44  -0.181  -0.101  -0.222
    1UNL    H22   45  -0.073  -0.254  -0.231
    1UNL    H23   46  -0.261  -0.274  -0.230
    1UNL    H24   47  -0.127  -0.357   0.101
    1UNL    H25   48  -0.391  -0.223  -0.025
    1UNL    H26   49  -0.288  -0.163   0.115
    1UNL    H27   50  -0.369  -0.006  -0.136
    1UNL    H28   51  -0.417   0.037   0.030
   0.00000   0.00000   0.00000   0.00000   0.00000   0.00000   0.00000   0.00000   0.00000
Generated with MDTraj, t= 29.0
 51
    1UNL     C1    1  -0.321   0.272  -0.150
    1UNL     C2    2  -0.243   0.228  -0.030
    1UNL     C3    3  -0.301   0.279   0.101
    1UNL     C4    4  -0.220   0.080  -0.010
    1UNL     C5    5  -0.102   0.036   0.026
    1UNL     C6    6  -0.069  -0.107   0.025
    1UNL     O1    7   0.059  -0.131  -0.049
    1UNL     C7    8   0.178  -0.101   0.020
    1UNL     O2    9   0.188   0.046   0.057
    1UNL     C8   10   0.287   0.117  -0.021
    1UNL     C9   11   0.263   0.268  -0.015
    1UNL     O3   12   0.143   0.311  -0.073
    1UNL    C10   13   0.429   0.064   0.022
    1UNL     O4   14   0.444   0.086   0.162
    1UNL    C11   15   0.441  -0.096  -0.001
    1UNL     O5   16   0.468  -0.159   0.122
    1UNL    C12   17   0.308  -0.155  -0.050
    1UNL     O6   18   0.330  -0.298  -0.032
    1UNL    C13   19  -0.177  -0.205  -0.030
    1UNL    C14   20  -0.169  -0.214  -0.182
    1UNL     O7   21  -0.154  -0.334   0.022
    1UNL    C15   22  -0.318  -0.154   0.012
    1UNL    C16   23  -0.336  -0.018  -0.030
    1UNL     H1   24  -0.423   0.224  -0.149
    1UNL     H2   25  -0.330   0.378  -0.170
    1UNL     H3   26  -0.281   0.227  -0.237
    1UNL     H4   27  -0.147   0.280  -0.042
    1UNL     H5   28  -0.408   0.274   0.113
    1UNL     H6   29  -0.270   0.387   0.109
    1UNL     H7   30  -0.264   0.220   0.184
    1UNL     H8   31  -0.017   0.094   0.057
    1UNL     H9   32  -0.059  -0.129   0.132
    1UNL    H10   33   0.166  -0.162   0.113
    1UNL    H11   34   0.259   0.088  -0.126
    1UNL    H12   35   0.252   0.300   0.084
    1UNL    H13   36   0.345   0.324  -0.069
    1UNL    H14   37   0.067   0.256  -0.039
    1UNL    H15   38   0.506   0.135  -0.020
    1UNL    H16   39   0.441   0.004   0.213
    1UNL    H17   40   0.521  -0.127  -0.064
    1UNL    H18   41   0.458  -0.258   0.115
    1UNL    H19   42   0.304  -0.140  -0.154
    1UNL    H20   43   0.243  -0.340  -0.059
    1UNL    H21   44  -0.176  -0.107  -0.222
    1UNL    H22   45  -0.070  -0.265  -0.217
    1UNL    H23   46  -0.257  -0.276  -0.220
    1UNL    H24   47  -0.154  -0.329   0.119
    1UNL    H25   48  -0.382  -0.233  -0.039
    1UNL    H26   49  -0.331  -0.154   0.120
    1UNL    H27   50  -0.365  -0.011  -0.135
    1UNL    H28   51  -0.423   0.013   0.032
   0.00000   0.00000   0.00000   0.00000   0.00000   0.00000   0.00000   0.00000   0.00000
Generated with MDTraj, t= 30.0
 51
    1UNL     C1    1  -0.282   0.256  -0.164
    1UNL     C2    2  -0.243   0.228  -0.023
    1UNL     C3    3  -0.352   0.275   0.072
    1UNL     C4    4  -0.217   0.076  -0.004
    1UNL     C5    5  -0.099   0.026   0.026
    1UNL     C6    6  -0.063  -0.114   0.030
    1UNL     O1    7   0.061  -0.129  -0.039
    1UNL     C7    8   0.174  -0.084   0.024
    1UNL     O2    9   0.188   0.063   0.037
    1UNL     C8   10   0.291   0.126  -0.039
    1UNL     C9   11   0.296   0.271  -0.001
    1UNL     O3   12   0.165   0.325   0.012
    1UNL    C10   13   0.426   0.057   0.001
    1UNL     O4   14   0.461   0.088   0.132
    1UNL    C11   15   0.429  -0.100  -0.013
    1UNL     O5   16   0.448  -0.156   0.115
    1UNL    C12   17   0.284  -0.147  -0.054
    1UNL     O6   18   0.279  -0.292  -0.032
    1UNL    C13   19  -0.170  -0.216  -0.027
    1UNL    C14   20  -0.157  -0.237  -0.178
    1UNL     O7   21  -0.143  -0.340   0.037
    1UNL    C15   22  -0.309  -0.155   0.007
    1UNL    C16   23  -0.338  -0.012  -0.033
    1UNL     H1   24  -0.371   0.193  -0.190
    1UNL     H2   25  -0.309   0.362  -0.177
    1UNL     H3   26  -0.210   0.231  -0.235
    1UNL     H4   27  -0.154   0.290  -0.009
    1UNL     H5   28  -0.444   0.213   0.076
    1UNL     H6   29  -0.389   0.372   0.027
    1UNL     H7   30  -0.327   0.289   0.174
    1UNL     H8   31  -0.017   0.083   0.037
    1UNL     H9   32  -0.060  -0.136   0.138
    1UNL    H10   33   0.161  -0.136   0.123
    1UNL    H11   34   0.277   0.105  -0.147
    1UNL    H12   35   0.338   0.280   0.100
    1UNL    H13   36   0.348   0.337  -0.077
    1UNL    H14   37   0.113   0.266   0.072
    1UNL    H15   38   0.505   0.099  -0.064
    1UNL    H16   39   0.474  -0.001   0.178
    1UNL    H17   40   0.507  -0.142  -0.072
    1UNL    H18   41   0.449  -0.253   0.116
    1UNL    H19   42   0.267  -0.125  -0.156
    1UNL    H20   43   0.183  -0.312  -0.032
    1UNL    H21   44  -0.169  -0.138  -0.231
    1UNL    H22   45  -0.055  -0.281  -0.206
    1UNL    H23   46  -0.236  -0.311  -0.220
    1UNL    H24   47  -0.147  -0.339   0.132
    1UNL    H25   48  -0.387  -0.225  -0.029
    1UNL    H26   49  -0.304  -0.163   0.117
    1UNL    H27   50  -0.354  -0.016  -0.139
    1UNL    H28   51  -0.431   0.030   0.013
   0.00000   0.00000   0.00000   0.00000   0.00000   0.00000   0.00000   0.00000   0.00000
Generated with MDTraj, t= 31.0
 51
    1UNL     C1    1  -0.263   0.262  -0.178
    1UNL     C2    2  -0.268   0.226  -0.026
    1UNL     C3    3  -0.402   0.277   0.041
    1UNL     C4    4  -0.240   0.076  -0.011
    1UNL     C5    5  -0.118   0.030   0.020
    1UNL     C6    6  -0.064  -0.104   0.033
    1UNL     O1    7   0.059  -0.129  -0.038
    1UNL     C7    8   0.176  -0.085   0.028
    1UNL     O2    9   0.197   0.063   0.048
    1UNL     C8   10   0.301   0.122  -0.035
    1UNL     C9   11   0.321   0.265   0.015
    1UNL     O3   12   0.191   0.315   0.045
    1UNL    C10   13   0.435   0.050  -0.010
    1UNL     O4   14   0.492   0.097   0.111
    1UNL    C11   15   0.430  -0.105  -0.004
    1UNL     O5   16   0.447  -0.145   0.124
    1UNL    C12   17   0.287  -0.142  -0.061
    1UNL     O6   18   0.279  -0.284  -0.074
    1UNL    C13   19  -0.174  -0.210  -0.013
    1UNL    C14   20  -0.168  -0.243  -0.165
    1UNL     O7   21  -0.146  -0.341   0.049
    1UNL    C15   22  -0.317  -0.169   0.032
    1UNL    C16   23  -0.347  -0.028  -0.040
    1UNL     H1   24  -0.350   0.227  -0.234
    1UNL     H2   25  -0.257   0.373  -0.181
    1UNL     H3   26  -0.176   0.225  -0.224
    1UNL     H4   27  -0.179   0.273   0.013
    1UNL     H5   28  -0.466   0.323  -0.041
    1UNL     H6   29  -0.385   0.363   0.108
    1UNL     H7   30  -0.466   0.203   0.082
    1UNL     H8   31  -0.034   0.102   0.042
    1UNL     H9   32  -0.048  -0.121   0.143
    1UNL    H10   33   0.179  -0.144   0.124
    1UNL    H11   34   0.280   0.129  -0.142
    1UNL    H12   35   0.380   0.271   0.111
    1UNL    H13   36   0.361   0.333  -0.067
    1UNL    H14   37   0.142   0.250   0.097
    1UNL    H15   38   0.501   0.075  -0.091
    1UNL    H16   39   0.443   0.049   0.177
    1UNL    H17   40   0.509  -0.144  -0.067
    1UNL    H18   41   0.487  -0.235   0.125
    1UNL    H19   42   0.284  -0.087  -0.154
    1UNL    H20   43   0.183  -0.302  -0.059
    1UNL    H21   44  -0.172  -0.148  -0.229
    1UNL    H22   45  -0.070  -0.291  -0.194
    1UNL    H23   46  -0.251  -0.309  -0.210
    1UNL    H24   47  -0.143  -0.330   0.144
    1UNL    H25   48  -0.380  -0.254   0.011
    1UNL    H26   49  -0.309  -0.155   0.143
    1UNL    H27   50  -0.350  -0.036  -0.145
    1UNL    H28   51  -0.447   0.009  -0.007
   0.00000   0.00000   0.00000   0.00000   0.00000   0.00000   0.00000   0.00000   0.00000
Generated with MDTraj, t= 32.0
 51
    1UNL     C1    1  -0.247   0.268  -0.177
    1UNL     C2    2  -0.278   0.233  -0.036
    1UNL     C3    3  -0.425   0.258   0.009
    1UNL     C4    4  -0.243   0.083  -0.008
    1UNL     C5    5  -0.112   0.056   0.002
    1UNL     C6    6  -0.060  -0.077   0.019
    1UNL     O1    7   0.050  -0.091  -0.068
    1UNL     C7    8   0.172  -0.093   0.003
    1UNL     O2    9   0.197   0.031   0.070
    1UNL     C8   10   0.288   0.110  -0.006
    1UNL     C9   11   0.288   0.252   0.043
    1UNL     O3   12   0.156   0.299   0.047
    1UNL    C10   13   0.430   0.047  -0.011
    1UNL     O4   14   0.520   0.092   0.093
    1UNL    C11   15   0.432  -0.116  -0.010
    1UNL     O5   16   0.435  -0.159   0.121
    1UNL    C12   17   0.296  -0.153  -0.075
    1UNL     O6   18   0.297  -0.292  -0.069
    1UNL    C13   19  -0.156  -0.197  -0.005
    1UNL    C14   20  -0.159  -0.231  -0.160
    1UNL     O7   21  -0.126  -0.315   0.074
    1UNL    C15   22  -0.301  -0.167   0.045
    1UNL    C16   23  -0.349  -0.028  -0.010
    1UNL     H1   24  -0.289   0.207  -0.253
    1UNL     H2   25  -0.264   0.375  -0.194
    1UNL     H3   26  -0.137   0.256  -0.181
    1UNL     H4   27  -0.206   0.289   0.021
    1UNL     H5   28  -0.478   0.161   0.002
    1UNL     H6   29  -0.476   0.329  -0.057
    1UNL     H7   30  -0.425   0.286   0.113
    1UNL     H8   31  -0.037   0.132  -0.014
    1UNL     H9   32  -0.020  -0.083   0.124
    1UNL    H10   33   0.157  -0.171   0.081
    1UNL    H11   34   0.250   0.124  -0.105
    1UNL    H12   35   0.325   0.251   0.152
    1UNL    H13   36   0.350   0.322  -0.024
    1UNL    H14   37   0.100   0.246   0.110
    1UNL    H15   38   0.476   0.079  -0.101
    1UNL    H16   39   0.518   0.020   0.163
    1UNL    H17   40   0.517  -0.152  -0.072
    1UNL    H18   41   0.453  -0.258   0.116
    1UNL    H19   42   0.300  -0.116  -0.178
    1UNL    H20   43   0.202  -0.318  -0.091
    1UNL    H21   44  -0.189  -0.143  -0.225
    1UNL    H22   45  -0.053  -0.252  -0.194
    1UNL    H23   46  -0.219  -0.316  -0.206
    1UNL    H24   47  -0.125  -0.296   0.171
    1UNL    H25   48  -0.363  -0.247   0.012
    1UNL    H26   49  -0.296  -0.169   0.158
    1UNL    H27   50  -0.381  -0.039  -0.109
    1UNL    H28   51  -0.434   0.003   0.057
   0.00000   0.00000   0.00000   0.00000   0.00000   0.00000   0.00000   0.00000   0.00000
Generated with MDTraj, t= 33.0
 51
    1UNL     C1    1  -0.252   0.280  -0.196
    1UNL     C2    2  -0.293   0.229  -0.057
    1UNL     C3    3  -0.450   0.251  -0.024
    1UNL     C4    4  -0.248   0.083  -0.033
    1UNL     C5    5  -0.115   0.070  -0.032
    1UNL     C6    6  -0.045  -0.050   0.002
    1UNL     O1    7   0.070  -0.079  -0.076
    1UNL     C7    8   0.169  -0.113   0.021
    1UNL     O2    9   0.205  -0.002   0.098
    1UNL     C8   10   0.269   0.090   0.012
    1UNL     C9   11   0.259   0.236   0.049
    1UNL     O3   12   0.134   0.273   0.093
    1UNL    C10   13   0.414   0.049  -0.015
    1UNL     O4   14   0.515   0.092   0.081
    1UNL    C11   15   0.424  -0.109  -0.023
    1UNL     O5   16   0.463  -0.173   0.097
    1UNL    C12   17   0.291  -0.165  -0.065
    1UNL     O6   18   0.305  -0.302  -0.064
    1UNL    C13   19  -0.142  -0.181   0.002
    1UNL    C14   20  -0.172  -0.208  -0.146
    1UNL     O7   21  -0.084  -0.296   0.062
    1UNL    C15   22  -0.275  -0.141   0.073
    1UNL    C16   23  -0.340  -0.015   0.026
    1UNL     H1   24  -0.283   0.216  -0.272
    1UNL     H2   25  -0.287   0.379  -0.221
    1UNL     H3   26  -0.140   0.288  -0.206
    1UNL     H4   27  -0.226   0.278   0.013
    1UNL     H5   28  -0.507   0.247  -0.117
    1UNL     H6   29  -0.463   0.353   0.010
    1UNL     H7   30  -0.493   0.182   0.053
    1UNL     H8   31  -0.061   0.141  -0.080
    1UNL     H9   32   0.002  -0.029   0.102
    1UNL    H10   33   0.130  -0.197   0.081
    1UNL    H11   34   0.212   0.086  -0.079
    1UNL    H12   35   0.330   0.245   0.142
    1UNL    H13   36   0.290   0.309  -0.033
    1UNL    H14   37   0.105   0.207   0.159
    1UNL    H15   38   0.448   0.087  -0.108
    1UNL    H16   39   0.513   0.031   0.156
    1UNL    H17   40   0.507  -0.137  -0.096
    1UNL    H18   41   0.464  -0.267   0.075
    1UNL    H19   42   0.273  -0.142  -0.173
    1UNL    H20   43   0.217  -0.339  -0.088
    1UNL    H21   44  -0.238  -0.125  -0.186
    1UNL    H22   45  -0.079  -0.221  -0.209
    1UNL    H23   46  -0.236  -0.298  -0.163
    1UNL    H24   47  -0.072  -0.289   0.163
    1UNL    H25   48  -0.344  -0.221   0.068
    1UNL    H26   49  -0.245  -0.121   0.181
    1UNL    H27   50  -0.405  -0.042  -0.050
    1UNL    H28   51  -0.399   0.033   0.108
   0.00000   0.00000   0.00000   0.00000   0.00000   0.00000   0.00000   0.00000   0.00000
Generated with MDTraj, t= 34.0
 51
    1UNL     C1    1  -0.268   0.264  -0.217
    1UNL     C2    2  -0.314   0.235  -0.079
    1UNL     C3    3  -0.467   0.231  -0.078
    1UNL     C4    4  -0.247   0.106  -0.031
    1UNL     C5    5  -0.114   0.085  -0.043
    1UNL     C6    6  -0.052  -0.041  -0.005
    1UNL     O1    7   0.065  -0.075  -0.084
    1UNL     C7    8   0.172  -0.115   0.003
    1UNL     O2    9   0.206  -0.019   0.095
    1UNL     C8   10   0.273   0.082   0.021
    1UNL     C9   11   0.268   0.208   0.102
    1UNL     O3   12   0.135   0.219   0.143
    1UNL    C10   13   0.418   0.048  -0.023
    1UNL     O4   14   0.505   0.102   0.077
    1UNL    C11   15   0.434  -0.100  -0.043
    1UNL     O5   16   0.487  -0.156   0.075
    1UNL    C12   17   0.303  -0.171  -0.081
    1UNL     O6   18   0.316  -0.312  -0.045
    1UNL    C13   19  -0.147  -0.163   0.005
    1UNL    C14   20  -0.199  -0.208  -0.137
    1UNL     O7   21  -0.082  -0.279   0.059
    1UNL    C15   22  -0.265  -0.120   0.102
    1UNL    C16   23  -0.329   0.014   0.058
    1UNL     H1   24  -0.300   0.183  -0.279
    1UNL     H2   25  -0.294   0.358  -0.258
    1UNL     H3   26  -0.156   0.261  -0.214
    1UNL     H4   27  -0.271   0.305  -0.007
    1UNL     H5   28  -0.520   0.155  -0.136
    1UNL     H6   29  -0.499   0.324  -0.124
    1UNL     H7   30  -0.504   0.245   0.030
    1UNL     H8   31  -0.048   0.158  -0.100
    1UNL     H9   32  -0.010  -0.030   0.098
    1UNL    H10   33   0.129  -0.197   0.061
    1UNL    H11   34   0.208   0.101  -0.065
    1UNL    H12   35   0.338   0.213   0.197
    1UNL    H13   36   0.295   0.296   0.035
    1UNL    H14   37   0.112   0.128   0.171
    1UNL    H15   38   0.436   0.095  -0.120
    1UNL    H16   39   0.509   0.039   0.154
    1UNL    H17   40   0.521  -0.111  -0.116
    1UNL    H18   41   0.482  -0.255   0.056
    1UNL    H19   42   0.292  -0.165  -0.194
    1UNL    H20   43   0.239  -0.357  -0.079
    1UNL    H21   44  -0.261  -0.128  -0.187
    1UNL    H22   45  -0.107  -0.246  -0.192
    1UNL    H23   46  -0.267  -0.295  -0.126
    1UNL    H24   47  -0.069  -0.279   0.160
    1UNL    H25   48  -0.336  -0.199   0.099
    1UNL    H26   49  -0.221  -0.122   0.206
    1UNL    H27   50  -0.428   0.002   0.023
    1UNL    H28   51  -0.347   0.072   0.151
   0.00000   0.00000   0.00000   0.00000   0.00000   0.00000   0.00000   0.00000   0.00000
Generated with MDTraj, t= 35.0
 51
    1UNL     C1    1  -0.264   0.242  -0.260
    1UNL     C2    2  -0.301   0.230  -0.108
    1UNL     C3    3  -0.457   0.227  -0.095
    1UNL     C4    4  -0.238   0.111  -0.038
    1UNL     C5    5  -0.108   0.078  -0.057
    1UNL     C6    6  -0.041  -0.041   0.005
    1UNL     O1    7   0.070  -0.097  -0.075
    1UNL     C7    8   0.172  -0.131   0.013
    1UNL     O2    9   0.210  -0.034   0.108
    1UNL     C8   10   0.260   0.087   0.048
    1UNL     C9   11   0.275   0.192   0.152
    1UNL     O3   12   0.149   0.224   0.201
    1UNL    C10   13   0.395   0.061  -0.028
    1UNL     O4   14   0.499   0.114   0.049
    1UNL    C11   15   0.411  -0.088  -0.052
    1UNL     O5   16   0.476  -0.154   0.063
    1UNL    C12   17   0.283  -0.162  -0.089
    1UNL     O6   18   0.307  -0.302  -0.098
    1UNL    C13   19  -0.142  -0.159   0.018
    1UNL    C14   20  -0.201  -0.215  -0.116
    1UNL     O7   21  -0.078  -0.273   0.081
    1UNL    C15   22  -0.251  -0.100   0.111
    1UNL    C16   23  -0.321   0.022   0.048
    1UNL     H1   24  -0.292   0.151  -0.316
    1UNL     H2   25  -0.316   0.327  -0.298
    1UNL     H3   26  -0.159   0.266  -0.271
    1UNL     H4   27  -0.260   0.314  -0.050
    1UNL     H5   28  -0.507   0.134  -0.123
    1UNL     H6   29  -0.496   0.291  -0.174
    1UNL     H7   30  -0.499   0.280  -0.004
    1UNL     H8   31  -0.057   0.140  -0.129
    1UNL     H9   32  -0.001  -0.015   0.104
    1UNL    H10   33   0.133  -0.210   0.078
    1UNL    H11   34   0.176   0.116  -0.020
    1UNL    H12   35   0.346   0.153   0.238
    1UNL    H13   36   0.326   0.286   0.116
    1UNL    H14   37   0.106   0.136   0.221
    1UNL    H15   38   0.377   0.110  -0.125
    1UNL    H16   39   0.510   0.056   0.128
    1UNL    H17   40   0.483  -0.093  -0.139
    1UNL    H18   41   0.482  -0.246   0.039
    1UNL    H19   42   0.258  -0.120  -0.193
    1UNL    H20   43   0.225  -0.344  -0.125
    1UNL    H21   44  -0.244  -0.127  -0.168
    1UNL    H22   45  -0.110  -0.262  -0.157
    1UNL    H23   46  -0.281  -0.293  -0.101
    1UNL    H24   47  -0.060  -0.253   0.176
    1UNL    H25   48  -0.310  -0.184   0.147
    1UNL    H26   49  -0.191  -0.063   0.194
    1UNL    H27   50  -0.400  -0.016  -0.015
    1UNL    H28   51  -0.378   0.081   0.120
   0.00000   0.00000   0.00000   0.00000   0.00000   0.00000   0.00000   0.00000   0.00000
Generated with MDTraj, t= 36.0
 51
    1UNL     C1    1  -0.261   0.196  -0.278
    1UNL     C2    2  -0.296   0.234  -0.134
    1UNL     C3    3  -0.452   0.273  -0.121
    1UNL     C4    4  -0.252   0.113  -0.043
    1UNL     C5    5  -0.120   0.081  -0.053
    1UNL     C6    6  -0.056  -0.041   0.004
    1UNL     O1    7   0.055  -0.087  -0.079
    1UNL     C7    8   0.174  -0.133  -0.012
    1UNL     O2    9   0.210  -0.045   0.101
    1UNL     C8   10   0.268   0.084   0.058
    1UNL     C9   11   0.278   0.167   0.181
    1UNL     O3   12   0.164   0.178   0.263
    1UNL    C10   13   0.397   0.068  -0.035
    1UNL     O4   14   0.510   0.126   0.035
    1UNL    C11   15   0.422  -0.080  -0.068
    1UNL     O5   16   0.465  -0.145   0.055
    1UNL    C12   17   0.293  -0.152  -0.116
    1UNL     O6   18   0.323  -0.291  -0.130
    1UNL    C13   19  -0.149  -0.156   0.045
    1UNL    C14   20  -0.172  -0.239  -0.089
    1UNL     O7   21  -0.073  -0.234   0.142
    1UNL    C15   22  -0.281  -0.096   0.110
    1UNL    C16   23  -0.353   0.011   0.031
    1UNL     H1   24  -0.307   0.101  -0.315
    1UNL     H2   25  -0.292   0.279  -0.338
    1UNL     H3   26  -0.157   0.190  -0.293
    1UNL     H4   27  -0.240   0.325  -0.103
    1UNL     H5   28  -0.498   0.243  -0.216
    1UNL     H6   29  -0.478   0.378  -0.104
    1UNL     H7   30  -0.492   0.227  -0.029
    1UNL     H8   31  -0.060   0.150  -0.104
    1UNL     H9   32  -0.006   0.000   0.092
    1UNL    H10   33   0.146  -0.228   0.032
    1UNL    H11   34   0.183   0.120  -0.010
    1UNL    H12   35   0.366   0.132   0.249
    1UNL    H13   36   0.315   0.267   0.153
    1UNL    H14   37   0.127   0.090   0.283
    1UNL    H15   38   0.382   0.130  -0.128
    1UNL    H16   39   0.551   0.058   0.094
    1UNL    H17   40   0.506  -0.092  -0.140
    1UNL    H18   41   0.396  -0.204   0.089
    1UNL    H19   42   0.271  -0.105  -0.221
    1UNL    H20   43   0.241  -0.332  -0.169
    1UNL    H21   44  -0.249  -0.184  -0.147
    1UNL    H22   45  -0.077  -0.265  -0.138
    1UNL    H23   46  -0.220  -0.334  -0.059
    1UNL    H24   47  -0.051  -0.175   0.215
    1UNL    H25   48  -0.350  -0.180   0.128
    1UNL    H26   49  -0.243  -0.062   0.204
    1UNL    H27   50  -0.422  -0.043  -0.037
    1UNL    H28   51  -0.422   0.067   0.090
   0.00000   0.00000   0.00000   0.00000   0.00000   0.00000   0.00000   0.00000   0.00000
Generated with MDTraj, t= 37.0
 51
    1UNL     C1    1  -0.310   0.184  -0.304
    1UNL     C2    2  -0.299   0.213  -0.153
    1UNL     C3    3  -0.434   0.266  -0.103
    1UNL     C4    4  -0.241   0.103  -0.074
    1UNL     C5    5  -0.110   0.097  -0.053
    1UNL     C6    6  -0.039  -0.014   0.018
    1UNL     O1    7   0.055  -0.070  -0.080
    1UNL     C7    8   0.170  -0.129  -0.019
    1UNL     O2    9   0.220  -0.058   0.101
    1UNL     C8   10   0.262   0.080   0.075
    1UNL     C9   11   0.275   0.157   0.209
    1UNL     O3   12   0.189   0.114   0.306
    1UNL    C10   13   0.377   0.076  -0.028
    1UNL     O4   14   0.503   0.131   0.022
    1UNL    C11   15   0.407  -0.075  -0.067
    1UNL     O5   16   0.463  -0.150   0.041
    1UNL    C12   17   0.281  -0.143  -0.123
    1UNL     O6   18   0.297  -0.288  -0.145
    1UNL    C13   19  -0.135  -0.134   0.060
    1UNL    C14   20  -0.139  -0.237  -0.057
    1UNL     O7   21  -0.080  -0.200   0.174
    1UNL    C15   22  -0.279  -0.077   0.095
    1UNL    C16   23  -0.332  -0.014  -0.028
    1UNL     H1   24  -0.393   0.117  -0.338
    1UNL     H2   25  -0.317   0.277  -0.359
    1UNL     H3   26  -0.224   0.141  -0.340
    1UNL     H4   27  -0.230   0.302  -0.146
    1UNL     H5   28  -0.501   0.180  -0.086
    1UNL     H6   29  -0.480   0.328  -0.183
    1UNL     H7   30  -0.412   0.338  -0.025
    1UNL     H8   31  -0.049   0.178  -0.105
    1UNL     H9   32   0.018   0.032   0.098
    1UNL    H10   33   0.142  -0.231   0.007
    1UNL    H11   34   0.173   0.122   0.016
    1UNL    H12   35   0.383   0.160   0.247
    1UNL    H13   36   0.257   0.263   0.202
    1UNL    H14   37   0.174   0.016   0.301
    1UNL    H15   38   0.361   0.142  -0.120
    1UNL    H16   39   0.538   0.069   0.090
    1UNL    H17   40   0.477  -0.077  -0.151
    1UNL    H18   41   0.390  -0.188   0.098
    1UNL    H19   42   0.244  -0.101  -0.227
    1UNL    H20   43   0.216  -0.321  -0.196
    1UNL    H21   44  -0.153  -0.181  -0.150
    1UNL    H22   45  -0.051  -0.305  -0.060
    1UNL    H23   46  -0.227  -0.299  -0.053
    1UNL    H24   47  -0.072  -0.132   0.240
    1UNL    H25   48  -0.351  -0.151   0.139
    1UNL    H26   49  -0.266   0.002   0.163
    1UNL    H27   50  -0.352  -0.086  -0.112
    1UNL    H28   51  -0.426   0.023  -0.004
   0.00000   0.00000   0.00000   0.00000   0.00000   0.00000   0.00000   0.00000   0.00000
Generated with MDTraj, t= 38.0
 51
    1UNL     C1    1  -0.369   0.152  -0.308
    1UNL     C2    2  -0.308   0.209  -0.175
    1UNL     C3    3  -0.417   0.288  -0.099
    1UNL     C4    4  -0.253   0.098  -0.095
    1UNL     C5    5  -0.125   0.108  -0.054
    1UNL     C6    6  -0.047  -0.012   0.004
    1UNL     O1    7   0.062  -0.051  -0.088
    1UNL     C7    8   0.170  -0.116  -0.022
    1UNL     O2    9   0.217  -0.068   0.102
    1UNL     C8   10   0.279   0.062   0.088
    1UNL     C9   11   0.315   0.115   0.230
    1UNL     O3   12   0.212   0.110   0.325
    1UNL    C10   13   0.384   0.075  -0.022
    1UNL     O4   14   0.504   0.131   0.032
    1UNL    C11   15   0.420  -0.067  -0.075
    1UNL     O5   16   0.469  -0.135   0.037
    1UNL    C12   17   0.285  -0.138  -0.122
    1UNL     O6   18   0.294  -0.285  -0.141
    1UNL    C13   19  -0.136  -0.128   0.053
    1UNL    C14   20  -0.136  -0.246  -0.040
    1UNL     O7   21  -0.085  -0.174   0.189
    1UNL    C15   22  -0.284  -0.087   0.073
    1UNL    C16   23  -0.350  -0.013  -0.046
    1UNL     H1   24  -0.449   0.081  -0.285
    1UNL     H2   25  -0.413   0.234  -0.363
    1UNL     H3   26  -0.305   0.104  -0.377
    1UNL     H4   27  -0.225   0.275  -0.216
    1UNL     H5   28  -0.515   0.290  -0.151
    1UNL     H6   29  -0.378   0.392  -0.104
    1UNL     H7   30  -0.426   0.278   0.006
    1UNL     H8   31  -0.079   0.191  -0.091
    1UNL     H9   32   0.007   0.030   0.088
    1UNL    H10   33   0.132  -0.213   0.005
    1UNL    H11   34   0.192   0.130   0.055
    1UNL    H12   35   0.404   0.062   0.274
    1UNL    H13   36   0.354   0.213   0.233
    1UNL    H14   37   0.168   0.022   0.327
    1UNL    H15   38   0.354   0.150  -0.106
    1UNL    H16   39   0.538   0.059   0.085
    1UNL    H17   40   0.486  -0.051  -0.159
    1UNL    H18   41   0.397  -0.148   0.101
    1UNL    H19   42   0.257  -0.097  -0.228
    1UNL    H20   43   0.217  -0.322  -0.193
    1UNL    H21   44  -0.192  -0.236  -0.132
    1UNL    H22   45  -0.034  -0.258  -0.067
    1UNL    H23   46  -0.163  -0.344  -0.005
    1UNL    H24   47  -0.101  -0.113   0.262
    1UNL    H25   48  -0.340  -0.182   0.093
    1UNL    H26   49  -0.299  -0.022   0.152
    1UNL    H27   50  -0.366  -0.087  -0.128
    1UNL    H28   51  -0.444   0.025  -0.023
   0.00000   0.00000   0.00000   0.00000   0.00000   0.00000   0.00000   0.00000   0.00000
Generated with MDTraj, t= 39.0
 51
    1UNL     C1    1  -0.433   0.152  -0.297
    1UNL     C2    2  -0.335   0.202  -0.190
    1UNL     C3    3  -0.391   0.305  -0.097
    1UNL     C4    4  -0.264   0.092  -0.114
    1UNL     C5    5  -0.131   0.089  -0.085
    1UNL     C6    6  -0.054  -0.017  -0.008
    1UNL     O1    7   0.056  -0.062  -0.087
    1UNL     C7    8   0.169  -0.107  -0.014
    1UNL     O2    9   0.198  -0.037   0.108
    1UNL     C8   10   0.281   0.083   0.096
    1UNL     C9   11   0.346   0.107   0.234
    1UNL     O3   12   0.251   0.111   0.343
    1UNL    C10   13   0.394   0.073  -0.014
    1UNL     O4   14   0.517   0.128   0.038
    1UNL    C11   15   0.420  -0.072  -0.056
    1UNL     O5   16   0.486  -0.135   0.053
    1UNL    C12   17   0.289  -0.138  -0.109
    1UNL     O6   18   0.291  -0.279  -0.130
    1UNL    C13   19  -0.147  -0.138   0.043
    1UNL    C14   20  -0.154  -0.247  -0.069
    1UNL     O7   21  -0.080  -0.187   0.159
    1UNL    C15   22  -0.285  -0.084   0.081
    1UNL    C16   23  -0.348  -0.014  -0.046
    1UNL     H1   24  -0.508   0.091  -0.255
    1UNL     H2   25  -0.476   0.239  -0.344
    1UNL     H3   26  -0.380   0.098  -0.377
    1UNL     H4   27  -0.254   0.248  -0.256
    1UNL     H5   28  -0.423   0.275   0.004
    1UNL     H6   29  -0.478   0.354  -0.145
    1UNL     H7   30  -0.331   0.390  -0.086
    1UNL     H8   31  -0.064   0.160  -0.142
    1UNL     H9   32  -0.003   0.038   0.071
    1UNL    H10   33   0.128  -0.201   0.023
    1UNL    H11   34   0.211   0.173   0.080
    1UNL    H12   35   0.430   0.042   0.259
    1UNL    H13   36   0.394   0.200   0.236
    1UNL    H14   37   0.201   0.028   0.350
    1UNL    H15   38   0.357   0.129  -0.108
    1UNL    H16   39   0.559   0.054   0.094
    1UNL    H17   40   0.495  -0.069  -0.136
    1UNL    H18   41   0.554  -0.206   0.035
    1UNL    H19   42   0.262  -0.096  -0.212
    1UNL    H20   43   0.205  -0.298  -0.169
    1UNL    H21   44  -0.164  -0.204  -0.164
    1UNL    H22   45  -0.077  -0.321  -0.070
    1UNL    H23   46  -0.247  -0.299  -0.062
    1UNL    H24   47  -0.041  -0.121   0.222
    1UNL    H25   48  -0.358  -0.164   0.109
    1UNL    H26   49  -0.279  -0.013   0.158
    1UNL    H27   50  -0.384  -0.087  -0.120
    1UNL    H28   51  -0.435   0.034  -0.012
   0.00000   0.00000   0.00000   0.00000   0.00000   0.00000   0.00000   0.00000   0.00000
Generated with MDTraj, t= 40.0
 51
    1UNL     C1    1  -0.483   0.140  -0.246
    1UNL     C2    2  -0.345   0.187  -0.203
    1UNL     C3    3  -0.367   0.315  -0.110
    1UNL     C4    4  -0.274   0.085  -0.111
    1UNL     C5    5  -0.137   0.091  -0.106
    1UNL     C6    6  -0.050   0.004  -0.020
    1UNL     O1    7   0.074  -0.022  -0.081
    1UNL     C7    8   0.162  -0.105  -0.003
    1UNL     O2    9   0.222  -0.050   0.118
    1UNL     C8   10   0.285   0.081   0.101
    1UNL     C9   11   0.342   0.119   0.235
    1UNL     O3   12   0.244   0.107   0.342
    1UNL    C10   13   0.388   0.070  -0.021
    1UNL     O4   14   0.511   0.133   0.010
    1UNL    C11   15   0.415  -0.083  -0.044
    1UNL     O5   16   0.456  -0.140   0.081
    1UNL    C12   17   0.283  -0.154  -0.092
    1UNL     O6   18   0.304  -0.293  -0.093
    1UNL    C13   19  -0.128  -0.129   0.014
    1UNL    C14   20  -0.149  -0.217  -0.113
    1UNL     O7   21  -0.056  -0.208   0.110
    1UNL    C15   22  -0.268  -0.098   0.072
    1UNL    C16   23  -0.350  -0.001  -0.010
    1UNL     H1   24  -0.552   0.157  -0.172
    1UNL     H2   25  -0.514   0.201  -0.328
    1UNL     H3   26  -0.484   0.034  -0.283
    1UNL     H4   27  -0.276   0.210  -0.289
    1UNL     H5   28  -0.462   0.300  -0.058
    1UNL     H6   29  -0.372   0.407  -0.172
    1UNL     H7   30  -0.296   0.334  -0.034
    1UNL     H8   31  -0.078   0.150  -0.174
    1UNL     H9   32  -0.031   0.059   0.073
    1UNL    H10   33   0.110  -0.195   0.027
    1UNL    H11   34   0.207   0.158   0.072
    1UNL    H12   35   0.420   0.048   0.253
    1UNL    H13   36   0.387   0.212   0.235
    1UNL    H14   37   0.199   0.019   0.327
    1UNL    H15   38   0.336   0.117  -0.110
    1UNL    H16   39   0.568   0.080   0.069
    1UNL    H17   40   0.506  -0.097  -0.108
    1UNL    H18   41   0.389  -0.182   0.138
    1UNL    H19   42   0.275  -0.132  -0.203
    1UNL    H20   43   0.220  -0.340  -0.098
    1UNL    H21   44  -0.233  -0.182  -0.165
    1UNL    H22   45  -0.061  -0.220  -0.173
    1UNL    H23   46  -0.173  -0.314  -0.080
    1UNL    H24   47  -0.008  -0.153   0.180
    1UNL    H25   48  -0.319  -0.196   0.079
    1UNL    H26   49  -0.264  -0.054   0.169
    1UNL    H27   50  -0.421  -0.053  -0.074
    1UNL    H28   51  -0.413   0.065   0.048
   0.00000   0.00000   0.00000   0.00000   0.00000   0.00000   0.00000   0.00000   0.00000
Generated with MDTraj, t= 41.0
 51
    1UNL     C1    1  -0.486   0.134  -0.194
    1UNL     C2    2  -0.343   0.186  -0.184
    1UNL     C3    3  -0.340   0.336  -0.146
    1UNL     C4    4  -0.256   0.101  -0.084
    1UNL     C5    5  -0.118   0.104  -0.076
    1UNL     C6    6  -0.033  -0.009  -0.019
    1UNL     O1    7   0.080  -0.035  -0.098
    1UNL     C7    8   0.165  -0.106  -0.015
    1UNL     O2    9   0.188  -0.040   0.109
    1UNL     C8   10   0.267   0.083   0.097
    1UNL     C9   11   0.325   0.126   0.233
    1UNL     O3   12   0.224   0.122   0.323
    1UNL    C10   13   0.380   0.073  -0.014
    1UNL     O4   14   0.500   0.142   0.011
    1UNL    C11   15   0.418  -0.080  -0.042
    1UNL     O5   16   0.449  -0.142   0.077
    1UNL    C12   17   0.291  -0.165  -0.090
    1UNL     O6   18   0.312  -0.301  -0.055
    1UNL    C13   19  -0.123  -0.138   0.004
    1UNL    C14   20  -0.152  -0.206  -0.137
    1UNL     O7   21  -0.052  -0.238   0.078
    1UNL    C15   22  -0.262  -0.107   0.071
    1UNL    C16   23  -0.334  -0.001  -0.005
    1UNL     H1   24  -0.553   0.164  -0.118
    1UNL     H2   25  -0.533   0.166  -0.284
    1UNL     H3   26  -0.488   0.024  -0.213
    1UNL     H4   27  -0.290   0.181  -0.281
    1UNL     H5   28  -0.344   0.332  -0.037
    1UNL     H6   29  -0.426   0.386  -0.191
    1UNL     H7   30  -0.251   0.389  -0.176
    1UNL     H8   31  -0.052   0.175  -0.120
    1UNL     H9   32  -0.003   0.014   0.086
    1UNL    H10   33   0.105  -0.188   0.019
    1UNL    H11   34   0.201   0.162   0.057
    1UNL    H12   35   0.395   0.050   0.257
    1UNL    H13   36   0.360   0.223   0.231
    1UNL    H14   37   0.165   0.048   0.298
    1UNL    H15   38   0.339   0.110  -0.111
    1UNL    H16   39   0.550   0.103   0.081
    1UNL    H17   40   0.492  -0.085  -0.127
    1UNL    H18   41   0.376  -0.205   0.097
    1UNL    H19   42   0.276  -0.148  -0.198
    1UNL    H20   43   0.222  -0.343  -0.046
    1UNL    H21   44  -0.197  -0.132  -0.198
    1UNL    H22   45  -0.054  -0.226  -0.170
    1UNL    H23   46  -0.209  -0.292  -0.137
    1UNL    H24   47  -0.044  -0.208   0.174
    1UNL    H25   48  -0.322  -0.196   0.086
    1UNL    H26   49  -0.239  -0.065   0.169
    1UNL    H27   50  -0.392  -0.053  -0.078
    1UNL    H28   51  -0.411   0.050   0.058
   0.00000   0.00000   0.00000   0.00000   0.00000   0.00000   0.00000   0.00000   0.00000
Generated with MDTraj, t= 42.0
 51
    1UNL     C1    1  -0.478   0.201  -0.193
    1UNL     C2    2  -0.325   0.195  -0.180
    1UNL     C3    3  -0.274   0.325  -0.113
    1UNL     C4    4  -0.266   0.080  -0.101
    1UNL     C5    5  -0.134   0.060  -0.112
    1UNL     C6    6  -0.053  -0.033  -0.029
    1UNL     O1    7   0.066  -0.071  -0.083
    1UNL     C7    8   0.172  -0.123   0.003
    1UNL     O2    9   0.206  -0.045   0.115
    1UNL     C8   10   0.259   0.082   0.083
    1UNL     C9   11   0.299   0.144   0.222
    1UNL     O3   12   0.195   0.149   0.310
    1UNL    C10   13   0.381   0.073  -0.014
    1UNL     O4   14   0.482   0.157   0.034
    1UNL    C11   15   0.429  -0.069  -0.041
    1UNL     O5   16   0.501  -0.129   0.059
    1UNL    C12   17   0.301  -0.154  -0.084
    1UNL     O6   18   0.343  -0.287  -0.086
    1UNL    C13   19  -0.143  -0.155   0.006
    1UNL    C14   20  -0.186  -0.233  -0.126
    1UNL     O7   21  -0.073  -0.249   0.095
    1UNL    C15   22  -0.275  -0.110   0.073
    1UNL    C16   23  -0.344   0.008  -0.003
    1UNL     H1   24  -0.530   0.195  -0.097
    1UNL     H2   25  -0.509   0.293  -0.236
    1UNL     H3   26  -0.521   0.129  -0.263
    1UNL     H4   27  -0.287   0.191  -0.282
    1UNL     H5   28  -0.343   0.359  -0.037
    1UNL     H6   29  -0.255   0.398  -0.190
    1UNL     H7   30  -0.180   0.313  -0.057
    1UNL     H8   31  -0.067   0.115  -0.184
    1UNL     H9   32  -0.030   0.014   0.070
    1UNL    H10   33   0.136  -0.218   0.040
    1UNL    H11   34   0.184   0.149   0.041
    1UNL    H12   35   0.374   0.085   0.272
    1UNL    H13   36   0.322   0.244   0.207
    1UNL    H14   37   0.142   0.064   0.305
    1UNL    H15   38   0.347   0.117  -0.109
    1UNL    H16   39   0.564   0.112   0.071
    1UNL    H17   40   0.492  -0.064  -0.135
    1UNL    H18   41   0.461  -0.218   0.080
    1UNL    H19   42   0.277  -0.124  -0.185
    1UNL    H20   43   0.266  -0.352  -0.093
    1UNL    H21   44  -0.239  -0.165  -0.188
    1UNL    H22   45  -0.110  -0.284  -0.174
    1UNL    H23   46  -0.261  -0.298  -0.097
    1UNL    H24   47  -0.062  -0.202   0.181
    1UNL    H25   48  -0.332  -0.200   0.081
    1UNL    H26   49  -0.243  -0.079   0.174
    1UNL    H27   50  -0.436  -0.027  -0.040
    1UNL    H28   51  -0.374   0.085   0.076
   0.00000   0.00000   0.00000   0.00000   0.00000   0.00000   0.00000   0.00000   0.00000
Generated with MDTraj, t= 43.0
 51
    1UNL     C1    1  -0.428   0.227  -0.187
    1UNL     C2    2  -0.276   0.216  -0.157
    1UNL     C3    3  -0.231   0.348  -0.084
    1UNL     C4    4  -0.234   0.089  -0.090
    1UNL     C5    5  -0.104   0.063  -0.084
    1UNL     C6    6  -0.047  -0.060  -0.023
    1UNL     O1    7   0.062  -0.108  -0.091
    1UNL     C7    8   0.176  -0.138  -0.008
    1UNL     O2    9   0.182  -0.047   0.096
    1UNL     C8   10   0.226   0.084   0.065
    1UNL     C9   11   0.260   0.149   0.193
    1UNL     O3   12   0.145   0.153   0.279
    1UNL    C10   13   0.356   0.089  -0.022
    1UNL     O4   14   0.458   0.159   0.046
    1UNL    C11   15   0.414  -0.050  -0.058
    1UNL     O5   16   0.494  -0.110   0.046
    1UNL    C12   17   0.307  -0.153  -0.094
    1UNL     O6   18   0.356  -0.282  -0.091
    1UNL    C13   19  -0.146  -0.178   0.022
    1UNL    C14   20  -0.177  -0.267  -0.101
    1UNL     O7   21  -0.085  -0.250   0.127
    1UNL    C15   22  -0.280  -0.115   0.074
    1UNL    C16   23  -0.335  -0.001  -0.016
    1UNL     H1   24  -0.482   0.219  -0.090
    1UNL     H2   25  -0.456   0.320  -0.232
    1UNL     H3   26  -0.462   0.152  -0.253
    1UNL     H4   27  -0.244   0.218  -0.261
    1UNL     H5   28  -0.213   0.343   0.022
    1UNL     H6   29  -0.292   0.430  -0.116
    1UNL     H7   30  -0.133   0.383  -0.124
    1UNL     H8   31  -0.035   0.125  -0.126
    1UNL     H9   32  -0.014  -0.027   0.079
    1UNL    H10   33   0.158  -0.237   0.032
    1UNL    H11   34   0.147   0.137   0.017
    1UNL    H12   35   0.329   0.073   0.234
    1UNL    H13   36   0.299   0.247   0.175
    1UNL    H14   37   0.090   0.073   0.273
    1UNL    H15   38   0.326   0.138  -0.113
    1UNL    H16   39   0.520   0.099   0.093
    1UNL    H17   40   0.488  -0.041  -0.140
    1UNL    H18   41   0.473  -0.204   0.063
    1UNL    H19   42   0.278  -0.150  -0.195
    1UNL    H20   43   0.280  -0.345  -0.102
    1UNL    H21   44  -0.229  -0.225  -0.180
    1UNL    H22   45  -0.082  -0.295  -0.128
    1UNL    H23   46  -0.230  -0.356  -0.079
    1UNL    H24   47  -0.010  -0.196   0.156
    1UNL    H25   48  -0.349  -0.194   0.080
    1UNL    H26   49  -0.254  -0.081   0.178
    1UNL    H27   50  -0.391  -0.043  -0.095
    1UNL    H28   51  -0.414   0.061   0.040
   0.00000   0.00000   0.00000   0.00000   0.00000   0.00000   0.00000   0.00000   0.00000
Generated with MDTraj, t= 44.0
 51
    1UNL     C1    1  -0.410   0.245  -0.170
    1UNL     C2    2  -0.255   0.222  -0.141
    1UNL     C3    3  -0.216   0.337  -0.048
    1UNL     C4    4  -0.223   0.092  -0.082
    1UNL     C5    5  -0.097   0.057  -0.079
    1UNL     C6    6  -0.029  -0.057  -0.005
    1UNL     O1    7   0.075  -0.113  -0.077
    1UNL     C7    8   0.192  -0.157   0.002
    1UNL     O2    9   0.209  -0.065   0.109
    1UNL     C8   10   0.220   0.069   0.055
    1UNL     C9   11   0.200   0.168   0.172
    1UNL     O3   12   0.072   0.127   0.233
    1UNL    C10   13   0.351   0.084  -0.041
    1UNL     O4   14   0.449   0.169   0.018
    1UNL    C11   15   0.420  -0.056  -0.065
    1UNL     O5   16   0.480  -0.098   0.062
    1UNL    C12   17   0.313  -0.161  -0.102
    1UNL     O6   18   0.373  -0.284  -0.115
    1UNL    C13   19  -0.140  -0.168   0.032
    1UNL    C14   20  -0.166  -0.257  -0.087
    1UNL     O7   21  -0.100  -0.242   0.147
    1UNL    C15   22  -0.277  -0.093   0.069
    1UNL    C16   23  -0.330   0.001  -0.035
    1UNL     H1   24  -0.471   0.250  -0.076
    1UNL     H2   25  -0.438   0.333  -0.228
    1UNL     H3   26  -0.440   0.166  -0.229
    1UNL     H4   27  -0.214   0.232  -0.240
    1UNL     H5   28  -0.288   0.366   0.025
    1UNL     H6   29  -0.177   0.415  -0.110
    1UNL     H7   30  -0.133   0.302   0.020
    1UNL     H8   31  -0.032   0.131  -0.133
    1UNL     H9   32   0.008  -0.025   0.094
    1UNL    H10   33   0.170  -0.256   0.042
    1UNL    H11   34   0.141   0.085  -0.016
    1UNL    H12   35   0.281   0.152   0.247
    1UNL    H13   36   0.193   0.268   0.127
    1UNL    H14   37   0.075   0.032   0.256
    1UNL    H15   38   0.325   0.121  -0.138
    1UNL    H16   39   0.500   0.119   0.084
    1UNL    H17   40   0.505  -0.043  -0.130
    1UNL    H18   41   0.414  -0.152   0.115
    1UNL    H19   42   0.273  -0.135  -0.196
    1UNL    H20   43   0.310  -0.353  -0.133
    1UNL    H21   44  -0.191  -0.205  -0.172
    1UNL    H22   45  -0.081  -0.314  -0.106
    1UNL    H23   46  -0.247  -0.323  -0.079
    1UNL    H24   47  -0.015  -0.281   0.133
    1UNL    H25   48  -0.346  -0.171   0.086
    1UNL    H26   49  -0.256  -0.035   0.163
    1UNL    H27   50  -0.379  -0.048  -0.118
    1UNL    H28   51  -0.406   0.074   0.007
   0.00000   0.00000   0.00000   0.00000   0.00000   0.00000   0.00000   0.00000   0.00000
Generated with MDTraj, t= 45.0
 51
    1UNL     C1    1  -0.379   0.245  -0.189
    1UNL     C2    2  -0.236   0.228  -0.125
    1UNL     C3    3  -0.210   0.340  -0.013
    1UNL     C4    4  -0.215   0.088  -0.075
    1UNL     C5    5  -0.094   0.040  -0.087
    1UNL     C6    6  -0.044  -0.086  -0.023
    1UNL     O1    7   0.066  -0.133  -0.091
    1UNL     C7    8   0.187  -0.144  -0.012
    1UNL     O2    9   0.199  -0.043   0.089
    1UNL     C8   10   0.218   0.088   0.034
    1UNL     C9   11   0.193   0.205   0.140
    1UNL     O3   12   0.086   0.164   0.215
    1UNL    C10   13   0.365   0.091  -0.034
    1UNL     O4   14   0.451   0.155   0.051
    1UNL    C11   15   0.419  -0.052  -0.048
    1UNL     O5   16   0.477  -0.098   0.073
    1UNL    C12   17   0.313  -0.152  -0.108
    1UNL     O6   18   0.376  -0.279  -0.113
    1UNL    C13   19  -0.160  -0.188   0.025
    1UNL    C14   20  -0.193  -0.288  -0.079
    1UNL     O7   21  -0.109  -0.261   0.145
    1UNL    C15   22  -0.284  -0.109   0.086
    1UNL    C16   23  -0.325   0.008  -0.007
    1UNL     H1   24  -0.466   0.260  -0.123
    1UNL     H2   25  -0.390   0.325  -0.264
    1UNL     H3   26  -0.392   0.159  -0.247
    1UNL     H4   27  -0.170   0.253  -0.206
    1UNL     H5   28  -0.210   0.290   0.083
    1UNL     H6   29  -0.269   0.429  -0.026
    1UNL     H7   30  -0.103   0.371  -0.014
    1UNL     H8   31  -0.028   0.104  -0.141
    1UNL     H9   32  -0.006  -0.060   0.078
    1UNL    H10   33   0.179  -0.235   0.048
    1UNL    H11   34   0.146   0.111  -0.051
    1UNL    H12   35   0.286   0.216   0.205
    1UNL    H13   36   0.157   0.299   0.089
    1UNL    H14   37   0.100   0.069   0.243
    1UNL    H15   38   0.368   0.138  -0.129
    1UNL    H16   39   0.478   0.092   0.127
    1UNL    H17   40   0.498  -0.050  -0.119
    1UNL    H18   41   0.449  -0.192   0.075
    1UNL    H19   42   0.292  -0.120  -0.207
    1UNL    H20   43   0.317  -0.345  -0.150
    1UNL    H21   44  -0.238  -0.242  -0.160
    1UNL    H22   45  -0.110  -0.337  -0.119
    1UNL    H23   46  -0.262  -0.359  -0.053
    1UNL    H24   47  -0.017  -0.281   0.133
    1UNL    H25   48  -0.367  -0.174   0.088
    1UNL    H26   49  -0.249  -0.072   0.187
    1UNL    H27   50  -0.382  -0.036  -0.095
    1UNL    H28   51  -0.394   0.075   0.049
   0.00000   0.00000   0.00000   0.00000   0.00000   0.00000   0.00000   0.00000   0.00000
Generated with MDTraj, t= 46.0
 51
    1UNL     C1    1  -0.377   0.225  -0.189
    1UNL     C2    2  -0.240   0.214  -0.126
    1UNL     C3    3  -0.221   0.316  -0.005
    1UNL     C4    4  -0.217   0.075  -0.072
    1UNL     C5    5  -0.099   0.020  -0.093
    1UNL     C6    6  -0.044  -0.093  -0.005
    1UNL     O1    7   0.070  -0.156  -0.055
    1UNL     C7    8   0.193  -0.125   0.013
    1UNL     O2    9   0.195  -0.006   0.091
    1UNL     C8   10   0.238   0.105   0.024
    1UNL     C9   11   0.208   0.220   0.111
    1UNL     O3   12   0.085   0.216   0.173
    1UNL    C10   13   0.392   0.094  -0.013
    1UNL     O4   14   0.473   0.136   0.090
    1UNL    C11   15   0.425  -0.057  -0.048
    1UNL     O5   16   0.484  -0.109   0.067
    1UNL    C12   17   0.300  -0.136  -0.098
    1UNL     O6   18   0.331  -0.270  -0.133
    1UNL    C13   19  -0.160  -0.200   0.022
    1UNL    C14   20  -0.224  -0.253  -0.107
    1UNL     O7   21  -0.115  -0.305   0.103
    1UNL    C15   22  -0.265  -0.112   0.099
    1UNL    C16   23  -0.317   0.008   0.012
    1UNL     H1   24  -0.463   0.187  -0.139
    1UNL     H2   25  -0.396   0.331  -0.202
    1UNL     H3   26  -0.367   0.183  -0.290
    1UNL     H4   27  -0.163   0.243  -0.197
    1UNL     H5   28  -0.312   0.342   0.047
    1UNL     H6   29  -0.161   0.404  -0.030
    1UNL     H7   30  -0.174   0.263   0.080
    1UNL     H8   31  -0.032   0.068  -0.157
    1UNL     H9   32  -0.022  -0.050   0.094
    1UNL    H10   33   0.214  -0.206   0.086
    1UNL    H11   34   0.181   0.126  -0.074
    1UNL    H12   35   0.282   0.218   0.199
    1UNL    H13   36   0.210   0.316   0.048
    1UNL    H14   37   0.069   0.124   0.203
    1UNL    H15   38   0.417   0.166  -0.088
    1UNL    H16   39   0.467   0.077   0.164
    1UNL    H17   40   0.496  -0.062  -0.126
    1UNL    H18   41   0.463  -0.204   0.069
    1UNL    H19   42   0.255  -0.090  -0.184
    1UNL    H20   43   0.243  -0.305  -0.168
    1UNL    H21   44  -0.273  -0.189  -0.174
    1UNL    H22   45  -0.144  -0.292  -0.162
    1UNL    H23   46  -0.284  -0.335  -0.098
    1UNL    H24   47  -0.018  -0.306   0.100
    1UNL    H25   48  -0.350  -0.171   0.125
    1UNL    H26   49  -0.207  -0.065   0.183
    1UNL    H27   50  -0.402  -0.034  -0.056
    1UNL    H28   51  -0.359   0.084   0.079
   0.00000   0.00000   0.00000   0.00000   0.00000   0.00000   0.00000   0.00000   0.00000
Generated with MDTraj, t= 47.0
 51
    1UNL     C1    1  -0.375   0.184  -0.183
    1UNL     C2    2  -0.240   0.206  -0.104
    1UNL     C3    3  -0.234   0.338  -0.023
    1UNL     C4    4  -0.209   0.081  -0.022
    1UNL     C5    5  -0.085   0.031  -0.022
    1UNL     C6    6  -0.046  -0.109   0.024
    1UNL     O1    7   0.061  -0.161  -0.049
    1UNL     C7    8   0.188  -0.122   0.009
    1UNL     O2    9   0.185   0.004   0.076
    1UNL     C8   10   0.257   0.119   0.017
    1UNL     C9   11   0.220   0.239   0.096
    1UNL     O3   12   0.077   0.265   0.087
    1UNL    C10   13   0.414   0.091   0.004
    1UNL     O4   14   0.472   0.106   0.128
    1UNL    C11   15   0.434  -0.057  -0.048
    1UNL     O5   16   0.479  -0.131   0.054
    1UNL    C12   17   0.301  -0.123  -0.099
    1UNL     O6   18   0.334  -0.255  -0.141
    1UNL    C13   19  -0.167  -0.202   0.016
    1UNL    C14   20  -0.188  -0.230  -0.131
    1UNL     O7   21  -0.141  -0.329   0.076
    1UNL    C15   22  -0.293  -0.137   0.089
    1UNL    C16   23  -0.324   0.009   0.049
    1UNL     H1   24  -0.463   0.189  -0.129
    1UNL     H2   25  -0.384   0.260  -0.259
    1UNL     H3   26  -0.357   0.088  -0.239
    1UNL     H4   27  -0.154   0.206  -0.171
    1UNL     H5   28  -0.252   0.333   0.083
    1UNL     H6   29  -0.308   0.403  -0.073
    1UNL     H7   30  -0.142   0.396  -0.020
    1UNL     H8   31   0.002   0.081  -0.074
    1UNL     H9   32  -0.023  -0.111   0.132
    1UNL    H10   33   0.216  -0.204   0.080
    1UNL    H11   34   0.219   0.126  -0.090
    1UNL    H12   35   0.249   0.219   0.205
    1UNL    H13   36   0.276   0.334   0.058
    1UNL    H14   37   0.027   0.184   0.115
    1UNL    H15   38   0.467   0.154  -0.069
    1UNL    H16   39   0.466   0.014   0.172
    1UNL    H17   40   0.511  -0.060  -0.122
    1UNL    H18   41   0.485  -0.228   0.030
    1UNL    H19   42   0.273  -0.071  -0.191
    1UNL    H20   43   0.263  -0.292  -0.201
    1UNL    H21   44  -0.208  -0.143  -0.185
    1UNL    H22   45  -0.112  -0.285  -0.172
    1UNL    H23   46  -0.271  -0.293  -0.136
    1UNL    H24   47  -0.045  -0.338   0.103
    1UNL    H25   48  -0.369  -0.207   0.063
    1UNL    H26   49  -0.263  -0.143   0.197
    1UNL    H27   50  -0.420   0.012  -0.019
    1UNL    H28   51  -0.347   0.074   0.134
   0.00000   0.00000   0.00000   0.00000   0.00000   0.00000   0.00000   0.00000   0.00000
Generated with MDTraj, t= 48.0
 51
    1UNL     C1    1  -0.367   0.184  -0.183
    1UNL     C2    2  -0.241   0.198  -0.099
    1UNL     C3    3  -0.245   0.317   0.006
    1UNL     C4    4  -0.210   0.070  -0.015
    1UNL     C5    5  -0.088   0.021  -0.032
    1UNL     C6    6  -0.049  -0.110   0.030
    1UNL     O1    7   0.064  -0.162  -0.032
    1UNL     C7    8   0.183  -0.099   0.010
    1UNL     O2    9   0.165   0.038   0.063
    1UNL     C8   10   0.260   0.134   0.001
    1UNL     C9   11   0.249   0.276   0.046
    1UNL     O3   12   0.110   0.311   0.050
    1UNL    C10   13   0.406   0.082   0.029
    1UNL     O4   14   0.439   0.070   0.165
    1UNL    C11   15   0.434  -0.060  -0.038
    1UNL     O5   16   0.489  -0.155   0.050
    1UNL    C12   17   0.294  -0.118  -0.096
    1UNL     O6   18   0.307  -0.255  -0.127
    1UNL    C13   19  -0.171  -0.211   0.007
    1UNL    C14   20  -0.197  -0.228  -0.147
    1UNL     O7   21  -0.117  -0.339   0.054
    1UNL    C15   22  -0.293  -0.152   0.085
    1UNL    C16   23  -0.306  -0.004   0.077
    1UNL     H1   24  -0.446   0.211  -0.121
    1UNL     H2   25  -0.378   0.255  -0.262
    1UNL     H3   26  -0.371   0.080  -0.225
    1UNL     H4   27  -0.151   0.204  -0.162
    1UNL     H5   28  -0.343   0.348   0.044
    1UNL     H6   29  -0.195   0.402  -0.044
    1UNL     H7   30  -0.194   0.300   0.098
    1UNL     H8   31  -0.009   0.065  -0.083
    1UNL     H9   32  -0.032  -0.101   0.137
    1UNL    H10   33   0.199  -0.164   0.099
    1UNL    H11   34   0.228   0.123  -0.106
    1UNL    H12   35   0.297   0.290   0.150
    1UNL    H13   36   0.303   0.350  -0.026
    1UNL    H14   37   0.061   0.256   0.116
    1UNL    H15   38   0.469   0.168  -0.006
    1UNL    H16   39   0.444  -0.022   0.185
    1UNL    H17   40   0.508  -0.040  -0.114
    1UNL    H18   41   0.507  -0.237   0.005
    1UNL    H19   42   0.252  -0.063  -0.184
    1UNL    H20   43   0.234  -0.294  -0.176
    1UNL    H21   44  -0.224  -0.136  -0.184
    1UNL    H22   45  -0.109  -0.258  -0.189
    1UNL    H23   46  -0.269  -0.302  -0.166
    1UNL    H24   47  -0.015  -0.338   0.061
    1UNL    H25   48  -0.375  -0.211   0.050
    1UNL    H26   49  -0.255  -0.184   0.187
    1UNL    H27   50  -0.409   0.020   0.033
    1UNL    H28   51  -0.302   0.040   0.177
   0.00000   0.00000   0.00000   0.00000   0.00000   0.00000   0.00000   0.00000   0.00000
Generated with MDTraj, t= 49.0
 51
    1UNL     C1    1  -0.371   0.205  -0.169
    1UNL     C2    2  -0.257   0.209  -0.076
    1UNL     C3    3  -0.282   0.292   0.052
    1UNL     C4    4  -0.214   0.069  -0.030
    1UNL     C5    5  -0.090   0.021  -0.042
    1UNL     C6    6  -0.047  -0.111   0.021
    1UNL     O1    7   0.075  -0.161  -0.027
    1UNL     C7    8   0.187  -0.080  -0.005
    1UNL     O2    9   0.167   0.065  -0.015
    1UNL     C8   10   0.285   0.150  -0.017
    1UNL     C9   11   0.255   0.272   0.065
    1UNL     O3   12   0.142   0.329   0.020
    1UNL    C10   13   0.407   0.069   0.039
    1UNL     O4   14   0.406   0.048   0.180
    1UNL    C11   15   0.438  -0.067  -0.035
    1UNL     O5   16   0.503  -0.152   0.053
    1UNL    C12   17   0.303  -0.127  -0.094
    1UNL     O6   18   0.316  -0.263  -0.092
    1UNL    C13   19  -0.167  -0.219   0.008
    1UNL    C14   20  -0.202  -0.244  -0.144
    1UNL     O7   21  -0.132  -0.339   0.065
    1UNL    C15   22  -0.291  -0.152   0.085
    1UNL    C16   23  -0.317  -0.006   0.054
    1UNL     H1   24  -0.463   0.169  -0.124
    1UNL     H2   25  -0.399   0.306  -0.192
    1UNL     H3   26  -0.340   0.153  -0.261
    1UNL     H4   27  -0.171   0.254  -0.132
    1UNL     H5   28  -0.336   0.238   0.131
    1UNL     H6   29  -0.340   0.377   0.010
    1UNL     H7   30  -0.197   0.334   0.097
    1UNL     H8   31  -0.005   0.070  -0.091
    1UNL     H9   32  -0.044  -0.088   0.128
    1UNL    H10   33   0.228  -0.100   0.098
    1UNL    H11   34   0.297   0.173  -0.124
    1UNL    H12   35   0.241   0.242   0.172
    1UNL    H13   36   0.349   0.342   0.065
    1UNL    H14   37   0.066   0.267   0.023
    1UNL    H15   38   0.495   0.141   0.028
    1UNL    H16   39   0.467  -0.032   0.199
    1UNL    H17   40   0.505  -0.059  -0.123
    1UNL    H18   41   0.509  -0.240   0.005
    1UNL    H19   42   0.293  -0.096  -0.203
    1UNL    H20   43   0.235  -0.311  -0.124
    1UNL    H21   44  -0.249  -0.163  -0.187
    1UNL    H22   45  -0.116  -0.271  -0.196
    1UNL    H23   46  -0.264  -0.328  -0.142
    1UNL    H24   47  -0.036  -0.351   0.054
    1UNL    H25   48  -0.372  -0.211   0.051
    1UNL    H26   49  -0.265  -0.168   0.193
    1UNL    H27   50  -0.421   0.009   0.017
    1UNL    H28   51  -0.311   0.044   0.154
   0.00000   0.00000   0.00000   0.00000   0.00000   0.00000   0.00000   0.00000   0.00000
Generated with MDTraj, t= 50.0
 51
    1UNL     C1    1  -0.371   0.209  -0.164
    1UNL     C2    2  -0.265   0.214  -0.052
    1UNL     C3    3  -0.309   0.309   0.065
    1UNL     C4    4  -0.221   0.080   0.000
    1UNL     C5    5  -0.094   0.046   0.006
    1UNL     C6    6  -0.041  -0.099   0.017
    1UNL     O1    7   0.069  -0.133  -0.068
    1UNL     C7    8   0.184  -0.065  -0.038
    1UNL     O2    9   0.193   0.075  -0.085
    1UNL     C8   10   0.295   0.143  -0.018
    1UNL     C9   11   0.231   0.254   0.072
    1UNL     O3   12   0.162   0.338  -0.004
    1UNL    C10   13   0.396   0.054   0.057
    1UNL     O4   14   0.347   0.005   0.175
    1UNL    C11   15   0.440  -0.064  -0.032
    1UNL     O5   16   0.514  -0.152   0.041
    1UNL    C12   17   0.311  -0.138  -0.083
    1UNL     O6   18   0.310  -0.273  -0.050
    1UNL    C13   19  -0.148  -0.210   0.010
    1UNL    C14   20  -0.179  -0.259  -0.131
    1UNL     O7   21  -0.099  -0.331   0.081
    1UNL    C15   22  -0.278  -0.160   0.084
    1UNL    C16   23  -0.328  -0.025   0.033
    1UNL     H1   24  -0.471   0.168  -0.135
    1UNL     H2   25  -0.397   0.310  -0.186
    1UNL     H3   26  -0.331   0.163  -0.251
    1UNL     H4   27  -0.176   0.261  -0.104
    1UNL     H5   28  -0.419   0.300   0.064
    1UNL     H6   29  -0.286   0.412   0.033
    1UNL     H7   30  -0.274   0.295   0.165
    1UNL     H8   31  -0.014   0.112  -0.035
    1UNL     H9   32  -0.012  -0.110   0.124
    1UNL    H10   33   0.187  -0.054   0.072
    1UNL    H11   34   0.351   0.195  -0.094
    1UNL    H12   35   0.172   0.203   0.149
    1UNL    H13   36   0.309   0.313   0.134
    1UNL    H14   37   0.110   0.279  -0.066
    1UNL    H15   38   0.489   0.113   0.085
    1UNL    H16   39   0.373  -0.088   0.182
    1UNL    H17   40   0.511  -0.036  -0.117
    1UNL    H18   41   0.494  -0.242   0.010
    1UNL    H19   42   0.307  -0.127  -0.198
    1UNL    H20   43   0.222  -0.310  -0.083
    1UNL    H21   44  -0.232  -0.188  -0.186
    1UNL    H22   45  -0.095  -0.285  -0.188
    1UNL    H23   46  -0.239  -0.341  -0.120
    1UNL    H24   47  -0.005  -0.337   0.072
    1UNL    H25   48  -0.350  -0.236   0.072
    1UNL    H26   49  -0.247  -0.155   0.192
    1UNL    H27   50  -0.373  -0.053  -0.061
    1UNL    H28   51  -0.404   0.016   0.107
   0.00000   0.00000   0.00000   0.00000   0.00000   0.00000   0.00000   0.00000   0.00000
Generated with MDTraj, t= 51.0
 51
    1UNL     C1    1  -0.363   0.232  -0.153
    1UNL     C2    2  -0.270   0.218  -0.039
    1UNL     C3    3  -0.327   0.267   0.099
    1UNL     C4    4  -0.224   0.078  -0.022
    1UNL     C5    5  -0.098   0.048  -0.016
    1UNL     C6    6  -0.038  -0.092   0.010
    1UNL     O1    7   0.061  -0.119  -0.092
    1UNL     C7    8   0.184  -0.055  -0.054
    1UNL     O2    9   0.212   0.079  -0.102
    1UNL     C8   10   0.317   0.144  -0.028
    1UNL     C9   11   0.242   0.243   0.065
    1UNL     O3   12   0.149   0.333  -0.006
    1UNL    C10   13   0.403   0.045   0.062
    1UNL     O4   14   0.325   0.009   0.177
    1UNL    C11   15   0.436  -0.072  -0.032
    1UNL     O5   16   0.516  -0.162   0.033
    1UNL    C12   17   0.302  -0.145  -0.078
    1UNL     O6   18   0.291  -0.267  -0.006
    1UNL    C13   19  -0.145  -0.210   0.011
    1UNL    C14   20  -0.170  -0.264  -0.135
    1UNL     O7   21  -0.079  -0.307   0.102
    1UNL    C15   22  -0.270  -0.154   0.083
    1UNL    C16   23  -0.325  -0.035   0.010
    1UNL     H1   24  -0.468   0.211  -0.118
    1UNL     H2   25  -0.374   0.334  -0.187
    1UNL     H3   26  -0.333   0.170  -0.231
    1UNL     H4   27  -0.181   0.279  -0.076
    1UNL     H5   28  -0.352   0.177   0.160
    1UNL     H6   29  -0.421   0.321   0.102
    1UNL     H7   30  -0.257   0.320   0.160
    1UNL     H8   31  -0.029   0.117  -0.046
    1UNL     H9   32   0.014  -0.092   0.108
    1UNL    H10   33   0.175  -0.055   0.055
    1UNL    H11   34   0.377   0.207  -0.088
    1UNL    H12   35   0.189   0.197   0.146
    1UNL    H13   36   0.315   0.309   0.124
    1UNL    H14   37   0.098   0.286  -0.073
    1UNL    H15   38   0.496   0.092   0.103
    1UNL    H16   39   0.343  -0.082   0.197
    1UNL    H17   40   0.503  -0.030  -0.117
    1UNL    H18   41   0.465  -0.233   0.084
    1UNL    H19   42   0.305  -0.174  -0.189
    1UNL    H20   43   0.198  -0.286   0.005
    1UNL    H21   44  -0.169  -0.187  -0.207
    1UNL    H22   45  -0.088  -0.318  -0.167
    1UNL    H23   46  -0.255  -0.318  -0.154
    1UNL    H24   47  -0.031  -0.370   0.048
    1UNL    H25   48  -0.337  -0.235   0.086
    1UNL    H26   49  -0.241  -0.125   0.187
    1UNL    H27   50  -0.368  -0.068  -0.081
    1UNL    H28   51  -0.403   0.004   0.085
   0.00000   0.00000   0.00000   0.00000   0.00000   0.00000   0.00000   0.00000   0.00000
Generated with MDTraj, t= 52.0
 51
    1UNL     C1    1  -0.392   0.245  -0.132
    1UNL     C2    2  -0.283   0.220  -0.026
    1UNL     C3    3  -0.336   0.256   0.114
    1UNL     C4    4  -0.236   0.075  -0.026
    1UNL     C5    5  -0.108   0.046  -0.026
    1UNL     C6    6  -0.050  -0.087  -0.000
    1UNL     O1    7   0.067  -0.121  -0.079
    1UNL     C7    8   0.186  -0.059  -0.036
    1UNL     O2    9   0.209   0.063  -0.102
    1UNL     C8   10   0.311   0.142  -0.027
    1UNL     C9   11   0.250   0.244   0.060
    1UNL     O3   12   0.147   0.313  -0.020
    1UNL    C10   13   0.427   0.055   0.040
    1UNL     O4   14   0.396   0.031   0.180
    1UNL    C11   15   0.449  -0.078  -0.032
    1UNL     O5   16   0.526  -0.160   0.049
    1UNL    C12   17   0.309  -0.153  -0.054
    1UNL     O6   18   0.314  -0.276   0.014
    1UNL    C13   19  -0.150  -0.199  -0.003
    1UNL    C14   20  -0.162  -0.262  -0.143
    1UNL     O7   21  -0.103  -0.295   0.087
    1UNL    C15   22  -0.298  -0.159   0.054
    1UNL    C16   23  -0.356  -0.025  -0.003
    1UNL     H1   24  -0.481   0.184  -0.104
    1UNL     H2   25  -0.439   0.343  -0.136
    1UNL     H3   26  -0.360   0.215  -0.227
    1UNL     H4   27  -0.203   0.294  -0.057
    1UNL     H5   28  -0.444   0.278   0.116
    1UNL     H6   29  -0.298   0.353   0.142
    1UNL     H7   30  -0.305   0.193   0.199
    1UNL     H8   31  -0.040   0.130  -0.052
    1UNL     H9   32  -0.006  -0.083   0.103
    1UNL    H10   33   0.181  -0.039   0.072
    1UNL    H11   34   0.361   0.180  -0.111
    1UNL    H12   35   0.207   0.203   0.147
    1UNL    H13   36   0.323   0.319   0.103
    1UNL    H14   37   0.102   0.246  -0.078
    1UNL    H15   38   0.521   0.111   0.041
    1UNL    H16   39   0.404  -0.070   0.193
    1UNL    H17   40   0.495  -0.063  -0.138
    1UNL    H18   41   0.480  -0.245   0.054
    1UNL    H19   42   0.291  -0.184  -0.164
    1UNL    H20   43   0.226  -0.316   0.022
    1UNL    H21   44  -0.228  -0.211  -0.206
    1UNL    H22   45  -0.072  -0.261  -0.195
    1UNL    H23   46  -0.204  -0.359  -0.135
    1UNL    H24   47  -0.017  -0.328   0.056
    1UNL    H25   48  -0.364  -0.242   0.044
    1UNL    H26   49  -0.286  -0.152   0.164
    1UNL    H27   50  -0.392  -0.041  -0.099
    1UNL    H28   51  -0.430   0.030   0.066
   0.00000   0.00000   0.00000   0.00000   0.00000   0.00000   0.00000   0.00000   0.00000
Generated with MDTraj, t= 53.0
 51
    1UNL     C1    1  -0.387   0.248  -0.128
    1UNL     C2    2  -0.271   0.217  -0.031
    1UNL     C3    3  -0.310   0.271   0.112
    1UNL     C4    4  -0.230   0.072  -0.024
    1UNL     C5    5  -0.104   0.038   0.000
    1UNL     C6    6  -0.055  -0.098   0.030
    1UNL     O1    7   0.067  -0.142  -0.031
    1UNL     C7    8   0.184  -0.063  -0.013
    1UNL     O2    9   0.189   0.069  -0.079
    1UNL     C8   10   0.309   0.143  -0.048
    1UNL     C9   11   0.262   0.258   0.039
    1UNL     O3   12   0.147   0.322  -0.007
    1UNL    C10   13   0.430   0.061   0.021
    1UNL     O4   14   0.407   0.046   0.163
    1UNL    C11   15   0.442  -0.078  -0.041
    1UNL     O5   16   0.525  -0.153   0.042
    1UNL    C12   17   0.301  -0.153  -0.049
    1UNL     O6   18   0.309  -0.264   0.034
    1UNL    C13   19  -0.164  -0.210  -0.010
    1UNL    C14   20  -0.168  -0.238  -0.164
    1UNL     O7   21  -0.126  -0.336   0.057
    1UNL    C15   22  -0.299  -0.163   0.047
    1UNL    C16   23  -0.340  -0.037  -0.036
    1UNL     H1   24  -0.467   0.181  -0.101
    1UNL     H2   25  -0.442   0.342  -0.125
    1UNL     H3   26  -0.356   0.220  -0.229
    1UNL     H4   27  -0.189   0.285  -0.065
    1UNL     H5   28  -0.369   0.195   0.163
    1UNL     H6   29  -0.379   0.352   0.104
    1UNL     H7   30  -0.220   0.311   0.170
    1UNL     H8   31  -0.029   0.117   0.019
    1UNL     H9   32  -0.021  -0.094   0.136
    1UNL    H10   33   0.194  -0.036   0.093
    1UNL    H11   34   0.345   0.176  -0.143
    1UNL    H12   35   0.233   0.217   0.131
    1UNL    H13   36   0.341   0.332   0.052
    1UNL    H14   37   0.086   0.261  -0.052
    1UNL    H15   38   0.518   0.123   0.015
    1UNL    H16   39   0.428  -0.042   0.194
    1UNL    H17   40   0.491  -0.061  -0.146
    1UNL    H18   41   0.474  -0.230   0.080
    1UNL    H19   42   0.281  -0.189  -0.156
    1UNL    H20   43   0.221  -0.314   0.043
    1UNL    H21   44  -0.178  -0.152  -0.222
    1UNL    H22   45  -0.072  -0.275  -0.185
    1UNL    H23   46  -0.248  -0.305  -0.183
    1UNL    H24   47  -0.034  -0.355   0.027
    1UNL    H25   48  -0.372  -0.242   0.053
    1UNL    H26   49  -0.289  -0.134   0.153
    1UNL    H27   50  -0.355  -0.057  -0.138
    1UNL    H28   51  -0.427   0.009   0.022
   0.00000   0.00000   0.00000   0.00000   0.00000   0.00000   0.00000   0.00000   0.00000
Generated with MDTraj, t= 54.0
 51
    1UNL     C1    1  -0.341   0.243  -0.140
    1UNL     C2    2  -0.245   0.214  -0.029
    1UNL     C3    3  -0.257   0.308   0.100
    1UNL     C4    4  -0.227   0.066   0.006
    1UNL     C5    5  -0.099   0.023   0.017
    1UNL     C6    6  -0.063  -0.124   0.038
    1UNL     O1    7   0.060  -0.159  -0.016
    1UNL     C7    8   0.175  -0.077   0.005
    1UNL     O2    9   0.173   0.059  -0.058
    1UNL     C8   10   0.283   0.142  -0.038
    1UNL     C9   11   0.252   0.282   0.035
    1UNL     O3   12   0.152   0.345  -0.027
    1UNL    C10   13   0.410   0.073   0.026
    1UNL     O4   14   0.390   0.051   0.160
    1UNL    C11   15   0.426  -0.060  -0.048
    1UNL     O5   16   0.532  -0.134   0.014
    1UNL    C12   17   0.299  -0.151  -0.044
    1UNL     O6   18   0.316  -0.255   0.043
    1UNL    C13   19  -0.167  -0.230  -0.022
    1UNL    C14   20  -0.156  -0.243  -0.178
    1UNL     O7   21  -0.147  -0.361   0.038
    1UNL    C15   22  -0.309  -0.182   0.014
    1UNL    C16   23  -0.348  -0.025   0.007
    1UNL     H1   24  -0.439   0.226  -0.114
    1UNL     H2   25  -0.341   0.348  -0.165
    1UNL     H3   26  -0.314   0.177  -0.227
    1UNL     H4   27  -0.151   0.251  -0.074
    1UNL     H5   28  -0.361   0.317   0.123
    1UNL     H6   29  -0.214   0.409   0.101
    1UNL     H7   30  -0.199   0.255   0.182
    1UNL     H8   31  -0.018   0.084   0.011
    1UNL     H9   32  -0.056  -0.141   0.146
    1UNL    H10   33   0.181  -0.060   0.114
    1UNL    H11   34   0.309   0.177  -0.138
    1UNL    H12   35   0.227   0.265   0.135
    1UNL    H13   36   0.336   0.345   0.024
    1UNL    H14   37   0.076   0.284  -0.044
    1UNL    H15   38   0.503   0.128   0.022
    1UNL    H16   39   0.420  -0.042   0.183
    1UNL    H17   40   0.476  -0.045  -0.151
    1UNL    H18   41   0.496  -0.219   0.043
    1UNL    H19   42   0.280  -0.199  -0.144
    1UNL    H20   43   0.232  -0.307   0.056
    1UNL    H21   44  -0.150  -0.144  -0.216
    1UNL    H22   45  -0.060  -0.284  -0.199
    1UNL    H23   46  -0.239  -0.291  -0.219
    1UNL    H24   47  -0.050  -0.380   0.014
    1UNL    H25   48  -0.391  -0.242  -0.021
    1UNL    H26   49  -0.316  -0.213   0.119
    1UNL    H27   50  -0.392  -0.014  -0.088
    1UNL    H28   51  -0.414   0.001   0.096
   0.00000   0.00000   0.00000   0.00000   0.00000   0.00000   0.00000   0.00000   0.00000
Generated with MDTraj, t= 55.0
 51
    1UNL     C1    1  -0.331   0.240  -0.146
    1UNL     C2    2  -0.220   0.211  -0.036
    1UNL     C3    3  -0.224   0.283   0.101
    1UNL     C4    4  -0.209   0.065  -0.010
    1UNL     C5    5  -0.087   0.017   0.018
    1UNL     C6    6  -0.056  -0.130   0.042
    1UNL     O1    7   0.070  -0.178  -0.010
    1UNL     C7    8   0.177  -0.094   0.003
    1UNL     O2    9   0.165   0.040  -0.058
    1UNL     C8   10   0.263   0.138  -0.034
    1UNL     C9   11   0.209   0.264   0.041
    1UNL     O3   12   0.133   0.342  -0.051
    1UNL    C10   13   0.385   0.074   0.040
    1UNL     O4   14   0.362   0.050   0.174
    1UNL    C11   15   0.422  -0.052  -0.041
    1UNL     O5   16   0.545  -0.108   0.001
    1UNL    C12   17   0.309  -0.162  -0.044
    1UNL     O6   18   0.345  -0.272   0.037
    1UNL    C13   19  -0.177  -0.213  -0.010
    1UNL    C14   20  -0.170  -0.198  -0.166
    1UNL     O7   21  -0.151  -0.348   0.018
    1UNL    C15   22  -0.311  -0.157   0.050
    1UNL    C16   23  -0.334  -0.011  -0.002
    1UNL     H1   24  -0.432   0.233  -0.118
    1UNL     H2   25  -0.325   0.340  -0.186
    1UNL     H3   26  -0.316   0.168  -0.229
    1UNL     H4   27  -0.124   0.237  -0.083
    1UNL     H5   28  -0.298   0.227   0.158
    1UNL     H6   29  -0.275   0.381   0.104
    1UNL     H7   30  -0.123   0.293   0.153
    1UNL     H8   31  -0.004   0.085   0.008
    1UNL     H9   32  -0.049  -0.149   0.150
    1UNL    H10   33   0.191  -0.089   0.113
    1UNL    H11   34   0.292   0.180  -0.135
    1UNL    H12   35   0.144   0.225   0.115
    1UNL    H13   36   0.289   0.319   0.077
    1UNL    H14   37   0.093   0.284  -0.121
    1UNL    H15   38   0.467   0.145   0.037
    1UNL    H16   39   0.416  -0.032   0.204
    1UNL    H17   40   0.432  -0.021  -0.149
    1UNL    H18   41   0.522  -0.197   0.038
    1UNL    H19   42   0.281  -0.201  -0.143
    1UNL    H20   43   0.270  -0.330   0.044
    1UNL    H21   44  -0.215  -0.111  -0.208
    1UNL    H22   45  -0.067  -0.203  -0.194
    1UNL    H23   46  -0.230  -0.276  -0.202
    1UNL    H24   47  -0.060  -0.373  -0.015
    1UNL    H25   48  -0.389  -0.227   0.020
    1UNL    H26   49  -0.331  -0.168   0.156
    1UNL    H27   50  -0.375  -0.019  -0.101
    1UNL    H28   51  -0.396   0.046   0.074
   0.00000   0.00000   0.00000   0.00000   0.00000   0.00000   0.00000   0.00000   0.00000
Generated with MDTraj, t= 56.0
 51
    1UNL     C1    1  -0.339   0.251  -0.110
    1UNL     C2    2  -0.220   0.227  -0.029
    1UNL     C3    3  -0.224   0.311   0.094
    1UNL     C4    4  -0.209   0.080  -0.001
    1UNL     C5    5  -0.086   0.027  -0.001
    1UNL     C6    6  -0.053  -0.118   0.028
    1UNL     O1    7   0.068  -0.165  -0.037
    1UNL     C7    8   0.184  -0.083  -0.025
    1UNL     O2    9   0.184   0.038  -0.098
    1UNL     C8   10   0.274   0.145  -0.046
    1UNL     C9   11   0.201   0.243   0.040
    1UNL     O3   12   0.078   0.281  -0.034
    1UNL    C10   13   0.391   0.072   0.034
    1UNL     O4   14   0.351   0.037   0.167
    1UNL    C11   15   0.437  -0.061  -0.033
    1UNL     O5   16   0.552  -0.108   0.042
    1UNL    C12   17   0.314  -0.163  -0.044
    1UNL     O6   18   0.331  -0.258   0.051
    1UNL    C13   19  -0.170  -0.213  -0.020
    1UNL    C14   20  -0.167  -0.229  -0.171
    1UNL     O7   21  -0.143  -0.342   0.035
    1UNL    C15   22  -0.298  -0.154   0.042
    1UNL    C16   23  -0.329  -0.006   0.020
    1UNL     H1   24  -0.427   0.229  -0.050
    1UNL     H2   25  -0.350   0.353  -0.141
    1UNL     H3   26  -0.341   0.183  -0.194
    1UNL     H4   27  -0.130   0.246  -0.090
    1UNL     H5   28  -0.325   0.315   0.136
    1UNL     H6   29  -0.207   0.421   0.080
    1UNL     H7   30  -0.147   0.276   0.166
    1UNL     H8   31  -0.003   0.097  -0.033
    1UNL     H9   32  -0.046  -0.139   0.135
    1UNL    H10   33   0.195  -0.062   0.083
    1UNL    H11   34   0.315   0.188  -0.144
    1UNL    H12   35   0.169   0.195   0.128
    1UNL    H13   36   0.263   0.323   0.061
    1UNL    H14   37   0.105   0.334  -0.112
    1UNL    H15   38   0.479   0.140   0.037
    1UNL    H16   39   0.386  -0.055   0.178
    1UNL    H17   40   0.471  -0.029  -0.133
    1UNL    H18   41   0.529  -0.194   0.084
    1UNL    H19   42   0.318  -0.217  -0.138
    1UNL    H20   43   0.247  -0.310   0.071
    1UNL    H21   44  -0.170  -0.140  -0.228
    1UNL    H22   45  -0.078  -0.282  -0.196
    1UNL    H23   46  -0.259  -0.278  -0.200
    1UNL    H24   47  -0.065  -0.387   0.004
    1UNL    H25   48  -0.382  -0.211  -0.000
    1UNL    H26   49  -0.310  -0.194   0.141
    1UNL    H27   50  -0.379  -0.005  -0.078
    1UNL    H28   51  -0.394   0.031   0.105
   0.00000   0.00000   0.00000   0.00000   0.00000   0.00000   0.00000   0.00000   0.00000
Generated with MDTraj, t= 57.0
 51
    1UNL     C1    1  -0.366   0.271  -0.093
    1UNL     C2    2  -0.231   0.226  -0.034
    1UNL     C3    3  -0.207   0.292   0.104
    1UNL     C4    4  -0.214   0.071  -0.028
    1UNL     C5    5  -0.091   0.021  -0.054
    1UNL     C6    6  -0.052  -0.112  -0.005
    1UNL     O1    7   0.063  -0.154  -0.071
    1UNL     C7    8   0.177  -0.068  -0.032
    1UNL     O2    9   0.196   0.049  -0.114
    1UNL     C8   10   0.287   0.143  -0.047
    1UNL     C9   11   0.209   0.227   0.046
    1UNL     O3   12   0.091   0.283  -0.019
    1UNL    C10   13   0.404   0.073   0.030
    1UNL     O4   14   0.386   0.062   0.170
    1UNL    C11   15   0.437  -0.064  -0.019
    1UNL     O5   16   0.535  -0.126   0.065
    1UNL    C12   17   0.304  -0.161  -0.034
    1UNL     O6   18   0.293  -0.244   0.073
    1UNL    C13   19  -0.169  -0.221  -0.022
    1UNL    C14   20  -0.197  -0.253  -0.166
    1UNL     O7   21  -0.115  -0.338   0.036
    1UNL    C15   22  -0.286  -0.159   0.069
    1UNL    C16   23  -0.323  -0.017   0.023
    1UNL     H1   24  -0.441   0.226  -0.022
    1UNL     H2   25  -0.376   0.377  -0.081
    1UNL     H3   26  -0.383   0.232  -0.189
    1UNL     H4   27  -0.153   0.253  -0.106
    1UNL     H5   28  -0.267   0.245   0.184
    1UNL     H6   29  -0.254   0.395   0.106
    1UNL     H7   30  -0.099   0.296   0.130
    1UNL     H8   31  -0.015   0.096  -0.066
    1UNL     H9   32  -0.041  -0.117   0.104
    1UNL    H10   33   0.154  -0.033   0.069
    1UNL    H11   34   0.331   0.203  -0.133
    1UNL    H12   35   0.168   0.172   0.127
    1UNL    H13   36   0.258   0.307   0.086
    1UNL    H14   37   0.110   0.290  -0.115
    1UNL    H15   38   0.494   0.141   0.021
    1UNL    H16   39   0.388  -0.030   0.194
    1UNL    H17   40   0.482  -0.054  -0.117
    1UNL    H18   41   0.486  -0.185   0.128
    1UNL    H19   42   0.300  -0.208  -0.129
    1UNL    H20   43   0.197  -0.278   0.077
    1UNL    H21   44  -0.232  -0.167  -0.217
    1UNL    H22   45  -0.108  -0.282  -0.218
    1UNL    H23   46  -0.279  -0.323  -0.185
    1UNL    H24   47  -0.039  -0.371  -0.011
    1UNL    H25   48  -0.376  -0.223   0.060
    1UNL    H26   49  -0.272  -0.184   0.171
    1UNL    H27   50  -0.406  -0.026  -0.052
    1UNL    H28   51  -0.361   0.030   0.116
   0.00000   0.00000   0.00000   0.00000   0.00000   0.00000   0.00000   0.00000   0.00000
Generated with MDTraj, t= 58.0
 51
    1UNL     C1    1  -0.420   0.237  -0.058
    1UNL     C2    2  -0.263   0.222  -0.044
    1UNL     C3    3  -0.201   0.288   0.079
    1UNL     C4    4  -0.224   0.077  -0.024
    1UNL     C5    5  -0.098   0.032  -0.049
    1UNL     C6    6  -0.049  -0.108  -0.008
    1UNL     O1    7   0.068  -0.148  -0.079
    1UNL     C7    8   0.183  -0.073  -0.032
    1UNL     O2    9   0.208   0.042  -0.115
    1UNL     C8   10   0.296   0.130  -0.050
    1UNL     C9   11   0.218   0.231   0.036
    1UNL     O3   12   0.132   0.318  -0.026
    1UNL    C10   13   0.405   0.063   0.041
    1UNL     O4   14   0.373   0.047   0.180
    1UNL    C11   15   0.439  -0.072  -0.021
    1UNL     O5   16   0.545  -0.131   0.047
    1UNL    C12   17   0.308  -0.163  -0.017
    1UNL     O6   18   0.299  -0.236   0.100
    1UNL    C13   19  -0.161  -0.214  -0.027
    1UNL    C14   20  -0.208  -0.223  -0.167
    1UNL     O7   21  -0.116  -0.340   0.029
    1UNL    C15   22  -0.282  -0.160   0.061
    1UNL    C16   23  -0.332  -0.016   0.020
    1UNL     H1   24  -0.468   0.199   0.038
    1UNL     H2   25  -0.444   0.341  -0.066
    1UNL     H3   26  -0.454   0.176  -0.136
    1UNL     H4   27  -0.212   0.253  -0.134
    1UNL     H5   28  -0.269   0.274   0.164
    1UNL     H6   29  -0.206   0.399   0.061
    1UNL     H7   30  -0.103   0.242   0.103
    1UNL     H8   31  -0.023   0.103  -0.065
    1UNL     H9   32  -0.026  -0.121   0.100
    1UNL    H10   33   0.150  -0.043   0.067
    1UNL    H11   34   0.343   0.190  -0.132
    1UNL    H12   35   0.154   0.184   0.109
    1UNL    H13   36   0.282   0.289   0.089
    1UNL    H14   37   0.157   0.321  -0.122
    1UNL    H15   38   0.497   0.131   0.048
    1UNL    H16   39   0.341  -0.049   0.184
    1UNL    H17   40   0.471  -0.076  -0.122
    1UNL    H18   41   0.520  -0.157   0.138
    1UNL    H19   42   0.324  -0.237  -0.091
    1UNL    H20   43   0.217  -0.288   0.102
    1UNL    H21   44  -0.268  -0.142  -0.203
    1UNL    H22   45  -0.123  -0.234  -0.235
    1UNL    H23   46  -0.272  -0.309  -0.180
    1UNL    H24   47  -0.026  -0.366  -0.004
    1UNL    H25   48  -0.360  -0.238   0.072
    1UNL    H26   49  -0.257  -0.166   0.162
    1UNL    H27   50  -0.407  -0.032  -0.066
    1UNL    H28   51  -0.391   0.023   0.103
   0.00000   0.00000   0.00000   0.00000   0.00000   0.00000   0.00000   0.00000   0.00000
Generated with MDTraj, t= 59.0
 51
    1UNL     C1    1  -0.424   0.224  -0.057
    1UNL     C2    2  -0.275   0.209  -0.044
    1UNL     C3    3  -0.196   0.319   0.036
    1UNL     C4    4  -0.232   0.068  -0.005
    1UNL     C5    5  -0.100   0.037  -0.005
    1UNL     C6    6  -0.052  -0.107   0.012
    1UNL     O1    7   0.066  -0.136  -0.059
    1UNL     C7    8   0.174  -0.063  -0.011
    1UNL     O2    9   0.200   0.054  -0.088
    1UNL     C8   10   0.307   0.136  -0.038
    1UNL     C9   11   0.243   0.268   0.027
    1UNL     O3   12   0.136   0.309  -0.050
    1UNL    C10   13   0.410   0.061   0.051
    1UNL     O4   14   0.361   0.046   0.181
    1UNL    C11   15   0.430  -0.074  -0.024
    1UNL     O5   16   0.538  -0.156   0.014
    1UNL    C12   17   0.299  -0.154  -0.009
    1UNL     O6   18   0.311  -0.247   0.102
    1UNL    C13   19  -0.162  -0.209  -0.034
    1UNL    C14   20  -0.181  -0.214  -0.185
    1UNL     O7   21  -0.115  -0.335   0.011
    1UNL    C15   22  -0.293  -0.184   0.033
    1UNL    C16   23  -0.330  -0.035   0.043
    1UNL     H1   24  -0.470   0.232   0.043
    1UNL     H2   25  -0.444   0.318  -0.105
    1UNL     H3   26  -0.473   0.145  -0.110
    1UNL     H4   27  -0.233   0.215  -0.144
    1UNL     H5   28  -0.221   0.320   0.146
    1UNL     H6   29  -0.230   0.419   0.001
    1UNL     H7   30  -0.089   0.300   0.031
    1UNL     H8   31  -0.020   0.118  -0.013
    1UNL     H9   32  -0.028  -0.142   0.115
    1UNL    H10   33   0.137  -0.051   0.091
    1UNL    H11   34   0.349   0.173  -0.132
    1UNL    H12   35   0.211   0.235   0.127
    1UNL    H13   36   0.314   0.340   0.040
    1UNL    H14   37   0.119   0.238  -0.116
    1UNL    H15   38   0.509   0.116   0.051
    1UNL    H16   39   0.395  -0.042   0.218
    1UNL    H17   40   0.442  -0.057  -0.127
    1UNL    H18   41   0.509  -0.244   0.046
    1UNL    H19   42   0.285  -0.212  -0.097
    1UNL    H20   43   0.228  -0.294   0.099
    1UNL    H21   44  -0.197  -0.120  -0.239
    1UNL    H22   45  -0.089  -0.260  -0.221
    1UNL    H23   46  -0.259  -0.283  -0.208
    1UNL    H24   47  -0.019  -0.348  -0.018
    1UNL    H25   48  -0.373  -0.249  -0.011
    1UNL    H26   49  -0.296  -0.232   0.125
    1UNL    H27   50  -0.436  -0.022  -0.003
    1UNL    H28   51  -0.345  -0.017   0.148
   0.00000   0.00000   0.00000   0.00000   0.00000   0.00000   0.00000   0.00000   0.00000
Generated with MDTraj, t= 60.0
 51
    1UNL     C1    1  -0.415   0.236  -0.056
    1UNL     C2    2  -0.269   0.199  -0.060
    1UNL     C3    3  -0.201   0.304   0.019
    1UNL     C4    4  -0.235   0.060  -0.006
    1UNL     C5    5  -0.102   0.029  -0.007
    1UNL     C6    6  -0.066  -0.111   0.024
    1UNL     O1    7   0.065  -0.153  -0.007
    1UNL     C7    8   0.182  -0.075  -0.002
    1UNL     O2    9   0.178   0.047  -0.076
    1UNL     C8   10   0.293   0.134  -0.056
    1UNL     C9   11   0.247   0.254   0.033
    1UNL     O3   12   0.145   0.336  -0.027
    1UNL    C10   13   0.409   0.063   0.020
    1UNL     O4   14   0.384   0.065   0.163
    1UNL    C11   15   0.442  -0.080  -0.032
    1UNL     O5   16   0.533  -0.133   0.061
    1UNL    C12   17   0.309  -0.164  -0.031
    1UNL     O6   18   0.327  -0.262   0.078
    1UNL    C13   19  -0.172  -0.212  -0.037
    1UNL    C14   20  -0.185  -0.189  -0.187
    1UNL     O7   21  -0.124  -0.342  -0.007
    1UNL    C15   22  -0.301  -0.180   0.037
    1UNL    C16   23  -0.338  -0.034   0.046
    1UNL     H1   24  -0.455   0.239   0.043
    1UNL     H2   25  -0.432   0.334  -0.099
    1UNL     H3   26  -0.478   0.165  -0.111
    1UNL     H4   27  -0.232   0.198  -0.162
    1UNL     H5   28  -0.229   0.283   0.127
    1UNL     H6   29  -0.243   0.407   0.007
    1UNL     H7   30  -0.093   0.305   0.027
    1UNL     H8   31  -0.036   0.086  -0.063
    1UNL     H9   32  -0.071  -0.135   0.132
    1UNL    H10   33   0.190  -0.059   0.106
    1UNL    H11   34   0.309   0.173  -0.154
    1UNL    H12   35   0.218   0.213   0.133
    1UNL    H13   36   0.336   0.306   0.053
    1UNL    H14   37   0.151   0.333  -0.124
    1UNL    H15   38   0.500   0.123  -0.002
    1UNL    H16   39   0.438  -0.004   0.205
    1UNL    H17   40   0.489  -0.079  -0.125
    1UNL    H18   41   0.517  -0.230   0.077
    1UNL    H19   42   0.309  -0.216  -0.127
    1UNL    H20   43   0.245  -0.319   0.079
    1UNL    H21   44  -0.231  -0.090  -0.192
    1UNL    H22   45  -0.088  -0.181  -0.236
    1UNL    H23   46  -0.249  -0.265  -0.232
    1UNL    H24   47  -0.039  -0.357  -0.046
    1UNL    H25   48  -0.386  -0.238  -0.003
    1UNL    H26   49  -0.302  -0.220   0.134
    1UNL    H27   50  -0.437  -0.013  -0.011
    1UNL    H28   51  -0.365  -0.006   0.148
   0.00000   0.00000   0.00000   0.00000   0.00000   0.00000   0.00000   0.00000   0.00000
Generated with MDTraj, t= 61.0
 51
    1UNL     C1    1  -0.384   0.248  -0.069
    1UNL     C2    2  -0.237   0.208  -0.051
    1UNL     C3    3  -0.178   0.314   0.039
    1UNL     C4    4  -0.213   0.062  -0.012
    1UNL     C5    5  -0.086   0.013  -0.004
    1UNL     C6    6  -0.050  -0.129   0.020
    1UNL     O1    7   0.073  -0.180  -0.036
    1UNL     C7    8   0.176  -0.087  -0.003
    1UNL     O2    9   0.169   0.044  -0.073
    1UNL     C8   10   0.270   0.144  -0.026
    1UNL     C9   11   0.209   0.256   0.045
    1UNL     O3   12   0.115   0.320  -0.043
    1UNL    C10   13   0.404   0.079   0.026
    1UNL     O4   14   0.403   0.087   0.171
    1UNL    C11   15   0.438  -0.062  -0.026
    1UNL     O5   16   0.527  -0.134   0.061
    1UNL    C12   17   0.307  -0.155  -0.042
    1UNL     O6   18   0.315  -0.268   0.043
    1UNL    C13   19  -0.175  -0.217  -0.025
    1UNL    C14   20  -0.183  -0.215  -0.175
    1UNL     O7   21  -0.150  -0.350   0.008
    1UNL    C15   22  -0.300  -0.169   0.050
    1UNL    C16   23  -0.331  -0.023   0.023
    1UNL     H1   24  -0.439   0.232   0.016
    1UNL     H2   25  -0.390   0.354  -0.093
    1UNL     H3   26  -0.434   0.187  -0.149
    1UNL     H4   27  -0.193   0.216  -0.151
    1UNL     H5   28  -0.235   0.318   0.136
    1UNL     H6   29  -0.201   0.414  -0.002
    1UNL     H7   30  -0.075   0.309   0.073
    1UNL     H8   31  -0.008   0.076  -0.044
    1UNL     H9   32  -0.036  -0.148   0.128
    1UNL    H10   33   0.166  -0.065   0.104
    1UNL    H11   34   0.302   0.185  -0.118
    1UNL    H12   35   0.152   0.220   0.133
    1UNL    H13   36   0.283   0.326   0.083
    1UNL    H14   37   0.155   0.342  -0.132
    1UNL    H15   38   0.480   0.147  -0.012
    1UNL    H16   39   0.484   0.047   0.207
    1UNL    H17   40   0.489  -0.062  -0.117
    1UNL    H18   41   0.470  -0.191   0.115
    1UNL    H19   42   0.305  -0.179  -0.151
    1UNL    H20   43   0.227  -0.316   0.040
    1UNL    H21   44  -0.202  -0.113  -0.211
    1UNL    H22   45  -0.083  -0.236  -0.213
    1UNL    H23   46  -0.253  -0.298  -0.203
    1UNL    H24   47  -0.067  -0.389  -0.031
    1UNL    H25   48  -0.392  -0.226   0.040
    1UNL    H26   49  -0.285  -0.173   0.156
    1UNL    H27   50  -0.409  -0.011  -0.058
    1UNL    H28   51  -0.377   0.021   0.113
   0.00000   0.00000   0.00000   0.00000   0.00000   0.00000   0.00000   0.00000   0.00000
Generated with MDTraj, t= 62.0
 51
    1UNL     C1    1  -0.346   0.277  -0.107
    1UNL     C2    2  -0.222   0.227  -0.037
    1UNL     C3    3  -0.194   0.287   0.101
    1UNL     C4    4  -0.213   0.076  -0.013
    1UNL     C5    5  -0.090   0.019  -0.006
    1UNL     C6    6  -0.049  -0.123   0.021
    1UNL     O1    7   0.068  -0.165  -0.049
    1UNL     C7    8   0.185  -0.079  -0.028
    1UNL     O2    9   0.184   0.051  -0.095
    1UNL     C8   10   0.287   0.150  -0.053
    1UNL     C9   11   0.214   0.251   0.026
    1UNL     O3   12   0.096   0.296  -0.029
    1UNL    C10   13   0.393   0.076   0.040
    1UNL     O4   14   0.326   0.049   0.166
    1UNL    C11   15   0.441  -0.053  -0.022
    1UNL     O5   16   0.522  -0.118   0.075
    1UNL    C12   17   0.322  -0.149  -0.063
    1UNL     O6   18   0.317  -0.266   0.014
    1UNL    C13   19  -0.167  -0.222  -0.007
    1UNL    C14   20  -0.177  -0.250  -0.158
    1UNL     O7   21  -0.135  -0.347   0.068
    1UNL    C15   22  -0.294  -0.164   0.050
    1UNL    C16   23  -0.338  -0.014  -0.004
    1UNL     H1   24  -0.429   0.239  -0.056
    1UNL     H2   25  -0.349   0.385  -0.096
    1UNL     H3   26  -0.361   0.254  -0.215
    1UNL     H4   27  -0.139   0.255  -0.104
    1UNL     H5   28  -0.277   0.275   0.174
    1UNL     H6   29  -0.178   0.394   0.083
    1UNL     H7   30  -0.103   0.234   0.137
    1UNL     H8   31   0.000   0.088  -0.011
    1UNL     H9   32  -0.029  -0.135   0.129
    1UNL    H10   33   0.183  -0.059   0.081
    1UNL    H11   34   0.340   0.188  -0.136
    1UNL    H12   35   0.180   0.201   0.119
    1UNL    H13   36   0.265   0.345   0.062
    1UNL    H14   37   0.103   0.287  -0.127
    1UNL    H15   38   0.473   0.142   0.052
    1UNL    H16   39   0.352  -0.043   0.195
    1UNL    H17   40   0.501  -0.039  -0.107
    1UNL    H18   41   0.501  -0.215   0.060
    1UNL    H19   42   0.332  -0.174  -0.173
    1UNL    H20   43   0.225  -0.290   0.026
    1UNL    H21   44  -0.183  -0.153  -0.212
    1UNL    H22   45  -0.080  -0.284  -0.200
    1UNL    H23   46  -0.254  -0.332  -0.171
    1UNL    H24   47  -0.040  -0.381   0.055
    1UNL    H25   48  -0.380  -0.226   0.044
    1UNL    H26   49  -0.281  -0.158   0.158
    1UNL    H27   50  -0.393  -0.019  -0.098
    1UNL    H28   51  -0.408   0.033   0.069
   0.00000   0.00000   0.00000   0.00000   0.00000   0.00000   0.00000   0.00000   0.00000
Generated with MDTraj, t= 63.0
 51
    1UNL     C1    1  -0.329   0.275  -0.123
    1UNL     C2    2  -0.230   0.230  -0.006
    1UNL     C3    3  -0.274   0.268   0.144
    1UNL     C4    4  -0.198   0.083  -0.017
    1UNL     C5    5  -0.072   0.038  -0.008
    1UNL     C6    6  -0.034  -0.108   0.006
    1UNL     O1    7   0.072  -0.158  -0.073
    1UNL     C7    8   0.187  -0.082  -0.041
    1UNL     O2    9   0.186   0.045  -0.098
    1UNL     C8   10   0.276   0.140  -0.041
    1UNL     C9   11   0.190   0.250   0.031
    1UNL     O3   12   0.114   0.304  -0.067
    1UNL    C10   13   0.375   0.065   0.051
    1UNL     O4   14   0.323   0.040   0.180
    1UNL    C11   15   0.437  -0.061  -0.022
    1UNL     O5   16   0.522  -0.133   0.078
    1UNL    C12   17   0.322  -0.152  -0.070
    1UNL     O6   18   0.325  -0.284  -0.015
    1UNL    C13   19  -0.157  -0.207   0.002
    1UNL    C14   20  -0.178  -0.272  -0.139
    1UNL     O7   21  -0.124  -0.308   0.096
    1UNL    C15   22  -0.287  -0.145   0.052
    1UNL    C16   23  -0.313  -0.014  -0.025
    1UNL     H1   24  -0.432   0.248  -0.100
    1UNL     H2   25  -0.330   0.381  -0.137
    1UNL     H3   26  -0.313   0.233  -0.222
    1UNL     H4   27  -0.137   0.288  -0.021
    1UNL     H5   28  -0.358   0.210   0.182
    1UNL     H6   29  -0.305   0.371   0.132
    1UNL     H7   30  -0.184   0.252   0.209
    1UNL     H8   31   0.003   0.110   0.008
    1UNL     H9   32  -0.000  -0.116   0.110
    1UNL    H10   33   0.187  -0.079   0.070
    1UNL    H11   34   0.333   0.188  -0.120
    1UNL    H12   35   0.124   0.225   0.117
    1UNL    H13   36   0.257   0.335   0.072
    1UNL    H14   37   0.092   0.239  -0.136
    1UNL    H15   38   0.454   0.132   0.063
    1UNL    H16   39   0.372  -0.035   0.211
    1UNL    H17   40   0.506  -0.022  -0.092
    1UNL    H18   41   0.510  -0.228   0.061
    1UNL    H19   42   0.329  -0.166  -0.182
    1UNL    H20   43   0.228  -0.315  -0.009
    1UNL    H21   44  -0.172  -0.189  -0.213
    1UNL    H22   45  -0.089  -0.330  -0.178
    1UNL    H23   46  -0.264  -0.344  -0.131
    1UNL    H24   47  -0.026  -0.335   0.092
    1UNL    H25   48  -0.365  -0.214   0.037
    1UNL    H26   49  -0.299  -0.123   0.160
    1UNL    H27   50  -0.333  -0.037  -0.126
    1UNL    H28   51  -0.404   0.043   0.015
   0.00000   0.00000   0.00000   0.00000   0.00000   0.00000   0.00000   0.00000   0.00000
Generated with MDTraj, t= 64.0
 51
    1UNL     C1    1  -0.300   0.277  -0.130
    1UNL     C2    2  -0.241   0.218   0.000
    1UNL     C3    3  -0.332   0.249   0.113
    1UNL     C4    4  -0.217   0.073  -0.011
    1UNL     C5    5  -0.091   0.029  -0.012
    1UNL     C6    6  -0.038  -0.108   0.018
    1UNL     O1    7   0.073  -0.147  -0.058
    1UNL     C7    8   0.188  -0.067  -0.040
    1UNL     O2    9   0.184   0.067  -0.089
    1UNL     C8   10   0.299   0.147  -0.058
    1UNL     C9   11   0.248   0.272   0.022
    1UNL     O3   12   0.136   0.326  -0.050
    1UNL    C10   13   0.395   0.067   0.039
    1UNL     O4   14   0.342   0.055   0.171
    1UNL    C11   15   0.440  -0.075  -0.020
    1UNL     O5   16   0.505  -0.153   0.092
    1UNL    C12   17   0.317  -0.148  -0.077
    1UNL     O6   18   0.307  -0.284  -0.038
    1UNL    C13   19  -0.157  -0.213   0.008
    1UNL    C14   20  -0.174  -0.271  -0.135
    1UNL     O7   21  -0.129  -0.321   0.100
    1UNL    C15   22  -0.294  -0.158   0.050
    1UNL    C16   23  -0.332  -0.026  -0.003
    1UNL     H1   24  -0.392   0.225  -0.169
    1UNL     H2   25  -0.315   0.382  -0.124
    1UNL     H3   26  -0.228   0.259  -0.204
    1UNL     H4   27  -0.142   0.266   0.025
    1UNL     H5   28  -0.436   0.232   0.089
    1UNL     H6   29  -0.331   0.352   0.146
    1UNL     H7   30  -0.301   0.181   0.195
    1UNL     H8   31  -0.017   0.099  -0.027
    1UNL     H9   32  -0.009  -0.108   0.123
    1UNL    H10   33   0.186  -0.054   0.070
    1UNL    H11   34   0.347   0.178  -0.152
    1UNL    H12   35   0.220   0.234   0.123
    1UNL    H13   36   0.336   0.350   0.038
    1UNL    H14   37   0.100   0.259  -0.115
    1UNL    H15   38   0.483   0.123   0.052
    1UNL    H16   39   0.419   0.025   0.233
    1UNL    H17   40   0.514  -0.057  -0.098
    1UNL    H18   41   0.478  -0.246   0.068
    1UNL    H19   42   0.313  -0.148  -0.188
    1UNL    H20   43   0.211  -0.301  -0.038
    1UNL    H21   44  -0.195  -0.193  -0.216
    1UNL    H22   45  -0.080  -0.313  -0.181
    1UNL    H23   46  -0.242  -0.360  -0.119
    1UNL    H24   47  -0.037  -0.358   0.098
    1UNL    H25   48  -0.375  -0.220   0.030
    1UNL    H26   49  -0.300  -0.151   0.162
    1UNL    H27   50  -0.360  -0.042  -0.103
    1UNL    H28   51  -0.428   0.013   0.049
   0.00000   0.00000   0.00000   0.00000   0.00000   0.00000   0.00000   0.00000   0.00000
Generated with MDTraj, t= 65.0
 51
    1UNL     C1    1  -0.278   0.244  -0.154
    1UNL     C2    2  -0.258   0.213  -0.005
    1UNL     C3    3  -0.378   0.274   0.069
    1UNL     C4    4  -0.230   0.062   0.012
    1UNL     C5    5  -0.107   0.025   0.039
    1UNL     C6    6  -0.051  -0.116   0.039
    1UNL     O1    7   0.054  -0.133  -0.054
    1UNL     C7    8   0.179  -0.067  -0.007
    1UNL     O2    9   0.173   0.078  -0.029
    1UNL     C8   10   0.302   0.146  -0.049
    1UNL     C9   11   0.286   0.290   0.003
    1UNL     O3   12   0.172   0.354  -0.065
    1UNL    C10   13   0.420   0.068   0.027
    1UNL     O4   14   0.391   0.064   0.164
    1UNL    C11   15   0.436  -0.083  -0.022
    1UNL     O5   16   0.483  -0.167   0.085
    1UNL    C12   17   0.303  -0.138  -0.076
    1UNL     O6   18   0.291  -0.277  -0.067
    1UNL    C13   19  -0.163  -0.227   0.010
    1UNL    C14   20  -0.164  -0.244  -0.144
    1UNL     O7   21  -0.113  -0.349   0.069
    1UNL    C15   22  -0.293  -0.178   0.067
    1UNL    C16   23  -0.336  -0.040   0.010
    1UNL     H1   24  -0.367   0.190  -0.201
    1UNL     H2   25  -0.294   0.350  -0.154
    1UNL     H3   26  -0.198   0.220  -0.216
    1UNL     H4   27  -0.166   0.271   0.029
    1UNL     H5   28  -0.477   0.238   0.051
    1UNL     H6   29  -0.401   0.379   0.053
    1UNL     H7   30  -0.367   0.262   0.177
    1UNL     H8   31  -0.035   0.112   0.043
    1UNL     H9   32  -0.013  -0.138   0.139
    1UNL    H10   33   0.186  -0.079   0.104
    1UNL    H11   34   0.321   0.150  -0.160
    1UNL    H12   35   0.263   0.272   0.114
    1UNL    H13   36   0.389   0.349  -0.002
    1UNL    H14   37   0.098   0.292  -0.064
    1UNL    H15   38   0.510   0.126   0.029
    1UNL    H16   39   0.461   0.018   0.208
    1UNL    H17   40   0.511  -0.078  -0.104
    1UNL    H18   41   0.450  -0.253   0.053
    1UNL    H19   42   0.311  -0.120  -0.184
    1UNL    H20   43   0.199  -0.308  -0.071
    1UNL    H21   44  -0.188  -0.141  -0.189
    1UNL    H22   45  -0.064  -0.259  -0.196
    1UNL    H23   46  -0.230  -0.331  -0.175
    1UNL    H24   47  -0.032  -0.382   0.027
    1UNL    H25   48  -0.363  -0.248   0.038
    1UNL    H26   49  -0.291  -0.183   0.179
    1UNL    H27   50  -0.375  -0.058  -0.087
    1UNL    H28   51  -0.424   0.006   0.064
   0.00000   0.00000   0.00000   0.00000   0.00000   0.00000   0.00000   0.00000   0.00000
Generated with MDTraj, t= 66.0
 51
    1UNL     C1    1  -0.262   0.202  -0.173
    1UNL     C2    2  -0.272   0.199  -0.017
    1UNL     C3    3  -0.412   0.249   0.023
    1UNL     C4    4  -0.234   0.066   0.039
    1UNL     C5    5  -0.108   0.023   0.033
    1UNL     C6    6  -0.058  -0.118   0.054
    1UNL     O1    7   0.060  -0.148  -0.014
    1UNL     C7    8   0.185  -0.072   0.027
    1UNL     O2    9   0.184   0.074   0.015
    1UNL     C8   10   0.304   0.144  -0.029
    1UNL     C9   11   0.299   0.299  -0.006
    1UNL     O3   12   0.206   0.368  -0.087
    1UNL    C10   13   0.431   0.068   0.024
    1UNL     O4   14   0.431   0.070   0.167
    1UNL    C11   15   0.428  -0.087  -0.028
    1UNL     O5   16   0.465  -0.170   0.079
    1UNL    C12   17   0.291  -0.123  -0.078
    1UNL     O6   18   0.293  -0.251  -0.115
    1UNL    C13   19  -0.168  -0.221   0.007
    1UNL    C14   20  -0.176  -0.205  -0.143
    1UNL     O7   21  -0.124  -0.352   0.038
    1UNL    C15   22  -0.303  -0.184   0.073
    1UNL    C16   23  -0.345  -0.033   0.062
    1UNL     H1   24  -0.326   0.130  -0.229
    1UNL     H2   25  -0.283   0.305  -0.202
    1UNL     H3   26  -0.164   0.180  -0.204
    1UNL     H4   27  -0.199   0.274   0.026
    1UNL     H5   28  -0.499   0.191  -0.001
    1UNL     H6   29  -0.435   0.341  -0.030
    1UNL     H7   30  -0.410   0.268   0.130
    1UNL     H8   31  -0.030   0.087  -0.004
    1UNL     H9   32  -0.041  -0.138   0.160
    1UNL    H10   33   0.203  -0.092   0.135
    1UNL    H11   34   0.302   0.119  -0.140
    1UNL    H12   35   0.289   0.334   0.103
    1UNL    H13   36   0.403   0.339  -0.045
    1UNL    H14   37   0.116   0.336  -0.058
    1UNL    H15   38   0.527   0.112  -0.001
    1UNL    H16   39   0.440  -0.026   0.198
    1UNL    H17   40   0.508  -0.098  -0.109
    1UNL    H18   41   0.436  -0.261   0.047
    1UNL    H19   42   0.264  -0.072  -0.170
    1UNL    H20   43   0.198  -0.289  -0.113
    1UNL    H21   44  -0.192  -0.093  -0.168
    1UNL    H22   45  -0.080  -0.229  -0.199
    1UNL    H23   46  -0.255  -0.280  -0.181
    1UNL    H24   47  -0.040  -0.377  -0.001
    1UNL    H25   48  -0.374  -0.249   0.030
    1UNL    H26   49  -0.303  -0.228   0.175
    1UNL    H27   50  -0.419  -0.023  -0.016
    1UNL    H28   51  -0.413  -0.008   0.146
   0.00000   0.00000   0.00000   0.00000   0.00000   0.00000   0.00000   0.00000   0.00000
Generated with MDTraj, t= 67.0
 51
    1UNL     C1    1  -0.249   0.195  -0.174
    1UNL     C2    2  -0.274   0.206  -0.021
    1UNL     C3    3  -0.424   0.227   0.005
    1UNL     C4    4  -0.229   0.073   0.031
    1UNL     C5    5  -0.103   0.044   0.014
    1UNL     C6    6  -0.053  -0.095   0.032
    1UNL     O1    7   0.057  -0.122  -0.054
    1UNL     C7    8   0.179  -0.073  -0.004
    1UNL     O2    9   0.179   0.064   0.017
    1UNL     C8   10   0.297   0.134  -0.025
    1UNL     C9   11   0.277   0.279   0.026
    1UNL     O3   12   0.189   0.355  -0.048
    1UNL    C10   13   0.424   0.062   0.023
    1UNL     O4   14   0.450   0.073   0.160
    1UNL    C11   15   0.430  -0.086  -0.032
    1UNL     O5   16   0.465  -0.165   0.076
    1UNL    C12   17   0.297  -0.139  -0.091
    1UNL     O6   18   0.291  -0.277  -0.083
    1UNL    C13   19  -0.165  -0.206   0.010
    1UNL    C14   20  -0.211  -0.205  -0.136
    1UNL     O7   21  -0.102  -0.332   0.039
    1UNL    C15   22  -0.282  -0.173   0.098
    1UNL    C16   23  -0.328  -0.030   0.073
    1UNL     H1   24  -0.309   0.121  -0.222
    1UNL     H2   25  -0.261   0.288  -0.228
    1UNL     H3   26  -0.147   0.160  -0.192
    1UNL     H4   27  -0.219   0.290   0.029
    1UNL     H5   28  -0.485   0.165  -0.061
    1UNL     H6   29  -0.442   0.329  -0.027
    1UNL     H7   30  -0.434   0.214   0.110
    1UNL     H8   31  -0.026   0.113  -0.005
    1UNL     H9   32  -0.020  -0.111   0.136
    1UNL    H10   33   0.200  -0.112   0.098
    1UNL    H11   34   0.286   0.129  -0.139
    1UNL    H12   35   0.226   0.280   0.128
    1UNL    H13   36   0.371   0.347   0.035
    1UNL    H14   37   0.107   0.301  -0.064
    1UNL    H15   38   0.505   0.122  -0.025
    1UNL    H16   39   0.376   0.025   0.202
    1UNL    H17   40   0.516  -0.088  -0.109
    1UNL    H18   41   0.458  -0.256   0.043
    1UNL    H19   42   0.287  -0.127  -0.198
    1UNL    H20   43   0.201  -0.305  -0.089
    1UNL    H21   44  -0.246  -0.101  -0.172
    1UNL    H22   45  -0.119  -0.234  -0.201
    1UNL    H23   46  -0.276  -0.299  -0.146
    1UNL    H24   47  -0.029  -0.360  -0.023
    1UNL    H25   48  -0.355  -0.252   0.102
    1UNL    H26   49  -0.242  -0.175   0.201
    1UNL    H27   50  -0.412  -0.038   0.004
    1UNL    H28   51  -0.381   0.001   0.163
   0.00000   0.00000   0.00000   0.00000   0.00000   0.00000   0.00000   0.00000   0.00000
Generated with MDTraj, t= 68.0
 51
    1UNL     C1    1  -0.260   0.244  -0.186
    1UNL     C2    2  -0.279   0.210  -0.037
    1UNL     C3    3  -0.427   0.235   0.019
    1UNL     C4    4  -0.234   0.066  -0.004
    1UNL     C5    5  -0.112   0.030  -0.041
    1UNL     C6    6  -0.051  -0.093   0.018
    1UNL     O1    7   0.063  -0.144  -0.046
    1UNL     C7    8   0.184  -0.083  -0.003
    1UNL     O2    9   0.179   0.061  -0.004
    1UNL     C8   10   0.301   0.134  -0.044
    1UNL     C9   11   0.301   0.278   0.003
    1UNL     O3   12   0.164   0.310   0.024
    1UNL    C10   13   0.428   0.069   0.024
    1UNL     O4   14   0.419   0.072   0.166
    1UNL    C11   15   0.442  -0.074  -0.024
    1UNL     O5   16   0.477  -0.159   0.083
    1UNL    C12   17   0.306  -0.131  -0.091
    1UNL     O6   18   0.306  -0.274  -0.102
    1UNL    C13   19  -0.164  -0.202   0.023
    1UNL    C14   20  -0.215  -0.236  -0.117
    1UNL     O7   21  -0.107  -0.325   0.066
    1UNL    C15   22  -0.280  -0.161   0.105
    1UNL    C16   23  -0.331  -0.020   0.076
    1UNL     H1   24  -0.324   0.191  -0.248
    1UNL     H2   25  -0.288   0.350  -0.198
    1UNL     H3   26  -0.158   0.230  -0.228
    1UNL     H4   27  -0.211   0.281   0.016
    1UNL     H5   28  -0.506   0.202  -0.050
    1UNL     H6   29  -0.441   0.341   0.027
    1UNL     H7   30  -0.426   0.199   0.119
    1UNL     H8   31  -0.035   0.095  -0.095
    1UNL     H9   32  -0.018  -0.082   0.124
    1UNL    H10   33   0.214  -0.106   0.100
    1UNL    H11   34   0.301   0.139  -0.158
    1UNL    H12   35   0.365   0.297   0.095
    1UNL    H13   36   0.341   0.347  -0.078
    1UNL    H14   37   0.119   0.230   0.057
    1UNL    H15   38   0.516   0.131  -0.007
    1UNL    H16   39   0.485   0.010   0.198
    1UNL    H17   40   0.530  -0.077  -0.099
    1UNL    H18   41   0.450  -0.252   0.057
    1UNL    H19   42   0.291  -0.096  -0.193
    1UNL    H20   43   0.211  -0.296  -0.120
    1UNL    H21   44  -0.262  -0.137  -0.152
    1UNL    H22   45  -0.130  -0.260  -0.190
    1UNL    H23   46  -0.277  -0.334  -0.117
    1UNL    H24   47  -0.029  -0.343   0.003
    1UNL    H25   48  -0.362  -0.236   0.102
    1UNL    H26   49  -0.249  -0.164   0.208
    1UNL    H27   50  -0.428  -0.033   0.025
    1UNL    H28   51  -0.353   0.028   0.168
   0.00000   0.00000   0.00000   0.00000   0.00000   0.00000   0.00000   0.00000   0.00000
Generated with MDTraj, t= 69.0
 51
    1UNL     C1    1  -0.256   0.228  -0.199
    1UNL     C2    2  -0.258   0.218  -0.042
    1UNL     C3    3  -0.387   0.264   0.019
    1UNL     C4    4  -0.221   0.079  -0.005
    1UNL     C5    5  -0.098   0.036  -0.010
    1UNL     C6    6  -0.044  -0.099   0.019
    1UNL     O1    7   0.053  -0.138  -0.073
    1UNL     C7    8   0.174  -0.085  -0.028
    1UNL     O2    9   0.169   0.062  -0.017
    1UNL     C8   10   0.288   0.138  -0.038
    1UNL     C9   11   0.274   0.278   0.014
    1UNL     O3   12   0.144   0.298   0.071
    1UNL    C10   13   0.415   0.067   0.022
    1UNL     O4   14   0.390   0.064   0.163
    1UNL    C11   15   0.426  -0.072  -0.042
    1UNL     O5   16   0.466  -0.156   0.067
    1UNL    C12   17   0.292  -0.132  -0.105
    1UNL     O6   18   0.300  -0.273  -0.094
    1UNL    C13   19  -0.147  -0.213   0.029
    1UNL    C14   20  -0.177  -0.261  -0.114
    1UNL     O7   21  -0.084  -0.318   0.109
    1UNL    C15   22  -0.270  -0.146   0.104
    1UNL    C16   23  -0.329  -0.017   0.045
    1UNL     H1   24  -0.312   0.157  -0.252
    1UNL     H2   25  -0.287   0.329  -0.220
    1UNL     H3   26  -0.151   0.216  -0.237
    1UNL     H4   27  -0.173   0.278  -0.006
    1UNL     H5   28  -0.477   0.207  -0.006
    1UNL     H6   29  -0.419   0.357  -0.024
    1UNL     H7   30  -0.381   0.286   0.123
    1UNL     H8   31  -0.023   0.099  -0.044
    1UNL     H9   32   0.010  -0.101   0.117
    1UNL    H10   33   0.189  -0.113   0.076
    1UNL    H11   34   0.301   0.145  -0.149
    1UNL    H12   35   0.350   0.277   0.098
    1UNL    H13   36   0.310   0.347  -0.064
    1UNL    H14   37   0.111   0.212   0.110
    1UNL    H15   38   0.513   0.122   0.007
    1UNL    H16   39   0.435  -0.021   0.200
    1UNL    H17   40   0.511  -0.082  -0.117
    1UNL    H18   41   0.434  -0.247   0.056
    1UNL    H19   42   0.280  -0.109  -0.213
    1UNL    H20   43   0.212  -0.312  -0.120
    1UNL    H21   44  -0.211  -0.173  -0.180
    1UNL    H22   45  -0.092  -0.316  -0.168
    1UNL    H23   46  -0.260  -0.341  -0.098
    1UNL    H24   47  -0.018  -0.363   0.052
    1UNL    H25   48  -0.357  -0.218   0.121
    1UNL    H26   49  -0.251  -0.122   0.206
    1UNL    H27   50  -0.401  -0.035  -0.039
    1UNL    H28   51  -0.379   0.030   0.123
   0.00000   0.00000   0.00000   0.00000   0.00000   0.00000   0.00000   0.00000   0.00000
Generated with MDTraj, t= 70.0
 51
    1UNL     C1    1  -0.270   0.219  -0.214
    1UNL     C2    2  -0.247   0.214  -0.064
    1UNL     C3    3  -0.359   0.282   0.006
    1UNL     C4    4  -0.219   0.072  -0.012
    1UNL     C5    5  -0.095   0.033   0.004
    1UNL     C6    6  -0.050  -0.109   0.046
    1UNL     O1    7   0.071  -0.154  -0.023
    1UNL     C7    8   0.183  -0.068  -0.023
    1UNL     O2    9   0.169   0.073  -0.054
    1UNL     C8   10   0.298   0.156  -0.039
    1UNL     C9   11   0.275   0.288   0.027
    1UNL     O3   12   0.146   0.282   0.092
    1UNL    C10   13   0.411   0.068   0.032
    1UNL     O4   14   0.392   0.041   0.175
    1UNL    C11   15   0.432  -0.058  -0.047
    1UNL     O5   16   0.482  -0.160   0.033
    1UNL    C12   17   0.296  -0.113  -0.109
    1UNL     O6   18   0.303  -0.253  -0.134
    1UNL    C13   19  -0.166  -0.218   0.043
    1UNL    C14   20  -0.173  -0.275  -0.100
    1UNL     O7   21  -0.134  -0.324   0.138
    1UNL    C15   22  -0.293  -0.149   0.103
    1UNL    C16   23  -0.334  -0.027   0.026
    1UNL     H1   24  -0.366   0.182  -0.247
    1UNL     H2   25  -0.261   0.321  -0.243
    1UNL     H3   26  -0.194   0.157  -0.267
    1UNL     H4   27  -0.155   0.272  -0.047
    1UNL     H5   28  -0.456   0.232  -0.008
    1UNL     H6   29  -0.383   0.375  -0.044
    1UNL     H7   30  -0.337   0.310   0.107
    1UNL     H8   31  -0.020   0.102  -0.028
    1UNL     H9   32  -0.015  -0.102   0.151
    1UNL    H10   33   0.210  -0.066   0.082
    1UNL    H11   34   0.323   0.173  -0.145
    1UNL    H12   35   0.358   0.306   0.100
    1UNL    H13   36   0.272   0.368  -0.044
    1UNL    H14   37   0.120   0.189   0.108
    1UNL    H15   38   0.503   0.136   0.037
    1UNL    H16   39   0.451  -0.027   0.203
    1UNL    H17   40   0.505  -0.038  -0.129
    1UNL    H18   41   0.461  -0.251  -0.003
    1UNL    H19   42   0.278  -0.066  -0.209
    1UNL    H20   43   0.215  -0.291  -0.145
    1UNL    H21   44  -0.194  -0.200  -0.184
    1UNL    H22   45  -0.069  -0.316  -0.125
    1UNL    H23   46  -0.244  -0.366  -0.113
    1UNL    H24   47  -0.062  -0.377   0.105
    1UNL    H25   48  -0.381  -0.223   0.097
    1UNL    H26   49  -0.287  -0.131   0.207
    1UNL    H27   50  -0.367  -0.069  -0.073
    1UNL    H28   51  -0.411   0.027   0.070
   0.00000   0.00000   0.00000   0.00000   0.00000   0.00000   0.00000   0.00000   0.00000
Generated with MDTraj, t= 71.0
 51
    1UNL     C1    1  -0.294   0.191  -0.225
    1UNL     C2    2  -0.249   0.203  -0.086
    1UNL     C3    3  -0.349   0.295   0.001
    1UNL     C4    4  -0.220   0.075  -0.017
    1UNL     C5    5  -0.093   0.041  -0.006
    1UNL     C6    6  -0.039  -0.098   0.043
    1UNL     O1    7   0.063  -0.147  -0.030
    1UNL     C7    8   0.178  -0.077  -0.006
    1UNL     O2    9   0.158   0.066  -0.007
    1UNL     C8   10   0.273   0.151  -0.030
    1UNL     C9   11   0.256   0.282   0.032
    1UNL     O3   12   0.191   0.273   0.157
    1UNL    C10   13   0.391   0.067   0.019
    1UNL     O4   14   0.386   0.034   0.154
    1UNL    C11   15   0.419  -0.054  -0.068
    1UNL     O5   16   0.497  -0.142   0.003
    1UNL    C12   17   0.283  -0.127  -0.108
    1UNL     O6   18   0.304  -0.268  -0.096
    1UNL    C13   19  -0.152  -0.200   0.035
    1UNL    C14   20  -0.172  -0.278  -0.099
    1UNL     O7   21  -0.113  -0.298   0.136
    1UNL    C15   22  -0.284  -0.138   0.086
    1UNL    C16   23  -0.331  -0.023   0.002
    1UNL     H1   24  -0.392   0.138  -0.235
    1UNL     H2   25  -0.309   0.289  -0.265
    1UNL     H3   26  -0.230   0.131  -0.290
    1UNL     H4   27  -0.159   0.261  -0.086
    1UNL     H5   28  -0.450   0.286  -0.037
    1UNL     H6   29  -0.323   0.396  -0.019
    1UNL     H7   30  -0.327   0.274   0.106
    1UNL     H8   31  -0.008   0.104  -0.047
    1UNL     H9   32  -0.004  -0.081   0.146
    1UNL    H10   33   0.205  -0.107   0.095
    1UNL    H11   34   0.287   0.162  -0.136
    1UNL    H12   35   0.355   0.330   0.046
    1UNL    H13   36   0.195   0.348  -0.022
    1UNL    H14   37   0.186   0.177   0.183
    1UNL    H15   38   0.487   0.131   0.008
    1UNL    H16   39   0.481  -0.003   0.177
    1UNL    H17   40   0.473  -0.027  -0.158
    1UNL    H18   41   0.484  -0.233  -0.028
    1UNL    H19   42   0.244  -0.109  -0.214
    1UNL    H20   43   0.217  -0.318  -0.104
    1UNL    H21   44  -0.211  -0.213  -0.184
    1UNL    H22   45  -0.077  -0.323  -0.146
    1UNL    H23   46  -0.250  -0.364  -0.096
    1UNL    H24   47  -0.027  -0.333   0.116
    1UNL    H25   48  -0.361  -0.221   0.081
    1UNL    H26   49  -0.277  -0.120   0.191
    1UNL    H27   50  -0.360  -0.066  -0.097
    1UNL    H28   51  -0.413   0.026   0.046
   0.00000   0.00000   0.00000   0.00000   0.00000   0.00000   0.00000   0.00000   0.00000
Generated with MDTraj, t= 72.0
 51
    1UNL     C1    1  -0.345   0.180  -0.244
    1UNL     C2    2  -0.273   0.201  -0.112
    1UNL     C3    3  -0.349   0.284  -0.001
    1UNL     C4    4  -0.243   0.064  -0.057
    1UNL     C5    5  -0.116   0.028  -0.038
    1UNL     C6    6  -0.059  -0.099   0.030
    1UNL     O1    7   0.062  -0.151  -0.022
    1UNL     C7    8   0.182  -0.077  -0.003
    1UNL     O2    9   0.162   0.065  -0.019
    1UNL     C8   10   0.278   0.155  -0.018
    1UNL     C9   11   0.264   0.282   0.067
    1UNL     O3   12   0.287   0.266   0.208
    1UNL    C10   13   0.412   0.081   0.013
    1UNL     O4   14   0.422   0.034   0.149
    1UNL    C11   15   0.432  -0.048  -0.076
    1UNL     O5   16   0.521  -0.125  -0.010
    1UNL    C12   17   0.299  -0.130  -0.093
    1UNL     O6   18   0.324  -0.263  -0.082
    1UNL    C13   19  -0.176  -0.206   0.037
    1UNL    C14   20  -0.201  -0.273  -0.097
    1UNL     O7   21  -0.135  -0.299   0.141
    1UNL    C15   22  -0.311  -0.139   0.091
    1UNL    C16   23  -0.355  -0.017   0.004
    1UNL     H1   24  -0.439   0.117  -0.232
    1UNL     H2   25  -0.369   0.272  -0.294
    1UNL     H3   26  -0.288   0.118  -0.308
    1UNL     H4   27  -0.178   0.248  -0.124
    1UNL     H5   28  -0.446   0.241   0.023
    1UNL     H6   29  -0.383   0.373  -0.051
    1UNL     H7   30  -0.280   0.311   0.080
    1UNL     H8   31  -0.047   0.103  -0.064
    1UNL     H9   32  -0.036  -0.054   0.127
    1UNL    H10   33   0.209  -0.095   0.101
    1UNL    H11   34   0.284   0.197  -0.116
    1UNL    H12   35   0.329   0.364   0.039
    1UNL    H13   36   0.169   0.317   0.052
    1UNL    H14   37   0.278   0.169   0.230
    1UNL    H15   38   0.498   0.158  -0.003
    1UNL    H16   39   0.510   0.003   0.163
    1UNL    H17   40   0.478  -0.021  -0.169
    1UNL    H18   41   0.500  -0.223  -0.018
    1UNL    H19   42   0.269  -0.116  -0.203
    1UNL    H20   43   0.242  -0.309  -0.072
    1UNL    H21   44  -0.217  -0.197  -0.179
    1UNL    H22   45  -0.110  -0.337  -0.134
    1UNL    H23   46  -0.295  -0.339  -0.102
    1UNL    H24   47  -0.044  -0.322   0.122
    1UNL    H25   48  -0.387  -0.220   0.113
    1UNL    H26   49  -0.299  -0.108   0.195
    1UNL    H27   50  -0.426  -0.046  -0.076
    1UNL    H28   51  -0.410   0.042   0.076
   0.00000   0.00000   0.00000   0.00000   0.00000   0.00000   0.00000   0.00000   0.00000
Generated with MDTraj, t= 73.0
 51
    1UNL     C1    1  -0.399   0.154  -0.253
    1UNL     C2    2  -0.288   0.184  -0.144
    1UNL     C3    3  -0.322   0.293  -0.045
    1UNL     C4    4  -0.243   0.061  -0.051
    1UNL     C5    5  -0.111   0.036  -0.038
    1UNL     C6    6  -0.059  -0.085   0.036
    1UNL     O1    7   0.054  -0.132  -0.020
    1UNL     C7    8   0.173  -0.064   0.021
    1UNL     O2    9   0.170   0.085   0.024
    1UNL     C8   10   0.288   0.155  -0.002
    1UNL     C9   11   0.283   0.290   0.079
    1UNL     O3   12   0.292   0.258   0.220
    1UNL    C10   13   0.418   0.072   0.021
    1UNL     O4   14   0.414   0.007   0.147
    1UNL    C11   15   0.423  -0.046  -0.085
    1UNL     O5   16   0.516  -0.140  -0.046
    1UNL    C12   17   0.277  -0.115  -0.088
    1UNL     O6   18   0.293  -0.251  -0.076
    1UNL    C13   19  -0.161  -0.200   0.041
    1UNL    C14   20  -0.181  -0.268  -0.094
    1UNL     O7   21  -0.107  -0.301   0.125
    1UNL    C15   22  -0.295  -0.140   0.095
    1UNL    C16   23  -0.354  -0.031   0.006
    1UNL     H1   24  -0.497   0.113  -0.212
    1UNL     H2   25  -0.412   0.244  -0.314
    1UNL     H3   26  -0.366   0.074  -0.311
    1UNL     H4   27  -0.199   0.204  -0.197
    1UNL     H5   28  -0.427   0.301  -0.024
    1UNL     H6   29  -0.302   0.396  -0.073
    1UNL     H7   30  -0.264   0.283   0.049
    1UNL     H8   31  -0.046   0.102  -0.092
    1UNL     H9   32  -0.034  -0.047   0.137
    1UNL    H10   33   0.206  -0.098   0.119
    1UNL    H11   34   0.285   0.181  -0.106
    1UNL    H12   35   0.367   0.346   0.045
    1UNL    H13   36   0.197   0.342   0.062
    1UNL    H14   37   0.290   0.162   0.233
    1UNL    H15   38   0.521   0.130   0.021
    1UNL    H16   39   0.491  -0.063   0.152
    1UNL    H17   40   0.456  -0.015  -0.182
    1UNL    H18   41   0.477  -0.225  -0.071
    1UNL    H19   42   0.233  -0.088  -0.188
    1UNL    H20   43   0.209  -0.290  -0.035
    1UNL    H21   44  -0.219  -0.201  -0.180
    1UNL    H22   45  -0.073  -0.304  -0.116
    1UNL    H23   46  -0.249  -0.359  -0.086
    1UNL    H24   47  -0.012  -0.311   0.095
    1UNL    H25   48  -0.369  -0.218   0.126
    1UNL    H26   49  -0.268  -0.102   0.197
    1UNL    H27   50  -0.404  -0.086  -0.074
    1UNL    H28   51  -0.427   0.029   0.063
   0.00000   0.00000   0.00000   0.00000   0.00000   0.00000   0.00000   0.00000   0.00000
Generated with MDTraj, t= 74.0
 51
    1UNL     C1    1  -0.423   0.122  -0.211
    1UNL     C2    2  -0.286   0.168  -0.157
    1UNL     C3    3  -0.301   0.314  -0.094
    1UNL     C4    4  -0.243   0.061  -0.057
    1UNL     C5    5  -0.114   0.048  -0.019
    1UNL     C6    6  -0.059  -0.072   0.050
    1UNL     O1    7   0.059  -0.119  -0.018
    1UNL     C7    8   0.183  -0.054   0.000
    1UNL     O2    9   0.172   0.091  -0.002
    1UNL     C8   10   0.296   0.160   0.000
    1UNL     C9   11   0.281   0.275   0.102
    1UNL     O3   12   0.269   0.225   0.231
    1UNL    C10   13   0.417   0.066   0.032
    1UNL     O4   14   0.407  -0.001   0.158
    1UNL    C11   15   0.433  -0.043  -0.081
    1UNL     O5   16   0.516  -0.148  -0.036
    1UNL    C12   17   0.284  -0.097  -0.112
    1UNL     O6   18   0.282  -0.240  -0.123
    1UNL    C13   19  -0.158  -0.195   0.048
    1UNL    C14   20  -0.156  -0.276  -0.080
    1UNL     O7   21  -0.123  -0.294   0.151
    1UNL    C15   22  -0.294  -0.134   0.093
    1UNL    C16   23  -0.351  -0.031  -0.002
    1UNL     H1   24  -0.500   0.120  -0.132
    1UNL     H2   25  -0.446   0.201  -0.286
    1UNL     H3   26  -0.422   0.024  -0.250
    1UNL     H4   27  -0.210   0.162  -0.233
    1UNL     H5   28  -0.330   0.316   0.011
    1UNL     H6   29  -0.382   0.370  -0.141
    1UNL     H7   30  -0.209   0.372  -0.108
    1UNL     H8   31  -0.045   0.119  -0.069
    1UNL     H9   32  -0.020  -0.045   0.151
    1UNL    H10   33   0.221  -0.089   0.098
    1UNL    H11   34   0.301   0.202  -0.100
    1UNL    H12   35   0.356   0.352   0.092
    1UNL    H13   36   0.187   0.307   0.079
    1UNL    H14   37   0.278   0.126   0.223
    1UNL    H15   38   0.515   0.128   0.052
    1UNL    H16   39   0.455  -0.082   0.156
    1UNL    H17   40   0.480  -0.002  -0.171
    1UNL    H18   41   0.500  -0.220  -0.104
    1UNL    H19   42   0.247  -0.048  -0.204
    1UNL    H20   43   0.197  -0.276  -0.091
    1UNL    H21   44  -0.200  -0.205  -0.159
    1UNL    H22   45  -0.048  -0.308  -0.095
    1UNL    H23   46  -0.228  -0.365  -0.071
    1UNL    H24   47  -0.025  -0.310   0.140
    1UNL    H25   48  -0.361  -0.211   0.136
    1UNL    H26   49  -0.263  -0.082   0.191
    1UNL    H27   50  -0.404  -0.084  -0.079
    1UNL    H28   51  -0.417   0.037   0.059
   0.00000   0.00000   0.00000   0.00000   0.00000   0.00000   0.00000   0.00000   0.00000
Generated with MDTraj, t= 75.0
 51
    1UNL     C1    1  -0.429   0.153  -0.212
    1UNL     C2    2  -0.287   0.159  -0.165
    1UNL     C3    3  -0.245   0.285  -0.085
    1UNL     C4    4  -0.254   0.041  -0.084
    1UNL     C5    5  -0.122   0.023  -0.071
    1UNL     C6    6  -0.061  -0.076   0.011
    1UNL     O1    7   0.063  -0.129  -0.052
    1UNL     C7    8   0.180  -0.054  -0.027
    1UNL     O2    9   0.166   0.087   0.003
    1UNL     C8   10   0.287   0.161   0.008
    1UNL     C9   11   0.265   0.261   0.129
    1UNL     O3   12   0.229   0.193   0.243
    1UNL    C10   13   0.412   0.067   0.032
    1UNL     O4   14   0.406   0.018   0.162
    1UNL    C11   15   0.431  -0.046  -0.071
    1UNL     O5   16   0.494  -0.150  -0.011
    1UNL    C12   17   0.290  -0.084  -0.124
    1UNL     O6   18   0.284  -0.224  -0.165
    1UNL    C13   19  -0.150  -0.187   0.068
    1UNL    C14   20  -0.173  -0.291  -0.043
    1UNL     O7   21  -0.079  -0.255   0.172
    1UNL    C15   22  -0.275  -0.108   0.124
    1UNL    C16   23  -0.352  -0.027   0.016
    1UNL     H1   24  -0.503   0.160  -0.135
    1UNL     H2   25  -0.444   0.232  -0.289
    1UNL     H3   26  -0.443   0.055  -0.256
    1UNL     H4   27  -0.218   0.150  -0.249
    1UNL     H5   28  -0.331   0.322  -0.033
    1UNL     H6   29  -0.207   0.354  -0.161
    1UNL     H7   30  -0.165   0.252  -0.016
    1UNL     H8   31  -0.067   0.078  -0.139
    1UNL     H9   32  -0.016  -0.028   0.101
    1UNL    H10   33   0.214  -0.105   0.067
    1UNL    H11   34   0.293   0.211  -0.090
    1UNL    H12   35   0.362   0.308   0.152
    1UNL    H13   36   0.191   0.332   0.121
    1UNL    H14   37   0.278   0.110   0.252
    1UNL    H15   38   0.506   0.139   0.027
    1UNL    H16   39   0.479  -0.055   0.173
    1UNL    H17   40   0.500  -0.007  -0.150
    1UNL    H18   41   0.499  -0.222  -0.075
    1UNL    H19   42   0.267  -0.026  -0.211
    1UNL    H20   43   0.192  -0.263  -0.158
    1UNL    H21   44  -0.235  -0.240  -0.126
    1UNL    H22   45  -0.068  -0.328  -0.064
    1UNL    H23   46  -0.237  -0.379  -0.008
    1UNL    H24   47   0.011  -0.268   0.135
    1UNL    H25   48  -0.339  -0.177   0.181
    1UNL    H26   49  -0.241  -0.041   0.214
    1UNL    H27   50  -0.428  -0.078  -0.039
    1UNL    H28   51  -0.401   0.052   0.080
   0.00000   0.00000   0.00000   0.00000   0.00000   0.00000   0.00000   0.00000   0.00000
Generated with MDTraj, t= 76.0
 51
    1UNL     C1    1  -0.450   0.151  -0.177
    1UNL     C2    2  -0.296   0.171  -0.166
    1UNL     C3    3  -0.248   0.310  -0.105
    1UNL     C4    4  -0.231   0.063  -0.083
    1UNL     C5    5  -0.112   0.008  -0.108
    1UNL     C6    6  -0.047  -0.082  -0.013
    1UNL     O1    7   0.070  -0.158  -0.064
    1UNL     C7    8   0.189  -0.085  -0.026
    1UNL     O2    9   0.156   0.056   0.010
    1UNL     C8   10   0.265   0.150   0.018
    1UNL     C9   11   0.235   0.251   0.130
    1UNL     O3   12   0.197   0.190   0.249
    1UNL    C10   13   0.397   0.066   0.048
    1UNL     O4   14   0.385   0.001   0.172
    1UNL    C11   15   0.435  -0.038  -0.067
    1UNL     O5   16   0.506  -0.147  -0.013
    1UNL    C12   17   0.298  -0.084  -0.134
    1UNL     O6   18   0.307  -0.213  -0.201
    1UNL    C13   19  -0.139  -0.177   0.071
    1UNL    C14   20  -0.177  -0.303  -0.004
    1UNL     O7   21  -0.066  -0.216   0.188
    1UNL    C15   22  -0.256  -0.088   0.117
    1UNL    C16   23  -0.324  -0.001   0.015
    1UNL     H1   24  -0.501   0.168  -0.087
    1UNL     H2   25  -0.489   0.221  -0.252
    1UNL     H3   26  -0.475   0.048  -0.209
    1UNL     H4   27  -0.246   0.159  -0.263
    1UNL     H5   28  -0.230   0.303   0.002
    1UNL     H6   29  -0.323   0.382  -0.138
    1UNL     H7   30  -0.154   0.337  -0.155
    1UNL     H8   31  -0.070   0.032  -0.211
    1UNL     H9   32   0.008  -0.024   0.063
    1UNL    H10   33   0.226  -0.145   0.061
    1UNL    H11   34   0.274   0.197  -0.084
    1UNL    H12   35   0.312   0.326   0.159
    1UNL    H13   36   0.150   0.306   0.106
    1UNL    H14   37   0.240   0.101   0.264
    1UNL    H15   38   0.476   0.154   0.054
    1UNL    H16   39   0.444  -0.072   0.167
    1UNL    H17   40   0.509   0.010  -0.138
    1UNL    H18   41   0.533  -0.217  -0.080
    1UNL    H19   42   0.256  -0.021  -0.208
    1UNL    H20   43   0.225  -0.262  -0.189
    1UNL    H21   44  -0.238  -0.288  -0.100
    1UNL    H22   45  -0.079  -0.362  -0.004
    1UNL    H23   46  -0.247  -0.370   0.054
    1UNL    H24   47   0.018  -0.240   0.149
    1UNL    H25   48  -0.328  -0.143   0.180
    1UNL    H26   49  -0.212  -0.019   0.200
    1UNL    H27   50  -0.383  -0.074  -0.033
    1UNL    H28   51  -0.391   0.079   0.058
   0.00000   0.00000   0.00000   0.00000   0.00000   0.00000   0.00000   0.00000   0.00000
Generated with MDTraj, t= 77.0
 51
    1UNL     C1    1  -0.457   0.163  -0.197
    1UNL     C2    2  -0.304   0.154  -0.173
    1UNL     C3    3  -0.236   0.292  -0.143
    1UNL     C4    4  -0.258   0.039  -0.073
    1UNL     C5    5  -0.130   0.007  -0.093
    1UNL     C6    6  -0.051  -0.070   0.000
    1UNL     O1    7   0.066  -0.135  -0.056
    1UNL     C7    8   0.186  -0.058  -0.030
    1UNL     O2    9   0.161   0.087  -0.030
    1UNL     C8   10   0.279   0.155   0.019
    1UNL     C9   11   0.240   0.248   0.137
    1UNL     O3   12   0.203   0.188   0.264
    1UNL    C10   13   0.399   0.055   0.055
    1UNL     O4   14   0.363  -0.031   0.164
    1UNL    C11   15   0.439  -0.034  -0.068
    1UNL     O5   16   0.521  -0.135  -0.027
    1UNL    C12   17   0.305  -0.088  -0.129
    1UNL     O6   18   0.320  -0.221  -0.178
    1UNL    C13   19  -0.135  -0.173   0.075
    1UNL    C14   20  -0.192  -0.280  -0.022
    1UNL     O7   21  -0.058  -0.240   0.177
    1UNL    C15   22  -0.245  -0.091   0.147
    1UNL    C16   23  -0.335  -0.011   0.049
    1UNL     H1   24  -0.510   0.169  -0.105
    1UNL     H2   25  -0.478   0.246  -0.260
    1UNL     H3   26  -0.487   0.068  -0.249
    1UNL     H4   27  -0.259   0.122  -0.270
    1UNL     H5   28  -0.282   0.350  -0.062
    1UNL     H6   29  -0.210   0.351  -0.233
    1UNL     H7   30  -0.138   0.280  -0.095
    1UNL     H8   31  -0.079   0.057  -0.167
    1UNL     H9   32   0.006  -0.018   0.081
    1UNL    H10   33   0.210  -0.092   0.075
    1UNL    H11   34   0.317   0.215  -0.069
    1UNL    H12   35   0.331   0.309   0.162
    1UNL    H13   36   0.165   0.322   0.114
    1UNL    H14   37   0.246   0.100   0.262
    1UNL    H15   38   0.484   0.128   0.092
    1UNL    H16   39   0.411  -0.120   0.144
    1UNL    H17   40   0.502   0.015  -0.150
    1UNL    H18   41   0.532  -0.203  -0.095
    1UNL    H19   42   0.287  -0.034  -0.220
    1UNL    H20   43   0.235  -0.266  -0.175
    1UNL    H21   44  -0.278  -0.231  -0.075
    1UNL    H22   45  -0.108  -0.335  -0.078
    1UNL    H23   46  -0.251  -0.366   0.023
    1UNL    H24   47   0.027  -0.260   0.137
    1UNL    H25   48  -0.305  -0.157   0.211
    1UNL    H26   49  -0.194  -0.027   0.230
    1UNL    H27   50  -0.413  -0.074   0.016
    1UNL    H28   51  -0.390   0.070   0.108
   0.00000   0.00000   0.00000   0.00000   0.00000   0.00000   0.00000   0.00000   0.00000
Generated with MDTraj, t= 78.0
 51
    1UNL     C1    1  -0.472   0.133  -0.163
    1UNL     C2    2  -0.316   0.145  -0.176
    1UNL     C3    3  -0.281   0.292  -0.174
    1UNL     C4    4  -0.245   0.070  -0.065
    1UNL     C5    5  -0.119   0.035  -0.079
    1UNL     C6    6  -0.052  -0.059   0.006
    1UNL     O1    7   0.063  -0.121  -0.053
    1UNL     C7    8   0.183  -0.051  -0.012
    1UNL     O2    9   0.174   0.092  -0.023
    1UNL     C8   10   0.296   0.161   0.018
    1UNL     C9   11   0.264   0.239   0.150
    1UNL     O3   12   0.194   0.164   0.249
    1UNL    C10   13   0.417   0.066   0.037
    1UNL     O4   14   0.411  -0.013   0.154
    1UNL    C11   15   0.436  -0.038  -0.077
    1UNL     O5   16   0.523  -0.140  -0.038
    1UNL    C12   17   0.297  -0.103  -0.102
    1UNL     O6   18   0.304  -0.239  -0.105
    1UNL    C13   19  -0.143  -0.178   0.054
    1UNL    C14   20  -0.181  -0.268  -0.068
    1UNL     O7   21  -0.073  -0.250   0.157
    1UNL    C15   22  -0.262  -0.107   0.130
    1UNL    C16   23  -0.325   0.004   0.044
    1UNL     H1   24  -0.504   0.148  -0.058
    1UNL     H2   25  -0.524   0.200  -0.226
    1UNL     H3   26  -0.498   0.030  -0.191
    1UNL     H4   27  -0.285   0.096  -0.272
    1UNL     H5   28  -0.256   0.325  -0.072
    1UNL     H6   29  -0.354   0.360  -0.224
    1UNL     H7   30  -0.191   0.329  -0.225
    1UNL     H8   31  -0.059   0.092  -0.154
    1UNL     H9   32  -0.005  -0.008   0.093
    1UNL    H10   33   0.193  -0.071   0.097
    1UNL    H11   34   0.314   0.229  -0.072
    1UNL    H12   35   0.356   0.285   0.197
    1UNL    H13   36   0.199   0.326   0.126
    1UNL    H14   37   0.245   0.079   0.240
    1UNL    H15   38   0.512   0.134   0.050
    1UNL    H16   39   0.493  -0.060   0.157
    1UNL    H17   40   0.480  -0.005  -0.177
    1UNL    H18   41   0.473  -0.226  -0.033
    1UNL    H19   42   0.266  -0.064  -0.200
    1UNL    H20   43   0.207  -0.270  -0.108
    1UNL    H21   44  -0.245  -0.207  -0.136
    1UNL    H22   45  -0.083  -0.318  -0.101
    1UNL    H23   46  -0.247  -0.356  -0.047
    1UNL    H24   47   0.011  -0.289   0.127
    1UNL    H25   48  -0.331  -0.192   0.155
    1UNL    H26   49  -0.240  -0.068   0.236
    1UNL    H27   50  -0.414  -0.033  -0.001
    1UNL    H28   51  -0.362   0.083   0.117
   0.00000   0.00000   0.00000   0.00000   0.00000   0.00000   0.00000   0.00000   0.00000
Generated with MDTraj, t= 79.0
 51
    1UNL     C1    1  -0.482   0.130  -0.175
    1UNL     C2    2  -0.333   0.142  -0.165
    1UNL     C3    3  -0.290   0.290  -0.150
    1UNL     C4    4  -0.264   0.057  -0.060
    1UNL     C5    5  -0.135   0.035  -0.070
    1UNL     C6    6  -0.060  -0.054   0.011
    1UNL     O1    7   0.060  -0.103  -0.060
    1UNL     C7    8   0.180  -0.042  -0.016
    1UNL     O2    9   0.192   0.095  -0.045
    1UNL     C8   10   0.308   0.163   0.011
    1UNL     C9   11   0.257   0.226   0.140
    1UNL     O3   12   0.231   0.137   0.237
    1UNL    C10   13   0.430   0.071   0.035
    1UNL     O4   14   0.442   0.001   0.156
    1UNL    C11   15   0.441  -0.039  -0.076
    1UNL     O5   16   0.541  -0.133  -0.039
    1UNL    C12   17   0.299  -0.113  -0.084
    1UNL     O6   18   0.318  -0.250  -0.049
    1UNL    C13   19  -0.152  -0.167   0.044
    1UNL    C14   20  -0.197  -0.247  -0.080
    1UNL     O7   21  -0.085  -0.255   0.133
    1UNL    C15   22  -0.276  -0.108   0.123
    1UNL    C16   23  -0.353  -0.001   0.045
    1UNL     H1   24  -0.535   0.165  -0.081
    1UNL     H2   25  -0.521   0.191  -0.253
    1UNL     H3   26  -0.515   0.031  -0.194
    1UNL     H4   27  -0.296   0.102  -0.266
    1UNL     H5   28  -0.364   0.347  -0.089
    1UNL     H6   29  -0.263   0.328  -0.252
    1UNL     H7   30  -0.200   0.298  -0.091
    1UNL     H8   31  -0.089   0.091  -0.150
    1UNL     H9   32  -0.024  -0.005   0.103
    1UNL    H10   33   0.201  -0.057   0.091
    1UNL    H11   34   0.332   0.244  -0.064
    1UNL    H12   35   0.329   0.303   0.182
    1UNL    H13   36   0.156   0.279   0.126
    1UNL    H14   37   0.302   0.067   0.240
    1UNL    H15   38   0.522   0.143   0.037
    1UNL    H16   39   0.522  -0.063   0.143
    1UNL    H17   40   0.465   0.009  -0.174
    1UNL    H18   41   0.499  -0.214  -0.004
    1UNL    H19   42   0.281  -0.101  -0.194
    1UNL    H20   43   0.238  -0.295  -0.071
    1UNL    H21   44  -0.260  -0.186  -0.150
    1UNL    H22   45  -0.102  -0.294  -0.120
    1UNL    H23   46  -0.258  -0.335  -0.055
    1UNL    H24   47  -0.001  -0.292   0.092
    1UNL    H25   48  -0.350  -0.186   0.159
    1UNL    H26   49  -0.239  -0.080   0.227
    1UNL    H27   50  -0.427  -0.055  -0.011
    1UNL    H28   51  -0.408   0.080   0.102
   0.00000   0.00000   0.00000   0.00000   0.00000   0.00000   0.00000   0.00000   0.00000
Generated with MDTraj, t= 80.0
 51
    1UNL     C1    1  -0.465   0.130  -0.194
    1UNL     C2    2  -0.320   0.173  -0.166
    1UNL     C3    3  -0.300   0.316  -0.099
    1UNL     C4    4  -0.259   0.069  -0.077
    1UNL     C5    5  -0.129   0.043  -0.085
    1UNL     C6    6  -0.055  -0.055  -0.004
    1UNL     O1    7   0.063  -0.115  -0.055
    1UNL     C7    8   0.181  -0.056  -0.015
    1UNL     O2    9   0.186   0.089  -0.036
    1UNL     C8   10   0.298   0.163   0.009
    1UNL     C9   11   0.247   0.225   0.140
    1UNL     O3   12   0.211   0.127   0.221
    1UNL    C10   13   0.423   0.070   0.027
    1UNL     O4   14   0.436   0.009   0.147
    1UNL    C11   15   0.422  -0.040  -0.087
    1UNL     O5   16   0.537  -0.123  -0.073
    1UNL    C12   17   0.297  -0.134  -0.075
    1UNL     O6   18   0.321  -0.243   0.015
    1UNL    C13   19  -0.147  -0.170   0.042
    1UNL    C14   20  -0.185  -0.269  -0.067
    1UNL     O7   21  -0.074  -0.251   0.143
    1UNL    C15   22  -0.264  -0.105   0.116
    1UNL    C16   23  -0.344  -0.009   0.022
    1UNL     H1   24  -0.532   0.161  -0.109
    1UNL     H2   25  -0.507   0.175  -0.283
    1UNL     H3   26  -0.471   0.026  -0.208
    1UNL     H4   27  -0.259   0.169  -0.262
    1UNL     H5   28  -0.291   0.295   0.011
    1UNL     H6   29  -0.383   0.378  -0.138
    1UNL     H7   30  -0.207   0.355  -0.135
    1UNL     H8   31  -0.073   0.108  -0.144
    1UNL     H9   32  -0.025   0.001   0.087
    1UNL    H10   33   0.192  -0.072   0.092
    1UNL    H11   34   0.323   0.239  -0.068
    1UNL    H12   35   0.331   0.279   0.195
    1UNL    H13   36   0.157   0.298   0.126
    1UNL    H14   37   0.279   0.059   0.240
    1UNL    H15   38   0.523   0.123   0.011
    1UNL    H16   39   0.469  -0.077   0.124
    1UNL    H17   40   0.422   0.012  -0.183
    1UNL    H18   41   0.508  -0.216  -0.052
    1UNL    H19   42   0.265  -0.162  -0.181
    1UNL    H20   43   0.245  -0.301   0.016
    1UNL    H21   44  -0.249  -0.210  -0.138
    1UNL    H22   45  -0.089  -0.306  -0.111
    1UNL    H23   46  -0.240  -0.362  -0.038
    1UNL    H24   47  -0.017  -0.300   0.082
    1UNL    H25   48  -0.328  -0.192   0.152
    1UNL    H26   49  -0.244  -0.067   0.221
    1UNL    H27   50  -0.425  -0.068  -0.022
    1UNL    H28   51  -0.391   0.068   0.088
   0.00000   0.00000   0.00000   0.00000   0.00000   0.00000   0.00000   0.00000   0.00000
Generated with MDTraj, t= 81.0
 51
    1UNL     C1    1  -0.442   0.168  -0.234
    1UNL     C2    2  -0.310   0.193  -0.152
    1UNL     C3    3  -0.312   0.310  -0.049
    1UNL     C4    4  -0.249   0.068  -0.078
    1UNL     C5    5  -0.119   0.035  -0.082
    1UNL     C6    6  -0.058  -0.072   0.009
    1UNL     O1    7   0.065  -0.129  -0.053
    1UNL     C7    8   0.187  -0.068  -0.021
    1UNL     O2    9   0.184   0.071  -0.064
    1UNL     C8   10   0.288   0.152  -0.004
    1UNL     C9   11   0.228   0.217   0.127
    1UNL     O3   12   0.193   0.125   0.227
    1UNL    C10   13   0.422   0.069   0.021
    1UNL     O4   14   0.412   0.007   0.149
    1UNL    C11   15   0.428  -0.035  -0.097
    1UNL     O5   16   0.554  -0.100  -0.105
    1UNL    C12   17   0.314  -0.140  -0.075
    1UNL     O6   18   0.355  -0.231   0.021
    1UNL    C13   19  -0.153  -0.176   0.063
    1UNL    C14   20  -0.181  -0.278  -0.043
    1UNL     O7   21  -0.092  -0.244   0.172
    1UNL    C15   22  -0.285  -0.102   0.110
    1UNL    C16   23  -0.347  -0.007   0.002
    1UNL     H1   24  -0.526   0.145  -0.170
    1UNL     H2   25  -0.466   0.257  -0.294
    1UNL     H3   26  -0.414   0.088  -0.301
    1UNL     H4   27  -0.226   0.225  -0.221
    1UNL     H5   28  -0.407   0.307   0.008
    1UNL     H6   29  -0.295   0.405  -0.103
    1UNL     H7   30  -0.233   0.300   0.027
    1UNL     H8   31  -0.047   0.099  -0.141
    1UNL     H9   32  -0.020  -0.005   0.087
    1UNL    H10   33   0.199  -0.070   0.086
    1UNL    H11   34   0.316   0.237  -0.067
    1UNL    H12   35   0.288   0.307   0.167
    1UNL    H13   36   0.128   0.267   0.091
    1UNL    H14   37   0.260   0.052   0.226
    1UNL    H15   38   0.510   0.136   0.035
    1UNL    H16   39   0.425  -0.089   0.143
    1UNL    H17   40   0.412   0.014  -0.192
    1UNL    H18   41   0.563  -0.169  -0.038
    1UNL    H19   42   0.292  -0.200  -0.171
    1UNL    H20   43   0.285  -0.301   0.038
    1UNL    H21   44  -0.232  -0.227  -0.128
    1UNL    H22   45  -0.086  -0.332  -0.064
    1UNL    H23   46  -0.248  -0.361  -0.010
    1UNL    H24   47  -0.027  -0.311   0.142
    1UNL    H25   48  -0.360  -0.168   0.168
    1UNL    H26   49  -0.261  -0.037   0.198
    1UNL    H27   50  -0.397  -0.069  -0.074
    1UNL    H28   51  -0.421   0.053   0.060
   0.00000   0.00000   0.00000   0.00000   0.00000   0.00000   0.00000   0.00000   0.00000
Generated with MDTraj, t= 82.0
 51
    1UNL     C1    1  -0.356   0.178  -0.253
    1UNL     C2    2  -0.256   0.202  -0.141
    1UNL     C3    3  -0.313   0.297  -0.037
    1UNL     C4    4  -0.226   0.069  -0.069
    1UNL     C5    5  -0.098   0.038  -0.053
    1UNL     C6    6  -0.052  -0.080   0.032
    1UNL     O1    7   0.055  -0.145  -0.036
    1UNL     C7    8   0.174  -0.067  -0.024
    1UNL     O2    9   0.155   0.071  -0.067
    1UNL     C8   10   0.255   0.154  -0.013
    1UNL     C9   11   0.219   0.216   0.124
    1UNL     O3   12   0.180   0.126   0.230
    1UNL    C10   13   0.403   0.088  -0.002
    1UNL     O4   14   0.412   0.031   0.127
    1UNL    C11   15   0.423  -0.029  -0.104
    1UNL     O5   16   0.546  -0.102  -0.092
    1UNL    C12   17   0.304  -0.131  -0.090
    1UNL     O6   18   0.343  -0.238  -0.014
    1UNL    C13   19  -0.158  -0.183   0.076
    1UNL    C14   20  -0.177  -0.285  -0.035
    1UNL     O7   21  -0.113  -0.254   0.195
    1UNL    C15   22  -0.290  -0.110   0.097
    1UNL    C16   23  -0.335  -0.014  -0.010
    1UNL     H1   24  -0.437   0.127  -0.212
    1UNL     H2   25  -0.392   0.277  -0.288
    1UNL     H3   26  -0.304   0.124  -0.334
    1UNL     H4   27  -0.156   0.241  -0.174
    1UNL     H5   28  -0.389   0.251   0.028
    1UNL     H6   29  -0.363   0.387  -0.073
    1UNL     H7   30  -0.245   0.336   0.043
    1UNL     H8   31  -0.023   0.097  -0.090
    1UNL     H9   32  -0.008  -0.022   0.113
    1UNL    H10   33   0.197  -0.060   0.081
    1UNL    H11   34   0.268   0.232  -0.087
    1UNL    H12   35   0.313   0.267   0.160
    1UNL    H13   36   0.143   0.306   0.112
    1UNL    H14   37   0.256   0.104   0.285
    1UNL    H15   38   0.483   0.162  -0.017
    1UNL    H16   39   0.378  -0.064   0.115
    1UNL    H17   40   0.431   0.005  -0.205
    1UNL    H18   41   0.543  -0.179  -0.028
    1UNL    H19   42   0.262  -0.182  -0.184
    1UNL    H20   43   0.262  -0.292   0.016
    1UNL    H21   44  -0.213  -0.238  -0.130
    1UNL    H22   45  -0.091  -0.354  -0.042
    1UNL    H23   46  -0.262  -0.353  -0.009
    1UNL    H24   47  -0.043  -0.322   0.173
    1UNL    H25   48  -0.367  -0.186   0.143
    1UNL    H26   49  -0.274  -0.053   0.191
    1UNL    H27   50  -0.393  -0.078  -0.080
    1UNL    H28   51  -0.401   0.058   0.039
   0.00000   0.00000   0.00000   0.00000   0.00000   0.00000   0.00000   0.00000   0.00000
Generated with MDTraj, t= 83.0
 51
    1UNL     C1    1  -0.309   0.172  -0.257
    1UNL     C2    2  -0.243   0.202  -0.127
    1UNL     C3    3  -0.323   0.306  -0.047
    1UNL     C4    4  -0.220   0.071  -0.047
    1UNL     C5    5  -0.094   0.046  -0.009
    1UNL     C6    6  -0.053  -0.084   0.059
    1UNL     O1    7   0.057  -0.143  -0.005
    1UNL     C7    8   0.176  -0.060  -0.007
    1UNL     O2    9   0.154   0.072  -0.066
    1UNL     C8   10   0.264   0.150  -0.020
    1UNL     C9   11   0.222   0.218   0.105
    1UNL     O3   12   0.187   0.141   0.219
    1UNL    C10   13   0.401   0.074  -0.005
    1UNL     O4   14   0.411   0.022   0.131
    1UNL    C11   15   0.412  -0.026  -0.114
    1UNL     O5   16   0.542  -0.081  -0.137
    1UNL    C12   17   0.293  -0.132  -0.081
    1UNL     O6   18   0.354  -0.231  -0.001
    1UNL    C13   19  -0.173  -0.189   0.073
    1UNL    C14   20  -0.177  -0.284  -0.047
    1UNL     O7   21  -0.135  -0.270   0.186
    1UNL    C15   22  -0.311  -0.126   0.087
    1UNL    C16   23  -0.341  -0.020  -0.020
    1UNL     H1   24  -0.412   0.154  -0.246
    1UNL     H2   25  -0.305   0.260  -0.324
    1UNL     H3   26  -0.257   0.090  -0.313
    1UNL     H4   27  -0.140   0.243  -0.138
    1UNL     H5   28  -0.431   0.289  -0.047
    1UNL     H6   29  -0.309   0.410  -0.075
    1UNL     H7   30  -0.303   0.304   0.064
    1UNL     H8   31  -0.014   0.108  -0.039
    1UNL     H9   32  -0.022  -0.053   0.158
    1UNL    H10   33   0.205  -0.038   0.095
    1UNL    H11   34   0.277   0.219  -0.104
    1UNL    H12   35   0.290   0.302   0.133
    1UNL    H13   36   0.119   0.267   0.078
    1UNL    H14   37   0.272   0.093   0.241
    1UNL    H15   38   0.468   0.157  -0.017
    1UNL    H16   39   0.403  -0.074   0.126
    1UNL    H17   40   0.389   0.025  -0.206
    1UNL    H18   41   0.559  -0.151  -0.072
    1UNL    H19   42   0.247  -0.176  -0.174
    1UNL    H20   43   0.297  -0.306   0.030
    1UNL    H21   44  -0.207  -0.220  -0.131
    1UNL    H22   45  -0.083  -0.343  -0.062
    1UNL    H23   46  -0.260  -0.357  -0.044
    1UNL    H24   47  -0.045  -0.309   0.160
    1UNL    H25   48  -0.387  -0.215   0.101
    1UNL    H26   49  -0.316  -0.102   0.195
    1UNL    H27   50  -0.365  -0.060  -0.121
    1UNL    H28   51  -0.427   0.037   0.016
   0.00000   0.00000   0.00000   0.00000   0.00000   0.00000   0.00000   0.00000   0.00000
Generated with MDTraj, t= 84.0
 51
    1UNL     C1    1  -0.284   0.174  -0.265
    1UNL     C2    2  -0.248   0.206  -0.117
    1UNL     C3    3  -0.349   0.299  -0.044
    1UNL     C4    4  -0.230   0.075  -0.036
    1UNL     C5    5  -0.109   0.044   0.006
    1UNL     C6    6  -0.065  -0.090   0.062
    1UNL     O1    7   0.051  -0.150  -0.002
    1UNL     C7    8   0.174  -0.074   0.000
    1UNL     O2    9   0.162   0.065  -0.038
    1UNL     C8   10   0.268   0.159  -0.014
    1UNL     C9   11   0.245   0.249   0.105
    1UNL     O3   12   0.227   0.170   0.217
    1UNL    C10   13   0.410   0.085  -0.019
    1UNL     O4   14   0.450   0.041   0.115
    1UNL    C11   15   0.399  -0.029  -0.117
    1UNL     O5   16   0.520  -0.100  -0.141
    1UNL    C12   17   0.289  -0.136  -0.069
    1UNL     O6   18   0.341  -0.223   0.029
    1UNL    C13   19  -0.179  -0.204   0.058
    1UNL    C14   20  -0.194  -0.280  -0.079
    1UNL     O7   21  -0.141  -0.292   0.166
    1UNL    C15   22  -0.315  -0.132   0.085
    1UNL    C16   23  -0.342  -0.025  -0.023
    1UNL     H1   24  -0.386   0.140  -0.283
    1UNL     H2   25  -0.276   0.256  -0.336
    1UNL     H3   26  -0.211   0.099  -0.304
    1UNL     H4   27  -0.148   0.251  -0.113
    1UNL     H5   28  -0.431   0.236  -0.012
    1UNL     H6   29  -0.378   0.376  -0.117
    1UNL     H7   30  -0.298   0.339   0.047
    1UNL     H8   31  -0.027   0.108  -0.038
    1UNL     H9   32  -0.038  -0.065   0.166
    1UNL    H10   33   0.204  -0.060   0.104
    1UNL    H11   34   0.259   0.209  -0.114
    1UNL    H12   35   0.329   0.318   0.121
    1UNL    H13   36   0.149   0.310   0.091
    1UNL    H14   37   0.314   0.127   0.221
    1UNL    H15   38   0.488   0.144  -0.061
    1UNL    H16   39   0.428  -0.059   0.119
    1UNL    H17   40   0.370   0.010  -0.216
    1UNL    H18   41   0.534  -0.157  -0.062
    1UNL    H19   42   0.257  -0.188  -0.159
    1UNL    H20   43   0.277  -0.289   0.052
    1UNL    H21   44  -0.219  -0.223  -0.170
    1UNL    H22   45  -0.107  -0.349  -0.092
    1UNL    H23   46  -0.280  -0.348  -0.071
    1UNL    H24   47  -0.061  -0.342   0.132
    1UNL    H25   48  -0.399  -0.211   0.114
    1UNL    H26   49  -0.313  -0.094   0.190
    1UNL    H27   50  -0.351  -0.076  -0.123
    1UNL    H28   51  -0.427   0.036  -0.008
   0.00000   0.00000   0.00000   0.00000   0.00000   0.00000   0.00000   0.00000   0.00000
Generated with MDTraj, t= 85.0
 51
    1UNL     C1    1  -0.290   0.188  -0.261
    1UNL     C2    2  -0.270   0.205  -0.109
    1UNL     C3    3  -0.392   0.280  -0.043
    1UNL     C4    4  -0.236   0.066  -0.048
    1UNL     C5    5  -0.108   0.039  -0.017
    1UNL     C6    6  -0.066  -0.088   0.056
    1UNL     O1    7   0.057  -0.157   0.026
    1UNL     C7    8   0.163  -0.068   0.024
    1UNL     O2    9   0.155   0.071  -0.033
    1UNL     C8   10   0.271   0.156  -0.024
    1UNL     C9   11   0.265   0.251   0.096
    1UNL     O3   12   0.275   0.179   0.219
    1UNL    C10   13   0.413   0.076  -0.034
    1UNL     O4   14   0.459   0.040   0.097
    1UNL    C11   15   0.392  -0.047  -0.119
    1UNL     O5   16   0.510  -0.117  -0.134
    1UNL    C12   17   0.287  -0.141  -0.046
    1UNL     O6   18   0.344  -0.211   0.064
    1UNL    C13   19  -0.175  -0.197   0.041
    1UNL    C14   20  -0.158  -0.257  -0.101
    1UNL     O7   21  -0.144  -0.299   0.137
    1UNL    C15   22  -0.323  -0.143   0.069
    1UNL    C16   23  -0.357  -0.004   0.005
    1UNL     H1   24  -0.352   0.096  -0.283
    1UNL     H2   25  -0.339   0.268  -0.314
    1UNL     H3   26  -0.189   0.178  -0.303
    1UNL     H4   27  -0.179   0.262  -0.097
    1UNL     H5   28  -0.486   0.226  -0.058
    1UNL     H6   29  -0.390   0.385  -0.076
    1UNL     H7   30  -0.366   0.270   0.064
    1UNL     H8   31  -0.030   0.095  -0.062
    1UNL     H9   32  -0.059  -0.052   0.161
    1UNL    H10   33   0.196  -0.049   0.126
    1UNL    H11   34   0.266   0.218  -0.117
    1UNL    H12   35   0.335   0.335   0.088
    1UNL    H13   36   0.162   0.293   0.103
    1UNL    H14   37   0.362   0.132   0.225
    1UNL    H15   38   0.485   0.139  -0.076
    1UNL    H16   39   0.436  -0.050   0.112
    1UNL    H17   40   0.345  -0.007  -0.212
    1UNL    H18   41   0.521  -0.178  -0.056
    1UNL    H19   42   0.258  -0.217  -0.116
    1UNL    H20   43   0.262  -0.255   0.098
    1UNL    H21   44  -0.182  -0.184  -0.180
    1UNL    H22   45  -0.052  -0.286  -0.109
    1UNL    H23   46  -0.216  -0.346  -0.127
    1UNL    H24   47  -0.047  -0.311   0.135
    1UNL    H25   48  -0.401  -0.222   0.036
    1UNL    H26   49  -0.348  -0.153   0.177
    1UNL    H27   50  -0.430  -0.023  -0.081
    1UNL    H28   51  -0.407   0.050   0.082
   0.00000   0.00000   0.00000   0.00000   0.00000   0.00000   0.00000   0.00000   0.00000
Generated with MDTraj, t= 86.0
 51
    1UNL     C1    1  -0.287   0.174  -0.248
    1UNL     C2    2  -0.277   0.199  -0.095
    1UNL     C3    3  -0.404   0.274  -0.068
    1UNL     C4    4  -0.253   0.072  -0.016
    1UNL     C5    5  -0.125   0.039  -0.012
    1UNL     C6    6  -0.067  -0.088   0.047
    1UNL     O1    7   0.054  -0.139  -0.009
    1UNL     C7    8   0.168  -0.063   0.031
    1UNL     O2    9   0.164   0.075  -0.029
    1UNL     C8   10   0.280   0.150  -0.024
    1UNL     C9   11   0.284   0.245   0.089
    1UNL     O3   12   0.269   0.176   0.210
    1UNL    C10   13   0.420   0.074  -0.033
    1UNL     O4   14   0.477   0.056   0.097
    1UNL    C11   15   0.388  -0.059  -0.113
    1UNL     O5   16   0.503  -0.141  -0.140
    1UNL    C12   17   0.294  -0.142  -0.018
    1UNL     O6   18   0.368  -0.189   0.094
    1UNL    C13   19  -0.180  -0.194   0.026
    1UNL    C14   20  -0.189  -0.225  -0.126
    1UNL     O7   21  -0.138  -0.319   0.104
    1UNL    C15   22  -0.314  -0.140   0.095
    1UNL    C16   23  -0.366  -0.013   0.017
    1UNL     H1   24  -0.393   0.136  -0.273
    1UNL     H2   25  -0.271   0.266  -0.302
    1UNL     H3   26  -0.210   0.107  -0.280
    1UNL     H4   27  -0.185   0.254  -0.082
    1UNL     H5   28  -0.499   0.239  -0.111
    1UNL     H6   29  -0.396   0.381  -0.089
    1UNL     H7   30  -0.429   0.265   0.037
    1UNL     H8   31  -0.060   0.100  -0.066
    1UNL     H9   32  -0.047  -0.070   0.156
    1UNL    H10   33   0.145  -0.053   0.138
    1UNL    H11   34   0.278   0.211  -0.118
    1UNL    H12   35   0.377   0.300   0.087
    1UNL    H13   36   0.202   0.314   0.077
    1UNL    H14   37   0.339   0.109   0.230
    1UNL    H15   38   0.492   0.125  -0.088
    1UNL    H16   39   0.453  -0.042   0.114
    1UNL    H17   40   0.329  -0.031  -0.204
    1UNL    H18   41   0.523  -0.206  -0.072
    1UNL    H19   42   0.268  -0.231  -0.067
    1UNL    H20   43   0.307  -0.229   0.165
    1UNL    H21   44  -0.234  -0.135  -0.170
    1UNL    H22   45  -0.089  -0.236  -0.166
    1UNL    H23   46  -0.249  -0.310  -0.162
    1UNL    H24   47  -0.042  -0.326   0.104
    1UNL    H25   48  -0.387  -0.224   0.113
    1UNL    H26   49  -0.300  -0.109   0.202
    1UNL    H27   50  -0.414  -0.055  -0.077
    1UNL    H28   51  -0.439   0.028   0.082
   0.00000   0.00000   0.00000   0.00000   0.00000   0.00000   0.00000   0.00000   0.00000
Generated with MDTraj, t= 87.0
 51
    1UNL     C1    1  -0.275   0.162  -0.238
    1UNL     C2    2  -0.278   0.209  -0.088
    1UNL     C3    3  -0.416   0.270  -0.065
    1UNL     C4    4  -0.231   0.082  -0.010
    1UNL     C5    5  -0.108   0.040  -0.018
    1UNL     C6    6  -0.073  -0.090   0.041
    1UNL     O1    7   0.052  -0.138  -0.006
    1UNL     C7    8   0.165  -0.050   0.014
    1UNL     O2    9   0.163   0.073  -0.063
    1UNL     C8   10   0.280   0.156  -0.041
    1UNL     C9   11   0.257   0.231   0.093
    1UNL     O3   12   0.265   0.139   0.203
    1UNL    C10   13   0.422   0.077  -0.047
    1UNL     O4   14   0.484   0.073   0.082
    1UNL    C11   15   0.394  -0.060  -0.099
    1UNL     O5   16   0.511  -0.144  -0.104
    1UNL    C12   17   0.287  -0.130  -0.013
    1UNL     O6   18   0.348  -0.187   0.108
    1UNL    C13   19  -0.178  -0.198   0.016
    1UNL    C14   20  -0.202  -0.222  -0.134
    1UNL     O7   21  -0.147  -0.316   0.095
    1UNL    C15   22  -0.304  -0.148   0.092
    1UNL    C16   23  -0.341  -0.005   0.053
    1UNL     H1   24  -0.349   0.079  -0.256
    1UNL     H2   25  -0.301   0.242  -0.310
    1UNL     H3   26  -0.174   0.134  -0.264
    1UNL     H4   27  -0.202   0.284  -0.072
    1UNL     H5   28  -0.502   0.203  -0.080
    1UNL     H6   29  -0.421   0.361  -0.128
    1UNL     H7   30  -0.429   0.305   0.036
    1UNL     H8   31  -0.027   0.094  -0.077
    1UNL     H9   32  -0.068  -0.071   0.152
    1UNL    H10   33   0.160  -0.028   0.122
    1UNL    H11   34   0.281   0.229  -0.123
    1UNL    H12   35   0.323   0.316   0.099
    1UNL    H13   36   0.159   0.265   0.090
    1UNL    H14   37   0.360   0.139   0.230
    1UNL    H15   38   0.494   0.127  -0.102
    1UNL    H16   39   0.469  -0.013   0.122
    1UNL    H17   40   0.344  -0.049  -0.198
    1UNL    H18   41   0.499  -0.228  -0.049
    1UNL    H19   42   0.259  -0.217  -0.064
    1UNL    H20   43   0.283  -0.210   0.178
    1UNL    H21   44  -0.232  -0.136  -0.192
    1UNL    H22   45  -0.103  -0.251  -0.168
    1UNL    H23   46  -0.269  -0.306  -0.153
    1UNL    H24   47  -0.048  -0.323   0.115
    1UNL    H25   48  -0.392  -0.214   0.094
    1UNL    H26   49  -0.287  -0.163   0.203
    1UNL    H27   50  -0.420  -0.015  -0.028
    1UNL    H28   51  -0.387   0.050   0.132
   0.00000   0.00000   0.00000   0.00000   0.00000   0.00000   0.00000   0.00000   0.00000
Generated with MDTraj, t= 88.0
 51
    1UNL     C1    1  -0.278   0.187  -0.245
    1UNL     C2    2  -0.273   0.216  -0.095
    1UNL     C3    3  -0.404   0.281  -0.042
    1UNL     C4    4  -0.235   0.086  -0.022
    1UNL     C5    5  -0.112   0.038  -0.022
    1UNL     C6    6  -0.061  -0.089   0.042
    1UNL     O1    7   0.063  -0.151  -0.007
    1UNL     C7    8   0.177  -0.070   0.003
    1UNL     O2    9   0.165   0.049  -0.079
    1UNL     C8   10   0.269   0.142  -0.041
    1UNL     C9   11   0.238   0.218   0.087
    1UNL     O3   12   0.218   0.131   0.194
    1UNL    C10   13   0.412   0.076  -0.043
    1UNL     O4   14   0.472   0.071   0.087
    1UNL    C11   15   0.407  -0.067  -0.103
    1UNL     O5   16   0.540  -0.115  -0.103
    1UNL    C12   17   0.303  -0.151  -0.021
    1UNL     O6   18   0.356  -0.179   0.114
    1UNL    C13   19  -0.179  -0.194   0.029
    1UNL    C14   20  -0.210  -0.224  -0.116
    1UNL     O7   21  -0.141  -0.310   0.104
    1UNL    C15   22  -0.305  -0.138   0.090
    1UNL    C16   23  -0.343   0.003   0.049
    1UNL     H1   24  -0.350   0.111  -0.269
    1UNL     H2   25  -0.316   0.275  -0.305
    1UNL     H3   26  -0.183   0.166  -0.293
    1UNL     H4   27  -0.200   0.294  -0.070
    1UNL     H5   28  -0.484   0.207  -0.032
    1UNL     H6   29  -0.423   0.363  -0.113
    1UNL     H7   30  -0.388   0.321   0.056
    1UNL     H8   31  -0.034   0.100  -0.054
    1UNL     H9   32  -0.044  -0.063   0.150
    1UNL    H10   33   0.178  -0.047   0.112
    1UNL    H11   34   0.263   0.209  -0.125
    1UNL    H12   35   0.312   0.290   0.109
    1UNL    H13   36   0.147   0.264   0.073
    1UNL    H14   37   0.304   0.126   0.245
    1UNL    H15   38   0.473   0.127  -0.110
    1UNL    H16   39   0.457  -0.022   0.126
    1UNL    H17   40   0.378  -0.060  -0.209
    1UNL    H18   41   0.572  -0.109  -0.011
    1UNL    H19   42   0.273  -0.246  -0.060
    1UNL    H20   43   0.278  -0.223   0.148
    1UNL    H21   44  -0.247  -0.133  -0.161
    1UNL    H22   45  -0.121  -0.253  -0.171
    1UNL    H23   46  -0.290  -0.296  -0.120
    1UNL    H24   47  -0.045  -0.302   0.127
    1UNL    H25   48  -0.383  -0.211   0.076
    1UNL    H26   49  -0.307  -0.151   0.204
    1UNL    H27   50  -0.438   0.005  -0.011
    1UNL    H28   51  -0.367   0.061   0.134
   0.00000   0.00000   0.00000   0.00000   0.00000   0.00000   0.00000   0.00000   0.00000
Generated with MDTraj, t= 89.0
 51
    1UNL     C1    1  -0.277   0.203  -0.252
    1UNL     C2    2  -0.248   0.209  -0.101
    1UNL     C3    3  -0.344   0.298  -0.017
    1UNL     C4    4  -0.223   0.072  -0.031
    1UNL     C5    5  -0.097   0.028  -0.020
    1UNL     C6    6  -0.057  -0.102   0.040
    1UNL     O1    7   0.055  -0.158  -0.029
    1UNL     C7    8   0.176  -0.077  -0.006
    1UNL     O2    9   0.164   0.050  -0.076
    1UNL     C8   10   0.261   0.149  -0.040
    1UNL     C9   11   0.212   0.244   0.069
    1UNL     O3   12   0.193   0.179   0.191
    1UNL    C10   13   0.401   0.085  -0.026
    1UNL     O4   14   0.427   0.053   0.111
    1UNL    C11   15   0.408  -0.052  -0.101
    1UNL     O5   16   0.535  -0.113  -0.101
    1UNL    C12   17   0.305  -0.150  -0.035
    1UNL     O6   18   0.361  -0.202   0.089
    1UNL    C13   19  -0.180  -0.200   0.045
    1UNL    C14   20  -0.214  -0.247  -0.092
    1UNL     O7   21  -0.130  -0.312   0.117
    1UNL    C15   22  -0.302  -0.138   0.100
    1UNL    C16   23  -0.340  -0.005   0.031
    1UNL     H1   24  -0.379   0.184  -0.268
    1UNL     H2   25  -0.256   0.305  -0.295
    1UNL     H3   26  -0.210   0.133  -0.307
    1UNL     H4   27  -0.153   0.264  -0.086
    1UNL     H5   28  -0.447   0.263  -0.020
    1UNL     H6   29  -0.337   0.402  -0.046
    1UNL     H7   30  -0.322   0.291   0.089
    1UNL     H8   31  -0.020   0.093  -0.045
    1UNL     H9   32  -0.025  -0.087   0.145
    1UNL    H10   33   0.172  -0.056   0.102
    1UNL    H11   34   0.270   0.206  -0.129
    1UNL    H12   35   0.286   0.316   0.088
    1UNL    H13   36   0.126   0.293   0.046
    1UNL    H14   37   0.267   0.118   0.201
    1UNL    H15   38   0.468   0.154  -0.065
    1UNL    H16   39   0.475  -0.029   0.123
    1UNL    H17   40   0.389  -0.041  -0.207
    1UNL    H18   41   0.545  -0.145  -0.010
    1UNL    H19   42   0.299  -0.239  -0.098
    1UNL    H20   43   0.289  -0.225   0.158
    1UNL    H21   44  -0.240  -0.157  -0.146
    1UNL    H22   45  -0.136  -0.296  -0.151
    1UNL    H23   46  -0.302  -0.305  -0.079
    1UNL    H24   47  -0.084  -0.372   0.058
    1UNL    H25   48  -0.386  -0.201   0.098
    1UNL    H26   49  -0.288  -0.118   0.211
    1UNL    H27   50  -0.409  -0.036  -0.050
    1UNL    H28   51  -0.403   0.044   0.105
   0.00000   0.00000   0.00000   0.00000   0.00000   0.00000   0.00000   0.00000   0.00000
Generated with MDTraj, t= 90.0
 51
    1UNL     C1    1  -0.312   0.191  -0.229
    1UNL     C2    2  -0.229   0.209  -0.095
    1UNL     C3    3  -0.307   0.300  -0.005
    1UNL     C4    4  -0.210   0.077  -0.026
    1UNL     C5    5  -0.090   0.028  -0.011
    1UNL     C6    6  -0.059  -0.103   0.049
    1UNL     O1    7   0.059  -0.158  -0.013
    1UNL     C7    8   0.180  -0.074  -0.011
    1UNL     O2    9   0.163   0.059  -0.073
    1UNL     C8   10   0.271   0.154  -0.052
    1UNL     C9   11   0.203   0.264   0.040
    1UNL     O3   12   0.173   0.211   0.172
    1UNL    C10   13   0.400   0.083  -0.010
    1UNL     O4   14   0.393   0.045   0.130
    1UNL    C11   15   0.424  -0.046  -0.090
    1UNL     O5   16   0.545  -0.108  -0.062
    1UNL    C12   17   0.305  -0.143  -0.066
    1UNL     O6   18   0.352  -0.251   0.017
    1UNL    C13   19  -0.176  -0.208   0.047
    1UNL    C14   20  -0.187  -0.266  -0.092
    1UNL     O7   21  -0.142  -0.312   0.142
    1UNL    C15   22  -0.309  -0.137   0.078
    1UNL    C16   23  -0.331   0.003   0.018
    1UNL     H1   24  -0.405   0.141  -0.210
    1UNL     H2   25  -0.326   0.292  -0.269
    1UNL     H3   26  -0.244   0.135  -0.300
    1UNL     H4   27  -0.128   0.255  -0.113
    1UNL     H5   28  -0.410   0.267   0.002
    1UNL     H6   29  -0.316   0.397  -0.048
    1UNL     H7   30  -0.283   0.313   0.101
    1UNL     H8   31  -0.005   0.098  -0.031
    1UNL     H9   32  -0.036  -0.091   0.155
    1UNL    H10   33   0.176  -0.056   0.099
    1UNL    H11   34   0.298   0.196  -0.145
    1UNL    H12   35   0.253   0.356   0.057
    1UNL    H13   36   0.114   0.293  -0.004
    1UNL    H14   37   0.247   0.146   0.194
    1UNL    H15   38   0.481   0.150  -0.023
    1UNL    H16   39   0.367  -0.052   0.132
    1UNL    H17   40   0.427  -0.023  -0.194
    1UNL    H18   41   0.524  -0.169   0.015
    1UNL    H19   42   0.266  -0.184  -0.163
    1UNL    H20   43   0.273  -0.298   0.060
    1UNL    H21   44  -0.198  -0.193  -0.170
    1UNL    H22   45  -0.093  -0.316  -0.109
    1UNL    H23   46  -0.268  -0.337  -0.090
    1UNL    H24   47  -0.152  -0.282   0.232
    1UNL    H25   48  -0.393  -0.190   0.050
    1UNL    H26   49  -0.330  -0.123   0.189
    1UNL    H27   50  -0.414  -0.012  -0.052
    1UNL    H28   51  -0.372   0.060   0.101
   0.00000   0.00000   0.00000   0.00000   0.00000   0.00000   0.00000   0.00000   0.00000
Generated with MDTraj, t= 91.0
 51
    1UNL     C1    1  -0.336   0.199  -0.201
    1UNL     C2    2  -0.243   0.209  -0.090
    1UNL     C3    3  -0.297   0.320   0.004
    1UNL     C4    4  -0.218   0.074  -0.030
    1UNL     C5    5  -0.095   0.032  -0.010
    1UNL     C6    6  -0.052  -0.099   0.048
    1UNL     O1    7   0.060  -0.144  -0.020
    1UNL     C7    8   0.180  -0.061  -0.010
    1UNL     O2    9   0.171   0.065  -0.079
    1UNL     C8   10   0.283   0.156  -0.060
    1UNL     C9   11   0.225   0.266   0.029
    1UNL     O3   12   0.162   0.207   0.137
    1UNL    C10   13   0.400   0.082   0.003
    1UNL     O4   14   0.363   0.048   0.145
    1UNL    C11   15   0.429  -0.054  -0.078
    1UNL     O5   16   0.542  -0.121  -0.027
    1UNL    C12   17   0.298  -0.137  -0.073
    1UNL     O6   18   0.324  -0.264  -0.013
    1UNL    C13   19  -0.163  -0.211   0.051
    1UNL    C14   20  -0.180  -0.275  -0.082
    1UNL     O7   21  -0.113  -0.311   0.142
    1UNL    C15   22  -0.296  -0.136   0.093
    1UNL    C16   23  -0.329  -0.025  -0.014
    1UNL     H1   24  -0.439   0.170  -0.169
    1UNL     H2   25  -0.336   0.294  -0.252
    1UNL     H3   26  -0.296   0.123  -0.273
    1UNL     H4   27  -0.145   0.244  -0.135
    1UNL     H5   28  -0.391   0.300   0.053
    1UNL     H6   29  -0.306   0.410  -0.054
    1UNL     H7   30  -0.223   0.337   0.082
    1UNL     H8   31  -0.010   0.101  -0.030
    1UNL     H9   32  -0.016  -0.096   0.150
    1UNL    H10   33   0.197  -0.060   0.101
    1UNL    H11   34   0.314   0.199  -0.153
    1UNL    H12   35   0.296   0.338   0.067
    1UNL    H13   36   0.151   0.322  -0.018
    1UNL    H14   37   0.227   0.164   0.194
    1UNL    H15   38   0.491   0.138   0.011
    1UNL    H16   39   0.365  -0.054   0.146
    1UNL    H17   40   0.459  -0.026  -0.177
    1UNL    H18   41   0.512  -0.202   0.018
    1UNL    H19   42   0.273  -0.162  -0.181
    1UNL    H20   43   0.241  -0.297   0.024
    1UNL    H21   44  -0.204  -0.200  -0.155
    1UNL    H22   45  -0.085  -0.309  -0.115
    1UNL    H23   46  -0.259  -0.350  -0.074
    1UNL    H24   47  -0.131  -0.286   0.234
    1UNL    H25   48  -0.379  -0.199   0.107
    1UNL    H26   49  -0.292  -0.095   0.199
    1UNL    H27   50  -0.345  -0.065  -0.113
    1UNL    H28   51  -0.423   0.027   0.003
   0.00000   0.00000   0.00000   0.00000   0.00000   0.00000   0.00000   0.00000   0.00000
Generated with MDTraj, t= 92.0
 51
    1UNL     C1    1  -0.376   0.207  -0.186
    1UNL     C2    2  -0.259   0.207  -0.089
    1UNL     C3    3  -0.280   0.306   0.036
    1UNL     C4    4  -0.231   0.067  -0.039
    1UNL     C5    5  -0.104   0.030  -0.040
    1UNL     C6    6  -0.041  -0.090   0.020
    1UNL     O1    7   0.062  -0.142  -0.057
    1UNL     C7    8   0.181  -0.066  -0.038
    1UNL     O2    9   0.180   0.060  -0.105
    1UNL     C8   10   0.288   0.156  -0.065
    1UNL     C9   11   0.226   0.267   0.026
    1UNL     O3   12   0.174   0.224   0.147
    1UNL    C10   13   0.407   0.085   0.008
    1UNL     O4   14   0.385   0.072   0.150
    1UNL    C11   15   0.438  -0.060  -0.055
    1UNL     O5   16   0.517  -0.135   0.032
    1UNL    C12   17   0.306  -0.148  -0.082
    1UNL     O6   18   0.304  -0.274  -0.017
    1UNL    C13   19  -0.153  -0.201   0.046
    1UNL    C14   20  -0.172  -0.278  -0.085
    1UNL     O7   21  -0.112  -0.296   0.152
    1UNL    C15   22  -0.286  -0.142   0.094
    1UNL    C16   23  -0.335  -0.031   0.000
    1UNL     H1   24  -0.476   0.180  -0.137
    1UNL     H2   25  -0.394   0.295  -0.244
    1UNL     H3   26  -0.368   0.130  -0.265
    1UNL     H4   27  -0.171   0.236  -0.154
    1UNL     H5   28  -0.367   0.282   0.092
    1UNL     H6   29  -0.288   0.404  -0.008
    1UNL     H7   30  -0.192   0.298   0.100
    1UNL     H8   31  -0.035   0.091  -0.085
    1UNL     H9   32   0.006  -0.074   0.116
    1UNL    H10   33   0.190  -0.060   0.074
    1UNL    H11   34   0.319   0.203  -0.160
    1UNL    H12   35   0.307   0.336   0.054
    1UNL    H13   36   0.152   0.327  -0.022
    1UNL    H14   37   0.235   0.159   0.190
    1UNL    H15   38   0.499   0.146   0.017
    1UNL    H16   39   0.384  -0.020   0.173
    1UNL    H17   40   0.495  -0.049  -0.147
    1UNL    H18   41   0.480  -0.229   0.024
    1UNL    H19   42   0.286  -0.153  -0.196
    1UNL    H20   43   0.211  -0.279   0.017
    1UNL    H21   44  -0.194  -0.220  -0.173
    1UNL    H22   45  -0.075  -0.316  -0.106
    1UNL    H23   46  -0.247  -0.354  -0.069
    1UNL    H24   47  -0.123  -0.254   0.242
    1UNL    H25   48  -0.357  -0.222   0.092
    1UNL    H26   49  -0.296  -0.122   0.201
    1UNL    H27   50  -0.375  -0.068  -0.092
    1UNL    H28   51  -0.418   0.027   0.040
   0.00000   0.00000   0.00000   0.00000   0.00000   0.00000   0.00000   0.00000   0.00000
Generated with MDTraj, t= 93.0
 51
    1UNL     C1    1  -0.425   0.205  -0.152
    1UNL     C2    2  -0.283   0.208  -0.088
    1UNL     C3    3  -0.264   0.299   0.035
    1UNL     C4    4  -0.239   0.063  -0.053
    1UNL     C5    5  -0.108   0.031  -0.054
    1UNL     C6    6  -0.039  -0.087   0.014
    1UNL     O1    7   0.070  -0.150  -0.055
    1UNL     C7    8   0.186  -0.072  -0.039
    1UNL     O2    9   0.183   0.062  -0.085
    1UNL     C8   10   0.304   0.146  -0.066
    1UNL     C9   11   0.247   0.270   0.007
    1UNL     O3   12   0.160   0.242   0.116
    1UNL    C10   13   0.408   0.075   0.021
    1UNL     O4   14   0.379   0.077   0.160
    1UNL    C11   15   0.441  -0.071  -0.042
    1UNL     O5   16   0.515  -0.141   0.057
    1UNL    C12   17   0.309  -0.153  -0.083
    1UNL     O6   18   0.314  -0.280  -0.028
    1UNL    C13   19  -0.148  -0.199   0.041
    1UNL    C14   20  -0.172  -0.262  -0.098
    1UNL     O7   21  -0.110  -0.287   0.143
    1UNL    C15   22  -0.282  -0.139   0.094
    1UNL    C16   23  -0.340  -0.023   0.007
    1UNL     H1   24  -0.507   0.147  -0.098
    1UNL     H2   25  -0.470   0.298  -0.184
    1UNL     H3   26  -0.412   0.151  -0.246
    1UNL     H4   27  -0.220   0.245  -0.175
    1UNL     H5   28  -0.319   0.267   0.121
    1UNL     H6   29  -0.293   0.400   0.009
    1UNL     H7   30  -0.161   0.297   0.068
    1UNL     H8   31  -0.031   0.101  -0.097
    1UNL     H9   32   0.001  -0.061   0.112
    1UNL    H10   33   0.198  -0.074   0.072
    1UNL    H11   34   0.339   0.169  -0.170
    1UNL    H12   35   0.332   0.332   0.041
    1UNL    H13   36   0.189   0.334  -0.060
    1UNL    H14   37   0.196   0.195   0.196
    1UNL    H15   38   0.509   0.130   0.024
    1UNL    H16   39   0.455   0.027   0.206
    1UNL    H17   40   0.511  -0.068  -0.129
    1UNL    H18   41   0.452  -0.209   0.082
    1UNL    H19   42   0.316  -0.161  -0.196
    1UNL    H20   43   0.234  -0.334  -0.051
    1UNL    H21   44  -0.200  -0.195  -0.177
    1UNL    H22   45  -0.078  -0.295  -0.139
    1UNL    H23   46  -0.246  -0.337  -0.092
    1UNL    H24   47  -0.030  -0.343   0.115
    1UNL    H25   48  -0.357  -0.217   0.106
    1UNL    H26   49  -0.277  -0.111   0.195
    1UNL    H27   50  -0.396  -0.071  -0.069
    1UNL    H28   51  -0.415   0.035   0.062
   0.00000   0.00000   0.00000   0.00000   0.00000   0.00000   0.00000   0.00000   0.00000
Generated with MDTraj, t= 94.0
 51
    1UNL     C1    1  -0.412   0.211  -0.137
    1UNL     C2    2  -0.271   0.196  -0.088
    1UNL     C3    3  -0.243   0.323  -0.002
    1UNL     C4    4  -0.233   0.063  -0.023
    1UNL     C5    5  -0.102   0.027  -0.042
    1UNL     C6    6  -0.046  -0.096   0.019
    1UNL     O1    7   0.067  -0.150  -0.050
    1UNL     C7    8   0.186  -0.066  -0.033
    1UNL     O2    9   0.179   0.069  -0.083
    1UNL     C8   10   0.298   0.149  -0.073
    1UNL     C9   11   0.260   0.285  -0.018
    1UNL     O3   12   0.188   0.270   0.103
    1UNL    C10   13   0.387   0.074   0.033
    1UNL     O4   14   0.339   0.045   0.163
    1UNL    C11   15   0.437  -0.060  -0.027
    1UNL     O5   16   0.494  -0.139   0.071
    1UNL    C12   17   0.312  -0.138  -0.082
    1UNL     O6   18   0.302  -0.263  -0.034
    1UNL    C13   19  -0.154  -0.215   0.030
    1UNL    C14   20  -0.194  -0.279  -0.107
    1UNL     O7   21  -0.086  -0.320   0.106
    1UNL    C15   22  -0.272  -0.152   0.109
    1UNL    C16   23  -0.337  -0.031   0.028
    1UNL     H1   24  -0.487   0.209  -0.055
    1UNL     H2   25  -0.419   0.310  -0.190
    1UNL     H3   26  -0.433   0.132  -0.209
    1UNL     H4   27  -0.212   0.201  -0.184
    1UNL     H5   28  -0.290   0.322   0.095
    1UNL     H6   29  -0.273   0.419  -0.044
    1UNL     H7   30  -0.140   0.328   0.029
    1UNL     H8   31  -0.027   0.086  -0.094
    1UNL     H9   32  -0.014  -0.083   0.125
    1UNL    H10   33   0.189  -0.051   0.076
    1UNL    H11   34   0.336   0.170  -0.178
    1UNL    H12   35   0.354   0.344  -0.004
    1UNL    H13   36   0.198   0.345  -0.092
    1UNL    H14   37   0.201   0.180   0.143
    1UNL    H15   38   0.473   0.150   0.052
    1UNL    H16   39   0.402  -0.018   0.202
    1UNL    H17   40   0.522  -0.031  -0.097
    1UNL    H18   41   0.509  -0.230   0.027
    1UNL    H19   42   0.308  -0.137  -0.194
    1UNL    H20   43   0.319  -0.276   0.060
    1UNL    H21   44  -0.250  -0.215  -0.170
    1UNL    H22   45  -0.108  -0.297  -0.170
    1UNL    H23   46  -0.254  -0.363  -0.088
    1UNL    H24   47   0.011  -0.298   0.094
    1UNL    H25   48  -0.350  -0.221   0.141
    1UNL    H26   49  -0.246  -0.115   0.201
    1UNL    H27   50  -0.394  -0.072  -0.050
    1UNL    H28   51  -0.411   0.016   0.094
   0.00000   0.00000   0.00000   0.00000   0.00000   0.00000   0.00000   0.00000   0.00000
Generated with MDTraj, t= 95.0
 51
    1UNL     C1    1  -0.413   0.199  -0.113
    1UNL     C2    2  -0.263   0.179  -0.093
    1UNL     C3    3  -0.221   0.311  -0.015
    1UNL     C4    4  -0.223   0.055  -0.025
    1UNL     C5    5  -0.093   0.019  -0.038
    1UNL     C6    6  -0.045  -0.109   0.019
    1UNL     O1    7   0.074  -0.166  -0.040
    1UNL     C7    8   0.180  -0.067  -0.027
    1UNL     O2    9   0.169   0.065  -0.080
    1UNL     C8   10   0.290   0.144  -0.074
    1UNL     C9   11   0.252   0.287  -0.035
    1UNL     O3   12   0.202   0.309   0.099
    1UNL    C10   13   0.383   0.076   0.038
    1UNL     O4   14   0.339   0.051   0.169
    1UNL    C11   15   0.435  -0.056  -0.017
    1UNL     O5   16   0.497  -0.126   0.086
    1UNL    C12   17   0.311  -0.136  -0.078
    1UNL     O6   18   0.310  -0.270  -0.045
    1UNL    C13   19  -0.164  -0.215   0.018
    1UNL    C14   20  -0.195  -0.252  -0.132
    1UNL     O7   21  -0.111  -0.331   0.089
    1UNL    C15   22  -0.281  -0.155   0.099
    1UNL    C16   23  -0.326  -0.012   0.067
    1UNL     H1   24  -0.467   0.210  -0.022
    1UNL     H2   25  -0.430   0.290  -0.181
    1UNL     H3   26  -0.450   0.111  -0.168
    1UNL     H4   27  -0.209   0.183  -0.189
    1UNL     H5   28  -0.273   0.309   0.081
    1UNL     H6   29  -0.266   0.396  -0.066
    1UNL     H7   30  -0.117   0.328   0.005
    1UNL     H8   31  -0.034   0.076  -0.100
    1UNL     H9   32  -0.023  -0.099   0.129
    1UNL    H10   33   0.188  -0.043   0.079
    1UNL    H11   34   0.335   0.144  -0.179
    1UNL    H12   35   0.339   0.355  -0.058
    1UNL    H13   36   0.168   0.317  -0.111
    1UNL    H14   37   0.219   0.225   0.147
    1UNL    H15   38   0.481   0.138   0.049
    1UNL    H16   39   0.378  -0.031   0.196
    1UNL    H17   40   0.518  -0.043  -0.098
    1UNL    H18   41   0.536  -0.203   0.045
    1UNL    H19   42   0.294  -0.134  -0.188
    1UNL    H20   43   0.269  -0.287   0.044
    1UNL    H21   44  -0.225  -0.170  -0.191
    1UNL    H22   45  -0.108  -0.286  -0.182
    1UNL    H23   46  -0.276  -0.323  -0.129
    1UNL    H24   47  -0.021  -0.344   0.057
    1UNL    H25   48  -0.368  -0.222   0.098
    1UNL    H26   49  -0.257  -0.159   0.198
    1UNL    H27   50  -0.423  -0.005   0.026
    1UNL    H28   51  -0.331   0.051   0.158
   0.00000   0.00000   0.00000   0.00000   0.00000   0.00000   0.00000   0.00000   0.00000
Generated with MDTraj, t= 96.0
 51
    1UNL     C1    1  -0.416   0.211  -0.104
    1UNL     C2    2  -0.271   0.184  -0.090
    1UNL     C3    3  -0.202   0.296  -0.009
    1UNL     C4    4  -0.222   0.062  -0.021
    1UNL     C5    5  -0.093   0.024  -0.028
    1UNL     C6    6  -0.052  -0.113   0.023
    1UNL     O1    7   0.067  -0.170  -0.047
    1UNL     C7    8   0.178  -0.087  -0.011
    1UNL     O2    9   0.164   0.054  -0.035
    1UNL     C8   10   0.275   0.137  -0.075
    1UNL     C9   11   0.247   0.281  -0.040
    1UNL     O3   12   0.174   0.305   0.082
    1UNL    C10   13   0.405   0.091   0.013
    1UNL     O4   14   0.380   0.097   0.153
    1UNL    C11   15   0.442  -0.057  -0.018
    1UNL     O5   16   0.492  -0.116   0.105
    1UNL    C12   17   0.313  -0.146  -0.065
    1UNL     O6   18   0.320  -0.285  -0.041
    1UNL    C13   19  -0.167  -0.217   0.008
    1UNL    C14   20  -0.204  -0.232  -0.144
    1UNL     O7   21  -0.116  -0.331   0.069
    1UNL    C15   22  -0.283  -0.167   0.091
    1UNL    C16   23  -0.323  -0.021   0.062
    1UNL     H1   24  -0.465   0.220  -0.010
    1UNL     H2   25  -0.440   0.302  -0.169
    1UNL     H3   26  -0.459   0.123  -0.157
    1UNL     H4   27  -0.220   0.186  -0.187
    1UNL     H5   28  -0.252   0.308   0.088
    1UNL     H6   29  -0.209   0.389  -0.066
    1UNL     H7   30  -0.098   0.275   0.010
    1UNL     H8   31  -0.032   0.082  -0.105
    1UNL     H9   32  -0.019  -0.106   0.130
    1UNL    H10   33   0.197  -0.092   0.096
    1UNL    H11   34   0.289   0.122  -0.187
    1UNL    H12   35   0.347   0.335  -0.049
    1UNL    H13   36   0.180   0.324  -0.127
    1UNL    H14   37   0.220   0.236   0.136
    1UNL    H15   38   0.486   0.172  -0.007
    1UNL    H16   39   0.423   0.021   0.207
    1UNL    H17   40   0.527  -0.069  -0.094
    1UNL    H18   41   0.466  -0.212   0.105
    1UNL    H19   42   0.308  -0.140  -0.173
    1UNL    H20   43   0.231  -0.332  -0.039
    1UNL    H21   44  -0.243  -0.142  -0.183
    1UNL    H22   45  -0.120  -0.254  -0.201
    1UNL    H23   46  -0.282  -0.306  -0.145
    1UNL    H24   47  -0.045  -0.377   0.020
    1UNL    H25   48  -0.370  -0.233   0.095
    1UNL    H26   49  -0.249  -0.167   0.189
    1UNL    H27   50  -0.417  -0.013   0.014
    1UNL    H28   51  -0.333   0.038   0.155
   0.00000   0.00000   0.00000   0.00000   0.00000   0.00000   0.00000   0.00000   0.00000
Generated with MDTraj, t= 97.0
 51
    1UNL     C1    1  -0.410   0.231  -0.095
    1UNL     C2    2  -0.259   0.201  -0.074
    1UNL     C3    3  -0.186   0.307   0.023
    1UNL     C4    4  -0.225   0.059  -0.024
    1UNL     C5    5  -0.095   0.017  -0.021
    1UNL     C6    6  -0.051  -0.125   0.021
    1UNL     O1    7   0.074  -0.171  -0.033
    1UNL     C7    8   0.184  -0.090   0.009
    1UNL     O2    9   0.160   0.048  -0.015
    1UNL     C8   10   0.264   0.126  -0.075
    1UNL     C9   11   0.242   0.272  -0.053
    1UNL     O3   12   0.191   0.311   0.072
    1UNL    C10   13   0.403   0.086  -0.002
    1UNL     O4   14   0.397   0.129   0.131
    1UNL    C11   15   0.434  -0.065  -0.010
    1UNL     O5   16   0.472  -0.097   0.119
    1UNL    C12   17   0.315  -0.144  -0.066
    1UNL     O6   18   0.316  -0.281  -0.049
    1UNL    C13   19  -0.169  -0.223   0.001
    1UNL    C14   20  -0.208  -0.260  -0.140
    1UNL     O7   21  -0.118  -0.341   0.062
    1UNL    C15   22  -0.288  -0.172   0.069
    1UNL    C16   23  -0.336  -0.031   0.023
    1UNL     H1   24  -0.454   0.228   0.006
    1UNL     H2   25  -0.428   0.328  -0.144
    1UNL     H3   26  -0.462   0.153  -0.157
    1UNL     H4   27  -0.210   0.207  -0.170
    1UNL     H5   28  -0.220   0.304   0.127
    1UNL     H6   29  -0.195   0.411  -0.009
    1UNL     H7   30  -0.079   0.291   0.033
    1UNL     H8   31  -0.021   0.080  -0.064
    1UNL     H9   32  -0.027  -0.129   0.130
    1UNL    H10   33   0.196  -0.095   0.116
    1UNL    H11   34   0.265   0.083  -0.179
    1UNL    H12   35   0.340   0.325  -0.083
    1UNL    H13   36   0.158   0.309  -0.128
    1UNL    H14   37   0.266   0.283   0.129
    1UNL    H15   38   0.494   0.139  -0.049
    1UNL    H16   39   0.380   0.059   0.191
    1UNL    H17   40   0.530  -0.084  -0.067
    1UNL    H18   41   0.504  -0.189   0.127
    1UNL    H19   42   0.283  -0.117  -0.165
    1UNL    H20   43   0.228  -0.319  -0.047
    1UNL    H21   44  -0.257  -0.178  -0.187
    1UNL    H22   45  -0.124  -0.287  -0.196
    1UNL    H23   46  -0.280  -0.337  -0.128
    1UNL    H24   47  -0.039  -0.372   0.008
    1UNL    H25   48  -0.366  -0.244   0.051
    1UNL    H26   49  -0.274  -0.169   0.176
    1UNL    H27   50  -0.418  -0.039  -0.047
    1UNL    H28   51  -0.380   0.014   0.113
   0.00000   0.00000   0.00000   0.00000   0.00000   0.00000   0.00000   0.00000   0.00000
Generated with MDTraj, t= 98.0
 51
    1UNL     C1    1  -0.392   0.248  -0.080
    1UNL     C2    2  -0.243   0.209  -0.057
    1UNL     C3    3  -0.186   0.276   0.064
    1UNL     C4    4  -0.228   0.060  -0.027
    1UNL     C5    5  -0.100   0.016  -0.018
    1UNL     C6    6  -0.052  -0.124   0.021
    1UNL     O1    7   0.069  -0.166  -0.041
    1UNL     C7    8   0.181  -0.092   0.008
    1UNL     O2    9   0.158   0.048   0.010
    1UNL     C8   10   0.252   0.124  -0.058
    1UNL     C9   11   0.225   0.273  -0.083
    1UNL     O3   12   0.227   0.347   0.036
    1UNL    C10   13   0.394   0.088   0.003
    1UNL     O4   14   0.415   0.140   0.128
    1UNL    C11   15   0.432  -0.063  -0.008
    1UNL     O5   16   0.447  -0.100   0.123
    1UNL    C12   17   0.310  -0.142  -0.074
    1UNL     O6   18   0.314  -0.279  -0.048
    1UNL    C13   19  -0.165  -0.232   0.001
    1UNL    C14   20  -0.176  -0.279  -0.141
    1UNL     O7   21  -0.133  -0.346   0.079
    1UNL    C15   22  -0.304  -0.179   0.044
    1UNL    C16   23  -0.337  -0.034  -0.007
    1UNL     H1   24  -0.454   0.205   0.006
    1UNL     H2   25  -0.406   0.353  -0.092
    1UNL     H3   26  -0.429   0.199  -0.173
    1UNL     H4   27  -0.189   0.226  -0.149
    1UNL     H5   28  -0.237   0.239   0.154
    1UNL     H6   29  -0.208   0.383   0.059
    1UNL     H7   30  -0.078   0.263   0.082
    1UNL     H8   31  -0.024   0.086  -0.024
    1UNL     H9   32  -0.037  -0.126   0.130
    1UNL    H10   33   0.204  -0.121   0.110
    1UNL    H11   34   0.254   0.067  -0.152
    1UNL    H12   35   0.295   0.317  -0.163
    1UNL    H13   36   0.115   0.282  -0.122
    1UNL    H14   37   0.269   0.290   0.104
    1UNL    H15   38   0.457   0.147  -0.072
    1UNL    H16   39   0.453   0.075   0.197
    1UNL    H17   40   0.524  -0.082  -0.065
    1UNL    H18   41   0.421  -0.195   0.123
    1UNL    H19   42   0.305  -0.136  -0.182
    1UNL    H20   43   0.229  -0.332  -0.038
    1UNL    H21   44  -0.194  -0.201  -0.209
    1UNL    H22   45  -0.086  -0.328  -0.168
    1UNL    H23   46  -0.253  -0.348  -0.146
    1UNL    H24   47  -0.060  -0.390   0.027
    1UNL    H25   48  -0.387  -0.243   0.018
    1UNL    H26   49  -0.302  -0.180   0.154
    1UNL    H27   50  -0.388  -0.043  -0.102
    1UNL    H28   51  -0.417   0.002   0.058
   0.00000   0.00000   0.00000   0.00000   0.00000   0.00000   0.00000   0.00000   0.00000
Generated with MDTraj, t= 99.0
 51
    1UNL     C1    1  -0.395   0.255  -0.081
    1UNL     C2    2  -0.256   0.204  -0.031
    1UNL     C3    3  -0.217   0.278   0.094
    1UNL     C4    4  -0.226   0.054  -0.020
    1UNL     C5    5  -0.103   0.012   0.014
    1UNL     C6    6  -0.059  -0.130   0.032
    1UNL     O1    7   0.054  -0.162  -0.042
    1UNL     C7    8   0.172  -0.094   0.000
    1UNL     O2    9   0.174   0.049   0.005
    1UNL     C8   10   0.262   0.120  -0.078
    1UNL     C9   11   0.226   0.275  -0.091
    1UNL     O3   12   0.229   0.329   0.036
    1UNL    C10   13   0.412   0.092  -0.024
    1UNL     O4   14   0.433   0.145   0.112
    1UNL    C11   15   0.431  -0.066  -0.012
    1UNL     O5   16   0.450  -0.089   0.120
    1UNL    C12   17   0.312  -0.150  -0.062
    1UNL     O6   18   0.330  -0.281  -0.013
    1UNL    C13   19  -0.170  -0.232  -0.006
    1UNL    C14   20  -0.156  -0.270  -0.152
    1UNL     O7   21  -0.146  -0.344   0.079
    1UNL    C15   22  -0.313  -0.172   0.027
    1UNL    C16   23  -0.338  -0.038  -0.035
    1UNL     H1   24  -0.483   0.223  -0.014
    1UNL     H2   25  -0.396   0.361  -0.091
    1UNL     H3   26  -0.420   0.219  -0.183
    1UNL     H4   27  -0.189   0.226  -0.115
    1UNL     H5   28  -0.295   0.257   0.167
    1UNL     H6   29  -0.218   0.385   0.070
    1UNL     H7   30  -0.121   0.241   0.134
    1UNL     H8   31  -0.028   0.092   0.044
    1UNL     H9   32  -0.040  -0.151   0.137
    1UNL    H10   33   0.187  -0.124   0.105
    1UNL    H11   34   0.249   0.070  -0.174
    1UNL    H12   35   0.298   0.335  -0.157
    1UNL    H13   36   0.119   0.293  -0.133
    1UNL    H14   37   0.300   0.293   0.094
    1UNL    H15   38   0.483   0.139  -0.096
    1UNL    H16   39   0.404   0.086   0.180
    1UNL    H17   40   0.525  -0.093  -0.054
    1UNL    H18   41   0.417  -0.182   0.140
    1UNL    H19   42   0.292  -0.149  -0.170
    1UNL    H20   43   0.240  -0.312   0.020
    1UNL    H21   44  -0.168  -0.189  -0.217
    1UNL    H22   45  -0.059  -0.311  -0.164
    1UNL    H23   46  -0.220  -0.345  -0.182
    1UNL    H24   47  -0.078  -0.397   0.035
    1UNL    H25   48  -0.379  -0.243  -0.020
    1UNL    H26   49  -0.333  -0.175   0.138
    1UNL    H27   50  -0.375  -0.043  -0.138
    1UNL    H28   51  -0.424   0.012   0.011
   0.00000   0.00000   0.00000   0.00000   0.00000   0.00000   0.00000   0.00000   0.00000
