[ moleculetype ]
; name        nrexcl
res           1

[ atoms ]
;    nr  type  resnr resid  atom  cgnr     charge       mass
      1 SC2       1 res   C1        1      0.000     54.000
      2 TC5       1 res   C2        2      0.000     36.000
      3 TN6       1 res   C3        3      0.000     36.000
      4 SN4a      1 res   C4        4      0.000     54.000
      5 TP1       1 res   C5        5      0.000     36.000
      6 SP4       1 res   C6        6      0.000     54.000
      7 TN6       1 res   C7        7      0.000     36.000
      8 SN6       1 res   C8        8      0.000     54.000
      9 TC3       1 res   C9        9      0.000     36.000

[ constraints ]
;  ai    aj   funct      b0(nm)
    1     2     1      0.27877
    2     3     1      0.22571
    3     8     1      0.24513
    2     9     1      0.29646
    4     6     1      0.25432

[ bonds ]
;  ai    aj   funct      b0(nm)          k(kJ/mol/nm^2)
    4     5     1      0.25340           4190.1
    3     4     1      0.27929           1593.5
    6     7     1      0.27925           5711.0
    8     9     1      0.29125          18624.4
    4     7     1      0.27753          10734.1

[ angles ]
;  ai    aj    ak  funct     th0(deg)        k(kJ/mol/rad^2)
    1     2     3     1    161.23291           420.35
    1     2     9     1     82.89129           789.85
    2     3     4     1     98.60422            15.85
    2     3     8     1     95.33637           245.45
    2     9     8     1     72.68171           370.81
    3     2     9     1     81.23113          1245.13
    3     4     5     1    113.32999            87.54
    3     4     6     1    123.62128            28.39
    3     4     7     1     72.71913            42.88
    3     8     9     1     79.35994           635.62
    4     3     8     1    135.26624            68.93
    4     6     7     1     62.61217           218.03
    4     7     6     1     54.05059          1434.81
    5     4     6     1    101.97740            66.00
    5     4     7     1    152.39429            45.26
    6     4     7     1     63.33714           176.34

[ dihedrals ]
;  ai    aj    ak    al  funct   phi0(deg)        k(kJ/mol)   mult
    1     2     3     4     1     19.82294       29.699      1
    1     2     3     8     1   -128.68882       29.805      1
    1     2     9     8     1    -34.82383       16.391      1
    2     3     4     5     1   -134.26524       29.567      1
    2     3     4     6     1      6.57497       23.197      1
    2     3     4     7     1     31.07358       28.269      1
    2     3     8     9     1    138.98898       14.934      1
    2     9     8     3     1   -148.06718       12.840      1
    3     2     9     8     1    146.41081       14.962      1
    3     4     6     7     1   -168.50336       21.529      1
    3     4     7     6     1     20.24765       26.197      1
    4     3     2     9     1     11.99089       21.733      1
    4     3     8     9     1     16.63996       26.838      1
    5     4     3     8     1    -21.08201       25.601      1
    5     4     6     7     1    -11.30836       27.634      1
    5     4     7     6     1    166.75112       21.830      1
    6     4     3     8     1     98.21126       19.502      1
    7     4     3     8     1    151.21416       27.187      1
    8     3     2     9     1   -141.38084       15.677      1
