1TPCN01905
10
    1res  C1    1    0.015  -0.299   0.153
    1res  C2    2    0.125  -0.030   0.053
    1res  C3    3    0.316  -0.079  -0.109
    1res  C4    4    0.525   0.064  -0.158
    1res  C5    5    0.053   0.258  -0.007
    1res  C6    6   -0.122   0.359  -0.156
    1res  C7    7   -0.151   0.106  -0.159
    1res  C8    8   -0.222  -0.087  -0.085
    1res  C9    9   -0.280  -0.112   0.173
    1res  C10   10   -0.422   0.039   0.020
  10.00000  10.00000  10.00000
