[ moleculetype ]
; name        nrexcl
res           1

[ atoms ]
;    nr  type  resnr resid  atom  cgnr     charge       mass
      1 SC2       1 res   C1        1      0.000     54.000
      2 N4a       1 res   C2        2      0.000     72.000
      3 SC3       1 res   C3        3      0.000     54.000
      4 SN5a      1 res   C4        4      0.000     54.000
      5 TN6       1 res   C5        5      0.000     36.000
      6 SC4       1 res   C6        6      0.000     54.000
      7 TN6       1 res   C7        7      0.000     36.000
      8 SN4a      1 res   C8        8      0.000     54.000
      9 TP1       1 res   C9        9      0.000     36.000
     10 SP4       1 res   C10      10      0.000     54.000
     11 TN6       1 res   C11      11      0.000     36.000

[ constraints ]
;  ai    aj   funct      b0(nm)
    3     5     1      0.30243
    4     5     1      0.31628
    3     4     1      0.31925
    7     8     1      0.30479
    5     6     1      0.38471
    8    10     1      0.28332
    3     7     1      0.23016
    6     7     1      0.27013
    8     9     1      0.28325
    4     6     1      0.31481

[ bonds ]
;  ai    aj   funct      b0(nm)          k(kJ/mol/nm^2)
    1     2     1      0.34453          15537.8
   10    11     1      0.30802          12878.3
    2     3     1      0.42794           4069.6
    8    11     1      0.28591          16315.3

[ angles ]
;  ai    aj    ak  funct     th0(deg)        k(kJ/mol/rad^2)
    1     2     3     1    136.87270            13.79
    2     3     4     1     68.33845           376.70
    2     3     5     1    123.16926           187.81
    2     3     7     1     55.36765           237.06
    3     4     5     1     56.83726          1658.80
    3     4     6     1     65.37010          4008.83
    3     5     4     1     62.06145          4881.32
    3     5     6     1     58.25672          2883.81
    3     7     6     1     85.99532          2417.99
    3     7     8     1    104.12842           103.30
    4     3     5     1     61.10143          2235.32
    4     3     7     1     67.69160          2421.81
    4     5     6     1     52.24819          3820.15
    4     6     5     1     52.60824          2618.27
    4     6     7     1     64.59263          2645.17
    5     3     7     1    119.07040           895.71
    5     4     6     1     75.14381          1197.21
    5     6     7     1     87.51814          1227.60
    6     7     8     1    149.63647           111.02
    7     8     9     1    133.70937           180.07
    7     8    10     1    114.23321           189.07
    7     8    11     1     56.38610           426.81
    8    10    11     1     57.60319           644.70
    8    11    10     1     56.73171          1344.05
    9     8    10     1     70.90727           883.78
    9     8    11     1    100.26188            29.94
   10     8    11     1     65.66524           349.71

[ dihedrals ]
;  ai    aj    ak    al  funct   phi0(deg)        k(kJ/mol)   mult
    1     2     3     4     1   -103.67970       13.537      1
    1     2     3     5     1    -83.24512       16.892      1
    1     2     3     7     1    168.57390       16.705      1
    2     3     4     5     1    -30.58614       14.909      1
    2     3     4     6     1     57.48178       13.492      1
    2     3     5     4     1    148.07861       15.006      1
    2     3     5     6     1     87.06256       14.279      1
    2     3     7     6     1    -39.96765       13.589      1
    2     3     7     8     1    113.78082       16.355      1
    3     4     5     6     1   -109.99593        4.803      1
    3     4     6     5     1    120.95232        5.572      1
    3     4     6     7     1   -132.01099        3.246      1
    3     5     4     6     1    109.99593        4.803      1
    3     5     6     4     1   -102.98798        5.511      1
    3     5     6     7     1   -161.99866        6.273      1
    3     7     6     4     1    110.04382        4.787      1
    3     7     6     5     1    160.91185        7.037      1
    3     7     8     9     1     -3.81695       23.080      1
    3     7     8    10     1     80.95492       23.355      1
    3     7     8    11     1     58.53481       21.303      1
    4     3     5     6     1    119.92841        4.733      1
    4     3     7     6     1   -115.99340        4.725      1
    4     3     7     8     1     38.72272       14.831      1
    4     5     3     7     1   -143.95414        9.258      1
    4     5     6     7     1    120.02844        6.304      1
    4     6     7     8     1      0.78559       22.052      1
    5     3     4     6     1    -92.95467        7.086      1
    5     3     7     6     1   -149.84548        9.300      1
    5     3     7     8     1      4.04713       16.351      1
    5     4     3     7     1     33.09024        8.564      1
    5     4     6     7     1    -72.95686        7.058      1
    5     6     7     8     1     50.93042       22.024      1
    6     4     3     7     1    121.07072        5.521      1
    6     5     3     7     1    155.80232        7.810      1
    6     7     8     9     1    117.30965       21.363      1
    6     7     8    10     1   -155.00626       21.922      1
    6     7     8    11     1   -178.22363       21.396      1
    7     8    10    11     1    174.75462       26.729      1
    7     8    11    10     1    -12.01815       25.376      1
    9     8    10    11     1    -52.64107       24.353      1
    9     8    11    10     1    134.21739       18.866      1
