1TPCN05061
19
    1res  C1    1    0.596  -0.391   0.063
    1res  C2    2    0.603  -0.070   0.044
    1res  C3    3    0.421   0.091   0.063
    1res  C4    4    0.191   0.008   0.086
    1res  C5    5    0.194   0.294   0.173
    1res  C6    6    0.169   0.099   0.407
    1res  C7    7   -0.065   0.193   0.322
    1res  C8    8    0.018  -0.116  -0.108
    1res  C9    9   -0.179  -0.118   0.156
    1res  C10   10   -0.220  -0.013  -0.206
    1res  C11   11   -0.489  -0.058   0.003
    1res  C12   12   -0.548  -0.148  -0.243
    1res  C13   13   -0.750   0.011  -0.176
    1res  C14   14   -0.663   0.204  -0.067
    1res  C15   15   -0.293   0.199   0.001
    1res  C16   16    0.141   0.126  -0.157
    1res  C17   17    0.552  -0.001  -0.171
    1res  C18   18    0.666  -0.160  -0.268
    1res  C19   19    0.748  -0.342  -0.126
  10.00000  10.00000  10.00000
