[ moleculetype ]
; name        nrexcl
res           1

[ atoms ]
;    nr  type  resnr resid  atom  cgnr     charge       mass
      1 C1        1 res   C1        1      0.000     72.000
      2 TC5       1 res   C2        2      0.000     36.000
      3 TC5       1 res   C3        3      0.000     36.000
      4 TC5       1 res   C4        4      0.000     36.000

[ constraints ]
;  ai    aj   funct      b0(nm)
    1     2     1      0.29363
    3     4     1      0.28726
    2     3     1      0.25598
    2     4     1      0.29747

[ bonds ]
;  ai    aj   funct      b0(nm)          k(kJ/mol/nm^2)

[ angles ]
;  ai    aj    ak  funct     th0(deg)        k(kJ/mol/rad^2)
    1     2     3     1    159.05304           511.87
    1     2     4     1     98.70827           777.65
    2     3     4     1     66.11971          4362.37
    2     4     3     1     51.88577          6985.42
    3     2     4     1     61.99453          7222.78

[ dihedrals ]
;  ai    aj    ak    al  funct   phi0(deg)        k(kJ/mol)   mult
    1     2     3     4     1   -165.19524       24.445      1
    1     2     4     3     1      6.02922       12.220      1
