[ moleculetype ]
; name        nrexcl
res           1

[ atoms ]
;    nr  type resnr resid  atom  cgnr     charge       mass
      1 SC4       1 res   C1        1      0.000     54.000
      2 TC3       1 res   C2        2      0.000     36.000
      3 SC5       1 res   C3        3      0.000     54.000
      4 TN3r      1 res   C4        4      0.000     36.000
      5 SN4a      1 res   C5        5      0.000     54.000
      6 TP1       1 res   C6        6      0.000     36.000
      7 TN6       1 res   C7        7      0.000     36.000
      8 TN6       1 res   C8        8      0.000     36.000
      9 TN6       1 res   C9        9      0.000     36.000
     10 SN6       1 res   C10      10      0.000     54.000
     11 SC4       1 res   C11      11      0.000     54.000
     12 TC3       1 res   C12      12      0.000     36.000
     13 SC4       1 res   C13      13      0.000     54.000
     14 SC4       1 res   C14      14      0.000     54.000
     15 TC3       1 res   C15      15      0.000     36.000
     16 TN6       1 res   C16      16      0.000     36.000
     17 SN4a      1 res   C17      17      0.000     54.000
     18 TN3r      1 res   C18      18      0.000     36.000
     19 SN4a      1 res   C19      19      0.000     54.000
     20 TP1       1 res   C20      20      0.000     36.000
     21 TN6       1 res   C21      21      0.000     36.000
     22 TN6       1 res   C22      22      0.000     36.000
     23 TN6       1 res   C23      23      0.000     36.000
     24 TN6       1 res   C24      24      0.000     36.000
     25 TN6       1 res   C25      25      0.000     36.000
     26 TN6       1 res   C26      26      0.000     36.000
     27 SC4       1 res   C27      27      0.000     54.000
     28 TC3       1 res   C28      28      0.000     36.000

[ bonds ]
;  ai    aj   funct      b0(nm)        k
    1     2     1      0.29871    20000
    1     3     1      0.28131    20000
    2     3     1      0.27701    20000
    3     4     1      0.33698    20000
    3    10     1      0.34507    20000
    3    11     1      0.37018    20000
    4     5     1      0.28062    20000
    5     6     1      0.25654    20000
    5     7     1      0.25586    20000
    5     9     1      0.26388    20000
    7     8     1      0.25082    20000
    8     9     1      0.22166    20000
   10    11     1      0.29170    20000
   11    12     1      0.33728    20000
   11    13     1      0.26754    20000
   12    13     1      0.38047    20000
   13    14     1      0.26759    20000
   13    28     1      0.28568    20000
   14    15     1      0.25690    20000
   14    27     1      0.33104    20000
   14    28     1      0.30813    20000
   15    16     1      0.25819    20000
   16    17     1      0.28988    20000
   16    27     1      0.24417    20000
   17    18     1      0.22411    20000
   17    24     1      0.27185    20000
   17    26     1      0.28520    20000
   18    19     1      0.27640    20000
   19    20     1      0.29036    20000
   19    21     1      0.27689    20000
   19    23     1      0.24721    20000
   21    22     1      0.28116    20000
   22    23     1      0.24932    20000
   24    25     1      0.23833    20000
   25    26     1      0.21284    20000
