Generated with MDTraj, t= 0.0
 47
    1UNL     C1    1  -0.333   0.338   0.124
    1UNL     O1    2  -0.222   0.261   0.089
    1UNL     C2    3  -0.256   0.160  -0.008
    1UNL     N1    4  -0.375   0.090   0.027
    1UNL     C3    5  -0.380  -0.037   0.019
    1UNL     C4    6  -0.269  -0.129  -0.020
    1UNL     C5    7  -0.172  -0.054  -0.114
    1UNL     C6    8  -0.047  -0.141  -0.145
    1UNL     C7    9   0.030  -0.168  -0.013
    1UNL     C8   10   0.163  -0.099  -0.014
    1UNL     N2   11   0.279  -0.141  -0.076
    1UNL     C9   12   0.376  -0.043  -0.058
    1UNL    C10   13   0.509  -0.034  -0.101
    1UNL    C11   14   0.581   0.078  -0.068
    1UNL    C12   15   0.523   0.182   0.007
    1UNL    C13   16   0.394   0.175   0.050
    1UNL    C14   17   0.318   0.061   0.018
    1UNL    C15   18   0.183   0.023   0.044
    1UNL    C16   19   0.076   0.098   0.117
    1UNL    C17   20  -0.062   0.031   0.097
    1UNL    C18   21  -0.131   0.073  -0.036
    1UNL     N3   22  -0.052  -0.119   0.103
    1UNL    C19   23  -0.191  -0.176   0.106
    1UNL    C20   24  -0.191  -0.328   0.122
    1UNL     H1   25  -0.371   0.391   0.037
    1UNL     H2   26  -0.304   0.411   0.200
    1UNL     H3   27  -0.411   0.273   0.165
    1UNL     H4   28  -0.280   0.216  -0.100
    1UNL     H5   29  -0.474  -0.082   0.048
    1UNL     H6   30  -0.310  -0.217  -0.073
    1UNL     H7   31  -0.224  -0.025  -0.207
    1UNL     H8   32  -0.077  -0.235  -0.193
    1UNL     H9   33   0.019  -0.089  -0.216
    1UNL    H10   34   0.047  -0.276   0.001
    1UNL    H11   35   0.292  -0.227  -0.129
    1UNL    H12   36   0.552  -0.114  -0.159
    1UNL    H13   37   0.683   0.087  -0.100
    1UNL    H14   38   0.583   0.268   0.032
    1UNL    H15   39   0.349   0.254   0.108
    1UNL    H16   40   0.073   0.201   0.082
    1UNL    H17   41   0.101   0.102   0.223
    1UNL    H18   42  -0.128   0.061   0.179
    1UNL    H19   43  -0.058   0.130  -0.095
    1UNL    H20   44  -0.240  -0.132   0.194
    1UNL    H21   45  -0.130  -0.358   0.207
    1UNL    H22   46  -0.150  -0.376   0.033
    1UNL    H23   47  -0.292  -0.367   0.137
   0.00000   0.00000   0.00000   0.00000   0.00000   0.00000   0.00000   0.00000   0.00000
Generated with MDTraj, t= 1.0
 47
    1UNL     C1    1  -0.355   0.301   0.157
    1UNL     O1    2  -0.236   0.232   0.110
    1UNL     C2    3  -0.251   0.167  -0.018
    1UNL     N1    4  -0.376   0.097  -0.028
    1UNL     C3    5  -0.376  -0.030  -0.023
    1UNL     C4    6  -0.258  -0.121  -0.028
    1UNL     C5    7  -0.156  -0.046  -0.110
    1UNL     C6    8  -0.028  -0.134  -0.136
    1UNL     C7    9   0.029  -0.168   0.004
    1UNL     C8   10   0.170  -0.110   0.007
    1UNL     N2   11   0.271  -0.143  -0.081
    1UNL     C9   12   0.369  -0.046  -0.061
    1UNL    C10   13   0.493  -0.030  -0.120
    1UNL    C11   14   0.571   0.077  -0.091
    1UNL    C12   15   0.530   0.182  -0.008
    1UNL    C13   16   0.404   0.170   0.051
    1UNL    C14   17   0.322   0.057   0.026
    1UNL    C15   18   0.189   0.014   0.060
    1UNL    C16   19   0.081   0.098   0.125
    1UNL    C17   20  -0.058   0.040   0.101
    1UNL    C18   21  -0.117   0.084  -0.037
    1UNL     N3   22  -0.058  -0.111   0.113
    1UNL    C19   23  -0.195  -0.160   0.112
    1UNL    C20   24  -0.209  -0.314   0.134
    1UNL     H1   25  -0.324   0.355   0.246
    1UNL     H2   26  -0.435   0.235   0.185
    1UNL     H3   27  -0.392   0.369   0.081
    1UNL     H4   28  -0.265   0.252  -0.082
    1UNL     H5   29  -0.473  -0.079  -0.010
    1UNL     H6   30  -0.274  -0.211  -0.089
    1UNL     H7   31  -0.202  -0.022  -0.203
    1UNL     H8   32  -0.054  -0.225  -0.193
    1UNL     H9   33   0.047  -0.087  -0.193
    1UNL    H10   34   0.041  -0.275   0.016
    1UNL    H11   35   0.260  -0.238  -0.116
    1UNL    H12   36   0.540  -0.102  -0.182
    1UNL    H13   37   0.673   0.064  -0.119
    1UNL    H14   38   0.598   0.253   0.033
    1UNL    H15   39   0.393   0.237   0.138
    1UNL    H16   40   0.076   0.205   0.096
    1UNL    H17   41   0.102   0.119   0.232
    1UNL    H18   42  -0.115   0.072   0.187
    1UNL    H19   43  -0.033   0.143  -0.088
    1UNL    H20   44  -0.247  -0.111   0.193
    1UNL    H21   45  -0.163  -0.349   0.229
    1UNL    H22   46  -0.163  -0.365   0.057
    1UNL    H23   47  -0.318  -0.338   0.138
   0.00000   0.00000   0.00000   0.00000   0.00000   0.00000   0.00000   0.00000   0.00000
Generated with MDTraj, t= 2.0
 47
    1UNL     C1    1  -0.372   0.281   0.179
    1UNL     O1    2  -0.249   0.231   0.122
    1UNL     C2    3  -0.249   0.168  -0.004
    1UNL     N1    4  -0.375   0.100  -0.035
    1UNL     C3    5  -0.379  -0.027  -0.030
    1UNL     C4    6  -0.259  -0.114  -0.042
    1UNL     C5    7  -0.152  -0.034  -0.117
    1UNL     C6    8  -0.026  -0.124  -0.139
    1UNL     C7    9   0.031  -0.167  -0.004
    1UNL     C8   10   0.176  -0.116   0.015
    1UNL     N2   11   0.287  -0.151  -0.059
    1UNL     C9   12   0.385  -0.056  -0.048
    1UNL    C10   13   0.511  -0.045  -0.109
    1UNL    C11   14   0.570   0.077  -0.098
    1UNL    C12   15   0.513   0.179  -0.031
    1UNL    C13   16   0.394   0.171   0.042
    1UNL    C14   17   0.328   0.051   0.025
    1UNL    C15   18   0.196   0.015   0.057
    1UNL    C16   19   0.087   0.102   0.122
    1UNL    C17   20  -0.056   0.043   0.104
    1UNL    C18   21  -0.117   0.085  -0.028
    1UNL     N3   22  -0.055  -0.110   0.110
    1UNL    C19   23  -0.197  -0.152   0.099
    1UNL    C20   24  -0.225  -0.303   0.132
    1UNL     H1   25  -0.447   0.205   0.160
    1UNL     H2   26  -0.397   0.365   0.113
    1UNL     H3   27  -0.357   0.303   0.285
    1UNL     H4   28  -0.255   0.249  -0.075
    1UNL     H5   29  -0.473  -0.072  -0.051
    1UNL     H6   30  -0.287  -0.204  -0.096
    1UNL     H7   31  -0.197  -0.004  -0.206
    1UNL     H8   32  -0.048  -0.218  -0.196
    1UNL     H9   33   0.038  -0.068  -0.198
    1UNL    H10   34   0.025  -0.274   0.010
    1UNL    H11   35   0.277  -0.225  -0.129
    1UNL    H12   36   0.553  -0.130  -0.168
    1UNL    H13   37   0.667   0.110  -0.143
    1UNL    H14   38   0.580   0.270  -0.020
    1UNL    H15   39   0.358   0.248   0.103
    1UNL    H16   40   0.096   0.212   0.115
    1UNL    H17   41   0.097   0.102   0.232
    1UNL    H18   42  -0.116   0.078   0.188
    1UNL    H19   43  -0.046   0.146  -0.100
    1UNL    H20   44  -0.246  -0.093   0.175
    1UNL    H21   45  -0.178  -0.338   0.226
    1UNL    H22   46  -0.188  -0.372   0.063
    1UNL    H23   47  -0.333  -0.322   0.148
   0.00000   0.00000   0.00000   0.00000   0.00000   0.00000   0.00000   0.00000   0.00000
Generated with MDTraj, t= 3.0
 47
    1UNL     C1    1  -0.366   0.288   0.184
    1UNL     O1    2  -0.250   0.231   0.133
    1UNL     C2    3  -0.255   0.168   0.006
    1UNL     N1    4  -0.382   0.101  -0.018
    1UNL     C3    5  -0.375  -0.026  -0.025
    1UNL     C4    6  -0.260  -0.117  -0.043
    1UNL     C5    7  -0.154  -0.036  -0.127
    1UNL     C6    8  -0.026  -0.124  -0.144
    1UNL     C7    9   0.030  -0.157  -0.006
    1UNL     C8   10   0.160  -0.096  -0.007
    1UNL     N2   11   0.279  -0.159  -0.044
    1UNL     C9   12   0.376  -0.061  -0.044
    1UNL    C10   13   0.512  -0.056  -0.086
    1UNL    C11   14   0.577   0.061  -0.082
    1UNL    C12   15   0.526   0.177  -0.022
    1UNL    C13   16   0.401   0.178   0.022
    1UNL    C14   17   0.328   0.056   0.017
    1UNL    C15   18   0.189   0.026   0.045
    1UNL    C16   19   0.083   0.107   0.120
    1UNL    C17   20  -0.060   0.045   0.102
    1UNL    C18   21  -0.124   0.082  -0.031
    1UNL     N3   22  -0.052  -0.106   0.105
    1UNL    C19   23  -0.197  -0.158   0.092
    1UNL    C20   24  -0.198  -0.314   0.107
    1UNL     H1   25  -0.366   0.394   0.152
    1UNL     H2   26  -0.348   0.267   0.293
    1UNL     H3   27  -0.452   0.229   0.145
    1UNL     H4   28  -0.271   0.251  -0.064
    1UNL     H5   29  -0.472  -0.077  -0.029
    1UNL     H6   30  -0.295  -0.203  -0.102
    1UNL     H7   31  -0.202  -0.007  -0.212
    1UNL     H8   32  -0.053  -0.214  -0.205
    1UNL     H9   33   0.045  -0.074  -0.203
    1UNL    H10   34   0.046  -0.263   0.011
    1UNL    H11   35   0.299  -0.259  -0.041
    1UNL    H12   36   0.551  -0.138  -0.137
    1UNL    H13   37   0.664   0.070  -0.134
    1UNL    H14   38   0.575   0.266  -0.027
    1UNL    H15   39   0.361   0.276   0.059
    1UNL    H16   40   0.075   0.211   0.085
    1UNL    H17   41   0.106   0.137   0.225
    1UNL    H18   42  -0.119   0.085   0.184
    1UNL    H19   43  -0.061   0.160  -0.094
    1UNL    H20   44  -0.249  -0.112   0.174
    1UNL    H21   45  -0.151  -0.354   0.197
    1UNL    H22   46  -0.149  -0.378   0.025
    1UNL    H23   47  -0.301  -0.346   0.120
   0.00000   0.00000   0.00000   0.00000   0.00000   0.00000   0.00000   0.00000   0.00000
Generated with MDTraj, t= 4.0
 47
    1UNL     C1    1  -0.361   0.309   0.172
    1UNL     O1    2  -0.242   0.246   0.120
    1UNL     C2    3  -0.268   0.166   0.003
    1UNL     N1    4  -0.390   0.081   0.016
    1UNL     C3    5  -0.383  -0.045   0.004
    1UNL     C4    6  -0.264  -0.121  -0.029
    1UNL     C5    7  -0.176  -0.031  -0.118
    1UNL     C6    8  -0.048  -0.122  -0.151
    1UNL     C7    9   0.030  -0.163  -0.028
    1UNL     C8   10   0.160  -0.094  -0.033
    1UNL     N2   11   0.288  -0.151  -0.063
    1UNL     C9   12   0.386  -0.053  -0.052
    1UNL    C10   13   0.521  -0.051  -0.081
    1UNL    C11   14   0.594   0.053  -0.051
    1UNL    C12   15   0.536   0.164   0.013
    1UNL    C13   16   0.403   0.170   0.051
    1UNL    C14   17   0.326   0.055   0.018
    1UNL    C15   18   0.184   0.027   0.027
    1UNL    C16   19   0.082   0.108   0.100
    1UNL    C17   20  -0.062   0.047   0.084
    1UNL    C18   21  -0.136   0.094  -0.036
    1UNL     N3   22  -0.048  -0.110   0.083
    1UNL    C19   23  -0.188  -0.163   0.095
    1UNL    C20   24  -0.191  -0.314   0.115
    1UNL     H1   25  -0.376   0.263   0.272
    1UNL     H2   26  -0.441   0.272   0.103
    1UNL     H3   27  -0.347   0.420   0.162
    1UNL     H4   28  -0.308   0.238  -0.073
    1UNL     H5   29  -0.472  -0.097   0.030
    1UNL     H6   30  -0.287  -0.204  -0.096
    1UNL     H7   31  -0.213   0.006  -0.206
    1UNL     H8   32  -0.068  -0.203  -0.222
    1UNL     H9   33   0.009  -0.053  -0.208
    1UNL    H10   34   0.049  -0.270  -0.018
    1UNL    H11   35   0.314  -0.225  -0.127
    1UNL    H12   36   0.568  -0.136  -0.136
    1UNL    H13   37   0.700   0.059  -0.092
    1UNL    H14   38   0.606   0.254   0.028
    1UNL    H15   39   0.357   0.257   0.085
    1UNL    H16   40   0.089   0.212   0.068
    1UNL    H17   41   0.106   0.129   0.207
    1UNL    H18   42  -0.111   0.072   0.178
    1UNL    H19   43  -0.064   0.162  -0.103
    1UNL    H20   44  -0.236  -0.121   0.185
    1UNL    H21   45  -0.137  -0.347   0.204
    1UNL    H22   46  -0.144  -0.378   0.028
    1UNL    H23   47  -0.294  -0.341   0.133
   0.00000   0.00000   0.00000   0.00000   0.00000   0.00000   0.00000   0.00000   0.00000
Generated with MDTraj, t= 5.0
 47
    1UNL     C1    1  -0.347   0.335   0.150
    1UNL     O1    2  -0.238   0.250   0.099
    1UNL     C2    3  -0.280   0.155   0.001
    1UNL     N1    4  -0.389   0.078   0.051
    1UNL     C3    5  -0.377  -0.046   0.036
    1UNL     C4    6  -0.263  -0.130  -0.019
    1UNL     C5    7  -0.191  -0.044  -0.122
    1UNL     C6    8  -0.066  -0.126  -0.171
    1UNL     C7    9   0.027  -0.149  -0.048
    1UNL     C8   10   0.160  -0.087  -0.044
    1UNL     N2   11   0.278  -0.129  -0.105
    1UNL     C9   12   0.383  -0.045  -0.066
    1UNL    C10   13   0.522  -0.053  -0.077
    1UNL    C11   14   0.599   0.045  -0.017
    1UNL    C12   15   0.546   0.147   0.065
    1UNL    C13   16   0.408   0.165   0.077
    1UNL    C14   17   0.327   0.059   0.008
    1UNL    C15   18   0.184   0.032   0.019
    1UNL    C16   19   0.078   0.113   0.088
    1UNL    C17   20  -0.065   0.045   0.079
    1UNL    C18   21  -0.152   0.081  -0.040
    1UNL     N3   22  -0.043  -0.104   0.083
    1UNL    C19   23  -0.172  -0.168   0.102
    1UNL    C20   24  -0.171  -0.322   0.116
    1UNL     H1   25  -0.433   0.336   0.084
    1UNL     H2   26  -0.299   0.433   0.166
    1UNL     H3   27  -0.375   0.283   0.244
    1UNL     H4   28  -0.329   0.219  -0.079
    1UNL     H5   29  -0.471  -0.090   0.074
    1UNL     H6   30  -0.307  -0.218  -0.069
    1UNL     H7   31  -0.252  -0.021  -0.203
    1UNL     H8   32  -0.107  -0.208  -0.229
    1UNL     H9   33  -0.018  -0.059  -0.241
    1UNL    H10   34   0.036  -0.255  -0.029
    1UNL    H11   35   0.286  -0.199  -0.178
    1UNL    H12   36   0.559  -0.132  -0.137
    1UNL    H13   37   0.701   0.043  -0.028
    1UNL    H14   38   0.619   0.195   0.120
    1UNL    H15   39   0.361   0.243   0.141
    1UNL    H16   40   0.076   0.214   0.051
    1UNL    H17   41   0.108   0.136   0.193
    1UNL    H18   42  -0.124   0.078   0.166
    1UNL    H19   43  -0.099   0.159  -0.112
    1UNL    H20   44  -0.214  -0.137   0.201
    1UNL    H21   45  -0.087  -0.348   0.185
    1UNL    H22   46  -0.144  -0.380   0.023
    1UNL    H23   47  -0.263  -0.361   0.165
   0.00000   0.00000   0.00000   0.00000   0.00000   0.00000   0.00000   0.00000   0.00000
Generated with MDTraj, t= 6.0
 47
    1UNL     C1    1  -0.349   0.351   0.131
    1UNL     O1    2  -0.235   0.271   0.089
    1UNL     C2    3  -0.271   0.154   0.006
    1UNL     N1    4  -0.376   0.076   0.069
    1UNL     C3    5  -0.374  -0.051   0.065
    1UNL     C4    6  -0.269  -0.136  -0.011
    1UNL     C5    7  -0.193  -0.044  -0.120
    1UNL     C6    8  -0.068  -0.122  -0.170
    1UNL     C7    9   0.028  -0.149  -0.051
    1UNL     C8   10   0.159  -0.077  -0.054
    1UNL     N2   11   0.273  -0.120  -0.118
    1UNL     C9   12   0.379  -0.039  -0.070
    1UNL    C10   13   0.517  -0.057  -0.076
    1UNL    C11   14   0.589   0.028   0.005
    1UNL    C12   15   0.533   0.144   0.075
    1UNL    C13   16   0.398   0.156   0.076
    1UNL    C14   17   0.321   0.061   0.014
    1UNL    C15   18   0.183   0.043   0.015
    1UNL    C16   19   0.072   0.118   0.093
    1UNL    C17   20  -0.060   0.040   0.079
    1UNL    C18   21  -0.145   0.079  -0.037
    1UNL     N3   22  -0.041  -0.108   0.075
    1UNL    C19   23  -0.168  -0.179   0.094
    1UNL    C20   24  -0.150  -0.332   0.089
    1UNL     H1   25  -0.307   0.446   0.159
    1UNL     H2   26  -0.388   0.294   0.213
    1UNL     H3   27  -0.418   0.364   0.048
    1UNL     H4   28  -0.322   0.187  -0.090
    1UNL     H5   29  -0.449  -0.093   0.127
    1UNL     H6   30  -0.314  -0.223  -0.062
    1UNL     H7   31  -0.254  -0.017  -0.205
    1UNL     H8   32  -0.102  -0.208  -0.222
    1UNL     H9   33  -0.033  -0.052  -0.247
    1UNL    H10   34   0.049  -0.254  -0.052
    1UNL    H11   35   0.277  -0.219  -0.142
    1UNL    H12   36   0.566  -0.132  -0.136
    1UNL    H13   37   0.694  -0.005   0.014
    1UNL    H14   38   0.594   0.216   0.134
    1UNL    H15   39   0.353   0.223   0.142
    1UNL    H16   40   0.064   0.218   0.061
    1UNL    H17   41   0.093   0.134   0.203
    1UNL    H18   42  -0.125   0.052   0.168
    1UNL    H19   43  -0.089   0.151  -0.110
    1UNL    H20   44  -0.192  -0.164   0.203
    1UNL    H21   45  -0.069  -0.363   0.164
    1UNL    H22   46  -0.112  -0.375  -0.001
    1UNL    H23   47  -0.243  -0.391   0.124
   0.00000   0.00000   0.00000   0.00000   0.00000   0.00000   0.00000   0.00000   0.00000
Generated with MDTraj, t= 7.0
 47
    1UNL     C1    1  -0.349   0.350   0.129
    1UNL     O1    2  -0.242   0.281   0.082
    1UNL     C2    3  -0.272   0.160   0.012
    1UNL     N1    4  -0.365   0.081   0.088
    1UNL     C3    5  -0.378  -0.043   0.058
    1UNL     C4    6  -0.271  -0.125  -0.014
    1UNL     C5    7  -0.192  -0.036  -0.117
    1UNL     C6    8  -0.069  -0.117  -0.169
    1UNL     C7    9   0.027  -0.157  -0.057
    1UNL     C8   10   0.164  -0.085  -0.061
    1UNL     N2   11   0.284  -0.133  -0.098
    1UNL     C9   12   0.382  -0.042  -0.052
    1UNL    C10   13   0.519  -0.052  -0.071
    1UNL    C11   14   0.600   0.049  -0.005
    1UNL    C12   15   0.538   0.157   0.062
    1UNL    C13   16   0.401   0.160   0.073
    1UNL    C14   17   0.317   0.058   0.019
    1UNL    C15   18   0.180   0.025   0.020
    1UNL    C16   19   0.073   0.101   0.095
    1UNL    C17   20  -0.063   0.034   0.087
    1UNL    C18   21  -0.144   0.082  -0.034
    1UNL     N3   22  -0.041  -0.119   0.073
    1UNL    C19   23  -0.175  -0.188   0.082
    1UNL    C20   24  -0.168  -0.342   0.074
    1UNL     H1   25  -0.397   0.282   0.197
    1UNL     H2   26  -0.403   0.370   0.038
    1UNL     H3   27  -0.318   0.445   0.174
    1UNL     H4   28  -0.328   0.185  -0.082
    1UNL     H5   29  -0.449  -0.099   0.120
    1UNL     H6   30  -0.326  -0.195  -0.081
    1UNL     H7   31  -0.259  -0.005  -0.204
    1UNL     H8   32  -0.107  -0.196  -0.227
    1UNL     H9   33  -0.027  -0.044  -0.243
    1UNL    H10   34   0.046  -0.262  -0.061
    1UNL    H11   35   0.290  -0.217  -0.156
    1UNL    H12   36   0.551  -0.141  -0.129
    1UNL    H13   37   0.708   0.056  -0.018
    1UNL    H14   38   0.597   0.230   0.116
    1UNL    H15   39   0.354   0.234   0.139
    1UNL    H16   40   0.064   0.200   0.061
    1UNL    H17   41   0.111   0.125   0.200
    1UNL    H18   42  -0.122   0.059   0.178
    1UNL    H19   43  -0.076   0.157  -0.086
    1UNL    H20   44  -0.209  -0.170   0.188
    1UNL    H21   45  -0.106  -0.398   0.155
    1UNL    H22   46  -0.131  -0.388  -0.013
    1UNL    H23   47  -0.274  -0.384   0.092
   0.00000   0.00000   0.00000   0.00000   0.00000   0.00000   0.00000   0.00000   0.00000
Generated with MDTraj, t= 8.0
 47
    1UNL     C1    1  -0.339   0.348   0.136
    1UNL     O1    2  -0.230   0.269   0.106
    1UNL     C2    3  -0.267   0.164   0.015
    1UNL     N1    4  -0.381   0.086   0.045
    1UNL     C3    5  -0.383  -0.038   0.016
    1UNL     C4    6  -0.269  -0.120  -0.036
    1UNL     C5    7  -0.179  -0.034  -0.121
    1UNL     C6    8  -0.051  -0.117  -0.166
    1UNL     C7    9   0.020  -0.161  -0.041
    1UNL     C8   10   0.157  -0.093  -0.030
    1UNL     N2   11   0.276  -0.136  -0.080
    1UNL     C9   12   0.378  -0.042  -0.052
    1UNL    C10   13   0.516  -0.046  -0.088
    1UNL    C11   14   0.595   0.062  -0.043
    1UNL    C12   15   0.539   0.161   0.044
    1UNL    C13   16   0.403   0.165   0.072
    1UNL    C14   17   0.320   0.061   0.024
    1UNL    C15   18   0.184   0.025   0.038
    1UNL    C16   19   0.072   0.089   0.121
    1UNL    C17   20  -0.063   0.025   0.097
    1UNL    C18   21  -0.138   0.081  -0.025
    1UNL     N3   22  -0.050  -0.126   0.088
    1UNL    C19   23  -0.187  -0.185   0.083
    1UNL    C20   24  -0.169  -0.337   0.073
    1UNL     H1   25  -0.396   0.387   0.049
    1UNL     H2   26  -0.297   0.433   0.191
    1UNL     H3   27  -0.399   0.289   0.211
    1UNL     H4   28  -0.302   0.216  -0.075
    1UNL     H5   29  -0.473  -0.093   0.032
    1UNL     H6   30  -0.317  -0.200  -0.097
    1UNL     H7   31  -0.235   0.001  -0.218
    1UNL     H8   32  -0.089  -0.193  -0.229
    1UNL     H9   33   0.020  -0.050  -0.224
    1UNL    H10   34   0.038  -0.265  -0.029
    1UNL    H11   35   0.275  -0.217  -0.144
    1UNL    H12   36   0.553  -0.110  -0.161
    1UNL    H13   37   0.690   0.072  -0.088
    1UNL    H14   38   0.601   0.240   0.078
    1UNL    H15   39   0.350   0.237   0.132
    1UNL    H16   40   0.077   0.189   0.091
    1UNL    H17   41   0.093   0.100   0.232
    1UNL    H18   42  -0.127   0.036   0.187
    1UNL    H19   43  -0.067   0.150  -0.074
    1UNL    H20   44  -0.247  -0.181   0.179
    1UNL    H21   45  -0.084  -0.394   0.126
    1UNL    H22   46  -0.155  -0.369  -0.034
    1UNL    H23   47  -0.266  -0.382   0.108
   0.00000   0.00000   0.00000   0.00000   0.00000   0.00000   0.00000   0.00000   0.00000
Generated with MDTraj, t= 9.0
 47
    1UNL     C1    1  -0.337   0.326   0.164
    1UNL     O1    2  -0.225   0.240   0.126
    1UNL     C2    3  -0.242   0.168   0.002
    1UNL     N1    4  -0.370   0.100   0.001
    1UNL     C3    5  -0.383  -0.024  -0.021
    1UNL     C4    6  -0.270  -0.118  -0.048
    1UNL     C5    7  -0.163  -0.038  -0.120
    1UNL     C6    8  -0.033  -0.125  -0.154
    1UNL     C7    9   0.031  -0.173  -0.026
    1UNL     C8   10   0.168  -0.104  -0.014
    1UNL     N2   11   0.282  -0.138  -0.081
    1UNL     C9   12   0.376  -0.039  -0.066
    1UNL    C10   13   0.502  -0.026  -0.110
    1UNL    C11   14   0.575   0.078  -0.065
    1UNL    C12   15   0.517   0.176   0.031
    1UNL    C13   16   0.394   0.163   0.081
    1UNL    C14   17   0.324   0.050   0.032
    1UNL    C15   18   0.189   0.014   0.057
    1UNL    C16   19   0.079   0.086   0.132
    1UNL    C17   20  -0.062   0.023   0.109
    1UNL    C18   21  -0.120   0.079  -0.024
    1UNL     N3   22  -0.056  -0.126   0.092
    1UNL    C19   23  -0.205  -0.172   0.077
    1UNL    C20   24  -0.216  -0.320   0.094
    1UNL     H1   25  -0.320   0.411   0.236
    1UNL     H2   26  -0.417   0.263   0.205
    1UNL     H3   27  -0.380   0.373   0.071
    1UNL     H4   28  -0.241   0.247  -0.071
    1UNL     H5   29  -0.484  -0.066  -0.026
    1UNL     H6   30  -0.319  -0.201  -0.107
    1UNL     H7   31  -0.213   0.005  -0.218
    1UNL     H8   32  -0.060  -0.212  -0.210
    1UNL     H9   33   0.032  -0.059  -0.219
    1UNL    H10   34   0.050  -0.276  -0.025
    1UNL    H11   35   0.288  -0.221  -0.142
    1UNL    H12   36   0.543  -0.092  -0.190
    1UNL    H13   37   0.679   0.092  -0.103
    1UNL    H14   38   0.578   0.266   0.057
    1UNL    H15   39   0.351   0.242   0.139
    1UNL    H16   40   0.074   0.190   0.119
    1UNL    H17   41   0.124   0.075   0.236
    1UNL    H18   42  -0.132   0.039   0.194
    1UNL    H19   43  -0.043   0.136  -0.068
    1UNL    H20   44  -0.270  -0.139   0.164
    1UNL    H21   45  -0.174  -0.363   0.190
    1UNL    H22   46  -0.149  -0.368   0.007
    1UNL    H23   47  -0.323  -0.348   0.086
   0.00000   0.00000   0.00000   0.00000   0.00000   0.00000   0.00000   0.00000   0.00000
Generated with MDTraj, t= 10.0
 47
    1UNL     C1    1  -0.335   0.286   0.175
    1UNL     O1    2  -0.213   0.235   0.126
    1UNL     C2    3  -0.231   0.178  -0.005
    1UNL     N1    4  -0.362   0.117  -0.018
    1UNL     C3    5  -0.376  -0.008  -0.032
    1UNL     C4    6  -0.262  -0.109  -0.048
    1UNL     C5    7  -0.151  -0.031  -0.125
    1UNL     C6    8  -0.026  -0.129  -0.153
    1UNL     C7    9   0.028  -0.174  -0.016
    1UNL     C8   10   0.160  -0.113   0.000
    1UNL     N2   11   0.268  -0.142  -0.079
    1UNL     C9   12   0.365  -0.051  -0.050
    1UNL    C10   13   0.494  -0.021  -0.110
    1UNL    C11   14   0.557   0.099  -0.082
    1UNL    C12   15   0.507   0.192   0.007
    1UNL    C13   16   0.390   0.164   0.070
    1UNL    C14   17   0.321   0.039   0.046
    1UNL    C15   18   0.190  -0.003   0.078
    1UNL    C16   19   0.078   0.080   0.148
    1UNL    C17   20  -0.057   0.019   0.107
    1UNL    C18   21  -0.107   0.085  -0.030
    1UNL     N3   22  -0.058  -0.120   0.098
    1UNL    C19   23  -0.201  -0.169   0.078
    1UNL    C20   24  -0.227  -0.319   0.086
    1UNL     H1   25  -0.413   0.209   0.203
    1UNL     H2   26  -0.378   0.367   0.115
    1UNL     H3   27  -0.312   0.338   0.269
    1UNL     H4   28  -0.230   0.264  -0.069
    1UNL     H5   29  -0.477  -0.042  -0.040
    1UNL     H6   30  -0.304  -0.186  -0.119
    1UNL     H7   31  -0.203   0.000  -0.227
    1UNL     H8   32  -0.057  -0.210  -0.218
    1UNL     H9   33   0.055  -0.077  -0.210
    1UNL    H10   34   0.034  -0.278  -0.022
    1UNL    H11   35   0.289  -0.216  -0.148
    1UNL    H12   36   0.546  -0.093  -0.165
    1UNL    H13   37   0.649   0.124  -0.122
    1UNL    H14   38   0.574   0.265   0.037
    1UNL    H15   39   0.333   0.226   0.144
    1UNL    H16   40   0.095   0.183   0.123
    1UNL    H17   41   0.086   0.077   0.259
    1UNL    H18   42  -0.134   0.034   0.186
    1UNL    H19   43  -0.030   0.138  -0.073
    1UNL    H20   44  -0.249  -0.124   0.167
    1UNL    H21   45  -0.187  -0.375   0.176
    1UNL    H22   46  -0.170  -0.363  -0.004
    1UNL    H23   47  -0.337  -0.340   0.075
   0.00000   0.00000   0.00000   0.00000   0.00000   0.00000   0.00000   0.00000   0.00000
Generated with MDTraj, t= 11.0
 47
    1UNL     C1    1  -0.325   0.287   0.185
    1UNL     O1    2  -0.213   0.255   0.117
    1UNL     C2    3  -0.234   0.173   0.001
    1UNL     N1    4  -0.361   0.107  -0.004
    1UNL     C3    5  -0.378  -0.012  -0.036
    1UNL     C4    6  -0.257  -0.098  -0.057
    1UNL     C5    7  -0.145  -0.020  -0.124
    1UNL     C6    8  -0.024  -0.119  -0.147
    1UNL     C7    9   0.027  -0.177  -0.013
    1UNL     C8   10   0.164  -0.123   0.011
    1UNL     N2   11   0.278  -0.145  -0.061
    1UNL     C9   12   0.370  -0.043  -0.049
    1UNL    C10   13   0.495  -0.028  -0.109
    1UNL    C11   14   0.563   0.087  -0.084
    1UNL    C12   15   0.503   0.182  -0.001
    1UNL    C13   16   0.381   0.175   0.061
    1UNL    C14   17   0.313   0.055   0.038
    1UNL    C15   18   0.181   0.000   0.076
    1UNL    C16   19   0.076   0.068   0.151
    1UNL    C17   20  -0.065   0.017   0.110
    1UNL    C18   21  -0.104   0.089  -0.024
    1UNL     N3   22  -0.070  -0.128   0.104
    1UNL    C19   23  -0.208  -0.178   0.072
    1UNL    C20   24  -0.221  -0.325   0.061
    1UNL     H1   25  -0.358   0.389   0.157
    1UNL     H2   26  -0.315   0.292   0.293
    1UNL     H3   27  -0.402   0.214   0.168
    1UNL     H4   28  -0.244   0.243  -0.081
    1UNL     H5   29  -0.480  -0.049  -0.034
    1UNL     H6   30  -0.292  -0.175  -0.133
    1UNL     H7   31  -0.172   0.031  -0.227
    1UNL     H8   32  -0.053  -0.204  -0.213
    1UNL     H9   33   0.056  -0.066  -0.203
    1UNL    H10   34   0.036  -0.281  -0.019
    1UNL    H11   35   0.289  -0.199  -0.149
    1UNL    H12   36   0.540  -0.106  -0.171
    1UNL    H13   37   0.667   0.105  -0.123
    1UNL    H14   38   0.556   0.278   0.024
    1UNL    H15   39   0.361   0.247   0.131
    1UNL    H16   40   0.077   0.178   0.143
    1UNL    H17   41   0.109   0.048   0.254
    1UNL    H18   42  -0.142   0.056   0.179
    1UNL    H19   43  -0.029   0.146  -0.063
    1UNL    H20   44  -0.272  -0.136   0.150
    1UNL    H21   45  -0.162  -0.396   0.130
    1UNL    H22   46  -0.190  -0.351  -0.039
    1UNL    H23   47  -0.333  -0.356   0.071
   0.00000   0.00000   0.00000   0.00000   0.00000   0.00000   0.00000   0.00000   0.00000
Generated with MDTraj, t= 12.0
 47
    1UNL     C1    1  -0.316   0.319   0.175
    1UNL     O1    2  -0.208   0.256   0.124
    1UNL     C2    3  -0.240   0.173   0.004
    1UNL     N1    4  -0.369   0.110   0.016
    1UNL     C3    5  -0.382  -0.013  -0.003
    1UNL     C4    6  -0.270  -0.107  -0.057
    1UNL     C5    7  -0.162  -0.034  -0.133
    1UNL     C6    8  -0.038  -0.121  -0.164
    1UNL     C7    9   0.026  -0.168  -0.031
    1UNL     C8   10   0.160  -0.111  -0.009
    1UNL     N2   11   0.281  -0.155  -0.066
    1UNL     C9   12   0.377  -0.051  -0.043
    1UNL    C10   13   0.505  -0.024  -0.096
    1UNL    C11   14   0.568   0.093  -0.059
    1UNL    C12   15   0.513   0.188   0.020
    1UNL    C13   16   0.388   0.165   0.073
    1UNL    C14   17   0.318   0.049   0.038
    1UNL    C15   18   0.180   0.005   0.058
    1UNL    C16   19   0.076   0.073   0.140
    1UNL    C17   20  -0.064   0.018   0.104
    1UNL    C18   21  -0.125   0.077  -0.029
    1UNL     N3   22  -0.058  -0.125   0.086
    1UNL    C19   23  -0.200  -0.182   0.064
    1UNL    C20   24  -0.210  -0.332   0.060
    1UNL     H1   25  -0.340   0.276   0.272
    1UNL     H2   26  -0.399   0.291   0.113
    1UNL     H3   27  -0.306   0.424   0.188
    1UNL     H4   28  -0.251   0.249  -0.075
    1UNL     H5   29  -0.478  -0.057   0.017
    1UNL     H6   30  -0.321  -0.193  -0.111
    1UNL     H7   31  -0.208   0.024  -0.225
    1UNL     H8   32  -0.070  -0.207  -0.229
    1UNL     H9   33   0.035  -0.061  -0.218
    1UNL    H10   34   0.033  -0.272  -0.032
    1UNL    H11   35   0.292  -0.249  -0.109
    1UNL    H12   36   0.548  -0.077  -0.182
    1UNL    H13   37   0.653   0.116  -0.114
    1UNL    H14   38   0.556   0.282   0.033
    1UNL    H15   39   0.338   0.238   0.144
    1UNL    H16   40   0.095   0.185   0.125
    1UNL    H17   41   0.089   0.054   0.245
    1UNL    H18   42  -0.131   0.035   0.189
    1UNL    H19   43  -0.046   0.128  -0.072
    1UNL    H20   44  -0.261  -0.143   0.145
    1UNL    H21   45  -0.172  -0.387   0.155
    1UNL    H22   46  -0.155  -0.367  -0.025
    1UNL    H23   47  -0.325  -0.357   0.051
   0.00000   0.00000   0.00000   0.00000   0.00000   0.00000   0.00000   0.00000   0.00000
Generated with MDTraj, t= 13.0
 47
    1UNL     C1    1  -0.318   0.354   0.142
    1UNL     O1    2  -0.219   0.255   0.118
    1UNL     C2    3  -0.251   0.167   0.007
    1UNL     N1    4  -0.365   0.093   0.043
    1UNL     C3    5  -0.385  -0.029   0.009
    1UNL     C4    6  -0.274  -0.123  -0.042
    1UNL     C5    7  -0.168  -0.030  -0.123
    1UNL     C6    8  -0.051  -0.118  -0.170
    1UNL     C7    9   0.030  -0.164  -0.044
    1UNL     C8   10   0.160  -0.086  -0.037
    1UNL     N2   11   0.276  -0.125  -0.098
    1UNL     C9   12   0.377  -0.036  -0.065
    1UNL    C10   13   0.510  -0.030  -0.093
    1UNL    C11   14   0.579   0.067  -0.030
    1UNL    C12   15   0.525   0.156   0.060
    1UNL    C13   16   0.392   0.153   0.090
    1UNL    C14   17   0.316   0.056   0.025
    1UNL    C15   18   0.179   0.018   0.049
    1UNL    C16   19   0.074   0.074   0.138
    1UNL    C17   20  -0.065   0.016   0.100
    1UNL    C18   21  -0.128   0.088  -0.027
    1UNL     N3   22  -0.057  -0.132   0.075
    1UNL    C19   23  -0.202  -0.190   0.072
    1UNL    C20   24  -0.188  -0.338   0.071
    1UNL     H1   25  -0.344   0.419   0.057
    1UNL     H2   26  -0.277   0.409   0.228
    1UNL     H3   27  -0.406   0.306   0.179
    1UNL     H4   28  -0.280   0.225  -0.086
    1UNL     H5   29  -0.473  -0.081   0.043
    1UNL     H6   30  -0.306  -0.211  -0.108
    1UNL     H7   31  -0.224   0.009  -0.218
    1UNL     H8   32  -0.099  -0.200  -0.231
    1UNL     H9   33   0.016  -0.065  -0.235
    1UNL    H10   34   0.045  -0.268  -0.044
    1UNL    H11   35   0.267  -0.209  -0.158
    1UNL    H12   36   0.550  -0.090  -0.169
    1UNL    H13   37   0.685   0.090  -0.050
    1UNL    H14   38   0.594   0.227   0.111
    1UNL    H15   39   0.350   0.221   0.159
    1UNL    H16   40   0.059   0.189   0.126
    1UNL    H17   41   0.103   0.058   0.240
    1UNL    H18   42  -0.132   0.040   0.184
    1UNL    H19   43  -0.049   0.147  -0.064
    1UNL    H20   44  -0.247  -0.151   0.164
    1UNL    H21   45  -0.132  -0.367   0.168
    1UNL    H22   46  -0.132  -0.366  -0.021
    1UNL    H23   47  -0.297  -0.373   0.077
   0.00000   0.00000   0.00000   0.00000   0.00000   0.00000   0.00000   0.00000   0.00000
Generated with MDTraj, t= 14.0
 47
    1UNL     C1    1  -0.341   0.355   0.123
    1UNL     O1    2  -0.221   0.280   0.096
    1UNL     C2    3  -0.271   0.162   0.016
    1UNL     N1    4  -0.373   0.084   0.069
    1UNL     C3    5  -0.375  -0.040   0.046
    1UNL     C4    6  -0.271  -0.122  -0.030
    1UNL     C5    7  -0.183  -0.033  -0.122
    1UNL     C6    8  -0.067  -0.115  -0.168
    1UNL     C7    9   0.023  -0.158  -0.050
    1UNL     C8   10   0.156  -0.087  -0.052
    1UNL     N2   11   0.275  -0.107  -0.118
    1UNL     C9   12   0.376  -0.027  -0.064
    1UNL    C10   13   0.519  -0.029  -0.087
    1UNL    C11   14   0.600   0.049  -0.017
    1UNL    C12   15   0.545   0.134   0.085
    1UNL    C13   16   0.413   0.138   0.109
    1UNL    C14   17   0.322   0.052   0.039
    1UNL    C15   18   0.182   0.021   0.034
    1UNL    C16   19   0.076   0.087   0.113
    1UNL    C17   20  -0.065   0.027   0.093
    1UNL    C18   21  -0.149   0.087  -0.030
    1UNL     N3   22  -0.051  -0.123   0.075
    1UNL    C19   23  -0.183  -0.194   0.076
    1UNL    C20   24  -0.178  -0.345   0.052
    1UNL     H1   25  -0.391   0.307   0.210
    1UNL     H2   26  -0.407   0.353   0.033
    1UNL     H3   27  -0.319   0.460   0.143
    1UNL     H4   28  -0.318   0.208  -0.077
    1UNL     H5   29  -0.464  -0.097   0.071
    1UNL     H6   30  -0.318  -0.195  -0.105
    1UNL     H7   31  -0.243   0.015  -0.210
    1UNL     H8   32  -0.096  -0.208  -0.227
    1UNL     H9   33  -0.013  -0.050  -0.234
    1UNL    H10   34   0.039  -0.261  -0.049
    1UNL    H11   35   0.266  -0.175  -0.197
    1UNL    H12   36   0.565  -0.101  -0.158
    1UNL    H13   37   0.705   0.033  -0.022
    1UNL    H14   38   0.608   0.192   0.146
    1UNL    H15   39   0.372   0.202   0.182
    1UNL    H16   40   0.074   0.200   0.086
    1UNL    H17   41   0.084   0.070   0.218
    1UNL    H18   42  -0.136   0.025   0.178
    1UNL    H19   43  -0.088   0.159  -0.083
    1UNL    H20   44  -0.230  -0.162   0.172
    1UNL    H21   45  -0.091  -0.387   0.110
    1UNL    H22   46  -0.158  -0.367  -0.063
    1UNL    H23   47  -0.271  -0.392   0.091
   0.00000   0.00000   0.00000   0.00000   0.00000   0.00000   0.00000   0.00000   0.00000
Generated with MDTraj, t= 15.0
 47
    1UNL     C1    1  -0.356   0.353   0.140
    1UNL     O1    2  -0.247   0.281   0.086
    1UNL     C2    3  -0.272   0.160   0.014
    1UNL     N1    4  -0.361   0.082   0.082
    1UNL     C3    5  -0.369  -0.041   0.054
    1UNL     C4    6  -0.275  -0.120  -0.034
    1UNL     C5    7  -0.188  -0.026  -0.123
    1UNL     C6    8  -0.062  -0.089  -0.182
    1UNL     C7    9   0.027  -0.143  -0.062
    1UNL     C8   10   0.159  -0.080  -0.053
    1UNL     N2   11   0.274  -0.118  -0.115
    1UNL     C9   12   0.377  -0.045  -0.058
    1UNL    C10   13   0.519  -0.052  -0.074
    1UNL    C11   14   0.595   0.037  -0.003
    1UNL    C12   15   0.535   0.134   0.082
    1UNL    C13   16   0.402   0.142   0.099
    1UNL    C14   17   0.322   0.046   0.032
    1UNL    C15   18   0.182   0.024   0.029
    1UNL    C16   19   0.082   0.101   0.109
    1UNL    C17   20  -0.058   0.028   0.094
    1UNL    C18   21  -0.143   0.088  -0.031
    1UNL     N3   22  -0.047  -0.123   0.069
    1UNL    C19   23  -0.173  -0.197   0.074
    1UNL    C20   24  -0.164  -0.343   0.051
    1UNL     H1   25  -0.333   0.459   0.118
    1UNL     H2   26  -0.359   0.337   0.251
    1UNL     H3   27  -0.447   0.315   0.087
    1UNL     H4   28  -0.321   0.200  -0.079
    1UNL     H5   29  -0.447  -0.099   0.098
    1UNL     H6   30  -0.324  -0.197  -0.100
    1UNL     H7   31  -0.265   0.013  -0.199
    1UNL     H8   32  -0.091  -0.172  -0.255
    1UNL     H9   33  -0.006  -0.015  -0.237
    1UNL    H10   34   0.047  -0.246  -0.063
    1UNL    H11   35   0.284  -0.212  -0.159
    1UNL    H12   36   0.551  -0.140  -0.123
    1UNL    H13   37   0.704   0.040  -0.002
    1UNL    H14   38   0.599   0.201   0.142
    1UNL    H15   39   0.350   0.219   0.164
    1UNL    H16   40   0.045   0.205   0.071
    1UNL    H17   41   0.117   0.102   0.209
    1UNL    H18   42  -0.127   0.035   0.177
    1UNL    H19   43  -0.070   0.152  -0.086
    1UNL    H20   44  -0.219  -0.174   0.174
    1UNL    H21   45  -0.089  -0.397   0.117
    1UNL    H22   46  -0.136  -0.376  -0.058
    1UNL    H23   47  -0.259  -0.394   0.078
   0.00000   0.00000   0.00000   0.00000   0.00000   0.00000   0.00000   0.00000   0.00000
Generated with MDTraj, t= 16.0
 47
    1UNL     C1    1  -0.344   0.341   0.160
    1UNL     O1    2  -0.235   0.260   0.131
    1UNL     C2    3  -0.268   0.162   0.023
    1UNL     N1    4  -0.385   0.080   0.046
    1UNL     C3    5  -0.387  -0.045   0.024
    1UNL     C4    6  -0.278  -0.120  -0.039
    1UNL     C5    7  -0.184  -0.027  -0.123
    1UNL     C6    8  -0.055  -0.095  -0.181
    1UNL     C7    9   0.033  -0.142  -0.058
    1UNL     C8   10   0.161  -0.077  -0.050
    1UNL     N2   11   0.281  -0.137  -0.095
    1UNL     C9   12   0.384  -0.053  -0.055
    1UNL    C10   13   0.519  -0.061  -0.057
    1UNL    C11   14   0.599   0.036   0.001
    1UNL    C12   15   0.540   0.144   0.072
    1UNL    C13   16   0.401   0.151   0.077
    1UNL    C14   17   0.326   0.058   0.012
    1UNL    C15   18   0.181   0.041   0.017
    1UNL    C16   19   0.075   0.108   0.104
    1UNL    C17   20  -0.059   0.030   0.092
    1UNL    C18   21  -0.145   0.092  -0.032
    1UNL     N3   22  -0.048  -0.117   0.065
    1UNL    C19   23  -0.183  -0.185   0.071
    1UNL    C20   24  -0.178  -0.337   0.055
    1UNL     H1   25  -0.412   0.264   0.200
    1UNL     H2   26  -0.380   0.388   0.066
    1UNL     H3   27  -0.318   0.404   0.247
    1UNL     H4   28  -0.296   0.231  -0.059
    1UNL     H5   29  -0.469  -0.105   0.066
    1UNL     H6   30  -0.303  -0.205  -0.110
    1UNL     H7   31  -0.251   0.017  -0.204
    1UNL     H8   32  -0.075  -0.189  -0.237
    1UNL     H9   33  -0.007  -0.023  -0.247
    1UNL    H10   34   0.052  -0.245  -0.051
    1UNL    H11   35   0.303  -0.224  -0.147
    1UNL    H12   36   0.564  -0.148  -0.105
    1UNL    H13   37   0.706   0.031  -0.013
    1UNL    H14   38   0.599   0.223   0.115
    1UNL    H15   39   0.346   0.221   0.127
    1UNL    H16   40   0.067   0.216   0.066
    1UNL    H17   41   0.092   0.100   0.211
    1UNL    H18   42  -0.117   0.031   0.185
    1UNL    H19   43  -0.065   0.155  -0.082
    1UNL    H20   44  -0.229  -0.159   0.170
    1UNL    H21   45  -0.119  -0.382   0.142
    1UNL    H22   46  -0.138  -0.377  -0.039
    1UNL    H23   47  -0.282  -0.380   0.071
   0.00000   0.00000   0.00000   0.00000   0.00000   0.00000   0.00000   0.00000   0.00000
Generated with MDTraj, t= 17.0
 47
    1UNL     C1    1  -0.340   0.305   0.197
    1UNL     O1    2  -0.236   0.218   0.143
    1UNL     C2    3  -0.267   0.168   0.013
    1UNL     N1    4  -0.389   0.092   0.022
    1UNL     C3    5  -0.387  -0.029  -0.019
    1UNL     C4    6  -0.269  -0.111  -0.054
    1UNL     C5    7  -0.176  -0.023  -0.135
    1UNL     C6    8  -0.055  -0.099  -0.174
    1UNL     C7    9   0.022  -0.149  -0.048
    1UNL     C8   10   0.161  -0.093  -0.044
    1UNL     N2   11   0.286  -0.142  -0.080
    1UNL     C9   12   0.386  -0.054  -0.041
    1UNL    C10   13   0.521  -0.050  -0.067
    1UNL    C11   14   0.606   0.051  -0.024
    1UNL    C12   15   0.544   0.152   0.054
    1UNL    C13   16   0.405   0.155   0.087
    1UNL    C14   17   0.327   0.050   0.025
    1UNL    C15   18   0.183   0.024   0.028
    1UNL    C16   19   0.079   0.100   0.102
    1UNL    C17   20  -0.062   0.039   0.084
    1UNL    C18   21  -0.141   0.098  -0.044
    1UNL     N3   22  -0.050  -0.111   0.075
    1UNL    C19   23  -0.196  -0.164   0.077
    1UNL    C20   24  -0.194  -0.323   0.083
    1UNL     H1   25  -0.292   0.401   0.182
    1UNL     H2   26  -0.345   0.282   0.302
    1UNL     H3   27  -0.437   0.303   0.149
    1UNL     H4   28  -0.286   0.253  -0.052
    1UNL     H5   29  -0.482  -0.075  -0.024
    1UNL     H6   30  -0.290  -0.195  -0.128
    1UNL     H7   31  -0.238   0.019  -0.219
    1UNL     H8   32  -0.092  -0.183  -0.237
    1UNL     H9   33   0.013  -0.038  -0.236
    1UNL    H10   34   0.023  -0.252  -0.053
    1UNL    H11   35   0.311  -0.225  -0.137
    1UNL    H12   36   0.559  -0.120  -0.140
    1UNL    H13   37   0.708   0.044  -0.058
    1UNL    H14   38   0.596   0.242   0.083
    1UNL    H15   39   0.356   0.238   0.145
    1UNL    H16   40   0.069   0.209   0.071
    1UNL    H17   41   0.116   0.080   0.202
    1UNL    H18   42  -0.126   0.060   0.171
    1UNL    H19   43  -0.069   0.173  -0.095
    1UNL    H20   44  -0.258  -0.124   0.164
    1UNL    H21   45  -0.122  -0.352   0.169
    1UNL    H22   46  -0.174  -0.367  -0.012
    1UNL    H23   47  -0.300  -0.350   0.121
   0.00000   0.00000   0.00000   0.00000   0.00000   0.00000   0.00000   0.00000   0.00000
Generated with MDTraj, t= 18.0
 47
    1UNL     C1    1  -0.368   0.248   0.202
    1UNL     O1    2  -0.244   0.236   0.137
    1UNL     C2    3  -0.260   0.175   0.014
    1UNL     N1    4  -0.385   0.106  -0.011
    1UNL     C3    5  -0.379  -0.019  -0.028
    1UNL     C4    6  -0.260  -0.102  -0.060
    1UNL     C5    7  -0.156  -0.012  -0.130
    1UNL     C6    8  -0.033  -0.103  -0.163
    1UNL     C7    9   0.023  -0.158  -0.030
    1UNL     C8   10   0.161  -0.101  -0.020
    1UNL     N2   11   0.275  -0.139  -0.086
    1UNL     C9   12   0.382  -0.056  -0.050
    1UNL    C10   13   0.515  -0.051  -0.090
    1UNL    C11   14   0.598   0.051  -0.042
    1UNL    C12   15   0.541   0.154   0.038
    1UNL    C13   16   0.408   0.155   0.075
    1UNL    C14   17   0.326   0.049   0.027
    1UNL    C15   18   0.190   0.016   0.045
    1UNL    C16   19   0.090   0.089   0.127
    1UNL    C17   20  -0.055   0.040   0.094
    1UNL    C18   21  -0.129   0.107  -0.030
    1UNL     N3   22  -0.064  -0.110   0.082
    1UNL    C19   23  -0.205  -0.156   0.077
    1UNL    C20   24  -0.206  -0.309   0.086
    1UNL     H1   25  -0.413   0.150   0.198
    1UNL     H2   26  -0.428   0.310   0.139
    1UNL     H3   27  -0.361   0.286   0.304
    1UNL     H4   28  -0.264   0.261  -0.053
    1UNL     H5   29  -0.481  -0.056  -0.042
    1UNL     H6   30  -0.282  -0.185  -0.133
    1UNL     H7   31  -0.201   0.032  -0.220
    1UNL     H8   32  -0.059  -0.183  -0.233
    1UNL     H9   33   0.043  -0.037  -0.213
    1UNL    H10   34   0.025  -0.262  -0.025
    1UNL    H11   35   0.295  -0.227  -0.136
    1UNL    H12   36   0.551  -0.123  -0.160
    1UNL    H13   37   0.705   0.055  -0.065
    1UNL    H14   38   0.614   0.230   0.077
    1UNL    H15   39   0.355   0.229   0.132
    1UNL    H16   40   0.115   0.198   0.104
    1UNL    H17   41   0.099   0.055   0.229
    1UNL    H18   42  -0.122   0.061   0.180
    1UNL    H19   43  -0.067   0.180  -0.096
    1UNL    H20   44  -0.272  -0.111   0.157
    1UNL    H21   45  -0.177  -0.337   0.193
    1UNL    H22   46  -0.156  -0.361   0.004
    1UNL    H23   47  -0.320  -0.329   0.085
   0.00000   0.00000   0.00000   0.00000   0.00000   0.00000   0.00000   0.00000   0.00000
Generated with MDTraj, t= 19.0
 47
    1UNL     C1    1  -0.362   0.220   0.210
    1UNL     O1    2  -0.242   0.230   0.136
    1UNL     C2    3  -0.251   0.183  -0.003
    1UNL     N1    4  -0.377   0.120  -0.016
    1UNL     C3    5  -0.377  -0.006  -0.031
    1UNL     C4    6  -0.266  -0.099  -0.066
    1UNL     C5    7  -0.160  -0.017  -0.131
    1UNL     C6    8  -0.029  -0.098  -0.151
    1UNL     C7    9   0.031  -0.149  -0.021
    1UNL     C8   10   0.169  -0.101  -0.001
    1UNL     N2   11   0.277  -0.147  -0.071
    1UNL     C9   12   0.380  -0.056  -0.050
    1UNL    C10   13   0.509  -0.051  -0.102
    1UNL    C11   14   0.583   0.059  -0.068
    1UNL    C12   15   0.537   0.159   0.027
    1UNL    C13   16   0.415   0.149   0.075
    1UNL    C14   17   0.328   0.042   0.039
    1UNL    C15   18   0.194   0.012   0.073
    1UNL    C16   19   0.082   0.096   0.132
    1UNL    C17   20  -0.063   0.038   0.099
    1UNL    C18   21  -0.124   0.096  -0.034
    1UNL     N3   22  -0.065  -0.106   0.083
    1UNL    C19   23  -0.210  -0.156   0.065
    1UNL    C20   24  -0.216  -0.305   0.068
    1UNL     H1   25  -0.402   0.315   0.249
    1UNL     H2   26  -0.342   0.152   0.291
    1UNL     H3   27  -0.447   0.181   0.153
    1UNL     H4   28  -0.251   0.278  -0.056
    1UNL     H5   29  -0.476  -0.043  -0.024
    1UNL     H6   30  -0.286  -0.180  -0.143
    1UNL     H7   31  -0.197   0.027  -0.222
    1UNL     H8   32  -0.046  -0.181  -0.219
    1UNL     H9   33   0.040  -0.023  -0.200
    1UNL    H10   34   0.047  -0.252  -0.017
    1UNL    H11   35   0.274  -0.223  -0.139
    1UNL    H12   36   0.550  -0.141  -0.149
    1UNL    H13   37   0.686   0.060  -0.092
    1UNL    H14   38   0.598   0.236   0.056
    1UNL    H15   39   0.384   0.217   0.149
    1UNL    H16   40   0.090   0.204   0.094
    1UNL    H17   41   0.106   0.110   0.234
    1UNL    H18   42  -0.127   0.077   0.181
    1UNL    H19   43  -0.040   0.161  -0.082
    1UNL    H20   44  -0.265  -0.111   0.152
    1UNL    H21   45  -0.181  -0.343   0.168
    1UNL    H22   46  -0.170  -0.369  -0.015
    1UNL    H23   47  -0.322  -0.340   0.078
   0.00000   0.00000   0.00000   0.00000   0.00000   0.00000   0.00000   0.00000   0.00000
Generated with MDTraj, t= 20.0
 47
    1UNL     C1    1  -0.341   0.231   0.219
    1UNL     O1    2  -0.232   0.243   0.137
    1UNL     C2    3  -0.244   0.176   0.011
    1UNL     N1    4  -0.371   0.122  -0.010
    1UNL     C3    5  -0.379  -0.002  -0.035
    1UNL     C4    6  -0.268  -0.098  -0.069
    1UNL     C5    7  -0.151  -0.013  -0.136
    1UNL     C6    8  -0.028  -0.100  -0.165
    1UNL     C7    9   0.023  -0.165  -0.037
    1UNL     C8   10   0.164  -0.117  -0.006
    1UNL     N2   11   0.277  -0.148  -0.075
    1UNL     C9   12   0.377  -0.053  -0.047
    1UNL    C10   13   0.515  -0.042  -0.083
    1UNL    C11   14   0.588   0.067  -0.046
    1UNL    C12   15   0.524   0.166   0.023
    1UNL    C13   16   0.398   0.153   0.070
    1UNL    C14   17   0.319   0.043   0.035
    1UNL    C15   18   0.186   0.009   0.054
    1UNL    C16   19   0.078   0.088   0.132
    1UNL    C17   20  -0.064   0.030   0.094
    1UNL    C18   21  -0.117   0.098  -0.031
    1UNL     N3   22  -0.065  -0.116   0.075
    1UNL    C19   23  -0.210  -0.158   0.063
    1UNL    C20   24  -0.226  -0.306   0.081
    1UNL     H1   25  -0.380   0.127   0.231
    1UNL     H2   26  -0.417   0.309   0.198
    1UNL     H3   27  -0.309   0.258   0.321
    1UNL     H4   28  -0.246   0.262  -0.059
    1UNL     H5   29  -0.482  -0.041  -0.026
    1UNL     H6   30  -0.296  -0.186  -0.134
    1UNL     H7   31  -0.181   0.039  -0.222
    1UNL     H8   32  -0.058  -0.171  -0.241
    1UNL     H9   33   0.052  -0.031  -0.207
    1UNL    H10   34   0.029  -0.268  -0.051
    1UNL    H11   35   0.274  -0.236  -0.125
    1UNL    H12   36   0.568  -0.125  -0.123
    1UNL    H13   37   0.695   0.076  -0.075
    1UNL    H14   38   0.579   0.267   0.034
    1UNL    H15   39   0.346   0.242   0.118
    1UNL    H16   40   0.100   0.199   0.122
    1UNL    H17   41   0.096   0.082   0.237
    1UNL    H18   42  -0.126   0.045   0.185
    1UNL    H19   43  -0.032   0.160  -0.082
    1UNL    H20   44  -0.260  -0.117   0.153
    1UNL    H21   45  -0.171  -0.338   0.172
    1UNL    H22   46  -0.192  -0.383  -0.004
    1UNL    H23   47  -0.326  -0.334   0.114
   0.00000   0.00000   0.00000   0.00000   0.00000   0.00000   0.00000   0.00000   0.00000
Generated with MDTraj, t= 21.0
 47
    1UNL     C1    1  -0.322   0.266   0.216
    1UNL     O1    2  -0.217   0.263   0.127
    1UNL     C2    3  -0.249   0.179   0.010
    1UNL     N1    4  -0.376   0.118   0.012
    1UNL     C3    5  -0.377  -0.006  -0.023
    1UNL     C4    6  -0.268  -0.101  -0.061
    1UNL     C5    7  -0.162  -0.012  -0.135
    1UNL     C6    8  -0.046  -0.114  -0.164
    1UNL     C7    9   0.023  -0.159  -0.036
    1UNL     C8   10   0.166  -0.104  -0.023
    1UNL     N2   11   0.279  -0.139  -0.085
    1UNL     C9   12   0.375  -0.047  -0.045
    1UNL    C10   13   0.508  -0.045  -0.079
    1UNL    C11   14   0.586   0.063  -0.040
    1UNL    C12   15   0.537   0.155   0.046
    1UNL    C13   16   0.402   0.159   0.084
    1UNL    C14   17   0.318   0.056   0.034
    1UNL    C15   18   0.183   0.010   0.050
    1UNL    C16   19   0.071   0.081   0.119
    1UNL    C17   20  -0.070   0.023   0.086
    1UNL    C18   21  -0.128   0.091  -0.032
    1UNL     N3   22  -0.064  -0.123   0.085
    1UNL    C19   23  -0.209  -0.175   0.064
    1UNL    C20   24  -0.208  -0.331   0.052
    1UNL     H1   25  -0.328   0.355   0.285
    1UNL     H2   26  -0.324   0.173   0.277
    1UNL     H3   27  -0.419   0.250   0.164
    1UNL     H4   28  -0.258   0.262  -0.066
    1UNL     H5   29  -0.470  -0.057  -0.011
    1UNL     H6   30  -0.315  -0.174  -0.135
    1UNL     H7   31  -0.202   0.036  -0.216
    1UNL     H8   32  -0.094  -0.194  -0.219
    1UNL     H9   33   0.029  -0.061  -0.230
    1UNL    H10   34   0.026  -0.262  -0.026
    1UNL    H11   35   0.283  -0.229  -0.130
    1UNL    H12   36   0.561  -0.122  -0.137
    1UNL    H13   37   0.685   0.071  -0.074
    1UNL    H14   38   0.605   0.230   0.068
    1UNL    H15   39   0.374   0.242   0.136
    1UNL    H16   40   0.078   0.192   0.109
    1UNL    H17   41   0.100   0.078   0.222
    1UNL    H18   42  -0.132   0.049   0.176
    1UNL    H19   43  -0.058   0.167  -0.088
    1UNL    H20   44  -0.276  -0.156   0.148
    1UNL    H21   45  -0.164  -0.374   0.147
    1UNL    H22   46  -0.147  -0.369  -0.036
    1UNL    H23   47  -0.313  -0.367   0.054
   0.00000   0.00000   0.00000   0.00000   0.00000   0.00000   0.00000   0.00000   0.00000
Generated with MDTraj, t= 22.0
 47
    1UNL     C1    1  -0.318   0.318   0.192
    1UNL     O1    2  -0.212   0.270   0.111
    1UNL     C2    3  -0.254   0.174   0.012
    1UNL     N1    4  -0.371   0.105   0.046
    1UNL     C3    5  -0.380  -0.018   0.005
    1UNL     C4    6  -0.276  -0.116  -0.049
    1UNL     C5    7  -0.179  -0.020  -0.133
    1UNL     C6    8  -0.051  -0.106  -0.174
    1UNL     C7    9   0.024  -0.157  -0.056
    1UNL     C8   10   0.155  -0.089  -0.036
    1UNL     N2   11   0.276  -0.127  -0.096
    1UNL     C9   12   0.378  -0.047  -0.050
    1UNL    C10   13   0.514  -0.036  -0.085
    1UNL    C11   14   0.587   0.059  -0.022
    1UNL    C12   15   0.531   0.145   0.067
    1UNL    C13   16   0.400   0.132   0.102
    1UNL    C14   17   0.315   0.043   0.041
    1UNL    C15   18   0.175   0.016   0.045
    1UNL    C16   19   0.072   0.086   0.126
    1UNL    C17   20  -0.069   0.023   0.088
    1UNL    C18   21  -0.128   0.088  -0.034
    1UNL     N3   22  -0.060  -0.127   0.063
    1UNL    C19   23  -0.199  -0.186   0.058
    1UNL    C20   24  -0.187  -0.338   0.050
    1UNL     H1   25  -0.419   0.310   0.145
    1UNL     H2   26  -0.308   0.424   0.221
    1UNL     H3   27  -0.310   0.264   0.285
    1UNL     H4   28  -0.289   0.236  -0.076
    1UNL     H5   29  -0.476  -0.068   0.020
    1UNL     H6   30  -0.322  -0.179  -0.131
    1UNL     H7   31  -0.226   0.015  -0.216
    1UNL     H8   32  -0.078  -0.186  -0.243
    1UNL     H9   33   0.016  -0.030  -0.224
    1UNL    H10   34   0.052  -0.256  -0.065
    1UNL    H11   35   0.285  -0.189  -0.176
    1UNL    H12   36   0.562  -0.093  -0.161
    1UNL    H13   37   0.696   0.060  -0.041
    1UNL    H14   38   0.593   0.226   0.110
    1UNL    H15   39   0.363   0.202   0.181
    1UNL    H16   40   0.084   0.190   0.100
    1UNL    H17   41   0.095   0.088   0.233
    1UNL    H18   42  -0.134   0.028   0.178
    1UNL    H19   43  -0.057   0.151  -0.100
    1UNL    H20   44  -0.255  -0.166   0.149
    1UNL    H21   45  -0.130  -0.387   0.137
    1UNL    H22   46  -0.143  -0.367  -0.042
    1UNL    H23   47  -0.295  -0.370   0.064
   0.00000   0.00000   0.00000   0.00000   0.00000   0.00000   0.00000   0.00000   0.00000
Generated with MDTraj, t= 23.0
 47
    1UNL     C1    1  -0.331   0.359   0.134
    1UNL     O1    2  -0.224   0.272   0.122
    1UNL     C2    3  -0.255   0.165   0.027
    1UNL     N1    4  -0.364   0.093   0.069
    1UNL     C3    5  -0.376  -0.029   0.032
    1UNL     C4    6  -0.282  -0.115  -0.044
    1UNL     C5    7  -0.185  -0.021  -0.121
    1UNL     C6    8  -0.053  -0.093  -0.177
    1UNL     C7    9   0.027  -0.151  -0.069
    1UNL     C8   10   0.158  -0.084  -0.054
    1UNL     N2   11   0.275  -0.120  -0.121
    1UNL     C9   12   0.377  -0.044  -0.065
    1UNL    C10   13   0.522  -0.034  -0.083
    1UNL    C11   14   0.593   0.048   0.001
    1UNL    C12   15   0.531   0.136   0.088
    1UNL    C13   16   0.397   0.138   0.104
    1UNL    C14   17   0.321   0.049   0.023
    1UNL    C15   18   0.184   0.017   0.040
    1UNL    C16   19   0.080   0.075   0.129
    1UNL    C17   20  -0.062   0.011   0.097
    1UNL    C18   21  -0.134   0.078  -0.013
    1UNL     N3   22  -0.053  -0.130   0.063
    1UNL    C19   23  -0.199  -0.189   0.060
    1UNL    C20   24  -0.195  -0.335   0.034
    1UNL     H1   25  -0.389   0.335   0.223
    1UNL     H2   26  -0.398   0.351   0.049
    1UNL     H3   27  -0.292   0.458   0.138
    1UNL     H4   28  -0.296   0.216  -0.066
    1UNL     H5   29  -0.467  -0.079   0.055
    1UNL     H6   30  -0.328  -0.187  -0.120
    1UNL     H7   31  -0.243   0.024  -0.194
    1UNL     H8   32  -0.086  -0.168  -0.251
    1UNL     H9   33   0.001  -0.008  -0.228
    1UNL    H10   34   0.045  -0.252  -0.089
    1UNL    H11   35   0.300  -0.204  -0.171
    1UNL    H12   36   0.563  -0.096  -0.161
    1UNL    H13   37   0.698   0.050   0.005
    1UNL    H14   38   0.595   0.196   0.156
    1UNL    H15   39   0.356   0.201   0.182
    1UNL    H16   40   0.075   0.178   0.129
    1UNL    H17   41   0.118   0.055   0.231
    1UNL    H18   42  -0.117   0.012   0.193
    1UNL    H19   43  -0.063   0.152  -0.066
    1UNL    H20   44  -0.246  -0.174   0.158
    1UNL    H21   45  -0.124  -0.400   0.092
    1UNL    H22   46  -0.169  -0.358  -0.065
    1UNL    H23   47  -0.296  -0.387   0.059
   0.00000   0.00000   0.00000   0.00000   0.00000   0.00000   0.00000   0.00000   0.00000
Generated with MDTraj, t= 24.0
 47
    1UNL     C1    1  -0.315   0.369   0.119
    1UNL     O1    2  -0.227   0.262   0.119
    1UNL     C2    3  -0.268   0.161   0.024
    1UNL     N1    4  -0.374   0.080   0.075
    1UNL     C3    5  -0.373  -0.040   0.035
    1UNL     C4    6  -0.271  -0.114  -0.041
    1UNL     C5    7  -0.188  -0.013  -0.120
    1UNL     C6    8  -0.060  -0.086  -0.177
    1UNL     C7    9   0.020  -0.144  -0.064
    1UNL     C8   10   0.155  -0.083  -0.042
    1UNL     N2   11   0.272  -0.115  -0.110
    1UNL     C9   12   0.373  -0.043  -0.053
    1UNL    C10   13   0.510  -0.040  -0.084
    1UNL    C11   14   0.594   0.041  -0.021
    1UNL    C12   15   0.541   0.127   0.082
    1UNL    C13   16   0.408   0.134   0.114
    1UNL    C14   17   0.323   0.047   0.045
    1UNL    C15   18   0.185   0.019   0.048
    1UNL    C16   19   0.073   0.079   0.130
    1UNL    C17   20  -0.070   0.019   0.095
    1UNL    C18   21  -0.138   0.094  -0.022
    1UNL     N3   22  -0.060  -0.126   0.073
    1UNL    C19   23  -0.186  -0.196   0.060
    1UNL    C20   24  -0.175  -0.337   0.009
    1UNL     H1   25  -0.264   0.459   0.146
    1UNL     H2   26  -0.390   0.341   0.192
    1UNL     H3   27  -0.361   0.376   0.024
    1UNL     H4   28  -0.312   0.214  -0.064
    1UNL     H5   29  -0.457  -0.099   0.070
    1UNL     H6   30  -0.317  -0.194  -0.110
    1UNL     H7   31  -0.255   0.024  -0.193
    1UNL     H8   32  -0.109  -0.162  -0.241
    1UNL     H9   33  -0.006  -0.010  -0.236
    1UNL    H10   34   0.025  -0.246  -0.084
    1UNL    H11   35   0.294  -0.176  -0.187
    1UNL    H12   36   0.548  -0.106  -0.162
    1UNL    H13   37   0.702   0.039  -0.046
    1UNL    H14   38   0.609   0.190   0.123
    1UNL    H15   39   0.373   0.195   0.191
    1UNL    H16   40   0.074   0.180   0.121
    1UNL    H17   41   0.088   0.065   0.239
    1UNL    H18   42  -0.127   0.027   0.188
    1UNL    H19   43  -0.081   0.180  -0.077
    1UNL    H20   44  -0.243  -0.201   0.153
    1UNL    H21   45  -0.102  -0.401   0.059
    1UNL    H22   46  -0.142  -0.344  -0.096
    1UNL    H23   47  -0.268  -0.400   0.021
   0.00000   0.00000   0.00000   0.00000   0.00000   0.00000   0.00000   0.00000   0.00000
Generated with MDTraj, t= 25.0
 47
    1UNL     C1    1  -0.339   0.345   0.160
    1UNL     O1    2  -0.222   0.275   0.110
    1UNL     C2    3  -0.254   0.172   0.017
    1UNL     N1    4  -0.369   0.094   0.064
    1UNL     C3    5  -0.376  -0.027   0.028
    1UNL     C4    6  -0.272  -0.106  -0.046
    1UNL     C5    7  -0.180  -0.015  -0.127
    1UNL     C6    8  -0.055  -0.098  -0.183
    1UNL     C7    9   0.021  -0.155  -0.066
    1UNL     C8   10   0.157  -0.095  -0.047
    1UNL     N2   11   0.281  -0.129  -0.109
    1UNL     C9   12   0.378  -0.041  -0.064
    1UNL    C10   13   0.517  -0.031  -0.081
    1UNL    C11   14   0.593   0.058  -0.008
    1UNL    C12   15   0.531   0.145   0.086
    1UNL    C13   16   0.394   0.130   0.104
    1UNL    C14   17   0.315   0.037   0.032
    1UNL    C15   18   0.177   0.007   0.039
    1UNL    C16   19   0.085   0.066   0.137
    1UNL    C17   20  -0.057   0.018   0.093
    1UNL    C18   21  -0.125   0.095  -0.022
    1UNL     N3   22  -0.054  -0.125   0.061
    1UNL    C19   23  -0.190  -0.184   0.056
    1UNL    C20   24  -0.202  -0.339   0.042
    1UNL     H1   25  -0.315   0.450   0.168
    1UNL     H2   26  -0.366   0.299   0.256
    1UNL     H3   27  -0.417   0.320   0.089
    1UNL     H4   28  -0.289   0.222  -0.073
    1UNL     H5   29  -0.451  -0.078   0.087
    1UNL     H6   30  -0.317  -0.171  -0.130
    1UNL     H7   31  -0.233   0.020  -0.214
    1UNL     H8   32  -0.096  -0.177  -0.251
    1UNL     H9   33   0.007  -0.031  -0.244
    1UNL    H10   34   0.034  -0.257  -0.091
    1UNL    H11   35   0.290  -0.198  -0.182
    1UNL    H12   36   0.553  -0.111  -0.139
    1UNL    H13   37   0.698   0.060  -0.028
    1UNL    H14   38   0.591   0.231   0.136
    1UNL    H15   39   0.343   0.205   0.174
    1UNL    H16   40   0.084   0.169   0.152
    1UNL    H17   41   0.111   0.025   0.235
    1UNL    H18   42  -0.118   0.028   0.182
    1UNL    H19   43  -0.050   0.159  -0.086
    1UNL    H20   44  -0.243  -0.160   0.151
    1UNL    H21   45  -0.150  -0.395   0.119
    1UNL    H22   46  -0.143  -0.363  -0.054
    1UNL    H23   47  -0.307  -0.369   0.042
   0.00000   0.00000   0.00000   0.00000   0.00000   0.00000   0.00000   0.00000   0.00000
Generated with MDTraj, t= 26.0
 47
    1UNL     C1    1  -0.308   0.307   0.215
    1UNL     O1    2  -0.213   0.255   0.118
    1UNL     C2    3  -0.249   0.171   0.006
    1UNL     N1    4  -0.376   0.105   0.021
    1UNL     C3    5  -0.386  -0.018  -0.005
    1UNL     C4    6  -0.277  -0.106  -0.065
    1UNL     C5    7  -0.173  -0.020  -0.142
    1UNL     C6    8  -0.042  -0.113  -0.169
    1UNL     C7    9   0.027  -0.153  -0.041
    1UNL     C8   10   0.161  -0.089  -0.029
    1UNL     N2   11   0.276  -0.135  -0.087
    1UNL     C9   12   0.372  -0.038  -0.056
    1UNL    C10   13   0.510  -0.038  -0.092
    1UNL    C11   14   0.589   0.061  -0.033
    1UNL    C12   15   0.537   0.147   0.069
    1UNL    C13   16   0.396   0.148   0.095
    1UNL    C14   17   0.318   0.054   0.036
    1UNL    C15   18   0.185   0.017   0.057
    1UNL    C16   19   0.071   0.077   0.136
    1UNL    C17   20  -0.071   0.023   0.093
    1UNL    C18   21  -0.129   0.084  -0.036
    1UNL     N3   22  -0.064  -0.122   0.075
    1UNL    C19   23  -0.204  -0.178   0.053
    1UNL    C20   24  -0.204  -0.332   0.044
    1UNL     H1   25  -0.247   0.322   0.306
    1UNL     H2   26  -0.386   0.230   0.229
    1UNL     H3   27  -0.351   0.398   0.171
    1UNL     H4   28  -0.263   0.250  -0.066
    1UNL     H5   29  -0.474  -0.063   0.035
    1UNL     H6   30  -0.310  -0.181  -0.147
    1UNL     H7   31  -0.223   0.024  -0.229
    1UNL     H8   32  -0.081  -0.210  -0.215
    1UNL     H9   33   0.020  -0.065  -0.244
    1UNL    H10   34   0.039  -0.257  -0.040
    1UNL    H11   35   0.287  -0.229  -0.124
    1UNL    H12   36   0.546  -0.123  -0.151
    1UNL    H13   37   0.694   0.065  -0.059
    1UNL    H14   38   0.598   0.210   0.125
    1UNL    H15   39   0.352   0.218   0.157
    1UNL    H16   40   0.077   0.186   0.130
    1UNL    H17   41   0.072   0.062   0.243
    1UNL    H18   42  -0.137   0.053   0.174
    1UNL    H19   43  -0.052   0.161  -0.081
    1UNL    H20   44  -0.264  -0.154   0.144
    1UNL    H21   45  -0.131  -0.386   0.103
    1UNL    H22   46  -0.175  -0.342  -0.069
    1UNL    H23   47  -0.305  -0.361   0.065
   0.00000   0.00000   0.00000   0.00000   0.00000   0.00000   0.00000   0.00000   0.00000
Generated with MDTraj, t= 27.0
 47
    1UNL     C1    1  -0.338   0.277   0.213
    1UNL     O1    2  -0.223   0.239   0.140
    1UNL     C2    3  -0.247   0.187   0.011
    1UNL     N1    4  -0.373   0.121  -0.001
    1UNL     C3    5  -0.375  -0.004  -0.017
    1UNL     C4    6  -0.260  -0.091  -0.061
    1UNL     C5    7  -0.153  -0.011  -0.132
    1UNL     C6    8  -0.040  -0.112  -0.174
    1UNL     C7    9   0.021  -0.168  -0.050
    1UNL     C8   10   0.161  -0.110  -0.020
    1UNL     N2   11   0.279  -0.144  -0.080
    1UNL     C9   12   0.379  -0.055  -0.040
    1UNL    C10   13   0.511  -0.040  -0.084
    1UNL    C11   14   0.588   0.071  -0.044
    1UNL    C12   15   0.519   0.168   0.038
    1UNL    C13   16   0.391   0.151   0.086
    1UNL    C14   17   0.323   0.037   0.047
    1UNL    C15   18   0.184   0.007   0.046
    1UNL    C16   19   0.078   0.072   0.135
    1UNL    C17   20  -0.063   0.024   0.094
    1UNL    C18   21  -0.120   0.101  -0.029
    1UNL     N3   22  -0.061  -0.126   0.070
    1UNL    C19   23  -0.203  -0.169   0.059
    1UNL    C20   24  -0.219  -0.318   0.058
    1UNL     H1   25  -0.309   0.317   0.313
    1UNL     H2   26  -0.396   0.182   0.224
    1UNL     H3   27  -0.398   0.344   0.147
    1UNL     H4   28  -0.248   0.268  -0.059
    1UNL     H5   29  -0.476  -0.044  -0.020
    1UNL     H6   30  -0.289  -0.184  -0.126
    1UNL     H7   31  -0.208   0.036  -0.217
    1UNL     H8   32  -0.091  -0.190  -0.240
    1UNL     H9   33   0.034  -0.062  -0.236
    1UNL    H10   34   0.020  -0.272  -0.044
    1UNL    H11   35   0.283  -0.213  -0.155
    1UNL    H12   36   0.538  -0.107  -0.162
    1UNL    H13   37   0.691   0.081  -0.075
    1UNL    H14   38   0.562   0.264   0.064
    1UNL    H15   39   0.344   0.235   0.141
    1UNL    H16   40   0.074   0.185   0.131
    1UNL    H17   41   0.100   0.053   0.238
    1UNL    H18   42  -0.126   0.045   0.180
    1UNL    H19   43  -0.036   0.164  -0.083
    1UNL    H20   44  -0.261  -0.137   0.150
    1UNL    H21   45  -0.166  -0.375   0.139
    1UNL    H22   46  -0.170  -0.355  -0.034
    1UNL    H23   47  -0.323  -0.345   0.066
   0.00000   0.00000   0.00000   0.00000   0.00000   0.00000   0.00000   0.00000   0.00000
Generated with MDTraj, t= 28.0
 47
    1UNL     C1    1  -0.363   0.286   0.204
    1UNL     O1    2  -0.245   0.236   0.153
    1UNL     C2    3  -0.253   0.185   0.015
    1UNL     N1    4  -0.372   0.110  -0.001
    1UNL     C3    5  -0.366  -0.007  -0.044
    1UNL     C4    6  -0.253  -0.099  -0.069
    1UNL     C5    7  -0.143  -0.008  -0.127
    1UNL     C6    8  -0.023  -0.094  -0.162
    1UNL     C7    9   0.029  -0.163  -0.036
    1UNL     C8   10   0.166  -0.111  -0.013
    1UNL     N2   11   0.279  -0.142  -0.085
    1UNL     C9   12   0.375  -0.052  -0.048
    1UNL    C10   13   0.505  -0.048  -0.097
    1UNL    C11   14   0.581   0.057  -0.057
    1UNL    C12   15   0.533   0.162   0.031
    1UNL    C13   16   0.403   0.156   0.075
    1UNL    C14   17   0.321   0.046   0.036
    1UNL    C15   18   0.190   0.002   0.065
    1UNL    C16   19   0.078   0.074   0.140
    1UNL    C17   20  -0.062   0.023   0.108
    1UNL    C18   21  -0.121   0.101  -0.016
    1UNL     N3   22  -0.058  -0.130   0.083
    1UNL    C19   23  -0.202  -0.169   0.059
    1UNL    C20   24  -0.235  -0.312   0.052
    1UNL     H1   25  -0.347   0.348   0.294
    1UNL     H2   26  -0.424   0.196   0.225
    1UNL     H3   27  -0.415   0.336   0.120
    1UNL     H4   28  -0.254   0.274  -0.046
    1UNL     H5   29  -0.465  -0.047  -0.050
    1UNL     H6   30  -0.269  -0.179  -0.152
    1UNL     H7   31  -0.190   0.053  -0.209
    1UNL     H8   32  -0.049  -0.172  -0.242
    1UNL     H9   33   0.052  -0.033  -0.211
    1UNL    H10   34   0.049  -0.266  -0.046
    1UNL    H11   35   0.279  -0.208  -0.164
    1UNL    H12   36   0.536  -0.117  -0.176
    1UNL    H13   37   0.680   0.069  -0.098
    1UNL    H14   38   0.614   0.231   0.067
    1UNL    H15   39   0.357   0.217   0.151
    1UNL    H16   40   0.090   0.188   0.125
    1UNL    H17   41   0.091   0.059   0.243
    1UNL    H18   42  -0.120   0.036   0.199
    1UNL    H19   43  -0.044   0.182  -0.054
    1UNL    H20   44  -0.264  -0.119   0.138
    1UNL    H21   45  -0.202  -0.369   0.145
    1UNL    H22   46  -0.175  -0.362  -0.017
    1UNL    H23   47  -0.340  -0.341   0.044
   0.00000   0.00000   0.00000   0.00000   0.00000   0.00000   0.00000   0.00000   0.00000
Generated with MDTraj, t= 29.0
 47
    1UNL     C1    1  -0.352   0.308   0.208
    1UNL     O1    2  -0.251   0.224   0.157
    1UNL     C2    3  -0.260   0.175   0.018
    1UNL     N1    4  -0.380   0.111  -0.021
    1UNL     C3    5  -0.390  -0.014  -0.027
    1UNL     C4    6  -0.270  -0.102  -0.058
    1UNL     C5    7  -0.156  -0.010  -0.135
    1UNL     C6    8  -0.025  -0.091  -0.166
    1UNL     C7    9   0.030  -0.157  -0.037
    1UNL     C8   10   0.165  -0.101  -0.012
    1UNL     N2   11   0.277  -0.140  -0.079
    1UNL     C9   12   0.376  -0.055  -0.052
    1UNL    C10   13   0.505  -0.043  -0.102
    1UNL    C11   14   0.584   0.059  -0.061
    1UNL    C12   15   0.536   0.151   0.037
    1UNL    C13   16   0.413   0.142   0.092
    1UNL    C14   17   0.325   0.034   0.047
    1UNL    C15   18   0.188   0.006   0.074
    1UNL    C16   19   0.082   0.089   0.133
    1UNL    C17   20  -0.055   0.028   0.096
    1UNL    C18   21  -0.126   0.095  -0.025
    1UNL     N3   22  -0.059  -0.121   0.078
    1UNL    C19   23  -0.196  -0.173   0.062
    1UNL    C20   24  -0.204  -0.320   0.046
    1UNL     H1   25  -0.361   0.302   0.315
    1UNL     H2   26  -0.445   0.278   0.163
    1UNL     H3   27  -0.337   0.412   0.177
    1UNL     H4   28  -0.253   0.267  -0.044
    1UNL     H5   29  -0.493  -0.051  -0.037
    1UNL     H6   30  -0.291  -0.179  -0.143
    1UNL     H7   31  -0.202   0.033  -0.228
    1UNL     H8   32  -0.034  -0.161  -0.256
    1UNL     H9   33   0.050  -0.022  -0.206
    1UNL    H10   34   0.036  -0.262  -0.042
    1UNL    H11   35   0.286  -0.220  -0.143
    1UNL    H12   36   0.539  -0.103  -0.184
    1UNL    H13   37   0.683   0.078  -0.105
    1UNL    H14   38   0.600   0.223   0.071
    1UNL    H15   39   0.392   0.197   0.180
    1UNL    H16   40   0.090   0.196   0.090
    1UNL    H17   41   0.101   0.096   0.236
    1UNL    H18   42  -0.114   0.051   0.186
    1UNL    H19   43  -0.060   0.172  -0.080
    1UNL    H20   44  -0.244  -0.136   0.155
    1UNL    H21   45  -0.128  -0.370   0.110
    1UNL    H22   46  -0.180  -0.350  -0.052
    1UNL    H23   47  -0.303  -0.358   0.083
   0.00000   0.00000   0.00000   0.00000   0.00000   0.00000   0.00000   0.00000   0.00000
Generated with MDTraj, t= 30.0
 47
    1UNL     C1    1  -0.342   0.319   0.194
    1UNL     O1    2  -0.233   0.239   0.146
    1UNL     C2    3  -0.258   0.173   0.019
    1UNL     N1    4  -0.380   0.096   0.023
    1UNL     C3    5  -0.392  -0.023  -0.018
    1UNL     C4    6  -0.270  -0.100  -0.064
    1UNL     C5    7  -0.168  -0.011  -0.135
    1UNL     C6    8  -0.049  -0.093  -0.181
    1UNL     C7    9   0.027  -0.157  -0.059
    1UNL     C8   10   0.165  -0.097  -0.042
    1UNL     N2   11   0.284  -0.137  -0.101
    1UNL     C9   12   0.381  -0.042  -0.062
    1UNL    C10   13   0.520  -0.044  -0.073
    1UNL    C11   14   0.598   0.052  -0.012
    1UNL    C12   15   0.534   0.150   0.057
    1UNL    C13   16   0.401   0.154   0.086
    1UNL    C14   17   0.323   0.050   0.029
    1UNL    C15   18   0.186   0.014   0.034
    1UNL    C16   19   0.085   0.068   0.131
    1UNL    C17   20  -0.056   0.020   0.103
    1UNL    C18   21  -0.131   0.089  -0.023
    1UNL     N3   22  -0.051  -0.127   0.070
    1UNL    C19   23  -0.195  -0.170   0.065
    1UNL    C20   24  -0.225  -0.323   0.073
    1UNL     H1   25  -0.316   0.364   0.287
    1UNL     H2   26  -0.426   0.258   0.217
    1UNL     H3   27  -0.378   0.399   0.130
    1UNL     H4   28  -0.264   0.256  -0.057
    1UNL     H5   29  -0.488  -0.067  -0.025
    1UNL     H6   30  -0.293  -0.198  -0.121
    1UNL     H7   31  -0.218   0.039  -0.223
    1UNL     H8   32  -0.077  -0.165  -0.265
    1UNL     H9   33   0.017  -0.024  -0.235
    1UNL    H10   34   0.037  -0.260  -0.079
    1UNL    H11   35   0.308  -0.223  -0.156
    1UNL    H12   36   0.581  -0.113  -0.128
    1UNL    H13   37   0.700   0.053  -0.031
    1UNL    H14   38   0.601   0.232   0.099
    1UNL    H15   39   0.350   0.225   0.156
    1UNL    H16   40   0.084   0.180   0.110
    1UNL    H17   41   0.117   0.051   0.233
    1UNL    H18   42  -0.112   0.038   0.196
    1UNL    H19   43  -0.067   0.160  -0.083
    1UNL    H20   44  -0.242  -0.133   0.157
    1UNL    H21   45  -0.186  -0.357   0.167
    1UNL    H22   46  -0.168  -0.368  -0.009
    1UNL    H23   47  -0.336  -0.335   0.078
   0.00000   0.00000   0.00000   0.00000   0.00000   0.00000   0.00000   0.00000   0.00000
Generated with MDTraj, t= 31.0
 47
    1UNL     C1    1  -0.312   0.298   0.191
    1UNL     O1    2  -0.209   0.266   0.109
    1UNL     C2    3  -0.263   0.177   0.007
    1UNL     N1    4  -0.373   0.091   0.051
    1UNL     C3    5  -0.386  -0.033   0.021
    1UNL     C4    6  -0.277  -0.109  -0.043
    1UNL     C5    7  -0.180  -0.016  -0.133
    1UNL     C6    8  -0.064  -0.105  -0.181
    1UNL     C7    9   0.016  -0.149  -0.056
    1UNL     C8   10   0.153  -0.088  -0.040
    1UNL     N2   11   0.274  -0.130  -0.095
    1UNL     C9   12   0.378  -0.049  -0.051
    1UNL    C10   13   0.511  -0.051  -0.073
    1UNL    C11   14   0.586   0.048  -0.010
    1UNL    C12   15   0.537   0.133   0.082
    1UNL    C13   16   0.403   0.145   0.101
    1UNL    C14   17   0.322   0.050   0.036
    1UNL    C15   18   0.176   0.028   0.036
    1UNL    C16   19   0.068   0.097   0.111
    1UNL    C17   20  -0.068   0.034   0.087
    1UNL    C18   21  -0.140   0.097  -0.040
    1UNL     N3   22  -0.054  -0.119   0.068
    1UNL    C19   23  -0.188  -0.184   0.066
    1UNL    C20   24  -0.171  -0.327   0.027
    1UNL     H1   25  -0.280   0.380   0.253
    1UNL     H2   26  -0.338   0.215   0.254
    1UNL     H3   27  -0.404   0.338   0.146
    1UNL     H4   28  -0.296   0.252  -0.072
    1UNL     H5   29  -0.477  -0.084   0.054
    1UNL     H6   30  -0.319  -0.190  -0.114
    1UNL     H7   31  -0.234   0.024  -0.223
    1UNL     H8   32  -0.108  -0.198  -0.228
    1UNL     H9   33  -0.001  -0.061  -0.261
    1UNL    H10   34   0.039  -0.252  -0.058
    1UNL    H11   35   0.292  -0.206  -0.163
    1UNL    H12   36   0.557  -0.126  -0.139
    1UNL    H13   37   0.697   0.060  -0.031
    1UNL    H14   38   0.604   0.185   0.142
    1UNL    H15   39   0.367   0.223   0.158
    1UNL    H16   40   0.068   0.206   0.096
    1UNL    H17   41   0.093   0.083   0.219
    1UNL    H18   42  -0.122   0.065   0.180
    1UNL    H19   43  -0.067   0.173  -0.075
    1UNL    H20   44  -0.238  -0.171   0.162
    1UNL    H21   45  -0.107  -0.370   0.098
    1UNL    H22   46  -0.120  -0.336  -0.073
    1UNL    H23   47  -0.269  -0.375   0.035
   0.00000   0.00000   0.00000   0.00000   0.00000   0.00000   0.00000   0.00000   0.00000
Generated with MDTraj, t= 32.0
 47
    1UNL     C1    1  -0.302   0.305   0.191
    1UNL     O1    2  -0.231   0.284   0.075
    1UNL     C2    3  -0.274   0.166   0.006
    1UNL     N1    4  -0.370   0.085   0.078
    1UNL     C3    5  -0.384  -0.034   0.034
    1UNL     C4    6  -0.287  -0.109  -0.045
    1UNL     C5    7  -0.190  -0.020  -0.128
    1UNL     C6    8  -0.063  -0.092  -0.193
    1UNL     C7    9   0.023  -0.146  -0.066
    1UNL     C8   10   0.157  -0.077  -0.060
    1UNL     N2   11   0.278  -0.124  -0.105
    1UNL     C9   12   0.383  -0.044  -0.059
    1UNL    C10   13   0.526  -0.043  -0.071
    1UNL    C11   14   0.595   0.042   0.009
    1UNL    C12   15   0.534   0.134   0.093
    1UNL    C13   16   0.401   0.142   0.100
    1UNL    C14   17   0.325   0.041   0.037
    1UNL    C15   18   0.182   0.025   0.029
    1UNL    C16   19   0.078   0.084   0.119
    1UNL    C17   20  -0.061   0.029   0.097
    1UNL    C18   21  -0.137   0.087  -0.029
    1UNL     N3   22  -0.051  -0.121   0.062
    1UNL    C19   23  -0.192  -0.183   0.058
    1UNL    C20   24  -0.193  -0.327   0.041
    1UNL     H1   25  -0.267   0.393   0.247
    1UNL     H2   26  -0.300   0.216   0.254
    1UNL     H3   27  -0.410   0.330   0.182
    1UNL     H4   28  -0.321   0.185  -0.095
    1UNL     H5   29  -0.466  -0.087   0.075
    1UNL     H6   30  -0.334  -0.179  -0.123
    1UNL     H7   31  -0.243   0.031  -0.213
    1UNL     H8   32  -0.096  -0.175  -0.258
    1UNL     H9   33   0.002  -0.023  -0.257
    1UNL    H10   34   0.037  -0.250  -0.068
    1UNL    H11   35   0.290  -0.203  -0.171
    1UNL    H12   36   0.584  -0.103  -0.137
    1UNL    H13   37   0.696   0.028   0.014
    1UNL    H14   38   0.588   0.202   0.162
    1UNL    H15   39   0.346   0.217   0.162
    1UNL    H16   40   0.080   0.190   0.100
    1UNL    H17   41   0.106   0.076   0.231
    1UNL    H18   42  -0.126   0.044   0.188
    1UNL    H19   43  -0.064   0.140  -0.083
    1UNL    H20   44  -0.233  -0.149   0.153
    1UNL    H21   45  -0.117  -0.367   0.105
    1UNL    H22   46  -0.160  -0.367  -0.061
    1UNL    H23   47  -0.280  -0.375   0.074
   0.00000   0.00000   0.00000   0.00000   0.00000   0.00000   0.00000   0.00000   0.00000
Generated with MDTraj, t= 33.0
 47
    1UNL     C1    1  -0.308   0.295   0.200
    1UNL     O1    2  -0.215   0.271   0.102
    1UNL     C2    3  -0.257   0.174   0.002
    1UNL     N1    4  -0.374   0.097   0.039
    1UNL     C3    5  -0.381  -0.028   0.024
    1UNL     C4    6  -0.281  -0.106  -0.046
    1UNL     C5    7  -0.183  -0.022  -0.134
    1UNL     C6    8  -0.058  -0.101  -0.179
    1UNL     C7    9   0.018  -0.148  -0.053
    1UNL     C8   10   0.154  -0.078  -0.051
    1UNL     N2   11   0.272  -0.122  -0.106
    1UNL     C9   12   0.375  -0.043  -0.058
    1UNL    C10   13   0.516  -0.045  -0.076
    1UNL    C11   14   0.594   0.034   0.002
    1UNL    C12   15   0.529   0.132   0.088
    1UNL    C13   16   0.396   0.146   0.097
    1UNL    C14   17   0.317   0.050   0.033
    1UNL    C15   18   0.179   0.024   0.037
    1UNL    C16   19   0.072   0.094   0.118
    1UNL    C17   20  -0.064   0.031   0.092
    1UNL    C18   21  -0.133   0.089  -0.035
    1UNL     N3   22  -0.053  -0.122   0.068
    1UNL    C19   23  -0.185  -0.187   0.062
    1UNL    C20   24  -0.183  -0.334   0.044
    1UNL     H1   25  -0.357   0.394   0.184
    1UNL     H2   26  -0.272   0.282   0.304
    1UNL     H3   27  -0.400   0.229   0.200
    1UNL     H4   28  -0.280   0.235  -0.087
    1UNL     H5   29  -0.475  -0.073   0.056
    1UNL     H6   30  -0.340  -0.182  -0.110
    1UNL     H7   31  -0.245   0.032  -0.210
    1UNL     H8   32  -0.083  -0.191  -0.239
    1UNL     H9   33   0.010  -0.026  -0.236
    1UNL    H10   34   0.024  -0.253  -0.060
    1UNL    H11   35   0.277  -0.202  -0.171
    1UNL    H12   36   0.553  -0.100  -0.164
    1UNL    H13   37   0.704   0.051  -0.003
    1UNL    H14   38   0.597   0.191   0.147
    1UNL    H15   39   0.347   0.216   0.162
    1UNL    H16   40   0.065   0.197   0.095
    1UNL    H17   41   0.106   0.090   0.230
    1UNL    H18   42  -0.142   0.041   0.171
    1UNL    H19   43  -0.075   0.159  -0.084
    1UNL    H20   44  -0.220  -0.161   0.163
    1UNL    H21   45  -0.113  -0.372   0.119
    1UNL    H22   46  -0.140  -0.370  -0.050
    1UNL    H23   47  -0.276  -0.377   0.067
   0.00000   0.00000   0.00000   0.00000   0.00000   0.00000   0.00000   0.00000   0.00000
Generated with MDTraj, t= 34.0
 47
    1UNL     C1    1  -0.338   0.290   0.201
    1UNL     O1    2  -0.220   0.234   0.150
    1UNL     C2    3  -0.254   0.177   0.020
    1UNL     N1    4  -0.375   0.107   0.015
    1UNL     C3    5  -0.386  -0.016  -0.016
    1UNL     C4    6  -0.271  -0.098  -0.057
    1UNL     C5    7  -0.166  -0.008  -0.134
    1UNL     C6    8  -0.051  -0.100  -0.181
    1UNL     C7    9   0.023  -0.158  -0.057
    1UNL     C8   10   0.159  -0.099  -0.036
    1UNL     N2   11   0.279  -0.133  -0.092
    1UNL     C9   12   0.380  -0.048  -0.047
    1UNL    C10   13   0.517  -0.048  -0.078
    1UNL    C11   14   0.593   0.050  -0.023
    1UNL    C12   15   0.540   0.151   0.066
    1UNL    C13   16   0.405   0.151   0.091
    1UNL    C14   17   0.324   0.050   0.034
    1UNL    C15   18   0.185   0.014   0.041
    1UNL    C16   19   0.076   0.088   0.109
    1UNL    C17   20  -0.063   0.031   0.091
    1UNL    C18   21  -0.130   0.099  -0.033
    1UNL     N3   22  -0.058  -0.123   0.072
    1UNL    C19   23  -0.200  -0.174   0.069
    1UNL    C20   24  -0.215  -0.333   0.059
    1UNL     H1   25  -0.418   0.280   0.123
    1UNL     H2   26  -0.322   0.391   0.242
    1UNL     H3   27  -0.377   0.236   0.292
    1UNL     H4   28  -0.258   0.262  -0.047
    1UNL     H5   29  -0.480  -0.061   0.003
    1UNL     H6   30  -0.301  -0.180  -0.132
    1UNL     H7   31  -0.218   0.023  -0.227
    1UNL     H8   32  -0.097  -0.186  -0.233
    1UNL     H9   33   0.021  -0.042  -0.251
    1UNL    H10   34   0.032  -0.262  -0.061
    1UNL    H11   35   0.280  -0.199  -0.170
    1UNL    H12   36   0.546  -0.111  -0.160
    1UNL    H13   37   0.689   0.071  -0.071
    1UNL    H14   38   0.604   0.224   0.115
    1UNL    H15   39   0.361   0.216   0.165
    1UNL    H16   40   0.080   0.184   0.063
    1UNL    H17   41   0.101   0.112   0.220
    1UNL    H18   42  -0.127   0.042   0.181
    1UNL    H19   43  -0.056   0.154  -0.077
    1UNL    H20   44  -0.233  -0.135   0.167
    1UNL    H21   45  -0.168  -0.376   0.150
    1UNL    H22   46  -0.152  -0.359  -0.018
    1UNL    H23   47  -0.319  -0.359   0.054
   0.00000   0.00000   0.00000   0.00000   0.00000   0.00000   0.00000   0.00000   0.00000
Generated with MDTraj, t= 35.0
 47
    1UNL     C1    1  -0.370   0.297   0.195
    1UNL     O1    2  -0.258   0.214   0.171
    1UNL     C2    3  -0.259   0.175   0.032
    1UNL     N1    4  -0.377   0.102   0.003
    1UNL     C3    5  -0.386  -0.014  -0.055
    1UNL     C4    6  -0.260  -0.099  -0.076
    1UNL     C5    7  -0.156  -0.001  -0.131
    1UNL     C6    8  -0.028  -0.078  -0.176
    1UNL     C7    9   0.024  -0.155  -0.046
    1UNL     C8   10   0.165  -0.108  -0.014
    1UNL     N2   11   0.280  -0.149  -0.080
    1UNL     C9   12   0.380  -0.055  -0.053
    1UNL    C10   13   0.516  -0.054  -0.090
    1UNL    C11   14   0.593   0.055  -0.051
    1UNL    C12   15   0.540   0.162   0.026
    1UNL    C13   16   0.409   0.147   0.079
    1UNL    C14   17   0.332   0.037   0.042
    1UNL    C15   18   0.192   0.006   0.060
    1UNL    C16   19   0.084   0.082   0.131
    1UNL    C17   20  -0.055   0.027   0.105
    1UNL    C18   21  -0.123   0.099  -0.012
    1UNL     N3   22  -0.058  -0.121   0.075
    1UNL    C19   23  -0.199  -0.160   0.053
    1UNL    C20   24  -0.222  -0.312   0.068
    1UNL     H1   25  -0.457   0.229   0.206
    1UNL     H2   26  -0.378   0.380   0.125
    1UNL     H3   27  -0.346   0.353   0.287
    1UNL     H4   28  -0.255   0.271  -0.014
    1UNL     H5   29  -0.482  -0.057  -0.082
    1UNL     H6   30  -0.260  -0.190  -0.148
    1UNL     H7   31  -0.199   0.059  -0.214
    1UNL     H8   32  -0.048  -0.144  -0.262
    1UNL     H9   33   0.050   0.001  -0.208
    1UNL    H10   34   0.022  -0.260  -0.050
    1UNL    H11   35   0.291  -0.231  -0.139
    1UNL    H12   36   0.548  -0.139  -0.148
    1UNL    H13   37   0.693   0.045  -0.079
    1UNL    H14   38   0.594   0.251   0.054
    1UNL    H15   39   0.376   0.218   0.155
    1UNL    H16   40   0.084   0.189   0.112
    1UNL    H17   41   0.111   0.070   0.242
    1UNL    H18   42  -0.117   0.039   0.195
    1UNL    H19   43  -0.056   0.175  -0.030
    1UNL    H20   44  -0.247  -0.104   0.136
    1UNL    H21   45  -0.164  -0.355   0.149
    1UNL    H22   46  -0.188  -0.354  -0.021
    1UNL    H23   47  -0.330  -0.317   0.092
   0.00000   0.00000   0.00000   0.00000   0.00000   0.00000   0.00000   0.00000   0.00000
Generated with MDTraj, t= 36.0
 47
    1UNL     C1    1  -0.383   0.251   0.208
    1UNL     O1    2  -0.250   0.223   0.158
    1UNL     C2    3  -0.251   0.184   0.017
    1UNL     N1    4  -0.376   0.126  -0.023
    1UNL     C3    5  -0.392   0.001  -0.031
    1UNL     C4    6  -0.269  -0.091  -0.064
    1UNL     C5    7  -0.152  -0.009  -0.132
    1UNL     C6    8  -0.023  -0.091  -0.160
    1UNL     C7    9   0.030  -0.153  -0.030
    1UNL     C8   10   0.166  -0.104   0.000
    1UNL     N2   11   0.275  -0.148  -0.070
    1UNL     C9   12   0.379  -0.059  -0.054
    1UNL    C10   13   0.509  -0.059  -0.105
    1UNL    C11   14   0.586   0.054  -0.069
    1UNL    C12   15   0.540   0.153   0.025
    1UNL    C13   16   0.406   0.147   0.081
    1UNL    C14   17   0.331   0.038   0.042
    1UNL    C15   18   0.193   0.006   0.070
    1UNL    C16   19   0.086   0.084   0.144
    1UNL    C17   20  -0.057   0.040   0.107
    1UNL    C18   21  -0.119   0.107  -0.026
    1UNL     N3   22  -0.063  -0.114   0.084
    1UNL    C19   23  -0.202  -0.161   0.057
    1UNL    C20   24  -0.201  -0.313   0.039
    1UNL     H1   25  -0.404   0.165   0.272
    1UNL     H2   26  -0.451   0.261   0.127
    1UNL     H3   27  -0.383   0.344   0.262
    1UNL     H4   28  -0.235   0.278  -0.034
    1UNL     H5   29  -0.492  -0.031  -0.053
    1UNL     H6   30  -0.308  -0.184  -0.122
    1UNL     H7   31  -0.188   0.041  -0.225
    1UNL     H8   32  -0.051  -0.161  -0.243
    1UNL     H9   33   0.054  -0.021  -0.207
    1UNL    H10   34   0.038  -0.259  -0.038
    1UNL    H11   35   0.293  -0.238  -0.113
    1UNL    H12   36   0.542  -0.148  -0.159
    1UNL    H13   37   0.695   0.058  -0.105
    1UNL    H14   38   0.620   0.212   0.067
    1UNL    H15   39   0.373   0.218   0.153
    1UNL    H16   40   0.100   0.191   0.113
    1UNL    H17   41   0.097   0.077   0.253
    1UNL    H18   42  -0.128   0.050   0.190
    1UNL    H19   43  -0.053   0.173  -0.070
    1UNL    H20   44  -0.271  -0.114   0.131
    1UNL    H21   45  -0.142  -0.363   0.107
    1UNL    H22   46  -0.152  -0.338  -0.055
    1UNL    H23   47  -0.300  -0.361   0.044
   0.00000   0.00000   0.00000   0.00000   0.00000   0.00000   0.00000   0.00000   0.00000
Generated with MDTraj, t= 37.0
 47
    1UNL     C1    1  -0.324   0.216   0.235
    1UNL     O1    2  -0.229   0.245   0.131
    1UNL     C2    3  -0.255   0.184  -0.001
    1UNL     N1    4  -0.377   0.116  -0.002
    1UNL     C3    5  -0.389  -0.004  -0.039
    1UNL     C4    6  -0.269  -0.090  -0.069
    1UNL     C5    7  -0.154  -0.006  -0.141
    1UNL     C6    8  -0.033  -0.097  -0.168
    1UNL     C7    9   0.022  -0.157  -0.041
    1UNL     C8   10   0.163  -0.109  -0.021
    1UNL     N2   11   0.284  -0.146  -0.084
    1UNL     C9   12   0.377  -0.050  -0.052
    1UNL    C10   13   0.514  -0.042  -0.083
    1UNL    C11   14   0.592   0.059  -0.037
    1UNL    C12   15   0.536   0.161   0.049
    1UNL    C13   16   0.402   0.157   0.080
    1UNL    C14   17   0.323   0.045   0.032
    1UNL    C15   18   0.190   0.005   0.052
    1UNL    C16   19   0.081   0.070   0.135
    1UNL    C17   20  -0.064   0.025   0.093
    1UNL    C18   21  -0.127   0.098  -0.034
    1UNL     N3   22  -0.062  -0.119   0.079
    1UNL    C19   23  -0.208  -0.152   0.062
    1UNL    C20   24  -0.240  -0.299   0.084
    1UNL     H1   25  -0.375   0.126   0.207
    1UNL     H2   26  -0.389   0.300   0.230
    1UNL     H3   27  -0.274   0.200   0.329
    1UNL     H4   28  -0.251   0.262  -0.078
    1UNL     H5   29  -0.491  -0.040  -0.036
    1UNL     H6   30  -0.291  -0.186  -0.131
    1UNL     H7   31  -0.194   0.034  -0.237
    1UNL     H8   32  -0.048  -0.161  -0.262
    1UNL     H9   33   0.046  -0.023  -0.202
    1UNL    H10   34   0.021  -0.263  -0.046
    1UNL    H11   35   0.296  -0.199  -0.169
    1UNL    H12   36   0.552  -0.113  -0.153
    1UNL    H13   37   0.688   0.055  -0.071
    1UNL    H14   38   0.599   0.241   0.090
    1UNL    H15   39   0.357   0.239   0.136
    1UNL    H16   40   0.085   0.185   0.123
    1UNL    H17   41   0.102   0.046   0.236
    1UNL    H18   42  -0.133   0.056   0.171
    1UNL    H19   43  -0.053   0.166  -0.066
    1UNL    H20   44  -0.252  -0.082   0.135
    1UNL    H21   45  -0.227  -0.347   0.174
    1UNL    H22   46  -0.174  -0.357   0.016
    1UNL    H23   47  -0.341  -0.325   0.054
   0.00000   0.00000   0.00000   0.00000   0.00000   0.00000   0.00000   0.00000   0.00000
Generated with MDTraj, t= 38.0
 47
    1UNL     C1    1  -0.265   0.211   0.235
    1UNL     O1    2  -0.216   0.263   0.114
    1UNL     C2    3  -0.254   0.188  -0.011
    1UNL     N1    4  -0.377   0.118   0.002
    1UNL     C3    5  -0.388  -0.007  -0.010
    1UNL     C4    6  -0.275  -0.095  -0.049
    1UNL     C5    7  -0.172  -0.015  -0.138
    1UNL     C6    8  -0.048  -0.111  -0.177
    1UNL     C7    9   0.022  -0.165  -0.045
    1UNL     C8   10   0.153  -0.099  -0.031
    1UNL     N2   11   0.275  -0.136  -0.085
    1UNL     C9   12   0.376  -0.050  -0.039
    1UNL    C10   13   0.511  -0.044  -0.075
    1UNL    C11   14   0.587   0.051  -0.018
    1UNL    C12   15   0.528   0.150   0.070
    1UNL    C13   16   0.394   0.148   0.097
    1UNL    C14   17   0.312   0.044   0.042
    1UNL    C15   18   0.172   0.021   0.039
    1UNL    C16   19   0.070   0.096   0.116
    1UNL    C17   20  -0.071   0.035   0.085
    1UNL    C18   21  -0.127   0.098  -0.046
    1UNL     N3   22  -0.064  -0.113   0.074
    1UNL    C19   23  -0.202  -0.165   0.067
    1UNL    C20   24  -0.204  -0.317   0.057
    1UNL     H1   25  -0.299   0.109   0.213
    1UNL     H2   26  -0.350   0.277   0.249
    1UNL     H3   27  -0.185   0.210   0.309
    1UNL     H4   28  -0.267   0.268  -0.088
    1UNL     H5   29  -0.487  -0.042   0.016
    1UNL     H6   30  -0.303  -0.184  -0.118
    1UNL     H7   31  -0.221   0.040  -0.223
    1UNL     H8   32  -0.085  -0.198  -0.244
    1UNL     H9   33   0.016  -0.054  -0.248
    1UNL    H10   34   0.044  -0.269  -0.045
    1UNL    H11   35   0.281  -0.202  -0.161
    1UNL    H12   36   0.540  -0.097  -0.165
    1UNL    H13   37   0.692   0.074  -0.054
    1UNL    H14   38   0.587   0.237   0.085
    1UNL    H15   39   0.351   0.225   0.155
    1UNL    H16   40   0.079   0.206   0.077
    1UNL    H17   41   0.083   0.095   0.221
    1UNL    H18   42  -0.140   0.054   0.167
    1UNL    H19   43  -0.052   0.165  -0.083
    1UNL    H20   44  -0.248  -0.126   0.159
    1UNL    H21   45  -0.118  -0.359   0.104
    1UNL    H22   46  -0.184  -0.331  -0.053
    1UNL    H23   47  -0.296  -0.353   0.094
   0.00000   0.00000   0.00000   0.00000   0.00000   0.00000   0.00000   0.00000   0.00000
Generated with MDTraj, t= 39.0
 47
    1UNL     C1    1  -0.292   0.303   0.220
    1UNL     O1    2  -0.235   0.290   0.093
    1UNL     C2    3  -0.269   0.175   0.006
    1UNL     N1    4  -0.379   0.092   0.051
    1UNL     C3    5  -0.383  -0.027   0.008
    1UNL     C4    6  -0.276  -0.107  -0.058
    1UNL     C5    7  -0.177  -0.018  -0.135
    1UNL     C6    8  -0.051  -0.100  -0.180
    1UNL     C7    9   0.025  -0.142  -0.057
    1UNL     C8   10   0.159  -0.076  -0.051
    1UNL     N2   11   0.275  -0.128  -0.102
    1UNL     C9   12   0.379  -0.053  -0.047
    1UNL    C10   13   0.517  -0.062  -0.066
    1UNL    C11   14   0.589   0.038   0.000
    1UNL    C12   15   0.535   0.140   0.076
    1UNL    C13   16   0.404   0.150   0.095
    1UNL    C14   17   0.320   0.054   0.030
    1UNL    C15   18   0.183   0.025   0.037
    1UNL    C16   19   0.075   0.091   0.125
    1UNL    C17   20  -0.067   0.021   0.094
    1UNL    C18   21  -0.134   0.091  -0.026
    1UNL     N3   22  -0.052  -0.127   0.069
    1UNL    C19   23  -0.190  -0.184   0.052
    1UNL    C20   24  -0.208  -0.339   0.033
    1UNL     H1   25  -0.334   0.200   0.232
    1UNL     H2   26  -0.366   0.384   0.210
    1UNL     H3   27  -0.206   0.309   0.292
    1UNL     H4   28  -0.303   0.214  -0.095
    1UNL     H5   29  -0.479  -0.069   0.036
    1UNL     H6   30  -0.322  -0.193  -0.121
    1UNL     H7   31  -0.227   0.026  -0.225
    1UNL     H8   32  -0.094  -0.187  -0.245
    1UNL     H9   33   0.016  -0.045  -0.249
    1UNL    H10   34   0.045  -0.246  -0.058
    1UNL    H11   35   0.275  -0.226  -0.129
    1UNL    H12   36   0.568  -0.141  -0.120
    1UNL    H13   37   0.696   0.048  -0.007
    1UNL    H14   38   0.605   0.208   0.132
    1UNL    H15   39   0.353   0.220   0.163
    1UNL    H16   40   0.055   0.204   0.106
    1UNL    H17   41   0.106   0.082   0.225
    1UNL    H18   42  -0.130   0.023   0.184
    1UNL    H19   43  -0.057   0.152  -0.070
    1UNL    H20   44  -0.242  -0.161   0.146
    1UNL    H21   45  -0.154  -0.384   0.116
    1UNL    H22   46  -0.151  -0.352  -0.061
    1UNL    H23   47  -0.311  -0.354   0.034
   0.00000   0.00000   0.00000   0.00000   0.00000   0.00000   0.00000   0.00000   0.00000
Generated with MDTraj, t= 40.0
 47
    1UNL     C1    1  -0.340   0.340   0.173
    1UNL     O1    2  -0.225   0.284   0.106
    1UNL     C2    3  -0.257   0.174   0.018
    1UNL     N1    4  -0.370   0.090   0.069
    1UNL     C3    5  -0.373  -0.035   0.043
    1UNL     C4    6  -0.275  -0.105  -0.039
    1UNL     C5    7  -0.184  -0.012  -0.127
    1UNL     C6    8  -0.061  -0.088  -0.190
    1UNL     C7    9   0.018  -0.153  -0.078
    1UNL     C8   10   0.158  -0.089  -0.053
    1UNL     N2   11   0.276  -0.129  -0.102
    1UNL     C9   12   0.381  -0.052  -0.052
    1UNL    C10   13   0.517  -0.049  -0.071
    1UNL    C11   14   0.591   0.043  -0.003
    1UNL    C12   15   0.528   0.127   0.086
    1UNL    C13   16   0.399   0.124   0.117
    1UNL    C14   17   0.321   0.036   0.042
    1UNL    C15   18   0.180   0.022   0.033
    1UNL    C16   19   0.082   0.092   0.114
    1UNL    C17   20  -0.063   0.032   0.088
    1UNL    C18   21  -0.136   0.096  -0.032
    1UNL     N3   22  -0.050  -0.121   0.059
    1UNL    C19   23  -0.183  -0.190   0.053
    1UNL    C20   24  -0.181  -0.346   0.021
    1UNL     H1   25  -0.328   0.292   0.274
    1UNL     H2   26  -0.429   0.305   0.117
    1UNL     H3   27  -0.326   0.449   0.188
    1UNL     H4   28  -0.299   0.231  -0.070
    1UNL     H5   29  -0.465  -0.084   0.079
    1UNL     H6   30  -0.337  -0.177  -0.108
    1UNL     H7   31  -0.253   0.031  -0.204
    1UNL     H8   32  -0.098  -0.170  -0.262
    1UNL     H9   33  -0.003  -0.015  -0.252
    1UNL    H10   34   0.025  -0.259  -0.091
    1UNL    H11   35   0.278  -0.209  -0.164
    1UNL    H12   36   0.579  -0.121  -0.122
    1UNL    H13   37   0.695   0.036   0.002
    1UNL    H14   38   0.579   0.196   0.142
    1UNL    H15   39   0.358   0.181   0.195
    1UNL    H16   40   0.092   0.201   0.088
    1UNL    H17   41   0.098   0.087   0.220
    1UNL    H18   42  -0.122   0.041   0.179
    1UNL    H19   43  -0.073   0.176  -0.076
    1UNL    H20   44  -0.226  -0.172   0.153
    1UNL    H21   45  -0.100  -0.391   0.082
    1UNL    H22   46  -0.157  -0.358  -0.081
    1UNL    H23   47  -0.277  -0.379   0.050
   0.00000   0.00000   0.00000   0.00000   0.00000   0.00000   0.00000   0.00000   0.00000
Generated with MDTraj, t= 41.0
 47
    1UNL     C1    1  -0.318   0.373   0.142
    1UNL     O1    2  -0.237   0.248   0.134
    1UNL     C2    3  -0.274   0.165   0.022
    1UNL     N1    4  -0.382   0.075   0.053
    1UNL     C3    5  -0.386  -0.045   0.010
    1UNL     C4    6  -0.275  -0.111  -0.052
    1UNL     C5    7  -0.186  -0.007  -0.125
    1UNL     C6    8  -0.059  -0.078  -0.180
    1UNL     C7    9   0.015  -0.140  -0.059
    1UNL     C8   10   0.158  -0.083  -0.050
    1UNL     N2   11   0.278  -0.113  -0.120
    1UNL     C9   12   0.378  -0.030  -0.069
    1UNL    C10   13   0.515  -0.049  -0.080
    1UNL    C11   14   0.596   0.029   0.000
    1UNL    C12   15   0.555   0.112   0.095
    1UNL    C13   16   0.421   0.132   0.111
    1UNL    C14   17   0.325   0.057   0.029
    1UNL    C15   18   0.184   0.022   0.040
    1UNL    C16   19   0.075   0.071   0.127
    1UNL    C17   20  -0.067   0.020   0.098
    1UNL    C18   21  -0.139   0.094  -0.016
    1UNL     N3   22  -0.052  -0.121   0.069
    1UNL    C19   23  -0.191  -0.187   0.062
    1UNL    C20   24  -0.186  -0.337   0.037
    1UNL     H1   25  -0.249   0.451   0.181
    1UNL     H2   26  -0.402   0.361   0.211
    1UNL     H3   27  -0.357   0.407   0.045
    1UNL     H4   28  -0.317   0.216  -0.066
    1UNL     H5   29  -0.475  -0.098   0.036
    1UNL     H6   30  -0.300  -0.190  -0.135
    1UNL     H7   31  -0.245   0.030  -0.213
    1UNL     H8   32  -0.091  -0.160  -0.253
    1UNL     H9   33   0.013  -0.007  -0.236
    1UNL    H10   34   0.032  -0.244  -0.080
    1UNL    H11   35   0.278  -0.180  -0.198
    1UNL    H12   36   0.563  -0.127  -0.138
    1UNL    H13   37   0.711   0.012   0.001
    1UNL    H14   38   0.632   0.166   0.158
    1UNL    H15   39   0.378   0.209   0.175
    1UNL    H16   40   0.069   0.177   0.122
    1UNL    H17   41   0.108   0.050   0.229
    1UNL    H18   42  -0.130   0.032   0.186
    1UNL    H19   43  -0.070   0.170  -0.058
    1UNL    H20   44  -0.238  -0.160   0.158
    1UNL    H21   45  -0.115  -0.404   0.089
    1UNL    H22   46  -0.169  -0.366  -0.061
    1UNL    H23   47  -0.284  -0.375   0.061
   0.00000   0.00000   0.00000   0.00000   0.00000   0.00000   0.00000   0.00000   0.00000
Generated with MDTraj, t= 42.0
 47
    1UNL     C1    1  -0.314   0.356   0.160
    1UNL     O1    2  -0.232   0.243   0.144
    1UNL     C2    3  -0.262   0.167   0.023
    1UNL     N1    4  -0.386   0.091   0.041
    1UNL     C3    5  -0.390  -0.031   0.003
    1UNL     C4    6  -0.277  -0.107  -0.052
    1UNL     C5    7  -0.180  -0.013  -0.131
    1UNL     C6    8  -0.050  -0.090  -0.184
    1UNL     C7    9   0.025  -0.150  -0.065
    1UNL     C8   10   0.160  -0.087  -0.044
    1UNL     N2   11   0.275  -0.123  -0.109
    1UNL     C9   12   0.383  -0.053  -0.057
    1UNL    C10   13   0.521  -0.038  -0.089
    1UNL    C11   14   0.597   0.051  -0.012
    1UNL    C12   15   0.537   0.131   0.088
    1UNL    C13   16   0.405   0.128   0.113
    1UNL    C14   17   0.325   0.036   0.041
    1UNL    C15   18   0.183   0.010   0.045
    1UNL    C16   19   0.079   0.079   0.127
    1UNL    C17   20  -0.064   0.027   0.097
    1UNL    C18   21  -0.133   0.093  -0.026
    1UNL     N3   22  -0.059  -0.123   0.063
    1UNL    C19   23  -0.196  -0.180   0.060
    1UNL    C20   24  -0.195  -0.327   0.042
    1UNL     H1   25  -0.255   0.448   0.152
    1UNL     H2   26  -0.376   0.356   0.248
    1UNL     H3   27  -0.388   0.370   0.082
    1UNL     H4   28  -0.287   0.227  -0.064
    1UNL     H5   29  -0.474  -0.089   0.044
    1UNL     H6   30  -0.322  -0.195  -0.117
    1UNL     H7   31  -0.240   0.032  -0.214
    1UNL     H8   32  -0.075  -0.173  -0.257
    1UNL     H9   33   0.012  -0.007  -0.238
    1UNL    H10   34   0.037  -0.257  -0.076
    1UNL    H11   35   0.294  -0.200  -0.175
    1UNL    H12   36   0.576  -0.085  -0.168
    1UNL    H13   37   0.692   0.078  -0.033
    1UNL    H14   38   0.592   0.206   0.136
    1UNL    H15   39   0.361   0.210   0.168
    1UNL    H16   40   0.099   0.179   0.119
    1UNL    H17   41   0.102   0.058   0.234
    1UNL    H18   42  -0.127   0.040   0.185
    1UNL    H19   43  -0.068   0.171  -0.075
    1UNL    H20   44  -0.246  -0.148   0.152
    1UNL    H21   45  -0.151  -0.380   0.124
    1UNL    H22   46  -0.142  -0.371  -0.037
    1UNL    H23   47  -0.297  -0.369   0.043
   0.00000   0.00000   0.00000   0.00000   0.00000   0.00000   0.00000   0.00000   0.00000
Generated with MDTraj, t= 43.0
 47
    1UNL     C1    1  -0.318   0.288   0.198
    1UNL     O1    2  -0.208   0.262   0.127
    1UNL     C2    3  -0.241   0.186   0.007
    1UNL     N1    4  -0.361   0.114   0.037
    1UNL     C3    5  -0.376  -0.007   0.001
    1UNL     C4    6  -0.274  -0.100  -0.065
    1UNL     C5    7  -0.165  -0.016  -0.134
    1UNL     C6    8  -0.046  -0.108  -0.176
    1UNL     C7    9   0.022  -0.157  -0.050
    1UNL     C8   10   0.154  -0.093  -0.035
    1UNL     N2   11   0.273  -0.140  -0.085
    1UNL     C9   12   0.374  -0.057  -0.044
    1UNL    C10   13   0.508  -0.040  -0.086
    1UNL    C11   14   0.580   0.056  -0.024
    1UNL    C12   15   0.519   0.150   0.064
    1UNL    C13   16   0.389   0.147   0.097
    1UNL    C14   17   0.319   0.042   0.042
    1UNL    C15   18   0.180   0.013   0.053
    1UNL    C16   19   0.071   0.078   0.137
    1UNL    C17   20  -0.066   0.023   0.089
    1UNL    C18   21  -0.123   0.090  -0.034
    1UNL     N3   22  -0.059  -0.122   0.070
    1UNL    C19   23  -0.198  -0.177   0.051
    1UNL    C20   24  -0.209  -0.333   0.029
    1UNL     H1   25  -0.384   0.351   0.140
    1UNL     H2   26  -0.288   0.342   0.285
    1UNL     H3   27  -0.377   0.206   0.235
    1UNL     H4   28  -0.251   0.261  -0.070
    1UNL     H5   29  -0.470  -0.049   0.023
    1UNL     H6   30  -0.333  -0.168  -0.141
    1UNL     H7   31  -0.207   0.036  -0.222
    1UNL     H8   32  -0.080  -0.188  -0.247
    1UNL     H9   33   0.030  -0.034  -0.226
    1UNL    H10   34   0.038  -0.265  -0.052
    1UNL    H11   35   0.298  -0.203  -0.162
    1UNL    H12   36   0.551  -0.103  -0.164
    1UNL    H13   37   0.692   0.059  -0.040
    1UNL    H14   38   0.574   0.240   0.093
    1UNL    H15   39   0.344   0.212   0.167
    1UNL    H16   40   0.073   0.179   0.124
    1UNL    H17   41   0.099   0.068   0.245
    1UNL    H18   42  -0.134   0.038   0.172
    1UNL    H19   43  -0.043   0.162  -0.074
    1UNL    H20   44  -0.251  -0.154   0.143
    1UNL    H21   45  -0.157  -0.377   0.106
    1UNL    H22   46  -0.159  -0.366  -0.061
    1UNL    H23   47  -0.315  -0.366   0.041
   0.00000   0.00000   0.00000   0.00000   0.00000   0.00000   0.00000   0.00000   0.00000
Generated with MDTraj, t= 44.0
 47
    1UNL     C1    1  -0.290   0.252   0.230
    1UNL     O1    2  -0.210   0.274   0.118
    1UNL     C2    3  -0.244   0.184   0.007
    1UNL     N1    4  -0.366   0.121   0.010
    1UNL     C3    5  -0.379   0.001  -0.030
    1UNL     C4    6  -0.267  -0.095  -0.072
    1UNL     C5    7  -0.155  -0.006  -0.136
    1UNL     C6    8  -0.037  -0.106  -0.166
    1UNL     C7    9   0.021  -0.168  -0.040
    1UNL     C8   10   0.156  -0.109  -0.016
    1UNL     N2   11   0.277  -0.140  -0.075
    1UNL     C9   12   0.378  -0.053  -0.038
    1UNL    C10   13   0.511  -0.036  -0.083
    1UNL    C11   14   0.585   0.069  -0.036
    1UNL    C12   15   0.530   0.169   0.047
    1UNL    C13   16   0.392   0.162   0.082
    1UNL    C14   17   0.316   0.049   0.033
    1UNL    C15   18   0.178   0.002   0.059
    1UNL    C16   19   0.068   0.062   0.142
    1UNL    C17   20  -0.075   0.017   0.099
    1UNL    C18   21  -0.118   0.091  -0.026
    1UNL     N3   22  -0.074  -0.135   0.074
    1UNL    C19   23  -0.216  -0.171   0.050
    1UNL    C20   24  -0.240  -0.325   0.037
    1UNL     H1   25  -0.319   0.149   0.247
    1UNL     H2   26  -0.384   0.304   0.214
    1UNL     H3   27  -0.252   0.296   0.322
    1UNL     H4   28  -0.248   0.251  -0.079
    1UNL     H5   29  -0.481  -0.032  -0.053
    1UNL     H6   30  -0.289  -0.171  -0.158
    1UNL     H7   31  -0.173   0.041  -0.234
    1UNL     H8   32  -0.079  -0.187  -0.235
    1UNL     H9   33   0.047  -0.055  -0.226
    1UNL    H10   34   0.038  -0.275  -0.056
    1UNL    H11   35   0.288  -0.211  -0.150
    1UNL    H12   36   0.538  -0.119  -0.146
    1UNL    H13   37   0.689   0.072  -0.067
    1UNL    H14   38   0.600   0.243   0.087
    1UNL    H15   39   0.343   0.231   0.155
    1UNL    H16   40   0.083   0.166   0.121
    1UNL    H17   41   0.093   0.054   0.248
    1UNL    H18   42  -0.145   0.035   0.179
    1UNL    H19   43  -0.026   0.151  -0.063
    1UNL    H20   44  -0.264  -0.149   0.147
    1UNL    H21   45  -0.176  -0.363   0.108
    1UNL    H22   46  -0.211  -0.356  -0.063
    1UNL    H23   47  -0.342  -0.345   0.072
   0.00000   0.00000   0.00000   0.00000   0.00000   0.00000   0.00000   0.00000   0.00000
Generated with MDTraj, t= 45.0
 47
    1UNL     C1    1  -0.290   0.235   0.235
    1UNL     O1    2  -0.210   0.266   0.121
    1UNL     C2    3  -0.238   0.193  -0.000
    1UNL     N1    4  -0.364   0.132  -0.013
    1UNL     C3    5  -0.382   0.009  -0.037
    1UNL     C4    6  -0.270  -0.096  -0.070
    1UNL     C5    7  -0.159  -0.007  -0.138
    1UNL     C6    8  -0.036  -0.104  -0.170
    1UNL     C7    9   0.020  -0.162  -0.040
    1UNL     C8   10   0.159  -0.118  -0.006
    1UNL     N2   11   0.271  -0.141  -0.083
    1UNL     C9   12   0.372  -0.054  -0.042
    1UNL    C10   13   0.500  -0.033  -0.095
    1UNL    C11   14   0.570   0.076  -0.055
    1UNL    C12   15   0.515   0.169   0.047
    1UNL    C13   16   0.390   0.138   0.110
    1UNL    C14   17   0.317   0.029   0.059
    1UNL    C15   18   0.180  -0.013   0.073
    1UNL    C16   19   0.072   0.075   0.131
    1UNL    C17   20  -0.065   0.026   0.096
    1UNL    C18   21  -0.117   0.095  -0.026
    1UNL     N3   22  -0.070  -0.124   0.070
    1UNL    C19   23  -0.211  -0.169   0.056
    1UNL    C20   24  -0.212  -0.323   0.047
    1UNL     H1   25  -0.240   0.259   0.329
    1UNL     H2   26  -0.314   0.127   0.237
    1UNL     H3   27  -0.386   0.291   0.225
    1UNL     H4   28  -0.225   0.282  -0.068
    1UNL     H5   29  -0.481  -0.028  -0.028
    1UNL     H6   30  -0.311  -0.177  -0.143
    1UNL     H7   31  -0.200   0.054  -0.219
    1UNL     H8   32  -0.051  -0.180  -0.256
    1UNL     H9   33   0.044  -0.032  -0.207
    1UNL    H10   34   0.013  -0.271  -0.037
    1UNL    H11   35   0.286  -0.221  -0.147
    1UNL    H12   36   0.535  -0.099  -0.173
    1UNL    H13   37   0.665   0.079  -0.100
    1UNL    H14   38   0.564   0.260   0.066
    1UNL    H15   39   0.346   0.214   0.166
    1UNL    H16   40   0.090   0.182   0.104
    1UNL    H17   41   0.085   0.074   0.237
    1UNL    H18   42  -0.134   0.050   0.175
    1UNL    H19   43  -0.035   0.167  -0.068
    1UNL    H20   44  -0.269  -0.140   0.147
    1UNL    H21   45  -0.178  -0.360   0.142
    1UNL    H22   46  -0.148  -0.364  -0.030
    1UNL    H23   47  -0.307  -0.359   0.040
   0.00000   0.00000   0.00000   0.00000   0.00000   0.00000   0.00000   0.00000   0.00000
Generated with MDTraj, t= 46.0
 47
    1UNL     C1    1  -0.324   0.269   0.224
    1UNL     O1    2  -0.222   0.267   0.122
    1UNL     C2    3  -0.241   0.181   0.011
    1UNL     N1    4  -0.372   0.123   0.004
    1UNL     C3    5  -0.385   0.006  -0.039
    1UNL     C4    6  -0.271  -0.096  -0.075
    1UNL     C5    7  -0.152  -0.014  -0.134
    1UNL     C6    8  -0.029  -0.101  -0.168
    1UNL     C7    9   0.029  -0.160  -0.040
    1UNL     C8   10   0.162  -0.104  -0.016
    1UNL     N2   11   0.269  -0.129  -0.097
    1UNL     C9   12   0.367  -0.035  -0.066
    1UNL    C10   13   0.506  -0.037  -0.097
    1UNL    C11   14   0.587   0.062  -0.041
    1UNL    C12   15   0.536   0.152   0.058
    1UNL    C13   16   0.404   0.139   0.100
    1UNL    C14   17   0.324   0.047   0.036
    1UNL    C15   18   0.192   0.003   0.067
    1UNL    C16   19   0.076   0.062   0.153
    1UNL    C17   20  -0.065   0.018   0.108
    1UNL    C18   21  -0.119   0.086  -0.021
    1UNL     N3   22  -0.067  -0.136   0.078
    1UNL    C19   23  -0.211  -0.175   0.052
    1UNL    C20   24  -0.240  -0.323   0.049
    1UNL     H1   25  -0.342   0.373   0.255
    1UNL     H2   26  -0.280   0.211   0.309
    1UNL     H3   27  -0.415   0.223   0.178
    1UNL     H4   28  -0.228   0.253  -0.075
    1UNL     H5   29  -0.479  -0.045  -0.017
    1UNL     H6   30  -0.311  -0.174  -0.152
    1UNL     H7   31  -0.187   0.044  -0.219
    1UNL     H8   32  -0.062  -0.183  -0.245
    1UNL     H9   33   0.051  -0.040  -0.217
    1UNL    H10   34   0.041  -0.270  -0.051
    1UNL    H11   35   0.278  -0.211  -0.161
    1UNL    H12   36   0.531  -0.127  -0.151
    1UNL    H13   37   0.702   0.060  -0.054
    1UNL    H14   38   0.596   0.240   0.096
    1UNL    H15   39   0.361   0.217   0.169
    1UNL    H16   40   0.080   0.176   0.141
    1UNL    H17   41   0.084   0.056   0.258
    1UNL    H18   42  -0.137   0.040   0.186
    1UNL    H19   43  -0.030   0.138  -0.079
    1UNL    H20   44  -0.267  -0.125   0.134
    1UNL    H21   45  -0.220  -0.378   0.141
    1UNL    H22   46  -0.195  -0.384  -0.027
    1UNL    H23   47  -0.338  -0.346   0.038
   0.00000   0.00000   0.00000   0.00000   0.00000   0.00000   0.00000   0.00000   0.00000
Generated with MDTraj, t= 47.0
 47
    1UNL     C1    1  -0.334   0.304   0.193
    1UNL     O1    2  -0.216   0.250   0.137
    1UNL     C2    3  -0.247   0.177   0.019
    1UNL     N1    4  -0.370   0.109   0.030
    1UNL     C3    5  -0.380  -0.013   0.007
    1UNL     C4    6  -0.274  -0.093  -0.059
    1UNL     C5    7  -0.169  -0.009  -0.137
    1UNL     C6    8  -0.046  -0.095  -0.177
    1UNL     C7    9   0.018  -0.159  -0.058
    1UNL     C8   10   0.158  -0.104  -0.033
    1UNL     N2   11   0.279  -0.135  -0.092
    1UNL     C9   12   0.380  -0.052  -0.044
    1UNL    C10   13   0.513  -0.040  -0.086
    1UNL    C11   14   0.587   0.061  -0.032
    1UNL    C12   15   0.531   0.145   0.069
    1UNL    C13   16   0.399   0.129   0.107
    1UNL    C14   17   0.319   0.036   0.043
    1UNL    C15   18   0.181   0.004   0.052
    1UNL    C16   19   0.072   0.076   0.128
    1UNL    C17   20  -0.061   0.025   0.087
    1UNL    C18   21  -0.124   0.098  -0.036
    1UNL     N3   22  -0.060  -0.123   0.063
    1UNL    C19   23  -0.200  -0.171   0.053
    1UNL    C20   24  -0.205  -0.323   0.035
    1UNL     H1   25  -0.304   0.356   0.285
    1UNL     H2   26  -0.397   0.214   0.215
    1UNL     H3   27  -0.374   0.376   0.117
    1UNL     H4   28  -0.272   0.261  -0.053
    1UNL     H5   29  -0.470  -0.067   0.028
    1UNL     H6   30  -0.299  -0.167  -0.145
    1UNL     H7   31  -0.218   0.046  -0.217
    1UNL     H8   32  -0.071  -0.182  -0.252
    1UNL     H9   33   0.031  -0.035  -0.230
    1UNL    H10   34   0.019  -0.269  -0.069
    1UNL    H11   35   0.297  -0.198  -0.172
    1UNL    H12   36   0.546  -0.127  -0.143
    1UNL    H13   37   0.683   0.074  -0.061
    1UNL    H14   38   0.588   0.217   0.114
    1UNL    H15   39   0.355   0.194   0.176
    1UNL    H16   40   0.063   0.192   0.117
    1UNL    H17   41   0.076   0.073   0.233
    1UNL    H18   42  -0.128   0.047   0.170
    1UNL    H19   43  -0.049   0.175  -0.085
    1UNL    H20   44  -0.238  -0.138   0.153
    1UNL    H21   45  -0.130  -0.369   0.102
    1UNL    H22   46  -0.189  -0.351  -0.062
    1UNL    H23   47  -0.295  -0.366   0.071
   0.00000   0.00000   0.00000   0.00000   0.00000   0.00000   0.00000   0.00000   0.00000
Generated with MDTraj, t= 48.0
 47
    1UNL     C1    1  -0.314   0.350   0.174
    1UNL     O1    2  -0.234   0.233   0.148
    1UNL     C2    3  -0.268   0.168   0.026
    1UNL     N1    4  -0.380   0.089   0.053
    1UNL     C3    5  -0.376  -0.027   0.008
    1UNL     C4    6  -0.270  -0.103  -0.065
    1UNL     C5    7  -0.180  -0.007  -0.135
    1UNL     C6    8  -0.053  -0.084  -0.183
    1UNL     C7    9   0.022  -0.150  -0.065
    1UNL     C8   10   0.158  -0.085  -0.052
    1UNL     N2   11   0.279  -0.133  -0.101
    1UNL     C9   12   0.379  -0.055  -0.045
    1UNL    C10   13   0.515  -0.052  -0.072
    1UNL    C11   14   0.597   0.033  -0.004
    1UNL    C12   15   0.541   0.135   0.077
    1UNL    C13   16   0.407   0.145   0.098
    1UNL    C14   17   0.319   0.052   0.032
    1UNL    C15   18   0.180   0.020   0.031
    1UNL    C16   19   0.073   0.073   0.119
    1UNL    C17   20  -0.069   0.026   0.096
    1UNL    C18   21  -0.139   0.097  -0.024
    1UNL     N3   22  -0.061  -0.122   0.063
    1UNL    C19   23  -0.190  -0.177   0.054
    1UNL    C20   24  -0.188  -0.327   0.034
    1UNL     H1   25  -0.366   0.350   0.269
    1UNL     H2   26  -0.381   0.361   0.088
    1UNL     H3   27  -0.234   0.424   0.172
    1UNL     H4   28  -0.307   0.242  -0.048
    1UNL     H5   29  -0.468  -0.081   0.019
    1UNL     H6   30  -0.308  -0.179  -0.145
    1UNL     H7   31  -0.246   0.040  -0.209
    1UNL     H8   32  -0.076  -0.168  -0.259
    1UNL     H9   33   0.021  -0.020  -0.238
    1UNL    H10   34   0.034  -0.258  -0.074
    1UNL    H11   35   0.288  -0.221  -0.154
    1UNL    H12   36   0.555  -0.120  -0.141
    1UNL    H13   37   0.706   0.011  -0.020
    1UNL    H14   38   0.611   0.211   0.119
    1UNL    H15   39   0.369   0.216   0.173
    1UNL    H16   40   0.067   0.187   0.140
    1UNL    H17   41   0.087   0.040   0.218
    1UNL    H18   42  -0.122   0.038   0.192
    1UNL    H19   43  -0.065   0.170  -0.079
    1UNL    H20   44  -0.240  -0.158   0.150
    1UNL    H21   45  -0.125  -0.360   0.113
    1UNL    H22   46  -0.149  -0.335  -0.062
    1UNL    H23   47  -0.290  -0.361   0.048
   0.00000   0.00000   0.00000   0.00000   0.00000   0.00000   0.00000   0.00000   0.00000
Generated with MDTraj, t= 49.0
 47
    1UNL     C1    1  -0.337   0.347   0.172
    1UNL     O1    2  -0.229   0.263   0.133
    1UNL     C2    3  -0.268   0.169   0.029
    1UNL     N1    4  -0.386   0.088   0.067
    1UNL     C3    5  -0.386  -0.032   0.023
    1UNL     C4    6  -0.280  -0.108  -0.051
    1UNL     C5    7  -0.184  -0.011  -0.126
    1UNL     C6    8  -0.054  -0.084  -0.184
    1UNL     C7    9   0.027  -0.147  -0.071
    1UNL     C8   10   0.163  -0.078  -0.055
    1UNL     N2   11   0.280  -0.122  -0.114
    1UNL     C9   12   0.388  -0.052  -0.059
    1UNL    C10   13   0.527  -0.058  -0.071
    1UNL    C11   14   0.600   0.024   0.011
    1UNL    C12   15   0.542   0.119   0.093
    1UNL    C13   16   0.406   0.138   0.102
    1UNL    C14   17   0.326   0.051   0.019
    1UNL    C15   18   0.185   0.031   0.030
    1UNL    C16   19   0.079   0.083   0.122
    1UNL    C17   20  -0.060   0.026   0.084
    1UNL    C18   21  -0.146   0.098  -0.026
    1UNL     N3   22  -0.057  -0.124   0.049
    1UNL    C19   23  -0.193  -0.187   0.054
    1UNL    C20   24  -0.190  -0.337   0.038
    1UNL     H1   25  -0.428   0.296   0.200
    1UNL     H2   26  -0.355   0.413   0.088
    1UNL     H3   27  -0.299   0.405   0.253
    1UNL     H4   28  -0.302   0.235  -0.052
    1UNL     H5   29  -0.464  -0.097   0.061
    1UNL     H6   30  -0.325  -0.180  -0.127
    1UNL     H7   31  -0.251   0.030  -0.202
    1UNL     H8   32  -0.083  -0.165  -0.258
    1UNL     H9   33   0.018  -0.019  -0.244
    1UNL    H10   34   0.040  -0.256  -0.082
    1UNL    H11   35   0.293  -0.209  -0.165
    1UNL    H12   36   0.578  -0.119  -0.148
    1UNL    H13   37   0.709   0.024   0.017
    1UNL    H14   38   0.611   0.183   0.142
    1UNL    H15   39   0.362   0.208   0.174
    1UNL    H16   40   0.067   0.197   0.123
    1UNL    H17   41   0.098   0.058   0.223
    1UNL    H18   42  -0.112   0.029   0.181
    1UNL    H19   43  -0.083   0.171  -0.094
    1UNL    H20   44  -0.240  -0.162   0.151
    1UNL    H21   45  -0.160  -0.378   0.126
    1UNL    H22   46  -0.125  -0.358  -0.044
    1UNL    H23   47  -0.289  -0.378   0.014
   0.00000   0.00000   0.00000   0.00000   0.00000   0.00000   0.00000   0.00000   0.00000
Generated with MDTraj, t= 50.0
 47
    1UNL     C1    1  -0.336   0.333   0.195
    1UNL     O1    2  -0.236   0.282   0.111
    1UNL     C2    3  -0.271   0.171   0.012
    1UNL     N1    4  -0.378   0.094   0.055
    1UNL     C3    5  -0.375  -0.029   0.017
    1UNL     C4    6  -0.271  -0.113  -0.050
    1UNL     C5    7  -0.185  -0.015  -0.132
    1UNL     C6    8  -0.063  -0.081  -0.183
    1UNL     C7    9   0.022  -0.135  -0.068
    1UNL     C8   10   0.158  -0.080  -0.054
    1UNL     N2   11   0.279  -0.127  -0.114
    1UNL     C9   12   0.378  -0.053  -0.055
    1UNL    C10   13   0.516  -0.054  -0.077
    1UNL    C11   14   0.592   0.036  -0.007
    1UNL    C12   15   0.538   0.115   0.090
    1UNL    C13   16   0.409   0.110   0.121
    1UNL    C14   17   0.323   0.033   0.041
    1UNL    C15   18   0.184   0.017   0.043
    1UNL    C16   19   0.073   0.095   0.113
    1UNL    C17   20  -0.067   0.035   0.091
    1UNL    C18   21  -0.144   0.095  -0.031
    1UNL     N3   22  -0.044  -0.114   0.062
    1UNL    C19   23  -0.183  -0.191   0.055
    1UNL    C20   24  -0.173  -0.339   0.044
    1UNL     H1   25  -0.433   0.287   0.189
    1UNL     H2   26  -0.340   0.441   0.181
    1UNL     H3   27  -0.299   0.318   0.294
    1UNL     H4   28  -0.312   0.227  -0.072
    1UNL     H5   29  -0.452  -0.090   0.058
    1UNL     H6   30  -0.306  -0.189  -0.128
    1UNL     H7   31  -0.245   0.028  -0.214
    1UNL     H8   32  -0.076  -0.159  -0.264
    1UNL     H9   33   0.003  -0.002  -0.235
    1UNL    H10   34   0.032  -0.243  -0.085
    1UNL    H11   35   0.298  -0.183  -0.197
    1UNL    H12   36   0.568  -0.123  -0.137
    1UNL    H13   37   0.694   0.039  -0.026
    1UNL    H14   38   0.598   0.186   0.147
    1UNL    H15   39   0.369   0.185   0.184
    1UNL    H16   40   0.075   0.198   0.072
    1UNL    H17   41   0.099   0.098   0.218
    1UNL    H18   42  -0.128   0.052   0.182
    1UNL    H19   43  -0.085   0.179  -0.089
    1UNL    H20   44  -0.227  -0.162   0.149
    1UNL    H21   45  -0.082  -0.379   0.068
    1UNL    H22   46  -0.193  -0.373  -0.057
    1UNL    H23   47  -0.242  -0.401   0.096
   0.00000   0.00000   0.00000   0.00000   0.00000   0.00000   0.00000   0.00000   0.00000
Generated with MDTraj, t= 51.0
 47
    1UNL     C1    1  -0.339   0.319   0.189
    1UNL     O1    2  -0.222   0.263   0.140
    1UNL     C2    3  -0.252   0.164   0.027
    1UNL     N1    4  -0.366   0.093   0.042
    1UNL     C3    5  -0.376  -0.028   0.000
    1UNL     C4    6  -0.263  -0.107  -0.056
    1UNL     C5    7  -0.170  -0.007  -0.133
    1UNL     C6    8  -0.056  -0.097  -0.181
    1UNL     C7    9   0.019  -0.154  -0.054
    1UNL     C8   10   0.153  -0.082  -0.050
    1UNL     N2   11   0.270  -0.115  -0.114
    1UNL     C9   12   0.376  -0.038  -0.059
    1UNL    C10   13   0.517  -0.053  -0.069
    1UNL    C11   14   0.601   0.035  -0.005
    1UNL    C12   15   0.545   0.125   0.083
    1UNL    C13   16   0.414   0.135   0.101
    1UNL    C14   17   0.321   0.052   0.034
    1UNL    C15   18   0.176   0.030   0.027
    1UNL    C16   19   0.073   0.095   0.113
    1UNL    C17   20  -0.062   0.024   0.087
    1UNL    C18   21  -0.124   0.092  -0.026
    1UNL     N3   22  -0.059  -0.127   0.067
    1UNL    C19   23  -0.201  -0.186   0.061
    1UNL    C20   24  -0.222  -0.330   0.042
    1UNL     H1   25  -0.431   0.298   0.133
    1UNL     H2   26  -0.330   0.426   0.212
    1UNL     H3   27  -0.356   0.269   0.285
    1UNL     H4   28  -0.281   0.222  -0.061
    1UNL     H5   29  -0.473  -0.073   0.025
    1UNL     H6   30  -0.306  -0.181  -0.130
    1UNL     H7   31  -0.228   0.039  -0.215
    1UNL     H8   32  -0.100  -0.179  -0.242
    1UNL     H9   33   0.019  -0.046  -0.254
    1UNL    H10   34   0.041  -0.263  -0.059
    1UNL    H11   35   0.292  -0.199  -0.166
    1UNL    H12   36   0.563  -0.142  -0.116
    1UNL    H13   37   0.717   0.026  -0.000
    1UNL    H14   38   0.614   0.197   0.124
    1UNL    H15   39   0.373   0.227   0.153
    1UNL    H16   40   0.072   0.200   0.088
    1UNL    H17   41   0.110   0.081   0.218
    1UNL    H18   42  -0.123   0.040   0.179
    1UNL    H19   43  -0.054   0.163  -0.087
    1UNL    H20   44  -0.253  -0.152   0.150
    1UNL    H21   45  -0.165  -0.377   0.122
    1UNL    H22   46  -0.177  -0.360  -0.052
    1UNL    H23   47  -0.319  -0.361   0.042
   0.00000   0.00000   0.00000   0.00000   0.00000   0.00000   0.00000   0.00000   0.00000
Generated with MDTraj, t= 52.0
 47
    1UNL     C1    1  -0.323   0.315   0.200
    1UNL     O1    2  -0.225   0.235   0.153
    1UNL     C2    3  -0.247   0.180   0.015
    1UNL     N1    4  -0.373   0.116   0.018
    1UNL     C3    5  -0.380  -0.010  -0.014
    1UNL     C4    6  -0.272  -0.105  -0.061
    1UNL     C5    7  -0.174  -0.010  -0.129
    1UNL     C6    8  -0.051  -0.089  -0.175
    1UNL     C7    9   0.024  -0.151  -0.055
    1UNL     C8   10   0.164  -0.099  -0.039
    1UNL     N2   11   0.279  -0.145  -0.095
    1UNL     C9   12   0.378  -0.063  -0.046
    1UNL    C10   13   0.516  -0.048  -0.076
    1UNL    C11   14   0.586   0.059  -0.026
    1UNL    C12   15   0.528   0.152   0.060
    1UNL    C13   16   0.396   0.145   0.095
    1UNL    C14   17   0.320   0.038   0.039
    1UNL    C15   18   0.182   0.012   0.043
    1UNL    C16   19   0.078   0.080   0.127
    1UNL    C17   20  -0.063   0.022   0.091
    1UNL    C18   21  -0.125   0.096  -0.029
    1UNL     N3   22  -0.064  -0.120   0.062
    1UNL    C19   23  -0.199  -0.180   0.057
    1UNL    C20   24  -0.204  -0.335   0.047
    1UNL     H1   25  -0.314   0.423   0.174
    1UNL     H2   26  -0.335   0.306   0.310
    1UNL     H3   27  -0.418   0.281   0.152
    1UNL     H4   28  -0.248   0.271  -0.045
    1UNL     H5   29  -0.479  -0.050  -0.008
    1UNL     H6   30  -0.320  -0.178  -0.133
    1UNL     H7   31  -0.225   0.048  -0.208
    1UNL     H8   32  -0.082  -0.163  -0.251
    1UNL     H9   33   0.015  -0.008  -0.225
    1UNL    H10   34   0.022  -0.262  -0.055
    1UNL    H11   35   0.283  -0.230  -0.149
    1UNL    H12   36   0.567  -0.127  -0.129
    1UNL    H13   37   0.684   0.069  -0.049
    1UNL    H14   38   0.588   0.229   0.103
    1UNL    H15   39   0.347   0.213   0.154
    1UNL    H16   40   0.091   0.181   0.102
    1UNL    H17   41   0.117   0.063   0.233
    1UNL    H18   42  -0.121   0.040   0.185
    1UNL    H19   43  -0.055   0.174  -0.078
    1UNL    H20   44  -0.250  -0.157   0.150
    1UNL    H21   45  -0.138  -0.367   0.130
    1UNL    H22   46  -0.167  -0.353  -0.050
    1UNL    H23   47  -0.298  -0.372   0.059
   0.00000   0.00000   0.00000   0.00000   0.00000   0.00000   0.00000   0.00000   0.00000
Generated with MDTraj, t= 53.0
 47
    1UNL     C1    1  -0.327   0.303   0.198
    1UNL     O1    2  -0.219   0.245   0.138
    1UNL     C2    3  -0.255   0.174   0.023
    1UNL     N1    4  -0.379   0.112   0.020
    1UNL     C3    5  -0.386  -0.007  -0.033
    1UNL     C4    6  -0.273  -0.094  -0.074
    1UNL     C5    7  -0.159  -0.011  -0.130
    1UNL     C6    8  -0.030  -0.088  -0.164
    1UNL     C7    9   0.024  -0.155  -0.037
    1UNL     C8   10   0.167  -0.108  -0.009
    1UNL     N2   11   0.281  -0.148  -0.075
    1UNL     C9   12   0.383  -0.057  -0.054
    1UNL    C10   13   0.513  -0.037  -0.101
    1UNL    C11   14   0.588   0.062  -0.044
    1UNL    C12   15   0.531   0.158   0.042
    1UNL    C13   16   0.401   0.140   0.082
    1UNL    C14   17   0.326   0.038   0.031
    1UNL    C15   18   0.189   0.004   0.065
    1UNL    C16   19   0.079   0.071   0.146
    1UNL    C17   20  -0.068   0.024   0.105
    1UNL    C18   21  -0.133   0.096  -0.021
    1UNL     N3   22  -0.073  -0.123   0.074
    1UNL    C19   23  -0.214  -0.168   0.045
    1UNL    C20   24  -0.214  -0.328   0.037
    1UNL     H1   25  -0.324   0.318   0.309
    1UNL     H2   26  -0.405   0.224   0.188
    1UNL     H3   27  -0.364   0.394   0.147
    1UNL     H4   28  -0.268   0.254  -0.055
    1UNL     H5   29  -0.490  -0.044  -0.039
    1UNL     H6   30  -0.299  -0.169  -0.153
    1UNL     H7   31  -0.183   0.030  -0.230
    1UNL     H8   32  -0.048  -0.154  -0.254
    1UNL     H9   33   0.052  -0.013  -0.191
    1UNL    H10   34   0.035  -0.264  -0.056
    1UNL    H11   35   0.272  -0.221  -0.143
    1UNL    H12   36   0.554  -0.096  -0.179
    1UNL    H13   37   0.693   0.073  -0.081
    1UNL    H14   38   0.591   0.242   0.078
    1UNL    H15   39   0.360   0.195   0.171
    1UNL    H16   40   0.097   0.172   0.152
    1UNL    H17   41   0.107   0.034   0.252
    1UNL    H18   42  -0.130   0.044   0.196
    1UNL    H19   43  -0.054   0.166  -0.064
    1UNL    H20   44  -0.269  -0.147   0.138
    1UNL    H21   45  -0.165  -0.363   0.127
    1UNL    H22   46  -0.168  -0.358  -0.049
    1UNL    H23   47  -0.316  -0.363   0.033
   0.00000   0.00000   0.00000   0.00000   0.00000   0.00000   0.00000   0.00000   0.00000
Generated with MDTraj, t= 54.0
 47
    1UNL     C1    1  -0.343   0.301   0.181
    1UNL     O1    2  -0.220   0.240   0.142
    1UNL     C2    3  -0.240   0.181   0.013
    1UNL     N1    4  -0.366   0.122   0.005
    1UNL     C3    5  -0.380  -0.003  -0.019
    1UNL     C4    6  -0.272  -0.094  -0.066
    1UNL     C5    7  -0.158  -0.006  -0.126
    1UNL     C6    8  -0.043  -0.094  -0.160
    1UNL     C7    9   0.016  -0.165  -0.031
    1UNL     C8   10   0.160  -0.110  -0.022
    1UNL     N2   11   0.278  -0.135  -0.093
    1UNL     C9   12   0.381  -0.052  -0.049
    1UNL    C10   13   0.512  -0.036  -0.101
    1UNL    C11   14   0.589   0.070  -0.053
    1UNL    C12   15   0.531   0.160   0.042
    1UNL    C13   16   0.400   0.144   0.091
    1UNL    C14   17   0.322   0.038   0.043
    1UNL    C15   18   0.186  -0.008   0.064
    1UNL    C16   19   0.077   0.055   0.148
    1UNL    C17   20  -0.061   0.013   0.106
    1UNL    C18   21  -0.112   0.092  -0.022
    1UNL     N3   22  -0.070  -0.129   0.085
    1UNL    C19   23  -0.216  -0.168   0.058
    1UNL    C20   24  -0.210  -0.320   0.038
    1UNL     H1   25  -0.388   0.244   0.263
    1UNL     H2   26  -0.418   0.287   0.103
    1UNL     H3   27  -0.337   0.407   0.206
    1UNL     H4   28  -0.249   0.272  -0.054
    1UNL     H5   29  -0.483  -0.025  -0.011
    1UNL     H6   30  -0.310  -0.168  -0.142
    1UNL     H7   31  -0.202   0.054  -0.209
    1UNL     H8   32  -0.085  -0.180  -0.219
    1UNL     H9   33   0.034  -0.032  -0.215
    1UNL    H10   34   0.026  -0.275  -0.046
    1UNL    H11   35   0.285  -0.209  -0.161
    1UNL    H12   36   0.538  -0.086  -0.198
    1UNL    H13   37   0.689   0.094  -0.091
    1UNL    H14   38   0.584   0.247   0.074
    1UNL    H15   39   0.367   0.204   0.171
    1UNL    H16   40   0.088   0.158   0.150
    1UNL    H17   41   0.094   0.026   0.258
    1UNL    H18   42  -0.139   0.039   0.181
    1UNL    H19   43  -0.029   0.161  -0.055
    1UNL    H20   44  -0.282  -0.137   0.141
    1UNL    H21   45  -0.175  -0.382   0.113
    1UNL    H22   46  -0.167  -0.353  -0.051
    1UNL    H23   47  -0.313  -0.356   0.016
   0.00000   0.00000   0.00000   0.00000   0.00000   0.00000   0.00000   0.00000   0.00000
Generated with MDTraj, t= 55.0
 47
    1UNL     C1    1  -0.297   0.325   0.180
    1UNL     O1    2  -0.205   0.223   0.148
    1UNL     C2    3  -0.240   0.172   0.024
    1UNL     N1    4  -0.369   0.103   0.025
    1UNL     C3    5  -0.378  -0.012  -0.025
    1UNL     C4    6  -0.268  -0.098  -0.066
    1UNL     C5    7  -0.160  -0.015  -0.140
    1UNL     C6    8  -0.037  -0.101  -0.178
    1UNL     C7    9   0.020  -0.162  -0.045
    1UNL     C8   10   0.156  -0.111  -0.024
    1UNL     N2   11   0.266  -0.135  -0.099
    1UNL     C9   12   0.362  -0.047  -0.052
    1UNL    C10   13   0.500  -0.027  -0.091
    1UNL    C11   14   0.581   0.076  -0.042
    1UNL    C12   15   0.528   0.161   0.059
    1UNL    C13   16   0.396   0.139   0.102
    1UNL    C14   17   0.313   0.038   0.046
    1UNL    C15   18   0.179  -0.002   0.059
    1UNL    C16   19   0.076   0.076   0.131
    1UNL    C17   20  -0.065   0.020   0.100
    1UNL    C18   21  -0.119   0.091  -0.033
    1UNL     N3   22  -0.068  -0.125   0.072
    1UNL    C19   23  -0.206  -0.169   0.056
    1UNL    C20   24  -0.215  -0.323   0.060
    1UNL     H1   25  -0.379   0.317   0.111
    1UNL     H2   26  -0.252   0.422   0.175
    1UNL     H3   27  -0.330   0.303   0.281
    1UNL     H4   28  -0.253   0.259  -0.047
    1UNL     H5   29  -0.478  -0.056  -0.008
    1UNL     H6   30  -0.310  -0.181  -0.129
    1UNL     H7   31  -0.208   0.030  -0.229
    1UNL     H8   32  -0.066  -0.183  -0.250
    1UNL     H9   33   0.039  -0.028  -0.216
    1UNL    H10   34   0.024  -0.274  -0.043
    1UNL    H11   35   0.280  -0.202  -0.174
    1UNL    H12   36   0.535  -0.094  -0.159
    1UNL    H13   37   0.678   0.093  -0.078
    1UNL    H14   38   0.584   0.236   0.113
    1UNL    H15   39   0.351   0.211   0.169
    1UNL    H16   40   0.079   0.182   0.114
    1UNL    H17   41   0.094   0.070   0.242
    1UNL    H18   42  -0.142   0.036   0.179
    1UNL    H19   43  -0.030   0.148  -0.072
    1UNL    H20   44  -0.274  -0.126   0.134
    1UNL    H21   45  -0.170  -0.367   0.139
    1UNL    H22   46  -0.188  -0.383  -0.025
    1UNL    H23   47  -0.322  -0.351   0.065
   0.00000   0.00000   0.00000   0.00000   0.00000   0.00000   0.00000   0.00000   0.00000
Generated with MDTraj, t= 56.0
 47
    1UNL     C1    1  -0.327   0.343   0.167
    1UNL     O1    2  -0.214   0.267   0.127
    1UNL     C2    3  -0.237   0.181   0.018
    1UNL     N1    4  -0.363   0.113   0.043
    1UNL     C3    5  -0.380  -0.009   0.017
    1UNL     C4    6  -0.287  -0.102  -0.049
    1UNL     C5    7  -0.174  -0.023  -0.124
    1UNL     C6    8  -0.051  -0.104  -0.174
    1UNL     C7    9   0.029  -0.159  -0.052
    1UNL     C8   10   0.162  -0.095  -0.029
    1UNL     N2   11   0.281  -0.127  -0.093
    1UNL     C9   12   0.380  -0.038  -0.068
    1UNL    C10   13   0.517  -0.040  -0.087
    1UNL    C11   14   0.586   0.062  -0.029
    1UNL    C12   15   0.525   0.154   0.065
    1UNL    C13   16   0.394   0.143   0.100
    1UNL    C14   17   0.322   0.045   0.033
    1UNL    C15   18   0.184   0.016   0.045
    1UNL    C16   19   0.080   0.069   0.135
    1UNL    C17   20  -0.064   0.003   0.098
    1UNL    C18   21  -0.124   0.085  -0.024
    1UNL     N3   22  -0.060  -0.143   0.068
    1UNL    C19   23  -0.207  -0.191   0.058
    1UNL    C20   24  -0.220  -0.348   0.030
    1UNL     H1   25  -0.309   0.440   0.124
    1UNL     H2   26  -0.325   0.340   0.273
    1UNL     H3   27  -0.419   0.298   0.129
    1UNL     H4   28  -0.252   0.249  -0.069
    1UNL     H5   29  -0.472  -0.057   0.036
    1UNL     H6   30  -0.338  -0.165  -0.127
    1UNL     H7   31  -0.210   0.031  -0.214
    1UNL     H8   32  -0.098  -0.187  -0.237
    1UNL     H9   33   0.018  -0.040  -0.233
    1UNL    H10   34   0.049  -0.269  -0.069
    1UNL    H11   35   0.287  -0.201  -0.165
    1UNL    H12   36   0.561  -0.134  -0.131
    1UNL    H13   37   0.700   0.059  -0.035
    1UNL    H14   38   0.588   0.228   0.112
    1UNL    H15   39   0.338   0.213   0.163
    1UNL    H16   40   0.069   0.183   0.136
    1UNL    H17   41   0.097   0.049   0.243
    1UNL    H18   42  -0.144   0.001   0.173
    1UNL    H19   43  -0.038   0.146  -0.062
    1UNL    H20   44  -0.256  -0.179   0.158
    1UNL    H21   45  -0.153  -0.404   0.092
    1UNL    H22   46  -0.199  -0.365  -0.075
    1UNL    H23   47  -0.322  -0.375   0.039
   0.00000   0.00000   0.00000   0.00000   0.00000   0.00000   0.00000   0.00000   0.00000
Generated with MDTraj, t= 57.0
 47
    1UNL     C1    1  -0.322   0.370   0.158
    1UNL     O1    2  -0.216   0.293   0.095
    1UNL     C2    3  -0.264   0.175   0.026
    1UNL     N1    4  -0.360   0.088   0.076
    1UNL     C3    5  -0.374  -0.028   0.030
    1UNL     C4    6  -0.273  -0.117  -0.052
    1UNL     C5    7  -0.178  -0.016  -0.126
    1UNL     C6    8  -0.049  -0.083  -0.180
    1UNL     C7    9   0.020  -0.154  -0.058
    1UNL     C8   10   0.154  -0.094  -0.036
    1UNL     N2   11   0.273  -0.129  -0.104
    1UNL     C9   12   0.373  -0.047  -0.052
    1UNL    C10   13   0.509  -0.043  -0.083
    1UNL    C11   14   0.587   0.052  -0.033
    1UNL    C12   15   0.537   0.140   0.068
    1UNL    C13   16   0.404   0.136   0.105
    1UNL    C14   17   0.316   0.039   0.044
    1UNL    C15   18   0.177   0.009   0.050
    1UNL    C16   19   0.074   0.073   0.133
    1UNL    C17   20  -0.077   0.017   0.099
    1UNL    C18   21  -0.144   0.090  -0.021
    1UNL     N3   22  -0.058  -0.130   0.071
    1UNL    C19   23  -0.188  -0.199   0.050
    1UNL    C20   24  -0.177  -0.351   0.022
    1UNL     H1   25  -0.296   0.367   0.264
    1UNL     H2   26  -0.417   0.323   0.132
    1UNL     H3   27  -0.305   0.474   0.123
    1UNL     H4   28  -0.314   0.223  -0.059
    1UNL     H5   29  -0.470  -0.081   0.047
    1UNL     H6   30  -0.327  -0.180  -0.128
    1UNL     H7   31  -0.237   0.025  -0.210
    1UNL     H8   32  -0.081  -0.166  -0.252
    1UNL     H9   33   0.005  -0.002  -0.230
    1UNL    H10   34   0.034  -0.266  -0.077
    1UNL    H11   35   0.285  -0.219  -0.153
    1UNL    H12   36   0.543  -0.120  -0.146
    1UNL    H13   37   0.685   0.052  -0.063
    1UNL    H14   38   0.604   0.212   0.114
    1UNL    H15   39   0.362   0.192   0.183
    1UNL    H16   40   0.074   0.191   0.119
    1UNL    H17   41   0.095   0.060   0.239
    1UNL    H18   42  -0.154   0.014   0.177
    1UNL    H19   43  -0.061   0.158  -0.052
    1UNL    H20   44  -0.240  -0.194   0.149
    1UNL    H21   45  -0.108  -0.384   0.107
    1UNL    H22   46  -0.135  -0.374  -0.074
    1UNL    H23   47  -0.274  -0.385   0.027
   0.00000   0.00000   0.00000   0.00000   0.00000   0.00000   0.00000   0.00000   0.00000
Generated with MDTraj, t= 58.0
 47
    1UNL     C1    1  -0.339   0.361   0.158
    1UNL     O1    2  -0.228   0.271   0.123
    1UNL     C2    3  -0.258   0.177   0.017
    1UNL     N1    4  -0.368   0.091   0.057
    1UNL     C3    5  -0.385  -0.027   0.023
    1UNL     C4    6  -0.274  -0.108  -0.041
    1UNL     C5    7  -0.175  -0.018  -0.121
    1UNL     C6    8  -0.066  -0.111  -0.173
    1UNL     C7    9   0.024  -0.159  -0.056
    1UNL     C8   10   0.156  -0.090  -0.058
    1UNL     N2   11   0.275  -0.121  -0.121
    1UNL     C9   12   0.380  -0.043  -0.063
    1UNL    C10   13   0.523  -0.036  -0.084
    1UNL    C11   14   0.602   0.047  -0.006
    1UNL    C12   15   0.540   0.134   0.084
    1UNL    C13   16   0.404   0.130   0.104
    1UNL    C14   17   0.320   0.045   0.028
    1UNL    C15   18   0.180   0.016   0.028
    1UNL    C16   19   0.082   0.073   0.117
    1UNL    C17   20  -0.059   0.015   0.093
    1UNL    C18   21  -0.126   0.094  -0.022
    1UNL     N3   22  -0.057  -0.131   0.073
    1UNL    C19   23  -0.199  -0.187   0.073
    1UNL    C20   24  -0.196  -0.333   0.043
    1UNL     H1   25  -0.426   0.318   0.106
    1UNL     H2   26  -0.315   0.456   0.106
    1UNL     H3   27  -0.354   0.360   0.271
    1UNL     H4   28  -0.290   0.240  -0.065
    1UNL     H5   29  -0.473  -0.078   0.050
    1UNL     H6   30  -0.320  -0.185  -0.109
    1UNL     H7   31  -0.235   0.019  -0.206
    1UNL     H8   32  -0.112  -0.187  -0.246
    1UNL     H9   33  -0.011  -0.041  -0.235
    1UNL    H10   34   0.034  -0.272  -0.048
    1UNL    H11   35   0.290  -0.193  -0.194
    1UNL    H12   36   0.567  -0.088  -0.167
    1UNL    H13   37   0.709   0.072  -0.029
    1UNL    H14   38   0.600   0.202   0.141
    1UNL    H15   39   0.365   0.187   0.194
    1UNL    H16   40   0.076   0.189   0.094
    1UNL    H17   41   0.110   0.065   0.223
    1UNL    H18   42  -0.126   0.022   0.178
    1UNL    H19   43  -0.044   0.154  -0.069
    1UNL    H20   44  -0.243  -0.166   0.173
    1UNL    H21   45  -0.129  -0.376   0.124
    1UNL    H22   46  -0.160  -0.361  -0.054
    1UNL    H23   47  -0.290  -0.376   0.041
   0.00000   0.00000   0.00000   0.00000   0.00000   0.00000   0.00000   0.00000   0.00000
Generated with MDTraj, t= 59.0
 47
    1UNL     C1    1  -0.317   0.330   0.172
    1UNL     O1    2  -0.216   0.241   0.138
    1UNL     C2    3  -0.257   0.169   0.019
    1UNL     N1    4  -0.380   0.090   0.037
    1UNL     C3    5  -0.386  -0.032   0.006
    1UNL     C4    6  -0.274  -0.113  -0.056
    1UNL     C5    7  -0.177  -0.024  -0.141
    1UNL     C6    8  -0.051  -0.101  -0.178
    1UNL     C7    9   0.028  -0.143  -0.051
    1UNL     C8   10   0.154  -0.074  -0.045
    1UNL     N2   11   0.269  -0.125  -0.105
    1UNL     C9   12   0.375  -0.047  -0.057
    1UNL    C10   13   0.512  -0.055  -0.084
    1UNL    C11   14   0.591   0.038  -0.016
    1UNL    C12   15   0.538   0.132   0.067
    1UNL    C13   16   0.407   0.138   0.095
    1UNL    C14   17   0.322   0.050   0.032
    1UNL    C15   18   0.182   0.027   0.042
    1UNL    C16   19   0.078   0.095   0.127
    1UNL    C17   20  -0.064   0.036   0.095
    1UNL    C18   21  -0.142   0.090  -0.032
    1UNL     N3   22  -0.054  -0.115   0.074
    1UNL    C19   23  -0.193  -0.179   0.063
    1UNL    C20   24  -0.198  -0.326   0.067
    1UNL     H1   25  -0.303   0.413   0.101
    1UNL     H2   26  -0.301   0.372   0.273
    1UNL     H3   27  -0.416   0.276   0.157
    1UNL     H4   28  -0.278   0.253  -0.046
    1UNL     H5   29  -0.472  -0.094   0.034
    1UNL     H6   30  -0.314  -0.196  -0.118
    1UNL     H7   31  -0.210   0.034  -0.230
    1UNL     H8   32  -0.089  -0.193  -0.233
    1UNL     H9   33  -0.001  -0.047  -0.257
    1UNL    H10   34   0.055  -0.254  -0.057
    1UNL    H11   35   0.280  -0.190  -0.186
    1UNL    H12   36   0.557  -0.107  -0.174
    1UNL    H13   37   0.694   0.044  -0.040
    1UNL    H14   38   0.601   0.207   0.114
    1UNL    H15   39   0.376   0.203   0.169
    1UNL    H16   40   0.084   0.207   0.115
    1UNL    H17   41   0.111   0.070   0.231
    1UNL    H18   42  -0.131   0.046   0.180
    1UNL    H19   43  -0.077   0.167  -0.079
    1UNL    H20   44  -0.239  -0.139   0.154
    1UNL    H21   45  -0.135  -0.376   0.142
    1UNL    H22   46  -0.197  -0.382  -0.023
    1UNL    H23   47  -0.303  -0.352   0.094
   0.00000   0.00000   0.00000   0.00000   0.00000   0.00000   0.00000   0.00000   0.00000
Generated with MDTraj, t= 60.0
 47
    1UNL     C1    1  -0.348   0.292   0.198
    1UNL     O1    2  -0.234   0.246   0.131
    1UNL     C2    3  -0.263   0.184   0.005
    1UNL     N1    4  -0.383   0.107   0.023
    1UNL     C3    5  -0.386  -0.017   0.008
    1UNL     C4    6  -0.271  -0.098  -0.045
    1UNL     C5    7  -0.172  -0.010  -0.129
    1UNL     C6    8  -0.044  -0.085  -0.175
    1UNL     C7    9   0.022  -0.151  -0.049
    1UNL     C8   10   0.164  -0.105  -0.025
    1UNL     N2   11   0.282  -0.153  -0.080
    1UNL     C9   12   0.389  -0.063  -0.056
    1UNL    C10   13   0.523  -0.053  -0.083
    1UNL    C11   14   0.590   0.050  -0.027
    1UNL    C12   15   0.531   0.143   0.052
    1UNL    C13   16   0.398   0.146   0.072
    1UNL    C14   17   0.327   0.037   0.026
    1UNL    C15   18   0.187   0.015   0.037
    1UNL    C16   19   0.084   0.095   0.114
    1UNL    C17   20  -0.052   0.036   0.091
    1UNL    C18   21  -0.134   0.101  -0.030
    1UNL     N3   22  -0.053  -0.113   0.075
    1UNL    C19   23  -0.198  -0.174   0.071
    1UNL    C20   24  -0.201  -0.330   0.060
    1UNL     H1   25  -0.313   0.314   0.298
    1UNL     H2   26  -0.429   0.219   0.204
    1UNL     H3   27  -0.389   0.382   0.148
    1UNL     H4   28  -0.289   0.260  -0.070
    1UNL     H5   29  -0.480  -0.063   0.023
    1UNL     H6   30  -0.319  -0.171  -0.114
    1UNL     H7   31  -0.224   0.029  -0.217
    1UNL     H8   32  -0.069  -0.152  -0.263
    1UNL     H9   33   0.023  -0.017  -0.224
    1UNL    H10   34   0.031  -0.265  -0.048
    1UNL    H11   35   0.295  -0.250  -0.113
    1UNL    H12   36   0.569  -0.116  -0.150
    1UNL    H13   37   0.698   0.057  -0.044
    1UNL    H14   38   0.594   0.214   0.099
    1UNL    H15   39   0.348   0.233   0.120
    1UNL    H16   40   0.088   0.199   0.081
    1UNL    H17   41   0.114   0.093   0.225
    1UNL    H18   42  -0.112   0.056   0.182
    1UNL    H19   43  -0.057   0.159  -0.085
    1UNL    H20   44  -0.247  -0.137   0.161
    1UNL    H21   45  -0.151  -0.375   0.142
    1UNL    H22   46  -0.171  -0.367  -0.037
    1UNL    H23   47  -0.310  -0.365   0.064
   0.00000   0.00000   0.00000   0.00000   0.00000   0.00000   0.00000   0.00000   0.00000
Generated with MDTraj, t= 61.0
 47
    1UNL     C1    1  -0.347   0.278   0.208
    1UNL     O1    2  -0.231   0.237   0.145
    1UNL     C2    3  -0.262   0.178   0.012
    1UNL     N1    4  -0.386   0.099   0.006
    1UNL     C3    5  -0.391  -0.024  -0.030
    1UNL     C4    6  -0.270  -0.103  -0.061
    1UNL     C5    7  -0.169  -0.009  -0.129
    1UNL     C6    8  -0.042  -0.091  -0.165
    1UNL     C7    9   0.021  -0.151  -0.039
    1UNL     C8   10   0.164  -0.103  -0.020
    1UNL     N2   11   0.281  -0.146  -0.075
    1UNL     C9   12   0.379  -0.055  -0.046
    1UNL    C10   13   0.517  -0.058  -0.075
    1UNL    C11   14   0.601   0.039  -0.044
    1UNL    C12   15   0.553   0.150   0.022
    1UNL    C13   16   0.423   0.165   0.058
    1UNL    C14   17   0.333   0.048   0.036
    1UNL    C15   18   0.191   0.020   0.046
    1UNL    C16   19   0.076   0.091   0.119
    1UNL    C17   20  -0.065   0.030   0.100
    1UNL    C18   21  -0.130   0.105  -0.030
    1UNL     N3   22  -0.066  -0.120   0.082
    1UNL    C19   23  -0.207  -0.164   0.067
    1UNL    C20   24  -0.212  -0.312   0.068
    1UNL     H1   25  -0.407   0.195   0.237
    1UNL     H2   26  -0.407   0.350   0.154
    1UNL     H3   27  -0.324   0.334   0.297
    1UNL     H4   28  -0.289   0.267  -0.050
    1UNL     H5   29  -0.489  -0.068  -0.042
    1UNL     H6   30  -0.302  -0.186  -0.129
    1UNL     H7   31  -0.226   0.032  -0.213
    1UNL     H8   32  -0.072  -0.172  -0.235
    1UNL     H9   33   0.025  -0.034  -0.227
    1UNL    H10   34   0.026  -0.266  -0.040
    1UNL    H11   35   0.281  -0.231  -0.132
    1UNL    H12   36   0.567  -0.153  -0.109
    1UNL    H13   37   0.707   0.031  -0.064
    1UNL    H14   38   0.635   0.214   0.059
    1UNL    H15   39   0.381   0.254   0.099
    1UNL    H16   40   0.074   0.193   0.092
    1UNL    H17   41   0.099   0.082   0.233
    1UNL    H18   42  -0.130   0.060   0.185
    1UNL    H19   43  -0.062   0.177  -0.076
    1UNL    H20   44  -0.253  -0.128   0.158
    1UNL    H21   45  -0.173  -0.337   0.161
    1UNL    H22   46  -0.160  -0.343  -0.024
    1UNL    H23   47  -0.322  -0.340   0.061
   0.00000   0.00000   0.00000   0.00000   0.00000   0.00000   0.00000   0.00000   0.00000
Generated with MDTraj, t= 62.0
 47
    1UNL     C1    1  -0.360   0.287   0.202
    1UNL     O1    2  -0.248   0.222   0.157
    1UNL     C2    3  -0.254   0.178   0.019
    1UNL     N1    4  -0.380   0.116  -0.012
    1UNL     C3    5  -0.388  -0.013  -0.035
    1UNL     C4    6  -0.270  -0.099  -0.057
    1UNL     C5    7  -0.169  -0.015  -0.129
    1UNL     C6    8  -0.041  -0.105  -0.175
    1UNL     C7    9   0.020  -0.156  -0.041
    1UNL     C8   10   0.159  -0.109  -0.030
    1UNL     N2   11   0.280  -0.148  -0.085
    1UNL     C9   12   0.380  -0.061  -0.053
    1UNL    C10   13   0.516  -0.057  -0.083
    1UNL    C11   14   0.591   0.052  -0.049
    1UNL    C12   15   0.535   0.152   0.036
    1UNL    C13   16   0.407   0.145   0.076
    1UNL    C14   17   0.326   0.035   0.035
    1UNL    C15   18   0.188  -0.000   0.050
    1UNL    C16   19   0.087   0.102   0.111
    1UNL    C17   20  -0.052   0.039   0.099
    1UNL    C18   21  -0.130   0.098  -0.025
    1UNL     N3   22  -0.052  -0.107   0.083
    1UNL    C19   23  -0.197  -0.154   0.078
    1UNL    C20   24  -0.191  -0.307   0.089
    1UNL     H1   25  -0.418   0.333   0.126
    1UNL     H2   26  -0.332   0.360   0.277
    1UNL     H3   27  -0.428   0.220   0.250
    1UNL     H4   28  -0.252   0.274  -0.040
    1UNL     H5   29  -0.483  -0.057  -0.059
    1UNL     H6   30  -0.296  -0.186  -0.122
    1UNL     H7   31  -0.207   0.040  -0.214
    1UNL     H8   32  -0.069  -0.191  -0.240
    1UNL     H9   33   0.026  -0.053  -0.242
    1UNL    H10   34   0.033  -0.270  -0.046
    1UNL    H11   35   0.278  -0.202  -0.171
    1UNL    H12   36   0.568  -0.132  -0.134
    1UNL    H13   37   0.693   0.073  -0.076
    1UNL    H14   38   0.591   0.234   0.074
    1UNL    H15   39   0.370   0.211   0.152
    1UNL    H16   40   0.083   0.197   0.068
    1UNL    H17   41   0.113   0.108   0.224
    1UNL    H18   42  -0.105   0.056   0.195
    1UNL    H19   43  -0.062   0.159  -0.085
    1UNL    H20   44  -0.241  -0.116   0.170
    1UNL    H21   45  -0.120  -0.330   0.165
    1UNL    H22   46  -0.166  -0.331  -0.017
    1UNL    H23   47  -0.288  -0.355   0.113
   0.00000   0.00000   0.00000   0.00000   0.00000   0.00000   0.00000   0.00000   0.00000
Generated with MDTraj, t= 63.0
 47
    1UNL     C1    1  -0.363   0.296   0.187
    1UNL     O1    2  -0.245   0.240   0.142
    1UNL     C2    3  -0.260   0.171   0.017
    1UNL     N1    4  -0.384   0.106   0.011
    1UNL     C3    5  -0.393  -0.020  -0.023
    1UNL     C4    6  -0.268  -0.102  -0.055
    1UNL     C5    7  -0.171  -0.017  -0.129
    1UNL     C6    8  -0.041  -0.105  -0.167
    1UNL     C7    9   0.031  -0.155  -0.039
    1UNL     C8   10   0.166  -0.088  -0.025
    1UNL     N2   11   0.278  -0.133  -0.089
    1UNL     C9   12   0.379  -0.048  -0.063
    1UNL    C10   13   0.512  -0.055  -0.099
    1UNL    C11   14   0.599   0.039  -0.039
    1UNL    C12   15   0.546   0.137   0.043
    1UNL    C13   16   0.413   0.144   0.082
    1UNL    C14   17   0.336   0.050   0.024
    1UNL    C15   18   0.195   0.024   0.046
    1UNL    C16   19   0.089   0.100   0.120
    1UNL    C17   20  -0.052   0.029   0.100
    1UNL    C18   21  -0.130   0.092  -0.027
    1UNL     N3   22  -0.048  -0.126   0.081
    1UNL    C19   23  -0.195  -0.170   0.072
    1UNL    C20   24  -0.225  -0.312   0.088
    1UNL     H1   25  -0.348   0.395   0.231
    1UNL     H2   26  -0.408   0.233   0.264
    1UNL     H3   27  -0.433   0.312   0.106
    1UNL     H4   28  -0.269   0.261  -0.049
    1UNL     H5   29  -0.493  -0.062  -0.017
    1UNL     H6   30  -0.304  -0.181  -0.123
    1UNL     H7   31  -0.223   0.020  -0.215
    1UNL     H8   32  -0.064  -0.188  -0.235
    1UNL     H9   33   0.031  -0.046  -0.222
    1UNL    H10   34   0.058  -0.267  -0.040
    1UNL    H11   35   0.284  -0.229  -0.119
    1UNL    H12   36   0.548  -0.102  -0.193
    1UNL    H13   37   0.696   0.060  -0.081
    1UNL    H14   38   0.609   0.214   0.086
    1UNL    H15   39   0.367   0.204   0.161
    1UNL    H16   40   0.076   0.196   0.077
    1UNL    H17   41   0.108   0.113   0.232
    1UNL    H18   42  -0.108   0.050   0.194
    1UNL    H19   43  -0.057   0.155  -0.078
    1UNL    H20   44  -0.243  -0.112   0.152
    1UNL    H21   45  -0.210  -0.351   0.192
    1UNL    H22   46  -0.175  -0.372   0.008
    1UNL    H23   47  -0.327  -0.339   0.071
   0.00000   0.00000   0.00000   0.00000   0.00000   0.00000   0.00000   0.00000   0.00000
Generated with MDTraj, t= 64.0
 47
    1UNL     C1    1  -0.334   0.311   0.183
    1UNL     O1    2  -0.225   0.248   0.125
    1UNL     C2    3  -0.264   0.178   0.003
    1UNL     N1    4  -0.384   0.107   0.018
    1UNL     C3    5  -0.384  -0.026   0.013
    1UNL     C4    6  -0.265  -0.111  -0.042
    1UNL     C5    7  -0.172  -0.020  -0.127
    1UNL     C6    8  -0.044  -0.094  -0.175
    1UNL     C7    9   0.020  -0.149  -0.052
    1UNL     C8   10   0.161  -0.097  -0.033
    1UNL     N2   11   0.277  -0.145  -0.088
    1UNL     C9   12   0.372  -0.055  -0.049
    1UNL    C10   13   0.503  -0.055  -0.089
    1UNL    C11   14   0.590   0.040  -0.038
    1UNL    C12   15   0.543   0.147   0.044
    1UNL    C13   16   0.404   0.157   0.085
    1UNL    C14   17   0.322   0.049   0.039
    1UNL    C15   18   0.181   0.015   0.048
    1UNL    C16   19   0.076   0.091   0.125
    1UNL    C17   20  -0.063   0.035   0.099
    1UNL    C18   21  -0.133   0.096  -0.032
    1UNL     N3   22  -0.052  -0.114   0.071
    1UNL    C19   23  -0.190  -0.177   0.076
    1UNL    C20   24  -0.185  -0.326   0.065
    1UNL     H1   25  -0.372   0.272   0.282
    1UNL     H2   26  -0.419   0.288   0.114
    1UNL     H3   27  -0.319   0.420   0.182
    1UNL     H4   28  -0.282   0.255  -0.076
    1UNL     H5   29  -0.482  -0.073   0.028
    1UNL     H6   30  -0.302  -0.198  -0.100
    1UNL     H7   31  -0.225   0.015  -0.212
    1UNL     H8   32  -0.066  -0.178  -0.238
    1UNL     H9   33   0.024  -0.025  -0.226
    1UNL    H10   34   0.026  -0.265  -0.050
    1UNL    H11   35   0.286  -0.231  -0.139
    1UNL    H12   36   0.530  -0.114  -0.174
    1UNL    H13   37   0.691   0.041  -0.077
    1UNL    H14   38   0.604   0.219   0.097
    1UNL    H15   39   0.365   0.227   0.155
    1UNL    H16   40   0.073   0.194   0.095
    1UNL    H17   41   0.094   0.085   0.233
    1UNL    H18   42  -0.131   0.056   0.184
    1UNL    H19   43  -0.065   0.168  -0.078
    1UNL    H20   44  -0.242  -0.146   0.169
    1UNL    H21   45  -0.101  -0.373   0.130
    1UNL    H22   46  -0.181  -0.361  -0.040
    1UNL    H23   47  -0.265  -0.381   0.104
   0.00000   0.00000   0.00000   0.00000   0.00000   0.00000   0.00000   0.00000   0.00000
Generated with MDTraj, t= 65.0
 47
    1UNL     C1    1  -0.319   0.339   0.175
    1UNL     O1    2  -0.221   0.262   0.110
    1UNL     C2    3  -0.259   0.166   0.013
    1UNL     N1    4  -0.368   0.090   0.062
    1UNL     C3    5  -0.387  -0.034   0.024
    1UNL     C4    6  -0.273  -0.108  -0.044
    1UNL     C5    7  -0.180  -0.019  -0.127
    1UNL     C6    8  -0.060  -0.108  -0.174
    1UNL     C7    9   0.023  -0.168  -0.047
    1UNL     C8   10   0.159  -0.103  -0.034
    1UNL     N2   11   0.282  -0.141  -0.092
    1UNL     C9   12   0.383  -0.050  -0.057
    1UNL    C10   13   0.525  -0.045  -0.073
    1UNL    C11   14   0.599   0.060  -0.021
    1UNL    C12   15   0.533   0.163   0.062
    1UNL    C13   16   0.395   0.158   0.069
    1UNL    C14   17   0.323   0.046   0.023
    1UNL    C15   18   0.180   0.013   0.032
    1UNL    C16   19   0.074   0.081   0.110
    1UNL    C17   20  -0.060   0.025   0.088
    1UNL    C18   21  -0.137   0.091  -0.031
    1UNL     N3   22  -0.053  -0.129   0.079
    1UNL    C19   23  -0.197  -0.172   0.072
    1UNL    C20   24  -0.209  -0.319   0.049
    1UNL     H1   25  -0.425   0.308   0.149
    1UNL     H2   26  -0.304   0.440   0.128
    1UNL     H3   27  -0.289   0.349   0.282
    1UNL     H4   28  -0.292   0.210  -0.083
    1UNL     H5   29  -0.479  -0.083   0.047
    1UNL     H6   30  -0.308  -0.190  -0.111
    1UNL     H7   31  -0.227   0.023  -0.211
    1UNL     H8   32  -0.101  -0.183  -0.238
    1UNL     H9   33   0.009  -0.044  -0.232
    1UNL    H10   34   0.043  -0.281  -0.064
    1UNL    H11   35   0.286  -0.192  -0.179
    1UNL    H12   36   0.568  -0.129  -0.120
    1UNL    H13   37   0.706   0.058  -0.018
    1UNL    H14   38   0.586   0.229   0.127
    1UNL    H15   39   0.329   0.227   0.125
    1UNL    H16   40   0.075   0.189   0.097
    1UNL    H17   41   0.098   0.058   0.208
    1UNL    H18   42  -0.122   0.042   0.178
    1UNL    H19   43  -0.068   0.159  -0.082
    1UNL    H20   44  -0.239  -0.147   0.173
    1UNL    H21   45  -0.161  -0.371   0.140
    1UNL    H22   46  -0.170  -0.343  -0.051
    1UNL    H23   47  -0.310  -0.352   0.054
   0.00000   0.00000   0.00000   0.00000   0.00000   0.00000   0.00000   0.00000   0.00000
Generated with MDTraj, t= 66.0
 47
    1UNL     C1    1  -0.313   0.353   0.149
    1UNL     O1    2  -0.208   0.265   0.119
    1UNL     C2    3  -0.249   0.166   0.010
    1UNL     N1    4  -0.374   0.102   0.046
    1UNL     C3    5  -0.381  -0.025   0.026
    1UNL     C4    6  -0.275  -0.116  -0.040
    1UNL     C5    7  -0.179  -0.036  -0.127
    1UNL     C6    8  -0.063  -0.126  -0.176
    1UNL     C7    9   0.024  -0.152  -0.051
    1UNL     C8   10   0.154  -0.083  -0.046
    1UNL     N2   11   0.273  -0.123  -0.107
    1UNL     C9   12   0.369  -0.043  -0.059
    1UNL    C10   13   0.508  -0.047  -0.083
    1UNL    C11   14   0.585   0.051  -0.027
    1UNL    C12   15   0.525   0.154   0.062
    1UNL    C13   16   0.393   0.151   0.089
    1UNL    C14   17   0.317   0.044   0.038
    1UNL    C15   18   0.177   0.023   0.041
    1UNL    C16   19   0.078   0.075   0.142
    1UNL    C17   20  -0.061   0.026   0.103
    1UNL    C18   21  -0.134   0.079  -0.030
    1UNL     N3   22  -0.059  -0.119   0.076
    1UNL    C19   23  -0.186  -0.185   0.070
    1UNL    C20   24  -0.180  -0.336   0.048
    1UNL     H1   25  -0.358   0.395   0.055
    1UNL     H2   26  -0.274   0.429   0.216
    1UNL     H3   27  -0.378   0.295   0.216
    1UNL     H4   28  -0.270   0.232  -0.073
    1UNL     H5   29  -0.471  -0.068   0.073
    1UNL     H6   30  -0.326  -0.185  -0.113
    1UNL     H7   31  -0.230   0.006  -0.209
    1UNL     H8   32  -0.101  -0.214  -0.224
    1UNL     H9   33  -0.005  -0.063  -0.246
    1UNL    H10   34   0.033  -0.267  -0.046
    1UNL    H11   35   0.287  -0.205  -0.165
    1UNL    H12   36   0.541  -0.143  -0.137
    1UNL    H13   37   0.691   0.059  -0.046
    1UNL    H14   38   0.590   0.225   0.112
    1UNL    H15   39   0.340   0.225   0.140
    1UNL    H16   40   0.084   0.184   0.133
    1UNL    H17   41   0.109   0.055   0.236
    1UNL    H18   42  -0.132   0.043   0.185
    1UNL    H19   43  -0.055   0.142  -0.073
    1UNL    H20   44  -0.227  -0.166   0.172
    1UNL    H21   45  -0.125  -0.379   0.134
    1UNL    H22   46  -0.144  -0.353  -0.054
    1UNL    H23   47  -0.288  -0.371   0.057
   0.00000   0.00000   0.00000   0.00000   0.00000   0.00000   0.00000   0.00000   0.00000
Generated with MDTraj, t= 67.0
 47
    1UNL     C1    1  -0.323   0.358   0.149
    1UNL     O1    2  -0.218   0.271   0.107
    1UNL     C2    3  -0.257   0.166   0.009
    1UNL     N1    4  -0.369   0.093   0.053
    1UNL     C3    5  -0.383  -0.022   0.013
    1UNL     C4    6  -0.274  -0.109  -0.042
    1UNL     C5    7  -0.177  -0.022  -0.127
    1UNL     C6    8  -0.052  -0.111  -0.166
    1UNL     C7    9   0.029  -0.162  -0.047
    1UNL     C8   10   0.161  -0.096  -0.033
    1UNL     N2   11   0.272  -0.135  -0.098
    1UNL     C9   12   0.371  -0.035  -0.070
    1UNL    C10   13   0.507  -0.019  -0.113
    1UNL    C11   14   0.585   0.065  -0.043
    1UNL    C12   15   0.536   0.142   0.071
    1UNL    C13   16   0.404   0.134   0.112
    1UNL    C14   17   0.323   0.043   0.041
    1UNL    C15   18   0.184   0.011   0.053
    1UNL    C16   19   0.074   0.080   0.130
    1UNL    C17   20  -0.059   0.022   0.090
    1UNL    C18   21  -0.130   0.091  -0.030
    1UNL     N3   22  -0.053  -0.132   0.074
    1UNL    C19   23  -0.192  -0.189   0.072
    1UNL    C20   24  -0.207  -0.345   0.069
    1UNL     H1   25  -0.283   0.458   0.165
    1UNL     H2   26  -0.357   0.307   0.235
    1UNL     H3   27  -0.407   0.357   0.083
    1UNL     H4   28  -0.302   0.213  -0.078
    1UNL     H5   29  -0.469  -0.064   0.057
    1UNL     H6   30  -0.313  -0.188  -0.111
    1UNL     H7   31  -0.220   0.018  -0.213
    1UNL     H8   32  -0.090  -0.192  -0.222
    1UNL     H9   33   0.015  -0.054  -0.232
    1UNL    H10   34   0.042  -0.277  -0.051
    1UNL    H11   35   0.299  -0.231  -0.117
    1UNL    H12   36   0.534  -0.062  -0.203
    1UNL    H13   37   0.683   0.082  -0.089
    1UNL    H14   38   0.596   0.220   0.117
    1UNL    H15   39   0.360   0.195   0.196
    1UNL    H16   40   0.078   0.186   0.109
    1UNL    H17   41   0.096   0.071   0.232
    1UNL    H18   42  -0.139   0.034   0.164
    1UNL    H19   43  -0.054   0.150  -0.083
    1UNL    H20   44  -0.241  -0.161   0.170
    1UNL    H21   45  -0.134  -0.387   0.138
    1UNL    H22   46  -0.195  -0.388  -0.032
    1UNL    H23   47  -0.309  -0.383   0.113
   0.00000   0.00000   0.00000   0.00000   0.00000   0.00000   0.00000   0.00000   0.00000
Generated with MDTraj, t= 68.0
 47
    1UNL     C1    1  -0.337   0.353   0.151
    1UNL     O1    2  -0.226   0.270   0.123
    1UNL     C2    3  -0.246   0.178   0.012
    1UNL     N1    4  -0.372   0.101   0.022
    1UNL     C3    5  -0.369  -0.022   0.011
    1UNL     C4    6  -0.265  -0.113  -0.042
    1UNL     C5    7  -0.165  -0.021  -0.121
    1UNL     C6    8  -0.045  -0.114  -0.169
    1UNL     C7    9   0.022  -0.169  -0.041
    1UNL     C8   10   0.157  -0.105  -0.027
    1UNL     N2   11   0.276  -0.135  -0.096
    1UNL     C9   12   0.373  -0.042  -0.062
    1UNL    C10   13   0.505  -0.031  -0.099
    1UNL    C11   14   0.588   0.067  -0.043
    1UNL    C12   15   0.535   0.154   0.045
    1UNL    C13   16   0.402   0.150   0.084
    1UNL    C14   17   0.319   0.051   0.028
    1UNL    C15   18   0.183   0.000   0.057
    1UNL    C16   19   0.074   0.072   0.136
    1UNL    C17   20  -0.065   0.018   0.109
    1UNL    C18   21  -0.123   0.088  -0.016
    1UNL     N3   22  -0.057  -0.133   0.081
    1UNL    C19   23  -0.198  -0.188   0.075
    1UNL    C20   24  -0.212  -0.335   0.061
    1UNL     H1   25  -0.343   0.357   0.259
    1UNL     H2   26  -0.418   0.299   0.110
    1UNL     H3   27  -0.328   0.454   0.118
    1UNL     H4   28  -0.262   0.249  -0.070
    1UNL     H5   29  -0.465  -0.074   0.033
    1UNL     H6   30  -0.305  -0.193  -0.111
    1UNL     H7   31  -0.219   0.029  -0.194
    1UNL     H8   32  -0.079  -0.190  -0.235
    1UNL     H9   33   0.028  -0.054  -0.225
    1UNL    H10   34   0.038  -0.284  -0.047
    1UNL    H11   35   0.284  -0.188  -0.182
    1UNL    H12   36   0.529  -0.096  -0.187
    1UNL    H13   37   0.682   0.073  -0.088
    1UNL    H14   38   0.606   0.228   0.081
    1UNL    H15   39   0.373   0.205   0.167
    1UNL    H16   40   0.085   0.177   0.127
    1UNL    H17   41   0.094   0.050   0.243
    1UNL    H18   42  -0.147   0.036   0.180
    1UNL    H19   43  -0.042   0.151  -0.057
    1UNL    H20   44  -0.253  -0.156   0.166
    1UNL    H21   45  -0.171  -0.387   0.144
    1UNL    H22   46  -0.170  -0.387  -0.030
    1UNL    H23   47  -0.321  -0.372   0.056
   0.00000   0.00000   0.00000   0.00000   0.00000   0.00000   0.00000   0.00000   0.00000
Generated with MDTraj, t= 69.0
 47
    1UNL     C1    1  -0.301   0.350   0.173
    1UNL     O1    2  -0.224   0.230   0.146
    1UNL     C2    3  -0.246   0.173   0.016
    1UNL     N1    4  -0.375   0.099   0.017
    1UNL     C3    5  -0.379  -0.024  -0.010
    1UNL     C4    6  -0.272  -0.114  -0.060
    1UNL     C5    7  -0.168  -0.024  -0.129
    1UNL     C6    8  -0.042  -0.111  -0.162
    1UNL     C7    9   0.021  -0.161  -0.034
    1UNL     C8   10   0.155  -0.105  -0.013
    1UNL     N2   11   0.269  -0.138  -0.081
    1UNL     C9   12   0.379  -0.056  -0.041
    1UNL    C10   13   0.509  -0.047  -0.088
    1UNL    C11   14   0.573   0.064  -0.051
    1UNL    C12   15   0.518   0.171   0.017
    1UNL    C13   16   0.391   0.162   0.068
    1UNL    C14   17   0.321   0.044   0.039
    1UNL    C15   18   0.185   0.007   0.061
    1UNL    C16   19   0.077   0.081   0.135
    1UNL    C17   20  -0.062   0.023   0.097
    1UNL    C18   21  -0.127   0.084  -0.032
    1UNL     N3   22  -0.061  -0.123   0.083
    1UNL    C19   23  -0.203  -0.172   0.062
    1UNL    C20   24  -0.199  -0.323   0.057
    1UNL     H1   25  -0.261   0.395   0.265
    1UNL     H2   26  -0.403   0.321   0.188
    1UNL     H3   27  -0.286   0.430   0.101
    1UNL     H4   28  -0.255   0.257  -0.057
    1UNL     H5   29  -0.470  -0.075  -0.013
    1UNL     H6   30  -0.311  -0.190  -0.134
    1UNL     H7   31  -0.214   0.019  -0.211
    1UNL     H8   32  -0.063  -0.192  -0.227
    1UNL     H9   33   0.030  -0.047  -0.215
    1UNL    H10   34   0.026  -0.277  -0.036
    1UNL    H11   35   0.274  -0.179  -0.173
    1UNL    H12   36   0.562  -0.116  -0.149
    1UNL    H13   37   0.681   0.076  -0.085
    1UNL    H14   38   0.582   0.254   0.046
    1UNL    H15   39   0.356   0.242   0.136
    1UNL    H16   40   0.079   0.181   0.105
    1UNL    H17   41   0.088   0.094   0.249
    1UNL    H18   42  -0.129   0.044   0.181
    1UNL    H19   43  -0.040   0.138  -0.076
    1UNL    H20   44  -0.258  -0.134   0.150
    1UNL    H21   45  -0.141  -0.366   0.143
    1UNL    H22   46  -0.157  -0.366  -0.040
    1UNL    H23   47  -0.303  -0.361   0.060
   0.00000   0.00000   0.00000   0.00000   0.00000   0.00000   0.00000   0.00000   0.00000
Generated with MDTraj, t= 70.0
 47
    1UNL     C1    1  -0.329   0.318   0.174
    1UNL     O1    2  -0.214   0.241   0.138
    1UNL     C2    3  -0.251   0.171   0.022
    1UNL     N1    4  -0.374   0.110   0.032
    1UNL     C3    5  -0.387  -0.006  -0.014
    1UNL     C4    6  -0.276  -0.097  -0.055
    1UNL     C5    7  -0.164  -0.025  -0.129
    1UNL     C6    8  -0.038  -0.118  -0.163
    1UNL     C7    9   0.030  -0.167  -0.038
    1UNL     C8   10   0.166  -0.111  -0.019
    1UNL     N2   11   0.286  -0.153  -0.081
    1UNL     C9   12   0.382  -0.055  -0.053
    1UNL    C10   13   0.519  -0.037  -0.093
    1UNL    C11   14   0.583   0.074  -0.046
    1UNL    C12   15   0.519   0.170   0.031
    1UNL    C13   16   0.391   0.164   0.065
    1UNL    C14   17   0.321   0.041   0.030
    1UNL    C15   18   0.189   0.007   0.048
    1UNL    C16   19   0.085   0.078   0.125
    1UNL    C17   20  -0.062   0.027   0.095
    1UNL    C18   21  -0.125   0.091  -0.027
    1UNL     N3   22  -0.065  -0.127   0.079
    1UNL    C19   23  -0.207  -0.170   0.068
    1UNL    C20   24  -0.227  -0.327   0.070
    1UNL     H1   25  -0.297   0.381   0.261
    1UNL     H2   26  -0.415   0.252   0.196
    1UNL     H3   27  -0.346   0.401   0.100
    1UNL     H4   28  -0.273   0.243  -0.063
    1UNL     H5   29  -0.482  -0.063  -0.002
    1UNL     H6   30  -0.326  -0.174  -0.123
    1UNL     H7   31  -0.201   0.021  -0.215
    1UNL     H8   32  -0.067  -0.200  -0.227
    1UNL     H9   33   0.040  -0.064  -0.219
    1UNL    H10   34   0.044  -0.281  -0.045
    1UNL    H11   35   0.302  -0.253  -0.081
    1UNL    H12   36   0.572  -0.109  -0.151
    1UNL    H13   37   0.683   0.087  -0.054
    1UNL    H14   38   0.579   0.253   0.060
    1UNL    H15   39   0.347   0.250   0.111
    1UNL    H16   40   0.087   0.182   0.122
    1UNL    H17   41   0.101   0.059   0.240
    1UNL    H18   42  -0.121   0.048   0.185
    1UNL    H19   43  -0.052   0.162  -0.073
    1UNL    H20   44  -0.255  -0.139   0.161
    1UNL    H21   45  -0.171  -0.370   0.163
    1UNL    H22   46  -0.189  -0.373  -0.026
    1UNL    H23   47  -0.334  -0.337   0.079
   0.00000   0.00000   0.00000   0.00000   0.00000   0.00000   0.00000   0.00000   0.00000
Generated with MDTraj, t= 71.0
 47
    1UNL     C1    1  -0.338   0.293   0.176
    1UNL     O1    2  -0.217   0.256   0.116
    1UNL     C2    3  -0.251   0.180  -0.005
    1UNL     N1    4  -0.375   0.113   0.007
    1UNL     C3    5  -0.381  -0.014  -0.004
    1UNL     C4    6  -0.270  -0.106  -0.044
    1UNL     C5    7  -0.171  -0.020  -0.123
    1UNL     C6    8  -0.051  -0.101  -0.163
    1UNL     C7    9   0.022  -0.154  -0.035
    1UNL     C8   10   0.161  -0.096  -0.020
    1UNL     N2   11   0.272  -0.136  -0.089
    1UNL     C9   12   0.367  -0.041  -0.065
    1UNL    C10   13   0.503  -0.041  -0.103
    1UNL    C11   14   0.586   0.052  -0.053
    1UNL    C12   15   0.541   0.140   0.043
    1UNL    C13   16   0.413   0.144   0.084
    1UNL    C14   17   0.316   0.052   0.034
    1UNL    C15   18   0.180   0.020   0.053
    1UNL    C16   19   0.071   0.077   0.139
    1UNL    C17   20  -0.071   0.027   0.100
    1UNL    C18   21  -0.120   0.092  -0.026
    1UNL     N3   22  -0.060  -0.115   0.088
    1UNL    C19   23  -0.193  -0.176   0.080
    1UNL    C20   24  -0.184  -0.336   0.074
    1UNL     H1   25  -0.318   0.370   0.257
    1UNL     H2   26  -0.396   0.202   0.207
    1UNL     H3   27  -0.385   0.362   0.101
    1UNL     H4   28  -0.254   0.258  -0.085
    1UNL     H5   29  -0.472  -0.063   0.018
    1UNL     H6   30  -0.320  -0.188  -0.106
    1UNL     H7   31  -0.223   0.029  -0.202
    1UNL     H8   32  -0.079  -0.189  -0.219
    1UNL     H9   33   0.014  -0.044  -0.227
    1UNL    H10   34   0.040  -0.269  -0.029
    1UNL    H11   35   0.285  -0.227  -0.133
    1UNL    H12   36   0.548  -0.121  -0.166
    1UNL    H13   37   0.696   0.058  -0.079
    1UNL    H14   38   0.618   0.213   0.072
    1UNL    H15   39   0.378   0.228   0.143
    1UNL    H16   40   0.062   0.181   0.149
    1UNL    H17   41   0.078   0.038   0.249
    1UNL    H18   42  -0.143   0.044   0.182
    1UNL    H19   43  -0.048   0.161  -0.076
    1UNL    H20   44  -0.246  -0.154   0.172
    1UNL    H21   45  -0.122  -0.375   0.166
    1UNL    H22   46  -0.133  -0.379  -0.017
    1UNL    H23   47  -0.284  -0.377   0.080
   0.00000   0.00000   0.00000   0.00000   0.00000   0.00000   0.00000   0.00000   0.00000
Generated with MDTraj, t= 72.0
 47
    1UNL     C1    1  -0.334   0.309   0.190
    1UNL     O1    2  -0.227   0.267   0.110
    1UNL     C2    3  -0.260   0.166   0.012
    1UNL     N1    4  -0.381   0.093   0.032
    1UNL     C3    5  -0.387  -0.031   0.001
    1UNL     C4    6  -0.276  -0.114  -0.047
    1UNL     C5    7  -0.172  -0.026  -0.129
    1UNL     C6    8  -0.051  -0.103  -0.167
    1UNL     C7    9   0.016  -0.161  -0.040
    1UNL     C8   10   0.159  -0.102  -0.033
    1UNL     N2   11   0.278  -0.133  -0.097
    1UNL     C9   12   0.384  -0.047  -0.065
    1UNL    C10   13   0.519  -0.036  -0.097
    1UNL    C11   14   0.594   0.064  -0.039
    1UNL    C12   15   0.546   0.145   0.062
    1UNL    C13   16   0.415   0.132   0.098
    1UNL    C14   17   0.325   0.046   0.026
    1UNL    C15   18   0.188   0.011   0.040
    1UNL    C16   19   0.085   0.091   0.109
    1UNL    C17   20  -0.063   0.029   0.091
    1UNL    C18   21  -0.132   0.088  -0.032
    1UNL     N3   22  -0.062  -0.117   0.084
    1UNL    C19   23  -0.205  -0.167   0.074
    1UNL    C20   24  -0.207  -0.312   0.084
    1UNL     H1   25  -0.300   0.402   0.241
    1UNL     H2   26  -0.367   0.230   0.259
    1UNL     H3   27  -0.414   0.343   0.121
    1UNL     H4   28  -0.272   0.234  -0.075
    1UNL     H5   29  -0.484  -0.080   0.022
    1UNL     H6   30  -0.318  -0.199  -0.112
    1UNL     H7   31  -0.222  -0.002  -0.222
    1UNL     H8   32  -0.081  -0.188  -0.229
    1UNL     H9   33   0.020  -0.051  -0.228
    1UNL    H10   34   0.024  -0.276  -0.042
    1UNL    H11   35   0.274  -0.176  -0.189
    1UNL    H12   36   0.568  -0.103  -0.160
    1UNL    H13   37   0.694   0.079  -0.078
    1UNL    H14   38   0.603   0.216   0.118
    1UNL    H15   39   0.378   0.194   0.181
    1UNL    H16   40   0.084   0.191   0.061
    1UNL    H17   41   0.114   0.116   0.217
    1UNL    H18   42  -0.112   0.059   0.185
    1UNL    H19   43  -0.056   0.148  -0.092
    1UNL    H20   44  -0.250  -0.119   0.162
    1UNL    H21   45  -0.156  -0.347   0.178
    1UNL    H22   46  -0.159  -0.379   0.005
    1UNL    H23   47  -0.312  -0.353   0.078
   0.00000   0.00000   0.00000   0.00000   0.00000   0.00000   0.00000   0.00000   0.00000
Generated with MDTraj, t= 73.0
 47
    1UNL     C1    1  -0.337   0.321   0.178
    1UNL     O1    2  -0.220   0.257   0.126
    1UNL     C2    3  -0.257   0.177   0.014
    1UNL     N1    4  -0.373   0.099   0.041
    1UNL     C3    5  -0.378  -0.026   0.011
    1UNL     C4    6  -0.273  -0.113  -0.044
    1UNL     C5    7  -0.177  -0.032  -0.126
    1UNL     C6    8  -0.059  -0.111  -0.170
    1UNL     C7    9   0.026  -0.155  -0.046
    1UNL     C8   10   0.155  -0.083  -0.050
    1UNL     N2   11   0.272  -0.132  -0.107
    1UNL     C9   12   0.377  -0.059  -0.049
    1UNL    C10   13   0.517  -0.066  -0.064
    1UNL    C11   14   0.593   0.043  -0.013
    1UNL    C12   15   0.529   0.153   0.047
    1UNL    C13   16   0.393   0.156   0.072
    1UNL    C14   17   0.321   0.049   0.018
    1UNL    C15   18   0.181   0.025   0.033
    1UNL    C16   19   0.084   0.100   0.109
    1UNL    C17   20  -0.062   0.035   0.093
    1UNL    C18   21  -0.135   0.088  -0.025
    1UNL     N3   22  -0.049  -0.114   0.073
    1UNL    C19   23  -0.195  -0.181   0.075
    1UNL    C20   24  -0.187  -0.331   0.070
    1UNL     H1   25  -0.310   0.371   0.271
    1UNL     H2   26  -0.415   0.251   0.204
    1UNL     H3   27  -0.374   0.392   0.106
    1UNL     H4   28  -0.281   0.251  -0.062
    1UNL     H5   29  -0.472  -0.071   0.031
    1UNL     H6   30  -0.313  -0.195  -0.115
    1UNL     H7   31  -0.225   0.020  -0.207
    1UNL     H8   32  -0.086  -0.190  -0.243
    1UNL     H9   33   0.005  -0.046  -0.225
    1UNL    H10   34   0.044  -0.268  -0.053
    1UNL    H11   35   0.283  -0.221  -0.157
    1UNL    H12   36   0.568  -0.142  -0.127
    1UNL    H13   37   0.698   0.046  -0.017
    1UNL    H14   38   0.592   0.236   0.080
    1UNL    H15   39   0.346   0.224   0.137
    1UNL    H16   40   0.100   0.213   0.078
    1UNL    H17   41   0.119   0.096   0.215
    1UNL    H18   42  -0.115   0.052   0.188
    1UNL    H19   43  -0.064   0.158  -0.078
    1UNL    H20   44  -0.243  -0.147   0.167
    1UNL    H21   45  -0.099  -0.376   0.115
    1UNL    H22   46  -0.186  -0.365  -0.038
    1UNL    H23   47  -0.289  -0.386   0.095
   0.00000   0.00000   0.00000   0.00000   0.00000   0.00000   0.00000   0.00000   0.00000
Generated with MDTraj, t= 74.0
 47
    1UNL     C1    1  -0.315   0.345   0.168
    1UNL     O1    2  -0.226   0.241   0.133
    1UNL     C2    3  -0.272   0.172   0.021
    1UNL     N1    4  -0.386   0.089   0.046
    1UNL     C3    5  -0.385  -0.035   0.014
    1UNL     C4    6  -0.270  -0.116  -0.036
    1UNL     C5    7  -0.184  -0.021  -0.123
    1UNL     C6    8  -0.055  -0.090  -0.172
    1UNL     C7    9   0.030  -0.146  -0.048
    1UNL     C8   10   0.162  -0.081  -0.041
    1UNL     N2   11   0.278  -0.143  -0.090
    1UNL     C9   12   0.382  -0.062  -0.042
    1UNL    C10   13   0.521  -0.067  -0.070
    1UNL    C11   14   0.599   0.036  -0.019
    1UNL    C12   15   0.539   0.156   0.044
    1UNL    C13   16   0.405   0.154   0.071
    1UNL    C14   17   0.324   0.050   0.029
    1UNL    C15   18   0.181   0.037   0.026
    1UNL    C16   19   0.071   0.104   0.105
    1UNL    C17   20  -0.069   0.032   0.080
    1UNL    C18   21  -0.149   0.098  -0.035
    1UNL     N3   22  -0.053  -0.117   0.071
    1UNL    C19   23  -0.184  -0.191   0.072
    1UNL    C20   24  -0.190  -0.343   0.060
    1UNL     H1   25  -0.289   0.392   0.261
    1UNL     H2   26  -0.410   0.303   0.195
    1UNL     H3   27  -0.335   0.412   0.088
    1UNL     H4   28  -0.310   0.246  -0.049
    1UNL     H5   29  -0.484  -0.081   0.031
    1UNL     H6   30  -0.311  -0.205  -0.097
    1UNL     H7   31  -0.246   0.013  -0.208
    1UNL     H8   32  -0.082  -0.177  -0.235
    1UNL     H9   33   0.001  -0.026  -0.234
    1UNL    H10   34   0.040  -0.261  -0.041
    1UNL    H11   35   0.291  -0.245  -0.095
    1UNL    H12   36   0.560  -0.141  -0.133
    1UNL    H13   37   0.714   0.029  -0.030
    1UNL    H14   38   0.595   0.245   0.065
    1UNL    H15   39   0.353   0.240   0.123
    1UNL    H16   40   0.072   0.217   0.064
    1UNL    H17   41   0.113   0.110   0.208
    1UNL    H18   42  -0.126   0.056   0.172
    1UNL    H19   43  -0.089   0.172  -0.098
    1UNL    H20   44  -0.236  -0.177   0.169
    1UNL    H21   45  -0.127  -0.386   0.138
    1UNL    H22   46  -0.153  -0.369  -0.043
    1UNL    H23   47  -0.305  -0.374   0.057
   0.00000   0.00000   0.00000   0.00000   0.00000   0.00000   0.00000   0.00000   0.00000
Generated with MDTraj, t= 75.0
 47
    1UNL     C1    1  -0.350   0.344   0.165
    1UNL     O1    2  -0.245   0.265   0.129
    1UNL     C2    3  -0.264   0.168   0.018
    1UNL     N1    4  -0.382   0.088   0.044
    1UNL     C3    5  -0.382  -0.037   0.015
    1UNL     C4    6  -0.270  -0.114  -0.042
    1UNL     C5    7  -0.173  -0.019  -0.127
    1UNL     C6    8  -0.051  -0.086  -0.179
    1UNL     C7    9   0.020  -0.152  -0.051
    1UNL     C8   10   0.166  -0.105  -0.043
    1UNL     N2   11   0.287  -0.148  -0.095
    1UNL     C9   12   0.383  -0.054  -0.059
    1UNL    C10   13   0.523  -0.042  -0.087
    1UNL    C11   14   0.602   0.056  -0.033
    1UNL    C12   15   0.542   0.142   0.067
    1UNL    C13   16   0.406   0.138   0.085
    1UNL    C14   17   0.324   0.045   0.016
    1UNL    C15   18   0.184   0.013   0.024
    1UNL    C16   19   0.085   0.085   0.110
    1UNL    C17   20  -0.060   0.029   0.093
    1UNL    C18   21  -0.133   0.092  -0.029
    1UNL     N3   22  -0.056  -0.115   0.077
    1UNL    C19   23  -0.191  -0.170   0.080
    1UNL    C20   24  -0.200  -0.327   0.085
    1UNL     H1   25  -0.347   0.388   0.264
    1UNL     H2   26  -0.435   0.279   0.179
    1UNL     H3   27  -0.381   0.410   0.087
    1UNL     H4   28  -0.296   0.230  -0.066
    1UNL     H5   29  -0.471  -0.085   0.050
    1UNL     H6   30  -0.317  -0.197  -0.109
    1UNL     H7   31  -0.229   0.008  -0.221
    1UNL     H8   32  -0.072  -0.158  -0.261
    1UNL     H9   33   0.016  -0.013  -0.218
    1UNL    H10   34   0.022  -0.266  -0.063
    1UNL    H11   35   0.294  -0.221  -0.168
    1UNL    H12   36   0.551  -0.134  -0.142
    1UNL    H13   37   0.697   0.063  -0.066
    1UNL    H14   38   0.600   0.211   0.129
    1UNL    H15   39   0.352   0.205   0.143
    1UNL    H16   40   0.101   0.198   0.089
    1UNL    H17   41   0.121   0.068   0.215
    1UNL    H18   42  -0.113   0.052   0.187
    1UNL    H19   43  -0.063   0.165  -0.081
    1UNL    H20   44  -0.244  -0.138   0.172
    1UNL    H21   45  -0.122  -0.353   0.158
    1UNL    H22   46  -0.164  -0.357  -0.018
    1UNL    H23   47  -0.306  -0.367   0.101
   0.00000   0.00000   0.00000   0.00000   0.00000   0.00000   0.00000   0.00000   0.00000
Generated with MDTraj, t= 76.0
 47
    1UNL     C1    1  -0.344   0.311   0.168
    1UNL     O1    2  -0.232   0.259   0.116
    1UNL     C2    3  -0.253   0.174   0.003
    1UNL     N1    4  -0.370   0.098   0.020
    1UNL     C3    5  -0.382  -0.029   0.007
    1UNL     C4    6  -0.276  -0.113  -0.047
    1UNL     C5    7  -0.173  -0.028  -0.129
    1UNL     C6    8  -0.053  -0.113  -0.161
    1UNL     C7    9   0.023  -0.154  -0.027
    1UNL     C8   10   0.154  -0.079  -0.029
    1UNL     N2   11   0.264  -0.117  -0.100
    1UNL     C9   12   0.368  -0.037  -0.065
    1UNL    C10   13   0.505  -0.051  -0.100
    1UNL    C11   14   0.596   0.040  -0.053
    1UNL    C12   15   0.554   0.130   0.051
    1UNL    C13   16   0.418   0.133   0.093
    1UNL    C14   17   0.324   0.054   0.034
    1UNL    C15   18   0.184   0.029   0.052
    1UNL    C16   19   0.076   0.088   0.141
    1UNL    C17   20  -0.063   0.034   0.097
    1UNL    C18   21  -0.128   0.089  -0.037
    1UNL     N3   22  -0.058  -0.115   0.090
    1UNL    C19   23  -0.194  -0.172   0.070
    1UNL    C20   24  -0.183  -0.325   0.071
    1UNL     H1   25  -0.331   0.397   0.234
    1UNL     H2   26  -0.389   0.241   0.241
    1UNL     H3   27  -0.424   0.331   0.096
    1UNL     H4   28  -0.281   0.250  -0.073
    1UNL     H5   29  -0.474  -0.069   0.048
    1UNL     H6   30  -0.315  -0.197  -0.115
    1UNL     H7   31  -0.212   0.014  -0.225
    1UNL     H8   32  -0.088  -0.207  -0.209
    1UNL     H9   33   0.014  -0.062  -0.226
    1UNL    H10   34   0.045  -0.266  -0.038
    1UNL    H11   35   0.259  -0.168  -0.190
    1UNL    H12   36   0.528  -0.142  -0.152
    1UNL    H13   37   0.707   0.027  -0.073
    1UNL    H14   38   0.627   0.199   0.088
    1UNL    H15   39   0.377   0.206   0.166
    1UNL    H16   40   0.077   0.197   0.154
    1UNL    H17   41   0.103   0.041   0.243
    1UNL    H18   42  -0.134   0.056   0.179
    1UNL    H19   43  -0.064   0.169  -0.088
    1UNL    H20   44  -0.251  -0.148   0.165
    1UNL    H21   45  -0.100  -0.358   0.144
    1UNL    H22   46  -0.149  -0.370  -0.029
    1UNL    H23   47  -0.273  -0.385   0.086
   0.00000   0.00000   0.00000   0.00000   0.00000   0.00000   0.00000   0.00000   0.00000
Generated with MDTraj, t= 77.0
 47
    1UNL     C1    1  -0.317   0.303   0.190
    1UNL     O1    2  -0.210   0.262   0.109
    1UNL     C2    3  -0.264   0.183   0.004
    1UNL     N1    4  -0.378   0.112   0.043
    1UNL     C3    5  -0.381  -0.011   0.008
    1UNL     C4    6  -0.270  -0.102  -0.045
    1UNL     C5    7  -0.164  -0.025  -0.131
    1UNL     C6    8  -0.044  -0.125  -0.170
    1UNL     C7    9   0.029  -0.168  -0.037
    1UNL     C8   10   0.166  -0.104  -0.031
    1UNL     N2   11   0.282  -0.143  -0.102
    1UNL     C9   12   0.379  -0.052  -0.062
    1UNL    C10   13   0.516  -0.032  -0.095
    1UNL    C11   14   0.586   0.074  -0.038
    1UNL    C12   15   0.522   0.166   0.051
    1UNL    C13   16   0.391   0.143   0.091
    1UNL    C14   17   0.324   0.033   0.032
    1UNL    C15   18   0.186   0.002   0.047
    1UNL    C16   19   0.081   0.082   0.118
    1UNL    C17   20  -0.063   0.034   0.089
    1UNL    C18   21  -0.133   0.093  -0.042
    1UNL     N3   22  -0.065  -0.122   0.075
    1UNL    C19   23  -0.204  -0.172   0.075
    1UNL    C20   24  -0.217  -0.326   0.084
    1UNL     H1   25  -0.297   0.343   0.292
    1UNL     H2   26  -0.392   0.222   0.217
    1UNL     H3   27  -0.385   0.375   0.139
    1UNL     H4   28  -0.295   0.249  -0.081
    1UNL     H5   29  -0.478  -0.055   0.026
    1UNL     H6   30  -0.315  -0.187  -0.110
    1UNL     H7   31  -0.214   0.007  -0.227
    1UNL     H8   32  -0.088  -0.216  -0.212
    1UNL     H9   33   0.030  -0.082  -0.237
    1UNL    H10   34   0.035  -0.280  -0.013
    1UNL    H11   35   0.313  -0.242  -0.112
    1UNL    H12   36   0.571  -0.096  -0.162
    1UNL    H13   37   0.691   0.087  -0.062
    1UNL    H14   38   0.567   0.258   0.094
    1UNL    H15   39   0.349   0.220   0.154
    1UNL    H16   40   0.086   0.180   0.081
    1UNL    H17   41   0.100   0.090   0.233
    1UNL    H18   42  -0.119   0.054   0.182
    1UNL    H19   43  -0.057   0.154  -0.102
    1UNL    H20   44  -0.255  -0.130   0.166
    1UNL    H21   45  -0.184  -0.396   0.173
    1UNL    H22   46  -0.167  -0.378  -0.004
    1UNL    H23   47  -0.313  -0.366   0.057
   0.00000   0.00000   0.00000   0.00000   0.00000   0.00000   0.00000   0.00000   0.00000
Generated with MDTraj, t= 78.0
 47
    1UNL     C1    1  -0.301   0.318   0.192
    1UNL     O1    2  -0.199   0.246   0.126
    1UNL     C2    3  -0.239   0.180   0.007
    1UNL     N1    4  -0.360   0.111   0.023
    1UNL     C3    5  -0.376  -0.012  -0.000
    1UNL     C4    6  -0.274  -0.107  -0.057
    1UNL     C5    7  -0.170  -0.025  -0.133
    1UNL     C6    8  -0.044  -0.111  -0.166
    1UNL     C7    9   0.022  -0.164  -0.032
    1UNL     C8   10   0.159  -0.104  -0.015
    1UNL     N2   11   0.277  -0.142  -0.085
    1UNL     C9   12   0.372  -0.050  -0.047
    1UNL    C10   13   0.508  -0.046  -0.078
    1UNL    C11   14   0.579   0.062  -0.036
    1UNL    C12   15   0.519   0.171   0.023
    1UNL    C13   16   0.383   0.168   0.061
    1UNL    C14   17   0.308   0.059   0.022
    1UNL    C15   18   0.176   0.019   0.047
    1UNL    C16   19   0.065   0.079   0.132
    1UNL    C17   20  -0.070   0.017   0.098
    1UNL    C18   21  -0.124   0.084  -0.036
    1UNL     N3   22  -0.062  -0.139   0.080
    1UNL    C19   23  -0.204  -0.178   0.061
    1UNL    C20   24  -0.206  -0.332   0.071
    1UNL     H1   25  -0.258   0.405   0.245
    1UNL     H2   26  -0.366   0.267   0.269
    1UNL     H3   27  -0.375   0.358   0.119
    1UNL     H4   28  -0.246   0.269  -0.063
    1UNL     H5   29  -0.473  -0.055   0.020
    1UNL     H6   30  -0.332  -0.177  -0.130
    1UNL     H7   31  -0.221   0.024  -0.221
    1UNL     H8   32  -0.070  -0.198  -0.227
    1UNL     H9   33   0.034  -0.049  -0.211
    1UNL    H10   34   0.045  -0.276  -0.031
    1UNL    H11   35   0.294  -0.230  -0.137
    1UNL    H12   36   0.550  -0.123  -0.143
    1UNL    H13   37   0.681   0.070  -0.060
    1UNL    H14   38   0.584   0.253   0.042
    1UNL    H15   39   0.341   0.249   0.118
    1UNL    H16   40   0.055   0.184   0.135
    1UNL    H17   41   0.084   0.050   0.242
    1UNL    H18   42  -0.137   0.031   0.186
    1UNL    H19   43  -0.046   0.157  -0.076
    1UNL    H20   44  -0.260  -0.146   0.153
    1UNL    H21   45  -0.114  -0.383   0.121
    1UNL    H22   46  -0.212  -0.371  -0.035
    1UNL    H23   47  -0.294  -0.376   0.117
   0.00000   0.00000   0.00000   0.00000   0.00000   0.00000   0.00000   0.00000   0.00000
Generated with MDTraj, t= 79.0
 47
    1UNL     C1    1  -0.336   0.336   0.164
    1UNL     O1    2  -0.219   0.271   0.124
    1UNL     C2    3  -0.245   0.177   0.017
    1UNL     N1    4  -0.368   0.108   0.027
    1UNL     C3    5  -0.377  -0.017   0.011
    1UNL     C4    6  -0.271  -0.109  -0.049
    1UNL     C5    7  -0.162  -0.025  -0.123
    1UNL     C6    8  -0.036  -0.106  -0.167
    1UNL     C7    9   0.018  -0.171  -0.036
    1UNL     C8   10   0.159  -0.110  -0.017
    1UNL     N2   11   0.278  -0.145  -0.078
    1UNL     C9   12   0.377  -0.052  -0.046
    1UNL    C10   13   0.510  -0.032  -0.096
    1UNL    C11   14   0.581   0.075  -0.065
    1UNL    C12   15   0.530   0.163   0.026
    1UNL    C13   16   0.407   0.153   0.074
    1UNL    C14   17   0.318   0.049   0.032
    1UNL    C15   18   0.182   0.006   0.054
    1UNL    C16   19   0.078   0.076   0.136
    1UNL    C17   20  -0.065   0.019   0.111
    1UNL    C18   21  -0.122   0.084  -0.023
    1UNL     N3   22  -0.066  -0.135   0.087
    1UNL    C19   23  -0.210  -0.183   0.068
    1UNL    C20   24  -0.213  -0.340   0.047
    1UNL     H1   25  -0.329   0.378   0.263
    1UNL     H2   26  -0.433   0.281   0.151
    1UNL     H3   27  -0.341   0.421   0.096
    1UNL     H4   28  -0.253   0.236  -0.079
    1UNL     H5   29  -0.466  -0.074   0.040
    1UNL     H6   30  -0.319  -0.179  -0.128
    1UNL     H7   31  -0.200   0.022  -0.220
    1UNL     H8   32  -0.065  -0.186  -0.234
    1UNL     H9   33   0.038  -0.043  -0.222
    1UNL    H10   34   0.038  -0.283  -0.052
    1UNL    H11   35   0.284  -0.190  -0.172
    1UNL    H12   36   0.545  -0.106  -0.163
    1UNL    H13   37   0.690   0.082  -0.100
    1UNL    H14   38   0.597   0.245   0.056
    1UNL    H15   39   0.383   0.219   0.159
    1UNL    H16   40   0.072   0.181   0.118
    1UNL    H17   41   0.096   0.072   0.245
    1UNL    H18   42  -0.132   0.040   0.197
    1UNL    H19   43  -0.042   0.147  -0.074
    1UNL    H20   44  -0.258  -0.163   0.166
    1UNL    H21   45  -0.189  -0.386   0.145
    1UNL    H22   46  -0.134  -0.358  -0.029
    1UNL    H23   47  -0.309  -0.381   0.005
   0.00000   0.00000   0.00000   0.00000   0.00000   0.00000   0.00000   0.00000   0.00000
Generated with MDTraj, t= 80.0
 47
    1UNL     C1    1  -0.330   0.353   0.134
    1UNL     O1    2  -0.228   0.261   0.129
    1UNL     C2    3  -0.255   0.171   0.021
    1UNL     N1    4  -0.371   0.089   0.041
    1UNL     C3    5  -0.386  -0.019  -0.020
    1UNL     C4    6  -0.265  -0.109  -0.055
    1UNL     C5    7  -0.165  -0.012  -0.120
    1UNL     C6    8  -0.043  -0.098  -0.159
    1UNL     C7    9   0.024  -0.163  -0.032
    1UNL     C8   10   0.162  -0.110  -0.026
    1UNL     N2   11   0.270  -0.134  -0.113
    1UNL     C9   12   0.372  -0.049  -0.070
    1UNL    C10   13   0.504  -0.020  -0.113
    1UNL    C11   14   0.573   0.079  -0.054
    1UNL    C12   15   0.522   0.154   0.051
    1UNL    C13   16   0.402   0.130   0.100
    1UNL    C14   17   0.322   0.028   0.040
    1UNL    C15   18   0.192  -0.005   0.059
    1UNL    C16   19   0.086   0.071   0.134
    1UNL    C17   20  -0.053   0.018   0.102
    1UNL    C18   21  -0.124   0.093  -0.019
    1UNL     N3   22  -0.059  -0.129   0.087
    1UNL    C19   23  -0.194  -0.178   0.074
    1UNL    C20   24  -0.204  -0.334   0.084
    1UNL     H1   25  -0.296   0.438   0.188
    1UNL     H2   26  -0.425   0.311   0.168
    1UNL     H3   27  -0.338   0.390   0.034
    1UNL     H4   28  -0.278   0.228  -0.071
    1UNL     H5   29  -0.481  -0.068  -0.019
    1UNL     H6   30  -0.309  -0.187  -0.130
    1UNL     H7   31  -0.219   0.035  -0.208
    1UNL     H8   32  -0.076  -0.169  -0.233
    1UNL     H9   33   0.030  -0.037  -0.218
    1UNL    H10   34   0.013  -0.277  -0.036
    1UNL    H11   35   0.301  -0.227  -0.149
    1UNL    H12   36   0.557  -0.080  -0.190
    1UNL    H13   37   0.665   0.107  -0.088
    1UNL    H14   38   0.587   0.231   0.089
    1UNL    H15   39   0.367   0.199   0.171
    1UNL    H16   40   0.090   0.176   0.108
    1UNL    H17   41   0.105   0.075   0.235
    1UNL    H18   42  -0.121   0.046   0.185
    1UNL    H19   43  -0.051   0.165  -0.069
    1UNL    H20   44  -0.242  -0.135   0.164
    1UNL    H21   45  -0.119  -0.361   0.144
    1UNL    H22   46  -0.203  -0.378  -0.018
    1UNL    H23   47  -0.294  -0.378   0.146
   0.00000   0.00000   0.00000   0.00000   0.00000   0.00000   0.00000   0.00000   0.00000
Generated with MDTraj, t= 81.0
 47
    1UNL     C1    1  -0.318   0.337   0.150
    1UNL     O1    2  -0.202   0.262   0.109
    1UNL     C2    3  -0.243   0.170   0.004
    1UNL     N1    4  -0.368   0.104   0.032
    1UNL     C3    5  -0.384  -0.018   0.017
    1UNL     C4    6  -0.284  -0.115  -0.037
    1UNL     C5    7  -0.181  -0.039  -0.121
    1UNL     C6    8  -0.060  -0.125  -0.165
    1UNL     C7    9   0.024  -0.153  -0.039
    1UNL     C8   10   0.155  -0.079  -0.033
    1UNL     N2   11   0.268  -0.117  -0.108
    1UNL     C9   12   0.375  -0.030  -0.068
    1UNL    C10   13   0.514  -0.037  -0.101
    1UNL    C11   14   0.592   0.060  -0.040
    1UNL    C12   15   0.540   0.150   0.049
    1UNL    C13   16   0.410   0.143   0.097
    1UNL    C14   17   0.321   0.048   0.037
    1UNL    C15   18   0.178   0.025   0.052
    1UNL    C16   19   0.076   0.079   0.140
    1UNL    C17   20  -0.070   0.027   0.111
    1UNL    C18   21  -0.129   0.077  -0.024
    1UNL     N3   22  -0.067  -0.127   0.081
    1UNL    C19   23  -0.203  -0.196   0.080
    1UNL    C20   24  -0.201  -0.342   0.055
    1UNL     H1   25  -0.301   0.369   0.249
    1UNL     H2   26  -0.405   0.271   0.140
    1UNL     H3   27  -0.327   0.426   0.092
    1UNL     H4   28  -0.266   0.239  -0.078
    1UNL     H5   29  -0.486  -0.058   0.024
    1UNL     H6   30  -0.336  -0.196  -0.101
    1UNL     H7   31  -0.230   0.018  -0.207
    1UNL     H8   32  -0.085  -0.216  -0.217
    1UNL     H9   33  -0.004  -0.072  -0.248
    1UNL    H10   34   0.052  -0.264  -0.040
    1UNL    H11   35   0.274  -0.202  -0.168
    1UNL    H12   36   0.557  -0.110  -0.159
    1UNL    H13   37   0.702   0.065  -0.062
    1UNL    H14   38   0.612   0.228   0.070
    1UNL    H15   39   0.376   0.228   0.161
    1UNL    H16   40   0.091   0.187   0.142
    1UNL    H17   41   0.104   0.058   0.235
    1UNL    H18   42  -0.140   0.049   0.192
    1UNL    H19   43  -0.043   0.135  -0.072
    1UNL    H20   44  -0.246  -0.172   0.178
    1UNL    H21   45  -0.159  -0.395   0.140
    1UNL    H22   46  -0.148  -0.367  -0.038
    1UNL    H23   47  -0.302  -0.403   0.047
   0.00000   0.00000   0.00000   0.00000   0.00000   0.00000   0.00000   0.00000   0.00000
Generated with MDTraj, t= 82.0
 47
    1UNL     C1    1  -0.303   0.339   0.176
    1UNL     O1    2  -0.196   0.267   0.108
    1UNL     C2    3  -0.243   0.174   0.009
    1UNL     N1    4  -0.358   0.095   0.052
    1UNL     C3    5  -0.377  -0.026   0.024
    1UNL     C4    6  -0.281  -0.116  -0.041
    1UNL     C5    7  -0.183  -0.028  -0.127
    1UNL     C6    8  -0.058  -0.101  -0.172
    1UNL     C7    9   0.012  -0.161  -0.047
    1UNL     C8   10   0.152  -0.104  -0.034
    1UNL     N2   11   0.275  -0.150  -0.085
    1UNL     C9   12   0.379  -0.051  -0.058
    1UNL    C10   13   0.515  -0.036  -0.079
    1UNL    C11   14   0.581   0.074  -0.021
    1UNL    C12   15   0.518   0.157   0.069
    1UNL    C13   16   0.382   0.157   0.073
    1UNL    C14   17   0.312   0.054   0.010
    1UNL    C15   18   0.177   0.016   0.025
    1UNL    C16   19   0.076   0.079   0.109
    1UNL    C17   20  -0.062   0.021   0.086
    1UNL    C18   21  -0.133   0.082  -0.034
    1UNL     N3   22  -0.055  -0.129   0.079
    1UNL    C19   23  -0.200  -0.183   0.075
    1UNL    C20   24  -0.194  -0.331   0.065
    1UNL     H1   25  -0.253   0.424   0.217
    1UNL     H2   26  -0.331   0.262   0.252
    1UNL     H3   27  -0.389   0.371   0.116
    1UNL     H4   28  -0.280   0.237  -0.071
    1UNL     H5   29  -0.461  -0.073   0.066
    1UNL     H6   30  -0.326  -0.201  -0.107
    1UNL     H7   31  -0.228   0.013  -0.222
    1UNL     H8   32  -0.081  -0.169  -0.252
    1UNL     H9   33   0.024  -0.038  -0.220
    1UNL    H10   34   0.022  -0.275  -0.049
    1UNL    H11   35   0.287  -0.215  -0.165
    1UNL    H12   36   0.576  -0.115  -0.131
    1UNL    H13   37   0.685   0.073  -0.045
    1UNL    H14   38   0.565   0.231   0.135
    1UNL    H15   39   0.333   0.222   0.137
    1UNL    H16   40   0.077   0.183   0.076
    1UNL    H17   41   0.111   0.087   0.207
    1UNL    H18   42  -0.122   0.046   0.175
    1UNL    H19   43  -0.047   0.132  -0.091
    1UNL    H20   44  -0.239  -0.147   0.170
    1UNL    H21   45  -0.137  -0.365   0.154
    1UNL    H22   46  -0.154  -0.371  -0.031
    1UNL    H23   47  -0.293  -0.379   0.080
   0.00000   0.00000   0.00000   0.00000   0.00000   0.00000   0.00000   0.00000   0.00000
Generated with MDTraj, t= 83.0
 47
    1UNL     C1    1  -0.328   0.318   0.175
    1UNL     O1    2  -0.215   0.270   0.107
    1UNL     C2    3  -0.259   0.177   0.007
    1UNL     N1    4  -0.374   0.098   0.054
    1UNL     C3    5  -0.381  -0.024   0.023
    1UNL     C4    6  -0.275  -0.116  -0.035
    1UNL     C5    7  -0.177  -0.026  -0.124
    1UNL     C6    8  -0.056  -0.102  -0.173
    1UNL     C7    9   0.019  -0.158  -0.051
    1UNL     C8   10   0.161  -0.095  -0.038
    1UNL     N2   11   0.277  -0.136  -0.087
    1UNL     C9   12   0.378  -0.054  -0.040
    1UNL    C10   13   0.515  -0.054  -0.075
    1UNL    C11   14   0.602   0.045  -0.027
    1UNL    C12   15   0.539   0.154   0.040
    1UNL    C13   16   0.404   0.162   0.067
    1UNL    C14   17   0.319   0.056   0.028
    1UNL    C15   18   0.178   0.022   0.033
    1UNL    C16   19   0.076   0.085   0.115
    1UNL    C17   20  -0.070   0.034   0.093
    1UNL    C18   21  -0.134   0.090  -0.031
    1UNL     N3   22  -0.059  -0.120   0.076
    1UNL    C19   23  -0.195  -0.185   0.074
    1UNL    C20   24  -0.198  -0.344   0.061
    1UNL     H1   25  -0.284   0.386   0.251
    1UNL     H2   26  -0.366   0.218   0.212
    1UNL     H3   27  -0.399   0.371   0.108
    1UNL     H4   28  -0.295   0.244  -0.073
    1UNL     H5   29  -0.470  -0.076   0.062
    1UNL     H6   30  -0.335  -0.193  -0.098
    1UNL     H7   31  -0.234   0.026  -0.205
    1UNL     H8   32  -0.084  -0.181  -0.242
    1UNL     H9   33   0.014  -0.037  -0.234
    1UNL    H10   34   0.026  -0.272  -0.051
    1UNL    H11   35   0.303  -0.201  -0.164
    1UNL    H12   36   0.545  -0.127  -0.147
    1UNL    H13   37   0.709   0.054  -0.044
    1UNL    H14   38   0.602   0.229   0.077
    1UNL    H15   39   0.354   0.240   0.130
    1UNL    H16   40   0.081   0.188   0.093
    1UNL    H17   41   0.095   0.075   0.222
    1UNL    H18   42  -0.137   0.061   0.176
    1UNL    H19   43  -0.063   0.159  -0.088
    1UNL    H20   44  -0.231  -0.154   0.172
    1UNL    H21   45  -0.113  -0.368   0.133
    1UNL    H22   46  -0.185  -0.382  -0.045
    1UNL    H23   47  -0.286  -0.376   0.107
   0.00000   0.00000   0.00000   0.00000   0.00000   0.00000   0.00000   0.00000   0.00000
Generated with MDTraj, t= 84.0
 47
    1UNL     C1    1  -0.359   0.324   0.169
    1UNL     O1    2  -0.243   0.246   0.134
    1UNL     C2    3  -0.270   0.173   0.014
    1UNL     N1    4  -0.385   0.098   0.032
    1UNL     C3    5  -0.386  -0.026  -0.000
    1UNL     C4    6  -0.272  -0.108  -0.045
    1UNL     C5    7  -0.172  -0.022  -0.129
    1UNL     C6    8  -0.048  -0.111  -0.158
    1UNL     C7    9   0.032  -0.146  -0.031
    1UNL     C8   10   0.162  -0.083  -0.028
    1UNL     N2   11   0.272  -0.130  -0.105
    1UNL     C9   12   0.378  -0.058  -0.065
    1UNL    C10   13   0.515  -0.059  -0.100
    1UNL    C11   14   0.600   0.034  -0.039
    1UNL    C12   15   0.548   0.146   0.044
    1UNL    C13   16   0.416   0.143   0.082
    1UNL    C14   17   0.330   0.039   0.032
    1UNL    C15   18   0.191   0.025   0.050
    1UNL    C16   19   0.081   0.101   0.111
    1UNL    C17   20  -0.061   0.039   0.091
    1UNL    C18   21  -0.133   0.093  -0.028
    1UNL     N3   22  -0.051  -0.114   0.085
    1UNL    C19   23  -0.191  -0.172   0.080
    1UNL    C20   24  -0.195  -0.331   0.072
    1UNL     H1   25  -0.322   0.401   0.240
    1UNL     H2   26  -0.428   0.240   0.205
    1UNL     H3   27  -0.400   0.373   0.079
    1UNL     H4   28  -0.298   0.237  -0.073
    1UNL     H5   29  -0.478  -0.071   0.016
    1UNL     H6   30  -0.323  -0.193  -0.106
    1UNL     H7   31  -0.212   0.029  -0.219
    1UNL     H8   32  -0.075  -0.205  -0.210
    1UNL     H9   33   0.026  -0.063  -0.226
    1UNL    H10   34   0.055  -0.258  -0.037
    1UNL    H11   35   0.267  -0.221  -0.154
    1UNL    H12   36   0.550  -0.119  -0.180
    1UNL    H13   37   0.706   0.030  -0.060
    1UNL    H14   38   0.611   0.234   0.071
    1UNL    H15   39   0.366   0.213   0.143
    1UNL    H16   40   0.079   0.199   0.082
    1UNL    H17   41   0.104   0.094   0.221
    1UNL    H18   42  -0.123   0.059   0.180
    1UNL    H19   43  -0.065   0.165  -0.085
    1UNL    H20   44  -0.229  -0.141   0.178
    1UNL    H21   45  -0.142  -0.358   0.171
    1UNL    H22   46  -0.136  -0.364  -0.017
    1UNL    H23   47  -0.294  -0.364   0.073
   0.00000   0.00000   0.00000   0.00000   0.00000   0.00000   0.00000   0.00000   0.00000
Generated with MDTraj, t= 85.0
 47
    1UNL     C1    1  -0.359   0.320   0.190
    1UNL     O1    2  -0.246   0.240   0.140
    1UNL     C2    3  -0.263   0.168   0.015
    1UNL     N1    4  -0.384   0.095   0.007
    1UNL     C3    5  -0.382  -0.033  -0.011
    1UNL     C4    6  -0.267  -0.110  -0.051
    1UNL     C5    7  -0.166  -0.020  -0.126
    1UNL     C6    8  -0.038  -0.102  -0.173
    1UNL     C7    9   0.024  -0.156  -0.043
    1UNL     C8   10   0.167  -0.104  -0.030
    1UNL     N2   11   0.280  -0.140  -0.103
    1UNL     C9   12   0.380  -0.051  -0.070
    1UNL    C10   13   0.516  -0.049  -0.094
    1UNL    C11   14   0.595   0.053  -0.050
    1UNL    C12   15   0.539   0.143   0.056
    1UNL    C13   16   0.402   0.139   0.084
    1UNL    C14   17   0.324   0.040   0.019
    1UNL    C15   18   0.186   0.012   0.039
    1UNL    C16   19   0.090   0.089   0.119
    1UNL    C17   20  -0.057   0.036   0.096
    1UNL    C18   21  -0.133   0.089  -0.030
    1UNL     N3   22  -0.055  -0.108   0.079
    1UNL    C19   23  -0.192  -0.155   0.080
    1UNL    C20   24  -0.204  -0.301   0.112
    1UNL     H1   25  -0.337   0.343   0.294
    1UNL     H2   26  -0.452   0.262   0.169
    1UNL     H3   27  -0.357   0.413   0.133
    1UNL     H4   28  -0.277   0.251  -0.060
    1UNL     H5   29  -0.481  -0.083   0.004
    1UNL     H6   30  -0.301  -0.203  -0.111
    1UNL     H7   31  -0.210   0.024  -0.217
    1UNL     H8   32  -0.061  -0.186  -0.244
    1UNL     H9   33   0.040  -0.043  -0.221
    1UNL    H10   34   0.028  -0.269  -0.042
    1UNL    H11   35   0.292  -0.229  -0.155
    1UNL    H12   36   0.566  -0.136  -0.149
    1UNL    H13   37   0.697   0.067  -0.080
    1UNL    H14   38   0.596   0.213   0.109
    1UNL    H15   39   0.349   0.205   0.152
    1UNL    H16   40   0.094   0.182   0.075
    1UNL    H17   41   0.111   0.103   0.228
    1UNL    H18   42  -0.113   0.072   0.184
    1UNL    H19   43  -0.061   0.165  -0.076
    1UNL    H20   44  -0.223  -0.088   0.164
    1UNL    H21   45  -0.139  -0.324   0.202
    1UNL    H22   46  -0.175  -0.374   0.035
    1UNL    H23   47  -0.304  -0.328   0.140
   0.00000   0.00000   0.00000   0.00000   0.00000   0.00000   0.00000   0.00000   0.00000
Generated with MDTraj, t= 86.0
 47
    1UNL     C1    1  -0.342   0.295   0.202
    1UNL     O1    2  -0.234   0.229   0.135
    1UNL     C2    3  -0.259   0.179   0.005
    1UNL     N1    4  -0.389   0.113  -0.010
    1UNL     C3    5  -0.382  -0.018   0.000
    1UNL     C4    6  -0.273  -0.106  -0.043
    1UNL     C5    7  -0.174  -0.024  -0.122
    1UNL     C6    8  -0.054  -0.113  -0.163
    1UNL     C7    9   0.020  -0.160  -0.038
    1UNL     C8   10   0.158  -0.094  -0.024
    1UNL     N2   11   0.282  -0.144  -0.062
    1UNL     C9   12   0.376  -0.046  -0.048
    1UNL    C10   13   0.512  -0.061  -0.080
    1UNL    C11   14   0.600   0.049  -0.056
    1UNL    C12   15   0.557   0.155   0.019
    1UNL    C13   16   0.425   0.157   0.074
    1UNL    C14   17   0.330   0.062   0.030
    1UNL    C15   18   0.184   0.030   0.032
    1UNL    C16   19   0.076   0.091   0.116
    1UNL    C17   20  -0.064   0.034   0.090
    1UNL    C18   21  -0.132   0.091  -0.037
    1UNL     N3   22  -0.054  -0.119   0.083
    1UNL    C19   23  -0.198  -0.167   0.080
    1UNL    C20   24  -0.209  -0.319   0.072
    1UNL     H1   25  -0.297   0.342   0.288
    1UNL     H2   26  -0.425   0.230   0.225
    1UNL     H3   27  -0.369   0.372   0.133
    1UNL     H4   28  -0.260   0.275  -0.052
    1UNL     H5   29  -0.476  -0.062   0.016
    1UNL     H6   30  -0.314  -0.202  -0.092
    1UNL     H7   31  -0.214   0.022  -0.211
    1UNL     H8   32  -0.084  -0.201  -0.228
    1UNL     H9   33   0.020  -0.061  -0.221
    1UNL    H10   34   0.040  -0.271  -0.043
    1UNL    H11   35   0.291  -0.219  -0.130
    1UNL    H12   36   0.539  -0.157  -0.102
    1UNL    H13   37   0.703   0.044  -0.088
    1UNL    H14   38   0.624   0.237   0.049
    1UNL    H15   39   0.388   0.238   0.133
    1UNL    H16   40   0.074   0.198   0.106
    1UNL    H17   41   0.104   0.067   0.220
    1UNL    H18   42  -0.126   0.069   0.175
    1UNL    H19   43  -0.050   0.154  -0.084
    1UNL    H20   44  -0.249  -0.121   0.168
    1UNL    H21   45  -0.147  -0.370   0.144
    1UNL    H22   46  -0.173  -0.363  -0.021
    1UNL    H23   47  -0.308  -0.372   0.081
   0.00000   0.00000   0.00000   0.00000   0.00000   0.00000   0.00000   0.00000   0.00000
Generated with MDTraj, t= 87.0
 47
    1UNL     C1    1  -0.345   0.302   0.201
    1UNL     O1    2  -0.234   0.261   0.121
    1UNL     C2    3  -0.264   0.178   0.017
    1UNL     N1    4  -0.379   0.096   0.036
    1UNL     C3    5  -0.373  -0.023  -0.013
    1UNL     C4    6  -0.256  -0.102  -0.050
    1UNL     C5    7  -0.158  -0.009  -0.126
    1UNL     C6    8  -0.028  -0.096  -0.164
    1UNL     C7    9   0.026  -0.160  -0.035
    1UNL     C8   10   0.166  -0.113  -0.020
    1UNL     N2   11   0.279  -0.161  -0.077
    1UNL     C9   12   0.374  -0.066  -0.051
    1UNL    C10   13   0.514  -0.067  -0.070
    1UNL    C11   14   0.578   0.051  -0.038
    1UNL    C12   15   0.517   0.165   0.020
    1UNL    C13   16   0.384   0.160   0.051
    1UNL    C14   17   0.318   0.047   0.015
    1UNL    C15   18   0.184   0.009   0.041
    1UNL    C16   19   0.083   0.091   0.115
    1UNL    C17   20  -0.059   0.040   0.094
    1UNL    C18   21  -0.127   0.106  -0.028
    1UNL     N3   22  -0.052  -0.120   0.079
    1UNL    C19   23  -0.190  -0.167   0.071
    1UNL    C20   24  -0.204  -0.323   0.072
    1UNL     H1   25  -0.302   0.376   0.265
    1UNL     H2   26  -0.400   0.228   0.257
    1UNL     H3   27  -0.409   0.350   0.131
    1UNL     H4   28  -0.298   0.245  -0.066
    1UNL     H5   29  -0.473  -0.071  -0.003
    1UNL     H6   30  -0.291  -0.196  -0.108
    1UNL     H7   31  -0.201   0.030  -0.217
    1UNL     H8   32  -0.056  -0.178  -0.238
    1UNL     H9   33   0.053  -0.048  -0.218
    1UNL    H10   34   0.029  -0.271  -0.048
    1UNL    H11   35   0.304  -0.254  -0.109
    1UNL    H12   36   0.563  -0.148  -0.130
    1UNL    H13   37   0.681   0.056  -0.068
    1UNL    H14   38   0.567   0.257   0.052
    1UNL    H15   39   0.342   0.236   0.115
    1UNL    H16   40   0.101   0.201   0.090
    1UNL    H17   41   0.105   0.075   0.220
    1UNL    H18   42  -0.129   0.065   0.176
    1UNL    H19   43  -0.049   0.177  -0.071
    1UNL    H20   44  -0.244  -0.127   0.162
    1UNL    H21   45  -0.149  -0.363   0.153
    1UNL    H22   46  -0.162  -0.360  -0.020
    1UNL    H23   47  -0.315  -0.358   0.077
   0.00000   0.00000   0.00000   0.00000   0.00000   0.00000   0.00000   0.00000   0.00000
Generated with MDTraj, t= 88.0
 47
    1UNL     C1    1  -0.336   0.318   0.183
    1UNL     O1    2  -0.220   0.257   0.121
    1UNL     C2    3  -0.256   0.171   0.007
    1UNL     N1    4  -0.380   0.103   0.027
    1UNL     C3    5  -0.383  -0.025   0.009
    1UNL     C4    6  -0.278  -0.113  -0.045
    1UNL     C5    7  -0.178  -0.034  -0.127
    1UNL     C6    8  -0.046  -0.120  -0.164
    1UNL     C7    9   0.029  -0.155  -0.035
    1UNL     C8   10   0.162  -0.082  -0.028
    1UNL     N2   11   0.276  -0.126  -0.096
    1UNL     C9   12   0.382  -0.058  -0.044
    1UNL    C10   13   0.519  -0.051  -0.090
    1UNL    C11   14   0.594   0.051  -0.049
    1UNL    C12   15   0.537   0.153   0.030
    1UNL    C13   16   0.409   0.150   0.078
    1UNL    C14   17   0.326   0.041   0.043
    1UNL    C15   18   0.186   0.022   0.055
    1UNL    C16   19   0.076   0.091   0.129
    1UNL    C17   20  -0.060   0.031   0.093
    1UNL    C18   21  -0.133   0.080  -0.036
    1UNL     N3   22  -0.056  -0.115   0.079
    1UNL    C19   23  -0.195  -0.169   0.071
    1UNL    C20   24  -0.216  -0.329   0.066
    1UNL     H1   25  -0.314   0.392   0.259
    1UNL     H2   26  -0.411   0.249   0.221
    1UNL     H3   27  -0.384   0.366   0.099
    1UNL     H4   28  -0.274   0.238  -0.078
    1UNL     H5   29  -0.475  -0.065   0.039
    1UNL     H6   30  -0.334  -0.184  -0.116
    1UNL     H7   31  -0.228   0.008  -0.212
    1UNL     H8   32  -0.065  -0.216  -0.220
    1UNL     H9   33   0.019  -0.064  -0.231
    1UNL    H10   34   0.038  -0.266  -0.023
    1UNL    H11   35   0.273  -0.204  -0.160
    1UNL    H12   36   0.545  -0.109  -0.175
    1UNL    H13   37   0.692   0.080  -0.086
    1UNL    H14   38   0.604   0.231   0.059
    1UNL    H15   39   0.381   0.224   0.152
    1UNL    H16   40   0.084   0.197   0.080
    1UNL    H17   41   0.102   0.095   0.234
    1UNL    H18   42  -0.137   0.060   0.168
    1UNL    H19   43  -0.058   0.150  -0.086
    1UNL    H20   44  -0.236  -0.139   0.170
    1UNL    H21   45  -0.164  -0.373   0.148
    1UNL    H22   46  -0.175  -0.348  -0.032
    1UNL    H23   47  -0.330  -0.348   0.064
   0.00000   0.00000   0.00000   0.00000   0.00000   0.00000   0.00000   0.00000   0.00000
Generated with MDTraj, t= 89.0
 47
    1UNL     C1    1  -0.321   0.345   0.157
    1UNL     O1    2  -0.222   0.255   0.122
    1UNL     C2    3  -0.247   0.172   0.008
    1UNL     N1    4  -0.369   0.103   0.021
    1UNL     C3    5  -0.375  -0.024   0.010
    1UNL     C4    6  -0.271  -0.113  -0.037
    1UNL     C5    7  -0.170  -0.034  -0.122
    1UNL     C6    8  -0.052  -0.118  -0.164
    1UNL     C7    9   0.019  -0.162  -0.040
    1UNL     C8   10   0.154  -0.092  -0.038
    1UNL     N2   11   0.273  -0.131  -0.109
    1UNL     C9   12   0.367  -0.027  -0.080
    1UNL    C10   13   0.509  -0.020  -0.111
    1UNL    C11   14   0.584   0.049  -0.026
    1UNL    C12   15   0.531   0.132   0.072
    1UNL    C13   16   0.400   0.142   0.091
    1UNL    C14   17   0.316   0.054   0.021
    1UNL    C15   18   0.177   0.019   0.037
    1UNL    C16   19   0.077   0.076   0.125
    1UNL    C17   20  -0.064   0.025   0.098
    1UNL    C18   21  -0.128   0.083  -0.028
    1UNL     N3   22  -0.059  -0.130   0.090
    1UNL    C19   23  -0.193  -0.175   0.083
    1UNL    C20   24  -0.191  -0.329   0.087
    1UNL     H1   25  -0.297   0.391   0.256
    1UNL     H2   26  -0.421   0.298   0.166
    1UNL     H3   27  -0.331   0.426   0.083
    1UNL     H4   28  -0.258   0.231  -0.083
    1UNL     H5   29  -0.474  -0.066   0.038
    1UNL     H6   30  -0.323  -0.192  -0.101
    1UNL     H7   31  -0.225  -0.001  -0.208
    1UNL     H8   32  -0.087  -0.204  -0.227
    1UNL     H9   33   0.020  -0.065  -0.228
    1UNL    H10   34   0.041  -0.270  -0.050
    1UNL    H11   35   0.272  -0.190  -0.190
    1UNL    H12   36   0.556  -0.076  -0.193
    1UNL    H13   37   0.691   0.047  -0.034
    1UNL    H14   38   0.606   0.181   0.135
    1UNL    H15   39   0.359   0.202   0.169
    1UNL    H16   40   0.087   0.192   0.109
    1UNL    H17   41   0.113   0.048   0.224
    1UNL    H18   42  -0.131   0.041   0.185
    1UNL    H19   43  -0.046   0.149  -0.076
    1UNL    H20   44  -0.233  -0.144   0.182
    1UNL    H21   45  -0.104  -0.360   0.148
    1UNL    H22   46  -0.178  -0.359  -0.018
    1UNL    H23   47  -0.284  -0.370   0.124
   0.00000   0.00000   0.00000   0.00000   0.00000   0.00000   0.00000   0.00000   0.00000
Generated with MDTraj, t= 90.0
 47
    1UNL     C1    1  -0.307   0.355   0.134
    1UNL     O1    2  -0.209   0.265   0.112
    1UNL     C2    3  -0.260   0.170   0.017
    1UNL     N1    4  -0.375   0.090   0.061
    1UNL     C3    5  -0.386  -0.031   0.018
    1UNL     C4    6  -0.277  -0.115  -0.042
    1UNL     C5    7  -0.182  -0.023  -0.121
    1UNL     C6    8  -0.065  -0.102  -0.174
    1UNL     C7    9   0.019  -0.162  -0.058
    1UNL     C8   10   0.159  -0.101  -0.032
    1UNL     N2   11   0.276  -0.131  -0.097
    1UNL     C9   12   0.377  -0.043  -0.061
    1UNL    C10   13   0.512  -0.030  -0.094
    1UNL    C11   14   0.588   0.071  -0.039
    1UNL    C12   15   0.544   0.146   0.064
    1UNL    C13   16   0.410   0.149   0.086
    1UNL    C14   17   0.321   0.048   0.038
    1UNL    C15   18   0.181   0.013   0.046
    1UNL    C16   19   0.075   0.076   0.122
    1UNL    C17   20  -0.064   0.023   0.094
    1UNL    C18   21  -0.131   0.087  -0.024
    1UNL     N3   22  -0.058  -0.127   0.071
    1UNL    C19   23  -0.199  -0.189   0.070
    1UNL    C20   24  -0.204  -0.343   0.082
    1UNL     H1   25  -0.278   0.424   0.219
    1UNL     H2   26  -0.391   0.298   0.181
    1UNL     H3   27  -0.346   0.417   0.049
    1UNL     H4   28  -0.289   0.224  -0.073
    1UNL     H5   29  -0.474  -0.083   0.038
    1UNL     H6   30  -0.315  -0.201  -0.105
    1UNL     H7   31  -0.238   0.024  -0.199
    1UNL     H8   32  -0.110  -0.184  -0.234
    1UNL     H9   33  -0.000  -0.049  -0.247
    1UNL    H10   34   0.018  -0.273  -0.055
    1UNL    H11   35   0.299  -0.205  -0.161
    1UNL    H12   36   0.556  -0.098  -0.166
    1UNL    H13   37   0.689   0.088  -0.074
    1UNL    H14   38   0.602   0.215   0.117
    1UNL    H15   39   0.373   0.236   0.144
    1UNL    H16   40   0.074   0.189   0.108
    1UNL    H17   41   0.103   0.054   0.230
    1UNL    H18   42  -0.132   0.029   0.181
    1UNL    H19   43  -0.053   0.160  -0.066
    1UNL    H20   44  -0.238  -0.148   0.163
    1UNL    H21   45  -0.155  -0.387   0.174
    1UNL    H22   46  -0.141  -0.389   0.002
    1UNL    H23   47  -0.288  -0.401   0.069
   0.00000   0.00000   0.00000   0.00000   0.00000   0.00000   0.00000   0.00000   0.00000
Generated with MDTraj, t= 91.0
 47
    1UNL     C1    1  -0.333   0.345   0.137
    1UNL     O1    2  -0.213   0.275   0.106
    1UNL     C2    3  -0.247   0.173   0.015
    1UNL     N1    4  -0.363   0.104   0.058
    1UNL     C3    5  -0.380  -0.017   0.029
    1UNL     C4    6  -0.282  -0.111  -0.038
    1UNL     C5    7  -0.183  -0.024  -0.118
    1UNL     C6    8  -0.063  -0.108  -0.164
    1UNL     C7    9   0.020  -0.159  -0.038
    1UNL     C8   10   0.158  -0.094  -0.025
    1UNL     N2   11   0.274  -0.141  -0.088
    1UNL     C9   12   0.377  -0.049  -0.055
    1UNL    C10   13   0.516  -0.050  -0.088
    1UNL    C11   14   0.587   0.062  -0.040
    1UNL    C12   15   0.523   0.163   0.026
    1UNL    C13   16   0.395   0.159   0.073
    1UNL    C14   17   0.325   0.043   0.041
    1UNL    C15   18   0.188   0.013   0.058
    1UNL    C16   19   0.086   0.082   0.133
    1UNL    C17   20  -0.061   0.021   0.109
    1UNL    C18   21  -0.126   0.079  -0.017
    1UNL     N3   22  -0.061  -0.130   0.081
    1UNL    C19   23  -0.196  -0.196   0.059
    1UNL    C20   24  -0.190  -0.340   0.028
    1UNL     H1   25  -0.315   0.414   0.225
    1UNL     H2   26  -0.395   0.275   0.196
    1UNL     H3   27  -0.393   0.396   0.058
    1UNL     H4   28  -0.272   0.228  -0.076
    1UNL     H5   29  -0.469  -0.065   0.074
    1UNL     H6   30  -0.339  -0.181  -0.104
    1UNL     H7   31  -0.234   0.026  -0.198
    1UNL     H8   32  -0.102  -0.194  -0.220
    1UNL     H9   33   0.005  -0.063  -0.242
    1UNL    H10   34   0.034  -0.269  -0.040
    1UNL    H11   35   0.297  -0.227  -0.136
    1UNL    H12   36   0.567  -0.127  -0.139
    1UNL    H13   37   0.692   0.065  -0.059
    1UNL    H14   38   0.583   0.249   0.063
    1UNL    H15   39   0.344   0.235   0.123
    1UNL    H16   40   0.078   0.186   0.096
    1UNL    H17   41   0.102   0.090   0.249
    1UNL    H18   42  -0.129   0.029   0.196
    1UNL    H19   43  -0.044   0.145  -0.060
    1UNL    H20   44  -0.249  -0.173   0.150
    1UNL    H21   45  -0.124  -0.407   0.093
    1UNL    H22   46  -0.156  -0.365  -0.074
    1UNL    H23   47  -0.283  -0.385   0.027
   0.00000   0.00000   0.00000   0.00000   0.00000   0.00000   0.00000   0.00000   0.00000
Generated with MDTraj, t= 92.0
 47
    1UNL     C1    1  -0.320   0.346   0.158
    1UNL     O1    2  -0.208   0.274   0.116
    1UNL     C2    3  -0.246   0.164   0.024
    1UNL     N1    4  -0.364   0.087   0.044
    1UNL     C3    5  -0.379  -0.026  -0.004
    1UNL     C4    6  -0.271  -0.109  -0.055
    1UNL     C5    7  -0.165  -0.021  -0.126
    1UNL     C6    8  -0.046  -0.104  -0.168
    1UNL     C7    9   0.021  -0.161  -0.040
    1UNL     C8   10   0.154  -0.105  -0.022
    1UNL     N2   11   0.273  -0.145  -0.088
    1UNL     C9   12   0.375  -0.051  -0.066
    1UNL    C10   13   0.510  -0.038  -0.094
    1UNL    C11   14   0.587   0.065  -0.037
    1UNL    C12   15   0.519   0.168   0.036
    1UNL    C13   16   0.387   0.155   0.069
    1UNL    C14   17   0.313   0.043   0.023
    1UNL    C15   18   0.182   0.004   0.059
    1UNL    C16   19   0.079   0.081   0.129
    1UNL    C17   20  -0.064   0.018   0.107
    1UNL    C18   21  -0.127   0.082  -0.019
    1UNL     N3   22  -0.058  -0.129   0.083
    1UNL    C19   23  -0.202  -0.176   0.070
    1UNL    C20   24  -0.208  -0.332   0.072
    1UNL     H1   25  -0.295   0.426   0.230
    1UNL     H2   26  -0.374   0.279   0.222
    1UNL     H3   27  -0.381   0.384   0.077
    1UNL     H4   28  -0.268   0.218  -0.071
    1UNL     H5   29  -0.471  -0.076   0.006
    1UNL     H6   30  -0.315  -0.187  -0.122
    1UNL     H7   31  -0.200   0.018  -0.219
    1UNL     H8   32  -0.058  -0.175  -0.251
    1UNL     H9   33   0.032  -0.035  -0.213
    1UNL    H10   34   0.032  -0.269  -0.053
    1UNL    H11   35   0.277  -0.226  -0.149
    1UNL    H12   36   0.557  -0.107  -0.172
    1UNL    H13   37   0.695   0.079  -0.049
    1UNL    H14   38   0.578   0.240   0.084
    1UNL    H15   39   0.349   0.222   0.150
    1UNL    H16   40   0.074   0.185   0.092
    1UNL    H17   41   0.098   0.092   0.246
    1UNL    H18   42  -0.131   0.041   0.191
    1UNL    H19   43  -0.050   0.154  -0.060
    1UNL    H20   44  -0.255  -0.137   0.157
    1UNL    H21   45  -0.137  -0.378   0.144
    1UNL    H22   46  -0.170  -0.355  -0.027
    1UNL    H23   47  -0.311  -0.368   0.077
   0.00000   0.00000   0.00000   0.00000   0.00000   0.00000   0.00000   0.00000   0.00000
Generated with MDTraj, t= 93.0
 47
    1UNL     C1    1  -0.325   0.316   0.174
    1UNL     O1    2  -0.221   0.239   0.127
    1UNL     C2    3  -0.244   0.181  -0.004
    1UNL     N1    4  -0.371   0.118  -0.004
    1UNL     C3    5  -0.387  -0.006  -0.006
    1UNL     C4    6  -0.279  -0.109  -0.031
    1UNL     C5    7  -0.177  -0.030  -0.117
    1UNL     C6    8  -0.063  -0.118  -0.162
    1UNL     C7    9   0.022  -0.169  -0.037
    1UNL     C8   10   0.161  -0.102  -0.030
    1UNL     N2   11   0.282  -0.131  -0.092
    1UNL     C9   12   0.379  -0.048  -0.044
    1UNL    C10   13   0.506  -0.031  -0.103
    1UNL    C11   14   0.585   0.072  -0.063
    1UNL    C12   15   0.546   0.158   0.047
    1UNL    C13   16   0.414   0.150   0.092
    1UNL    C14   17   0.323   0.045   0.039
    1UNL    C15   18   0.185   0.009   0.049
    1UNL    C16   19   0.078   0.083   0.125
    1UNL    C17   20  -0.064   0.021   0.097
    1UNL    C18   21  -0.124   0.084  -0.036
    1UNL     N3   22  -0.060  -0.130   0.084
    1UNL    C19   23  -0.198  -0.176   0.085
    1UNL    C20   24  -0.213  -0.333   0.083
    1UNL     H1   25  -0.316   0.327   0.282
    1UNL     H2   26  -0.420   0.273   0.161
    1UNL     H3   27  -0.311   0.409   0.123
    1UNL     H4   28  -0.244   0.263  -0.080
    1UNL     H5   29  -0.491  -0.042  -0.019
    1UNL     H6   30  -0.328  -0.196  -0.081
    1UNL     H7   31  -0.228   0.019  -0.198
    1UNL     H8   32  -0.100  -0.202  -0.220
    1UNL     H9   33   0.002  -0.065  -0.240
    1UNL    H10   34   0.031  -0.277  -0.039
    1UNL    H11   35   0.291  -0.184  -0.178
    1UNL    H12   36   0.518  -0.065  -0.198
    1UNL    H13   37   0.666   0.097  -0.127
    1UNL    H14   38   0.616   0.237   0.084
    1UNL    H15   39   0.377   0.201   0.175
    1UNL    H16   40   0.079   0.192   0.102
    1UNL    H17   41   0.091   0.080   0.240
    1UNL    H18   42  -0.135   0.053   0.176
    1UNL    H19   43  -0.042   0.147  -0.083
    1UNL    H20   44  -0.235  -0.147   0.184
    1UNL    H21   45  -0.148  -0.368   0.159
    1UNL    H22   46  -0.174  -0.357  -0.013
    1UNL    H23   47  -0.324  -0.353   0.095
   0.00000   0.00000   0.00000   0.00000   0.00000   0.00000   0.00000   0.00000   0.00000
Generated with MDTraj, t= 94.0
 47
    1UNL     C1    1  -0.341   0.311   0.181
    1UNL     O1    2  -0.225   0.244   0.137
    1UNL     C2    3  -0.256   0.175   0.018
    1UNL     N1    4  -0.381   0.102   0.006
    1UNL     C3    5  -0.381  -0.016  -0.034
    1UNL     C4    6  -0.257  -0.108  -0.054
    1UNL     C5    7  -0.152  -0.024  -0.125
    1UNL     C6    8  -0.031  -0.111  -0.162
    1UNL     C7    9   0.026  -0.165  -0.022
    1UNL     C8   10   0.162  -0.101  -0.022
    1UNL     N2   11   0.271  -0.143  -0.091
    1UNL     C9   12   0.365  -0.045  -0.074
    1UNL    C10   13   0.496  -0.045  -0.113
    1UNL    C11   14   0.579   0.045  -0.045
    1UNL    C12   15   0.531   0.152   0.044
    1UNL    C13   16   0.397   0.156   0.076
    1UNL    C14   17   0.319   0.052   0.023
    1UNL    C15   18   0.183   0.022   0.038
    1UNL    C16   19   0.084   0.082   0.137
    1UNL    C17   20  -0.055   0.029   0.106
    1UNL    C18   21  -0.122   0.092  -0.023
    1UNL     N3   22  -0.056  -0.120   0.092
    1UNL    C19   23  -0.197  -0.162   0.079
    1UNL    C20   24  -0.211  -0.318   0.088
    1UNL     H1   25  -0.316   0.369   0.269
    1UNL     H2   26  -0.423   0.248   0.205
    1UNL     H3   27  -0.358   0.376   0.095
    1UNL     H4   28  -0.269   0.252  -0.063
    1UNL     H5   29  -0.478  -0.052  -0.058
    1UNL     H6   30  -0.287  -0.202  -0.107
    1UNL     H7   31  -0.193   0.024  -0.211
    1UNL     H8   32  -0.055  -0.188  -0.236
    1UNL     H9   33   0.051  -0.053  -0.215
    1UNL    H10   34   0.048  -0.272  -0.014
    1UNL    H11   35   0.270  -0.226  -0.151
    1UNL    H12   36   0.524  -0.128  -0.185
    1UNL    H13   37   0.683   0.046  -0.082
    1UNL    H14   38   0.600   0.220   0.086
    1UNL    H15   39   0.350   0.238   0.132
    1UNL    H16   40   0.083   0.196   0.131
    1UNL    H17   41   0.119   0.060   0.238
    1UNL    H18   42  -0.120   0.057   0.189
    1UNL    H19   43  -0.037   0.154  -0.067
    1UNL    H20   44  -0.250  -0.112   0.162
    1UNL    H21   45  -0.165  -0.345   0.177
    1UNL    H22   46  -0.150  -0.362   0.012
    1UNL    H23   47  -0.322  -0.352   0.081
   0.00000   0.00000   0.00000   0.00000   0.00000   0.00000   0.00000   0.00000   0.00000
Generated with MDTraj, t= 95.0
 47
    1UNL     C1    1  -0.361   0.309   0.189
    1UNL     O1    2  -0.237   0.256   0.125
    1UNL     C2    3  -0.258   0.176   0.011
    1UNL     N1    4  -0.383   0.102   0.021
    1UNL     C3    5  -0.390  -0.021   0.003
    1UNL     C4    6  -0.276  -0.102  -0.044
    1UNL     C5    7  -0.171  -0.023  -0.126
    1UNL     C6    8  -0.050  -0.105  -0.167
    1UNL     C7    9   0.028  -0.156  -0.046
    1UNL     C8   10   0.170  -0.098  -0.026
    1UNL     N2   11   0.285  -0.152  -0.071
    1UNL     C9   12   0.391  -0.068  -0.039
    1UNL    C10   13   0.529  -0.063  -0.086
    1UNL    C11   14   0.592   0.063  -0.068
    1UNL    C12   15   0.529   0.159   0.017
    1UNL    C13   16   0.399   0.148   0.069
    1UNL    C14   17   0.336   0.031   0.044
    1UNL    C15   18   0.192   0.013   0.053
    1UNL    C16   19   0.081   0.095   0.125
    1UNL    C17   20  -0.058   0.034   0.102
    1UNL    C18   21  -0.134   0.092  -0.029
    1UNL     N3   22  -0.049  -0.123   0.079
    1UNL    C19   23  -0.194  -0.163   0.075
    1UNL    C20   24  -0.210  -0.312   0.059
    1UNL     H1   25  -0.328   0.367   0.277
    1UNL     H2   26  -0.434   0.236   0.220
    1UNL     H3   27  -0.396   0.379   0.110
    1UNL     H4   28  -0.271   0.256  -0.066
    1UNL     H5   29  -0.482  -0.067   0.041
    1UNL     H6   30  -0.313  -0.186  -0.107
    1UNL     H7   31  -0.209   0.022  -0.215
    1UNL     H8   32  -0.070  -0.187  -0.238
    1UNL     H9   33   0.019  -0.038  -0.224
    1UNL    H10   34   0.044  -0.263  -0.050
    1UNL    H11   35   0.294  -0.242  -0.120
    1UNL    H12   36   0.580  -0.152  -0.119
    1UNL    H13   37   0.692   0.078  -0.100
    1UNL    H14   38   0.585   0.248   0.048
    1UNL    H15   39   0.349   0.226   0.121
    1UNL    H16   40   0.093   0.206   0.095
    1UNL    H17   41   0.101   0.093   0.228
    1UNL    H18   42  -0.124   0.056   0.185
    1UNL    H19   43  -0.065   0.166  -0.080
    1UNL    H20   44  -0.226  -0.116   0.170
    1UNL    H21   45  -0.152  -0.374   0.121
    1UNL    H22   46  -0.178  -0.351  -0.035
    1UNL    H23   47  -0.317  -0.348   0.064
   0.00000   0.00000   0.00000   0.00000   0.00000   0.00000   0.00000   0.00000   0.00000
Generated with MDTraj, t= 96.0
 47
    1UNL     C1    1  -0.326   0.313   0.192
    1UNL     O1    2  -0.220   0.250   0.120
    1UNL     C2    3  -0.264   0.170   0.012
    1UNL     N1    4  -0.382   0.086   0.037
    1UNL     C3    5  -0.381  -0.037   0.007
    1UNL     C4    6  -0.267  -0.106  -0.053
    1UNL     C5    7  -0.170  -0.016  -0.133
    1UNL     C6    8  -0.045  -0.101  -0.175
    1UNL     C7    9   0.020  -0.157  -0.038
    1UNL     C8   10   0.157  -0.100  -0.021
    1UNL     N2   11   0.277  -0.147  -0.077
    1UNL     C9   12   0.369  -0.048  -0.053
    1UNL    C10   13   0.505  -0.061  -0.076
    1UNL    C11   14   0.592   0.036  -0.034
    1UNL    C12   15   0.547   0.152   0.036
    1UNL    C13   16   0.408   0.161   0.064
    1UNL    C14   17   0.317   0.061   0.018
    1UNL    C15   18   0.179   0.023   0.038
    1UNL    C16   19   0.072   0.097   0.120
    1UNL    C17   20  -0.064   0.040   0.094
    1UNL    C18   21  -0.135   0.091  -0.032
    1UNL     N3   22  -0.055  -0.112   0.081
    1UNL    C19   23  -0.192  -0.168   0.070
    1UNL    C20   24  -0.196  -0.322   0.066
    1UNL     H1   25  -0.276   0.380   0.267
    1UNL     H2   26  -0.392   0.241   0.245
    1UNL     H3   27  -0.379   0.373   0.111
    1UNL     H4   28  -0.285   0.243  -0.069
    1UNL     H5   29  -0.472  -0.089   0.027
    1UNL     H6   30  -0.302  -0.189  -0.118
    1UNL     H7   31  -0.218   0.031  -0.215
    1UNL     H8   32  -0.073  -0.185  -0.239
    1UNL     H9   33   0.034  -0.046  -0.231
    1UNL    H10   34   0.024  -0.264  -0.031
    1UNL    H11   35   0.297  -0.240  -0.120
    1UNL    H12   36   0.540  -0.142  -0.132
    1UNL    H13   37   0.700   0.019  -0.054
    1UNL    H14   38   0.609   0.232   0.075
    1UNL    H15   39   0.375   0.242   0.129
    1UNL    H16   40   0.073   0.205   0.082
    1UNL    H17   41   0.111   0.092   0.217
    1UNL    H18   42  -0.132   0.064   0.175
    1UNL    H19   43  -0.069   0.167  -0.083
    1UNL    H20   44  -0.229  -0.128   0.169
    1UNL    H21   45  -0.128  -0.377   0.133
    1UNL    H22   46  -0.179  -0.364  -0.031
    1UNL    H23   47  -0.294  -0.351   0.090
   0.00000   0.00000   0.00000   0.00000   0.00000   0.00000   0.00000   0.00000   0.00000
Generated with MDTraj, t= 97.0
 47
    1UNL     C1    1  -0.337   0.322   0.175
    1UNL     O1    2  -0.232   0.250   0.125
    1UNL     C2    3  -0.262   0.181   0.005
    1UNL     N1    4  -0.384   0.103   0.024
    1UNL     C3    5  -0.376  -0.024   0.029
    1UNL     C4    6  -0.269  -0.103  -0.028
    1UNL     C5    7  -0.179  -0.018  -0.124
    1UNL     C6    8  -0.065  -0.111  -0.177
    1UNL     C7    9   0.022  -0.166  -0.053
    1UNL     C8   10   0.160  -0.098  -0.044
    1UNL     N2   11   0.279  -0.133  -0.105
    1UNL     C9   12   0.378  -0.044  -0.066
    1UNL    C10   13   0.515  -0.045  -0.086
    1UNL    C11   14   0.588   0.041  -0.011
    1UNL    C12   15   0.536   0.149   0.066
    1UNL    C13   16   0.400   0.150   0.091
    1UNL    C14   17   0.324   0.056   0.013
    1UNL    C15   18   0.183   0.015   0.030
    1UNL    C16   19   0.084   0.087   0.106
    1UNL    C17   20  -0.054   0.030   0.084
    1UNL    C18   21  -0.123   0.097  -0.037
    1UNL     N3   22  -0.049  -0.129   0.073
    1UNL    C19   23  -0.188  -0.174   0.086
    1UNL    C20   24  -0.198  -0.331   0.090
    1UNL     H1   25  -0.296   0.383   0.260
    1UNL     H2   26  -0.412   0.244   0.203
    1UNL     H3   27  -0.377   0.385   0.089
    1UNL     H4   28  -0.283   0.253  -0.073
    1UNL     H5   29  -0.470  -0.069   0.055
    1UNL     H6   30  -0.324  -0.180  -0.086
    1UNL     H7   31  -0.238   0.019  -0.204
    1UNL     H8   32  -0.113  -0.200  -0.224
    1UNL     H9   33   0.000  -0.065  -0.252
    1UNL    H10   34   0.031  -0.271  -0.054
    1UNL    H11   35   0.302  -0.210  -0.171
    1UNL    H12   36   0.559  -0.107  -0.172
    1UNL    H13   37   0.691   0.045  -0.029
    1UNL    H14   38   0.611   0.211   0.109
    1UNL    H15   39   0.348   0.207   0.166
    1UNL    H16   40   0.095   0.191   0.068
    1UNL    H17   41   0.110   0.080   0.208
    1UNL    H18   42  -0.112   0.044   0.175
    1UNL    H19   43  -0.050   0.158  -0.095
    1UNL    H20   44  -0.224  -0.139   0.186
    1UNL    H21   45  -0.126  -0.356   0.172
    1UNL    H22   46  -0.161  -0.372  -0.003
    1UNL    H23   47  -0.293  -0.356   0.112
   0.00000   0.00000   0.00000   0.00000   0.00000   0.00000   0.00000   0.00000   0.00000
Generated with MDTraj, t= 98.0
 47
    1UNL     C1    1  -0.331   0.345   0.170
    1UNL     O1    2  -0.228   0.260   0.122
    1UNL     C2    3  -0.271   0.173   0.012
    1UNL     N1    4  -0.382   0.091   0.045
    1UNL     C3    5  -0.384  -0.034   0.011
    1UNL     C4    6  -0.281  -0.122  -0.045
    1UNL     C5    7  -0.183  -0.038  -0.129
    1UNL     C6    8  -0.057  -0.122  -0.177
    1UNL     C7    9   0.027  -0.154  -0.052
    1UNL     C8   10   0.155  -0.078  -0.042
    1UNL     N2   11   0.271  -0.121  -0.103
    1UNL     C9   12   0.379  -0.048  -0.060
    1UNL    C10   13   0.518  -0.046  -0.093
    1UNL    C11   14   0.600   0.039  -0.036
    1UNL    C12   15   0.550   0.126   0.059
    1UNL    C13   16   0.419   0.142   0.092
    1UNL    C14   17   0.326   0.049   0.038
    1UNL    C15   18   0.186   0.020   0.057
    1UNL    C16   19   0.072   0.106   0.118
    1UNL    C17   20  -0.069   0.038   0.093
    1UNL    C18   21  -0.146   0.086  -0.036
    1UNL     N3   22  -0.047  -0.114   0.071
    1UNL    C19   23  -0.183  -0.178   0.070
    1UNL    C20   24  -0.190  -0.330   0.080
    1UNL     H1   25  -0.293   0.395   0.260
    1UNL     H2   26  -0.413   0.274   0.184
    1UNL     H3   27  -0.364   0.420   0.095
    1UNL     H4   28  -0.308   0.239  -0.066
    1UNL     H5   29  -0.472  -0.086   0.049
    1UNL     H6   30  -0.332  -0.198  -0.108
    1UNL     H7   31  -0.226  -0.005  -0.219
    1UNL     H8   32  -0.085  -0.218  -0.227
    1UNL     H9   33   0.002  -0.063  -0.247
    1UNL    H10   34   0.040  -0.258  -0.045
    1UNL    H11   35   0.293  -0.202  -0.163
    1UNL    H12   36   0.544  -0.104  -0.172
    1UNL    H13   37   0.709   0.034  -0.058
    1UNL    H14   38   0.617   0.197   0.110
    1UNL    H15   39   0.386   0.211   0.167
    1UNL    H16   40   0.072   0.200   0.075
    1UNL    H17   41   0.094   0.113   0.223
    1UNL    H18   42  -0.128   0.060   0.183
    1UNL    H19   43  -0.081   0.166  -0.078
    1UNL    H20   44  -0.228  -0.136   0.165
    1UNL    H21   45  -0.130  -0.349   0.172
    1UNL    H22   46  -0.138  -0.371  -0.004
    1UNL    H23   47  -0.288  -0.369   0.092
   0.00000   0.00000   0.00000   0.00000   0.00000   0.00000   0.00000   0.00000   0.00000
Generated with MDTraj, t= 99.0
 47
    1UNL     C1    1  -0.364   0.356   0.158
    1UNL     O1    2  -0.239   0.281   0.127
    1UNL     C2    3  -0.254   0.177   0.024
    1UNL     N1    4  -0.369   0.094   0.051
    1UNL     C3    5  -0.381  -0.028   0.008
    1UNL     C4    6  -0.271  -0.108  -0.044
    1UNL     C5    7  -0.170  -0.019  -0.120
    1UNL     C6    8  -0.050  -0.105  -0.171
    1UNL     C7    9   0.026  -0.164  -0.044
    1UNL     C8   10   0.159  -0.098  -0.039
    1UNL     N2   11   0.277  -0.146  -0.092
    1UNL     C9   12   0.378  -0.054  -0.063
    1UNL    C10   13   0.517  -0.052  -0.092
    1UNL    C11   14   0.588   0.044  -0.020
    1UNL    C12   15   0.529   0.145   0.053
    1UNL    C13   16   0.398   0.155   0.065
    1UNL    C14   17   0.325   0.043   0.023
    1UNL    C15   18   0.183   0.016   0.031
    1UNL    C16   19   0.084   0.079   0.123
    1UNL    C17   20  -0.057   0.023   0.097
    1UNL    C18   21  -0.130   0.088  -0.021
    1UNL     N3   22  -0.051  -0.128   0.079
    1UNL    C19   23  -0.190  -0.179   0.076
    1UNL    C20   24  -0.182  -0.325   0.060
    1UNL     H1   25  -0.341   0.429   0.232
    1UNL     H2   26  -0.427   0.278   0.194
    1UNL     H3   27  -0.424   0.401   0.079
    1UNL     H4   28  -0.288   0.227  -0.066
    1UNL     H5   29  -0.475  -0.076   0.024
    1UNL     H6   30  -0.304  -0.192  -0.109
    1UNL     H7   31  -0.216   0.017  -0.207
    1UNL     H8   32  -0.084  -0.183  -0.245
    1UNL     H9   33   0.019  -0.045  -0.229
    1UNL    H10   34   0.042  -0.267  -0.062
    1UNL    H11   35   0.293  -0.217  -0.165
    1UNL    H12   36   0.568  -0.142  -0.138
    1UNL    H13   37   0.693   0.040  -0.017
    1UNL    H14   38   0.592   0.220   0.094
    1UNL    H15   39   0.350   0.248   0.099
    1UNL    H16   40   0.074   0.176   0.097
    1UNL    H17   41   0.105   0.077   0.229
    1UNL    H18   42  -0.116   0.037   0.188
    1UNL    H19   43  -0.055   0.153  -0.070
    1UNL    H20   44  -0.234  -0.153   0.175
    1UNL    H21   45  -0.105  -0.366   0.120
    1UNL    H22   46  -0.153  -0.355  -0.036
    1UNL    H23   47  -0.269  -0.389   0.090
   0.00000   0.00000   0.00000   0.00000   0.00000   0.00000   0.00000   0.00000   0.00000
