1TPCN00606
12
    1res  C1    1   -0.306   0.306   0.034
    1res  C2    2   -0.344   0.066  -0.038
    1res  C3    3   -0.212  -0.166  -0.110
    1res  C4    4   -0.220  -0.195   0.112
    1res  C5    5    0.099  -0.233   0.025
    1res  C6    6    0.066  -0.474  -0.035
    1res  C7    7    0.317  -0.353   0.055
    1res  C8    8    0.091   0.141   0.006
    1res  C9    9   -0.000   0.028   0.002
    1res  C10   10    0.263   0.068   0.089
    1res  C11   11    0.446   0.350   0.133
    1res  C12   12   -0.113   0.032  -0.220
  10.00000  10.00000  10.00000
