1TPCN03917
30
    1res  C1    1   -0.639   0.342  -0.238
    1res  C2    2   -0.793   0.069  -0.260
    1res  C3    3   -0.533   0.002  -0.196
    1res  C4    4   -0.683   0.108   0.031
    1res  C5    5   -0.963   0.131   0.177
    1res  C6    6   -1.159   0.054  -0.005
    1res  C7    7   -0.987  -0.150   0.155
    1res  C8    8   -0.865  -0.105   0.354
    1res  C9    9   -0.745   0.079   0.351
    1res  C10   10   -0.545  -0.208  -0.074
    1res  C11   11   -0.370  -0.021  -0.061
    1res  C12   12   -0.421  -0.081   0.205
    1res  C13   13   -0.201   0.179  -0.063
    1res  C14   14   -0.164  -0.108  -0.114
    1res  C15   15    0.079  -0.036   0.103
    1res  C16   16    0.190  -0.003  -0.145
    1res  C17   17    0.366  -0.129  -0.005
    1res  C18   18    0.548  -0.054   0.015
    1res  C19   19    0.713  -0.055  -0.187
    1res  C20   20    0.834  -0.011   0.022
    1res  C21   21    1.097   0.014   0.117
    1res  C22   22    1.051   0.296   0.170
    1res  C23   23    1.344   0.126   0.076
    1res  C24   24    1.246   0.166  -0.148
    1res  C25   25    1.135  -0.048  -0.172
    1res  C26   26    0.764   0.114   0.211
    1res  C27   27    0.548   0.006   0.247
    1res  C28   28    0.251  -0.317   0.109
    1res  C29   29   -0.117  -0.292   0.096
    1res  C30   30   -0.428   0.205  -0.370
  10.00000  10.00000  10.00000
