1TPCN02591
10
    1res  C1    1   -0.375   0.209   0.038
    1res  C2    2   -0.555  -0.014  -0.013
    1res  C3    3   -0.336  -0.189  -0.162
    1res  C4    4   -0.115  -0.153   0.000
    1res  C5    5    0.048   0.059  -0.101
    1res  C6    6    0.329   0.001   0.078
    1res  C7    7    0.430   0.240   0.111
    1res  C8    8    0.548  -0.105   0.002
    1res  C9    9    0.345  -0.195  -0.115
    1res  C10   10   -0.295  -0.159   0.112
  10.00000  10.00000  10.00000
