Generated with MDTraj, t= 0.0
 136
    1UNL     C1    1  -0.994   0.401   0.209
    1UNL     C2    2  -0.974   0.289   0.113
    1UNL     C3    3  -1.038   0.286  -0.003
    1UNL     C4    4  -1.133   0.391  -0.048
    1UNL     O1    5  -1.077   0.521  -0.043
    1UNL     C5    6  -0.877   0.181   0.149
    1UNL     C6    7  -0.738   0.204   0.088
    1UNL     C7    8  -0.640   0.098   0.122
    1UNL     C8    9  -0.513   0.097   0.083
    1UNL     C9   10  -0.454   0.204  -0.002
    1UNL    C10   11  -0.427  -0.018   0.119
    1UNL     O2   12  -0.477  -0.121   0.158
    1UNL     O3   13  -0.293   0.001   0.100
    1UNL    C11   14  -0.220  -0.119   0.116
    1UNL    C12   15  -0.073  -0.085   0.155
    1UNL     O4   16  -0.016   0.005   0.061
    1UNL    C13   17  -0.055   0.141   0.080
    1UNL    C14   18   0.060   0.217   0.150
    1UNL     O5   19   0.031   0.356   0.163
    1UNL    C15   20   0.190   0.196   0.067
    1UNL    C16   21   0.276   0.085   0.125
    1UNL     O6   22   0.163   0.169  -0.073
    1UNL    C17   23   0.054   0.245  -0.127
    1UNL     O7   24   0.043   0.236  -0.267
    1UNL    C18   25   0.169   0.245  -0.330
    1UNL    C19   26   0.227   0.382  -0.324
    1UNL    C20   27   0.339   0.417  -0.262
    1UNL    C21   28   0.382   0.559  -0.264
    1UNL    C22   29   0.425   0.318  -0.190
    1UNL    C23   30   0.521   0.243  -0.283
    1UNL    C24   31   0.613   0.152  -0.210
    1UNL    C25   32   0.694   0.063  -0.268
    1UNL    C26   33   0.694   0.041  -0.415
    1UNL    C27   34   0.785  -0.018  -0.182
    1UNL     O8   35   0.813   0.045  -0.058
    1UNL    C28   36   0.902  -0.033   0.019
    1UNL     O9   37   0.874  -0.174   0.015
    1UNL    C29   38   0.973  -0.254   0.083
    1UNL    C30   39   0.945  -0.402   0.066
    1UNL    C31   40   0.981  -0.214   0.233
    1UNL    O10   41   1.079  -0.289   0.303
    1UNL    C32   42   1.010  -0.063   0.246
    1UNL    O11   43   1.010  -0.025   0.382
    1UNL    C33   44   0.906   0.017   0.166
    1UNL    O12   45   0.932   0.156   0.176
    1UNL    C34   46  -0.082   0.207  -0.058
    1UNL    O13   47  -0.158   0.120  -0.138
    1UNL    O14   48   0.003  -0.205   0.172
    1UNL    C35   49   0.004  -0.298   0.060
    1UNL    C36   50  -0.037  -0.436   0.107
    1UNL    C37   51  -0.084  -0.252  -0.061
    1UNL    O15   52  -0.019  -0.155  -0.141
    1UNL    C38   53  -0.226  -0.207  -0.013
    1UNL    O16   54  -0.307  -0.322   0.014
    1UNL    C39   55  -0.360  -0.387  -0.101
    1UNL    O17   56  -0.384  -0.526  -0.075
    1UNL    C40   57  -0.461  -0.546   0.046
    1UNL    C41   58  -0.530  -0.681   0.045
    1UNL    C42   59  -0.563  -0.429   0.070
    1UNL    O18   60  -0.671  -0.467   0.153
    1UNL    C43   61  -0.614  -0.377  -0.067
    1UNL    O19   62  -0.716  -0.282  -0.051
    1UNL    C44   63  -0.493  -0.318  -0.147
    1UNL    O20   64  -0.485  -0.180  -0.128
    1UNL     H1   65  -1.094   0.398   0.253
    1UNL     H2   66  -0.984   0.497   0.158
    1UNL     H3   67  -0.921   0.398   0.290
    1UNL     H4   68  -1.018   0.203  -0.070
    1UNL     H5   69  -1.222   0.389   0.017
    1UNL     H6   70  -1.167   0.371  -0.150
    1UNL     H7   71  -1.141   0.588  -0.079
    1UNL     H8   72  -0.869   0.173   0.258
    1UNL     H9   73  -0.916   0.084   0.115
    1UNL    H10   74  -0.747   0.212  -0.021
    1UNL    H11   75  -0.699   0.301   0.122
    1UNL    H12   76  -0.675   0.014   0.180
    1UNL    H13   77  -0.520   0.229  -0.085
    1UNL    H14   78  -0.435   0.294   0.056
    1UNL    H15   79  -0.359   0.170  -0.044
    1UNL    H16   80  -0.268  -0.175   0.198
    1UNL    H17   81  -0.071  -0.035   0.252
    1UNL    H18   82  -0.147   0.143   0.141
    1UNL    H19   83   0.075   0.177   0.251
    1UNL    H20   84  -0.052   0.369   0.214
    1UNL    H21   85   0.246   0.291   0.068
    1UNL    H22   86   0.366   0.070   0.066
    1UNL    H23   87   0.220  -0.009   0.123
    1UNL    H24   88   0.304   0.105   0.228
    1UNL    H25   89   0.078   0.350  -0.104
    1UNL    H26   90   0.234   0.171  -0.283
    1UNL    H27   91   0.155   0.214  -0.434
    1UNL    H28   92   0.170   0.460  -0.372
    1UNL    H29   93   0.318   0.621  -0.201
    1UNL    H30   94   0.379   0.600  -0.365
    1UNL    H31   95   0.485   0.570  -0.228
    1UNL    H32   96   0.483   0.370  -0.113
    1UNL    H33   97   0.363   0.247  -0.135
    1UNL    H34   98   0.463   0.185  -0.357
    1UNL    H35   99   0.579   0.315  -0.341
    1UNL    H36  100   0.619   0.162  -0.103
    1UNL    H37  101   0.597   0.004  -0.449
    1UNL    H38  102   0.770  -0.032  -0.443
    1UNL    H39  103   0.715   0.134  -0.468
    1UNL    H40  104   0.881  -0.035  -0.233
    1UNL    H41  105   0.740  -0.115  -0.160
    1UNL    H42  106   1.001  -0.020  -0.026
    1UNL    H43  107   1.070  -0.230   0.036
    1UNL    H44  108   0.847  -0.426   0.109
    1UNL    H45  109   0.943  -0.430  -0.039
    1UNL    H46  110   1.019  -0.463   0.118
    1UNL    H47  111   0.884  -0.236   0.280
    1UNL    H48  112   1.095  -0.245   0.389
    1UNL    H49  113   1.110  -0.043   0.207
    1UNL    H50  114   1.000   0.073   0.387
    1UNL    H51  115   0.807   0.001   0.211
    1UNL    H52  116   1.000   0.181   0.111
    1UNL    H53  117  -0.143   0.297  -0.046
    1UNL    H54  118  -0.112   0.033  -0.141
    1UNL    H55  119   0.109  -0.299   0.027
    1UNL    H56  120   0.024  -0.468   0.192
    1UNL    H57  121  -0.141  -0.434   0.140
    1UNL    H58  122  -0.028  -0.510   0.028
    1UNL    H59  123  -0.097  -0.339  -0.127
    1UNL    H60  124   0.031  -0.093  -0.084
    1UNL    H61  125  -0.274  -0.149  -0.092
    1UNL    H62  126  -0.285  -0.383  -0.181
    1UNL    H63  127  -0.386  -0.544   0.127
    1UNL    H64  128  -0.586  -0.697   0.137
    1UNL    H65  129  -0.458  -0.762   0.032
    1UNL    H66  130  -0.600  -0.686  -0.038
    1UNL    H67  131  -0.511  -0.346   0.120
    1UNL    H68  132  -0.718  -0.388   0.186
    1UNL    H69  133  -0.656  -0.462  -0.123
    1UNL    H70  134  -0.793  -0.323  -0.005
    1UNL    H71  135  -0.508  -0.333  -0.255
    1UNL    H72  136  -0.489  -0.162  -0.031
   0.00000   0.00000   0.00000   0.00000   0.00000   0.00000   0.00000   0.00000   0.00000
Generated with MDTraj, t= 1.0
 136
    1UNL     C1    1  -1.010   0.400   0.218
    1UNL     C2    2  -0.983   0.281   0.123
    1UNL     C3    3  -1.048   0.274   0.007
    1UNL     C4    4  -1.140   0.381  -0.036
    1UNL     O1    5  -1.079   0.497  -0.089
    1UNL     C5    6  -0.883   0.179   0.168
    1UNL     C6    7  -0.733   0.229   0.151
    1UNL     C7    8  -0.640   0.116   0.162
    1UNL     C8    9  -0.527   0.105   0.091
    1UNL     C9   10  -0.470   0.201  -0.011
    1UNL    C10   11  -0.439  -0.018   0.110
    1UNL     O2   12  -0.495  -0.126   0.130
    1UNL     O3   13  -0.302   0.012   0.112
    1UNL    C11   14  -0.223  -0.108   0.118
    1UNL    C12   15  -0.081  -0.079   0.163
    1UNL     O4   16  -0.016   0.014   0.068
    1UNL    C13   17  -0.065   0.148   0.080
    1UNL    C14   18   0.058   0.233   0.150
    1UNL     O5   19   0.009   0.362   0.155
    1UNL    C15   20   0.185   0.211   0.063
    1UNL    C16   21   0.270   0.095   0.110
    1UNL     O6   22   0.154   0.198  -0.085
    1UNL    C17   23   0.043   0.276  -0.130
    1UNL     O7   24   0.041   0.266  -0.271
    1UNL    C18   25   0.167   0.254  -0.328
    1UNL    C19   26   0.242   0.386  -0.326
    1UNL    C20   27   0.348   0.423  -0.251
    1UNL    C21   28   0.408   0.555  -0.283
    1UNL    C22   29   0.428   0.313  -0.181
    1UNL    C23   30   0.490   0.215  -0.277
    1UNL    C24   31   0.598   0.134  -0.210
    1UNL    C25   32   0.693   0.066  -0.279
    1UNL    C26   33   0.676   0.048  -0.427
    1UNL    C27   34   0.795  -0.013  -0.198
    1UNL     O8   35   0.790   0.016  -0.054
    1UNL    C28   36   0.899  -0.047   0.016
    1UNL     O9   37   0.894  -0.195  -0.001
    1UNL    C29   38   0.989  -0.267   0.087
    1UNL    C30   39   0.993  -0.413   0.073
    1UNL    C31   40   0.976  -0.226   0.240
    1UNL    O10   41   1.069  -0.307   0.317
    1UNL    C32   42   1.000  -0.078   0.251
    1UNL    O11   43   0.989  -0.033   0.385
    1UNL    C33   44   0.898  -0.001   0.163
    1UNL    O12   45   0.918   0.132   0.175
    1UNL    C34   46  -0.085   0.213  -0.063
    1UNL    O13   47  -0.155   0.124  -0.160
    1UNL    O14   48  -0.007  -0.200   0.186
    1UNL    C35   49   0.001  -0.291   0.072
    1UNL    C36   50  -0.047  -0.435   0.119
    1UNL    C37   51  -0.081  -0.240  -0.055
    1UNL    O15   52  -0.015  -0.142  -0.126
    1UNL    C38   53  -0.229  -0.195  -0.013
    1UNL    O16   54  -0.311  -0.313   0.006
    1UNL    C39   55  -0.350  -0.386  -0.114
    1UNL    O17   56  -0.363  -0.525  -0.070
    1UNL    C40   57  -0.429  -0.541   0.047
    1UNL    C41   58  -0.487  -0.684   0.069
    1UNL    C42   59  -0.537  -0.431   0.065
    1UNL    O18   60  -0.647  -0.472   0.140
    1UNL    C43   61  -0.598  -0.379  -0.068
    1UNL    O19   62  -0.692  -0.279  -0.051
    1UNL    C44   63  -0.483  -0.332  -0.167
    1UNL    O20   64  -0.483  -0.187  -0.168
    1UNL     H1   65  -0.930   0.405   0.291
    1UNL     H2   66  -1.096   0.380   0.275
    1UNL     H3   67  -1.036   0.490   0.153
    1UNL     H4   68  -1.014   0.201  -0.057
    1UNL     H5   69  -1.206   0.407   0.044
    1UNL     H6   70  -1.208   0.345  -0.112
    1UNL     H7   71  -0.993   0.500  -0.042
    1UNL     H8   72  -0.903   0.159   0.274
    1UNL     H9   73  -0.902   0.091   0.115
    1UNL    H10   74  -0.717   0.282   0.057
    1UNL    H11   75  -0.711   0.297   0.235
    1UNL    H12   76  -0.667   0.043   0.238
    1UNL    H13   77  -0.397   0.139  -0.061
    1UNL    H14   78  -0.540   0.262  -0.070
    1UNL    H15   79  -0.399   0.280   0.022
    1UNL    H16   80  -0.267  -0.174   0.191
    1UNL    H17   81  -0.067  -0.020   0.258
    1UNL    H18   82  -0.156   0.145   0.140
    1UNL    H19   83   0.088   0.201   0.253
    1UNL    H20   84  -0.075   0.370   0.195
    1UNL    H21   85   0.239   0.305   0.065
    1UNL    H22   86   0.356   0.131   0.159
    1UNL    H23   87   0.297   0.015   0.035
    1UNL    H24   88   0.224   0.040   0.191
    1UNL    H25   89   0.060   0.380  -0.103
    1UNL    H26   90   0.223   0.185  -0.264
    1UNL    H27   91   0.165   0.220  -0.432
    1UNL    H28   92   0.203   0.449  -0.409
    1UNL    H29   93   0.487   0.564  -0.215
    1UNL    H30   94   0.337   0.640  -0.260
    1UNL    H31   95   0.438   0.583  -0.386
    1UNL    H32   96   0.515   0.355  -0.127
    1UNL    H33   97   0.378   0.268  -0.095
    1UNL    H34   98   0.418   0.149  -0.325
    1UNL    H35   99   0.536   0.272  -0.358
    1UNL    H36  100   0.602   0.133  -0.103
    1UNL    H37  101   0.580  -0.000  -0.446
    1UNL    H38  102   0.747  -0.009  -0.467
    1UNL    H39  103   0.682   0.153  -0.472
    1UNL    H40  104   0.896   0.008  -0.226
    1UNL    H41  105   0.781  -0.119  -0.203
    1UNL    H42  106   0.997  -0.003  -0.017
    1UNL    H43  107   1.088  -0.232   0.059
    1UNL    H44  108   0.906  -0.459   0.116
    1UNL    H45  109   0.985  -0.436  -0.039
    1UNL    H46  110   1.069  -0.463   0.129
    1UNL    H47  111   0.888  -0.258   0.292
    1UNL    H48  112   1.083  -0.269   0.410
    1UNL    H49  113   1.105  -0.052   0.219
    1UNL    H50  114   1.024   0.062   0.395
    1UNL    H51  115   0.795  -0.009   0.203
    1UNL    H52  116   0.994   0.147   0.123
    1UNL    H53  117  -0.158   0.291  -0.059
    1UNL    H54  118  -0.111   0.037  -0.151
    1UNL    H55  119   0.109  -0.277   0.040
    1UNL    H56  120   0.029  -0.474   0.186
    1UNL    H57  121  -0.142  -0.450   0.161
    1UNL    H58  122  -0.028  -0.506   0.034
    1UNL    H59  123  -0.067  -0.313  -0.135
    1UNL    H60  124   0.028  -0.091  -0.055
    1UNL    H61  125  -0.266  -0.125  -0.087
    1UNL    H62  126  -0.272  -0.369  -0.189
    1UNL    H63  127  -0.369  -0.530   0.139
    1UNL    H64  128  -0.555  -0.686   0.150
    1UNL    H65  129  -0.403  -0.760   0.084
    1UNL    H66  130  -0.551  -0.721  -0.008
    1UNL    H67  131  -0.488  -0.344   0.119
    1UNL    H68  132  -0.708  -0.405   0.176
    1UNL    H69  133  -0.650  -0.455  -0.122
    1UNL    H70  134  -0.763  -0.321  -0.002
    1UNL    H71  135  -0.509  -0.349  -0.276
    1UNL    H72  136  -0.516  -0.165  -0.071
   0.00000   0.00000   0.00000   0.00000   0.00000   0.00000   0.00000   0.00000   0.00000
Generated with MDTraj, t= 2.0
 136
    1UNL     C1    1  -1.011   0.389   0.232
    1UNL     C2    2  -0.981   0.279   0.142
    1UNL     C3    3  -1.032   0.270   0.020
    1UNL     C4    4  -1.139   0.365  -0.038
    1UNL     O1    5  -1.082   0.472  -0.116
    1UNL     C5    6  -0.888   0.176   0.192
    1UNL     C6    7  -0.747   0.227   0.160
    1UNL     C7    8  -0.640   0.119   0.169
    1UNL     C8    9  -0.527   0.119   0.097
    1UNL     C9   10  -0.489   0.207  -0.012
    1UNL    C10   11  -0.444  -0.002   0.106
    1UNL     O2   12  -0.486  -0.111   0.139
    1UNL     O3   13  -0.315   0.015   0.077
    1UNL    C11   14  -0.224  -0.099   0.096
    1UNL    C12   15  -0.081  -0.059   0.153
    1UNL     O4   16  -0.018   0.038   0.066
    1UNL    C13   17  -0.074   0.165   0.074
    1UNL    C14   18   0.036   0.253   0.152
    1UNL     O5   19   0.009   0.388   0.156
    1UNL    C15   20   0.171   0.225   0.078
    1UNL    C16   21   0.248   0.114   0.142
    1UNL     O6   22   0.142   0.195  -0.067
    1UNL    C17   23   0.038   0.279  -0.127
    1UNL     O7   24   0.025   0.288  -0.269
    1UNL    C18   25   0.150   0.284  -0.331
    1UNL    C19   26   0.236   0.408  -0.310
    1UNL    C20   27   0.365   0.413  -0.277
    1UNL    C21   28   0.421   0.553  -0.280
    1UNL    C22   29   0.430   0.301  -0.204
    1UNL    C23   30   0.511   0.205  -0.292
    1UNL    C24   31   0.598   0.110  -0.221
    1UNL    C25   32   0.698   0.038  -0.273
    1UNL    C26   33   0.709   0.009  -0.420
    1UNL    C27   34   0.781  -0.039  -0.184
    1UNL     O8   35   0.805   0.012  -0.055
    1UNL    C28   36   0.903  -0.059   0.019
    1UNL     O9   37   0.895  -0.200   0.001
    1UNL    C29   38   1.004  -0.270   0.078
    1UNL    C30   39   0.996  -0.414   0.047
    1UNL    C31   40   0.976  -0.242   0.231
    1UNL    O10   41   1.077  -0.300   0.307
    1UNL    C32   42   0.981  -0.091   0.255
    1UNL    O11   43   0.970  -0.053   0.396
    1UNL    C33   44   0.881  -0.014   0.163
    1UNL    O12   45   0.882   0.121   0.173
    1UNL    C34   46  -0.092   0.220  -0.063
    1UNL    O13   47  -0.160   0.112  -0.140
    1UNL    O14   48  -0.003  -0.174   0.182
    1UNL    C35   49   0.012  -0.271   0.074
    1UNL    C36   50  -0.042  -0.405   0.138
    1UNL    C37   51  -0.061  -0.235  -0.059
    1UNL    O15   52   0.007  -0.148  -0.132
    1UNL    C38   53  -0.211  -0.186  -0.034
    1UNL    O16   54  -0.291  -0.306   0.001
    1UNL    C39   55  -0.334  -0.378  -0.110
    1UNL    O17   56  -0.347  -0.527  -0.074
    1UNL    C40   57  -0.420  -0.548   0.052
    1UNL    C41   58  -0.479  -0.689   0.055
    1UNL    C42   59  -0.534  -0.433   0.067
    1UNL    O18   60  -0.640  -0.478   0.148
    1UNL    C43   61  -0.592  -0.391  -0.076
    1UNL    O19   62  -0.708  -0.315  -0.077
    1UNL    C44   63  -0.469  -0.318  -0.153
    1UNL    O20   64  -0.483  -0.183  -0.142
    1UNL     H1   65  -1.000   0.488   0.189
    1UNL     H2   66  -0.945   0.403   0.312
    1UNL     H3   67  -1.117   0.364   0.270
    1UNL     H4   68  -0.997   0.189  -0.055
    1UNL     H5   69  -1.194   0.408   0.043
    1UNL     H6   70  -1.207   0.316  -0.105
    1UNL     H7   71  -1.003   0.513  -0.071
    1UNL     H8   72  -0.901   0.151   0.296
    1UNL     H9   73  -0.900   0.091   0.135
    1UNL    H10   74  -0.762   0.262   0.057
    1UNL    H11   75  -0.717   0.314   0.223
    1UNL    H12   76  -0.654   0.044   0.244
    1UNL    H13   77  -0.385   0.215  -0.007
    1UNL    H14   78  -0.546   0.183  -0.104
    1UNL    H15   79  -0.523   0.312   0.008
    1UNL    H16   80  -0.283  -0.164   0.160
    1UNL    H17   81  -0.106   0.014   0.239
    1UNL    H18   82  -0.166   0.160   0.134
    1UNL    H19   83   0.038   0.212   0.256
    1UNL    H20   84  -0.084   0.396   0.187
    1UNL    H21   85   0.224   0.321   0.084
    1UNL    H22   86   0.206   0.096   0.236
    1UNL    H23   87   0.356   0.142   0.153
    1UNL    H24   88   0.245   0.022   0.085
    1UNL    H25   89   0.065   0.379  -0.091
    1UNL    H26   90   0.203   0.195  -0.289
    1UNL    H27   91   0.132   0.269  -0.438
    1UNL    H28   92   0.186   0.492  -0.345
    1UNL    H29   93   0.512   0.544  -0.326
    1UNL    H30   94   0.449   0.574  -0.172
    1UNL    H31   95   0.363   0.646  -0.303
    1UNL    H32   96   0.492   0.344  -0.124
    1UNL    H33   97   0.360   0.250  -0.133
    1UNL    H34   98   0.447   0.154  -0.362
    1UNL    H35   99   0.577   0.265  -0.355
    1UNL    H36  100   0.582   0.117  -0.112
    1UNL    H37  101   0.620  -0.003  -0.480
    1UNL    H38  102   0.760  -0.084  -0.437
    1UNL    H39  103   0.776   0.088  -0.462
    1UNL    H40  104   0.879  -0.041  -0.227
    1UNL    H41  105   0.743  -0.138  -0.166
    1UNL    H42  106   1.007  -0.022  -0.004
    1UNL    H43  107   1.092  -0.227   0.039
    1UNL    H44  108   0.902  -0.463   0.068
    1UNL    H45  109   1.010  -0.424  -0.068
    1UNL    H46  110   1.058  -0.468   0.115
    1UNL    H47  111   0.887  -0.285   0.270
    1UNL    H48  112   1.079  -0.252   0.388
    1UNL    H49  113   1.084  -0.056   0.223
    1UNL    H50  114   0.877  -0.023   0.420
    1UNL    H51  115   0.769  -0.029   0.168
    1UNL    H52  116   0.956   0.152   0.129
    1UNL    H53  117  -0.167   0.294  -0.056
    1UNL    H54  118  -0.108   0.025  -0.129
    1UNL    H55  119   0.127  -0.276   0.070
    1UNL    H56  120   0.015  -0.430   0.228
    1UNL    H57  121  -0.141  -0.419   0.159
    1UNL    H58  122   0.003  -0.486   0.072
    1UNL    H59  123  -0.070  -0.329  -0.113
    1UNL    H60  124   0.057  -0.081  -0.074
    1UNL    H61  125  -0.261  -0.135  -0.113
    1UNL    H62  126  -0.264  -0.367  -0.194
    1UNL    H63  127  -0.336  -0.541   0.126
    1UNL    H64  128  -0.516  -0.715   0.153
    1UNL    H65  129  -0.402  -0.764   0.019
    1UNL    H66  130  -0.575  -0.704   0.008
    1UNL    H67  131  -0.476  -0.341   0.105
    1UNL    H68  132  -0.688  -0.393   0.162
    1UNL    H69  133  -0.613  -0.482  -0.126
    1UNL    H70  134  -0.766  -0.340  -0.003
    1UNL    H71  135  -0.488  -0.351  -0.261
    1UNL    H72  136  -0.508  -0.162  -0.055
   0.00000   0.00000   0.00000   0.00000   0.00000   0.00000   0.00000   0.00000   0.00000
Generated with MDTraj, t= 3.0
 136
    1UNL     C1    1  -1.022   0.387   0.256
    1UNL     C2    2  -0.997   0.277   0.155
    1UNL     C3    3  -1.043   0.258   0.035
    1UNL     C4    4  -1.143   0.341  -0.042
    1UNL     O1    5  -1.076   0.442  -0.116
    1UNL     C5    6  -0.878   0.185   0.189
    1UNL     C6    7  -0.743   0.228   0.132
    1UNL     C7    8  -0.643   0.112   0.153
    1UNL     C8    9  -0.526   0.104   0.084
    1UNL     C9   10  -0.477   0.196  -0.022
    1UNL    C10   11  -0.429  -0.007   0.119
    1UNL     O2   12  -0.474  -0.107   0.174
    1UNL     O3   13  -0.304   0.013   0.082
    1UNL    C11   14  -0.224  -0.098   0.105
    1UNL    C12   15  -0.087  -0.044   0.154
    1UNL     O4   16  -0.027   0.053   0.076
    1UNL    C13   17  -0.085   0.185   0.076
    1UNL    C14   18   0.018   0.277   0.145
    1UNL     O5   19  -0.009   0.413   0.153
    1UNL    C15   20   0.161   0.255   0.075
    1UNL    C16   21   0.242   0.135   0.131
    1UNL     O6   22   0.151   0.254  -0.069
    1UNL    C17   23   0.037   0.302  -0.132
    1UNL     O7   24   0.044   0.292  -0.272
    1UNL    C18   25   0.171   0.257  -0.326
    1UNL    C19   26   0.258   0.381  -0.326
    1UNL    C20   27   0.374   0.393  -0.264
    1UNL    C21   28   0.444   0.526  -0.271
    1UNL    C22   29   0.447   0.282  -0.200
    1UNL    C23   30   0.539   0.209  -0.297
    1UNL    C24   31   0.603   0.097  -0.223
    1UNL    C25   32   0.694   0.016  -0.282
    1UNL    C26   33   0.715   0.000  -0.423
    1UNL    C27   34   0.758  -0.068  -0.177
    1UNL     O8   35   0.805   0.014  -0.079
    1UNL    C28   36   0.885  -0.055   0.020
    1UNL     O9   37   0.890  -0.194  -0.012
    1UNL    C29   38   0.994  -0.267   0.069
    1UNL    C30   39   0.988  -0.415   0.022
    1UNL    C31   40   0.982  -0.245   0.226
    1UNL    O10   41   1.091  -0.299   0.295
    1UNL    C32   42   0.973  -0.096   0.255
    1UNL    O11   43   0.944  -0.083   0.396
    1UNL    C33   44   0.857  -0.027   0.173
    1UNL    O12   45   0.843   0.104   0.207
    1UNL    C34   46  -0.098   0.247  -0.063
    1UNL    O13   47  -0.160   0.160  -0.154
    1UNL    O14   48  -0.004  -0.156   0.190
    1UNL    C35   49   0.016  -0.256   0.084
    1UNL    C36   50  -0.030  -0.395   0.140
    1UNL    C37   51  -0.060  -0.227  -0.049
    1UNL    O15   52  -0.009  -0.115  -0.124
    1UNL    C38   53  -0.212  -0.193  -0.015
    1UNL    O16   54  -0.284  -0.314   0.010
    1UNL    C39   55  -0.329  -0.378  -0.107
    1UNL    O17   56  -0.341  -0.524  -0.080
    1UNL    C40   57  -0.417  -0.555   0.041
    1UNL    C41   58  -0.470  -0.699   0.040
    1UNL    C42   59  -0.537  -0.448   0.057
    1UNL    O18   60  -0.639  -0.493   0.147
    1UNL    C43   61  -0.588  -0.405  -0.086
    1UNL    O19   62  -0.703  -0.326  -0.086
    1UNL    C44   63  -0.466  -0.320  -0.154
    1UNL    O20   64  -0.480  -0.181  -0.127
    1UNL     H1   65  -1.087   0.471   0.223
    1UNL     H2   66  -0.944   0.451   0.289
    1UNL     H3   67  -1.075   0.335   0.340
    1UNL     H4   68  -1.005   0.187  -0.028
    1UNL     H5   69  -1.212   0.398   0.019
    1UNL     H6   70  -1.189   0.275  -0.111
    1UNL     H7   71  -1.024   0.509  -0.064
    1UNL     H8   72  -0.863   0.180   0.293
    1UNL     H9   73  -0.903   0.087   0.167
    1UNL    H10   74  -0.746   0.241   0.024
    1UNL    H11   75  -0.723   0.327   0.180
    1UNL    H12   76  -0.666   0.034   0.227
    1UNL    H13   77  -0.390   0.153  -0.062
    1UNL    H14   78  -0.567   0.230  -0.079
    1UNL    H15   79  -0.433   0.280   0.034
    1UNL    H16   80  -0.261  -0.154   0.193
    1UNL    H17   81  -0.097   0.020   0.251
    1UNL    H18   82  -0.182   0.193   0.131
    1UNL    H19   83   0.034   0.237   0.249
    1UNL    H20   84  -0.111   0.434   0.155
    1UNL    H21   85   0.223   0.343   0.104
    1UNL    H22   86   0.305   0.169   0.217
    1UNL    H23   87   0.299   0.101   0.047
    1UNL    H24   88   0.177   0.055   0.162
    1UNL    H25   89   0.054   0.408  -0.113
    1UNL    H26   90   0.197   0.167  -0.260
    1UNL    H27   91   0.155   0.212  -0.424
    1UNL    H28   92   0.208   0.474  -0.367
    1UNL    H29   93   0.431   0.567  -0.368
    1UNL    H30   94   0.549   0.511  -0.235
    1UNL    H31   95   0.411   0.594  -0.191
    1UNL    H32   96   0.494   0.320  -0.109
    1UNL    H33   97   0.371   0.215  -0.158
    1UNL    H34   98   0.476   0.165  -0.373
    1UNL    H35   99   0.608   0.278  -0.347
    1UNL    H36  100   0.578   0.088  -0.120
    1UNL    H37  101   0.636   0.037  -0.484
    1UNL    H38  102   0.726  -0.114  -0.459
    1UNL    H39  103   0.805   0.058  -0.439
    1UNL    H40  104   0.853  -0.117  -0.199
    1UNL    H41  105   0.689  -0.138  -0.128
    1UNL    H42  106   0.995  -0.029   0.006
    1UNL    H43  107   1.081  -0.224   0.028
    1UNL    H44  108   0.899  -0.477   0.044
    1UNL    H45  109   1.003  -0.410  -0.090
    1UNL    H46  110   1.062  -0.460   0.082
    1UNL    H47  111   0.901  -0.296   0.276
    1UNL    H48  112   1.085  -0.270   0.388
    1UNL    H49  113   1.077  -0.051   0.234
    1UNL    H50  114   0.962   0.003   0.434
    1UNL    H51  115   0.763  -0.080   0.207
    1UNL    H52  116   0.880   0.171   0.150
    1UNL    H53  117  -0.167   0.325  -0.049
    1UNL    H54  118  -0.114   0.077  -0.169
    1UNL    H55  119   0.132  -0.269   0.067
    1UNL    H56  120   0.035  -0.423   0.224
    1UNL    H57  121  -0.129  -0.397   0.177
    1UNL    H58  122  -0.014  -0.473   0.064
    1UNL    H59  123  -0.060  -0.309  -0.121
    1UNL    H60  124   0.027  -0.042  -0.073
    1UNL    H61  125  -0.255  -0.141  -0.097
    1UNL    H62  126  -0.261  -0.366  -0.194
    1UNL    H63  127  -0.340  -0.540   0.122
    1UNL    H64  128  -0.557  -0.704   0.109
    1UNL    H65  129  -0.383  -0.761   0.063
    1UNL    H66  130  -0.522  -0.735  -0.050
    1UNL    H67  131  -0.486  -0.360   0.108
    1UNL    H68  132  -0.692  -0.421   0.191
    1UNL    H69  133  -0.612  -0.490  -0.147
    1UNL    H70  134  -0.790  -0.365  -0.048
    1UNL    H71  135  -0.473  -0.340  -0.266
    1UNL    H72  136  -0.498  -0.158  -0.026
   0.00000   0.00000   0.00000   0.00000   0.00000   0.00000   0.00000   0.00000   0.00000
Generated with MDTraj, t= 4.0
 136
    1UNL     C1    1  -1.031   0.398   0.236
    1UNL     C2    2  -0.991   0.279   0.152
    1UNL     C3    3  -1.055   0.245   0.045
    1UNL     C4    4  -1.153   0.319  -0.039
    1UNL     O1    5  -1.105   0.443  -0.091
    1UNL     C5    6  -0.879   0.189   0.194
    1UNL     C6    7  -0.758   0.197   0.099
    1UNL     C7    8  -0.649   0.105   0.148
    1UNL     C8    9  -0.527   0.102   0.089
    1UNL     C9   10  -0.508   0.201  -0.031
    1UNL    C10   11  -0.426  -0.004   0.120
    1UNL     O2   12  -0.460  -0.118   0.152
    1UNL     O3   13  -0.292   0.031   0.105
    1UNL    C11   14  -0.211  -0.080   0.120
    1UNL    C12   15  -0.068  -0.027   0.155
    1UNL     O4   16  -0.040   0.059   0.053
    1UNL    C13   17  -0.089   0.194   0.063
    1UNL    C14   18   0.014   0.282   0.143
    1UNL     O5   19  -0.016   0.416   0.148
    1UNL    C15   20   0.161   0.274   0.075
    1UNL    C16   21   0.264   0.193   0.155
    1UNL     O6   22   0.138   0.225  -0.054
    1UNL    C17   23   0.037   0.294  -0.133
    1UNL     O7   24   0.033   0.284  -0.273
    1UNL    C18   25   0.166   0.274  -0.326
    1UNL    C19   26   0.250   0.399  -0.319
    1UNL    C20   27   0.372   0.413  -0.267
    1UNL    C21   28   0.442   0.535  -0.289
    1UNL    C22   29   0.438   0.289  -0.200
    1UNL    C23   30   0.489   0.182  -0.295
    1UNL    C24   31   0.607   0.110  -0.224
    1UNL    C25   32   0.695   0.024  -0.278
    1UNL    C26   33   0.693   0.002  -0.433
    1UNL    C27   34   0.791  -0.048  -0.191
    1UNL     O8   35   0.787  -0.011  -0.058
    1UNL    C28   36   0.887  -0.079   0.019
    1UNL     O9   37   0.893  -0.226  -0.000
    1UNL    C29   38   1.013  -0.278   0.069
    1UNL    C30   39   1.020  -0.430   0.044
    1UNL    C31   40   0.987  -0.262   0.223
    1UNL    O10   41   1.092  -0.317   0.299
    1UNL    C32   42   0.969  -0.117   0.261
    1UNL    O11   43   0.928  -0.100   0.399
    1UNL    C33   44   0.860  -0.058   0.175
    1UNL    O12   45   0.821   0.072   0.195
    1UNL    C34   46  -0.108   0.256  -0.077
    1UNL    O13   47  -0.158   0.159  -0.162
    1UNL    O14   48   0.030  -0.133   0.173
    1UNL    C35   49   0.035  -0.240   0.076
    1UNL    C36   50   0.004  -0.369   0.147
    1UNL    C37   51  -0.062  -0.214  -0.044
    1UNL    O15   52  -0.008  -0.107  -0.143
    1UNL    C38   53  -0.205  -0.176  -0.004
    1UNL    O16   54  -0.280  -0.289   0.026
    1UNL    C39   55  -0.319  -0.366  -0.087
    1UNL    O17   56  -0.329  -0.509  -0.062
    1UNL    C40   57  -0.415  -0.549   0.043
    1UNL    C41   58  -0.457  -0.698   0.024
    1UNL    C42   59  -0.542  -0.457   0.054
    1UNL    O18   60  -0.648  -0.532   0.114
    1UNL    C43   61  -0.577  -0.395  -0.079
    1UNL    O19   62  -0.684  -0.313  -0.063
    1UNL    C44   63  -0.458  -0.323  -0.144
    1UNL    O20   64  -0.472  -0.176  -0.122
    1UNL     H1   65  -1.054   0.486   0.172
    1UNL     H2   66  -0.951   0.430   0.301
    1UNL     H3   67  -1.121   0.355   0.286
    1UNL     H4   68  -1.042   0.138   0.012
    1UNL     H5   69  -1.232   0.339   0.033
    1UNL     H6   70  -1.186   0.268  -0.126
    1UNL     H7   71  -1.008   0.432  -0.085
    1UNL     H8   72  -0.856   0.215   0.290
    1UNL     H9   73  -0.911   0.090   0.204
    1UNL    H10   74  -0.796   0.173  -0.000
    1UNL    H11   75  -0.708   0.297   0.098
    1UNL    H12   76  -0.691   0.029   0.207
    1UNL    H13   77  -0.407   0.186  -0.062
    1UNL    H14   78  -0.586   0.193  -0.110
    1UNL    H15   79  -0.489   0.303  -0.001
    1UNL    H16   80  -0.253  -0.134   0.209
    1UNL    H17   81  -0.054   0.032   0.254
    1UNL    H18   82  -0.191   0.206   0.106
    1UNL    H19   83   0.011   0.230   0.241
    1UNL    H20   84  -0.119   0.423   0.158
    1UNL    H21   85   0.197   0.378   0.058
    1UNL    H22   86   0.234   0.187   0.264
    1UNL    H23   87   0.360   0.232   0.137
    1UNL    H24   88   0.262   0.094   0.112
    1UNL    H25   89   0.059   0.399  -0.108
    1UNL    H26   90   0.213   0.190  -0.262
    1UNL    H27   91   0.149   0.230  -0.425
    1UNL    H28   92   0.199   0.480  -0.357
    1UNL    H29   93   0.366   0.614  -0.321
    1UNL    H30   94   0.531   0.521  -0.350
    1UNL    H31   95   0.495   0.556  -0.195
    1UNL    H32   96   0.527   0.330  -0.153
    1UNL    H33   97   0.369   0.252  -0.123
    1UNL    H34   98   0.405   0.118  -0.310
    1UNL    H35   99   0.517   0.227  -0.391
    1UNL    H36  100   0.601   0.107  -0.114
    1UNL    H37  101   0.598   0.026  -0.483
    1UNL    H38  102   0.709  -0.111  -0.458
    1UNL    H39  103   0.772   0.067  -0.464
    1UNL    H40  104   0.894  -0.020  -0.219
    1UNL    H41  105   0.791  -0.159  -0.182
    1UNL    H42  106   0.992  -0.045  -0.009
    1UNL    H43  107   1.098  -0.230   0.031
    1UNL    H44  108   0.928  -0.486   0.075
    1UNL    H45  109   1.036  -0.439  -0.065
    1UNL    H46  110   1.099  -0.470   0.101
    1UNL    H47  111   0.904  -0.324   0.262
    1UNL    H48  112   1.084  -0.297   0.399
    1UNL    H49  113   1.053  -0.045   0.231
    1UNL    H50  114   0.846  -0.053   0.405
    1UNL    H51  115   0.775  -0.127   0.192
    1UNL    H52  116   0.737   0.091   0.132
    1UNL    H53  117  -0.173   0.338  -0.078
    1UNL    H54  118  -0.107   0.077  -0.165
    1UNL    H55  119   0.138  -0.257   0.028
    1UNL    H56  120   0.073  -0.380   0.230
    1UNL    H57  121  -0.095  -0.356   0.198
    1UNL    H58  122   0.009  -0.455   0.085
    1UNL    H59  123  -0.068  -0.306  -0.103
    1UNL    H60  124   0.016  -0.037  -0.075
    1UNL    H61  125  -0.251  -0.133  -0.090
    1UNL    H62  126  -0.247  -0.345  -0.169
    1UNL    H63  127  -0.364  -0.528   0.140
    1UNL    H64  128  -0.518  -0.737   0.111
    1UNL    H65  129  -0.366  -0.745  -0.001
    1UNL    H66  130  -0.534  -0.712  -0.057
    1UNL    H67  131  -0.532  -0.373   0.122
    1UNL    H68  132  -0.698  -0.490   0.189
    1UNL    H69  133  -0.611  -0.482  -0.138
    1UNL    H70  134  -0.764  -0.372  -0.053
    1UNL    H71  135  -0.442  -0.325  -0.254
    1UNL    H72  136  -0.480  -0.162  -0.029
   0.00000   0.00000   0.00000   0.00000   0.00000   0.00000   0.00000   0.00000   0.00000
Generated with MDTraj, t= 5.0
 136
    1UNL     C1    1  -1.005   0.405   0.199
    1UNL     C2    2  -1.001   0.265   0.136
    1UNL     C3    3  -1.072   0.231   0.035
    1UNL     C4    4  -1.184   0.304  -0.021
    1UNL     O1    5  -1.147   0.438  -0.046
    1UNL     C5    6  -0.875   0.188   0.178
    1UNL     C6    7  -0.755   0.181   0.079
    1UNL     C7    8  -0.649   0.096   0.138
    1UNL     C8    9  -0.527   0.090   0.088
    1UNL     C9   10  -0.494   0.173  -0.022
    1UNL    C10   11  -0.428  -0.011   0.136
    1UNL     O2   12  -0.466  -0.117   0.179
    1UNL     O3   13  -0.300   0.026   0.117
    1UNL    C11   14  -0.209  -0.078   0.131
    1UNL    C12   15  -0.065  -0.020   0.163
    1UNL     O4   16  -0.034   0.068   0.058
    1UNL    C13   17  -0.077   0.202   0.069
    1UNL    C14   18   0.013   0.309   0.144
    1UNL     O5   19  -0.044   0.439   0.161
    1UNL    C15   20   0.154   0.307   0.063
    1UNL    C16   21   0.251   0.214   0.131
    1UNL     O6   22   0.149   0.269  -0.077
    1UNL    C17   23   0.035   0.314  -0.153
    1UNL     O7   24   0.042   0.268  -0.286
    1UNL    C18   25   0.173   0.251  -0.338
    1UNL    C19   26   0.254   0.382  -0.339
    1UNL    C20   27   0.369   0.405  -0.277
    1UNL    C21   28   0.425   0.540  -0.295
    1UNL    C22   29   0.441   0.302  -0.192
    1UNL    C23   30   0.514   0.195  -0.281
    1UNL    C24   31   0.610   0.109  -0.202
    1UNL    C25   32   0.682   0.016  -0.265
    1UNL    C26   33   0.678   0.006  -0.412
    1UNL    C27   34   0.795  -0.044  -0.191
    1UNL     O8   35   0.766  -0.064  -0.055
    1UNL    C28   36   0.869  -0.110   0.020
    1UNL     O9   37   0.907  -0.245  -0.008
    1UNL    C29   38   1.020  -0.286   0.071
    1UNL    C30   39   1.051  -0.430   0.031
    1UNL    C31   40   0.979  -0.274   0.221
    1UNL    O10   41   1.080  -0.326   0.309
    1UNL    C32   42   0.954  -0.130   0.252
    1UNL    O11   43   0.922  -0.117   0.392
    1UNL    C33   44   0.834  -0.085   0.170
    1UNL    O12   45   0.806   0.053   0.197
    1UNL    C34   46  -0.101   0.263  -0.074
    1UNL    O13   47  -0.172   0.171  -0.157
    1UNL    O14   48   0.019  -0.127   0.182
    1UNL    C35   49   0.035  -0.230   0.081
    1UNL    C36   50   0.021  -0.367   0.145
    1UNL    C37   51  -0.063  -0.199  -0.037
    1UNL    O15   52  -0.010  -0.099  -0.143
    1UNL    C38   53  -0.203  -0.167   0.003
    1UNL    O16   54  -0.282  -0.286   0.020
    1UNL    C39   55  -0.314  -0.356  -0.090
    1UNL    O17   56  -0.313  -0.500  -0.070
    1UNL    C40   57  -0.393  -0.542   0.041
    1UNL    C41   58  -0.435  -0.688   0.025
    1UNL    C42   59  -0.521  -0.455   0.053
    1UNL    O18   60  -0.632  -0.520   0.117
    1UNL    C43   61  -0.564  -0.393  -0.081
    1UNL    O19   62  -0.672  -0.313  -0.055
    1UNL    C44   63  -0.452  -0.312  -0.147
    1UNL    O20   64  -0.466  -0.170  -0.110
    1UNL     H1   65  -0.956   0.471   0.125
    1UNL     H2   66  -0.944   0.394   0.292
    1UNL     H3   67  -1.106   0.441   0.211
    1UNL     H4   68  -1.048   0.132  -0.009
    1UNL     H5   69  -1.268   0.311   0.051
    1UNL     H6   70  -1.202   0.257  -0.114
    1UNL     H7   71  -1.055   0.440  -0.079
    1UNL     H8   72  -0.847   0.200   0.275
    1UNL     H9   73  -0.920   0.092   0.178
    1UNL    H10   74  -0.778   0.126  -0.014
    1UNL    H11   75  -0.725   0.286   0.056
    1UNL    H12   76  -0.692   0.029   0.215
    1UNL    H13   77  -0.387   0.187  -0.024
    1UNL    H14   78  -0.532   0.130  -0.117
    1UNL    H15   79  -0.520   0.276  -0.014
    1UNL    H16   80  -0.252  -0.145   0.213
    1UNL    H17   81  -0.069   0.032   0.265
    1UNL    H18   82  -0.175   0.210   0.119
    1UNL    H19   83   0.031   0.272   0.245
    1UNL    H20   84  -0.130   0.445   0.206
    1UNL    H21   85   0.185   0.413   0.051
    1UNL    H22   86   0.309   0.259   0.213
    1UNL    H23   87   0.318   0.170   0.060
    1UNL    H24   88   0.196   0.128   0.171
    1UNL    H25   89   0.029   0.425  -0.153
    1UNL    H26   90   0.227   0.166  -0.280
    1UNL    H27   91   0.166   0.219  -0.443
    1UNL    H28   92   0.203   0.464  -0.393
    1UNL    H29   93   0.357   0.619  -0.240
    1UNL    H30   94   0.461   0.577  -0.390
    1UNL    H31   95   0.520   0.532  -0.242
    1UNL    H32   96   0.525   0.351  -0.143
    1UNL    H33   97   0.368   0.257  -0.123
    1UNL    H34   98   0.440   0.139  -0.334
    1UNL    H35   99   0.563   0.262  -0.354
    1UNL    H36  100   0.610   0.115  -0.096
    1UNL    H37  101   0.600  -0.064  -0.461
    1UNL    H38  102   0.768  -0.040  -0.443
    1UNL    H39  103   0.678   0.108  -0.455
    1UNL    H40  104   0.885   0.022  -0.194
    1UNL    H41  105   0.821  -0.138  -0.245
    1UNL    H42  106   0.960  -0.042   0.016
    1UNL    H43  107   1.096  -0.223   0.037
    1UNL    H44  108   0.962  -0.497   0.031
    1UNL    H45  109   1.101  -0.423  -0.066
    1UNL    H46  110   1.129  -0.475   0.093
    1UNL    H47  111   0.889  -0.332   0.254
    1UNL    H48  112   1.067  -0.285   0.396
    1UNL    H49  113   1.040  -0.065   0.219
    1UNL    H50  114   0.827  -0.131   0.418
    1UNL    H51  115   0.751  -0.152   0.198
    1UNL    H52  116   0.893   0.110   0.191
    1UNL    H53  117  -0.155   0.349  -0.061
    1UNL    H54  118  -0.128   0.080  -0.155
    1UNL    H55  119   0.136  -0.206   0.038
    1UNL    H56  120   0.067  -0.376   0.242
    1UNL    H57  121  -0.092  -0.383   0.162
    1UNL    H58  122   0.055  -0.444   0.085
    1UNL    H59  123  -0.069  -0.294  -0.095
    1UNL    H60  124   0.049  -0.044  -0.089
    1UNL    H61  125  -0.251  -0.119  -0.082
    1UNL    H62  126  -0.235  -0.340  -0.167
    1UNL    H63  127  -0.328  -0.521   0.128
    1UNL    H64  128  -0.503  -0.724   0.109
    1UNL    H65  129  -0.347  -0.743   0.012
    1UNL    H66  130  -0.504  -0.700  -0.063
    1UNL    H67  131  -0.508  -0.363   0.107
    1UNL    H68  132  -0.701  -0.510   0.048
    1UNL    H69  133  -0.610  -0.474  -0.145
    1UNL    H70  134  -0.660  -0.221  -0.075
    1UNL    H71  135  -0.449  -0.331  -0.253
    1UNL    H72  136  -0.437  -0.171  -0.011
   0.00000   0.00000   0.00000   0.00000   0.00000   0.00000   0.00000   0.00000   0.00000
Generated with MDTraj, t= 6.0
 136
    1UNL     C1    1  -0.992   0.390   0.166
    1UNL     C2    2  -1.000   0.255   0.107
    1UNL     C3    3  -1.097   0.217   0.029
    1UNL     C4    4  -1.217   0.305   0.004
    1UNL     O1    5  -1.189   0.443  -0.023
    1UNL     C5    6  -0.897   0.158   0.167
    1UNL     C6    7  -0.770   0.179   0.092
    1UNL     C7    8  -0.654   0.088   0.129
    1UNL     C8    9  -0.536   0.084   0.065
    1UNL     C9   10  -0.497   0.171  -0.042
    1UNL    C10   11  -0.423  -0.006   0.128
    1UNL     O2   12  -0.448  -0.103   0.193
    1UNL     O3   13  -0.293   0.028   0.101
    1UNL    C11   14  -0.199  -0.075   0.126
    1UNL    C12   15  -0.055  -0.012   0.169
    1UNL     O4   16  -0.021   0.082   0.064
    1UNL    C13   17  -0.083   0.208   0.071
    1UNL    C14   18   0.006   0.313   0.139
    1UNL     O5   19  -0.046   0.442   0.122
    1UNL    C15   20   0.146   0.309   0.066
    1UNL    C16   21   0.254   0.239   0.150
    1UNL     O6   22   0.144   0.245  -0.064
    1UNL    C17   23   0.036   0.302  -0.138
    1UNL     O7   24   0.029   0.270  -0.270
    1UNL    C18   25   0.150   0.239  -0.327
    1UNL    C19   26   0.239   0.372  -0.330
    1UNL    C20   27   0.359   0.393  -0.278
    1UNL    C21   28   0.408   0.534  -0.296
    1UNL    C22   29   0.444   0.297  -0.200
    1UNL    C23   30   0.550   0.223  -0.295
    1UNL    C24   31   0.626   0.116  -0.221
    1UNL    C25   32   0.678   0.013  -0.288
    1UNL    C26   33   0.683   0.004  -0.433
    1UNL    C27   34   0.754  -0.086  -0.198
    1UNL     O8   35   0.742  -0.065  -0.056
    1UNL    C28   36   0.849  -0.111   0.029
    1UNL     O9   37   0.891  -0.244  -0.004
    1UNL    C29   38   1.011  -0.287   0.064
    1UNL    C30   39   1.068  -0.419   0.020
    1UNL    C31   40   0.981  -0.292   0.221
    1UNL    O10   41   1.094  -0.336   0.304
    1UNL    C32   42   0.941  -0.155   0.267
    1UNL    O11   43   0.914  -0.157   0.415
    1UNL    C33   44   0.822  -0.101   0.180
    1UNL    O12   45   0.802   0.036   0.223
    1UNL    C34   46  -0.100   0.257  -0.073
    1UNL    O13   47  -0.170   0.154  -0.149
    1UNL    O14   48   0.038  -0.112   0.193
    1UNL    C35   49   0.057  -0.210   0.080
    1UNL    C36   50   0.025  -0.347   0.146
    1UNL    C37   51  -0.039  -0.180  -0.041
    1UNL    O15   52   0.016  -0.079  -0.132
    1UNL    C38   53  -0.181  -0.156  -0.003
    1UNL    O16   54  -0.258  -0.280   0.014
    1UNL    C39   55  -0.302  -0.342  -0.101
    1UNL    O17   56  -0.311  -0.488  -0.090
    1UNL    C40   57  -0.375  -0.528   0.035
    1UNL    C41   58  -0.411  -0.680   0.031
    1UNL    C42   59  -0.504  -0.437   0.058
    1UNL    O18   60  -0.605  -0.501   0.144
    1UNL    C43   61  -0.558  -0.384  -0.076
    1UNL    O19   62  -0.684  -0.321  -0.058
    1UNL    C44   63  -0.448  -0.294  -0.144
    1UNL    O20   64  -0.468  -0.161  -0.108
    1UNL     H1   65  -0.918   0.454   0.114
    1UNL     H2   66  -0.972   0.387   0.278
    1UNL     H3   67  -1.077   0.450   0.148
    1UNL     H4   68  -1.097   0.119  -0.004
    1UNL     H5   69  -1.259   0.308   0.109
    1UNL     H6   70  -1.277   0.271  -0.079
    1UNL     H7   71  -1.143   0.463  -0.110
    1UNL     H8   72  -0.887   0.181   0.269
    1UNL     H9   73  -0.927   0.059   0.169
    1UNL    H10   74  -0.793   0.178  -0.015
    1UNL    H11   75  -0.733   0.284   0.111
    1UNL    H12   76  -0.679   0.011   0.196
    1UNL    H13   77  -0.423   0.123  -0.107
    1UNL    H14   78  -0.594   0.180  -0.095
    1UNL    H15   79  -0.455   0.259  -0.001
    1UNL    H16   80  -0.239  -0.141   0.210
    1UNL    H17   81  -0.057   0.039   0.270
    1UNL    H18   82  -0.181   0.188   0.118
    1UNL    H19   83   0.025   0.279   0.240
    1UNL    H20   84  -0.113   0.461   0.184
    1UNL    H21   85   0.168   0.415   0.045
    1UNL    H22   86   0.235   0.240   0.255
    1UNL    H23   87   0.356   0.285   0.137
    1UNL    H24   88   0.268   0.135   0.118
    1UNL    H25   89   0.036   0.413  -0.128
    1UNL    H26   90   0.210   0.161  -0.262
    1UNL    H27   91   0.133   0.187  -0.424
    1UNL    H28   92   0.192   0.448  -0.390
    1UNL    H29   93   0.395   0.592  -0.199
    1UNL    H30   94   0.375   0.595  -0.379
    1UNL    H31   95   0.517   0.534  -0.309
    1UNL    H32   96   0.496   0.358  -0.127
    1UNL    H33   97   0.381   0.218  -0.158
    1UNL    H34   98   0.485   0.172  -0.364
    1UNL    H35   99   0.611   0.289  -0.360
    1UNL    H36  100   0.636   0.118  -0.110
    1UNL    H37  101   0.612  -0.072  -0.481
    1UNL    H38  102   0.779  -0.018  -0.456
    1UNL    H39  103   0.668   0.103  -0.485
    1UNL    H40  104   0.856  -0.063  -0.241
    1UNL    H41  105   0.734  -0.193  -0.222
    1UNL    H42  106   0.925  -0.032   0.011
    1UNL    H43  107   1.076  -0.209   0.029
    1UNL    H44  108   0.997  -0.501   0.038
    1UNL    H45  109   1.103  -0.413  -0.081
    1UNL    H46  110   1.172  -0.438   0.064
    1UNL    H47  111   0.902  -0.371   0.245
    1UNL    H48  112   1.080  -0.307   0.394
    1UNL    H49  113   1.027  -0.092   0.238
    1UNL    H50  114   0.815  -0.157   0.441
    1UNL    H51  115   0.734  -0.166   0.191
    1UNL    H52  116   0.762   0.042   0.312
    1UNL    H53  117  -0.156   0.340  -0.093
    1UNL    H54  118  -0.115   0.075  -0.142
    1UNL    H55  119   0.159  -0.193   0.047
    1UNL    H56  120   0.083  -0.380   0.230
    1UNL    H57  121  -0.081  -0.337   0.183
    1UNL    H58  122   0.025  -0.430   0.080
    1UNL    H59  123  -0.039  -0.276  -0.101
    1UNL    H60  124   0.063  -0.012  -0.076
    1UNL    H61  125  -0.239  -0.088  -0.070
    1UNL    H62  126  -0.229  -0.317  -0.180
    1UNL    H63  127  -0.293  -0.521   0.107
    1UNL    H64  128  -0.473  -0.720   0.115
    1UNL    H65  129  -0.319  -0.733   0.037
    1UNL    H66  130  -0.473  -0.709  -0.057
    1UNL    H67  131  -0.452  -0.366   0.123
    1UNL    H68  132  -0.691  -0.486   0.098
    1UNL    H69  133  -0.589  -0.471  -0.144
    1UNL    H70  134  -0.673  -0.229  -0.092
    1UNL    H71  135  -0.468  -0.314  -0.248
    1UNL    H72  136  -0.433  -0.149  -0.011
   0.00000   0.00000   0.00000   0.00000   0.00000   0.00000   0.00000   0.00000   0.00000
Generated with MDTraj, t= 7.0
 136
    1UNL     C1    1  -0.980   0.371   0.169
    1UNL     C2    2  -1.017   0.227   0.118
    1UNL     C3    3  -1.135   0.203   0.055
    1UNL     C4    4  -1.248   0.302   0.034
    1UNL     O1    5  -1.196   0.422  -0.030
    1UNL     C5    6  -0.897   0.135   0.139
    1UNL     C6    7  -0.765   0.184   0.070
    1UNL     C7    8  -0.647   0.100   0.117
    1UNL     C8    9  -0.523   0.098   0.065
    1UNL     C9   10  -0.465   0.196  -0.045
    1UNL    C10   11  -0.426   0.005   0.125
    1UNL     O2   12  -0.453  -0.101   0.176
    1UNL     O3   13  -0.290   0.054   0.110
    1UNL    C11   14  -0.202  -0.056   0.122
    1UNL    C12   15  -0.063  -0.004   0.172
    1UNL     O4   16  -0.018   0.096   0.075
    1UNL    C13   17  -0.088   0.220   0.072
    1UNL    C14   18   0.009   0.333   0.129
    1UNL     O5   19  -0.050   0.466   0.125
    1UNL    C15   20   0.148   0.319   0.057
    1UNL    C16   21   0.235   0.242   0.159
    1UNL     O6   22   0.138   0.256  -0.068
    1UNL    C17   23   0.024   0.294  -0.152
    1UNL     O7   24   0.033   0.243  -0.280
    1UNL    C18   25   0.165   0.236  -0.320
    1UNL    C19   26   0.242   0.372  -0.315
    1UNL    C20   27   0.366   0.388  -0.278
    1UNL    C21   28   0.418   0.522  -0.293
    1UNL    C22   29   0.447   0.287  -0.203
    1UNL    C23   30   0.530   0.201  -0.294
    1UNL    C24   31   0.623   0.109  -0.214
    1UNL    C25   32   0.678  -0.004  -0.264
    1UNL    C26   33   0.703  -0.032  -0.411
    1UNL    C27   34   0.749  -0.089  -0.163
    1UNL     O8   35   0.738  -0.042  -0.034
    1UNL    C28   36   0.842  -0.104   0.037
    1UNL     O9   37   0.889  -0.229  -0.022
    1UNL    C29   38   1.004  -0.280   0.049
    1UNL    C30   39   1.048  -0.411  -0.007
    1UNL    C31   40   0.973  -0.298   0.204
    1UNL    O10   41   1.094  -0.334   0.264
    1UNL    C32   42   0.922  -0.169   0.271
    1UNL    O11   43   0.881  -0.192   0.403
    1UNL    C33   44   0.802  -0.112   0.184
    1UNL    O12   45   0.753   0.015   0.227
    1UNL    C34   46  -0.107   0.254  -0.080
    1UNL    O13   47  -0.160   0.142  -0.148
    1UNL    O14   48   0.019  -0.114   0.203
    1UNL    C35   49   0.047  -0.211   0.093
    1UNL    C36   50   0.018  -0.355   0.133
    1UNL    C37   51  -0.032  -0.183  -0.041
    1UNL    O15   52   0.034  -0.084  -0.119
    1UNL    C38   53  -0.181  -0.142  -0.005
    1UNL    O16   54  -0.257  -0.268   0.016
    1UNL    C39   55  -0.288  -0.334  -0.105
    1UNL    O17   56  -0.287  -0.481  -0.087
    1UNL    C40   57  -0.347  -0.523   0.035
    1UNL    C41   58  -0.383  -0.674   0.037
    1UNL    C42   59  -0.474  -0.427   0.067
    1UNL    O18   60  -0.579  -0.496   0.147
    1UNL    C43   61  -0.543  -0.373  -0.063
    1UNL    O19   62  -0.666  -0.305  -0.050
    1UNL    C44   63  -0.439  -0.292  -0.146
    1UNL    O20   64  -0.450  -0.152  -0.126
    1UNL     H1   65  -0.940   0.431   0.085
    1UNL     H2   66  -0.903   0.377   0.253
    1UNL     H3   67  -1.050   0.447   0.195
    1UNL     H4   68  -1.140   0.109  -0.010
    1UNL     H5   69  -1.285   0.341   0.136
    1UNL     H6   70  -1.322   0.257  -0.035
    1UNL     H7   71  -1.157   0.398  -0.118
    1UNL     H8   72  -0.870   0.134   0.244
    1UNL     H9   73  -0.922   0.037   0.118
    1UNL    H10   74  -0.781   0.179  -0.039
    1UNL    H11   75  -0.746   0.293   0.084
    1UNL    H12   76  -0.681   0.027   0.194
    1UNL    H13   77  -0.365   0.161  -0.082
    1UNL    H14   78  -0.535   0.179  -0.123
    1UNL    H15   79  -0.459   0.295  -0.014
    1UNL    H16   80  -0.251  -0.125   0.198
    1UNL    H17   81  -0.074   0.047   0.270
    1UNL    H18   82  -0.175   0.215   0.142
    1UNL    H19   83   0.034   0.315   0.233
    1UNL    H20   84  -0.107   0.484   0.201
    1UNL    H21   85   0.181   0.423   0.044
    1UNL    H22   86   0.277   0.313   0.225
    1UNL    H23   87   0.316   0.190   0.101
    1UNL    H24   88   0.178   0.161   0.208
    1UNL    H25   89   0.020   0.404  -0.160
    1UNL    H26   90   0.207   0.140  -0.263
    1UNL    H27   91   0.171   0.189  -0.421
    1UNL    H28   92   0.181   0.451  -0.349
    1UNL    H29   93   0.402   0.572  -0.198
    1UNL    H30   94   0.368   0.571  -0.380
    1UNL    H31   95   0.529   0.521  -0.316
    1UNL    H32   96   0.519   0.342  -0.144
    1UNL    H33   97   0.384   0.237  -0.130
    1UNL    H34   98   0.468   0.138  -0.352
    1UNL    H35   99   0.584   0.262  -0.370
    1UNL    H36  100   0.619   0.110  -0.109
    1UNL    H37  101   0.612  -0.010  -0.474
    1UNL    H38  102   0.749  -0.128  -0.409
    1UNL    H39  103   0.789   0.030  -0.452
    1UNL    H40  104   0.856  -0.097  -0.191
    1UNL    H41  105   0.709  -0.190  -0.186
    1UNL    H42  106   0.915  -0.024   0.024
    1UNL    H43  107   1.075  -0.198   0.039
    1UNL    H44  108   0.963  -0.479   0.003
    1UNL    H45  109   1.062  -0.392  -0.109
    1UNL    H46  110   1.153  -0.454   0.018
    1UNL    H47  111   0.900  -0.383   0.229
    1UNL    H48  112   1.093  -0.328   0.365
    1UNL    H49  113   0.998  -0.092   0.275
    1UNL    H50  114   0.784  -0.213   0.419
    1UNL    H51  115   0.721  -0.186   0.192
    1UNL    H52  116   0.786   0.085   0.177
    1UNL    H53  117  -0.175   0.330  -0.090
    1UNL    H54  118  -0.081   0.080  -0.146
    1UNL    H55  119   0.153  -0.207   0.091
    1UNL    H56  120   0.072  -0.393   0.218
    1UNL    H57  121  -0.087  -0.365   0.149
    1UNL    H58  122   0.046  -0.425   0.050
    1UNL    H59  123  -0.019  -0.279  -0.101
    1UNL    H60  124   0.058  -0.002  -0.065
    1UNL    H61  125  -0.234  -0.085  -0.085
    1UNL    H62  126  -0.215  -0.306  -0.180
    1UNL    H63  127  -0.270  -0.516   0.109
    1UNL    H64  128  -0.411  -0.714   0.136
    1UNL    H65  129  -0.287  -0.730   0.016
    1UNL    H66  130  -0.472  -0.699  -0.023
    1UNL    H67  131  -0.437  -0.338   0.127
    1UNL    H68  132  -0.663  -0.452   0.118
    1UNL    H69  133  -0.584  -0.450  -0.139
    1UNL    H70  134  -0.670  -0.221  -0.103
    1UNL    H71  135  -0.457  -0.308  -0.252
    1UNL    H72  136  -0.442  -0.127  -0.036
   0.00000   0.00000   0.00000   0.00000   0.00000   0.00000   0.00000   0.00000   0.00000
Generated with MDTraj, t= 8.0
 136
    1UNL     C1    1  -0.975   0.364   0.172
    1UNL     C2    2  -1.006   0.228   0.117
    1UNL     C3    3  -1.126   0.188   0.077
    1UNL     C4    4  -1.239   0.276   0.049
    1UNL     O1    5  -1.218   0.394  -0.032
    1UNL     C5    6  -0.896   0.133   0.139
    1UNL     C6    7  -0.768   0.176   0.049
    1UNL     C7    8  -0.654   0.095   0.095
    1UNL     C8    9  -0.528   0.112   0.057
    1UNL     C9   10  -0.485   0.229  -0.010
    1UNL    C10   11  -0.423   0.015   0.101
    1UNL     O2   12  -0.451  -0.096   0.134
    1UNL     O3   13  -0.293   0.060   0.096
    1UNL    C11   14  -0.204  -0.044   0.121
    1UNL    C12   15  -0.068   0.009   0.178
    1UNL     O4   16  -0.003   0.093   0.082
    1UNL    C13   17  -0.072   0.215   0.069
    1UNL    C14   18   0.013   0.330   0.132
    1UNL     O5   19  -0.058   0.453   0.096
    1UNL    C15   20   0.160   0.326   0.066
    1UNL    C16   21   0.257   0.253   0.160
    1UNL     O6   22   0.150   0.264  -0.065
    1UNL    C17   23   0.032   0.305  -0.147
    1UNL     O7   24   0.042   0.259  -0.284
    1UNL    C18   25   0.177   0.234  -0.330
    1UNL    C19   26   0.252   0.370  -0.353
    1UNL    C20   27   0.364   0.400  -0.294
    1UNL    C21   28   0.419   0.537  -0.294
    1UNL    C22   29   0.434   0.293  -0.210
    1UNL    C23   30   0.485   0.176  -0.294
    1UNL    C24   31   0.570   0.076  -0.213
    1UNL    C25   32   0.664  -0.008  -0.264
    1UNL    C26   33   0.673  -0.019  -0.411
    1UNL    C27   34   0.761  -0.074  -0.176
    1UNL     O8   35   0.747  -0.036  -0.046
    1UNL    C28   36   0.841  -0.100   0.041
    1UNL     O9   37   0.892  -0.223  -0.013
    1UNL    C29   38   1.001  -0.286   0.051
    1UNL    C30   39   1.051  -0.410  -0.017
    1UNL    C31   40   0.969  -0.319   0.202
    1UNL    O10   41   1.086  -0.351   0.268
    1UNL    C32   42   0.908  -0.192   0.276
    1UNL    O11   43   0.874  -0.215   0.407
    1UNL    C33   44   0.788  -0.132   0.186
    1UNL    O12   45   0.738  -0.026   0.255
    1UNL    C34   46  -0.102   0.261  -0.081
    1UNL    O13   47  -0.163   0.159  -0.148
    1UNL    O14   48   0.016  -0.095   0.218
    1UNL    C35   49   0.035  -0.198   0.110
    1UNL    C36   50   0.010  -0.335   0.159
    1UNL    C37   51  -0.036  -0.170  -0.024
    1UNL    O15   52   0.029  -0.077  -0.108
    1UNL    C38   53  -0.185  -0.133   0.000
    1UNL    O16   54  -0.257  -0.262   0.016
    1UNL    C39   55  -0.277  -0.333  -0.105
    1UNL    O17   56  -0.263  -0.475  -0.069
    1UNL    C40   57  -0.335  -0.520   0.044
    1UNL    C41   58  -0.372  -0.668   0.033
    1UNL    C42   59  -0.460  -0.428   0.067
    1UNL    O18   60  -0.565  -0.502   0.138
    1UNL    C43   61  -0.528  -0.371  -0.066
    1UNL    O19   62  -0.636  -0.296  -0.032
    1UNL    C44   63  -0.425  -0.300  -0.150
    1UNL    O20   64  -0.448  -0.159  -0.145
    1UNL     H1   65  -1.050   0.432   0.131
    1UNL     H2   66  -0.872   0.390   0.149
    1UNL     H3   67  -0.991   0.372   0.280
    1UNL     H4   68  -1.121   0.090   0.055
    1UNL     H5   69  -1.267   0.320   0.153
    1UNL     H6   70  -1.327   0.227  -0.002
    1UNL     H7   71  -1.163   0.360  -0.104
    1UNL     H8   72  -0.874   0.128   0.245
    1UNL     H9   73  -0.927   0.038   0.110
    1UNL    H10   74  -0.772   0.174  -0.061
    1UNL    H11   75  -0.756   0.284   0.069
    1UNL    H12   76  -0.687   0.010   0.149
    1UNL    H13   77  -0.373   0.227  -0.025
    1UNL    H14   78  -0.514   0.222  -0.110
    1UNL    H15   79  -0.527   0.318   0.029
    1UNL    H16   80  -0.238  -0.121   0.193
    1UNL    H17   81  -0.092   0.063   0.269
    1UNL    H18   82  -0.174   0.210   0.116
    1UNL    H19   83   0.019   0.304   0.239
    1UNL    H20   84  -0.132   0.460   0.168
    1UNL    H21   85   0.188   0.431   0.051
    1UNL    H22   86   0.232   0.270   0.266
    1UNL    H23   87   0.360   0.282   0.139
    1UNL    H24   88   0.243   0.149   0.128
    1UNL    H25   89   0.049   0.413  -0.148
    1UNL    H26   90   0.228   0.148  -0.266
    1UNL    H27   91   0.161   0.169  -0.418
    1UNL    H28   92   0.189   0.437  -0.419
    1UNL    H29   93   0.366   0.589  -0.221
    1UNL    H30   94   0.417   0.579  -0.401
    1UNL    H31   95   0.528   0.528  -0.262
    1UNL    H32   96   0.516   0.334  -0.150
    1UNL    H33   97   0.372   0.261  -0.129
    1UNL    H34   98   0.408   0.122  -0.341
    1UNL    H35   99   0.553   0.213  -0.373
    1UNL    H36  100   0.555   0.062  -0.104
    1UNL    H37  101   0.665   0.083  -0.452
    1UNL    H38  102   0.596  -0.099  -0.439
    1UNL    H39  103   0.768  -0.066  -0.451
    1UNL    H40  104   0.856  -0.041  -0.214
    1UNL    H41  105   0.768  -0.183  -0.175
    1UNL    H42  106   0.920  -0.028   0.047
    1UNL    H43  107   1.076  -0.203   0.051
    1UNL    H44  108   0.971  -0.481  -0.024
    1UNL    H45  109   1.090  -0.386  -0.114
    1UNL    H46  110   1.145  -0.449   0.034
    1UNL    H47  111   0.900  -0.410   0.203
    1UNL    H48  112   1.073  -0.347   0.368
    1UNL    H49  113   0.980  -0.113   0.279
    1UNL    H50  114   0.783  -0.192   0.422
    1UNL    H51  115   0.725  -0.221   0.189
    1UNL    H52  116   0.649  -0.014   0.226
    1UNL    H53  117  -0.174   0.333  -0.087
    1UNL    H54  118  -0.102   0.084  -0.144
    1UNL    H55  119   0.140  -0.193   0.100
    1UNL    H56  120   0.075  -0.338   0.246
    1UNL    H57  121  -0.088  -0.348   0.183
    1UNL    H58  122   0.045  -0.418   0.089
    1UNL    H59  123  -0.020  -0.264  -0.085
    1UNL    H60  124   0.055  -0.000  -0.058
    1UNL    H61  125  -0.221  -0.078  -0.093
    1UNL    H62  126  -0.202  -0.305  -0.180
    1UNL    H63  127  -0.274  -0.511   0.133
    1UNL    H64  128  -0.433  -0.711   0.112
    1UNL    H65  129  -0.266  -0.717   0.043
    1UNL    H66  130  -0.434  -0.680  -0.056
    1UNL    H67  131  -0.436  -0.338   0.135
    1UNL    H68  132  -0.639  -0.440   0.139
    1UNL    H69  133  -0.574  -0.465  -0.109
    1UNL    H70  134  -0.646  -0.215  -0.087
    1UNL    H71  135  -0.430  -0.320  -0.259
    1UNL    H72  136  -0.452  -0.151  -0.044
   0.00000   0.00000   0.00000   0.00000   0.00000   0.00000   0.00000   0.00000   0.00000
Generated with MDTraj, t= 9.0
 136
    1UNL     C1    1  -1.010   0.371   0.182
    1UNL     C2    2  -1.014   0.232   0.134
    1UNL     C3    3  -1.118   0.179   0.069
    1UNL     C4    4  -1.242   0.246   0.047
    1UNL     O1    5  -1.238   0.369  -0.020
    1UNL     C5    6  -0.887   0.159   0.153
    1UNL     C6    7  -0.785   0.171   0.042
    1UNL     C7    8  -0.661   0.087   0.074
    1UNL     C8    9  -0.533   0.119   0.055
    1UNL     C9   10  -0.505   0.255   0.009
    1UNL    C10   11  -0.427   0.018   0.095
    1UNL     O2   12  -0.461  -0.089   0.134
    1UNL     O3   13  -0.300   0.060   0.078
    1UNL    C11   14  -0.201  -0.037   0.117
    1UNL    C12   15  -0.061   0.028   0.168
    1UNL     O4   16  -0.004   0.118   0.074
    1UNL    C13   17  -0.074   0.243   0.071
    1UNL    C14   18   0.023   0.344   0.131
    1UNL     O5   19  -0.017   0.480   0.122
    1UNL    C15   20   0.156   0.328   0.058
    1UNL    C16   21   0.268   0.266   0.136
    1UNL     O6   22   0.148   0.265  -0.078
    1UNL    C17   23   0.033   0.307  -0.152
    1UNL     O7   24   0.028   0.265  -0.289
    1UNL    C18   25   0.155   0.260  -0.348
    1UNL    C19   26   0.236   0.392  -0.360
    1UNL    C20   27   0.350   0.405  -0.296
    1UNL    C21   28   0.430   0.529  -0.318
    1UNL    C22   29   0.409   0.300  -0.204
    1UNL    C23   30   0.481   0.181  -0.280
    1UNL    C24   31   0.578   0.095  -0.203
    1UNL    C25   32   0.665   0.009  -0.261
    1UNL    C26   33   0.661  -0.030  -0.407
    1UNL    C27   34   0.762  -0.064  -0.174
    1UNL     O8   35   0.730  -0.084  -0.041
    1UNL    C28   36   0.836  -0.125   0.039
    1UNL     O9   37   0.902  -0.237  -0.018
    1UNL    C29   38   1.008  -0.287   0.061
    1UNL    C30   39   1.079  -0.399  -0.014
    1UNL    C31   40   0.960  -0.336   0.200
    1UNL    O10   41   1.064  -0.380   0.284
    1UNL    C32   42   0.894  -0.213   0.273
    1UNL    O11   43   0.863  -0.241   0.399
    1UNL    C33   44   0.780  -0.150   0.188
    1UNL    O12   45   0.724  -0.041   0.255
    1UNL    C34   46  -0.103   0.278  -0.083
    1UNL    O13   47  -0.162   0.168  -0.139
    1UNL    O14   48   0.035  -0.068   0.205
    1UNL    C35   49   0.059  -0.189   0.128
    1UNL    C36   50   0.023  -0.316   0.194
    1UNL    C37   51  -0.012  -0.173  -0.008
    1UNL    O15   52   0.053  -0.081  -0.089
    1UNL    C38   53  -0.170  -0.137  -0.004
    1UNL    O16   54  -0.250  -0.260   0.014
    1UNL    C39   55  -0.269  -0.346  -0.099
    1UNL    O17   56  -0.254  -0.483  -0.063
    1UNL    C40   57  -0.332  -0.527   0.046
    1UNL    C41   58  -0.375  -0.669   0.025
    1UNL    C42   59  -0.454  -0.432   0.059
    1UNL    O18   60  -0.555  -0.496   0.139
    1UNL    C43   61  -0.519  -0.397  -0.075
    1UNL    O19   62  -0.631  -0.325  -0.047
    1UNL    C44   63  -0.412  -0.317  -0.155
    1UNL    O20   64  -0.450  -0.175  -0.154
    1UNL     H1   65  -1.108   0.404   0.220
    1UNL     H2   66  -0.979   0.432   0.102
    1UNL     H3   67  -0.942   0.397   0.269
    1UNL     H4   68  -1.100   0.074   0.033
    1UNL     H5   69  -1.299   0.268   0.148
    1UNL     H6   70  -1.298   0.183  -0.029
    1UNL     H7   71  -1.187   0.365  -0.103
    1UNL     H8   72  -0.842   0.190   0.247
    1UNL     H9   73  -0.926   0.058   0.156
    1UNL    H10   74  -0.842   0.137  -0.047
    1UNL    H11   75  -0.752   0.274   0.018
    1UNL    H12   76  -0.699  -0.011   0.110
    1UNL    H13   77  -0.435   0.241  -0.077
    1UNL    H14   78  -0.582   0.300  -0.048
    1UNL    H15   79  -0.485   0.330   0.084
    1UNL    H16   80  -0.250  -0.083   0.201
    1UNL    H17   81  -0.081   0.078   0.260
    1UNL    H18   82  -0.173   0.260   0.124
    1UNL    H19   83   0.051   0.322   0.237
    1UNL    H20   84  -0.119   0.496   0.134
    1UNL    H21   85   0.181   0.432   0.036
    1UNL    H22   86   0.294   0.319   0.235
    1UNL    H23   87   0.353   0.263   0.074
    1UNL    H24   88   0.248   0.161   0.153
    1UNL    H25   89   0.052   0.413  -0.154
    1UNL    H26   90   0.210   0.186  -0.277
    1UNL    H27   91   0.160   0.202  -0.440
    1UNL    H28   92   0.199   0.453  -0.434
    1UNL    H29   93   0.380   0.618  -0.287
    1UNL    H30   94   0.469   0.541  -0.425
    1UNL    H31   95   0.524   0.529  -0.256
    1UNL    H32   96   0.478   0.347  -0.134
    1UNL    H33   97   0.334   0.262  -0.138
    1UNL    H34   98   0.410   0.113  -0.316
    1UNL    H35   99   0.533   0.229  -0.368
    1UNL    H36  100   0.572   0.085  -0.098
    1UNL    H37  101   0.753  -0.021  -0.458
    1UNL    H38  102   0.585   0.033  -0.473
    1UNL    H39  103   0.614  -0.131  -0.430
    1UNL    H40  104   0.861  -0.022  -0.165
    1UNL    H41  105   0.777  -0.161  -0.217
    1UNL    H42  106   0.899  -0.041   0.030
    1UNL    H43  107   1.079  -0.199   0.084
    1UNL    H44  108   1.009  -0.480  -0.026
    1UNL    H45  109   1.115  -0.370  -0.115
    1UNL    H46  110   1.169  -0.425   0.040
    1UNL    H47  111   0.880  -0.412   0.182
    1UNL    H48  112   1.034  -0.369   0.374
    1UNL    H49  113   0.969  -0.138   0.273
    1UNL    H50  114   0.820  -0.168   0.444
    1UNL    H51  115   0.703  -0.226   0.183
    1UNL    H52  116   0.792   0.034   0.239
    1UNL    H53  117  -0.173   0.350  -0.091
    1UNL    H54  118  -0.093   0.101  -0.154
    1UNL    H55  119   0.163  -0.182   0.108
    1UNL    H56  120   0.080  -0.313   0.287
    1UNL    H57  121  -0.080  -0.320   0.210
    1UNL    H58  122   0.056  -0.405   0.137
    1UNL    H59  123   0.000  -0.270  -0.059
    1UNL    H60  124   0.052   0.002  -0.029
    1UNL    H61  125  -0.207  -0.068  -0.090
    1UNL    H62  126  -0.194  -0.322  -0.175
    1UNL    H63  127  -0.264  -0.507   0.132
    1UNL    H64  128  -0.440  -0.707   0.106
    1UNL    H65  129  -0.275  -0.729   0.025
    1UNL    H66  130  -0.445  -0.665  -0.058
    1UNL    H67  131  -0.423  -0.331   0.100
    1UNL    H68  132  -0.635  -0.437   0.138
    1UNL    H69  133  -0.556  -0.488  -0.125
    1UNL    H70  134  -0.606  -0.227  -0.042
    1UNL    H71  135  -0.408  -0.345  -0.264
    1UNL    H72  136  -0.410  -0.159  -0.063
   0.00000   0.00000   0.00000   0.00000   0.00000   0.00000   0.00000   0.00000   0.00000
Generated with MDTraj, t= 10.0
 136
    1UNL     C1    1  -1.041   0.364   0.185
    1UNL     C2    2  -1.008   0.230   0.137
    1UNL     C3    3  -1.104   0.159   0.071
    1UNL     C4    4  -1.235   0.213   0.038
    1UNL     O1    5  -1.234   0.349  -0.004
    1UNL     C5    6  -0.872   0.179   0.165
    1UNL     C6    7  -0.775   0.181   0.053
    1UNL     C7    8  -0.664   0.088   0.084
    1UNL     C8    9  -0.535   0.111   0.061
    1UNL     C9   10  -0.481   0.244   0.003
    1UNL    C10   11  -0.434   0.005   0.090
    1UNL     O2   12  -0.473  -0.106   0.114
    1UNL     O3   13  -0.306   0.054   0.078
    1UNL    C11   14  -0.215  -0.039   0.118
    1UNL    C12   15  -0.093   0.039   0.175
    1UNL     O4   16  -0.029   0.126   0.071
    1UNL    C13   17  -0.074   0.261   0.062
    1UNL    C14   18   0.035   0.354   0.125
    1UNL     O5   19   0.003   0.491   0.122
    1UNL    C15   20   0.166   0.339   0.045
    1UNL    C16   21   0.265   0.248   0.110
    1UNL     O6   22   0.139   0.297  -0.093
    1UNL    C17   23   0.025   0.352  -0.153
    1UNL     O7   24   0.018   0.311  -0.295
    1UNL    C18   25   0.136   0.258  -0.345
    1UNL    C19   26   0.237   0.368  -0.362
    1UNL    C20   27   0.349   0.390  -0.297
    1UNL    C21   28   0.420   0.520  -0.327
    1UNL    C22   29   0.418   0.287  -0.217
    1UNL    C23   30   0.537   0.215  -0.293
    1UNL    C24   31   0.621   0.123  -0.210
    1UNL    C25   32   0.676   0.006  -0.253
    1UNL    C26   33   0.651  -0.046  -0.390
    1UNL    C27   34   0.759  -0.085  -0.173
    1UNL     O8   35   0.724  -0.084  -0.035
    1UNL    C28   36   0.827  -0.132   0.048
    1UNL     O9   37   0.890  -0.244  -0.012
    1UNL    C29   38   1.001  -0.295   0.062
    1UNL    C30   39   1.093  -0.393  -0.018
    1UNL    C31   40   0.956  -0.339   0.200
    1UNL    O10   41   1.058  -0.398   0.274
    1UNL    C32   42   0.882  -0.227   0.279
    1UNL    O11   43   0.833  -0.277   0.398
    1UNL    C33   44   0.766  -0.169   0.185
    1UNL    O12   45   0.707  -0.050   0.236
    1UNL    C34   46  -0.112   0.302  -0.087
    1UNL    O13   47  -0.155   0.189  -0.161
    1UNL    O14   48   0.000  -0.054   0.235
    1UNL    C35   49   0.047  -0.159   0.141
    1UNL    C36   50   0.006  -0.300   0.195
    1UNL    C37   51  -0.018  -0.163  -0.011
    1UNL    O15   52   0.030  -0.064  -0.094
    1UNL    C38   53  -0.177  -0.145   0.011
    1UNL    O16   54  -0.236  -0.268   0.037
    1UNL    C39   55  -0.255  -0.344  -0.092
    1UNL    O17   56  -0.239  -0.487  -0.074
    1UNL    C40   57  -0.316  -0.535   0.040
    1UNL    C41   58  -0.355  -0.679   0.035
    1UNL    C42   59  -0.442  -0.440   0.065
    1UNL    O18   60  -0.553  -0.507   0.130
    1UNL    C43   61  -0.501  -0.392  -0.066
    1UNL    O19   62  -0.611  -0.305  -0.045
    1UNL    C44   63  -0.389  -0.315  -0.146
    1UNL    O20   64  -0.413  -0.175  -0.143
    1UNL     H1   65  -1.111   0.361   0.270
    1UNL     H2   66  -1.084   0.419   0.108
    1UNL     H3   67  -0.958   0.433   0.218
    1UNL     H4   68  -1.070   0.064   0.030
    1UNL     H5   69  -1.291   0.210   0.140
    1UNL     H6   70  -1.279   0.149  -0.043
    1UNL     H7   71  -1.198   0.364  -0.095
    1UNL     H8   72  -0.836   0.239   0.249
    1UNL     H9   73  -0.882   0.070   0.193
    1UNL    H10   74  -0.808   0.154  -0.050
    1UNL    H11   75  -0.751   0.290   0.046
    1UNL    H12   76  -0.694  -0.010   0.113
    1UNL    H13   77  -0.377   0.218  -0.020
    1UNL    H14   78  -0.525   0.257  -0.095
    1UNL    H15   79  -0.511   0.328   0.064
    1UNL    H16   80  -0.256  -0.105   0.192
    1UNL    H17   81  -0.123   0.101   0.256
    1UNL    H18   82  -0.169   0.266   0.126
    1UNL    H19   83   0.048   0.306   0.226
    1UNL    H20   84  -0.091   0.505   0.139
    1UNL    H21   85   0.206   0.440   0.027
    1UNL    H22   86   0.285   0.296   0.209
    1UNL    H23   87   0.359   0.232   0.062
    1UNL    H24   88   0.225   0.148   0.129
    1UNL    H25   89   0.032   0.459  -0.150
    1UNL    H26   90   0.178   0.172  -0.283
    1UNL    H27   91   0.115   0.220  -0.444
    1UNL    H28   92   0.180   0.447  -0.420
    1UNL    H29   93   0.360   0.618  -0.333
    1UNL    H30   94   0.482   0.517  -0.419
    1UNL    H31   95   0.494   0.542  -0.249
    1UNL    H32   96   0.458   0.350  -0.137
    1UNL    H33   97   0.346   0.215  -0.184
    1UNL    H34   98   0.499   0.149  -0.364
    1UNL    H35   99   0.607   0.292  -0.338
    1UNL    H36  100   0.634   0.144  -0.103
    1UNL    H37  101   0.679  -0.149  -0.395
    1UNL    H38  102   0.728  -0.021  -0.477
    1UNL    H39  103   0.543  -0.033  -0.427
    1UNL    H40  104   0.861  -0.051  -0.179
    1UNL    H41  105   0.758  -0.191  -0.196
    1UNL    H42  106   0.889  -0.046   0.057
    1UNL    H43  107   1.067  -0.203   0.090
    1UNL    H44  108   1.041  -0.486  -0.035
    1UNL    H45  109   1.129  -0.357  -0.119
    1UNL    H46  110   1.181  -0.411   0.038
    1UNL    H47  111   0.876  -0.410   0.176
    1UNL    H48  112   1.028  -0.408   0.367
    1UNL    H49  113   0.956  -0.156   0.304
    1UNL    H50  114   0.775  -0.211   0.452
    1UNL    H51  115   0.680  -0.237   0.190
    1UNL    H52  116   0.781   0.025   0.241
    1UNL    H53  117  -0.186   0.370  -0.094
    1UNL    H54  118  -0.104   0.108  -0.161
    1UNL    H55  119   0.154  -0.145   0.126
    1UNL    H56  120   0.032  -0.320   0.299
    1UNL    H57  121  -0.104  -0.304   0.182
    1UNL    H58  122   0.041  -0.382   0.139
    1UNL    H59  123  -0.003  -0.259  -0.060
    1UNL    H60  124   0.050   0.014  -0.041
    1UNL    H61  125  -0.235  -0.107  -0.083
    1UNL    H62  126  -0.174  -0.311  -0.158
    1UNL    H63  127  -0.250  -0.512   0.130
    1UNL    H64  128  -0.411  -0.718   0.124
    1UNL    H65  129  -0.261  -0.742   0.026
    1UNL    H66  130  -0.433  -0.685  -0.040
    1UNL    H67  131  -0.406  -0.355   0.124
    1UNL    H68  132  -0.632  -0.451   0.144
    1UNL    H69  133  -0.544  -0.475  -0.121
    1UNL    H70  134  -0.584  -0.254   0.031
    1UNL    H71  135  -0.399  -0.347  -0.254
    1UNL    H72  136  -0.464  -0.152  -0.069
   0.00000   0.00000   0.00000   0.00000   0.00000   0.00000   0.00000   0.00000   0.00000
Generated with MDTraj, t= 11.0
 136
    1UNL     C1    1  -1.067   0.366   0.220
    1UNL     C2    2  -1.019   0.236   0.154
    1UNL     C3    3  -1.110   0.166   0.081
    1UNL     C4    4  -1.247   0.205   0.041
    1UNL     O1    5  -1.266   0.327  -0.047
    1UNL     C5    6  -0.882   0.179   0.193
    1UNL     C6    7  -0.786   0.167   0.065
    1UNL     C7    8  -0.664   0.090   0.091
    1UNL     C8    9  -0.542   0.123   0.052
    1UNL     C9   10  -0.505   0.233  -0.043
    1UNL    C10   11  -0.434   0.030   0.088
    1UNL     O2   12  -0.460  -0.079   0.137
    1UNL     O3   13  -0.298   0.063   0.070
    1UNL    C11   14  -0.205  -0.028   0.123
    1UNL    C12   15  -0.075   0.049   0.180
    1UNL     O4   16  -0.023   0.129   0.071
    1UNL    C13   17  -0.081   0.258   0.066
    1UNL    C14   18   0.020   0.357   0.135
    1UNL     O5   19  -0.019   0.491   0.113
    1UNL    C15   20   0.156   0.324   0.052
    1UNL    C16   21   0.242   0.223   0.128
    1UNL     O6   22   0.122   0.273  -0.088
    1UNL    C17   23   0.017   0.338  -0.147
    1UNL     O7   24   0.015   0.328  -0.292
    1UNL    C18   25   0.142   0.297  -0.342
    1UNL    C19   26   0.248   0.401  -0.365
    1UNL    C20   27   0.374   0.387  -0.322
    1UNL    C21   28   0.468   0.506  -0.333
    1UNL    C22   29   0.425   0.257  -0.265
    1UNL    C23   30   0.562   0.227  -0.319
    1UNL    C24   31   0.635   0.132  -0.229
    1UNL    C25   32   0.664   0.005  -0.265
    1UNL    C26   33   0.642  -0.052  -0.396
    1UNL    C27   34   0.751  -0.078  -0.172
    1UNL     O8   35   0.725  -0.055  -0.029
    1UNL    C28   36   0.823  -0.124   0.053
    1UNL     O9   37   0.898  -0.235  -0.015
    1UNL    C29   38   0.998  -0.296   0.065
    1UNL    C30   39   1.063  -0.406  -0.020
    1UNL    C31   40   0.951  -0.351   0.203
    1UNL    O10   41   1.063  -0.402   0.279
    1UNL    C32   42   0.867  -0.248   0.278
    1UNL    O11   43   0.802  -0.303   0.395
    1UNL    C33   44   0.756  -0.176   0.180
    1UNL    O12   45   0.669  -0.088   0.258
    1UNL    C34   46  -0.119   0.294  -0.082
    1UNL    O13   47  -0.162   0.178  -0.149
    1UNL    O14   48   0.019  -0.045   0.228
    1UNL    C35   49   0.055  -0.144   0.137
    1UNL    C36   50   0.031  -0.283   0.201
    1UNL    C37   51  -0.007  -0.143  -0.009
    1UNL    O15   52   0.058  -0.054  -0.097
    1UNL    C38   53  -0.166  -0.131   0.013
    1UNL    O16   54  -0.224  -0.252   0.035
    1UNL    C39   55  -0.238  -0.339  -0.081
    1UNL    O17   56  -0.217  -0.477  -0.055
    1UNL    C40   57  -0.307  -0.530   0.045
    1UNL    C41   58  -0.336  -0.675   0.019
    1UNL    C42   59  -0.442  -0.445   0.076
    1UNL    O18   60  -0.547  -0.527   0.131
    1UNL    C43   61  -0.494  -0.389  -0.057
    1UNL    O19   62  -0.598  -0.292  -0.027
    1UNL    C44   63  -0.371  -0.328  -0.145
    1UNL    O20   64  -0.410  -0.195  -0.178
    1UNL     H1   65  -1.118   0.336   0.312
    1UNL     H2   66  -1.138   0.415   0.156
    1UNL     H3   67  -0.983   0.434   0.243
    1UNL     H4   68  -1.059   0.088   0.035
    1UNL     H5   69  -1.313   0.219   0.136
    1UNL     H6   70  -1.286   0.120  -0.016
    1UNL     H7   71  -1.241   0.303  -0.140
    1UNL     H8   72  -0.825   0.242   0.261
    1UNL     H9   73  -0.892   0.073   0.239
    1UNL    H10   74  -0.858   0.136  -0.015
    1UNL    H11   75  -0.747   0.263   0.025
    1UNL    H12   76  -0.679   0.001   0.152
    1UNL    H13   77  -0.420   0.200  -0.098
    1UNL    H14   78  -0.578   0.240  -0.125
    1UNL    H15   79  -0.499   0.329   0.006
    1UNL    H16   80  -0.255  -0.085   0.199
    1UNL    H17   81  -0.105   0.117   0.253
    1UNL    H18   82  -0.174   0.251   0.134
    1UNL    H19   83   0.029   0.336   0.245
    1UNL    H20   84  -0.107   0.518   0.130
    1UNL    H21   85   0.206   0.423   0.051
    1UNL    H22   86   0.245   0.254   0.231
    1UNL    H23   87   0.348   0.221   0.090
    1UNL    H24   88   0.203   0.121   0.116
    1UNL    H25   89   0.026   0.444  -0.130
    1UNL    H26   90   0.182   0.217  -0.273
    1UNL    H27   91   0.120   0.252  -0.437
    1UNL    H28   92   0.200   0.486  -0.401
    1UNL    H29   93   0.408   0.607  -0.323
    1UNL    H30   94   0.515   0.507  -0.431
    1UNL    H31   95   0.538   0.503  -0.249
    1UNL    H32   96   0.439   0.266  -0.156
    1UNL    H33   97   0.363   0.175  -0.297
    1UNL    H34   98   0.555   0.195  -0.419
    1UNL    H35   99   0.630   0.317  -0.307
    1UNL    H36  100   0.649   0.154  -0.126
    1UNL    H37  101   0.581  -0.141  -0.385
    1UNL    H38  102   0.731  -0.109  -0.436
    1UNL    H39  103   0.594   0.022  -0.467
    1UNL    H40  104   0.859  -0.062  -0.181
    1UNL    H41  105   0.727  -0.184  -0.192
    1UNL    H42  106   0.899  -0.051   0.073
    1UNL    H43  107   1.084  -0.224   0.096
    1UNL    H44  108   0.975  -0.465  -0.052
    1UNL    H45  109   1.119  -0.384  -0.116
    1UNL    H46  110   1.121  -0.472   0.034
    1UNL    H47  111   0.883  -0.430   0.177
    1UNL    H48  112   1.036  -0.417   0.376
    1UNL    H49  113   0.936  -0.172   0.311
    1UNL    H50  114   0.722  -0.250   0.404
    1UNL    H51  115   0.681  -0.249   0.143
    1UNL    H52  116   0.720   0.005   0.253
    1UNL    H53  117  -0.187   0.369  -0.084
    1UNL    H54  118  -0.104   0.101  -0.144
    1UNL    H55  119   0.166  -0.128   0.124
    1UNL    H56  120   0.082  -0.307   0.293
    1UNL    H57  121  -0.082  -0.294   0.216
    1UNL    H58  122   0.053  -0.360   0.137
    1UNL    H59  123   0.010  -0.241  -0.051
    1UNL    H60  124   0.080   0.029  -0.056
    1UNL    H61  125  -0.206  -0.092  -0.087
    1UNL    H62  126  -0.161  -0.305  -0.155
    1UNL    H63  127  -0.254  -0.523   0.145
    1UNL    H64  128  -0.425  -0.718   0.077
    1UNL    H65  129  -0.251  -0.744   0.033
    1UNL    H66  130  -0.379  -0.675  -0.081
    1UNL    H67  131  -0.415  -0.368   0.146
    1UNL    H68  132  -0.627  -0.474   0.150
    1UNL    H69  133  -0.538  -0.468  -0.115
    1UNL    H70  134  -0.559  -0.210   0.025
    1UNL    H71  135  -0.377  -0.395  -0.235
    1UNL    H72  136  -0.393  -0.125  -0.104
   0.00000   0.00000   0.00000   0.00000   0.00000   0.00000   0.00000   0.00000   0.00000
Generated with MDTraj, t= 12.0
 136
    1UNL     C1    1  -1.063   0.358   0.211
    1UNL     C2    2  -1.030   0.220   0.164
    1UNL     C3    3  -1.116   0.151   0.084
    1UNL     C4    4  -1.249   0.191   0.037
    1UNL     O1    5  -1.249   0.310  -0.045
    1UNL     C5    6  -0.890   0.166   0.194
    1UNL     C6    7  -0.783   0.186   0.078
    1UNL     C7    8  -0.659   0.102   0.108
    1UNL     C8    9  -0.541   0.125   0.048
    1UNL     C9   10  -0.516   0.186  -0.077
    1UNL    C10   11  -0.440   0.026   0.094
    1UNL     O2   12  -0.474  -0.085   0.136
    1UNL     O3   13  -0.313   0.073   0.089
    1UNL    C11   14  -0.215  -0.018   0.124
    1UNL    C12   15  -0.081   0.051   0.181
    1UNL     O4   16  -0.025   0.132   0.077
    1UNL    C13   17  -0.086   0.266   0.062
    1UNL    C14   18   0.010   0.371   0.122
    1UNL     O5   19  -0.039   0.498   0.097
    1UNL    C15   20   0.145   0.341   0.058
    1UNL    C16   21   0.215   0.234   0.140
    1UNL     O6   22   0.138   0.304  -0.083
    1UNL    C17   23   0.028   0.362  -0.147
    1UNL     O7   24   0.031   0.347  -0.292
    1UNL    C18   25   0.152   0.292  -0.339
    1UNL    C19   26   0.252   0.399  -0.340
    1UNL    C20   27   0.383   0.379  -0.326
    1UNL    C21   28   0.482   0.499  -0.338
    1UNL    C22   29   0.451   0.248  -0.289
    1UNL    C23   30   0.600   0.237  -0.312
    1UNL    C24   31   0.665   0.123  -0.236
    1UNL    C25   32   0.665  -0.010  -0.261
    1UNL    C26   33   0.626  -0.065  -0.390
    1UNL    C27   34   0.744  -0.090  -0.163
    1UNL     O8   35   0.734  -0.035  -0.028
    1UNL    C28   36   0.812  -0.127   0.058
    1UNL     O9   37   0.884  -0.232  -0.012
    1UNL    C29   38   0.987  -0.299   0.063
    1UNL    C30   39   1.068  -0.396  -0.025
    1UNL    C31   40   0.929  -0.359   0.186
    1UNL    O10   41   1.023  -0.409   0.280
    1UNL    C32   42   0.843  -0.254   0.263
    1UNL    O11   43   0.783  -0.311   0.379
    1UNL    C33   44   0.733  -0.190   0.172
    1UNL    O12   45   0.647  -0.107   0.244
    1UNL    C34   46  -0.107   0.300  -0.093
    1UNL    O13   47  -0.141   0.179  -0.161
    1UNL    O14   48   0.008  -0.056   0.230
    1UNL    C35   49   0.052  -0.148   0.131
    1UNL    C36   50   0.062  -0.290   0.190
    1UNL    C37   51  -0.023  -0.138  -0.002
    1UNL    O15   52   0.043  -0.058  -0.095
    1UNL    C38   53  -0.180  -0.124   0.015
    1UNL    O16   54  -0.228  -0.249   0.036
    1UNL    C39   55  -0.232  -0.337  -0.078
    1UNL    O17   56  -0.205  -0.472  -0.057
    1UNL    C40   57  -0.287  -0.531   0.044
    1UNL    C41   58  -0.332  -0.662  -0.007
    1UNL    C42   59  -0.417  -0.442   0.084
    1UNL    O18   60  -0.510  -0.512   0.157
    1UNL    C43   61  -0.483  -0.387  -0.044
    1UNL    O19   62  -0.582  -0.291  -0.012
    1UNL    C44   63  -0.374  -0.325  -0.141
    1UNL    O20   64  -0.390  -0.186  -0.156
    1UNL     H1   65  -1.131   0.356   0.295
    1UNL     H2   66  -1.109   0.423   0.131
    1UNL     H3   67  -0.975   0.411   0.243
    1UNL     H4   68  -1.064   0.058   0.037
    1UNL     H5   69  -1.301   0.223   0.133
    1UNL     H6   70  -1.309   0.116  -0.012
    1UNL     H7   71  -1.229   0.284  -0.137
    1UNL     H8   72  -0.851   0.201   0.293
    1UNL     H9   73  -0.911   0.051   0.196
    1UNL    H10   74  -0.806   0.159  -0.029
    1UNL    H11   75  -0.765   0.294   0.067
    1UNL    H12   76  -0.665   0.039   0.195
    1UNL    H13   77  -0.436   0.146  -0.129
    1UNL    H14   78  -0.596   0.166  -0.152
    1UNL    H15   79  -0.509   0.293  -0.074
    1UNL    H16   80  -0.257  -0.068   0.212
    1UNL    H17   81  -0.108   0.121   0.255
    1UNL    H18   82  -0.187   0.262   0.118
    1UNL    H19   83   0.013   0.350   0.231
    1UNL    H20   84  -0.133   0.496   0.129
    1UNL    H21   85   0.203   0.435   0.074
    1UNL    H22   86   0.272   0.285   0.213
    1UNL    H23   87   0.289   0.192   0.066
    1UNL    H24   88   0.152   0.150   0.176
    1UNL    H25   89   0.030   0.471  -0.134
    1UNL    H26   90   0.176   0.209  -0.266
    1UNL    H27   91   0.141   0.246  -0.435
    1UNL    H28   92   0.203   0.495  -0.362
    1UNL    H29   93   0.421   0.594  -0.355
    1UNL    H30   94   0.532   0.487  -0.435
    1UNL    H31   95   0.541   0.510  -0.244
    1UNL    H32   96   0.435   0.229  -0.183
    1UNL    H33   97   0.421   0.167  -0.352
    1UNL    H34   98   0.622   0.227  -0.415
    1UNL    H35   99   0.642   0.333  -0.270
    1UNL    H36  100   0.714   0.153  -0.143
    1UNL    H37  101   0.516  -0.055  -0.404
    1UNL    H38  102   0.657  -0.169  -0.405
    1UNL    H39  103   0.657  -0.001  -0.474
    1UNL    H40  104   0.848  -0.087  -0.203
    1UNL    H41  105   0.700  -0.193  -0.156
    1UNL    H42  106   0.896  -0.072   0.102
    1UNL    H43  107   1.066  -0.228   0.108
    1UNL    H44  108   0.997  -0.479  -0.048
    1UNL    H45  109   1.098  -0.359  -0.124
    1UNL    H46  110   1.147  -0.448   0.023
    1UNL    H47  111   0.861  -0.435   0.156
    1UNL    H48  112   0.971  -0.418   0.361
    1UNL    H49  113   0.913  -0.177   0.302
    1UNL    H50  114   0.707  -0.257   0.399
    1UNL    H51  115   0.662  -0.272   0.145
    1UNL    H52  116   0.683  -0.012   0.230
    1UNL    H53  117  -0.181   0.365  -0.117
    1UNL    H54  118  -0.072   0.114  -0.141
    1UNL    H55  119   0.160  -0.120   0.104
    1UNL    H56  120   0.120  -0.277   0.279
    1UNL    H57  121  -0.041  -0.324   0.217
    1UNL    H58  122   0.112  -0.366   0.132
    1UNL    H59  123  -0.015  -0.234  -0.050
    1UNL    H60  124   0.065   0.030  -0.048
    1UNL    H61  125  -0.208  -0.081  -0.086
    1UNL    H62  126  -0.170  -0.300  -0.164
    1UNL    H63  127  -0.226  -0.550   0.136
    1UNL    H64  128  -0.393  -0.725   0.065
    1UNL    H65  129  -0.252  -0.724  -0.045
    1UNL    H66  130  -0.404  -0.631  -0.088
    1UNL    H67  131  -0.375  -0.359   0.142
    1UNL    H68  132  -0.569  -0.440   0.189
    1UNL    H69  133  -0.519  -0.466  -0.109
    1UNL    H70  134  -0.558  -0.232   0.060
    1UNL    H71  135  -0.374  -0.382  -0.237
    1UNL    H72  136  -0.411  -0.160  -0.067
   0.00000   0.00000   0.00000   0.00000   0.00000   0.00000   0.00000   0.00000   0.00000
Generated with MDTraj, t= 13.0
 136
    1UNL     C1    1  -1.050   0.345   0.174
    1UNL     C2    2  -1.016   0.204   0.140
    1UNL     C3    3  -1.109   0.128   0.079
    1UNL     C4    4  -1.235   0.184   0.034
    1UNL     O1    5  -1.231   0.307  -0.031
    1UNL     C5    6  -0.889   0.146   0.185
    1UNL     C6    7  -0.775   0.187   0.106
    1UNL     C7    8  -0.644   0.118   0.149
    1UNL     C8    9  -0.540   0.103   0.062
    1UNL     C9   10  -0.537   0.156  -0.079
    1UNL    C10   11  -0.427   0.018   0.093
    1UNL     O2   12  -0.459  -0.094   0.131
    1UNL     O3   13  -0.306   0.072   0.075
    1UNL    C11   14  -0.208  -0.014   0.114
    1UNL    C12   15  -0.089   0.060   0.165
    1UNL     O4   16  -0.021   0.141   0.070
    1UNL    C13   17  -0.089   0.262   0.048
    1UNL    C14   18  -0.005   0.372   0.123
    1UNL     O5   19  -0.070   0.495   0.117
    1UNL    C15   20   0.144   0.368   0.059
    1UNL    C16   21   0.239   0.300   0.156
    1UNL     O6   22   0.149   0.313  -0.077
    1UNL    C17   23   0.033   0.358  -0.154
    1UNL     O7   24   0.040   0.328  -0.294
    1UNL    C18   25   0.175   0.284  -0.323
    1UNL    C19   26   0.273   0.391  -0.340
    1UNL    C20   27   0.407   0.383  -0.330
    1UNL    C21   28   0.483   0.513  -0.351
    1UNL    C22   29   0.475   0.264  -0.275
    1UNL    C23   30   0.624   0.243  -0.299
    1UNL    C24   31   0.674   0.121  -0.236
    1UNL    C25   32   0.646  -0.008  -0.262
    1UNL    C26   33   0.595  -0.061  -0.396
    1UNL    C27   34   0.701  -0.108  -0.164
    1UNL     O8   35   0.717  -0.058  -0.032
    1UNL    C28   36   0.814  -0.136   0.048
    1UNL     O9   37   0.897  -0.228  -0.016
    1UNL    C29   38   0.988  -0.298   0.075
    1UNL    C30   39   1.088  -0.393   0.006
    1UNL    C31   40   0.909  -0.366   0.183
    1UNL    O10   41   0.984  -0.437   0.280
    1UNL    C32   42   0.820  -0.266   0.258
    1UNL    O11   43   0.743  -0.335   0.350
    1UNL    C33   44   0.729  -0.192   0.161
    1UNL    O12   45   0.653  -0.090   0.223
    1UNL    C34   46  -0.100   0.300  -0.097
    1UNL    O13   47  -0.143   0.184  -0.166
    1UNL    O14   48   0.008  -0.025   0.228
    1UNL    C35   49   0.063  -0.127   0.142
    1UNL    C36   50   0.059  -0.262   0.202
    1UNL    C37   51   0.001  -0.130  -0.009
    1UNL    O15   52   0.051  -0.024  -0.089
    1UNL    C38   53  -0.159  -0.122  -0.000
    1UNL    O16   54  -0.221  -0.252   0.023
    1UNL    C39   55  -0.241  -0.326  -0.094
    1UNL    O17   56  -0.213  -0.460  -0.078
    1UNL    C40   57  -0.285  -0.525   0.031
    1UNL    C41   58  -0.327  -0.666  -0.009
    1UNL    C42   59  -0.410  -0.444   0.091
    1UNL    O18   60  -0.491  -0.511   0.179
    1UNL    C43   61  -0.487  -0.400  -0.033
    1UNL    O19   62  -0.605  -0.333   0.018
    1UNL    C44   63  -0.396  -0.321  -0.132
    1UNL    O20   64  -0.425  -0.185  -0.130
    1UNL     H1   65  -1.148   0.355   0.218
    1UNL     H2   66  -1.055   0.421   0.087
    1UNL     H3   67  -0.987   0.394   0.244
    1UNL     H4   68  -1.099   0.028   0.094
    1UNL     H5   69  -1.306   0.202   0.118
    1UNL     H6   70  -1.273   0.113  -0.034
    1UNL     H7   71  -1.209   0.300  -0.126
    1UNL     H8   72  -0.878   0.188   0.289
    1UNL     H9   73  -0.888   0.028   0.188
    1UNL    H10   74  -0.802   0.182  -0.003
    1UNL    H11   75  -0.753   0.295   0.115
    1UNL    H12   76  -0.639   0.088   0.253
    1UNL    H13   77  -0.438   0.176  -0.104
    1UNL    H14   78  -0.560   0.076  -0.153
    1UNL    H15   79  -0.605   0.242  -0.086
    1UNL    H16   80  -0.250  -0.075   0.198
    1UNL    H17   81  -0.120   0.132   0.238
    1UNL    H18   82  -0.193   0.271   0.095
    1UNL    H19   83   0.000   0.349   0.231
    1UNL    H20   84  -0.162   0.488   0.165
    1UNL    H21   85   0.173   0.475   0.052
    1UNL    H22   86   0.220   0.328   0.260
    1UNL    H23   87   0.339   0.340   0.136
    1UNL    H24   88   0.249   0.191   0.141
    1UNL    H25   89   0.031   0.468  -0.140
    1UNL    H26   90   0.205   0.205  -0.248
    1UNL    H27   91   0.161   0.230  -0.413
    1UNL    H28   92   0.228   0.486  -0.366
    1UNL    H29   93   0.421   0.576  -0.411
    1UNL    H30   94   0.558   0.498  -0.434
    1UNL    H31   95   0.516   0.577  -0.262
    1UNL    H32   96   0.458   0.265  -0.168
    1UNL    H33   97   0.417   0.182  -0.320
    1UNL    H34   98   0.643   0.253  -0.404
    1UNL    H35   99   0.682   0.325  -0.252
    1UNL    H36  100   0.740   0.127  -0.151
    1UNL    H37  101   0.530   0.018  -0.453
    1UNL    H38  102   0.548  -0.155  -0.382
    1UNL    H39  103   0.667  -0.067  -0.476
    1UNL    H40  104   0.806  -0.134  -0.193
    1UNL    H41  105   0.633  -0.198  -0.165
    1UNL    H42  106   0.895  -0.068   0.087
    1UNL    H43  107   1.048  -0.217   0.125
    1UNL    H44  108   1.027  -0.475  -0.037
    1UNL    H45  109   1.149  -0.354  -0.073
    1UNL    H46  110   1.143  -0.448   0.084
    1UNL    H47  111   0.847  -0.433   0.127
    1UNL    H48  112   0.921  -0.456   0.350
    1UNL    H49  113   0.891  -0.194   0.308
    1UNL    H50  114   0.671  -0.272   0.379
    1UNL    H51  115   0.652  -0.259   0.115
    1UNL    H52  116   0.590  -0.067   0.159
    1UNL    H53  117  -0.177   0.366  -0.107
    1UNL    H54  118  -0.063   0.126  -0.148
    1UNL    H55  119   0.172  -0.095   0.121
    1UNL    H56  120   0.097  -0.250   0.301
    1UNL    H57  121  -0.039  -0.302   0.200
    1UNL    H58  122   0.134  -0.326   0.146
    1UNL    H59  123   0.019  -0.223  -0.060
    1UNL    H60  124   0.088   0.046  -0.034
    1UNL    H61  125  -0.214  -0.099  -0.094
    1UNL    H62  126  -0.178  -0.286  -0.178
    1UNL    H63  127  -0.214  -0.532   0.114
    1UNL    H64  128  -0.390  -0.718   0.065
    1UNL    H65  129  -0.238  -0.727  -0.025
    1UNL    H66  130  -0.387  -0.650  -0.108
    1UNL    H67  131  -0.362  -0.366   0.156
    1UNL    H68  132  -0.566  -0.451   0.197
    1UNL    H69  133  -0.522  -0.489  -0.087
    1UNL    H70  134  -0.575  -0.244   0.055
    1UNL    H71  135  -0.401  -0.355  -0.235
    1UNL    H72  136  -0.440  -0.160  -0.033
   0.00000   0.00000   0.00000   0.00000   0.00000   0.00000   0.00000   0.00000   0.00000
Generated with MDTraj, t= 14.0
 136
    1UNL     C1    1  -1.042   0.344   0.175
    1UNL     C2    2  -1.020   0.201   0.144
    1UNL     C3    3  -1.111   0.127   0.076
    1UNL     C4    4  -1.240   0.173   0.024
    1UNL     O1    5  -1.221   0.293  -0.044
    1UNL     C5    6  -0.895   0.137   0.186
    1UNL     C6    7  -0.766   0.179   0.110
    1UNL     C7    8  -0.643   0.100   0.136
    1UNL     C8    9  -0.533   0.093   0.060
    1UNL     C9   10  -0.543   0.148  -0.080
    1UNL    C10   11  -0.421   0.020   0.112
    1UNL     O2   12  -0.439  -0.076   0.186
    1UNL     O3   13  -0.304   0.064   0.065
    1UNL    C11   14  -0.196  -0.017   0.110
    1UNL    C12   15  -0.071   0.061   0.152
    1UNL     O4   16  -0.022   0.156   0.051
    1UNL    C13   17  -0.093   0.276   0.047
    1UNL    C14   18  -0.020   0.392   0.120
    1UNL     O5   19  -0.091   0.512   0.112
    1UNL    C15   20   0.126   0.416   0.058
    1UNL    C16   21   0.230   0.369   0.165
    1UNL     O6   22   0.134   0.331  -0.061
    1UNL    C17   23   0.031   0.359  -0.159
    1UNL     O7   24   0.062   0.311  -0.288
    1UNL    C18   25   0.197   0.276  -0.299
    1UNL    C19   26   0.285   0.382  -0.349
    1UNL    C20   27   0.417   0.390  -0.324
    1UNL    C21   28   0.503   0.503  -0.357
    1UNL    C22   29   0.491   0.289  -0.240
    1UNL    C23   30   0.616   0.234  -0.314
    1UNL    C24   31   0.659   0.125  -0.236
    1UNL    C25   32   0.639  -0.006  -0.253
    1UNL    C26   33   0.572  -0.067  -0.376
    1UNL    C27   34   0.706  -0.102  -0.162
    1UNL     O8   35   0.751  -0.040  -0.044
    1UNL    C28   36   0.820  -0.130   0.045
    1UNL     O9   37   0.890  -0.233  -0.018
    1UNL    C29   38   0.972  -0.305   0.076
    1UNL    C30   39   1.088  -0.386   0.012
    1UNL    C31   40   0.888  -0.379   0.182
    1UNL    O10   41   0.969  -0.458   0.275
    1UNL    C32   42   0.784  -0.288   0.248
    1UNL    O11   43   0.696  -0.354   0.335
    1UNL    C33   44   0.711  -0.199   0.140
    1UNL    O12   45   0.619  -0.107   0.211
    1UNL    C34   46  -0.109   0.316  -0.101
    1UNL    O13   47  -0.163   0.195  -0.167
    1UNL    O14   48   0.032  -0.029   0.205
    1UNL    C35   49   0.072  -0.147   0.126
    1UNL    C36   50   0.045  -0.273   0.204
    1UNL    C37   51  -0.002  -0.152  -0.015
    1UNL    O15   52   0.055  -0.062  -0.098
    1UNL    C38   53  -0.158  -0.123   0.001
    1UNL    O16   54  -0.224  -0.249   0.024
    1UNL    C39   55  -0.251  -0.323  -0.101
    1UNL    O17   56  -0.214  -0.459  -0.094
    1UNL    C40   57  -0.258  -0.518   0.032
    1UNL    C41   58  -0.282  -0.664   0.013
    1UNL    C42   59  -0.391  -0.451   0.095
    1UNL    O18   60  -0.473  -0.538   0.167
    1UNL    C43   61  -0.483  -0.387  -0.012
    1UNL    O19   62  -0.575  -0.301   0.060
    1UNL    C44   63  -0.410  -0.309  -0.122
    1UNL    O20   64  -0.435  -0.175  -0.152
    1UNL     H1   65  -1.149   0.359   0.169
    1UNL     H2   66  -0.996   0.409   0.094
    1UNL     H3   67  -1.005   0.366   0.273
    1UNL     H4   68  -1.089   0.017   0.072
    1UNL     H5   69  -1.304   0.189   0.112
    1UNL     H6   70  -1.280   0.108  -0.046
    1UNL     H7   71  -1.144   0.288  -0.107
    1UNL     H8   72  -0.864   0.144   0.299
    1UNL     H9   73  -0.916   0.025   0.174
    1UNL    H10   74  -0.777   0.182  -0.001
    1UNL    H11   75  -0.764   0.289   0.126
    1UNL    H12   76  -0.643   0.059   0.236
    1UNL    H13   77  -0.450   0.116  -0.123
    1UNL    H14   78  -0.616   0.092  -0.136
    1UNL    H15   79  -0.559   0.258  -0.071
    1UNL    H16   80  -0.235  -0.059   0.207
    1UNL    H17   81  -0.105   0.126   0.233
    1UNL    H18   82  -0.199   0.261   0.079
    1UNL    H19   83  -0.013   0.350   0.221
    1UNL    H20   84  -0.178   0.506   0.167
    1UNL    H21   85   0.142   0.519   0.020
    1UNL    H22   86   0.239   0.447   0.247
    1UNL    H23   87   0.330   0.350   0.132
    1UNL    H24   88   0.198   0.273   0.207
    1UNL    H25   89   0.039   0.470  -0.168
    1UNL    H26   90   0.231   0.230  -0.200
    1UNL    H27   91   0.199   0.191  -0.362
    1UNL    H28   92   0.231   0.456  -0.398
    1UNL    H29   93   0.450   0.573  -0.413
    1UNL    H30   94   0.575   0.475  -0.441
    1UNL    H31   95   0.551   0.567  -0.274
    1UNL    H32   96   0.501   0.334  -0.142
    1UNL    H33   97   0.421   0.208  -0.222
    1UNL    H34   98   0.600   0.202  -0.418
    1UNL    H35   99   0.693   0.311  -0.339
    1UNL    H36  100   0.724   0.143  -0.152
    1UNL    H37  101   0.536   0.010  -0.454
    1UNL    H38  102   0.502  -0.146  -0.354
    1UNL    H39  103   0.643  -0.112  -0.440
    1UNL    H40  104   0.794  -0.150  -0.211
    1UNL    H41  105   0.632  -0.177  -0.125
    1UNL    H42  106   0.894  -0.071   0.110
    1UNL    H43  107   1.022  -0.229   0.137
    1UNL    H44  108   1.043  -0.464  -0.050
    1UNL    H45  109   1.152  -0.325  -0.047
    1UNL    H46  110   1.128  -0.450   0.097
    1UNL    H47  111   0.828  -0.457   0.135
    1UNL    H48  112   0.908  -0.486   0.349
    1UNL    H49  113   0.839  -0.216   0.317
    1UNL    H50  114   0.612  -0.295   0.342
    1UNL    H51  115   0.638  -0.256   0.080
    1UNL    H52  116   0.671  -0.048   0.266
    1UNL    H53  117  -0.184   0.383  -0.115
    1UNL    H54  118  -0.086   0.138  -0.154
    1UNL    H55  119   0.181  -0.137   0.096
    1UNL    H56  120   0.101  -0.273   0.297
    1UNL    H57  121  -0.055  -0.287   0.224
    1UNL    H58  122   0.084  -0.363   0.147
    1UNL    H59  123   0.012  -0.250  -0.064
    1UNL    H60  124   0.067   0.024  -0.048
    1UNL    H61  125  -0.187  -0.070  -0.091
    1UNL    H62  126  -0.185  -0.280  -0.179
    1UNL    H63  127  -0.180  -0.495   0.102
    1UNL    H64  128  -0.319  -0.712   0.104
    1UNL    H65  129  -0.188  -0.719  -0.014
    1UNL    H66  130  -0.366  -0.668  -0.067
    1UNL    H67  131  -0.357  -0.374   0.171
    1UNL    H68  132  -0.538  -0.476   0.204
    1UNL    H69  133  -0.564  -0.455  -0.051
    1UNL    H70  134  -0.521  -0.229   0.109
    1UNL    H71  135  -0.439  -0.358  -0.212
    1UNL    H72  136  -0.390  -0.112  -0.094
   0.00000   0.00000   0.00000   0.00000   0.00000   0.00000   0.00000   0.00000   0.00000
Generated with MDTraj, t= 15.0
 136
    1UNL     C1    1  -1.036   0.337   0.187
    1UNL     C2    2  -1.017   0.193   0.140
    1UNL     C3    3  -1.101   0.124   0.065
    1UNL     C4    4  -1.233   0.171   0.022
    1UNL     O1    5  -1.217   0.283  -0.065
    1UNL     C5    6  -0.891   0.128   0.191
    1UNL     C6    7  -0.771   0.137   0.085
    1UNL     C7    8  -0.642   0.092   0.139
    1UNL     C8    9  -0.526   0.103   0.070
    1UNL     C9   10  -0.514   0.166  -0.056
    1UNL    C10   11  -0.403   0.035   0.129
    1UNL     O2   12  -0.422  -0.068   0.194
    1UNL     O3   13  -0.280   0.073   0.088
    1UNL    C11   14  -0.172  -0.016   0.118
    1UNL    C12   15  -0.044   0.066   0.146
    1UNL     O4   16  -0.009   0.152   0.032
    1UNL    C13   17  -0.093   0.264   0.028
    1UNL    C14   18  -0.038   0.388   0.107
    1UNL     O5   19  -0.137   0.490   0.115
    1UNL    C15   20   0.098   0.432   0.054
    1UNL    C16   21   0.206   0.398   0.162
    1UNL     O6   22   0.134   0.373  -0.068
    1UNL    C17   23   0.029   0.369  -0.169
    1UNL     O7   24   0.064   0.288  -0.278
    1UNL    C18   25   0.202   0.255  -0.284
    1UNL    C19   26   0.285   0.372  -0.324
    1UNL    C20   27   0.418   0.389  -0.315
    1UNL    C21   28   0.478   0.521  -0.368
    1UNL    C22   29   0.505   0.300  -0.243
    1UNL    C23   30   0.601   0.222  -0.330
    1UNL    C24   31   0.670   0.129  -0.243
    1UNL    C25   32   0.634   0.001  -0.235
    1UNL    C26   33   0.535  -0.068  -0.325
    1UNL    C27   34   0.717  -0.096  -0.148
    1UNL     O8   35   0.774  -0.032  -0.031
    1UNL    C28   36   0.819  -0.124   0.068
    1UNL     O9   37   0.918  -0.211   0.012
    1UNL    C29   38   0.975  -0.321   0.094
    1UNL    C30   39   1.059  -0.407   0.002
    1UNL    C31   40   0.865  -0.394   0.176
    1UNL    O10   41   0.933  -0.479   0.276
    1UNL    C32   42   0.761  -0.303   0.241
    1UNL    O11   43   0.665  -0.389   0.301
    1UNL    C33   44   0.705  -0.211   0.129
    1UNL    O12   45   0.600  -0.126   0.169
    1UNL    C34   46  -0.109   0.317  -0.116
    1UNL    O13   47  -0.166   0.217  -0.209
    1UNL    O14   48   0.052  -0.024   0.198
    1UNL    C35   49   0.062  -0.142   0.117
    1UNL    C36   50   0.013  -0.274   0.188
    1UNL    C37   51   0.002  -0.131  -0.024
    1UNL    O15   52   0.076  -0.051  -0.110
    1UNL    C38   53  -0.149  -0.108  -0.008
    1UNL    O16   54  -0.216  -0.236   0.014
    1UNL    C39   55  -0.243  -0.317  -0.101
    1UNL    O17   56  -0.216  -0.453  -0.088
    1UNL    C40   57  -0.253  -0.513   0.039
    1UNL    C41   58  -0.269  -0.664   0.012
    1UNL    C42   59  -0.377  -0.443   0.104
    1UNL    O18   60  -0.444  -0.547   0.178
    1UNL    C43   61  -0.479  -0.385  -0.002
    1UNL    O19   62  -0.569  -0.311   0.074
    1UNL    C44   63  -0.402  -0.296  -0.107
    1UNL    O20   64  -0.438  -0.166  -0.112
    1UNL     H1   65  -1.120   0.381   0.133
    1UNL     H2   66  -0.949   0.397   0.160
    1UNL     H3   67  -1.057   0.335   0.295
    1UNL     H4   68  -1.070   0.022   0.048
    1UNL     H5   69  -1.285   0.206   0.111
    1UNL     H6   70  -1.282   0.092  -0.023
    1UNL     H7   71  -1.139   0.261  -0.122
    1UNL     H8   72  -0.862   0.161   0.303
    1UNL     H9   73  -0.900   0.015   0.204
    1UNL    H10   74  -0.812   0.076   0.001
    1UNL    H11   75  -0.749   0.230   0.029
    1UNL    H12   76  -0.649   0.045   0.235
    1UNL    H13   77  -0.411   0.144  -0.087
    1UNL    H14   78  -0.579   0.123  -0.128
    1UNL    H15   79  -0.533   0.273  -0.045
    1UNL    H16   80  -0.191  -0.081   0.210
    1UNL    H17   81  -0.062   0.141   0.226
    1UNL    H18   82  -0.190   0.245   0.077
    1UNL    H19   83  -0.020   0.355   0.208
    1UNL    H20   84  -0.219   0.475   0.162
    1UNL    H21   85   0.093   0.538   0.024
    1UNL    H22   86   0.187   0.460   0.254
    1UNL    H23   87   0.302   0.428   0.126
    1UNL    H24   88   0.213   0.291   0.185
    1UNL    H25   89   0.033   0.476  -0.203
    1UNL    H26   90   0.224   0.225  -0.177
    1UNL    H27   91   0.227   0.166  -0.338
    1UNL    H28   92   0.221   0.447  -0.380
    1UNL    H29   93   0.450   0.606  -0.311
    1UNL    H30   94   0.458   0.536  -0.479
    1UNL    H31   95   0.591   0.521  -0.358
    1UNL    H32   96   0.551   0.356  -0.165
    1UNL    H33   97   0.449   0.226  -0.184
    1UNL    H34   98   0.542   0.171  -0.409
    1UNL    H35   99   0.662   0.285  -0.397
    1UNL    H36  100   0.748   0.164  -0.177
    1UNL    H37  101   0.441  -0.018  -0.318
    1UNL    H38  102   0.528  -0.177  -0.322
    1UNL    H39  103   0.558  -0.055  -0.430
    1UNL    H40  104   0.806  -0.126  -0.205
    1UNL    H41  105   0.656  -0.186  -0.125
    1UNL    H42  106   0.879  -0.066   0.146
    1UNL    H43  107   1.033  -0.273   0.171
    1UNL    H44  108   0.994  -0.457  -0.068
    1UNL    H45  109   1.121  -0.342  -0.057
    1UNL    H46  110   1.101  -0.501   0.054
    1UNL    H47  111   0.815  -0.468   0.110
    1UNL    H48  112   0.867  -0.511   0.342
    1UNL    H49  113   0.808  -0.244   0.328
    1UNL    H50  114   0.582  -0.338   0.311
    1UNL    H51  115   0.674  -0.279   0.048
    1UNL    H52  116   0.573  -0.075   0.081
    1UNL    H53  117  -0.176   0.395  -0.111
    1UNL    H54  118  -0.094   0.207  -0.274
    1UNL    H55  119   0.171  -0.152   0.105
    1UNL    H56  120   0.067  -0.300   0.280
    1UNL    H57  121  -0.090  -0.276   0.215
    1UNL    H58  122   0.035  -0.360   0.123
    1UNL    H59  123   0.022  -0.232  -0.071
    1UNL    H60  124   0.061   0.044  -0.079
    1UNL    H61  125  -0.175  -0.056  -0.097
    1UNL    H62  126  -0.195  -0.276  -0.189
    1UNL    H63  127  -0.170  -0.491   0.103
    1UNL    H64  128  -0.272  -0.718   0.108
    1UNL    H65  129  -0.176  -0.712  -0.034
    1UNL    H66  130  -0.365  -0.685  -0.041
    1UNL    H67  131  -0.338  -0.366   0.178
    1UNL    H68  132  -0.512  -0.494   0.225
    1UNL    H69  133  -0.519  -0.483  -0.040
    1UNL    H70  134  -0.528  -0.234   0.111
    1UNL    H71  135  -0.431  -0.318  -0.209
    1UNL    H72  136  -0.425  -0.127  -0.028
   0.00000   0.00000   0.00000   0.00000   0.00000   0.00000   0.00000   0.00000   0.00000
Generated with MDTraj, t= 16.0
 136
    1UNL     C1    1  -1.045   0.331   0.174
    1UNL     C2    2  -1.000   0.186   0.140
    1UNL     C3    3  -1.081   0.112   0.062
    1UNL     C4    4  -1.213   0.162   0.019
    1UNL     O1    5  -1.199   0.277  -0.067
    1UNL     C5    6  -0.868   0.124   0.189
    1UNL     C6    7  -0.770   0.115   0.077
    1UNL     C7    8  -0.636   0.050   0.121
    1UNL     C8    9  -0.515   0.091   0.067
    1UNL     C9   10  -0.495   0.210  -0.020
    1UNL    C10   11  -0.397   0.017   0.124
    1UNL     O2   12  -0.403  -0.093   0.183
    1UNL     O3   13  -0.275   0.072   0.081
    1UNL    C11   14  -0.165  -0.010   0.117
    1UNL    C12   15  -0.035   0.074   0.137
    1UNL     O4   16  -0.021   0.161   0.026
    1UNL    C13   17  -0.106   0.274   0.020
    1UNL    C14   18  -0.058   0.397   0.109
    1UNL     O5   19  -0.159   0.496   0.119
    1UNL    C15   20   0.073   0.455   0.039
    1UNL    C16   21   0.181   0.470   0.150
    1UNL     O6   22   0.128   0.363  -0.060
    1UNL    C17   23   0.037   0.351  -0.177
    1UNL     O7   24   0.079   0.259  -0.269
    1UNL    C18   25   0.220   0.249  -0.288
    1UNL    C19   26   0.288   0.374  -0.322
    1UNL    C20   27   0.418   0.406  -0.304
    1UNL    C21   28   0.473   0.536  -0.356
    1UNL    C22   29   0.518   0.322  -0.238
    1UNL    C23   30   0.585   0.225  -0.326
    1UNL    C24   31   0.671   0.124  -0.262
    1UNL    C25   32   0.644  -0.004  -0.230
    1UNL    C26   33   0.504  -0.060  -0.222
    1UNL    C27   34   0.758  -0.084  -0.168
    1UNL     O8   35   0.765  -0.044  -0.030
    1UNL    C28   36   0.802  -0.146   0.056
    1UNL     O9   37   0.905  -0.235   0.001
    1UNL    C29   38   0.960  -0.323   0.102
    1UNL    C30   39   1.070  -0.400   0.043
    1UNL    C31   40   0.848  -0.413   0.154
    1UNL    O10   41   0.902  -0.496   0.262
    1UNL    C32   42   0.738  -0.327   0.214
    1UNL    O11   43   0.635  -0.399   0.286
    1UNL    C33   44   0.682  -0.226   0.115
    1UNL    O12   45   0.574  -0.145   0.163
    1UNL    C34   46  -0.110   0.320  -0.128
    1UNL    O13   47  -0.172   0.209  -0.193
    1UNL    O14   48   0.086  -0.003   0.167
    1UNL    C35   49   0.094  -0.129   0.098
    1UNL    C36   50   0.056  -0.242   0.193
    1UNL    C37   51   0.009  -0.138  -0.030
    1UNL    O15   52   0.044  -0.043  -0.132
    1UNL    C38   53  -0.138  -0.113   0.001
    1UNL    O16   54  -0.221  -0.232   0.025
    1UNL    C39   55  -0.256  -0.304  -0.097
    1UNL    O17   56  -0.200  -0.436  -0.085
    1UNL    C40   57  -0.243  -0.509   0.037
    1UNL    C41   58  -0.277  -0.648  -0.006
    1UNL    C42   59  -0.361  -0.435   0.109
    1UNL    O18   60  -0.412  -0.516   0.213
    1UNL    C43   61  -0.469  -0.402   0.012
    1UNL    O19   62  -0.580  -0.328   0.077
    1UNL    C44   63  -0.414  -0.302  -0.097
    1UNL    O20   64  -0.452  -0.169  -0.094
    1UNL     H1   65  -1.056   0.405   0.094
    1UNL     H2   66  -0.980   0.387   0.235
    1UNL     H3   67  -1.141   0.334   0.233
    1UNL     H4   68  -1.068   0.013   0.038
    1UNL     H5   69  -1.260   0.199   0.111
    1UNL     H6   70  -1.271   0.089  -0.025
    1UNL     H7   71  -1.129   0.260  -0.132
    1UNL     H8   72  -0.821   0.189   0.275
    1UNL     H9   73  -0.888   0.024   0.240
    1UNL    H10   74  -0.791   0.056  -0.015
    1UNL    H11   75  -0.765   0.216   0.036
    1UNL    H12   76  -0.653  -0.043   0.179
    1UNL    H13   77  -0.386   0.237  -0.024
    1UNL    H14   78  -0.520   0.196  -0.122
    1UNL    H15   79  -0.555   0.291   0.014
    1UNL    H16   80  -0.196  -0.067   0.210
    1UNL    H17   81  -0.043   0.150   0.219
    1UNL    H18   82  -0.209   0.239   0.055
    1UNL    H19   83  -0.030   0.349   0.202
    1UNL    H20   84  -0.230   0.468   0.173
    1UNL    H21   85   0.053   0.551  -0.009
    1UNL    H22   86   0.141   0.507   0.244
    1UNL    H23   87   0.260   0.541   0.119
    1UNL    H24   88   0.229   0.372   0.164
    1UNL    H25   89   0.049   0.448  -0.228
    1UNL    H26   90   0.270   0.195  -0.202
    1UNL    H27   91   0.224   0.180  -0.369
    1UNL    H28   92   0.224   0.439  -0.371
    1UNL    H29   93   0.571   0.550  -0.304
    1UNL    H30   94   0.411   0.628  -0.359
    1UNL    H31   95   0.491   0.507  -0.463
    1UNL    H32   96   0.590   0.386  -0.190
    1UNL    H33   97   0.467   0.271  -0.156
    1UNL    H34   98   0.514   0.169  -0.392
    1UNL    H35   99   0.654   0.276  -0.395
    1UNL    H36  100   0.755   0.171  -0.214
    1UNL    H37  101   0.470  -0.045  -0.128
    1UNL    H38  102   0.511  -0.167  -0.253
    1UNL    H39  103   0.430  -0.023  -0.291
    1UNL    H40  104   0.849  -0.061  -0.221
    1UNL    H41  105   0.734  -0.191  -0.174
    1UNL    H42  106   0.853  -0.098   0.146
    1UNL    H43  107   0.989  -0.247   0.169
    1UNL    H44  108   1.032  -0.473  -0.026
    1UNL    H45  109   1.135  -0.335  -0.016
    1UNL    H46  110   1.115  -0.473   0.119
    1UNL    H47  111   0.809  -0.464   0.061
    1UNL    H48  112   0.824  -0.511   0.315
    1UNL    H49  113   0.778  -0.262   0.299
    1UNL    H50  114   0.554  -0.346   0.278
    1UNL    H51  115   0.642  -0.287   0.033
    1UNL    H52  116   0.610  -0.066   0.221
    1UNL    H53  117  -0.178   0.395  -0.144
    1UNL    H54  118  -0.102   0.144  -0.227
    1UNL    H55  119   0.200  -0.129   0.078
    1UNL    H56  120   0.100  -0.233   0.293
    1UNL    H57  121  -0.056  -0.240   0.210
    1UNL    H58  122   0.088  -0.334   0.155
    1UNL    H59  123   0.016  -0.242  -0.074
    1UNL    H60  124   0.063   0.043  -0.093
    1UNL    H61  125  -0.178  -0.077  -0.090
    1UNL    H62  126  -0.208  -0.252  -0.178
    1UNL    H63  127  -0.164  -0.514   0.112
    1UNL    H64  128  -0.320  -0.710   0.079
    1UNL    H65  129  -0.177  -0.701  -0.027
    1UNL    H66  130  -0.348  -0.645  -0.087
    1UNL    H67  131  -0.327  -0.334   0.149
    1UNL    H68  132  -0.491  -0.467   0.245
    1UNL    H69  133  -0.518  -0.485  -0.041
    1UNL    H70  134  -0.539  -0.243   0.111
    1UNL    H71  135  -0.448  -0.321  -0.198
    1UNL    H72  136  -0.425  -0.122  -0.007
   0.00000   0.00000   0.00000   0.00000   0.00000   0.00000   0.00000   0.00000   0.00000
Generated with MDTraj, t= 17.0
 136
    1UNL     C1    1  -1.023   0.319   0.164
    1UNL     C2    2  -0.998   0.174   0.144
    1UNL     C3    3  -1.069   0.102   0.062
    1UNL     C4    4  -1.194   0.149   0.011
    1UNL     O1    5  -1.180   0.270  -0.065
    1UNL     C5    6  -0.871   0.106   0.190
    1UNL     C6    7  -0.775   0.100   0.070
    1UNL     C7    8  -0.638   0.047   0.114
    1UNL     C8    9  -0.513   0.096   0.077
    1UNL     C9   10  -0.487   0.222   0.006
    1UNL    C10   11  -0.399   0.027   0.131
    1UNL     O2   12  -0.414  -0.083   0.175
    1UNL     O3   13  -0.275   0.089   0.123
    1UNL    C11   14  -0.165  -0.004   0.118
    1UNL    C12   15  -0.037   0.084   0.139
    1UNL     O4   16  -0.019   0.167   0.026
    1UNL    C13   17  -0.098   0.285   0.011
    1UNL    C14   18  -0.044   0.409   0.101
    1UNL     O5   19  -0.160   0.489   0.121
    1UNL    C15   20   0.067   0.487   0.018
    1UNL    C16   21   0.174   0.545   0.101
    1UNL     O6   22   0.128   0.403  -0.080
    1UNL    C17   23   0.035   0.358  -0.187
    1UNL     O7   24   0.086   0.245  -0.251
    1UNL    C18   25   0.229   0.248  -0.259
    1UNL    C19   26   0.284   0.377  -0.296
    1UNL    C20   27   0.416   0.409  -0.299
    1UNL    C21   28   0.459   0.549  -0.328
    1UNL    C22   29   0.522   0.306  -0.254
    1UNL    C23   30   0.557   0.199  -0.359
    1UNL    C24   31   0.651   0.099  -0.299
    1UNL    C25   32   0.620   0.014  -0.205
    1UNL    C26   33   0.482  -0.010  -0.163
    1UNL    C27   34   0.730  -0.071  -0.148
    1UNL     O8   35   0.753  -0.036  -0.014
    1UNL    C28   36   0.793  -0.147   0.056
    1UNL     O9   37   0.911  -0.233   0.022
    1UNL    C29   38   0.953  -0.336   0.112
    1UNL    C30   39   1.075  -0.424   0.069
    1UNL    C31   40   0.829  -0.430   0.154
    1UNL    O10   41   0.879  -0.520   0.256
    1UNL    C32   42   0.714  -0.349   0.206
    1UNL    O11   43   0.597  -0.427   0.231
    1UNL    C33   44   0.680  -0.242   0.103
    1UNL    O12   45   0.584  -0.154   0.159
    1UNL    C34   46  -0.105   0.326  -0.133
    1UNL    O13   47  -0.157   0.227  -0.213
    1UNL    O14   48   0.059  -0.013   0.188
    1UNL    C35   49   0.099  -0.116   0.087
    1UNL    C36   50   0.106  -0.252   0.153
    1UNL    C37   51   0.001  -0.133  -0.033
    1UNL    O15   52   0.042  -0.040  -0.141
    1UNL    C38   53  -0.147  -0.103  -0.005
    1UNL    O16   54  -0.223  -0.222   0.016
    1UNL    C39   55  -0.240  -0.307  -0.096
    1UNL    O17   56  -0.187  -0.437  -0.075
    1UNL    C40   57  -0.230  -0.523   0.037
    1UNL    C41   58  -0.280  -0.660  -0.005
    1UNL    C42   59  -0.346  -0.447   0.116
    1UNL    O18   60  -0.398  -0.525   0.225
    1UNL    C43   61  -0.453  -0.396   0.023
    1UNL    O19   62  -0.544  -0.304   0.102
    1UNL    C44   63  -0.394  -0.318  -0.103
    1UNL    O20   64  -0.459  -0.203  -0.119
    1UNL     H1   65  -0.999   0.372   0.071
    1UNL     H2   66  -0.971   0.367   0.242
    1UNL     H3   67  -1.136   0.322   0.177
    1UNL     H4   68  -1.036  -0.008   0.046
    1UNL     H5   69  -1.260   0.180   0.095
    1UNL     H6   70  -1.243   0.084  -0.055
    1UNL     H7   71  -1.102   0.268  -0.123
    1UNL     H8   72  -0.823   0.161   0.274
    1UNL     H9   73  -0.885  -0.002   0.232
    1UNL    H10   74  -0.830   0.046  -0.010
    1UNL    H11   75  -0.753   0.198   0.029
    1UNL    H12   76  -0.653  -0.033   0.182
    1UNL    H13   77  -0.400   0.206  -0.065
    1UNL    H14   78  -0.574   0.251  -0.049
    1UNL    H15   79  -0.465   0.288   0.087
    1UNL    H16   80  -0.175  -0.056   0.216
    1UNL    H17   81  -0.045   0.160   0.223
    1UNL    H18   82  -0.204   0.264   0.056
    1UNL    H19   83  -0.010   0.367   0.195
    1UNL    H20   84  -0.221   0.453   0.190
    1UNL    H21   85   0.008   0.570  -0.025
    1UNL    H22   86   0.142   0.630   0.156
    1UNL    H23   87   0.257   0.582   0.035
    1UNL    H24   88   0.217   0.470   0.170
    1UNL    H25   89   0.022   0.432  -0.266
    1UNL    H26   90   0.260   0.227  -0.152
    1UNL    H27   91   0.272   0.171  -0.319
    1UNL    H28   92   0.204   0.446  -0.331
    1UNL    H29   93   0.550   0.539  -0.401
    1UNL    H30   94   0.498   0.617  -0.250
    1UNL    H31   95   0.374   0.597  -0.375
    1UNL    H32   96   0.613   0.363  -0.241
    1UNL    H33   97   0.496   0.256  -0.160
    1UNL    H34   98   0.469   0.133  -0.395
    1UNL    H35   99   0.605   0.242  -0.448
    1UNL    H36  100   0.757   0.123  -0.316
    1UNL    H37  101   0.480   0.008  -0.060
    1UNL    H38  102   0.453  -0.107  -0.204
    1UNL    H39  103   0.413   0.053  -0.208
    1UNL    H40  104   0.822  -0.051  -0.199
    1UNL    H41  105   0.708  -0.176  -0.161
    1UNL    H42  106   0.823  -0.099   0.152
    1UNL    H43  107   0.978  -0.284   0.200
    1UNL    H44  108   1.048  -0.482  -0.018
    1UNL    H45  109   1.157  -0.359   0.035
    1UNL    H46  110   1.101  -0.500   0.144
    1UNL    H47  111   0.801  -0.500   0.070
    1UNL    H48  112   0.801  -0.554   0.307
    1UNL    H49  113   0.743  -0.308   0.307
    1UNL    H50  114   0.515  -0.368   0.230
    1UNL    H51  115   0.639  -0.293   0.014
    1UNL    H52  116   0.595  -0.070   0.117
    1UNL    H53  117  -0.171   0.404  -0.144
    1UNL    H54  118  -0.090   0.180  -0.264
    1UNL    H55  119   0.192  -0.079   0.053
    1UNL    H56  120   0.174  -0.258   0.237
    1UNL    H57  121   0.002  -0.266   0.198
    1UNL    H58  122   0.132  -0.325   0.082
    1UNL    H59  123   0.013  -0.235  -0.080
    1UNL    H60  124   0.046   0.051  -0.105
    1UNL    H61  125  -0.181  -0.047  -0.087
    1UNL    H62  126  -0.202  -0.261  -0.186
    1UNL    H63  127  -0.142  -0.539   0.103
    1UNL    H64  128  -0.302  -0.722   0.091
    1UNL    H65  129  -0.198  -0.722  -0.054
    1UNL    H66  130  -0.371  -0.651  -0.059
    1UNL    H67  131  -0.294  -0.368   0.170
    1UNL    H68  132  -0.474  -0.478   0.265
    1UNL    H69  133  -0.502  -0.492  -0.003
    1UNL    H70  134  -0.489  -0.240   0.148
    1UNL    H71  135  -0.428  -0.382  -0.186
    1UNL    H72  136  -0.452  -0.153  -0.036
   0.00000   0.00000   0.00000   0.00000   0.00000   0.00000   0.00000   0.00000   0.00000
Generated with MDTraj, t= 18.0
 136
    1UNL     C1    1  -1.020   0.305   0.166
    1UNL     C2    2  -1.007   0.156   0.141
    1UNL     C3    3  -1.086   0.097   0.056
    1UNL     C4    4  -1.211   0.151   0.007
    1UNL     O1    5  -1.179   0.262  -0.076
    1UNL     C5    6  -0.890   0.089   0.185
    1UNL     C6    7  -0.768   0.117   0.084
    1UNL     C7    8  -0.633   0.059   0.107
    1UNL     C8    9  -0.513   0.119   0.077
    1UNL     C9   10  -0.504   0.247  -0.002
    1UNL    C10   11  -0.389   0.034   0.115
    1UNL     O2   12  -0.402  -0.068   0.173
    1UNL     O3   13  -0.276   0.092   0.079
    1UNL    C11   14  -0.165   0.010   0.111
    1UNL    C12   15  -0.025   0.091   0.135
    1UNL     O4   16   0.011   0.174   0.031
    1UNL    C13   17  -0.084   0.283   0.023
    1UNL    C14   18  -0.031   0.408   0.102
    1UNL     O5   19  -0.139   0.467   0.171
    1UNL    C15   20   0.040   0.505   0.002
    1UNL    C16   21   0.129   0.608   0.069
    1UNL     O6   22   0.111   0.432  -0.102
    1UNL    C17   23   0.023   0.365  -0.199
    1UNL     O7   24   0.088   0.260  -0.264
    1UNL    C18   25   0.229   0.263  -0.255
    1UNL    C19   26   0.303   0.380  -0.312
    1UNL    C20   27   0.438   0.398  -0.310
    1UNL    C21   28   0.477   0.538  -0.342
    1UNL    C22   29   0.531   0.305  -0.248
    1UNL    C23   30   0.546   0.177  -0.344
    1UNL    C24   31   0.647   0.080  -0.285
    1UNL    C25   32   0.624  -0.005  -0.189
    1UNL    C26   33   0.499   0.001  -0.116
    1UNL    C27   34   0.731  -0.088  -0.132
    1UNL     O8   35   0.741  -0.049   0.003
    1UNL    C28   36   0.783  -0.155   0.080
    1UNL     O9   37   0.896  -0.232   0.025
    1UNL    C29   38   0.931  -0.333   0.117
    1UNL    C30   39   1.052  -0.403   0.058
    1UNL    C31   40   0.817  -0.438   0.144
    1UNL    O10   41   0.849  -0.546   0.229
    1UNL    C32   42   0.688  -0.369   0.192
    1UNL    O11   43   0.583  -0.457   0.206
    1UNL    C33   44   0.659  -0.246   0.103
    1UNL    O12   45   0.553  -0.155   0.158
    1UNL    C34   46  -0.113   0.315  -0.126
    1UNL    O13   47  -0.163   0.206  -0.189
    1UNL    O14   48   0.073  -0.004   0.170
    1UNL    C35   49   0.102  -0.110   0.065
    1UNL    C36   50   0.114  -0.251   0.123
    1UNL    C37   51   0.001  -0.107  -0.055
    1UNL    O15   52   0.023  -0.004  -0.159
    1UNL    C38   53  -0.145  -0.094  -0.006
    1UNL    O16   54  -0.186  -0.223   0.039
    1UNL    C39   55  -0.225  -0.299  -0.066
    1UNL    O17   56  -0.163  -0.427  -0.050
    1UNL    C40   57  -0.206  -0.528   0.051
    1UNL    C41   58  -0.246  -0.655  -0.015
    1UNL    C42   59  -0.332  -0.467   0.124
    1UNL    O18   60  -0.386  -0.550   0.218
    1UNL    C43   61  -0.437  -0.415   0.033
    1UNL    O19   62  -0.541  -0.339   0.108
    1UNL    C44   63  -0.381  -0.314  -0.075
    1UNL    O20   64  -0.444  -0.196  -0.073
    1UNL     H1   65  -0.962   0.360   0.091
    1UNL     H2   66  -0.974   0.333   0.261
    1UNL     H3   67  -1.127   0.331   0.161
    1UNL     H4   68  -1.072   0.002   0.022
    1UNL     H5   69  -1.277   0.191   0.090
    1UNL     H6   70  -1.260   0.079  -0.055
    1UNL     H7   71  -1.090   0.248  -0.116
    1UNL     H8   72  -0.861   0.104   0.288
    1UNL     H9   73  -0.911  -0.024   0.171
    1UNL    H10   74  -0.798   0.078  -0.014
    1UNL    H11   75  -0.769   0.225   0.072
    1UNL    H12   76  -0.639  -0.020   0.183
    1UNL    H13   77  -0.396   0.249  -0.033
    1UNL    H14   78  -0.572   0.249  -0.089
    1UNL    H15   79  -0.523   0.326   0.065
    1UNL    H16   80  -0.186  -0.052   0.199
    1UNL    H17   81  -0.038   0.158   0.228
    1UNL    H18   82  -0.186   0.252   0.070
    1UNL    H19   83   0.049   0.370   0.168
    1UNL    H20   84  -0.166   0.411   0.254
    1UNL    H21   85  -0.044   0.568  -0.032
    1UNL    H22   86   0.080   0.675   0.135
    1UNL    H23   87   0.179   0.674  -0.006
    1UNL    H24   88   0.213   0.561   0.126
    1UNL    H25   89  -0.001   0.434  -0.278
    1UNL    H26   90   0.261   0.260  -0.146
    1UNL    H27   91   0.258   0.165  -0.293
    1UNL    H28   92   0.239   0.462  -0.343
    1UNL    H29   93   0.475   0.553  -0.458
    1UNL    H30   94   0.583   0.570  -0.328
    1UNL    H31   95   0.414   0.610  -0.293
    1UNL    H32   96   0.632   0.343  -0.238
    1UNL    H33   97   0.491   0.276  -0.150
    1UNL    H34   98   0.442   0.126  -0.358
    1UNL    H35   99   0.577   0.197  -0.448
    1UNL    H36  100   0.747   0.095  -0.313
    1UNL    H37  101   0.497   0.103  -0.078
    1UNL    H38  102   0.479  -0.074  -0.051
    1UNL    H39  103   0.426  -0.016  -0.190
    1UNL    H40  104   0.824  -0.081  -0.185
    1UNL    H41  105   0.706  -0.193  -0.143
    1UNL    H42  106   0.820  -0.109   0.171
    1UNL    H43  107   0.958  -0.286   0.209
    1UNL    H44  108   1.025  -0.434  -0.045
    1UNL    H45  109   1.125  -0.320   0.043
    1UNL    H46  110   1.091  -0.483   0.115
    1UNL    H47  111   0.795  -0.494   0.046
    1UNL    H48  112   0.760  -0.586   0.255
    1UNL    H49  113   0.701  -0.317   0.290
    1UNL    H50  114   0.497  -0.407   0.222
    1UNL    H51  115   0.611  -0.274   0.009
    1UNL    H52  116   0.579  -0.060   0.150
    1UNL    H53  117  -0.183   0.389  -0.138
    1UNL    H54  118  -0.094   0.133  -0.180
    1UNL    H55  119   0.199  -0.094   0.025
    1UNL    H56  120   0.191  -0.263   0.198
    1UNL    H57  121   0.021  -0.269   0.181
    1UNL    H58  122   0.131  -0.328   0.047
    1UNL    H59  123   0.022  -0.207  -0.099
    1UNL    H60  124   0.081   0.066  -0.114
    1UNL    H61  125  -0.205  -0.067  -0.089
    1UNL    H62  126  -0.190  -0.253  -0.157
    1UNL    H63  127  -0.121  -0.546   0.125
    1UNL    H64  128  -0.279  -0.737   0.057
    1UNL    H65  129  -0.161  -0.703  -0.070
    1UNL    H66  130  -0.332  -0.631  -0.078
    1UNL    H67  131  -0.302  -0.375   0.171
    1UNL    H68  132  -0.475  -0.508   0.229
    1UNL    H69  133  -0.486  -0.497  -0.021
    1UNL    H70  134  -0.506  -0.256   0.147
    1UNL    H71  135  -0.412  -0.363  -0.172
    1UNL    H72  136  -0.415  -0.151   0.011
   0.00000   0.00000   0.00000   0.00000   0.00000   0.00000   0.00000   0.00000   0.00000
Generated with MDTraj, t= 19.0
 136
    1UNL     C1    1  -1.040   0.279   0.179
    1UNL     C2    2  -1.011   0.152   0.119
    1UNL     C3    3  -1.099   0.090   0.046
    1UNL     C4    4  -1.227   0.154   0.004
    1UNL     O1    5  -1.203   0.263  -0.082
    1UNL     C5    6  -0.880   0.080   0.152
    1UNL     C6    7  -0.757   0.147   0.086
    1UNL     C7    8  -0.628   0.088   0.135
    1UNL     C8    9  -0.503   0.125   0.094
    1UNL     C9   10  -0.479   0.225  -0.009
    1UNL    C10   11  -0.385   0.039   0.129
    1UNL     O2   12  -0.401  -0.068   0.177
    1UNL     O3   13  -0.263   0.095   0.079
    1UNL    C11   14  -0.156   0.006   0.103
    1UNL    C12   15  -0.018   0.088   0.127
    1UNL     O4   16   0.011   0.185   0.026
    1UNL    C13   17  -0.075   0.298   0.017
    1UNL    C14   18  -0.012   0.417   0.088
    1UNL     O5   19  -0.084   0.477   0.199
    1UNL    C15   20   0.013   0.536  -0.012
    1UNL    C16   21   0.091   0.645   0.059
    1UNL     O6   22   0.086   0.487  -0.126
    1UNL    C17   23   0.010   0.395  -0.207
    1UNL     O7   24   0.082   0.287  -0.263
    1UNL    C18   25   0.215   0.286  -0.229
    1UNL    C19   26   0.282   0.403  -0.299
    1UNL    C20   27   0.415   0.405  -0.315
    1UNL    C21   28   0.486   0.498  -0.403
    1UNL    C22   29   0.502   0.302  -0.249
    1UNL    C23   30   0.537   0.179  -0.340
    1UNL    C24   31   0.648   0.093  -0.279
    1UNL    C25   32   0.625   0.009  -0.181
    1UNL    C26   33   0.480  -0.022  -0.132
    1UNL    C27   34   0.737  -0.053  -0.104
    1UNL     O8   35   0.730  -0.045   0.035
    1UNL    C28   36   0.761  -0.165   0.104
    1UNL     O9   37   0.866  -0.241   0.045
    1UNL    C29   38   0.910  -0.355   0.121
    1UNL    C30   39   1.037  -0.421   0.053
    1UNL    C31   40   0.796  -0.460   0.129
    1UNL    O10   41   0.830  -0.575   0.197
    1UNL    C32   42   0.680  -0.382   0.203
    1UNL    O11   43   0.570  -0.470   0.211
    1UNL    C33   44   0.647  -0.264   0.116
    1UNL    O12   45   0.534  -0.206   0.172
    1UNL    C34   46  -0.118   0.337  -0.129
    1UNL    O13   47  -0.182   0.232  -0.197
    1UNL    O14   48   0.083  -0.009   0.164
    1UNL    C35   49   0.114  -0.110   0.059
    1UNL    C36   50   0.124  -0.246   0.121
    1UNL    C37   51   0.009  -0.102  -0.059
    1UNL    O15   52   0.036   0.007  -0.153
    1UNL    C38   53  -0.139  -0.102  -0.010
    1UNL    O16   54  -0.173  -0.236   0.029
    1UNL    C39   55  -0.201  -0.320  -0.078
    1UNL    O17   56  -0.149  -0.453  -0.063
    1UNL    C40   57  -0.189  -0.533   0.051
    1UNL    C41   58  -0.225  -0.671   0.008
    1UNL    C42   59  -0.308  -0.469   0.132
    1UNL    O18   60  -0.352  -0.565   0.222
    1UNL    C43   61  -0.417  -0.411   0.051
    1UNL    O19   62  -0.494  -0.323   0.130
    1UNL    C44   63  -0.361  -0.326  -0.075
    1UNL    O20   64  -0.429  -0.204  -0.089
    1UNL     H1   65  -1.032   0.362   0.107
    1UNL     H2   66  -0.970   0.313   0.261
    1UNL     H3   67  -1.139   0.283   0.214
    1UNL     H4   68  -1.079  -0.009   0.001
    1UNL     H5   69  -1.272   0.193   0.102
    1UNL     H6   70  -1.294   0.082  -0.047
    1UNL     H7   71  -1.117   0.239  -0.126
    1UNL     H8   72  -0.866   0.088   0.258
    1UNL     H9   73  -0.880  -0.029   0.122
    1UNL    H10   74  -0.762   0.145  -0.023
    1UNL    H11   75  -0.759   0.249   0.122
    1UNL    H12   76  -0.652   0.005   0.197
    1UNL    H13   77  -0.374   0.240  -0.001
    1UNL    H14   78  -0.509   0.202  -0.114
    1UNL    H15   79  -0.522   0.323   0.010
    1UNL    H16   80  -0.185  -0.054   0.188
    1UNL    H17   81  -0.035   0.144   0.227
    1UNL    H18   82  -0.175   0.279   0.072
    1UNL    H19   83   0.093   0.384   0.107
    1UNL    H20   84  -0.102   0.414   0.278
    1UNL    H21   85  -0.081   0.586  -0.038
    1UNL    H22   86   0.047   0.662   0.161
    1UNL    H23   87   0.095   0.744   0.014
    1UNL    H24   88   0.193   0.610   0.081
    1UNL    H25   89  -0.026   0.448  -0.292
    1UNL    H26   90   0.211   0.284  -0.115
    1UNL    H27   91   0.262   0.190  -0.251
    1UNL    H28   92   0.219   0.472  -0.347
    1UNL    H29   93   0.421   0.562  -0.467
    1UNL    H30   94   0.542   0.439  -0.483
    1UNL    H31   95   0.557   0.561  -0.349
    1UNL    H32   96   0.593   0.354  -0.220
    1UNL    H33   97   0.457   0.254  -0.162
    1UNL    H34   98   0.451   0.110  -0.377
    1UNL    H35   99   0.575   0.216  -0.436
    1UNL    H36  100   0.749   0.122  -0.311
    1UNL    H37  101   0.459   0.035  -0.042
    1UNL    H38  102   0.464  -0.123  -0.116
    1UNL    H39  103   0.404  -0.019  -0.205
    1UNL    H40  104   0.829  -0.007  -0.136
    1UNL    H41  105   0.748  -0.157  -0.135
    1UNL    H42  106   0.804  -0.138   0.199
    1UNL    H43  107   0.950  -0.310   0.213
    1UNL    H44  108   1.008  -0.452  -0.050
    1UNL    H45  109   1.121  -0.348   0.044
    1UNL    H46  110   1.076  -0.501   0.106
    1UNL    H47  111   0.771  -0.495   0.025
    1UNL    H48  112   0.742  -0.618   0.212
    1UNL    H49  113   0.712  -0.354   0.303
    1UNL    H50  114   0.485  -0.432   0.200
    1UNL    H51  115   0.612  -0.314   0.024
    1UNL    H52  116   0.559  -0.179   0.271
    1UNL    H53  117  -0.187   0.415  -0.123
    1UNL    H54  118  -0.135   0.149  -0.186
    1UNL    H55  119   0.207  -0.072   0.017
    1UNL    H56  120   0.153  -0.246   0.224
    1UNL    H57  121   0.027  -0.291   0.126
    1UNL    H58  122   0.196  -0.310   0.061
    1UNL    H59  123   0.025  -0.191  -0.120
    1UNL    H60  124   0.052   0.080  -0.095
    1UNL    H61  125  -0.204  -0.069  -0.090
    1UNL    H62  126  -0.166  -0.277  -0.172
    1UNL    H63  127  -0.100  -0.534   0.123
    1UNL    H64  128  -0.260  -0.738   0.090
    1UNL    H65  129  -0.141  -0.730  -0.036
    1UNL    H66  130  -0.314  -0.661  -0.063
    1UNL    H67  131  -0.254  -0.403   0.198
    1UNL    H68  132  -0.440  -0.539   0.262
    1UNL    H69  133  -0.479  -0.489   0.007
    1UNL    H70  134  -0.454  -0.231   0.136
    1UNL    H71  135  -0.391  -0.378  -0.171
    1UNL    H72  136  -0.409  -0.151  -0.009
   0.00000   0.00000   0.00000   0.00000   0.00000   0.00000   0.00000   0.00000   0.00000
Generated with MDTraj, t= 20.0
 136
    1UNL     C1    1  -1.031   0.272   0.187
    1UNL     C2    2  -0.986   0.148   0.099
    1UNL     C3    3  -1.062   0.090   0.009
    1UNL     C4    4  -1.205   0.133  -0.009
    1UNL     O1    5  -1.227   0.264  -0.061
    1UNL     C5    6  -0.857   0.081   0.139
    1UNL     C6    7  -0.737   0.166   0.126
    1UNL     C7    8  -0.615   0.075   0.129
    1UNL     C8    9  -0.504   0.111   0.066
    1UNL     C9   10  -0.488   0.208  -0.032
    1UNL    C10   11  -0.380   0.042   0.109
    1UNL     O2   12  -0.387  -0.067   0.159
    1UNL     O3   13  -0.262   0.103   0.058
    1UNL    C11   14  -0.147   0.017   0.086
    1UNL    C12   15  -0.016   0.101   0.104
    1UNL     O4   16  -0.004   0.194   0.002
    1UNL    C13   17  -0.081   0.310   0.025
    1UNL    C14   18  -0.005   0.437   0.087
    1UNL     O5   19  -0.028   0.459   0.225
    1UNL    C15   20  -0.011   0.561  -0.003
    1UNL    C16   21   0.091   0.660   0.048
    1UNL     O6   22   0.025   0.525  -0.140
    1UNL    C17   23  -0.032   0.407  -0.197
    1UNL     O7   24   0.063   0.304  -0.233
    1UNL    C18   25   0.199   0.336  -0.201
    1UNL    C19   26   0.273   0.393  -0.320
    1UNL    C20   27   0.409   0.389  -0.336
    1UNL    C21   28   0.459   0.479  -0.444
    1UNL    C22   29   0.506   0.309  -0.249
    1UNL    C23   30   0.558   0.191  -0.318
    1UNL    C24   31   0.657   0.102  -0.242
    1UNL    C25   32   0.611   0.006  -0.164
    1UNL    C26   33   0.468  -0.028  -0.127
    1UNL    C27   34   0.717  -0.072  -0.075
    1UNL     O8   35   0.714  -0.059   0.067
    1UNL    C28   36   0.745  -0.184   0.127
    1UNL     O9   37   0.857  -0.243   0.051
    1UNL    C29   38   0.892  -0.363   0.114
    1UNL    C30   39   1.004  -0.425   0.035
    1UNL    C31   40   0.785  -0.478   0.127
    1UNL    O10   41   0.821  -0.600   0.187
    1UNL    C32   42   0.665  -0.410   0.202
    1UNL    O11   43   0.552  -0.504   0.200
    1UNL    C33   44   0.624  -0.281   0.125
    1UNL    O12   45   0.498  -0.234   0.179
    1UNL    C34   46  -0.147   0.348  -0.108
    1UNL    O13   47  -0.206   0.235  -0.173
    1UNL    O14   48   0.103   0.019   0.133
    1UNL    C35   49   0.130  -0.094   0.050
    1UNL    C36   50   0.150  -0.219   0.135
    1UNL    C37   51   0.026  -0.111  -0.066
    1UNL    O15   52   0.060  -0.021  -0.171
    1UNL    C38   53  -0.121  -0.100  -0.017
    1UNL    O16   54  -0.174  -0.227   0.025
    1UNL    C39   55  -0.202  -0.319  -0.077
    1UNL    O17   56  -0.128  -0.443  -0.064
    1UNL    C40   57  -0.167  -0.525   0.050
    1UNL    C41   58  -0.209  -0.669   0.015
    1UNL    C42   59  -0.273  -0.451   0.144
    1UNL    O18   60  -0.302  -0.533   0.253
    1UNL    C43   61  -0.400  -0.420   0.061
    1UNL    O19   62  -0.486  -0.343   0.123
    1UNL    C44   63  -0.357  -0.337  -0.068
    1UNL    O20   64  -0.421  -0.216  -0.090
    1UNL     H1   65  -1.130   0.306   0.163
    1UNL     H2   66  -0.965   0.361   0.160
    1UNL     H3   67  -1.027   0.248   0.290
    1UNL     H4   68  -1.026   0.008  -0.057
    1UNL     H5   69  -1.256   0.131   0.095
    1UNL     H6   70  -1.254   0.061  -0.081
    1UNL     H7   71  -1.224   0.273  -0.158
    1UNL     H8   72  -0.866   0.053   0.244
    1UNL     H9   73  -0.851  -0.006   0.075
    1UNL    H10   74  -0.744   0.213   0.029
    1UNL    H11   75  -0.724   0.242   0.203
    1UNL    H12   76  -0.627  -0.020   0.183
    1UNL    H13   77  -0.390   0.205  -0.066
    1UNL    H14   78  -0.572   0.207  -0.107
    1UNL    H15   79  -0.509   0.305   0.016
    1UNL    H16   80  -0.172  -0.028   0.181
    1UNL    H17   81  -0.012   0.157   0.207
    1UNL    H18   82  -0.160   0.285   0.105
    1UNL    H19   83   0.097   0.389   0.080
    1UNL    H20   84  -0.015   0.378   0.277
    1UNL    H21   85  -0.111   0.605   0.008
    1UNL    H22   86   0.055   0.698   0.150
    1UNL    H23   87   0.097   0.745  -0.017
    1UNL    H24   88   0.188   0.617   0.065
    1UNL    H25   89  -0.083   0.434  -0.287
    1UNL    H26   90   0.201   0.405  -0.113
    1UNL    H27   91   0.234   0.243  -0.154
    1UNL    H28   92   0.208   0.451  -0.392
    1UNL    H29   93   0.449   0.581  -0.413
    1UNL    H30   94   0.397   0.458  -0.537
    1UNL    H31   95   0.565   0.450  -0.471
    1UNL    H32   96   0.595   0.367  -0.219
    1UNL    H33   97   0.447   0.284  -0.162
    1UNL    H34   98   0.471   0.126  -0.353
    1UNL    H35   99   0.604   0.212  -0.416
    1UNL    H36  100   0.761   0.120  -0.242
    1UNL    H37  101   0.436   0.035  -0.049
    1UNL    H38  102   0.464  -0.137  -0.105
    1UNL    H39  103   0.405  -0.034  -0.211
    1UNL    H40  104   0.819  -0.048  -0.107
    1UNL    H41  105   0.719  -0.180  -0.100
    1UNL    H42  106   0.789  -0.168   0.222
    1UNL    H43  107   0.928  -0.326   0.216
    1UNL    H44  108   0.983  -0.437  -0.074
    1UNL    H45  109   1.099  -0.370   0.047
    1UNL    H46  110   1.031  -0.517   0.079
    1UNL    H47  111   0.746  -0.514   0.030
    1UNL    H48  112   0.737  -0.646   0.206
    1UNL    H49  113   0.683  -0.372   0.301
    1UNL    H50  114   0.470  -0.446   0.192
    1UNL    H51  115   0.597  -0.313   0.023
    1UNL    H52  116   0.506  -0.130   0.180
    1UNL    H53  117  -0.217   0.422  -0.086
    1UNL    H54  118  -0.156   0.152  -0.158
    1UNL    H55  119   0.223  -0.057  -0.001
    1UNL    H56  120   0.242  -0.220   0.193
    1UNL    H57  121   0.075  -0.224   0.207
    1UNL    H58  122   0.152  -0.307   0.064
    1UNL    H59  123   0.035  -0.211  -0.103
    1UNL    H60  124   0.040   0.069  -0.136
    1UNL    H61  125  -0.181  -0.062  -0.100
    1UNL    H62  126  -0.175  -0.279  -0.177
    1UNL    H63  127  -0.076  -0.523   0.116
    1UNL    H64  128  -0.228  -0.727   0.105
    1UNL    H65  129  -0.133  -0.729  -0.039
    1UNL    H66  130  -0.311  -0.662  -0.042
    1UNL    H67  131  -0.237  -0.355   0.188
    1UNL    H68  132  -0.384  -0.487   0.285
    1UNL    H69  133  -0.462  -0.504   0.027
    1UNL    H70  134  -0.448  -0.256   0.142
    1UNL    H71  135  -0.392  -0.396  -0.156
    1UNL    H72  136  -0.386  -0.155  -0.024
   0.00000   0.00000   0.00000   0.00000   0.00000   0.00000   0.00000   0.00000   0.00000
Generated with MDTraj, t= 21.0
 136
    1UNL     C1    1  -1.022   0.242   0.183
    1UNL     C2    2  -0.982   0.120   0.094
    1UNL     C3    3  -1.059   0.063   0.006
    1UNL     C4    4  -1.188   0.126  -0.040
    1UNL     O1    5  -1.198   0.269  -0.018
    1UNL     C5    6  -0.845   0.067   0.127
    1UNL     C6    7  -0.731   0.172   0.112
    1UNL     C7    8  -0.591   0.112   0.137
    1UNL     C8    9  -0.478   0.129   0.070
    1UNL     C9   10  -0.470   0.195  -0.061
    1UNL    C10   11  -0.364   0.034   0.107
    1UNL     O2   12  -0.376  -0.079   0.146
    1UNL     O3   13  -0.246   0.092   0.066
    1UNL    C11   14  -0.136   0.010   0.090
    1UNL    C12   15  -0.011   0.102   0.101
    1UNL     O4   16  -0.001   0.199  -0.007
    1UNL    C13   17  -0.086   0.310   0.018
    1UNL    C14   18   0.014   0.421   0.078
    1UNL     O5   19  -0.003   0.435   0.216
    1UNL    C15   20  -0.006   0.560   0.005
    1UNL    C16   21   0.078   0.680   0.051
    1UNL     O6   22   0.019   0.543  -0.140
    1UNL    C17   23  -0.036   0.426  -0.201
    1UNL     O7   24   0.052   0.322  -0.230
    1UNL    C18   25   0.186   0.358  -0.194
    1UNL    C19   26   0.253   0.402  -0.321
    1UNL    C20   27   0.386   0.396  -0.340
    1UNL    C21   28   0.428   0.430  -0.477
    1UNL    C22   29   0.474   0.333  -0.239
    1UNL    C23   30   0.552   0.214  -0.300
    1UNL    C24   31   0.633   0.124  -0.209
    1UNL    C25   32   0.596   0.023  -0.133
    1UNL    C26   33   0.453  -0.020  -0.124
    1UNL    C27   34   0.693  -0.066  -0.068
    1UNL     O8   35   0.676  -0.071   0.070
    1UNL    C28   36   0.713  -0.201   0.126
    1UNL     O9   37   0.815  -0.263   0.041
    1UNL    C29   38   0.871  -0.379   0.118
    1UNL    C30   39   1.002  -0.436   0.048
    1UNL    C31   40   0.760  -0.489   0.128
    1UNL    O10   41   0.807  -0.608   0.180
    1UNL    C32   42   0.637  -0.440   0.194
    1UNL    O11   43   0.540  -0.546   0.182
    1UNL    C33   44   0.599  -0.305   0.128
    1UNL    O12   45   0.488  -0.257   0.206
    1UNL    C34   46  -0.152   0.366  -0.116
    1UNL    O13   47  -0.214   0.257  -0.189
    1UNL    O14   48   0.113   0.038   0.129
    1UNL    C35   49   0.131  -0.079   0.044
    1UNL    C36   50   0.129  -0.210   0.132
    1UNL    C37   51   0.035  -0.097  -0.079
    1UNL    O15   52   0.059  -0.002  -0.177
    1UNL    C38   53  -0.109  -0.096  -0.024
    1UNL    O16   54  -0.155  -0.217   0.029
    1UNL    C39   55  -0.183  -0.310  -0.071
    1UNL    O17   56  -0.117  -0.438  -0.070
    1UNL    C40   57  -0.138  -0.506   0.062
    1UNL    C41   58  -0.165  -0.653   0.032
    1UNL    C42   59  -0.246  -0.436   0.150
    1UNL    O18   60  -0.279  -0.502   0.265
    1UNL    C43   61  -0.378  -0.422   0.070
    1UNL    O19   62  -0.472  -0.343   0.140
    1UNL    C44   63  -0.336  -0.345  -0.067
    1UNL    O20   64  -0.423  -0.240  -0.099
    1UNL     H1   65  -1.125   0.232   0.211
    1UNL     H2   66  -1.012   0.333   0.118
    1UNL     H3   67  -0.964   0.245   0.274
    1UNL     H4   68  -1.020  -0.013  -0.050
    1UNL     H5   69  -1.274   0.092   0.031
    1UNL     H6   70  -1.220   0.108  -0.147
    1UNL     H7   71  -1.155   0.324  -0.088
    1UNL     H8   72  -0.843   0.020   0.226
    1UNL     H9   73  -0.824  -0.004   0.053
    1UNL    H10   74  -0.728   0.215   0.014
    1UNL    H11   75  -0.756   0.255   0.177
    1UNL    H12   76  -0.595   0.042   0.218
    1UNL    H13   77  -0.377   0.161  -0.100
    1UNL    H14   78  -0.565   0.172  -0.112
    1UNL    H15   79  -0.479   0.303  -0.044
    1UNL    H16   80  -0.162  -0.045   0.182
    1UNL    H17   81  -0.018   0.158   0.203
    1UNL    H18   82  -0.178   0.291   0.085
    1UNL    H19   83   0.117   0.380   0.063
    1UNL    H20   84   0.018   0.365   0.275
    1UNL    H21   85  -0.113   0.583   0.023
    1UNL    H22   86   0.075   0.699   0.160
    1UNL    H23   87   0.044   0.772   0.000
    1UNL    H24   88   0.182   0.662   0.025
    1UNL    H25   89  -0.071   0.453  -0.300
    1UNL    H26   90   0.188   0.427  -0.109
    1UNL    H27   91   0.227   0.263  -0.154
    1UNL    H28   92   0.185   0.433  -0.393
    1UNL    H29   93   0.527   0.471  -0.476
    1UNL    H30   94   0.356   0.507  -0.517
    1UNL    H31   95   0.405   0.336  -0.542
    1UNL    H32   96   0.541   0.414  -0.209
    1UNL    H33   97   0.426   0.301  -0.147
    1UNL    H34   98   0.474   0.148  -0.342
    1UNL    H35   99   0.604   0.239  -0.395
    1UNL    H36  100   0.743   0.132  -0.218
    1UNL    H37  101   0.389   0.060  -0.135
    1UNL    H38  102   0.436  -0.075  -0.027
    1UNL    H39  103   0.444  -0.106  -0.187
    1UNL    H40  104   0.797  -0.041  -0.100
    1UNL    H41  105   0.682  -0.169  -0.112
    1UNL    H42  106   0.747  -0.186   0.226
    1UNL    H43  107   0.890  -0.339   0.224
    1UNL    H44  108   0.992  -0.446  -0.060
    1UNL    H45  109   1.089  -0.372   0.060
    1UNL    H46  110   1.045  -0.525   0.094
    1UNL    H47  111   0.737  -0.527   0.029
    1UNL    H48  112   0.738  -0.670   0.219
    1UNL    H49  113   0.663  -0.429   0.297
    1UNL    H50  114   0.448  -0.508   0.200
    1UNL    H51  115   0.553  -0.321   0.030
    1UNL    H52  116   0.510  -0.168   0.236
    1UNL    H53  117  -0.221   0.445  -0.104
    1UNL    H54  118  -0.145   0.191  -0.222
    1UNL    H55  119   0.236  -0.066   0.007
    1UNL    H56  120   0.195  -0.195   0.217
    1UNL    H57  121   0.033  -0.226   0.175
    1UNL    H58  122   0.168  -0.294   0.074
    1UNL    H59  123   0.053  -0.196  -0.113
    1UNL    H60  124   0.049   0.091  -0.143
    1UNL    H61  125  -0.177  -0.065  -0.108
    1UNL    H62  126  -0.156  -0.267  -0.171
    1UNL    H63  127  -0.045  -0.481   0.114
    1UNL    H64  128  -0.177  -0.717   0.120
    1UNL    H65  129  -0.072  -0.687  -0.019
    1UNL    H66  130  -0.259  -0.656  -0.033
    1UNL    H67  131  -0.193  -0.344   0.197
    1UNL    H68  132  -0.362  -0.455   0.292
    1UNL    H69  133  -0.425  -0.522   0.061
    1UNL    H70  134  -0.435  -0.250   0.146
    1UNL    H71  135  -0.351  -0.419  -0.147
    1UNL    H72  136  -0.406  -0.171  -0.026
   0.00000   0.00000   0.00000   0.00000   0.00000   0.00000   0.00000   0.00000   0.00000
Generated with MDTraj, t= 22.0
 136
    1UNL     C1    1  -1.018   0.193   0.214
    1UNL     C2    2  -0.973   0.108   0.105
    1UNL     C3    3  -1.036   0.087  -0.006
    1UNL     C4    4  -1.172   0.131  -0.039
    1UNL     O1    5  -1.189   0.271  -0.031
    1UNL     C5    6  -0.838   0.043   0.121
    1UNL     C6    7  -0.718   0.146   0.105
    1UNL     C7    8  -0.583   0.089   0.136
    1UNL     C8    9  -0.475   0.114   0.063
    1UNL     C9   10  -0.478   0.178  -0.075
    1UNL    C10   11  -0.355   0.044   0.094
    1UNL     O2   12  -0.365  -0.056   0.161
    1UNL     O3   13  -0.238   0.099   0.054
    1UNL    C11   14  -0.131   0.020   0.095
    1UNL    C12   15  -0.007   0.107   0.101
    1UNL     O4   16  -0.007   0.214   0.001
    1UNL    C13   17  -0.086   0.326   0.029
    1UNL    C14   18   0.004   0.441   0.095
    1UNL     O5   19  -0.036   0.456   0.229
    1UNL    C15   20  -0.002   0.570   0.012
    1UNL    C16   21   0.087   0.675   0.067
    1UNL     O6   22   0.023   0.551  -0.127
    1UNL    C17   23  -0.042   0.441  -0.199
    1UNL     O7   24   0.049   0.349  -0.263
    1UNL    C18   25   0.196   0.369  -0.234
    1UNL    C19   26   0.269   0.410  -0.362
    1UNL    C20   27   0.402   0.399  -0.375
    1UNL    C21   28   0.456   0.456  -0.501
    1UNL    C22   29   0.487   0.335  -0.270
    1UNL    C23   30   0.532   0.194  -0.319
    1UNL    C24   31   0.615   0.123  -0.212
    1UNL    C25   32   0.580   0.033  -0.119
    1UNL    C26   33   0.445  -0.017  -0.110
    1UNL    C27   34   0.677  -0.048  -0.031
    1UNL     O8   35   0.621  -0.098   0.087
    1UNL    C28   36   0.679  -0.221   0.128
    1UNL     O9   37   0.807  -0.262   0.060
    1UNL    C29   38   0.849  -0.390   0.120
    1UNL    C30   39   0.974  -0.427   0.047
    1UNL    C31   40   0.747  -0.502   0.111
    1UNL    O10   41   0.794  -0.625   0.167
    1UNL    C32   42   0.623  -0.456   0.192
    1UNL    O11   43   0.515  -0.553   0.179
    1UNL    C33   44   0.575  -0.331   0.133
    1UNL    O12   45   0.458  -0.286   0.196
    1UNL    C34   46  -0.149   0.369  -0.110
    1UNL    O13   47  -0.202   0.255  -0.181
    1UNL    O14   48   0.109   0.030   0.121
    1UNL    C35   49   0.117  -0.091   0.033
    1UNL    C36   50   0.103  -0.214   0.125
    1UNL    C37   51   0.022  -0.096  -0.089
    1UNL    O15   52   0.055   0.008  -0.176
    1UNL    C38   53  -0.122  -0.089  -0.020
    1UNL    O16   54  -0.154  -0.212   0.024
    1UNL    C39   55  -0.176  -0.307  -0.073
    1UNL    O17   56  -0.088  -0.418  -0.053
    1UNL    C40   57  -0.103  -0.483   0.078
    1UNL    C41   58  -0.109  -0.638   0.062
    1UNL    C42   59  -0.231  -0.438   0.158
    1UNL    O18   60  -0.265  -0.521   0.268
    1UNL    C43   61  -0.351  -0.419   0.072
    1UNL    O19   62  -0.449  -0.347   0.149
    1UNL    C44   63  -0.320  -0.351  -0.063
    1UNL    O20   64  -0.398  -0.235  -0.083
    1UNL     H1   65  -1.121   0.180   0.248
    1UNL     H2   66  -1.016   0.296   0.189
    1UNL     H3   67  -0.963   0.182   0.310
    1UNL     H4   68  -0.981   0.037  -0.094
    1UNL     H5   69  -1.243   0.074   0.033
    1UNL     H6   70  -1.197   0.102  -0.144
    1UNL     H7   71  -1.154   0.304  -0.118
    1UNL     H8   72  -0.819   0.010   0.224
    1UNL     H9   73  -0.825  -0.038   0.059
    1UNL    H10   74  -0.734   0.201   0.014
    1UNL    H11   75  -0.727   0.225   0.177
    1UNL    H12   76  -0.583   0.043   0.236
    1UNL    H13   77  -0.374   0.197  -0.106
    1UNL    H14   78  -0.535   0.116  -0.144
    1UNL    H15   79  -0.543   0.267  -0.073
    1UNL    H16   80  -0.160  -0.031   0.190
    1UNL    H17   81  -0.015   0.162   0.203
    1UNL    H18   82  -0.183   0.306   0.081
    1UNL    H19   83   0.110   0.407   0.082
    1UNL    H20   84  -0.055   0.369   0.266
    1UNL    H21   85  -0.105   0.610   0.004
    1UNL    H22   86   0.072   0.681   0.172
    1UNL    H23   87   0.058   0.774   0.019
    1UNL    H24   88   0.194   0.662   0.049
    1UNL    H25   89  -0.100   0.487  -0.281
    1UNL    H26   90   0.207   0.444  -0.157
    1UNL    H27   91   0.236   0.275  -0.191
    1UNL    H28   92   0.204   0.448  -0.445
    1UNL    H29   93   0.534   0.391  -0.542
    1UNL    H30   94   0.521   0.545  -0.485
    1UNL    H31   95   0.380   0.501  -0.577
    1UNL    H32   96   0.573   0.401  -0.253
    1UNL    H33   97   0.435   0.339  -0.175
    1UNL    H34   98   0.452   0.131  -0.353
    1UNL    H35   99   0.597   0.203  -0.410
    1UNL    H36  100   0.719   0.138  -0.216
    1UNL    H37  101   0.370   0.059  -0.125
    1UNL    H38  102   0.420  -0.064  -0.014
    1UNL    H39  103   0.435  -0.101  -0.176
    1UNL    H40  104   0.766   0.012  -0.003
    1UNL    H41  105   0.719  -0.133  -0.092
    1UNL    H42  106   0.701  -0.199   0.230
    1UNL    H43  107   0.857  -0.358   0.231
    1UNL    H44  108   0.960  -0.460  -0.054
    1UNL    H45  109   1.044  -0.347   0.055
    1UNL    H46  110   1.026  -0.502   0.116
    1UNL    H47  111   0.711  -0.520   0.012
    1UNL    H48  112   0.715  -0.676   0.197
    1UNL    H49  113   0.655  -0.438   0.293
    1UNL    H50  114   0.433  -0.508   0.198
    1UNL    H51  115   0.540  -0.339   0.030
    1UNL    H52  116   0.472  -0.202   0.233
    1UNL    H53  117  -0.227   0.437  -0.092
    1UNL    H54  118  -0.137   0.185  -0.174
    1UNL    H55  119   0.221  -0.085  -0.008
    1UNL    H56  120   0.161  -0.202   0.218
    1UNL    H57  121  -0.001  -0.233   0.160
    1UNL    H58  122   0.144  -0.293   0.070
    1UNL    H59  123   0.033  -0.185  -0.147
    1UNL    H60  124   0.061   0.091  -0.129
    1UNL    H61  125  -0.191  -0.059  -0.104
    1UNL    H62  126  -0.157  -0.269  -0.177
    1UNL    H63  127  -0.014  -0.446   0.128
    1UNL    H64  128  -0.130  -0.688   0.160
    1UNL    H65  129  -0.010  -0.681   0.030
    1UNL    H66  130  -0.196  -0.661  -0.001
    1UNL    H67  131  -0.207  -0.333   0.201
    1UNL    H68  132  -0.353  -0.482   0.296
    1UNL    H69  133  -0.413  -0.507   0.040
    1UNL    H70  134  -0.428  -0.251   0.152
    1UNL    H71  135  -0.343  -0.418  -0.146
    1UNL    H72  136  -0.378  -0.170  -0.019
   0.00000   0.00000   0.00000   0.00000   0.00000   0.00000   0.00000   0.00000   0.00000
Generated with MDTraj, t= 23.0
 136
    1UNL     C1    1  -1.076   0.133   0.227
    1UNL     C2    2  -0.986   0.093   0.117
    1UNL     C3    3  -1.042   0.083   0.000
    1UNL     C4    4  -1.172   0.140  -0.045
    1UNL     O1    5  -1.164   0.284  -0.040
    1UNL     C5    6  -0.852   0.034   0.140
    1UNL     C6    7  -0.730   0.125   0.099
    1UNL     C7    8  -0.592   0.073   0.129
    1UNL     C8    9  -0.484   0.109   0.058
    1UNL     C9   10  -0.495   0.177  -0.071
    1UNL    C10   11  -0.357   0.047   0.097
    1UNL     O2   12  -0.359  -0.064   0.147
    1UNL     O3   13  -0.243   0.115   0.077
    1UNL    C11   14  -0.115   0.039   0.090
    1UNL    C12   15   0.017   0.120   0.102
    1UNL     O4   16   0.024   0.222  -0.004
    1UNL    C13   17  -0.064   0.326   0.015
    1UNL    C14   18   0.002   0.451   0.099
    1UNL     O5   19  -0.075   0.477   0.220
    1UNL    C15   20   0.009   0.580   0.009
    1UNL    C16   21   0.078   0.695   0.094
    1UNL     O6   22   0.079   0.546  -0.116
    1UNL    C17   23  -0.004   0.462  -0.206
    1UNL     O7   24   0.052   0.368  -0.292
    1UNL    C18   25   0.186   0.348  -0.255
    1UNL    C19   26   0.278   0.406  -0.365
    1UNL    C20   27   0.414   0.400  -0.369
    1UNL    C21   28   0.479   0.453  -0.487
    1UNL    C22   29   0.492   0.319  -0.269
    1UNL    C23   30   0.505   0.170  -0.312
    1UNL    C24   31   0.607   0.100  -0.222
    1UNL    C25   32   0.568   0.030  -0.116
    1UNL    C26   33   0.429  -0.016  -0.087
    1UNL    C27   34   0.657  -0.027  -0.013
    1UNL     O8   35   0.586  -0.098   0.084
    1UNL    C28   36   0.645  -0.218   0.130
    1UNL     O9   37   0.767  -0.255   0.058
    1UNL    C29   38   0.826  -0.376   0.114
    1UNL    C30   39   0.953  -0.402   0.032
    1UNL    C31   40   0.727  -0.494   0.093
    1UNL    O10   41   0.780  -0.613   0.159
    1UNL    C32   42   0.596  -0.462   0.173
    1UNL    O11   43   0.499  -0.571   0.179
    1UNL    C33   44   0.542  -0.334   0.119
    1UNL    O12   45   0.421  -0.287   0.172
    1UNL    C34   46  -0.117   0.380  -0.126
    1UNL    O13   47  -0.158   0.264  -0.198
    1UNL    O14   48   0.144   0.040   0.109
    1UNL    C35   49   0.142  -0.087   0.037
    1UNL    C36   50   0.128  -0.207   0.121
    1UNL    C37   51   0.044  -0.089  -0.084
    1UNL    O15   52   0.082   0.010  -0.178
    1UNL    C38   53  -0.106  -0.079  -0.019
    1UNL    O16   54  -0.151  -0.202   0.027
    1UNL    C39   55  -0.172  -0.307  -0.071
    1UNL    O17   56  -0.085  -0.421  -0.042
    1UNL    C40   57  -0.091  -0.479   0.089
    1UNL    C41   58  -0.098  -0.633   0.079
    1UNL    C42   59  -0.220  -0.442   0.166
    1UNL    O18   60  -0.239  -0.530   0.280
    1UNL    C43   61  -0.346  -0.432   0.083
    1UNL    O19   62  -0.448  -0.368   0.159
    1UNL    C44   63  -0.318  -0.363  -0.058
    1UNL    O20   64  -0.400  -0.247  -0.075
    1UNL     H1   65  -1.166   0.070   0.238
    1UNL     H2   66  -1.110   0.230   0.221
    1UNL     H3   67  -1.029   0.127   0.329
    1UNL     H4   68  -0.994   0.027  -0.072
    1UNL     H5   69  -1.257   0.116   0.026
    1UNL     H6   70  -1.198   0.099  -0.143
    1UNL     H7   71  -1.097   0.317  -0.105
    1UNL     H8   72  -0.841  -0.001   0.241
    1UNL     H9   73  -0.841  -0.050   0.079
    1UNL    H10   74  -0.723   0.162  -0.001
    1UNL    H11   75  -0.750   0.219   0.147
    1UNL    H12   76  -0.589   0.038   0.229
    1UNL    H13   77  -0.398   0.185  -0.129
    1UNL    H14   78  -0.570   0.132  -0.131
    1UNL    H15   79  -0.535   0.278  -0.060
    1UNL    H16   80  -0.131  -0.020   0.186
    1UNL    H17   81   0.024   0.183   0.197
    1UNL    H18   82  -0.149   0.290   0.073
    1UNL    H19   83   0.100   0.417   0.133
    1UNL    H20   84  -0.120   0.395   0.260
    1UNL    H21   85  -0.093   0.606  -0.025
    1UNL    H22   86   0.023   0.739   0.173
    1UNL    H23   87   0.112   0.774   0.024
    1UNL    H24   88   0.173   0.659   0.140
    1UNL    H25   89  -0.057   0.539  -0.267
    1UNL    H26   90   0.205   0.381  -0.155
    1UNL    H27   91   0.194   0.236  -0.255
    1UNL    H28   92   0.217   0.449  -0.441
    1UNL    H29   93   0.459   0.380  -0.568
    1UNL    H30   94   0.590   0.447  -0.485
    1UNL    H31   95   0.460   0.559  -0.513
    1UNL    H32   96   0.594   0.360  -0.259
    1UNL    H33   97   0.452   0.328  -0.169
    1UNL    H34   98   0.412   0.121  -0.319
    1UNL    H35   99   0.547   0.172  -0.417
    1UNL    H36  100   0.715   0.103  -0.242
    1UNL    H37  101   0.383   0.059  -0.016
    1UNL    H38  102   0.425  -0.112  -0.045
    1UNL    H39  103   0.369  -0.030  -0.178
    1UNL    H40  104   0.725   0.048   0.033
    1UNL    H41  105   0.720  -0.103  -0.068
    1UNL    H42  106   0.664  -0.213   0.236
    1UNL    H43  107   0.840  -0.351   0.224
    1UNL    H44  108   0.916  -0.418  -0.066
    1UNL    H45  109   1.024  -0.324   0.041
    1UNL    H46  110   1.005  -0.492   0.080
    1UNL    H47  111   0.714  -0.518  -0.011
    1UNL    H48  112   0.706  -0.674   0.172
    1UNL    H49  113   0.638  -0.454   0.273
    1UNL    H50  114   0.417  -0.527   0.204
    1UNL    H51  115   0.526  -0.357   0.013
    1UNL    H52  116   0.441  -0.200   0.228
    1UNL    H53  117  -0.195   0.449  -0.101
    1UNL    H54  118  -0.086   0.195  -0.194
    1UNL    H55  119   0.239  -0.095  -0.010
    1UNL    H56  120   0.200  -0.202   0.202
    1UNL    H57  121   0.028  -0.223   0.171
    1UNL    H58  122   0.153  -0.289   0.064
    1UNL    H59  123   0.046  -0.186  -0.130
    1UNL    H60  124   0.073   0.099  -0.135
    1UNL    H61  125  -0.180  -0.057  -0.104
    1UNL    H62  126  -0.153  -0.280  -0.180
    1UNL    H63  127   0.003  -0.451   0.135
    1UNL    H64  128  -0.088  -0.685   0.181
    1UNL    H65  129  -0.012  -0.677   0.021
    1UNL    H66  130  -0.194  -0.663   0.044
    1UNL    H67  131  -0.188  -0.346   0.219
    1UNL    H68  132  -0.322  -0.495   0.320
    1UNL    H69  133  -0.371  -0.539   0.060
    1UNL    H70  134  -0.423  -0.272   0.161
    1UNL    H71  135  -0.336  -0.434  -0.138
    1UNL    H72  136  -0.383  -0.180   0.005
   0.00000   0.00000   0.00000   0.00000   0.00000   0.00000   0.00000   0.00000   0.00000
Generated with MDTraj, t= 24.0
 136
    1UNL     C1    1  -1.063   0.098   0.236
    1UNL     C2    2  -0.968   0.086   0.116
    1UNL     C3    3  -1.003   0.089  -0.012
    1UNL     C4    4  -1.133   0.138  -0.058
    1UNL     O1    5  -1.144   0.274  -0.019
    1UNL     C5    6  -0.832   0.029   0.145
    1UNL     C6    7  -0.724   0.102   0.083
    1UNL     C7    8  -0.592   0.048   0.117
    1UNL     C8    9  -0.483   0.094   0.061
    1UNL     C9   10  -0.484   0.210  -0.036
    1UNL    C10   11  -0.358   0.032   0.100
    1UNL     O2   12  -0.359  -0.071   0.168
    1UNL     O3   13  -0.248   0.100   0.053
    1UNL    C11   14  -0.129   0.027   0.088
    1UNL    C12   15  -0.017   0.126   0.111
    1UNL     O4   16   0.006   0.216   0.005
    1UNL    C13   17  -0.076   0.325   0.007
    1UNL    C14   18  -0.016   0.444   0.090
    1UNL     O5   19  -0.111   0.480   0.194
    1UNL    C15   20   0.030   0.563   0.008
    1UNL    C16   21   0.123   0.659   0.090
    1UNL     O6   22   0.086   0.521  -0.112
    1UNL    C17   23  -0.003   0.458  -0.207
    1UNL     O7   24   0.058   0.379  -0.313
    1UNL    C18   25   0.193   0.349  -0.285
    1UNL    C19   26   0.290   0.423  -0.380
    1UNL    C20   27   0.424   0.391  -0.372
    1UNL    C21   28   0.513   0.463  -0.459
    1UNL    C22   29   0.491   0.308  -0.267
    1UNL    C23   30   0.554   0.184  -0.330
    1UNL    C24   31   0.624   0.099  -0.221
    1UNL    C25   32   0.561   0.040  -0.117
    1UNL    C26   33   0.410   0.014  -0.113
    1UNL    C27   34   0.640  -0.046  -0.029
    1UNL     O8   35   0.587  -0.083   0.094
    1UNL    C28   36   0.632  -0.210   0.138
    1UNL     O9   37   0.757  -0.245   0.071
    1UNL    C29   38   0.807  -0.379   0.095
    1UNL    C30   39   0.940  -0.411   0.022
    1UNL    C31   40   0.707  -0.499   0.090
    1UNL    O10   41   0.769  -0.607   0.160
    1UNL    C32   42   0.575  -0.464   0.160
    1UNL    O11   43   0.482  -0.573   0.135
    1UNL    C33   44   0.523  -0.322   0.106
    1UNL    O12   45   0.403  -0.283   0.180
    1UNL    C34   46  -0.116   0.384  -0.134
    1UNL    O13   47  -0.169   0.284  -0.222
    1UNL    O14   48   0.102   0.050   0.145
    1UNL    C35   49   0.122  -0.073   0.073
    1UNL    C36   50   0.099  -0.194   0.158
    1UNL    C37   51   0.039  -0.093  -0.059
    1UNL    O15   52   0.067   0.001  -0.158
    1UNL    C38   53  -0.112  -0.086  -0.017
    1UNL    O16   54  -0.163  -0.206   0.035
    1UNL    C39   55  -0.168  -0.310  -0.058
    1UNL    O17   56  -0.071  -0.416  -0.036
    1UNL    C40   57  -0.085  -0.486   0.091
    1UNL    C41   58  -0.095  -0.637   0.056
    1UNL    C42   59  -0.207  -0.429   0.169
    1UNL    O18   60  -0.219  -0.500   0.293
    1UNL    C43   61  -0.338  -0.422   0.093
    1UNL    O19   62  -0.428  -0.341   0.176
    1UNL    C44   63  -0.306  -0.362  -0.052
    1UNL    O20   64  -0.386  -0.250  -0.081
    1UNL     H1   65  -1.062   0.004   0.292
    1UNL     H2   66  -1.156   0.123   0.193
    1UNL     H3   67  -1.022   0.182   0.296
    1UNL     H4   68  -0.934   0.049  -0.085
    1UNL     H5   69  -1.215   0.077  -0.012
    1UNL     H6   70  -1.147   0.140  -0.164
    1UNL     H7   71  -1.067   0.331  -0.037
    1UNL     H8   72  -0.812   0.031   0.247
    1UNL     H9   73  -0.828  -0.071   0.109
    1UNL    H10   74  -0.743   0.100  -0.024
    1UNL    H11   75  -0.704   0.208   0.093
    1UNL    H12   76  -0.596  -0.031   0.193
    1UNL    H13   77  -0.380   0.259  -0.032
    1UNL    H14   78  -0.504   0.178  -0.135
    1UNL    H15   79  -0.560   0.283  -0.014
    1UNL    H16   80  -0.162  -0.022   0.185
    1UNL    H17   81  -0.036   0.198   0.194
    1UNL    H18   82  -0.166   0.283   0.048
    1UNL    H19   83   0.073   0.408   0.141
    1UNL    H20   84  -0.159   0.399   0.239
    1UNL    H21   85  -0.063   0.613  -0.022
    1UNL    H22   86   0.076   0.687   0.186
    1UNL    H23   87   0.132   0.749   0.030
    1UNL    H24   88   0.224   0.620   0.113
    1UNL    H25   89  -0.049   0.546  -0.261
    1UNL    H26   90   0.206   0.393  -0.188
    1UNL    H27   91   0.211   0.241  -0.268
    1UNL    H28   92   0.239   0.478  -0.459
    1UNL    H29   93   0.447   0.487  -0.548
    1UNL    H30   94   0.604   0.407  -0.490
    1UNL    H31   95   0.556   0.551  -0.417
    1UNL    H32   96   0.569   0.366  -0.216
    1UNL    H33   97   0.418   0.280  -0.192
    1UNL    H34   98   0.474   0.127  -0.370
    1UNL    H35   99   0.628   0.213  -0.412
    1UNL    H36  100   0.731   0.095  -0.222
    1UNL    H37  101   0.364   0.087  -0.043
    1UNL    H38  102   0.391  -0.087  -0.088
    1UNL    H39  103   0.370   0.026  -0.217
    1UNL    H40  104   0.728   0.013  -0.000
    1UNL    H41  105   0.670  -0.141  -0.080
    1UNL    H42  106   0.653  -0.206   0.246
    1UNL    H43  107   0.825  -0.367   0.204
    1UNL    H44  108   0.917  -0.404  -0.083
    1UNL    H45  109   1.005  -0.327   0.045
    1UNL    H46  110   1.001  -0.500   0.050
    1UNL    H47  111   0.690  -0.536  -0.010
    1UNL    H48  112   0.705  -0.684   0.162
    1UNL    H49  113   0.584  -0.455   0.270
    1UNL    H50  114   0.394  -0.527   0.156
    1UNL    H51  115   0.505  -0.318  -0.002
    1UNL    H52  116   0.431  -0.253   0.278
    1UNL    H53  117  -0.202   0.451  -0.122
    1UNL    H54  118  -0.112   0.219  -0.272
    1UNL    H55  119   0.227  -0.073   0.046
    1UNL    H56  120   0.170  -0.182   0.238
    1UNL    H57  121  -0.000  -0.200   0.204
    1UNL    H58  122   0.125  -0.288   0.107
    1UNL    H59  123   0.051  -0.197  -0.095
    1UNL    H60  124   0.030   0.087  -0.121
    1UNL    H61  125  -0.178  -0.048  -0.103
    1UNL    H62  126  -0.152  -0.273  -0.164
    1UNL    H63  127   0.014  -0.477   0.138
    1UNL    H64  128  -0.111  -0.707   0.144
    1UNL    H65  129   0.003  -0.677   0.013
    1UNL    H66  130  -0.180  -0.656  -0.006
    1UNL    H67  131  -0.187  -0.324   0.199
    1UNL    H68  132  -0.301  -0.463   0.329
    1UNL    H69  133  -0.401  -0.514   0.084
    1UNL    H70  134  -0.408  -0.246   0.175
    1UNL    H71  135  -0.320  -0.441  -0.125
    1UNL    H72  136  -0.370  -0.182  -0.014
   0.00000   0.00000   0.00000   0.00000   0.00000   0.00000   0.00000   0.00000   0.00000
Generated with MDTraj, t= 25.0
 136
    1UNL     C1    1  -1.071   0.113   0.223
    1UNL     C2    2  -0.997   0.051   0.102
    1UNL     C3    3  -1.028   0.070  -0.029
    1UNL     C4    4  -1.143   0.152  -0.076
    1UNL     O1    5  -1.160   0.257   0.013
    1UNL     C5    6  -0.857  -0.005   0.131
    1UNL     C6    7  -0.746   0.093   0.091
    1UNL     C7    8  -0.606   0.053   0.115
    1UNL     C8    9  -0.493   0.106   0.061
    1UNL     C9   10  -0.495   0.237  -0.015
    1UNL    C10   11  -0.357   0.039   0.095
    1UNL     O2   12  -0.359  -0.073   0.149
    1UNL     O3   13  -0.240   0.102   0.049
    1UNL    C11   14  -0.118   0.034   0.097
    1UNL    C12   15  -0.003   0.138   0.102
    1UNL     O4   16   0.008   0.225  -0.013
    1UNL    C13   17  -0.090   0.324  -0.007
    1UNL    C14   18  -0.031   0.435   0.088
    1UNL     O5   19  -0.137   0.493   0.169
    1UNL    C15   20   0.051   0.539   0.006
    1UNL    C16   21   0.166   0.603   0.092
    1UNL     O6   22   0.102   0.484  -0.115
    1UNL    C17   23  -0.004   0.457  -0.212
    1UNL     O7   24   0.052   0.378  -0.316
    1UNL    C18   25   0.186   0.329  -0.288
    1UNL    C19   26   0.291   0.410  -0.369
    1UNL    C20   27   0.425   0.411  -0.351
    1UNL    C21   28   0.505   0.503  -0.447
    1UNL    C22   29   0.498   0.326  -0.259
    1UNL    C23   30   0.573   0.213  -0.330
    1UNL    C24   31   0.644   0.116  -0.236
    1UNL    C25   32   0.577   0.036  -0.153
    1UNL    C26   33   0.431   0.032  -0.144
    1UNL    C27   34   0.651  -0.057  -0.057
    1UNL     O8   35   0.585  -0.085   0.067
    1UNL    C28   36   0.625  -0.206   0.130
    1UNL     O9   37   0.749  -0.257   0.076
    1UNL    C29   38   0.794  -0.382   0.115
    1UNL    C30   39   0.934  -0.421   0.062
    1UNL    C31   40   0.694  -0.497   0.083
    1UNL    O10   41   0.743  -0.625   0.127
    1UNL    C32   42   0.555  -0.456   0.145
    1UNL    O11   43   0.457  -0.564   0.125
    1UNL    C33   44   0.512  -0.314   0.104
    1UNL    O12   45   0.387  -0.288   0.173
    1UNL    C34   46  -0.129   0.383  -0.152
    1UNL    O13   47  -0.169   0.275  -0.232
    1UNL    O14   48   0.126   0.079   0.137
    1UNL    C35   49   0.151  -0.057   0.103
    1UNL    C36   50   0.117  -0.154   0.218
    1UNL    C37   51   0.074  -0.093  -0.023
    1UNL    O15   52   0.129  -0.014  -0.125
    1UNL    C38   53  -0.088  -0.077  -0.004
    1UNL    O16   54  -0.147  -0.201   0.042
    1UNL    C39   55  -0.171  -0.303  -0.049
    1UNL    O17   56  -0.063  -0.406  -0.036
    1UNL    C40   57  -0.087  -0.499   0.082
    1UNL    C41   58  -0.114  -0.642   0.046
    1UNL    C42   59  -0.195  -0.435   0.174
    1UNL    O18   60  -0.209  -0.506   0.302
    1UNL    C43   61  -0.337  -0.426   0.111
    1UNL    O19   62  -0.427  -0.349   0.193
    1UNL    C44   63  -0.314  -0.358  -0.032
    1UNL    O20   64  -0.401  -0.247  -0.068
    1UNL     H1   65  -1.059   0.059   0.315
    1UNL     H2   66  -1.180   0.123   0.201
    1UNL     H3   67  -1.033   0.214   0.237
    1UNL     H4   68  -0.961   0.025  -0.107
    1UNL     H5   69  -1.234   0.092  -0.068
    1UNL     H6   70  -1.130   0.181  -0.175
    1UNL     H7   71  -1.072   0.296   0.030
    1UNL     H8   72  -0.846  -0.021   0.231
    1UNL     H9   73  -0.853  -0.097   0.079
    1UNL    H10   74  -0.731   0.130  -0.009
    1UNL    H11   75  -0.777   0.186   0.137
    1UNL    H12   76  -0.601  -0.049   0.141
    1UNL    H13   77  -0.391   0.238  -0.058
    1UNL    H14   78  -0.573   0.236  -0.091
    1UNL    H15   79  -0.511   0.317   0.056
    1UNL    H16   80  -0.143  -0.017   0.195
    1UNL    H17   81  -0.033   0.207   0.181
    1UNL    H18   82  -0.176   0.276   0.032
    1UNL    H19   83   0.041   0.392   0.157
    1UNL    H20   84  -0.192   0.419   0.205
    1UNL    H21   85  -0.012   0.621  -0.029
    1UNL    H22   86   0.128   0.631   0.196
    1UNL    H23   87   0.209   0.688   0.044
    1UNL    H24   88   0.243   0.529   0.110
    1UNL    H25   89  -0.033   0.557  -0.254
    1UNL    H26   90   0.198   0.311  -0.183
    1UNL    H27   91   0.175   0.231  -0.336
    1UNL    H28   92   0.244   0.474  -0.447
    1UNL    H29   93   0.424   0.572  -0.491
    1UNL    H30   94   0.559   0.437  -0.520
    1UNL    H31   95   0.582   0.554  -0.401
    1UNL    H32   96   0.571   0.382  -0.199
    1UNL    H33   97   0.422   0.285  -0.191
    1UNL    H34   98   0.506   0.157  -0.392
    1UNL    H35   99   0.654   0.262  -0.393
    1UNL    H36  100   0.752   0.108  -0.236
    1UNL    H37  101   0.395   0.110  -0.078
    1UNL    H38  102   0.389  -0.069  -0.107
    1UNL    H39  103   0.376   0.043  -0.240
    1UNL    H40  104   0.754  -0.034  -0.031
    1UNL    H41  105   0.652  -0.156  -0.102
    1UNL    H42  106   0.636  -0.186   0.238
    1UNL    H43  107   0.803  -0.364   0.222
    1UNL    H44  108   0.930  -0.436  -0.046
    1UNL    H45  109   1.006  -0.339   0.075
    1UNL    H46  110   0.983  -0.505   0.105
    1UNL    H47  111   0.687  -0.502  -0.027
    1UNL    H48  112   0.662  -0.681   0.145
    1UNL    H49  113   0.566  -0.462   0.257
    1UNL    H50  114   0.363  -0.546   0.132
    1UNL    H51  115   0.489  -0.309  -0.002
    1UNL    H52  116   0.404  -0.268   0.273
    1UNL    H53  117  -0.205   0.463  -0.135
    1UNL    H54  118  -0.089   0.240  -0.271
    1UNL    H55  119   0.257  -0.056   0.084
    1UNL    H56  120   0.166  -0.111   0.303
    1UNL    H57  121   0.014  -0.159   0.234
    1UNL    H58  122   0.162  -0.258   0.197
    1UNL    H59  123   0.094  -0.198  -0.058
    1UNL    H60  124   0.092   0.074  -0.119
    1UNL    H61  125  -0.128  -0.047  -0.108
    1UNL    H62  126  -0.159  -0.262  -0.150
    1UNL    H63  127   0.013  -0.503   0.133
    1UNL    H64  128  -0.138  -0.705   0.134
    1UNL    H65  129  -0.019  -0.689   0.008
    1UNL    H66  130  -0.203  -0.654  -0.021
    1UNL    H67  131  -0.148  -0.344   0.211
    1UNL    H68  132  -0.297  -0.484   0.336
    1UNL    H69  133  -0.387  -0.524   0.108
    1UNL    H70  134  -0.396  -0.254   0.191
    1UNL    H71  135  -0.330  -0.436  -0.106
    1UNL    H72  136  -0.379  -0.177  -0.007
   0.00000   0.00000   0.00000   0.00000   0.00000   0.00000   0.00000   0.00000   0.00000
Generated with MDTraj, t= 26.0
 136
    1UNL     C1    1  -1.046   0.090   0.207
    1UNL     C2    2  -0.979   0.056   0.079
    1UNL     C3    3  -1.041   0.083  -0.037
    1UNL     C4    4  -1.184   0.130  -0.041
    1UNL     O1    5  -1.210   0.265  -0.002
    1UNL     C5    6  -0.846  -0.008   0.080
    1UNL     C6    7  -0.731   0.098   0.100
    1UNL     C7    8  -0.594   0.038   0.100
    1UNL     C8    9  -0.476   0.098   0.070
    1UNL     C9   10  -0.459   0.225   0.005
    1UNL    C10   11  -0.348   0.043   0.110
    1UNL     O2   12  -0.339  -0.051   0.191
    1UNL     O3   13  -0.239   0.095   0.049
    1UNL    C11   14  -0.115   0.039   0.102
    1UNL    C12   15  -0.010   0.148   0.107
    1UNL     O4   16  -0.011   0.221  -0.021
    1UNL    C13   17  -0.090   0.338  -0.017
    1UNL    C14   18  -0.028   0.452   0.071
    1UNL     O5   19  -0.136   0.533   0.114
    1UNL    C15   20   0.069   0.542  -0.007
    1UNL    C16   21   0.176   0.581   0.091
    1UNL     O6   22   0.128   0.469  -0.116
    1UNL    C17   23   0.029   0.433  -0.216
    1UNL     O7   24   0.065   0.328  -0.308
    1UNL    C18   25   0.208   0.304  -0.296
    1UNL    C19   26   0.283   0.413  -0.364
    1UNL    C20   27   0.413   0.434  -0.341
    1UNL    C21   28   0.497   0.544  -0.406
    1UNL    C22   29   0.485   0.344  -0.240
    1UNL    C23   30   0.562   0.233  -0.312
    1UNL    C24   31   0.620   0.133  -0.223
    1UNL    C25   32   0.563   0.023  -0.171
    1UNL    C26   33   0.412   0.013  -0.164
    1UNL    C27   34   0.641  -0.075  -0.088
    1UNL     O8   35   0.584  -0.091   0.046
    1UNL    C28   36   0.618  -0.214   0.102
    1UNL     O9   37   0.752  -0.266   0.064
    1UNL    C29   38   0.782  -0.388   0.120
    1UNL    C30   39   0.929  -0.431   0.107
    1UNL    C31   40   0.677  -0.494   0.075
    1UNL    O10   41   0.703  -0.630   0.118
    1UNL    C32   42   0.544  -0.453   0.137
    1UNL    O11   43   0.442  -0.540   0.109
    1UNL    C33   44   0.504  -0.315   0.087
    1UNL    O12   45   0.383  -0.261   0.131
    1UNL    C34   46  -0.107   0.390  -0.158
    1UNL    O13   47  -0.176   0.291  -0.232
    1UNL    O14   48   0.114   0.093   0.157
    1UNL    C35   49   0.146  -0.047   0.129
    1UNL    C36   50   0.113  -0.140   0.250
    1UNL    C37   51   0.076  -0.099   0.004
    1UNL    O15   52   0.120  -0.022  -0.106
    1UNL    C38   53  -0.081  -0.085   0.017
    1UNL    O16   54  -0.148  -0.206   0.059
    1UNL    C39   55  -0.154  -0.306  -0.040
    1UNL    O17   56  -0.065  -0.420  -0.033
    1UNL    C40   57  -0.085  -0.499   0.086
    1UNL    C41   58  -0.105  -0.641   0.050
    1UNL    C42   59  -0.188  -0.434   0.177
    1UNL    O18   60  -0.198  -0.538   0.283
    1UNL    C43   61  -0.325  -0.417   0.112
    1UNL    O19   62  -0.402  -0.345   0.196
    1UNL    C44   63  -0.300  -0.358  -0.030
    1UNL    O20   64  -0.395  -0.254  -0.057
    1UNL     H1   65  -1.001   0.049   0.294
    1UNL     H2   66  -1.155   0.056   0.221
    1UNL     H3   67  -1.050   0.194   0.229
    1UNL     H4   68  -0.997   0.052  -0.122
    1UNL     H5   69  -1.242   0.064   0.021
    1UNL     H6   70  -1.224   0.114  -0.136
    1UNL     H7   71  -1.138   0.320  -0.042
    1UNL     H8   72  -0.850  -0.088   0.145
    1UNL     H9   73  -0.818  -0.045  -0.017
    1UNL    H10   74  -0.750   0.170   0.021
    1UNL    H11   75  -0.732   0.168   0.183
    1UNL    H12   76  -0.612  -0.071   0.105
    1UNL    H13   77  -0.385   0.216  -0.075
    1UNL    H14   78  -0.557   0.259  -0.040
    1UNL    H15   79  -0.421   0.305   0.068
    1UNL    H16   80  -0.132   0.001   0.207
    1UNL    H17   81  -0.034   0.220   0.184
    1UNL    H18   82  -0.189   0.308   0.007
    1UNL    H19   83   0.020   0.422   0.164
    1UNL    H20   84  -0.182   0.481   0.176
    1UNL    H21   85   0.022   0.632  -0.048
    1UNL    H22   86   0.141   0.639   0.181
    1UNL    H23   87   0.258   0.632   0.040
    1UNL    H24   88   0.219   0.490   0.127
    1UNL    H25   89   0.008   0.519  -0.284
    1UNL    H26   90   0.229   0.295  -0.191
    1UNL    H27   91   0.237   0.210  -0.344
    1UNL    H28   92   0.225   0.461  -0.436
    1UNL    H29   93   0.480   0.645  -0.354
    1UNL    H30   94   0.486   0.538  -0.518
    1UNL    H31   95   0.598   0.516  -0.396
    1UNL    H32   96   0.552   0.409  -0.185
    1UNL    H33   97   0.421   0.290  -0.166
    1UNL    H34   98   0.500   0.184  -0.386
    1UNL    H35   99   0.641   0.281  -0.378
    1UNL    H36  100   0.723   0.148  -0.197
    1UNL    H37  101   0.365   0.080  -0.089
    1UNL    H38  102   0.388  -0.097  -0.132
    1UNL    H39  103   0.353   0.011  -0.258
    1UNL    H40  104   0.737  -0.032  -0.073
    1UNL    H41  105   0.651  -0.171  -0.135
    1UNL    H42  106   0.625  -0.192   0.212
    1UNL    H43  107   0.763  -0.371   0.222
    1UNL    H44  108   0.951  -0.435  -0.003
    1UNL    H45  109   0.999  -0.352   0.140
    1UNL    H46  110   0.960  -0.519   0.151
    1UNL    H47  111   0.673  -0.486  -0.036
    1UNL    H48  112   0.616  -0.671   0.128
    1UNL    H49  113   0.536  -0.444   0.250
    1UNL    H50  114   0.356  -0.494   0.111
    1UNL    H51  115   0.490  -0.318  -0.023
    1UNL    H52  116   0.402  -0.187   0.191
    1UNL    H53  117  -0.175   0.482  -0.161
    1UNL    H54  118  -0.100   0.231  -0.259
    1UNL    H55  119   0.252  -0.057   0.114
    1UNL    H56  120   0.162  -0.118   0.344
    1UNL    H57  121   0.008  -0.147   0.268
    1UNL    H58  122   0.139  -0.246   0.223
    1UNL    H59  123   0.099  -0.211  -0.003
    1UNL    H60  124   0.090   0.074  -0.090
    1UNL    H61  125  -0.123  -0.069  -0.088
    1UNL    H62  126  -0.134  -0.261  -0.137
    1UNL    H63  127   0.020  -0.492   0.131
    1UNL    H64  128  -0.095  -0.696   0.142
    1UNL    H65  129  -0.030  -0.686  -0.020
    1UNL    H66  130  -0.216  -0.657   0.020
    1UNL    H67  131  -0.157  -0.340   0.218
    1UNL    H68  132  -0.287  -0.520   0.323
    1UNL    H69  133  -0.379  -0.511   0.103
    1UNL    H70  134  -0.367  -0.257   0.213
    1UNL    H71  135  -0.321  -0.436  -0.106
    1UNL    H72  136  -0.387  -0.190   0.021
   0.00000   0.00000   0.00000   0.00000   0.00000   0.00000   0.00000   0.00000   0.00000
Generated with MDTraj, t= 27.0
 136
    1UNL     C1    1  -1.022   0.073   0.194
    1UNL     C2    2  -0.978   0.034   0.059
    1UNL     C3    3  -1.057   0.070  -0.043
    1UNL     C4    4  -1.196   0.112  -0.017
    1UNL     O1    5  -1.215   0.253   0.003
    1UNL     C5    6  -0.834  -0.009   0.044
    1UNL     C6    7  -0.734   0.115   0.058
    1UNL     C7    8  -0.605   0.058   0.107
    1UNL     C8    9  -0.485   0.120   0.089
    1UNL     C9   10  -0.466   0.246   0.009
    1UNL    C10   11  -0.362   0.048   0.117
    1UNL     O2   12  -0.359  -0.064   0.175
    1UNL     O3   13  -0.254   0.113   0.068
    1UNL    C11   14  -0.130   0.046   0.110
    1UNL    C12   15  -0.015   0.151   0.125
    1UNL     O4   16   0.001   0.214  -0.006
    1UNL    C13   17  -0.083   0.332  -0.006
    1UNL    C14   18  -0.022   0.462   0.059
    1UNL     O5   19  -0.135   0.554   0.087
    1UNL    C15   20   0.092   0.523  -0.025
    1UNL    C16   21   0.204   0.582   0.061
    1UNL     O6   22   0.138   0.427  -0.126
    1UNL    C17   23   0.040   0.402  -0.223
    1UNL     O7   24   0.078   0.300  -0.314
    1UNL    C18   25   0.216   0.292  -0.308
    1UNL    C19   26   0.289   0.412  -0.342
    1UNL    C20   27   0.416   0.444  -0.314
    1UNL    C21   28   0.461   0.580  -0.340
    1UNL    C22   29   0.515   0.362  -0.239
    1UNL    C23   30   0.550   0.227  -0.306
    1UNL    C24   31   0.607   0.120  -0.222
    1UNL    C25   32   0.544   0.013  -0.172
    1UNL    C26   33   0.403  -0.013  -0.192
    1UNL    C27   34   0.629  -0.077  -0.090
    1UNL     O8   35   0.579  -0.089   0.046
    1UNL    C28   36   0.620  -0.210   0.100
    1UNL     O9   37   0.746  -0.273   0.058
    1UNL    C29   38   0.774  -0.401   0.122
    1UNL    C30   39   0.915  -0.452   0.077
    1UNL    C31   40   0.663  -0.503   0.096
    1UNL    O10   41   0.672  -0.625   0.166
    1UNL    C32   42   0.522  -0.448   0.121
    1UNL    O11   43   0.426  -0.528   0.060
    1UNL    C33   44   0.503  -0.301   0.070
    1UNL    O12   45   0.381  -0.240   0.089
    1UNL    C34   46  -0.097   0.377  -0.153
    1UNL    O13   47  -0.181   0.285  -0.220
    1UNL    O14   48   0.111   0.101   0.179
    1UNL    C35   49   0.150  -0.036   0.136
    1UNL    C36   50   0.118  -0.148   0.238
    1UNL    C37   51   0.076  -0.077   0.006
    1UNL    O15   52   0.113   0.007  -0.109
    1UNL    C38   53  -0.078  -0.070   0.018
    1UNL    O16   54  -0.118  -0.195   0.073
    1UNL    C39   55  -0.143  -0.300  -0.024
    1UNL    O17   56  -0.039  -0.397  -0.023
    1UNL    C40   57  -0.060  -0.497   0.088
    1UNL    C41   58  -0.086  -0.637   0.042
    1UNL    C42   59  -0.176  -0.448   0.183
    1UNL    O18   60  -0.201  -0.549   0.293
    1UNL    C43   61  -0.314  -0.429   0.119
    1UNL    O19   62  -0.398  -0.368   0.207
    1UNL    C44   63  -0.295  -0.353  -0.015
    1UNL    O20   64  -0.384  -0.237  -0.028
    1UNL     H1   65  -0.944   0.131   0.238
    1UNL     H2   66  -1.042  -0.017   0.260
    1UNL     H3   67  -1.108   0.137   0.185
    1UNL     H4   68  -1.013   0.056  -0.148
    1UNL     H5   69  -1.246   0.063   0.066
    1UNL     H6   70  -1.260   0.086  -0.095
    1UNL     H7   71  -1.166   0.313  -0.059
    1UNL     H8   72  -0.795  -0.072   0.121
    1UNL     H9   73  -0.827  -0.063  -0.046
    1UNL    H10   74  -0.722   0.170  -0.034
    1UNL    H11   75  -0.782   0.196   0.114
    1UNL    H12   76  -0.623  -0.041   0.137
    1UNL    H13   77  -0.367   0.261  -0.029
    1UNL    H14   78  -0.539   0.225  -0.077
    1UNL    H15   79  -0.501   0.342   0.052
    1UNL    H16   80  -0.157   0.009   0.211
    1UNL    H17   81  -0.037   0.224   0.201
    1UNL    H18   82  -0.180   0.311   0.029
    1UNL    H19   83   0.017   0.445   0.160
    1UNL    H20   84  -0.166   0.520   0.170
    1UNL    H21   85   0.051   0.603  -0.089
    1UNL    H22   86   0.166   0.662   0.122
    1UNL    H23   87   0.288   0.621  -0.003
    1UNL    H24   88   0.248   0.512   0.131
    1UNL    H25   89   0.029   0.484  -0.297
    1UNL    H26   90   0.247   0.275  -0.206
    1UNL    H27   91   0.253   0.206  -0.366
    1UNL    H28   92   0.228   0.481  -0.406
    1UNL    H29   93   0.493   0.639  -0.251
    1UNL    H30   94   0.391   0.638  -0.404
    1UNL    H31   95   0.547   0.581  -0.410
    1UNL    H32   96   0.607   0.417  -0.228
    1UNL    H33   97   0.469   0.356  -0.138
    1UNL    H34   98   0.459   0.185  -0.350
    1UNL    H35   99   0.610   0.231  -0.401
    1UNL    H36  100   0.705   0.125  -0.177
    1UNL    H37  101   0.352   0.089  -0.170
    1UNL    H38  102   0.361  -0.098  -0.132
    1UNL    H39  103   0.391  -0.047  -0.298
    1UNL    H40  104   0.725  -0.032  -0.079
    1UNL    H41  105   0.640  -0.173  -0.136
    1UNL    H42  106   0.628  -0.193   0.212
    1UNL    H43  107   0.777  -0.389   0.226
    1UNL    H44  108   0.911  -0.435  -0.034
    1UNL    H45  109   0.997  -0.387   0.110
    1UNL    H46  110   0.932  -0.553   0.100
    1UNL    H47  111   0.677  -0.530  -0.013
    1UNL    H48  112   0.582  -0.661   0.166
    1UNL    H49  113   0.494  -0.458   0.230
    1UNL    H50  114   0.342  -0.473   0.048
    1UNL    H51  115   0.512  -0.327  -0.038
    1UNL    H52  116   0.385  -0.159   0.049
    1UNL    H53  117  -0.163   0.473  -0.158
    1UNL    H54  118  -0.121   0.224  -0.264
    1UNL    H55  119   0.256  -0.026   0.112
    1UNL    H56  120   0.157  -0.141   0.340
    1UNL    H57  121   0.008  -0.158   0.252
    1UNL    H58  122   0.141  -0.248   0.203
    1UNL    H59  123   0.110  -0.183  -0.026
    1UNL    H60  124   0.106   0.098  -0.087
    1UNL    H61  125  -0.121  -0.047  -0.083
    1UNL    H62  126  -0.124  -0.255  -0.121
    1UNL    H63  127   0.034  -0.502   0.149
    1UNL    H64  128  -0.102  -0.703   0.128
    1UNL    H65  129  -0.002  -0.674  -0.019
    1UNL    H66  130  -0.186  -0.639  -0.013
    1UNL    H67  131  -0.151  -0.360   0.237
    1UNL    H68  132  -0.287  -0.517   0.332
    1UNL    H69  133  -0.358  -0.525   0.096
    1UNL    H70  134  -0.388  -0.270   0.202
    1UNL    H71  135  -0.314  -0.424  -0.099
    1UNL    H72  136  -0.372  -0.181   0.045
   0.00000   0.00000   0.00000   0.00000   0.00000   0.00000   0.00000   0.00000   0.00000
Generated with MDTraj, t= 28.0
 136
    1UNL     C1    1  -1.039   0.074   0.190
    1UNL     C2    2  -0.990   0.028   0.060
    1UNL     C3    3  -1.067   0.048  -0.045
    1UNL     C4    4  -1.202   0.098  -0.037
    1UNL     O1    5  -1.211   0.225   0.023
    1UNL     C5    6  -0.850  -0.020   0.052
    1UNL     C6    7  -0.753   0.095   0.053
    1UNL     C7    8  -0.609   0.046   0.059
    1UNL     C8    9  -0.494   0.120   0.055
    1UNL     C9   10  -0.491   0.256  -0.012
    1UNL    C10   11  -0.363   0.059   0.100
    1UNL     O2   12  -0.362  -0.046   0.169
    1UNL     O3   13  -0.246   0.131   0.084
    1UNL    C11   14  -0.128   0.062   0.129
    1UNL    C12   15  -0.014   0.166   0.149
    1UNL     O4   16   0.025   0.246   0.037
    1UNL    C13   17  -0.073   0.345   0.006
    1UNL    C14   18  -0.013   0.471   0.067
    1UNL     O5   19  -0.113   0.570   0.096
    1UNL    C15   20   0.099   0.528  -0.026
    1UNL    C16   21   0.220   0.570   0.059
    1UNL     O6   22   0.149   0.428  -0.126
    1UNL    C17   23   0.046   0.389  -0.223
    1UNL     O7   24   0.084   0.286  -0.315
    1UNL    C18   25   0.216   0.280  -0.346
    1UNL    C19   26   0.283   0.410  -0.352
    1UNL    C20   27   0.396   0.446  -0.291
    1UNL    C21   28   0.450   0.588  -0.305
    1UNL    C22   29   0.467   0.344  -0.207
    1UNL    C23   30   0.528   0.231  -0.298
    1UNL    C24   31   0.610   0.131  -0.228
    1UNL    C25   32   0.576   0.006  -0.191
    1UNL    C26   33   0.432  -0.039  -0.209
    1UNL    C27   34   0.661  -0.071  -0.101
    1UNL     O8   35   0.591  -0.086   0.023
    1UNL    C28   36   0.612  -0.219   0.072
    1UNL     O9   37   0.732  -0.287   0.038
    1UNL    C29   38   0.757  -0.410   0.112
    1UNL    C30   39   0.898  -0.468   0.087
    1UNL    C31   40   0.642  -0.515   0.106
    1UNL    O10   41   0.653  -0.625   0.186
    1UNL    C32   42   0.499  -0.443   0.118
    1UNL    O11   43   0.406  -0.534   0.064
    1UNL    C33   44   0.491  -0.310   0.034
    1UNL    O12   45   0.363  -0.251   0.052
    1UNL    C34   46  -0.088   0.349  -0.150
    1UNL    O13   47  -0.126   0.220  -0.187
    1UNL    O14   48   0.094   0.094   0.204
    1UNL    C35   49   0.142  -0.023   0.133
    1UNL    C36   50   0.159  -0.140   0.226
    1UNL    C37   51   0.058  -0.065   0.007
    1UNL    O15   52   0.091   0.025  -0.107
    1UNL    C38   53  -0.091  -0.053   0.029
    1UNL    O16   54  -0.141  -0.179   0.076
    1UNL    C39   55  -0.127  -0.281  -0.022
    1UNL    O17   56  -0.027  -0.372   0.002
    1UNL    C40   57  -0.052  -0.482   0.105
    1UNL    C41   58  -0.059  -0.617   0.039
    1UNL    C42   59  -0.170  -0.439   0.196
    1UNL    O18   60  -0.186  -0.537   0.302
    1UNL    C43   61  -0.301  -0.414   0.120
    1UNL    O19   62  -0.386  -0.332   0.204
    1UNL    C44   63  -0.269  -0.358  -0.026
    1UNL    O20   64  -0.377  -0.265  -0.051
    1UNL     H1   65  -0.948   0.087   0.252
    1UNL     H2   66  -1.094  -0.002   0.244
    1UNL     H3   67  -1.094   0.168   0.188
    1UNL     H4   68  -1.020   0.020  -0.137
    1UNL     H5   69  -1.261   0.026   0.022
    1UNL     H6   70  -1.249   0.101  -0.130
    1UNL     H7   71  -1.130   0.280   0.015
    1UNL     H8   72  -0.841  -0.085   0.140
    1UNL     H9   73  -0.829  -0.076  -0.034
    1UNL    H10   74  -0.784   0.175  -0.015
    1UNL    H11   75  -0.768   0.160   0.140
    1UNL    H12   76  -0.609  -0.057   0.096
    1UNL    H13   77  -0.397   0.301   0.018
    1UNL    H14   78  -0.503   0.213  -0.117
    1UNL    H15   79  -0.586   0.312   0.014
    1UNL    H16   80  -0.157   0.011   0.220
    1UNL    H17   81  -0.043   0.233   0.226
    1UNL    H18   82  -0.163   0.318   0.054
    1UNL    H19   83   0.034   0.447   0.164
    1UNL    H20   84  -0.208   0.532   0.100
    1UNL    H21   85   0.059   0.607  -0.092
    1UNL    H22   86   0.182   0.617   0.145
    1UNL    H23   87   0.302   0.631   0.011
    1UNL    H24   88   0.267   0.478   0.098
    1UNL    H25   89   0.039   0.475  -0.290
    1UNL    H26   90   0.263   0.211  -0.280
    1UNL    H27   91   0.224   0.232  -0.447
    1UNL    H28   92   0.233   0.473  -0.419
    1UNL    H29   93   0.537   0.607  -0.242
    1UNL    H30   94   0.373   0.666  -0.291
    1UNL    H31   95   0.492   0.607  -0.410
    1UNL    H32   96   0.543   0.399  -0.153
    1UNL    H33   97   0.406   0.295  -0.128
    1UNL    H34   98   0.463   0.176  -0.371
    1UNL    H35   99   0.599   0.280  -0.369
    1UNL    H36  100   0.706   0.164  -0.188
    1UNL    H37  101   0.365   0.020  -0.136
    1UNL    H38  102   0.412  -0.147  -0.199
    1UNL    H39  103   0.388  -0.026  -0.318
    1UNL    H40  104   0.753  -0.018  -0.082
    1UNL    H41  105   0.681  -0.167  -0.145
    1UNL    H42  106   0.606  -0.200   0.186
    1UNL    H43  107   0.751  -0.387   0.216
    1UNL    H44  108   0.890  -0.502  -0.017
    1UNL    H45  109   0.981  -0.400   0.098
    1UNL    H46  110   0.896  -0.556   0.154
    1UNL    H47  111   0.642  -0.555  -0.000
    1UNL    H48  112   0.571  -0.677   0.163
    1UNL    H49  113   0.479  -0.416   0.225
    1UNL    H50  114   0.316  -0.486   0.051
    1UNL    H51  115   0.505  -0.334  -0.074
    1UNL    H52  116   0.378  -0.157   0.090
    1UNL    H53  117  -0.168   0.433  -0.168
    1UNL    H54  118  -0.084   0.206  -0.274
    1UNL    H55  119   0.240   0.018   0.101
    1UNL    H56  120   0.233  -0.120   0.307
    1UNL    H57  121   0.059  -0.159   0.276
    1UNL    H58  122   0.184  -0.226   0.174
    1UNL    H59  123   0.082  -0.174  -0.014
    1UNL    H60  124   0.074   0.114  -0.072
    1UNL    H61  125  -0.147  -0.034  -0.065
    1UNL    H62  126  -0.107  -0.237  -0.119
    1UNL    H63  127   0.041  -0.476   0.164
    1UNL    H64  128  -0.080  -0.705   0.106
    1UNL    H65  129   0.042  -0.627  -0.009
    1UNL    H66  130  -0.136  -0.623  -0.039
    1UNL    H67  131  -0.142  -0.345   0.248
    1UNL    H68  132  -0.255  -0.510   0.364
    1UNL    H69  133  -0.361  -0.503   0.107
    1UNL    H70  134  -0.360  -0.233   0.195
    1UNL    H71  135  -0.272  -0.444  -0.099
    1UNL    H72  136  -0.372  -0.185   0.017
   0.00000   0.00000   0.00000   0.00000   0.00000   0.00000   0.00000   0.00000   0.00000
Generated with MDTraj, t= 29.0
 136
    1UNL     C1    1  -1.051   0.053   0.209
    1UNL     C2    2  -0.994   0.018   0.074
    1UNL     C3    3  -1.051   0.046  -0.046
    1UNL     C4    4  -1.195   0.086  -0.055
    1UNL     O1    5  -1.214   0.212   0.009
    1UNL     C5    6  -0.848  -0.028   0.074
    1UNL     C6    7  -0.753   0.072   0.018
    1UNL     C7    8  -0.611   0.041   0.053
    1UNL     C8    9  -0.502   0.122   0.045
    1UNL     C9   10  -0.505   0.253  -0.020
    1UNL    C10   11  -0.371   0.065   0.092
    1UNL     O2   12  -0.369  -0.056   0.126
    1UNL     O3   13  -0.259   0.146   0.113
    1UNL    C11   14  -0.137   0.070   0.139
    1UNL    C12   15  -0.021   0.159   0.186
    1UNL     O4   16   0.025   0.241   0.082
    1UNL    C13   17  -0.063   0.345   0.024
    1UNL    C14   18  -0.006   0.476   0.055
    1UNL     O5   19  -0.101   0.581   0.042
    1UNL    C15   20   0.115   0.505  -0.034
    1UNL    C16   21   0.244   0.551   0.032
    1UNL     O6   22   0.135   0.400  -0.125
    1UNL    C17   23   0.018   0.393  -0.212
    1UNL     O7   24   0.050   0.325  -0.337
    1UNL    C18   25   0.191   0.306  -0.350
    1UNL    C19   26   0.269   0.429  -0.344
    1UNL    C20   27   0.391   0.431  -0.288
    1UNL    C21   28   0.457   0.573  -0.290
    1UNL    C22   29   0.456   0.325  -0.212
    1UNL    C23   30   0.568   0.253  -0.286
    1UNL    C24   31   0.629   0.146  -0.207
    1UNL    C25   32   0.579   0.021  -0.206
    1UNL    C26   33   0.452  -0.021  -0.280
    1UNL    C27   34   0.643  -0.092  -0.124
    1UNL     O8   35   0.609  -0.095   0.014
    1UNL    C28   36   0.617  -0.230   0.069
    1UNL     O9   37   0.727  -0.305   0.041
    1UNL    C29   38   0.740  -0.426   0.126
    1UNL    C30   39   0.876  -0.497   0.106
    1UNL    C31   40   0.628  -0.525   0.094
    1UNL    O10   41   0.625  -0.638   0.172
    1UNL    C32   42   0.494  -0.442   0.106
    1UNL    O11   43   0.386  -0.525   0.086
    1UNL    C33   44   0.494  -0.317   0.017
    1UNL    O12   45   0.368  -0.251   0.015
    1UNL    C34   46  -0.095   0.325  -0.129
    1UNL    O13   47  -0.102   0.188  -0.163
    1UNL    O14   48   0.069   0.064   0.247
    1UNL    C35   49   0.134  -0.025   0.152
    1UNL    C36   50   0.156  -0.160   0.218
    1UNL    C37   51   0.060  -0.042   0.018
    1UNL    O15   52   0.110   0.048  -0.092
    1UNL    C38   53  -0.092  -0.035   0.035
    1UNL    O16   54  -0.139  -0.163   0.080
    1UNL    C39   55  -0.127  -0.271  -0.012
    1UNL    O17   56  -0.012  -0.345   0.008
    1UNL    C40   57  -0.019  -0.443   0.117
    1UNL    C41   58  -0.042  -0.580   0.056
    1UNL    C42   59  -0.148  -0.408   0.210
    1UNL    O18   60  -0.160  -0.512   0.310
    1UNL    C43   61  -0.288  -0.396   0.124
    1UNL    O19   62  -0.391  -0.326   0.191
    1UNL    C44   63  -0.263  -0.351  -0.020
    1UNL    O20   64  -0.359  -0.264  -0.067
    1UNL     H1   65  -0.992   0.010   0.293
    1UNL     H2   66  -1.146   0.019   0.230
    1UNL     H3   67  -1.054   0.162   0.230
    1UNL     H4   68  -0.987   0.051  -0.131
    1UNL     H5   69  -1.263   0.003  -0.021
    1UNL     H6   70  -1.221   0.091  -0.159
    1UNL     H7   71  -1.299   0.204   0.059
    1UNL     H8   72  -0.812  -0.046   0.178
    1UNL     H9   73  -0.849  -0.117   0.022
    1UNL    H10   74  -0.765   0.088  -0.090
    1UNL    H11   75  -0.780   0.175   0.043
    1UNL    H12   76  -0.605  -0.053   0.100
    1UNL    H13   77  -0.422   0.305   0.029
    1UNL    H14   78  -0.488   0.218  -0.125
    1UNL    H15   79  -0.607   0.300  -0.005
    1UNL    H16   80  -0.158   0.005   0.221
    1UNL    H17   81  -0.058   0.222   0.260
    1UNL    H18   82  -0.155   0.322   0.072
    1UNL    H19   83   0.036   0.473   0.157
    1UNL    H20   84  -0.185   0.573   0.103
    1UNL    H21   85   0.088   0.591  -0.100
    1UNL    H22   86   0.224   0.638   0.093
    1UNL    H23   87   0.326   0.566  -0.038
    1UNL    H24   88   0.271   0.470   0.104
    1UNL    H25   89  -0.003   0.495  -0.244
    1UNL    H26   90   0.209   0.245  -0.265
    1UNL    H27   91   0.215   0.235  -0.434
    1UNL    H28   92   0.228   0.511  -0.406
    1UNL    H29   93   0.560   0.563  -0.256
    1UNL    H30   94   0.397   0.646  -0.235
    1UNL    H31   95   0.470   0.605  -0.402
    1UNL    H32   96   0.487   0.354  -0.113
    1UNL    H33   97   0.386   0.244  -0.191
    1UNL    H34   98   0.532   0.218  -0.388
    1UNL    H35   99   0.651   0.323  -0.308
    1UNL    H36  100   0.709   0.165  -0.138
    1UNL    H37  101   0.363   0.038  -0.238
    1UNL    H38  102   0.422  -0.129  -0.278
    1UNL    H39  103   0.448  -0.006  -0.397
    1UNL    H40  104   0.752  -0.086  -0.124
    1UNL    H41  105   0.623  -0.190  -0.166
    1UNL    H42  106   0.600  -0.219   0.181
    1UNL    H43  107   0.718  -0.406   0.231
    1UNL    H44  108   0.869  -0.527   0.004
    1UNL    H45  109   0.966  -0.441   0.124
    1UNL    H46  110   0.865  -0.598   0.158
    1UNL    H47  111   0.649  -0.560  -0.010
    1UNL    H48  112   0.539  -0.686   0.156
    1UNL    H49  113   0.498  -0.405   0.210
    1UNL    H50  114   0.307  -0.469   0.071
    1UNL    H51  115   0.506  -0.347  -0.090
    1UNL    H52  116   0.394  -0.152   0.013
    1UNL    H53  117  -0.207   0.362  -0.142
    1UNL    H54  118  -0.087   0.181  -0.261
    1UNL    H55  119   0.233   0.029   0.140
    1UNL    H56  120   0.199  -0.142   0.318
    1UNL    H57  121   0.056  -0.209   0.230
    1UNL    H58  122   0.223  -0.218   0.158
    1UNL    H59  123   0.088  -0.145  -0.018
    1UNL    H60  124   0.080   0.137  -0.069
    1UNL    H61  125  -0.139  -0.008  -0.059
    1UNL    H62  126  -0.115  -0.231  -0.114
    1UNL    H63  127   0.081  -0.436   0.161
    1UNL    H64  128  -0.046  -0.660   0.137
    1UNL    H65  129   0.040  -0.599  -0.020
    1UNL    H66  130  -0.133  -0.599   0.005
    1UNL    H67  131  -0.139  -0.309   0.260
    1UNL    H68  132  -0.224  -0.488   0.379
    1UNL    H69  133  -0.335  -0.495   0.118
    1UNL    H70  134  -0.365  -0.236   0.176
    1UNL    H71  135  -0.244  -0.445  -0.076
    1UNL    H72  136  -0.366  -0.187  -0.014
   0.00000   0.00000   0.00000   0.00000   0.00000   0.00000   0.00000   0.00000   0.00000
Generated with MDTraj, t= 30.0
 136
    1UNL     C1    1  -1.070   0.040   0.199
    1UNL     C2    2  -0.988   0.029   0.070
    1UNL     C3    3  -1.045   0.024  -0.052
    1UNL     C4    4  -1.185   0.075  -0.071
    1UNL     O1    5  -1.221   0.185   0.009
    1UNL     C5    6  -0.845  -0.005   0.086
    1UNL     C6    7  -0.742   0.085   0.019
    1UNL     C7    8  -0.608   0.046   0.059
    1UNL     C8    9  -0.494   0.116   0.037
    1UNL     C9   10  -0.494   0.256  -0.007
    1UNL    C10   11  -0.368   0.064   0.093
    1UNL     O2   12  -0.367  -0.047   0.150
    1UNL     O3   13  -0.255   0.142   0.075
    1UNL    C11   14  -0.145   0.065   0.130
    1UNL    C12   15  -0.037   0.167   0.189
    1UNL     O4   16   0.028   0.246   0.093
    1UNL    C13   17  -0.068   0.347   0.039
    1UNL    C14   18  -0.027   0.493   0.064
    1UNL     O5   19  -0.122   0.591   0.011
    1UNL    C15   20   0.116   0.508  -0.000
    1UNL    C16   21   0.223   0.462   0.096
    1UNL     O6   22   0.129   0.439  -0.132
    1UNL    C17   23   0.015   0.412  -0.207
    1UNL     O7   24   0.039   0.345  -0.330
    1UNL    C18   25   0.172   0.287  -0.335
    1UNL    C19   26   0.270   0.391  -0.370
    1UNL    C20   27   0.381   0.414  -0.294
    1UNL    C21   28   0.462   0.532  -0.317
    1UNL    C22   29   0.434   0.302  -0.206
    1UNL    C23   30   0.570   0.250  -0.250
    1UNL    C24   31   0.619   0.126  -0.183
    1UNL    C25   32   0.570   0.004  -0.220
    1UNL    C26   33   0.483  -0.014  -0.342
    1UNL    C27   34   0.630  -0.116  -0.159
    1UNL     O8   35   0.616  -0.101  -0.019
    1UNL    C28   36   0.605  -0.230   0.049
    1UNL     O9   37   0.724  -0.305   0.039
    1UNL    C29   38   0.718  -0.429   0.118
    1UNL    C30   39   0.849  -0.499   0.109
    1UNL    C31   40   0.604  -0.522   0.087
    1UNL    O10   41   0.600  -0.636   0.173
    1UNL    C32   42   0.477  -0.433   0.088
    1UNL    O11   43   0.368  -0.509   0.055
    1UNL    C33   44   0.480  -0.305   0.002
    1UNL    O12   45   0.360  -0.229   0.023
    1UNL    C34   46  -0.078   0.325  -0.121
    1UNL    O13   47  -0.059   0.193  -0.152
    1UNL    O14   48   0.056   0.090   0.264
    1UNL    C35   49   0.138  -0.006   0.184
    1UNL    C36   50   0.149  -0.133   0.270
    1UNL    C37   51   0.081  -0.040   0.047
    1UNL    O15   52   0.129   0.044  -0.057
    1UNL    C38   53  -0.081  -0.040   0.033
    1UNL    O16   54  -0.137  -0.164   0.068
    1UNL    C39   55  -0.117  -0.266  -0.035
    1UNL    O17   56   0.001  -0.344  -0.001
    1UNL    C40   57  -0.010  -0.425   0.118
    1UNL    C41   58   0.002  -0.569   0.082
    1UNL    C42   59  -0.136  -0.389   0.198
    1UNL    O18   60  -0.150  -0.463   0.323
    1UNL    C43   61  -0.265  -0.414   0.115
    1UNL    O19   62  -0.379  -0.363   0.181
    1UNL    C44   63  -0.246  -0.359  -0.035
    1UNL    O20   64  -0.356  -0.266  -0.056
    1UNL     H1   65  -1.023  -0.006   0.289
    1UNL     H2   66  -1.160  -0.009   0.178
    1UNL     H3   67  -1.090   0.146   0.222
    1UNL     H4   68  -0.966   0.008  -0.133
    1UNL     H5   69  -1.256  -0.009  -0.037
    1UNL     H6   70  -1.219   0.088  -0.175
    1UNL     H7   71  -1.215   0.271  -0.044
    1UNL     H8   72  -0.820   0.001   0.194
    1UNL     H9   73  -0.827  -0.104   0.052
    1UNL    H10   74  -0.753   0.092  -0.090
    1UNL    H11   75  -0.757   0.193   0.035
    1UNL    H12   76  -0.620  -0.059   0.092
    1UNL    H13   77  -0.392   0.297   0.013
    1UNL    H14   78  -0.501   0.261  -0.116
    1UNL    H15   79  -0.563   0.322   0.051
    1UNL    H16   80  -0.179   0.007   0.211
    1UNL    H17   81  -0.077   0.227   0.265
    1UNL    H18   82  -0.158   0.335   0.100
    1UNL    H19   83  -0.033   0.521   0.170
    1UNL    H20   84  -0.080   0.657  -0.047
    1UNL    H21   85   0.127   0.612  -0.035
    1UNL    H22   86   0.219   0.512   0.198
    1UNL    H23   87   0.321   0.470   0.053
    1UNL    H24   88   0.204   0.355   0.119
    1UNL    H25   89  -0.030   0.509  -0.234
    1UNL    H26   90   0.186   0.236  -0.245
    1UNL    H27   91   0.167   0.207  -0.413
    1UNL    H28   92   0.225   0.465  -0.433
    1UNL    H29   93   0.566   0.531  -0.277
    1UNL    H30   94   0.409   0.625  -0.292
    1UNL    H31   95   0.487   0.527  -0.429
    1UNL    H32   96   0.439   0.335  -0.102
    1UNL    H33   97   0.368   0.217  -0.217
    1UNL    H34   98   0.565   0.207  -0.357
    1UNL    H35   99   0.651   0.327  -0.248
    1UNL    H36  100   0.699   0.124  -0.106
    1UNL    H37  101   0.401   0.062  -0.330
    1UNL    H38  102   0.440  -0.123  -0.352
    1UNL    H39  103   0.542   0.003  -0.437
    1UNL    H40  104   0.739  -0.121  -0.181
    1UNL    H41  105   0.593  -0.214  -0.192
    1UNL    H42  106   0.599  -0.203   0.157
    1UNL    H43  107   0.689  -0.395   0.221
    1UNL    H44  108   0.873  -0.533   0.012
    1UNL    H45  109   0.933  -0.443   0.140
    1UNL    H46  110   0.845  -0.600   0.162
    1UNL    H47  111   0.617  -0.555  -0.018
    1UNL    H48  112   0.513  -0.677   0.156
    1UNL    H49  113   0.461  -0.395   0.188
    1UNL    H50  114   0.297  -0.447   0.032
    1UNL    H51  115   0.472  -0.330  -0.107
    1UNL    H52  116   0.381  -0.146  -0.010
    1UNL    H53  117  -0.190   0.352  -0.144
    1UNL    H54  118  -0.060   0.188  -0.251
    1UNL    H55  119   0.241   0.042   0.176
    1UNL    H56  120   0.193  -0.100   0.363
    1UNL    H57  121   0.056  -0.180   0.289
    1UNL    H58  122   0.219  -0.213   0.228
    1UNL    H59  123   0.127  -0.138   0.029
    1UNL    H60  124   0.092   0.136  -0.040
    1UNL    H61  125  -0.102  -0.001  -0.065
    1UNL    H62  126  -0.111  -0.220  -0.136
    1UNL    H63  127   0.077  -0.406   0.182
    1UNL    H64  128  -0.006  -0.634   0.174
    1UNL    H65  129   0.108  -0.570   0.042
    1UNL    H66  130  -0.060  -0.621   0.012
    1UNL    H67  131  -0.135  -0.282   0.238
    1UNL    H68  132  -0.236  -0.442   0.367
    1UNL    H69  133  -0.276  -0.524   0.107
    1UNL    H70  134  -0.363  -0.264   0.178
    1UNL    H71  135  -0.243  -0.444  -0.106
    1UNL    H72  136  -0.355  -0.190   0.014
   0.00000   0.00000   0.00000   0.00000   0.00000   0.00000   0.00000   0.00000   0.00000
Generated with MDTraj, t= 31.0
 136
    1UNL     C1    1  -1.068   0.037   0.202
    1UNL     C2    2  -0.984   0.031   0.074
    1UNL     C3    3  -1.036   0.045  -0.049
    1UNL     C4    4  -1.180   0.066  -0.087
    1UNL     O1    5  -1.243   0.182  -0.053
    1UNL     C5    6  -0.848  -0.020   0.086
    1UNL     C6    7  -0.738   0.080   0.058
    1UNL     C7    8  -0.600   0.033   0.080
    1UNL     C8    9  -0.488   0.101   0.043
    1UNL     C9   10  -0.495   0.241   0.007
    1UNL    C10   11  -0.360   0.040   0.092
    1UNL     O2   12  -0.362  -0.067   0.152
    1UNL     O3   13  -0.248   0.115   0.072
    1UNL    C11   14  -0.133   0.066   0.146
    1UNL    C12   15  -0.036   0.177   0.192
    1UNL     O4   16   0.013   0.243   0.080
    1UNL    C13   17  -0.089   0.338   0.031
    1UNL    C14   18  -0.049   0.484   0.071
    1UNL     O5   19  -0.123   0.580  -0.005
    1UNL    C15   20   0.104   0.499   0.024
    1UNL    C16   21   0.191   0.437   0.123
    1UNL     O6   22   0.122   0.430  -0.104
    1UNL    C17   23   0.005   0.431  -0.185
    1UNL     O7   24   0.030   0.403  -0.324
    1UNL    C18   25   0.149   0.315  -0.346
    1UNL    C19   26   0.272   0.397  -0.374
    1UNL    C20   27   0.394   0.394  -0.316
    1UNL    C21   28   0.492   0.497  -0.362
    1UNL    C22   29   0.433   0.287  -0.215
    1UNL    C23   30   0.575   0.237  -0.246
    1UNL    C24   31   0.607   0.110  -0.185
    1UNL    C25   32   0.606  -0.009  -0.249
    1UNL    C26   33   0.555  -0.017  -0.391
    1UNL    C27   34   0.628  -0.132  -0.168
    1UNL     O8   35   0.588  -0.106  -0.034
    1UNL    C28   36   0.579  -0.228   0.040
    1UNL     O9   37   0.695  -0.316   0.024
    1UNL    C29   38   0.694  -0.429   0.111
    1UNL    C30   39   0.826  -0.503   0.095
    1UNL    C31   40   0.569  -0.511   0.075
    1UNL    O10   41   0.566  -0.626   0.166
    1UNL    C32   42   0.443  -0.429   0.081
    1UNL    O11   43   0.327  -0.504   0.040
    1UNL    C33   44   0.453  -0.295   0.006
    1UNL    O12   45   0.351  -0.210   0.045
    1UNL    C34   46  -0.092   0.325  -0.125
    1UNL    O13   47  -0.055   0.197  -0.164
    1UNL    O14   48   0.063   0.119   0.276
    1UNL    C35   49   0.146   0.014   0.218
    1UNL    C36   50   0.153  -0.095   0.324
    1UNL    C37   51   0.099  -0.035   0.074
    1UNL    O15   52   0.173   0.034  -0.021
    1UNL    C38   53  -0.059  -0.027   0.047
    1UNL    O16   54  -0.115  -0.159   0.060
    1UNL    C39   55  -0.094  -0.266  -0.040
    1UNL    O17   56   0.019  -0.355  -0.013
    1UNL    C40   57   0.011  -0.404   0.122
    1UNL    C41   58   0.037  -0.557   0.117
    1UNL    C42   59  -0.128  -0.385   0.194
    1UNL    O18   60  -0.145  -0.463   0.323
    1UNL    C43   61  -0.253  -0.406   0.106
    1UNL    O19   62  -0.354  -0.346   0.179
    1UNL    C44   63  -0.224  -0.346  -0.035
    1UNL    O20   64  -0.340  -0.266  -0.070
    1UNL     H1   65  -1.011  -0.003   0.286
    1UNL     H2   66  -1.157  -0.026   0.191
    1UNL     H3   67  -1.092   0.138   0.236
    1UNL     H4   68  -0.967   0.044  -0.122
    1UNL     H5   69  -1.251  -0.022  -0.062
    1UNL     H6   70  -1.190   0.065  -0.199
    1UNL     H7   71  -1.209   0.230   0.026
    1UNL     H8   72  -0.840  -0.063   0.187
    1UNL     H9   73  -0.838  -0.097   0.006
    1UNL    H10   74  -0.742   0.113  -0.047
    1UNL    H11   75  -0.755   0.179   0.101
    1UNL    H12   76  -0.606  -0.069   0.114
    1UNL    H13   77  -0.406   0.277  -0.054
    1UNL    H14   78  -0.579   0.268  -0.057
    1UNL    H15   79  -0.494   0.298   0.102
    1UNL    H16   80  -0.162  -0.001   0.221
    1UNL    H17   81  -0.085   0.241   0.261
    1UNL    H18   82  -0.181   0.300   0.078
    1UNL    H19   83  -0.058   0.504   0.179
    1UNL    H20   84  -0.113   0.656   0.048
    1UNL    H21   85   0.126   0.606   0.011
    1UNL    H22   86   0.164   0.467   0.230
    1UNL    H23   87   0.296   0.456   0.107
    1UNL    H24   88   0.173   0.330   0.126
    1UNL    H25   89  -0.034   0.535  -0.185
    1UNL    H26   90   0.159   0.255  -0.261
    1UNL    H27   91   0.132   0.243  -0.432
    1UNL    H28   92   0.244   0.478  -0.439
    1UNL    H29   93   0.562   0.551  -0.292
    1UNL    H30   94   0.441   0.578  -0.420
    1UNL    H31   95   0.566   0.450  -0.427
    1UNL    H32   96   0.433   0.333  -0.116
    1UNL    H33   97   0.368   0.202  -0.223
    1UNL    H34   98   0.585   0.229  -0.360
    1UNL    H35   99   0.658   0.303  -0.213
    1UNL    H36  100   0.639   0.111  -0.084
    1UNL    H37  101   0.456   0.039  -0.393
    1UNL    H38  102   0.533  -0.128  -0.423
    1UNL    H39  103   0.622   0.019  -0.471
    1UNL    H40  104   0.735  -0.168  -0.162
    1UNL    H41  105   0.570  -0.215  -0.216
    1UNL    H42  106   0.589  -0.197   0.144
    1UNL    H43  107   0.684  -0.380   0.214
    1UNL    H44  108   0.833  -0.552  -0.000
    1UNL    H45  109   0.916  -0.443   0.098
    1UNL    H46  110   0.838  -0.593   0.157
    1UNL    H47  111   0.578  -0.545  -0.028
    1UNL    H48  112   0.475  -0.656   0.174
    1UNL    H49  113   0.426  -0.417   0.186
    1UNL    H50  114   0.247  -0.441   0.027
    1UNL    H51  115   0.431  -0.329  -0.097
    1UNL    H52  116   0.344  -0.130  -0.022
    1UNL    H53  117  -0.200   0.339  -0.165
    1UNL    H54  118  -0.068   0.203  -0.262
    1UNL    H55  119   0.246   0.066   0.203
    1UNL    H56  120   0.204  -0.062   0.413
    1UNL    H57  121   0.059  -0.136   0.350
    1UNL    H58  122   0.213  -0.187   0.289
    1UNL    H59  123   0.117  -0.141   0.070
    1UNL    H60  124   0.115   0.112  -0.046
    1UNL    H61  125  -0.078   0.003  -0.053
    1UNL    H62  126  -0.082  -0.219  -0.140
    1UNL    H63  127   0.092  -0.355   0.177
    1UNL    H64  128   0.026  -0.587   0.224
    1UNL    H65  129   0.136  -0.582   0.073
    1UNL    H66  130  -0.039  -0.625   0.073
    1UNL    H67  131  -0.144  -0.278   0.231
    1UNL    H68  132  -0.237  -0.458   0.359
    1UNL    H69  133  -0.285  -0.510   0.076
    1UNL    H70  134  -0.364  -0.245   0.168
    1UNL    H71  135  -0.217  -0.425  -0.110
    1UNL    H72  136  -0.347  -0.190   0.000
   0.00000   0.00000   0.00000   0.00000   0.00000   0.00000   0.00000   0.00000   0.00000
Generated with MDTraj, t= 32.0
 136
    1UNL     C1    1  -1.078   0.034   0.181
    1UNL     C2    2  -1.003   0.003   0.069
    1UNL     C3    3  -1.047   0.010  -0.056
    1UNL     C4    4  -1.184   0.063  -0.099
    1UNL     O1    5  -1.195   0.200  -0.082
    1UNL     C5    6  -0.854  -0.032   0.088
    1UNL     C6    7  -0.745   0.073   0.067
    1UNL     C7    8  -0.608   0.036   0.120
    1UNL     C8    9  -0.494   0.093   0.073
    1UNL     C9   10  -0.485   0.224   0.007
    1UNL    C10   11  -0.369   0.029   0.116
    1UNL     O2   12  -0.369  -0.084   0.154
    1UNL     O3   13  -0.260   0.118   0.116
    1UNL    C11   14  -0.134   0.068   0.166
    1UNL    C12   15  -0.046   0.188   0.205
    1UNL     O4   16   0.006   0.237   0.080
    1UNL    C13   17  -0.086   0.328   0.025
    1UNL    C14   18  -0.044   0.468   0.073
    1UNL     O5   19  -0.146   0.566   0.064
    1UNL    C15   20   0.086   0.516   0.016
    1UNL    C16   21   0.200   0.487   0.109
    1UNL     O6   22   0.117   0.464  -0.116
    1UNL    C17   23   0.006   0.436  -0.197
    1UNL     O7   24   0.041   0.402  -0.331
    1UNL    C18   25   0.171   0.345  -0.342
    1UNL    C19   26   0.282   0.442  -0.369
    1UNL    C20   27   0.412   0.408  -0.360
    1UNL    C21   28   0.515   0.515  -0.397
    1UNL    C22   29   0.452   0.273  -0.320
    1UNL    C23   30   0.597   0.239  -0.275
    1UNL    C24   31   0.595   0.113  -0.206
    1UNL    C25   32   0.628  -0.007  -0.253
    1UNL    C26   33   0.650  -0.026  -0.391
    1UNL    C27   34   0.616  -0.130  -0.163
    1UNL     O8   35   0.568  -0.107  -0.032
    1UNL    C28   36   0.563  -0.231   0.033
    1UNL     O9   37   0.684  -0.316   0.016
    1UNL    C29   38   0.668  -0.438   0.092
    1UNL    C30   39   0.790  -0.533   0.077
    1UNL    C31   40   0.535  -0.513   0.063
    1UNL    O10   41   0.524  -0.635   0.143
    1UNL    C32   42   0.410  -0.431   0.089
    1UNL    O11   43   0.281  -0.493   0.053
    1UNL    C33   44   0.429  -0.294   0.010
    1UNL    O12   45   0.329  -0.192   0.046
    1UNL    C34   46  -0.083   0.323  -0.130
    1UNL    O13   47  -0.031   0.199  -0.179
    1UNL    O14   48   0.065   0.135   0.288
    1UNL    C35   49   0.138   0.023   0.229
    1UNL    C36   50   0.148  -0.102   0.315
    1UNL    C37   51   0.087  -0.011   0.078
    1UNL    O15   52   0.158   0.060  -0.028
    1UNL    C38   53  -0.067  -0.027   0.069
    1UNL    O16   54  -0.101  -0.162   0.105
    1UNL    C39   55  -0.062  -0.260  -0.002
    1UNL    O17   56   0.044  -0.343   0.032
    1UNL    C40   57   0.008  -0.433   0.150
    1UNL    C41   58   0.019  -0.585   0.111
    1UNL    C42   59  -0.118  -0.396   0.211
    1UNL    O18   60  -0.141  -0.476   0.335
    1UNL    C43   61  -0.233  -0.423   0.107
    1UNL    O19   62  -0.354  -0.377   0.150
    1UNL    C44   63  -0.184  -0.348  -0.026
    1UNL    O20   64  -0.286  -0.252  -0.075
    1UNL     H1   65  -1.037  -0.002   0.273
    1UNL     H2   66  -1.179  -0.021   0.177
    1UNL     H3   67  -1.091   0.139   0.200
    1UNL     H4   68  -0.966   0.002  -0.136
    1UNL     H5   69  -1.268   0.003  -0.046
    1UNL     H6   70  -1.199   0.033  -0.206
    1UNL     H7   71  -1.125   0.234  -0.022
    1UNL     H8   72  -0.832  -0.065   0.190
    1UNL     H9   73  -0.841  -0.116   0.009
    1UNL    H10   74  -0.735   0.098  -0.040
    1UNL    H11   75  -0.777   0.173   0.101
    1UNL    H12   76  -0.606  -0.057   0.180
    1UNL    H13   77  -0.419   0.220  -0.086
    1UNL    H14   78  -0.586   0.256  -0.020
    1UNL    H15   79  -0.441   0.284   0.089
    1UNL    H16   80  -0.160   0.006   0.247
    1UNL    H17   81  -0.107   0.247   0.271
    1UNL    H18   82  -0.184   0.296   0.069
    1UNL    H19   83  -0.033   0.465   0.182
    1UNL    H20   84  -0.212   0.546  -0.007
    1UNL    H21   85   0.073   0.625   0.008
    1UNL    H22   86   0.181   0.535   0.207
    1UNL    H23   87   0.293   0.534   0.065
    1UNL    H24   88   0.209   0.382   0.134
    1UNL    H25   89  -0.053   0.531  -0.208
    1UNL    H26   90   0.195   0.293  -0.254
    1UNL    H27   91   0.166   0.266  -0.424
    1UNL    H28   92   0.254   0.548  -0.384
    1UNL    H29   93   0.573   0.560  -0.308
    1UNL    H30   94   0.459   0.604  -0.441
    1UNL    H31   95   0.588   0.477  -0.461
    1UNL    H32   96   0.396   0.250  -0.228
    1UNL    H33   97   0.433   0.205  -0.401
    1UNL    H34   98   0.682   0.249  -0.351
    1UNL    H35   99   0.621   0.322  -0.203
    1UNL    H36  100   0.564   0.118  -0.100
    1UNL    H37  101   0.551   0.002  -0.444
    1UNL    H38  102   0.677  -0.130  -0.422
    1UNL    H39  103   0.734   0.034  -0.438
    1UNL    H40  104   0.715  -0.186  -0.165
    1UNL    H41  105   0.545  -0.199  -0.214
    1UNL    H42  106   0.562  -0.201   0.136
    1UNL    H43  107   0.678  -0.406   0.202
    1UNL    H44  108   0.791  -0.571  -0.025
    1UNL    H45  109   0.880  -0.469   0.088
    1UNL    H46  110   0.794  -0.623   0.135
    1UNL    H47  111   0.530  -0.539  -0.041
    1UNL    H48  112   0.431  -0.649   0.168
    1UNL    H49  113   0.413  -0.401   0.193
    1UNL    H50  114   0.219  -0.414   0.057
    1UNL    H51  115   0.406  -0.313  -0.096
    1UNL    H52  116   0.340  -0.117  -0.024
    1UNL    H53  117  -0.192   0.319  -0.163
    1UNL    H54  118   0.005   0.221  -0.265
    1UNL    H55  119   0.234   0.074   0.209
    1UNL    H56  120   0.188  -0.076   0.413
    1UNL    H57  121   0.055  -0.160   0.320
    1UNL    H58  122   0.223  -0.171   0.270
    1UNL    H59  123   0.117  -0.111   0.056
    1UNL    H60  124   0.098   0.116  -0.077
    1UNL    H61  125  -0.098   0.001  -0.028
    1UNL    H62  126  -0.036  -0.205  -0.095
    1UNL    H63  127   0.092  -0.403   0.217
    1UNL    H64  128  -0.011  -0.643   0.199
    1UNL    H65  129   0.118  -0.611   0.073
    1UNL    H66  130  -0.056  -0.630   0.035
    1UNL    H67  131  -0.120  -0.289   0.249
    1UNL    H68  132  -0.238  -0.484   0.346
    1UNL    H69  133  -0.233  -0.536   0.104
    1UNL    H70  134  -0.362  -0.281   0.148
    1UNL    H71  135  -0.160  -0.423  -0.100
    1UNL    H72  136  -0.290  -0.190  -0.003
   0.00000   0.00000   0.00000   0.00000   0.00000   0.00000   0.00000   0.00000   0.00000
Generated with MDTraj, t= 33.0
 136
    1UNL     C1    1  -1.077   0.058   0.160
    1UNL     C2    2  -0.983  -0.008   0.057
    1UNL     C3    3  -1.027  -0.012  -0.066
    1UNL     C4    4  -1.149   0.065  -0.113
    1UNL     O1    5  -1.142   0.208  -0.092
    1UNL     C5    6  -0.856  -0.072   0.103
    1UNL     C6    7  -0.743   0.036   0.093
    1UNL     C7    8  -0.597  -0.003   0.117
    1UNL     C8    9  -0.496   0.079   0.077
    1UNL     C9   10  -0.509   0.215   0.009
    1UNL    C10   11  -0.359   0.029   0.122
    1UNL     O2   12  -0.348  -0.074   0.183
    1UNL     O3   13  -0.253   0.123   0.098
    1UNL    C11   14  -0.135   0.079   0.165
    1UNL    C12   15  -0.033   0.190   0.198
    1UNL     O4   16   0.024   0.252   0.081
    1UNL    C13   17  -0.073   0.345   0.025
    1UNL    C14   18  -0.051   0.492   0.074
    1UNL     O5   19  -0.167   0.575   0.052
    1UNL    C15   20   0.076   0.562   0.015
    1UNL    C16   21   0.194   0.565   0.119
    1UNL     O6   22   0.113   0.505  -0.116
    1UNL    C17   23   0.011   0.454  -0.198
    1UNL     O7   24   0.051   0.410  -0.323
    1UNL    C18   25   0.176   0.344  -0.324
    1UNL    C19   26   0.291   0.436  -0.343
    1UNL    C20   27   0.414   0.408  -0.390
    1UNL    C21   28   0.519   0.508  -0.409
    1UNL    C22   29   0.466   0.261  -0.397
    1UNL    C23   30   0.578   0.237  -0.293
    1UNL    C24   31   0.568   0.108  -0.224
    1UNL    C25   32   0.635  -0.001  -0.259
    1UNL    C26   33   0.736  -0.002  -0.367
    1UNL    C27   34   0.621  -0.123  -0.180
    1UNL     O8   35   0.586  -0.100  -0.041
    1UNL    C28   36   0.568  -0.224   0.030
    1UNL     O9   37   0.674  -0.325   0.009
    1UNL    C29   38   0.653  -0.446   0.075
    1UNL    C30   39   0.773  -0.544   0.050
    1UNL    C31   40   0.515  -0.506   0.042
    1UNL    O10   41   0.498  -0.622   0.126
    1UNL    C32   42   0.395  -0.412   0.080
    1UNL    O11   43   0.273  -0.474   0.043
    1UNL    C33   44   0.423  -0.285   0.002
    1UNL    O12   45   0.321  -0.189   0.039
    1UNL    C34   46  -0.070   0.343  -0.132
    1UNL    O13   47  -0.028   0.217  -0.173
    1UNL    O14   48   0.071   0.120   0.277
    1UNL    C35   49   0.151   0.018   0.217
    1UNL    C36   50   0.160  -0.099   0.313
    1UNL    C37   51   0.088  -0.033   0.085
    1UNL    O15   52   0.137   0.041  -0.021
    1UNL    C38   53  -0.070  -0.038   0.082
    1UNL    O16   54  -0.121  -0.158   0.128
    1UNL    C39   55  -0.063  -0.270   0.055
    1UNL    O17   56   0.042  -0.348   0.112
    1UNL    C40   57  -0.009  -0.464   0.189
    1UNL    C41   58   0.013  -0.599   0.112
    1UNL    C42   59  -0.152  -0.441   0.234
    1UNL    O18   60  -0.206  -0.547   0.329
    1UNL    C43   61  -0.251  -0.429   0.112
    1UNL    O19   62  -0.375  -0.375   0.143
    1UNL    C44   63  -0.177  -0.352   0.001
    1UNL    O20   64  -0.267  -0.262  -0.063
    1UNL     H1   65  -1.015   0.084   0.243
    1UNL     H2   66  -1.142  -0.027   0.202
    1UNL     H3   67  -1.127   0.148   0.126
    1UNL     H4   68  -0.969  -0.074  -0.131
    1UNL     H5   69  -1.242   0.018  -0.064
    1UNL     H6   70  -1.167   0.039  -0.221
    1UNL     H7   71  -1.087   0.249  -0.162
    1UNL     H8   72  -0.867  -0.097   0.209
    1UNL     H9   73  -0.819  -0.162   0.037
    1UNL    H10   74  -0.756   0.078  -0.009
    1UNL    H11   75  -0.769   0.129   0.146
    1UNL    H12   76  -0.582  -0.092   0.174
    1UNL    H13   77  -0.510   0.203  -0.103
    1UNL    H14   78  -0.603   0.258   0.051
    1UNL    H15   79  -0.425   0.272   0.052
    1UNL    H16   80  -0.175   0.036   0.253
    1UNL    H17   81  -0.072   0.261   0.272
    1UNL    H18   82  -0.174   0.311   0.065
    1UNL    H19   83  -0.041   0.499   0.184
    1UNL    H20   84  -0.195   0.581  -0.047
    1UNL    H21   85   0.058   0.669  -0.006
    1UNL    H22   86   0.169   0.626   0.203
    1UNL    H23   87   0.286   0.612   0.069
    1UNL    H24   88   0.216   0.469   0.167
    1UNL    H25   89  -0.059   0.539  -0.223
    1UNL    H26   90   0.184   0.303  -0.227
    1UNL    H27   91   0.179   0.259  -0.399
    1UNL    H28   92   0.269   0.533  -0.312
    1UNL    H29   93   0.544   0.551  -0.307
    1UNL    H30   94   0.466   0.595  -0.459
    1UNL    H31   95   0.603   0.468  -0.461
    1UNL    H32   96   0.384   0.192  -0.379
    1UNL    H33   97   0.507   0.246  -0.495
    1UNL    H34   98   0.678   0.249  -0.346
    1UNL    H35   99   0.591   0.314  -0.212
    1UNL    H36  100   0.503   0.098  -0.141
    1UNL    H37  101   0.679   0.045  -0.454
    1UNL    H38  102   0.773  -0.101  -0.390
    1UNL    H39  103   0.827   0.067  -0.342
    1UNL    H40  104   0.715  -0.187  -0.180
    1UNL    H41  105   0.546  -0.193  -0.227
    1UNL    H42  106   0.567  -0.191   0.131
    1UNL    H43  107   0.666  -0.431   0.188
    1UNL    H44  108   0.770  -0.558  -0.060
    1UNL    H45  109   0.865  -0.490   0.081
    1UNL    H46  110   0.758  -0.636   0.093
    1UNL    H47  111   0.498  -0.546  -0.056
    1UNL    H48  112   0.399  -0.633   0.139
    1UNL    H49  113   0.410  -0.392   0.187
    1UNL    H50  114   0.196  -0.421   0.076
    1UNL    H51  115   0.412  -0.309  -0.104
    1UNL    H52  116   0.351  -0.110   0.003
    1UNL    H53  117  -0.174   0.347  -0.166
    1UNL    H54  118  -0.032   0.220  -0.273
    1UNL    H55  119   0.252   0.053   0.197
    1UNL    H56  120   0.196  -0.066   0.412
    1UNL    H57  121   0.059  -0.149   0.311
    1UNL    H58  122   0.227  -0.174   0.276
    1UNL    H59  123   0.119  -0.134   0.082
    1UNL    H60  124   0.073   0.109  -0.055
    1UNL    H61  125  -0.105  -0.025  -0.017
    1UNL    H62  126  -0.016  -0.223  -0.035
    1UNL    H63  127   0.059  -0.462   0.280
    1UNL    H64  128  -0.050  -0.683   0.147
    1UNL    H65  129   0.120  -0.620   0.098
    1UNL    H66  130  -0.023  -0.586   0.003
    1UNL    H67  131  -0.165  -0.346   0.290
    1UNL    H68  132  -0.301  -0.531   0.334
    1UNL    H69  133  -0.287  -0.529   0.077
    1UNL    H70  134  -0.362  -0.272   0.152
    1UNL    H71  135  -0.136  -0.422  -0.073
    1UNL    H72  136  -0.279  -0.181  -0.016
   0.00000   0.00000   0.00000   0.00000   0.00000   0.00000   0.00000   0.00000   0.00000
Generated with MDTraj, t= 34.0
 136
    1UNL     C1    1  -1.043   0.060   0.154
    1UNL     C2    2  -0.963  -0.024   0.055
    1UNL     C3    3  -0.990  -0.020  -0.073
    1UNL     C4    4  -1.114   0.051  -0.128
    1UNL     O1    5  -1.108   0.190  -0.114
    1UNL     C5    6  -0.829  -0.068   0.107
    1UNL     C6    7  -0.717   0.038   0.069
    1UNL     C7    8  -0.579  -0.003   0.110
    1UNL     C8    9  -0.481   0.087   0.088
    1UNL     C9   10  -0.487   0.211   0.019
    1UNL    C10   11  -0.350   0.031   0.130
    1UNL     O2   12  -0.350  -0.074   0.186
    1UNL     O3   13  -0.243   0.115   0.104
    1UNL    C11   14  -0.126   0.073   0.166
    1UNL    C12   15  -0.037   0.194   0.195
    1UNL     O4   16   0.000   0.262   0.078
    1UNL    C13   17  -0.092   0.357   0.028
    1UNL    C14   18  -0.068   0.502   0.076
    1UNL     O5   19  -0.182   0.581   0.047
    1UNL    C15   20   0.058   0.572   0.017
    1UNL    C16   21   0.166   0.606   0.116
    1UNL     O6   22   0.110   0.484  -0.088
    1UNL    C17   23   0.005   0.450  -0.188
    1UNL     O7   24   0.056   0.412  -0.316
    1UNL    C18   25   0.193   0.359  -0.306
    1UNL    C19   26   0.300   0.453  -0.348
    1UNL    C20   27   0.420   0.421  -0.397
    1UNL    C21   28   0.525   0.514  -0.448
    1UNL    C22   29   0.468   0.279  -0.410
    1UNL    C23   30   0.535   0.235  -0.284
    1UNL    C24   31   0.552   0.085  -0.262
    1UNL    C25   32   0.652  -0.008  -0.272
    1UNL    C26   33   0.794   0.041  -0.306
    1UNL    C27   34   0.638  -0.139  -0.192
    1UNL     O8   35   0.608  -0.116  -0.057
    1UNL    C28   36   0.581  -0.227   0.018
    1UNL     O9   37   0.669  -0.329  -0.025
    1UNL    C29   38   0.657  -0.448   0.056
    1UNL    C30   39   0.770  -0.544   0.030
    1UNL    C31   40   0.519  -0.511   0.026
    1UNL    O10   41   0.497  -0.624   0.111
    1UNL    C32   42   0.404  -0.408   0.062
    1UNL    O11   43   0.279  -0.465   0.027
    1UNL    C33   44   0.430  -0.276  -0.003
    1UNL    O12   45   0.332  -0.177   0.026
    1UNL    C34   46  -0.087   0.344  -0.129
    1UNL    O13   47  -0.051   0.213  -0.164
    1UNL    O14   48   0.076   0.149   0.268
    1UNL    C35   49   0.153   0.033   0.214
    1UNL    C36   50   0.173  -0.075   0.324
    1UNL    C37   51   0.096  -0.018   0.079
    1UNL    O15   52   0.150   0.056  -0.030
    1UNL    C38   53  -0.065  -0.043   0.083
    1UNL    O16   54  -0.100  -0.170   0.136
    1UNL    C39   55  -0.068  -0.290   0.066
    1UNL    O17   56   0.008  -0.394   0.134
    1UNL    C40   57  -0.051  -0.493   0.219
    1UNL    C41   58  -0.024  -0.638   0.176
    1UNL    C42   59  -0.200  -0.469   0.258
    1UNL    O18   60  -0.277  -0.594   0.296
    1UNL    C43   61  -0.283  -0.413   0.139
    1UNL    O19   62  -0.398  -0.341   0.179
    1UNL    C44   63  -0.200  -0.357   0.017
    1UNL    O20   64  -0.277  -0.260  -0.046
    1UNL     H1   65  -0.982   0.081   0.243
    1UNL     H2   66  -1.123  -0.004   0.195
    1UNL     H3   67  -1.075   0.156   0.115
    1UNL     H4   68  -0.913  -0.057  -0.137
    1UNL     H5   69  -1.203   0.024  -0.062
    1UNL     H6   70  -1.152   0.017  -0.227
    1UNL     H7   71  -1.043   0.227  -0.180
    1UNL     H8   72  -0.827  -0.071   0.218
    1UNL     H9   73  -0.793  -0.172   0.069
    1UNL    H10   74  -0.712   0.064  -0.039
    1UNL    H11   75  -0.754   0.135   0.106
    1UNL    H12   76  -0.581  -0.102   0.160
    1UNL    H13   77  -0.574   0.227  -0.049
    1UNL    H14   78  -0.476   0.290   0.099
    1UNL    H15   79  -0.395   0.230  -0.038
    1UNL    H16   80  -0.157   0.026   0.261
    1UNL    H17   81  -0.096   0.265   0.258
    1UNL    H18   82  -0.192   0.317   0.069
    1UNL    H19   83  -0.056   0.496   0.185
    1UNL    H20   84  -0.181   0.606  -0.054
    1UNL    H21   85   0.042   0.668  -0.034
    1UNL    H22   86   0.141   0.674   0.194
    1UNL    H23   87   0.251   0.649   0.058
    1UNL    H24   88   0.203   0.516   0.172
    1UNL    H25   89  -0.050   0.545  -0.215
    1UNL    H26   90   0.223   0.322  -0.210
    1UNL    H27   91   0.194   0.268  -0.376
    1UNL    H28   92   0.278   0.563  -0.335
    1UNL    H29   93   0.543   0.594  -0.373
    1UNL    H30   94   0.487   0.573  -0.534
    1UNL    H31   95   0.621   0.465  -0.476
    1UNL    H32   96   0.377   0.223  -0.430
    1UNL    H33   97   0.534   0.266  -0.492
    1UNL    H34   98   0.641   0.272  -0.269
    1UNL    H35   99   0.486   0.281  -0.194
    1UNL    H36  100   0.452   0.042  -0.244
    1UNL    H37  101   0.795   0.110  -0.395
    1UNL    H38  102   0.863  -0.044  -0.321
    1UNL    H39  103   0.843   0.101  -0.221
    1UNL    H40  104   0.733  -0.199  -0.197
    1UNL    H41  105   0.561  -0.209  -0.231
    1UNL    H42  106   0.606  -0.194   0.116
    1UNL    H43  107   0.658  -0.407   0.161
    1UNL    H44  108   0.753  -0.590  -0.068
    1UNL    H45  109   0.863  -0.486   0.044
    1UNL    H46  110   0.761  -0.625   0.097
    1UNL    H47  111   0.505  -0.543  -0.076
    1UNL    H48  112   0.405  -0.653   0.099
    1UNL    H49  113   0.403  -0.378   0.169
    1UNL    H50  114   0.202  -0.434   0.073
    1UNL    H51  115   0.416  -0.301  -0.110
    1UNL    H52  116   0.373  -0.089   0.038
    1UNL    H53  117  -0.183   0.355  -0.172
    1UNL    H54  118  -0.068   0.205  -0.260
    1UNL    H55  119   0.246   0.078   0.192
    1UNL    H56  120   0.217  -0.026   0.415
    1UNL    H57  121   0.072  -0.124   0.340
    1UNL    H58  122   0.238  -0.150   0.293
    1UNL    H59  123   0.133  -0.115   0.061
    1UNL    H60  124   0.095   0.142  -0.028
    1UNL    H61  125  -0.101  -0.044  -0.017
    1UNL    H62  126  -0.006  -0.263  -0.020
    1UNL    H63  127   0.012  -0.469   0.310
    1UNL    H64  128  -0.075  -0.715   0.238
    1UNL    H65  129   0.085  -0.648   0.153
    1UNL    H66  130  -0.074  -0.645   0.078
    1UNL    H67  131  -0.208  -0.407   0.346
    1UNL    H68  132  -0.372  -0.577   0.315
    1UNL    H69  133  -0.340  -0.493   0.088
    1UNL    H70  134  -0.370  -0.251   0.191
    1UNL    H71  135  -0.165  -0.433  -0.055
    1UNL    H72  136  -0.293  -0.180   0.016
   0.00000   0.00000   0.00000   0.00000   0.00000   0.00000   0.00000   0.00000   0.00000
Generated with MDTraj, t= 35.0
 136
    1UNL     C1    1  -1.045   0.047   0.141
    1UNL     C2    2  -0.952  -0.013   0.047
    1UNL     C3    3  -0.988  -0.035  -0.079
    1UNL     C4    4  -1.114   0.031  -0.141
    1UNL     O1    5  -1.103   0.168  -0.150
    1UNL     C5    6  -0.813  -0.051   0.099
    1UNL     C6    7  -0.714   0.049   0.045
    1UNL     C7    8  -0.571   0.014   0.086
    1UNL     C8    9  -0.466   0.103   0.079
    1UNL     C9   10  -0.468   0.223   0.001
    1UNL    C10   11  -0.341   0.053   0.144
    1UNL     O2   12  -0.348  -0.034   0.226
    1UNL     O3   13  -0.229   0.111   0.101
    1UNL    C11   14  -0.112   0.075   0.173
    1UNL    C12   15  -0.012   0.196   0.197
    1UNL     O4   16   0.016   0.264   0.073
    1UNL    C13   17  -0.095   0.335   0.023
    1UNL    C14   18  -0.083   0.477   0.078
    1UNL     O5   19  -0.215   0.543   0.062
    1UNL    C15   20   0.042   0.560   0.025
    1UNL    C16   21   0.144   0.574   0.134
    1UNL     O6   22   0.105   0.504  -0.092
    1UNL    C17   23   0.002   0.457  -0.189
    1UNL     O7   24   0.057   0.392  -0.306
    1UNL    C18   25   0.197   0.354  -0.295
    1UNL    C19   26   0.291   0.450  -0.359
    1UNL    C20   27   0.406   0.418  -0.420
    1UNL    C21   28   0.498   0.523  -0.475
    1UNL    C22   29   0.462   0.283  -0.425
    1UNL    C23   30   0.525   0.238  -0.287
    1UNL    C24   31   0.542   0.097  -0.263
    1UNL    C25   32   0.659   0.039  -0.245
    1UNL    C26   33   0.795   0.103  -0.238
    1UNL    C27   34   0.656  -0.109  -0.199
    1UNL     O8   35   0.609  -0.119  -0.064
    1UNL    C28   36   0.590  -0.244  -0.001
    1UNL     O9   37   0.678  -0.348  -0.046
    1UNL    C29   38   0.661  -0.475   0.036
    1UNL    C30   39   0.770  -0.575   0.012
    1UNL    C31   40   0.513  -0.528   0.025
    1UNL    O10   41   0.495  -0.650   0.092
    1UNL    C32   42   0.410  -0.422   0.062
    1UNL    O11   43   0.284  -0.478   0.022
    1UNL    C33   44   0.439  -0.291  -0.019
    1UNL    O12   45   0.351  -0.182   0.010
    1UNL    C34   46  -0.096   0.347  -0.132
    1UNL    O13   47  -0.073   0.220  -0.193
    1UNL    O14   48   0.106   0.146   0.264
    1UNL    C35   49   0.171   0.028   0.212
    1UNL    C36   50   0.191  -0.079   0.320
    1UNL    C37   51   0.098  -0.031   0.090
    1UNL    O15   52   0.122   0.037  -0.028
    1UNL    C38   53  -0.056  -0.057   0.110
    1UNL    O16   54  -0.069  -0.175   0.184
    1UNL    C39   55  -0.064  -0.284   0.094
    1UNL    O17   56  -0.002  -0.409   0.129
    1UNL    C40   57  -0.065  -0.495   0.231
    1UNL    C41   58  -0.061  -0.637   0.186
    1UNL    C42   59  -0.211  -0.451   0.267
    1UNL    O18   60  -0.288  -0.554   0.322
    1UNL    C43   61  -0.296  -0.404   0.139
    1UNL    O19   62  -0.422  -0.347   0.158
    1UNL    C44   63  -0.206  -0.322   0.037
    1UNL    O20   64  -0.270  -0.202   0.008
    1UNL     H1   65  -1.023   0.040   0.251
    1UNL     H2   66  -1.136  -0.006   0.141
    1UNL     H3   67  -1.064   0.156   0.132
    1UNL     H4   68  -0.931  -0.109  -0.145
    1UNL     H5   69  -1.211  -0.003  -0.093
    1UNL     H6   70  -1.124   0.002  -0.246
    1UNL     H7   71  -1.008   0.194  -0.157
    1UNL     H8   72  -0.792  -0.045   0.212
    1UNL     H9   73  -0.791  -0.159   0.070
    1UNL    H10   74  -0.732   0.053  -0.064
    1UNL    H11   75  -0.729   0.153   0.078
    1UNL    H12   76  -0.574  -0.086   0.123
    1UNL    H13   77  -0.565   0.271  -0.003
    1UNL    H14   78  -0.389   0.290   0.049
    1UNL    H15   79  -0.430   0.214  -0.102
    1UNL    H16   80  -0.150   0.039   0.273
    1UNL    H17   81  -0.050   0.279   0.264
    1UNL    H18   82  -0.190   0.288   0.070
    1UNL    H19   83  -0.090   0.475   0.189
    1UNL    H20   84  -0.215   0.607  -0.014
    1UNL    H21   85   0.012   0.660  -0.012
    1UNL    H22   86   0.105   0.609   0.231
    1UNL    H23   87   0.225   0.639   0.105
    1UNL    H24   88   0.189   0.475   0.166
    1UNL    H25   89  -0.053   0.545  -0.229
    1UNL    H26   90   0.225   0.338  -0.193
    1UNL    H27   91   0.218   0.253  -0.348
    1UNL    H28   92   0.259   0.549  -0.354
    1UNL    H29   93   0.496   0.610  -0.411
    1UNL    H30   94   0.477   0.562  -0.576
    1UNL    H31   95   0.607   0.481  -0.479
    1UNL    H32   96   0.394   0.201  -0.447
    1UNL    H33   97   0.528   0.274  -0.508
    1UNL    H34   98   0.624   0.287  -0.285
    1UNL    H35   99   0.482   0.284  -0.193
    1UNL    H36  100   0.456   0.036  -0.271
    1UNL    H37  101   0.813   0.167  -0.326
    1UNL    H38  102   0.880   0.026  -0.235
    1UNL    H39  103   0.816   0.170  -0.155
    1UNL    H40  104   0.757  -0.156  -0.200
    1UNL    H41  105   0.590  -0.171  -0.260
    1UNL    H42  106   0.615  -0.225   0.102
    1UNL    H43  107   0.663  -0.421   0.131
    1UNL    H44  108   0.775  -0.623  -0.086
    1UNL    H45  109   0.862  -0.537   0.049
    1UNL    H46  110   0.745  -0.664   0.074
    1UNL    H47  111   0.504  -0.558  -0.080
    1UNL    H48  112   0.408  -0.693   0.080
    1UNL    H49  113   0.400  -0.402   0.172
    1UNL    H50  114   0.210  -0.426   0.048
    1UNL    H51  115   0.427  -0.335  -0.120
    1UNL    H52  116   0.403  -0.091   0.022
    1UNL    H53  117  -0.195   0.369  -0.157
    1UNL    H54  118  -0.036   0.234  -0.282
    1UNL    H55  119   0.266   0.065   0.178
    1UNL    H56  120   0.245  -0.032   0.403
    1UNL    H57  121   0.093  -0.117   0.355
    1UNL    H58  122   0.249  -0.167   0.295
    1UNL    H59  123   0.142  -0.123   0.064
    1UNL    H60  124   0.074   0.119  -0.020
    1UNL    H61  125  -0.103  -0.066   0.012
    1UNL    H62  126  -0.008  -0.250   0.008
    1UNL    H63  127   0.010  -0.471   0.310
    1UNL    H64  128  -0.101  -0.721   0.251
    1UNL    H65  129   0.042  -0.655   0.142
    1UNL    H66  130  -0.122  -0.635   0.099
    1UNL    H67  131  -0.196  -0.370   0.335
    1UNL    H68  132  -0.380  -0.516   0.328
    1UNL    H69  133  -0.317  -0.493   0.081
    1UNL    H70  134  -0.402  -0.258   0.201
    1UNL    H71  135  -0.180  -0.376  -0.058
    1UNL    H72  136  -0.288  -0.149   0.085
   0.00000   0.00000   0.00000   0.00000   0.00000   0.00000   0.00000   0.00000   0.00000
Generated with MDTraj, t= 36.0
 136
    1UNL     C1    1  -1.037   0.054   0.128
    1UNL     C2    2  -0.947  -0.015   0.027
    1UNL     C3    3  -0.983  -0.027  -0.098
    1UNL     C4    4  -1.120   0.005  -0.167
    1UNL     O1    5  -1.135   0.141  -0.198
    1UNL     C5    6  -0.810  -0.042   0.072
    1UNL     C6    7  -0.695   0.051   0.037
    1UNL     C7    8  -0.570   0.024   0.125
    1UNL     C8    9  -0.461   0.104   0.109
    1UNL     C9   10  -0.449   0.211  -0.002
    1UNL    C10   11  -0.339   0.058   0.179
    1UNL     O2   12  -0.337  -0.038   0.251
    1UNL     O3   13  -0.231   0.120   0.130
    1UNL    C11   14  -0.100   0.075   0.183
    1UNL    C12   15  -0.001   0.188   0.191
    1UNL     O4   16   0.021   0.256   0.072
    1UNL    C13   17  -0.098   0.323   0.030
    1UNL    C14   18  -0.095   0.467   0.084
    1UNL     O5   19  -0.218   0.536   0.056
    1UNL    C15   20   0.031   0.541   0.031
    1UNL    C16   21   0.142   0.540   0.142
    1UNL     O6   22   0.085   0.477  -0.084
    1UNL    C17   23  -0.011   0.444  -0.184
    1UNL     O7   24   0.045   0.409  -0.305
    1UNL    C18   25   0.178   0.372  -0.291
    1UNL    C19   26   0.275   0.457  -0.360
    1UNL    C20   27   0.393   0.417  -0.410
    1UNL    C21   28   0.466   0.510  -0.507
    1UNL    C22   29   0.436   0.276  -0.402
    1UNL    C23   30   0.518   0.243  -0.273
    1UNL    C24   31   0.538   0.101  -0.250
    1UNL    C25   32   0.648   0.039  -0.211
    1UNL    C26   33   0.767   0.113  -0.167
    1UNL    C27   34   0.643  -0.105  -0.167
    1UNL     O8   35   0.605  -0.118  -0.026
    1UNL    C28   36   0.588  -0.257   0.009
    1UNL     O9   37   0.674  -0.355  -0.056
    1UNL    C29   38   0.671  -0.483   0.015
    1UNL    C30   39   0.776  -0.576  -0.046
    1UNL    C31   40   0.520  -0.539   0.001
    1UNL    O10   41   0.502  -0.661   0.070
    1UNL    C32   42   0.418  -0.436   0.040
    1UNL    O11   43   0.287  -0.490  -0.001
    1UNL    C33   44   0.445  -0.302  -0.032
    1UNL    O12   45   0.344  -0.206  -0.000
    1UNL    C34   46  -0.098   0.327  -0.129
    1UNL    O13   47  -0.042   0.205  -0.191
    1UNL    O14   48   0.120   0.144   0.251
    1UNL    C35   49   0.195   0.033   0.197
    1UNL    C36   50   0.228  -0.078   0.299
    1UNL    C37   51   0.118  -0.037   0.080
    1UNL    O15   52   0.149   0.014  -0.046
    1UNL    C38   53  -0.038  -0.048   0.112
    1UNL    O16   54  -0.065  -0.173   0.170
    1UNL    C39   55  -0.061  -0.284   0.080
    1UNL    O17   56   0.004  -0.400   0.131
    1UNL    C40   57  -0.072  -0.464   0.236
    1UNL    C41   58  -0.084  -0.611   0.188
    1UNL    C42   59  -0.214  -0.393   0.275
    1UNL    O18   60  -0.290  -0.458   0.383
    1UNL    C43   61  -0.295  -0.383   0.141
    1UNL    O19   62  -0.415  -0.320   0.163
    1UNL    C44   63  -0.205  -0.308   0.033
    1UNL    O20   64  -0.268  -0.195  -0.007
    1UNL     H1   65  -0.994   0.050   0.231
    1UNL     H2   66  -1.129   0.003   0.132
    1UNL     H3   67  -1.045   0.163   0.104
    1UNL     H4   68  -0.915  -0.073  -0.157
    1UNL     H5   69  -1.204  -0.023  -0.101
    1UNL     H6   70  -1.133  -0.054  -0.257
    1UNL     H7   71  -1.146   0.200  -0.120
    1UNL     H8   72  -0.819  -0.060   0.189
    1UNL     H9   73  -0.769  -0.138   0.029
    1UNL    H10   74  -0.659   0.051  -0.069
    1UNL    H11   75  -0.734   0.152   0.055
    1UNL    H12   76  -0.574  -0.070   0.182
    1UNL    H13   77  -0.551   0.232  -0.030
    1UNL    H14   78  -0.388   0.288   0.054
    1UNL    H15   79  -0.383   0.170  -0.081
    1UNL    H16   80  -0.131   0.036   0.286
    1UNL    H17   81  -0.032   0.274   0.260
    1UNL    H18   82  -0.183   0.261   0.065
    1UNL    H19   83  -0.085   0.467   0.195
    1UNL    H20   84  -0.224   0.538  -0.038
    1UNL    H21   85   0.015   0.647   0.004
    1UNL    H22   86   0.107   0.577   0.244
    1UNL    H23   87   0.237   0.583   0.121
    1UNL    H24   88   0.158   0.433   0.169
    1UNL    H25   89  -0.070   0.534  -0.202
    1UNL    H26   90   0.209   0.373  -0.187
    1UNL    H27   91   0.183   0.260  -0.325
    1UNL    H28   92   0.236   0.556  -0.390
    1UNL    H29   93   0.472   0.610  -0.465
    1UNL    H30   94   0.421   0.524  -0.606
    1UNL    H31   95   0.573   0.469  -0.527
    1UNL    H32   96   0.349   0.212  -0.415
    1UNL    H33   97   0.496   0.244  -0.483
    1UNL    H34   98   0.620   0.285  -0.274
    1UNL    H35   99   0.475   0.299  -0.183
    1UNL    H36  100   0.445   0.043  -0.254
    1UNL    H37  101   0.821   0.152  -0.256
    1UNL    H38  102   0.835   0.046  -0.103
    1UNL    H39  103   0.749   0.200  -0.108
    1UNL    H40  104   0.739  -0.155  -0.177
    1UNL    H41  105   0.571  -0.153  -0.232
    1UNL    H42  106   0.595  -0.265   0.119
    1UNL    H43  107   0.678  -0.453   0.116
    1UNL    H44  108   0.770  -0.592  -0.152
    1UNL    H45  109   0.872  -0.551  -0.013
    1UNL    H46  110   0.763  -0.686  -0.014
    1UNL    H47  111   0.495  -0.570  -0.103
    1UNL    H48  112   0.404  -0.676   0.081
    1UNL    H49  113   0.413  -0.420   0.151
    1UNL    H50  114   0.213  -0.447   0.045
    1UNL    H51  115   0.450  -0.319  -0.140
    1UNL    H52  116   0.381  -0.116   0.005
    1UNL    H53  117  -0.197   0.331  -0.162
    1UNL    H54  118  -0.035   0.218  -0.290
    1UNL    H55  119   0.292   0.068   0.165
    1UNL    H56  120   0.279  -0.042   0.386
    1UNL    H57  121   0.140  -0.125   0.337
    1UNL    H58  122   0.296  -0.165   0.266
    1UNL    H59  123   0.149  -0.139   0.079
    1UNL    H60  124   0.085   0.093  -0.056
    1UNL    H61  125  -0.099  -0.045   0.019
    1UNL    H62  126  -0.008  -0.259  -0.011
    1UNL    H63  127  -0.012  -0.461   0.325
    1UNL    H64  128  -0.177  -0.668   0.218
    1UNL    H65  129   0.007  -0.677   0.198
    1UNL    H66  130  -0.099  -0.605   0.084
    1UNL    H67  131  -0.198  -0.292   0.309
    1UNL    H68  132  -0.381  -0.423   0.376
    1UNL    H69  133  -0.324  -0.482   0.109
    1UNL    H70  134  -0.390  -0.232   0.205
    1UNL    H71  135  -0.204  -0.373  -0.058
    1UNL    H72  136  -0.278  -0.137   0.071
   0.00000   0.00000   0.00000   0.00000   0.00000   0.00000   0.00000   0.00000   0.00000
Generated with MDTraj, t= 37.0
 136
    1UNL     C1    1  -1.038   0.065   0.098
    1UNL     C2    2  -0.938  -0.003   0.004
    1UNL     C3    3  -0.968  -0.044  -0.116
    1UNL     C4    4  -1.098  -0.019  -0.181
    1UNL     O1    5  -1.139   0.115  -0.206
    1UNL     C5    6  -0.810  -0.048   0.064
    1UNL     C6    7  -0.704   0.067   0.084
    1UNL     C7    8  -0.568   0.005   0.122
    1UNL     C8    9  -0.456   0.079   0.111
    1UNL     C9   10  -0.447   0.199   0.024
    1UNL    C10   11  -0.328   0.047   0.182
    1UNL     O2   12  -0.322  -0.048   0.261
    1UNL     O3   13  -0.216   0.115   0.143
    1UNL    C11   14  -0.091   0.062   0.189
    1UNL    C12   15   0.008   0.183   0.212
    1UNL     O4   16   0.035   0.263   0.089
    1UNL    C13   17  -0.079   0.326   0.033
    1UNL    C14   18  -0.091   0.468   0.082
    1UNL     O5   19  -0.215   0.531   0.040
    1UNL    C15   20   0.036   0.541   0.046
    1UNL    C16   21   0.154   0.518   0.141
    1UNL     O6   22   0.082   0.501  -0.085
    1UNL    C17   23  -0.018   0.457  -0.184
    1UNL     O7   24   0.036   0.442  -0.316
    1UNL    C18   25   0.155   0.368  -0.327
    1UNL    C19   26   0.258   0.437  -0.400
    1UNL    C20   27   0.382   0.400  -0.436
    1UNL    C21   28   0.481   0.494  -0.493
    1UNL    C22   29   0.427   0.252  -0.402
    1UNL    C23   30   0.503   0.238  -0.271
    1UNL    C24   31   0.518   0.095  -0.229
    1UNL    C25   32   0.613   0.042  -0.156
    1UNL    C26   33   0.725   0.128  -0.106
    1UNL    C27   34   0.618  -0.105  -0.127
    1UNL     O8   35   0.589  -0.129   0.009
    1UNL    C28   36   0.573  -0.269   0.017
    1UNL     O9   37   0.674  -0.343  -0.049
    1UNL    C29   38   0.665  -0.483  -0.011
    1UNL    C30   39   0.770  -0.561  -0.089
    1UNL    C31   40   0.527  -0.550  -0.035
    1UNL    O10   41   0.504  -0.684   0.018
    1UNL    C32   42   0.420  -0.457   0.027
    1UNL    O11   43   0.292  -0.511  -0.016
    1UNL    C33   44   0.433  -0.314  -0.022
    1UNL    O12   45   0.332  -0.232   0.024
    1UNL    C34   46  -0.082   0.328  -0.122
    1UNL    O13   47  -0.019   0.215  -0.182
    1UNL    O14   48   0.122   0.131   0.278
    1UNL    C35   49   0.190   0.039   0.192
    1UNL    C36   50   0.259  -0.065   0.271
    1UNL    C37   51   0.117  -0.020   0.072
    1UNL    O15   52   0.150   0.055  -0.045
    1UNL    C38   53  -0.037  -0.048   0.100
    1UNL    O16   54  -0.041  -0.179   0.151
    1UNL    C39   55  -0.068  -0.285   0.053
    1UNL    O17   56  -0.017  -0.410   0.105
    1UNL    C40   57  -0.073  -0.434   0.235
    1UNL    C41   58  -0.093  -0.585   0.246
    1UNL    C42   59  -0.199  -0.352   0.276
    1UNL    O18   60  -0.263  -0.392   0.397
    1UNL    C43   61  -0.291  -0.376   0.157
    1UNL    O19   62  -0.406  -0.301   0.178
    1UNL    C44   63  -0.218  -0.313   0.023
    1UNL    O20   64  -0.280  -0.196  -0.032
    1UNL     H1   65  -0.977   0.117   0.174
    1UNL     H2   66  -1.096  -0.014   0.141
    1UNL     H3   67  -1.096   0.138   0.038
    1UNL     H4   68  -0.894  -0.112  -0.169
    1UNL     H5   69  -1.175  -0.074  -0.125
    1UNL     H6   70  -1.093  -0.066  -0.277
    1UNL     H7   71  -1.064   0.162  -0.249
    1UNL     H8   72  -0.820  -0.090   0.175
    1UNL     H9   73  -0.772  -0.130  -0.003
    1UNL    H10   74  -0.695   0.114  -0.015
    1UNL    H11   75  -0.722   0.149   0.159
    1UNL    H12   76  -0.575  -0.083   0.180
    1UNL    H13   77  -0.541   0.207  -0.028
    1UNL    H14   78  -0.416   0.275   0.100
    1UNL    H15   79  -0.356   0.186  -0.040
    1UNL    H16   80  -0.119   0.006   0.287
    1UNL    H17   81  -0.031   0.257   0.290
    1UNL    H18   82  -0.160   0.268   0.068
    1UNL    H19   83  -0.105   0.462   0.193
    1UNL    H20   84  -0.219   0.552  -0.050
    1UNL    H21   85   0.019   0.650   0.038
    1UNL    H22   86   0.125   0.528   0.248
    1UNL    H23   87   0.246   0.573   0.114
    1UNL    H24   88   0.175   0.412   0.132
    1UNL    H25   89  -0.088   0.539  -0.189
    1UNL    H26   90   0.186   0.347  -0.225
    1UNL    H27   91   0.131   0.266  -0.379
    1UNL    H28   92   0.225   0.537  -0.426
    1UNL    H29   93   0.479   0.584  -0.426
    1UNL    H30   94   0.462   0.527  -0.598
    1UNL    H31   95   0.578   0.444  -0.491
    1UNL    H32   96   0.338   0.194  -0.397
    1UNL    H33   97   0.482   0.220  -0.487
    1UNL    H34   98   0.599   0.289  -0.279
    1UNL    H35   99   0.449   0.285  -0.182
    1UNL    H36  100   0.437   0.028  -0.250
    1UNL    H37  101   0.770   0.172  -0.199
    1UNL    H38  102   0.791   0.075  -0.039
    1UNL    H39  103   0.689   0.218  -0.054
    1UNL    H40  104   0.714  -0.143  -0.152
    1UNL    H41  105   0.544  -0.159  -0.181
    1UNL    H42  106   0.573  -0.295   0.127
    1UNL    H43  107   0.693  -0.492   0.090
    1UNL    H44  108   0.751  -0.571  -0.193
    1UNL    H45  109   0.863  -0.517  -0.065
    1UNL    H46  110   0.785  -0.671  -0.057
    1UNL    H47  111   0.519  -0.569  -0.145
    1UNL    H48  112   0.408  -0.679   0.039
    1UNL    H49  113   0.438  -0.451   0.138
    1UNL    H50  114   0.219  -0.440  -0.000
    1UNL    H51  115   0.425  -0.307  -0.130
    1UNL    H52  116   0.343  -0.138  -0.015
    1UNL    H53  117  -0.188   0.332  -0.149
    1UNL    H54  118  -0.088   0.179  -0.242
    1UNL    H55  119   0.259   0.114   0.144
    1UNL    H56  120   0.320  -0.013   0.343
    1UNL    H57  121   0.190  -0.126   0.322
    1UNL    H58  122   0.327  -0.125   0.201
    1UNL    H59  123   0.156  -0.113   0.036
    1UNL    H60  124   0.101   0.137  -0.044
    1UNL    H61  125  -0.092  -0.044   0.003
    1UNL    H62  126  -0.006  -0.268  -0.034
    1UNL    H63  127  -0.003  -0.404   0.311
    1UNL    H64  128  -0.114  -0.619   0.351
    1UNL    H65  129  -0.001  -0.637   0.213
    1UNL    H66  130  -0.176  -0.623   0.185
    1UNL    H67  131  -0.172  -0.246   0.289
    1UNL    H68  132  -0.358  -0.409   0.387
    1UNL    H69  133  -0.324  -0.480   0.158
    1UNL    H70  134  -0.384  -0.203   0.204
    1UNL    H71  135  -0.233  -0.390  -0.055
    1UNL    H72  136  -0.290  -0.120   0.035
   0.00000   0.00000   0.00000   0.00000   0.00000   0.00000   0.00000   0.00000   0.00000
Generated with MDTraj, t= 38.0
 136
    1UNL     C1    1  -1.018   0.065   0.072
    1UNL     C2    2  -0.930  -0.032   0.004
    1UNL     C3    3  -0.948  -0.077  -0.116
    1UNL     C4    4  -1.067  -0.046  -0.203
    1UNL     O1    5  -1.087   0.094  -0.192
    1UNL     C5    6  -0.802  -0.063   0.078
    1UNL     C6    7  -0.709   0.067   0.078
    1UNL     C7    8  -0.575   0.046   0.148
    1UNL     C8    9  -0.465   0.116   0.120
    1UNL     C9   10  -0.471   0.233   0.037
    1UNL    C10   11  -0.338   0.058   0.170
    1UNL     O2   12  -0.328  -0.039   0.251
    1UNL     O3   13  -0.229   0.110   0.103
    1UNL    C11   14  -0.103   0.064   0.154
    1UNL    C12   15  -0.005   0.180   0.178
    1UNL     O4   16   0.031   0.253   0.062
    1UNL    C13   17  -0.081   0.331   0.027
    1UNL    C14   18  -0.065   0.472   0.094
    1UNL     O5   19  -0.174   0.557   0.085
    1UNL    C15   20   0.061   0.543   0.039
    1UNL    C16   21   0.181   0.551   0.124
    1UNL     O6   22   0.098   0.496  -0.093
    1UNL    C17   23  -0.012   0.463  -0.182
    1UNL     O7   24   0.021   0.450  -0.321
    1UNL    C18   25   0.143   0.378  -0.332
    1UNL    C19   26   0.261   0.448  -0.382
    1UNL    C20   27   0.371   0.385  -0.417
    1UNL    C21   28   0.479   0.463  -0.490
    1UNL    C22   29   0.392   0.245  -0.382
    1UNL    C23   30   0.457   0.226  -0.247
    1UNL    C24   31   0.494   0.085  -0.221
    1UNL    C25   32   0.580   0.051  -0.128
    1UNL    C26   33   0.661   0.148  -0.045
    1UNL    C27   34   0.615  -0.090  -0.108
    1UNL     O8   35   0.567  -0.130   0.015
    1UNL    C28   36   0.560  -0.280   0.021
    1UNL     O9   37   0.664  -0.357  -0.039
    1UNL    C29   38   0.654  -0.498  -0.009
    1UNL    C30   39   0.766  -0.567  -0.099
    1UNL    C31   40   0.521  -0.555  -0.065
    1UNL    O10   41   0.519  -0.693  -0.055
    1UNL    C32   42   0.412  -0.483   0.010
    1UNL    O11   43   0.289  -0.533  -0.021
    1UNL    C33   44   0.423  -0.336  -0.022
    1UNL    O12   45   0.330  -0.257   0.042
    1UNL    C34   46  -0.079   0.340  -0.130
    1UNL    O13   47  -0.023   0.225  -0.183
    1UNL    O14   48   0.094   0.135   0.260
    1UNL    C35   49   0.185   0.046   0.189
    1UNL    C36   50   0.256  -0.040   0.292
    1UNL    C37   51   0.128  -0.033   0.068
    1UNL    O15   52   0.169   0.021  -0.058
    1UNL    C38   53  -0.030  -0.047   0.075
    1UNL    O16   54  -0.053  -0.175   0.138
    1UNL    C39   55  -0.066  -0.291   0.051
    1UNL    O17   56  -0.016  -0.414   0.109
    1UNL    C40   57  -0.042  -0.397   0.252
    1UNL    C41   58  -0.026  -0.539   0.296
    1UNL    C42   59  -0.194  -0.350   0.278
    1UNL    O18   60  -0.255  -0.421   0.386
    1UNL    C43   61  -0.280  -0.369   0.153
    1UNL    O19   62  -0.408  -0.312   0.175
    1UNL    C44   63  -0.213  -0.299   0.030
    1UNL    O20   64  -0.273  -0.173   0.006
    1UNL     H1   65  -1.008   0.166   0.034
    1UNL     H2   66  -1.002   0.069   0.182
    1UNL     H3   67  -1.125   0.047   0.059
    1UNL     H4   68  -0.867  -0.127  -0.163
    1UNL     H5   69  -1.151  -0.093  -0.152
    1UNL     H6   70  -1.063  -0.082  -0.302
    1UNL     H7   71  -0.996   0.136  -0.186
    1UNL     H8   72  -0.825  -0.084   0.190
    1UNL     H9   73  -0.738  -0.147   0.038
    1UNL    H10   74  -0.686   0.094  -0.028
    1UNL    H11   75  -0.764   0.149   0.129
    1UNL    H12   76  -0.591  -0.027   0.230
    1UNL    H13   77  -0.571   0.266   0.006
    1UNL    H14   78  -0.427   0.316   0.091
    1UNL    H15   79  -0.411   0.237  -0.056
    1UNL    H16   80  -0.139   0.014   0.253
    1UNL    H17   81  -0.062   0.254   0.246
    1UNL    H18   82  -0.172   0.295   0.065
    1UNL    H19   83  -0.062   0.450   0.203
    1UNL    H20   84  -0.183   0.579  -0.005
    1UNL    H21   85   0.031   0.648   0.019
    1UNL    H22   86   0.161   0.602   0.219
    1UNL    H23   87   0.269   0.594   0.066
    1UNL    H24   88   0.209   0.450   0.146
    1UNL    H25   89  -0.077   0.546  -0.167
    1UNL    H26   90   0.157   0.327  -0.236
    1UNL    H27   91   0.119   0.293  -0.408
    1UNL    H28   92   0.251   0.551  -0.404
    1UNL    H29   93   0.514   0.547  -0.421
    1UNL    H30   94   0.454   0.509  -0.590
    1UNL    H31   95   0.560   0.402  -0.515
    1UNL    H32   96   0.293   0.202  -0.387
    1UNL    H33   97   0.448   0.201  -0.461
    1UNL    H34   98   0.549   0.285  -0.244
    1UNL    H35   99   0.381   0.263  -0.170
    1UNL    H36  100   0.434   0.008  -0.269
    1UNL    H37  101   0.738   0.191  -0.110
    1UNL    H38  102   0.697   0.110   0.046
    1UNL    H39  103   0.605   0.241  -0.015
    1UNL    H40  104   0.719  -0.112  -0.098
    1UNL    H41  105   0.575  -0.147  -0.187
    1UNL    H42  106   0.566  -0.299   0.132
    1UNL    H43  107   0.672  -0.521   0.093
    1UNL    H44  108   0.744  -0.542  -0.201
    1UNL    H45  109   0.863  -0.539  -0.060
    1UNL    H46  110   0.760  -0.678  -0.097
    1UNL    H47  111   0.507  -0.541  -0.177
    1UNL    H48  112   0.427  -0.714  -0.032
    1UNL    H49  113   0.436  -0.496   0.117
    1UNL    H50  114   0.210  -0.479   0.014
    1UNL    H51  115   0.402  -0.315  -0.127
    1UNL    H52  116   0.317  -0.172  -0.007
    1UNL    H53  117  -0.186   0.342  -0.162
    1UNL    H54  118  -0.057   0.218  -0.275
    1UNL    H55  119   0.265   0.120   0.155
    1UNL    H56  120   0.293   0.019   0.376
    1UNL    H57  121   0.182  -0.110   0.329
    1UNL    H58  122   0.340  -0.089   0.240
    1UNL    H59  123   0.152  -0.136   0.082
    1UNL    H60  124   0.113   0.098  -0.073
    1UNL    H61  125  -0.070  -0.056  -0.030
    1UNL    H62  126  -0.017  -0.267  -0.044
    1UNL    H63  127   0.040  -0.330   0.279
    1UNL    H64  128  -0.052  -0.544   0.402
    1UNL    H65  129   0.076  -0.573   0.278
    1UNL    H66  130  -0.107  -0.598   0.236
    1UNL    H67  131  -0.199  -0.239   0.295
    1UNL    H68  132  -0.350  -0.446   0.372
    1UNL    H69  133  -0.295  -0.474   0.126
    1UNL    H70  134  -0.387  -0.216   0.196
    1UNL    H71  135  -0.223  -0.348  -0.067
    1UNL    H72  136  -0.258  -0.114   0.079
   0.00000   0.00000   0.00000   0.00000   0.00000   0.00000   0.00000   0.00000   0.00000
Generated with MDTraj, t= 39.0
 136
    1UNL     C1    1  -1.046   0.037   0.070
    1UNL     C2    2  -0.919  -0.036   0.018
    1UNL     C3    3  -0.919  -0.078  -0.106
    1UNL     C4    4  -1.041  -0.069  -0.193
    1UNL     O1    5  -1.056   0.065  -0.241
    1UNL     C5    6  -0.808  -0.058   0.106
    1UNL     C6    7  -0.720   0.066   0.088
    1UNL     C7    8  -0.570   0.038   0.114
    1UNL     C8    9  -0.468   0.124   0.105
    1UNL     C9   10  -0.478   0.257   0.057
    1UNL    C10   11  -0.334   0.074   0.146
    1UNL     O2   12  -0.337  -0.023   0.223
    1UNL     O3   13  -0.224   0.131   0.106
    1UNL    C11   14  -0.108   0.075   0.172
    1UNL    C12   15  -0.007   0.193   0.185
    1UNL     O4   16   0.037   0.260   0.060
    1UNL    C13   17  -0.071   0.356   0.032
    1UNL    C14   18  -0.033   0.498   0.096
    1UNL     O5   19  -0.142   0.578   0.111
    1UNL    C15   20   0.087   0.567   0.021
    1UNL    C16   21   0.217   0.558   0.102
    1UNL     O6   22   0.104   0.513  -0.115
    1UNL    C17   23  -0.013   0.484  -0.196
    1UNL     O7   24   0.024   0.451  -0.335
    1UNL    C18   25   0.132   0.361  -0.357
    1UNL    C19   26   0.250   0.436  -0.404
    1UNL    C20   27   0.373   0.384  -0.409
    1UNL    C21   28   0.489   0.463  -0.466
    1UNL    C22   29   0.399   0.239  -0.386
    1UNL    C23   30   0.423   0.210  -0.234
    1UNL    C24   31   0.472   0.075  -0.198
    1UNL    C25   32   0.540   0.037  -0.094
    1UNL    C26   33   0.588   0.125   0.015
    1UNL    C27   34   0.594  -0.105  -0.081
    1UNL     O8   35   0.571  -0.162   0.041
    1UNL    C28   36   0.557  -0.301   0.029
    1UNL     O9   37   0.665  -0.362  -0.042
    1UNL    C29   38   0.651  -0.506  -0.032
    1UNL    C30   39   0.771  -0.568  -0.106
    1UNL    C31   40   0.524  -0.572  -0.090
    1UNL    O10   41   0.524  -0.716  -0.088
    1UNL    C32   42   0.402  -0.497  -0.018
    1UNL    O11   43   0.270  -0.537  -0.051
    1UNL    C33   44   0.422  -0.342  -0.027
    1UNL    O12   45   0.324  -0.257   0.044
    1UNL    C34   46  -0.095   0.371  -0.125
    1UNL    O13   47  -0.058   0.248  -0.186
    1UNL    O14   48   0.102   0.148   0.261
    1UNL    C35   49   0.189   0.056   0.184
    1UNL    C36   50   0.258  -0.042   0.277
    1UNL    C37   51   0.113  -0.012   0.068
    1UNL    O15   52   0.127   0.070  -0.051
    1UNL    C38   53  -0.040  -0.041   0.093
    1UNL    O16   54  -0.061  -0.166   0.156
    1UNL    C39   55  -0.057  -0.272   0.058
    1UNL    O17   56  -0.002  -0.384   0.129
    1UNL    C40   57  -0.032  -0.398   0.269
    1UNL    C41   58   0.026  -0.529   0.320
    1UNL    C42   59  -0.188  -0.374   0.293
    1UNL    O18   60  -0.241  -0.471   0.373
    1UNL    C43   61  -0.278  -0.370   0.159
    1UNL    O19   62  -0.396  -0.303   0.178
    1UNL    C44   63  -0.203  -0.324   0.029
    1UNL    O20   64  -0.273  -0.214  -0.019
    1UNL     H1   65  -1.113   0.071  -0.003
    1UNL     H2   66  -1.021   0.124   0.140
    1UNL     H3   67  -1.110  -0.024   0.135
    1UNL     H4   68  -0.833  -0.116  -0.152
    1UNL     H5   69  -1.138  -0.098  -0.149
    1UNL     H6   70  -1.027  -0.129  -0.278
    1UNL     H7   71  -0.970   0.107  -0.264
    1UNL     H8   72  -0.827  -0.067   0.217
    1UNL     H9   73  -0.736  -0.139   0.070
    1UNL    H10   74  -0.734   0.110  -0.015
    1UNL    H11   75  -0.750   0.137   0.167
    1UNL    H12   76  -0.560  -0.048   0.174
    1UNL    H13   77  -0.547   0.309   0.128
    1UNL    H14   78  -0.380   0.304   0.050
    1UNL    H15   79  -0.527   0.259  -0.043
    1UNL    H16   80  -0.143   0.039   0.277
    1UNL    H17   81  -0.047   0.276   0.255
    1UNL    H18   82  -0.162   0.323   0.072
    1UNL    H19   83  -0.002   0.474   0.201
    1UNL    H20   84  -0.170   0.616   0.023
    1UNL    H21   85   0.065   0.675   0.017
    1UNL    H22   86   0.217   0.599   0.201
    1UNL    H23   87   0.305   0.595   0.042
    1UNL    H24   88   0.239   0.451   0.110
    1UNL    H25   89  -0.063   0.576  -0.192
    1UNL    H26   90   0.152   0.313  -0.263
    1UNL    H27   91   0.095   0.283  -0.434
    1UNL    H28   92   0.218   0.532  -0.452
    1UNL    H29   93   0.528   0.527  -0.381
    1UNL    H30   94   0.469   0.533  -0.552
    1UNL    H31   95   0.566   0.398  -0.502
    1UNL    H32   96   0.321   0.176  -0.419
    1UNL    H33   97   0.480   0.204  -0.448
    1UNL    H34   98   0.491   0.291  -0.205
    1UNL    H35   99   0.320   0.228  -0.187
    1UNL    H36  100   0.434  -0.006  -0.259
    1UNL    H37  101   0.643   0.205  -0.028
    1UNL    H38  102   0.640   0.078   0.096
    1UNL    H39  103   0.506   0.180   0.067
    1UNL    H40  104   0.700  -0.106  -0.097
    1UNL    H41  105   0.553  -0.175  -0.151
    1UNL    H42  106   0.569  -0.333   0.138
    1UNL    H43  107   0.654  -0.526   0.073
    1UNL    H44  108   0.755  -0.547  -0.212
    1UNL    H45  109   0.862  -0.529  -0.056
    1UNL    H46  110   0.766  -0.672  -0.093
    1UNL    H47  111   0.524  -0.551  -0.200
    1UNL    H48  112   0.430  -0.751  -0.092
    1UNL    H49  113   0.408  -0.527   0.087
    1UNL    H50  114   0.200  -0.484  -0.016
    1UNL    H51  115   0.408  -0.309  -0.130
    1UNL    H52  116   0.368  -0.178   0.063
    1UNL    H53  117  -0.208   0.367  -0.147
    1UNL    H54  118  -0.071   0.240  -0.284
    1UNL    H55  119   0.275   0.119   0.142
    1UNL    H56  120   0.291   0.004   0.372
    1UNL    H57  121   0.183  -0.117   0.311
    1UNL    H58  122   0.342  -0.089   0.238
    1UNL    H59  123   0.157  -0.105   0.045
    1UNL    H60  124   0.057   0.135  -0.064
    1UNL    H61  125  -0.083  -0.038  -0.012
    1UNL    H62  126  -0.007  -0.250  -0.039
    1UNL    H63  127   0.027  -0.314   0.314
    1UNL    H64  128  -0.004  -0.541   0.424
    1UNL    H65  129   0.134  -0.516   0.321
    1UNL    H66  130  -0.011  -0.617   0.255
    1UNL    H67  131  -0.207  -0.278   0.352
    1UNL    H68  132  -0.331  -0.503   0.344
    1UNL    H69  133  -0.302  -0.477   0.147
    1UNL    H70  134  -0.389  -0.209   0.198
    1UNL    H71  135  -0.200  -0.404  -0.045
    1UNL    H72  136  -0.278  -0.143   0.056
   0.00000   0.00000   0.00000   0.00000   0.00000   0.00000   0.00000   0.00000   0.00000
Generated with MDTraj, t= 40.0
 136
    1UNL     C1    1  -1.078   0.001   0.067
    1UNL     C2    2  -0.941  -0.037   0.021
    1UNL     C3    3  -0.920  -0.077  -0.105
    1UNL     C4    4  -1.032  -0.087  -0.202
    1UNL     O1    5  -1.046   0.023  -0.287
    1UNL     C5    6  -0.820  -0.039   0.112
    1UNL     C6    7  -0.713   0.063   0.067
    1UNL     C7    8  -0.569   0.036   0.119
    1UNL     C8    9  -0.465   0.121   0.115
    1UNL     C9   10  -0.471   0.262   0.061
    1UNL    C10   11  -0.336   0.075   0.150
    1UNL     O2   12  -0.325  -0.044   0.181
    1UNL     O3   13  -0.237   0.170   0.129
    1UNL    C11   14  -0.106   0.116   0.167
    1UNL    C12   15   0.005   0.222   0.189
    1UNL     O4   16   0.036   0.287   0.067
    1UNL    C13   17  -0.058   0.392   0.045
    1UNL    C14   18  -0.007   0.542   0.082
    1UNL     O5   19  -0.104   0.639   0.059
    1UNL    C15   20   0.119   0.576  -0.005
    1UNL    C16   21   0.249   0.563   0.073
    1UNL     O6   22   0.124   0.503  -0.126
    1UNL    C17   23  -0.008   0.488  -0.191
    1UNL     O7   24  -0.004   0.434  -0.325
    1UNL    C18   25   0.116   0.363  -0.340
    1UNL    C19   26   0.242   0.437  -0.367
    1UNL    C20   27   0.363   0.379  -0.391
    1UNL    C21   28   0.483   0.467  -0.422
    1UNL    C22   29   0.377   0.230  -0.360
    1UNL    C23   30   0.410   0.201  -0.212
    1UNL    C24   31   0.463   0.066  -0.191
    1UNL    C25   32   0.512   0.025  -0.077
    1UNL    C26   33   0.517   0.110   0.045
    1UNL    C27   34   0.583  -0.101  -0.067
    1UNL     O8   35   0.566  -0.173   0.054
    1UNL    C28   36   0.552  -0.310   0.036
    1UNL     O9   37   0.655  -0.385  -0.039
    1UNL    C29   38   0.650  -0.531  -0.049
    1UNL    C30   39   0.770  -0.577  -0.128
    1UNL    C31   40   0.511  -0.578  -0.105
    1UNL    O10   41   0.492  -0.715  -0.090
    1UNL    C32   42   0.396  -0.502  -0.023
    1UNL    O11   43   0.267  -0.541  -0.075
    1UNL    C33   44   0.425  -0.352  -0.039
    1UNL    O12   45   0.317  -0.289   0.032
    1UNL    C34   46  -0.099   0.388  -0.109
    1UNL    O13   47  -0.076   0.252  -0.154
    1UNL    O14   48   0.121   0.160   0.253
    1UNL    C35   49   0.183   0.060   0.171
    1UNL    C36   50   0.243  -0.051   0.248
    1UNL    C37   51   0.095   0.004   0.050
    1UNL    O15   52   0.126   0.070  -0.079
    1UNL    C38   53  -0.053  -0.008   0.083
    1UNL    O16   54  -0.067  -0.138   0.160
    1UNL    C39   55  -0.043  -0.257   0.083
    1UNL    O17   56   0.038  -0.358   0.155
    1UNL    C40   57  -0.005  -0.397   0.286
    1UNL    C41   58   0.044  -0.541   0.301
    1UNL    C42   59  -0.165  -0.393   0.304
    1UNL    O18   60  -0.227  -0.497   0.378
    1UNL    C43   61  -0.246  -0.387   0.162
    1UNL    O19   62  -0.376  -0.334   0.189
    1UNL    C44   63  -0.182  -0.318   0.044
    1UNL    O20   64  -0.267  -0.222  -0.015
    1UNL     H1   65  -1.126   0.040  -0.019
    1UNL     H2   66  -1.076   0.075   0.153
    1UNL     H3   67  -1.133  -0.088   0.096
    1UNL     H4   68  -0.811  -0.096  -0.135
    1UNL     H5   69  -1.126  -0.094  -0.144
    1UNL     H6   70  -1.038  -0.168  -0.269
    1UNL     H7   71  -0.960   0.068  -0.295
    1UNL     H8   72  -0.838  -0.010   0.217
    1UNL     H9   73  -0.768  -0.142   0.108
    1UNL    H10   74  -0.702   0.070  -0.045
    1UNL    H11   75  -0.736   0.163   0.110
    1UNL    H12   76  -0.560  -0.058   0.176
    1UNL    H13   77  -0.459   0.322   0.155
    1UNL    H14   78  -0.375   0.266   0.012
    1UNL    H15   79  -0.560   0.268  -0.004
    1UNL    H16   80  -0.131   0.062   0.266
    1UNL    H17   81  -0.017   0.301   0.269
    1UNL    H18   82  -0.149   0.377   0.099
    1UNL    H19   83   0.015   0.549   0.190
    1UNL    H20   84  -0.165   0.625  -0.023
    1UNL    H21   85   0.108   0.683  -0.029
    1UNL    H22   86   0.251   0.622   0.165
    1UNL    H23   87   0.338   0.583   0.014
    1UNL    H24   88   0.261   0.455   0.105
    1UNL    H25   89  -0.050   0.586  -0.199
    1UNL    H26   90   0.123   0.306  -0.249
    1UNL    H27   91   0.099   0.291  -0.427
    1UNL    H28   92   0.225   0.538  -0.378
    1UNL    H29   93   0.496   0.530  -0.333
    1UNL    H30   94   0.469   0.538  -0.504
    1UNL    H31   95   0.577   0.412  -0.451
    1UNL    H32   96   0.288   0.186  -0.397
    1UNL    H33   97   0.453   0.188  -0.424
    1UNL    H34   98   0.487   0.270  -0.176
    1UNL    H35   99   0.315   0.213  -0.147
    1UNL    H36  100   0.445  -0.004  -0.270
    1UNL    H37  101   0.614   0.148   0.060
    1UNL    H38  102   0.482   0.049   0.130
    1UNL    H39  103   0.456   0.194   0.043
    1UNL    H40  104   0.692  -0.094  -0.076
    1UNL    H41  105   0.547  -0.160  -0.150
    1UNL    H42  106   0.549  -0.353   0.141
    1UNL    H43  107   0.656  -0.561   0.056
    1UNL    H44  108   0.747  -0.541  -0.229
    1UNL    H45  109   0.866  -0.537  -0.087
    1UNL    H46  110   0.780  -0.678  -0.137
    1UNL    H47  111   0.508  -0.545  -0.210
    1UNL    H48  112   0.400  -0.742  -0.111
    1UNL    H49  113   0.392  -0.529   0.083
    1UNL    H50  114   0.193  -0.504  -0.017
    1UNL    H51  115   0.430  -0.321  -0.144
    1UNL    H52  116   0.339  -0.191   0.028
    1UNL    H53  117  -0.206   0.415  -0.144
    1UNL    H54  118  -0.097   0.249  -0.249
    1UNL    H55  119   0.264   0.115   0.117
    1UNL    H56  120   0.311  -0.023   0.329
    1UNL    H57  121   0.166  -0.107   0.305
    1UNL    H58  122   0.300  -0.119   0.187
    1UNL    H59  123   0.132  -0.092   0.025
    1UNL    H60  124   0.071   0.154  -0.089
    1UNL    H61  125  -0.110  -0.014  -0.014
    1UNL    H62  126   0.007  -0.236  -0.015
    1UNL    H63  127   0.046  -0.333   0.366
    1UNL    H64  128   0.050  -0.568   0.407
    1UNL    H65  129   0.150  -0.553   0.269
    1UNL    H66  130  -0.023  -0.614   0.251
    1UNL    H67  131  -0.204  -0.302   0.359
    1UNL    H68  132  -0.311  -0.529   0.339
    1UNL    H69  133  -0.277  -0.490   0.131
    1UNL    H70  134  -0.364  -0.233   0.195
    1UNL    H71  135  -0.167  -0.400  -0.026
    1UNL    H72  136  -0.278  -0.160   0.056
   0.00000   0.00000   0.00000   0.00000   0.00000   0.00000   0.00000   0.00000   0.00000
Generated with MDTraj, t= 41.0
 136
    1UNL     C1    1  -1.059  -0.002   0.059
    1UNL     C2    2  -0.927  -0.045   0.009
    1UNL     C3    3  -0.914  -0.098  -0.114
    1UNL     C4    4  -1.026  -0.118  -0.207
    1UNL     O1    5  -1.045  -0.005  -0.289
    1UNL     C5    6  -0.806  -0.039   0.097
    1UNL     C6    7  -0.713   0.078   0.054
    1UNL     C7    8  -0.570   0.051   0.102
    1UNL     C8    9  -0.464   0.135   0.093
    1UNL     C9   10  -0.458   0.275   0.031
    1UNL    C10   11  -0.336   0.083   0.153
    1UNL     O2   12  -0.328  -0.029   0.208
    1UNL     O3   13  -0.231   0.168   0.119
    1UNL    C11   14  -0.110   0.118   0.182
    1UNL    C12   15  -0.007   0.234   0.199
    1UNL     O4   16   0.016   0.312   0.079
    1UNL    C13   17  -0.066   0.416   0.045
    1UNL    C14   18   0.004   0.551   0.080
    1UNL     O5   19  -0.080   0.662   0.076
    1UNL    C15   20   0.125   0.562  -0.020
    1UNL    C16   21   0.251   0.523   0.056
    1UNL     O6   22   0.120   0.493  -0.146
    1UNL    C17   23  -0.011   0.484  -0.198
    1UNL     O7   24  -0.011   0.421  -0.327
    1UNL    C18   25   0.099   0.340  -0.357
    1UNL    C19   26   0.221   0.416  -0.379
    1UNL    C20   27   0.343   0.367  -0.361
    1UNL    C21   28   0.453   0.466  -0.355
    1UNL    C22   29   0.389   0.227  -0.336
    1UNL    C23   30   0.400   0.197  -0.188
    1UNL    C24   31   0.471   0.065  -0.172
    1UNL    C25   32   0.536   0.017  -0.068
    1UNL    C26   33   0.542   0.095   0.066
    1UNL    C27   34   0.591  -0.126  -0.075
    1UNL     O8   35   0.555  -0.200   0.043
    1UNL    C28   36   0.542  -0.332   0.030
    1UNL     O9   37   0.655  -0.388  -0.047
    1UNL    C29   38   0.636  -0.529  -0.060
    1UNL    C30   39   0.744  -0.596  -0.131
    1UNL    C31   40   0.496  -0.580  -0.113
    1UNL    O10   41   0.477  -0.719  -0.096
    1UNL    C32   42   0.387  -0.513  -0.030
    1UNL    O11   43   0.260  -0.549  -0.066
    1UNL    C33   44   0.407  -0.366  -0.040
    1UNL    O12   45   0.287  -0.286   0.001
    1UNL    C34   46  -0.114   0.412  -0.102
    1UNL    O13   47  -0.127   0.279  -0.148
    1UNL    O14   48   0.110   0.176   0.261
    1UNL    C35   49   0.174   0.073   0.182
    1UNL    C36   50   0.225  -0.053   0.256
    1UNL    C37   51   0.093   0.022   0.066
    1UNL    O15   52   0.105   0.100  -0.050
    1UNL    C38   53  -0.051   0.005   0.097
    1UNL    O16   54  -0.055  -0.127   0.162
    1UNL    C39   55  -0.025  -0.243   0.080
    1UNL    O17   56   0.061  -0.344   0.137
    1UNL    C40   57   0.016  -0.406   0.261
    1UNL    C41   58   0.053  -0.560   0.257
    1UNL    C42   59  -0.128  -0.368   0.297
    1UNL    O18   60  -0.188  -0.448   0.399
    1UNL    C43   61  -0.218  -0.389   0.172
    1UNL    O19   62  -0.352  -0.343   0.197
    1UNL    C44   63  -0.158  -0.314   0.047
    1UNL    O20   64  -0.258  -0.227  -0.009
    1UNL     H1   65  -1.072   0.106   0.044
    1UNL     H2   66  -1.070  -0.027   0.165
    1UNL     H3   67  -1.146  -0.043   0.009
    1UNL     H4   68  -0.822  -0.128  -0.143
    1UNL     H5   69  -1.127  -0.137  -0.161
    1UNL     H6   70  -0.998  -0.206  -0.262
    1UNL     H7   71  -0.955   0.032  -0.303
    1UNL     H8   72  -0.840  -0.027   0.199
    1UNL     H9   73  -0.750  -0.141   0.091
    1UNL    H10   74  -0.695   0.076  -0.058
    1UNL    H11   75  -0.736   0.180   0.087
    1UNL    H12   76  -0.565  -0.038   0.158
    1UNL    H13   77  -0.453   0.342   0.119
    1UNL    H14   78  -0.354   0.275  -0.001
    1UNL    H15   79  -0.533   0.282  -0.048
    1UNL    H16   80  -0.143   0.072   0.281
    1UNL    H17   81  -0.052   0.302   0.275
    1UNL    H18   82  -0.156   0.413   0.107
    1UNL    H19   83   0.043   0.532   0.180
    1UNL    H20   84  -0.124   0.665  -0.018
    1UNL    H21   85   0.128   0.668  -0.049
    1UNL    H22   86   0.258   0.580   0.153
    1UNL    H23   87   0.339   0.530  -0.001
    1UNL    H24   88   0.241   0.414   0.084
    1UNL    H25   89  -0.058   0.580  -0.204
    1UNL    H26   90   0.111   0.262  -0.286
    1UNL    H27   91   0.068   0.295  -0.456
    1UNL    H28   92   0.209   0.525  -0.401
    1UNL    H29   93   0.427   0.529  -0.272
    1UNL    H30   94   0.460   0.528  -0.445
    1UNL    H31   95   0.560   0.420  -0.343
    1UNL    H32   96   0.327   0.160  -0.388
    1UNL    H33   97   0.482   0.225  -0.392
    1UNL    H34   98   0.455   0.274  -0.132
    1UNL    H35   99   0.301   0.188  -0.132
    1UNL    H36  100   0.448  -0.012  -0.246
    1UNL    H37  101   0.641   0.124   0.091
    1UNL    H38  102   0.492   0.035   0.138
    1UNL    H39  103   0.488   0.183   0.061
    1UNL    H40  104   0.702  -0.121  -0.080
    1UNL    H41  105   0.557  -0.184  -0.163
    1UNL    H42  106   0.541  -0.381   0.129
    1UNL    H43  107   0.633  -0.559   0.049
    1UNL    H44  108   0.741  -0.563  -0.234
    1UNL    H45  109   0.844  -0.570  -0.097
    1UNL    H46  110   0.749  -0.702  -0.141
    1UNL    H47  111   0.482  -0.555  -0.218
    1UNL    H48  112   0.382  -0.735  -0.109
    1UNL    H49  113   0.390  -0.541   0.075
    1UNL    H50  114   0.196  -0.487  -0.019
    1UNL    H51  115   0.429  -0.346  -0.146
    1UNL    H52  116   0.310  -0.188  -0.015
    1UNL    H53  117  -0.214   0.462  -0.112
    1UNL    H54  118  -0.124   0.281  -0.247
    1UNL    H55  119   0.263   0.128   0.141
    1UNL    H56  120   0.276  -0.031   0.349
    1UNL    H57  121   0.138  -0.107   0.293
    1UNL    H58  122   0.293  -0.116   0.190
    1UNL    H59  123   0.134  -0.074   0.046
    1UNL    H60  124   0.033   0.169  -0.050
    1UNL    H61  125  -0.114  -0.010   0.006
    1UNL    H62  126   0.009  -0.213  -0.022
    1UNL    H63  127   0.076  -0.358   0.347
    1UNL    H64  128  -0.000  -0.622   0.334
    1UNL    H65  129   0.156  -0.587   0.297
    1UNL    H66  130   0.031  -0.609   0.164
    1UNL    H67  131  -0.127  -0.261   0.325
    1UNL    H68  132  -0.276  -0.479   0.374
    1UNL    H69  133  -0.215  -0.498   0.144
    1UNL    H70  134  -0.356  -0.243   0.203
    1UNL    H71  135  -0.138  -0.392  -0.027
    1UNL    H72  136  -0.296  -0.157   0.054
   0.00000   0.00000   0.00000   0.00000   0.00000   0.00000   0.00000   0.00000   0.00000
Generated with MDTraj, t= 42.0
 136
    1UNL     C1    1  -1.031   0.025   0.015
    1UNL     C2    2  -0.915  -0.059  -0.008
    1UNL     C3    3  -0.906  -0.126  -0.123
    1UNL     C4    4  -1.016  -0.145  -0.217
    1UNL     O1    5  -1.062  -0.018  -0.259
    1UNL     C5    6  -0.799  -0.057   0.078
    1UNL     C6    7  -0.705   0.059   0.040
    1UNL     C7    8  -0.572   0.039   0.109
    1UNL     C8    9  -0.469   0.119   0.071
    1UNL     C9   10  -0.473   0.233  -0.016
    1UNL    C10   11  -0.340   0.087   0.139
    1UNL     O2   12  -0.332  -0.019   0.201
    1UNL     O3   13  -0.228   0.156   0.112
    1UNL    C11   14  -0.106   0.108   0.184
    1UNL    C12   15  -0.009   0.239   0.204
    1UNL     O4   16   0.012   0.300   0.077
    1UNL    C13   17  -0.077   0.407   0.052
    1UNL    C14   18   0.006   0.533   0.090
    1UNL     O5   19  -0.077   0.647   0.082
    1UNL    C15   20   0.129   0.531  -0.006
    1UNL    C16   21   0.261   0.482   0.060
    1UNL     O6   22   0.104   0.458  -0.127
    1UNL    C17   23  -0.028   0.467  -0.180
    1UNL     O7   24  -0.035   0.415  -0.309
    1UNL    C18   25   0.078   0.337  -0.341
    1UNL    C19   26   0.205   0.421  -0.351
    1UNL    C20   27   0.332   0.380  -0.335
    1UNL    C21   28   0.449   0.477  -0.341
    1UNL    C22   29   0.364   0.240  -0.307
    1UNL    C23   30   0.408   0.191  -0.168
    1UNL    C24   31   0.457   0.050  -0.164
    1UNL    C25   32   0.543   0.014  -0.071
    1UNL    C26   33   0.593   0.110   0.034
    1UNL    C27   34   0.593  -0.131  -0.060
    1UNL     O8   35   0.564  -0.201   0.057
    1UNL    C28   36   0.544  -0.342   0.027
    1UNL     O9   37   0.639  -0.414  -0.060
    1UNL    C29   38   0.619  -0.553  -0.067
    1UNL    C30   39   0.725  -0.643  -0.143
    1UNL    C31   40   0.472  -0.588  -0.106
    1UNL    O10   41   0.461  -0.726  -0.093
    1UNL    C32   42   0.361  -0.512  -0.032
    1UNL    O11   43   0.229  -0.534  -0.084
    1UNL    C33   44   0.408  -0.370  -0.030
    1UNL    O12   45   0.314  -0.281   0.011
    1UNL    C34   46  -0.133   0.402  -0.094
    1UNL    O13   47  -0.144   0.265  -0.132
    1UNL    O14   48   0.118   0.209   0.261
    1UNL    C35   49   0.191   0.105   0.186
    1UNL    C36   50   0.227  -0.019   0.279
    1UNL    C37   51   0.118   0.050   0.060
    1UNL    O15   52   0.127   0.128  -0.063
    1UNL    C38   53  -0.036   0.007   0.091
    1UNL    O16   54  -0.039  -0.117   0.155
    1UNL    C39   55  -0.028  -0.232   0.061
    1UNL    O17   56   0.067  -0.332   0.097
    1UNL    C40   57   0.031  -0.389   0.231
    1UNL    C41   58   0.022  -0.544   0.220
    1UNL    C42   59  -0.098  -0.334   0.299
    1UNL    O18   60  -0.133  -0.401   0.419
    1UNL    C43   61  -0.218  -0.347   0.196
    1UNL    O19   62  -0.346  -0.292   0.226
    1UNL    C44   63  -0.169  -0.296   0.056
    1UNL    O20   64  -0.255  -0.210  -0.019
    1UNL     H1   65  -0.992   0.126   0.046
    1UNL     H2   66  -1.091  -0.018   0.090
    1UNL     H3   67  -1.093   0.052  -0.073
    1UNL     H4   68  -0.810  -0.184  -0.144
    1UNL     H5   69  -1.094  -0.205  -0.161
    1UNL     H6   70  -0.980  -0.203  -0.305
    1UNL     H7   71  -0.989   0.032  -0.304
    1UNL     H8   72  -0.831  -0.058   0.182
    1UNL     H9   73  -0.735  -0.154   0.073
    1UNL    H10   74  -0.677   0.060  -0.071
    1UNL    H11   75  -0.746   0.155   0.074
    1UNL    H12   76  -0.578  -0.045   0.182
    1UNL    H13   77  -0.531   0.312   0.030
    1UNL    H14   78  -0.374   0.276  -0.023
    1UNL    H15   79  -0.511   0.204  -0.113
    1UNL    H16   80  -0.126   0.073   0.286
    1UNL    H17   81  -0.053   0.311   0.274
    1UNL    H18   82  -0.170   0.400   0.114
    1UNL    H19   83   0.043   0.518   0.191
    1UNL    H20   84  -0.115   0.661  -0.011
    1UNL    H21   85   0.122   0.634  -0.042
    1UNL    H22   86   0.291   0.544   0.149
    1UNL    H23   87   0.336   0.489  -0.017
    1UNL    H24   88   0.254   0.376   0.087
    1UNL    H25   89  -0.052   0.573  -0.191
    1UNL    H26   90   0.084   0.258  -0.272
    1UNL    H27   91   0.062   0.294  -0.442
    1UNL    H28   92   0.186   0.524  -0.370
    1UNL    H29   93   0.426   0.556  -0.271
    1UNL    H30   94   0.469   0.522  -0.440
    1UNL    H31   95   0.545   0.424  -0.310
    1UNL    H32   96   0.278   0.181  -0.323
    1UNL    H33   97   0.432   0.200  -0.381
    1UNL    H34   98   0.485   0.262  -0.128
    1UNL    H35   99   0.323   0.210  -0.097
    1UNL    H36  100   0.406  -0.025  -0.219
    1UNL    H37  101   0.639   0.196  -0.003
    1UNL    H38  102   0.655   0.060   0.096
    1UNL    H39  103   0.517   0.140   0.104
    1UNL    H40  104   0.705  -0.137  -0.069
    1UNL    H41  105   0.546  -0.181  -0.147
    1UNL    H42  106   0.551  -0.398   0.120
    1UNL    H43  107   0.624  -0.588   0.042
    1UNL    H44  108   0.734  -0.623  -0.247
    1UNL    H45  109   0.824  -0.632  -0.108
    1UNL    H46  110   0.709  -0.753  -0.139
    1UNL    H47  111   0.473  -0.572  -0.212
    1UNL    H48  112   0.376  -0.755  -0.131
    1UNL    H49  113   0.358  -0.553   0.070
    1UNL    H50  114   0.174  -0.473  -0.037
    1UNL    H51  115   0.425  -0.354  -0.139
    1UNL    H52  116   0.356  -0.198   0.013
    1UNL    H53  117  -0.231   0.446  -0.105
    1UNL    H54  118  -0.156   0.254  -0.228
    1UNL    H55  119   0.280   0.164   0.158
    1UNL    H56  120   0.268   0.016   0.373
    1UNL    H57  121   0.132  -0.055   0.313
    1UNL    H58  122   0.290  -0.098   0.227
    1UNL    H59  123   0.177  -0.035   0.033
    1UNL    H60  124   0.069   0.205  -0.065
    1UNL    H61  125  -0.090   0.010  -0.004
    1UNL    H62  126   0.004  -0.195  -0.038
    1UNL    H63  127   0.114  -0.356   0.302
    1UNL    H64  128   0.024  -0.593   0.321
    1UNL    H65  129   0.113  -0.596   0.176
    1UNL    H66  130  -0.065  -0.573   0.168
    1UNL    H67  131  -0.082  -0.226   0.310
    1UNL    H68  132  -0.230  -0.416   0.422
    1UNL    H69  133  -0.228  -0.455   0.180
    1UNL    H70  134  -0.331  -0.197   0.224
    1UNL    H71  135  -0.160  -0.389  -0.006
    1UNL    H72  136  -0.268  -0.133   0.035
   0.00000   0.00000   0.00000   0.00000   0.00000   0.00000   0.00000   0.00000   0.00000
Generated with MDTraj, t= 43.0
 136
    1UNL     C1    1  -1.026   0.031   0.005
    1UNL     C2    2  -0.919  -0.065  -0.028
    1UNL     C3    3  -0.920  -0.148  -0.136
    1UNL     C4    4  -1.039  -0.160  -0.219
    1UNL     O1    5  -1.079  -0.042  -0.285
    1UNL     C5    6  -0.789  -0.075   0.055
    1UNL     C6    7  -0.687   0.033   0.017
    1UNL     C7    8  -0.562   0.032   0.111
    1UNL     C8    9  -0.447   0.096   0.075
    1UNL     C9   10  -0.432   0.170  -0.052
    1UNL    C10   11  -0.329   0.083   0.161
    1UNL     O2   12  -0.319   0.004   0.251
    1UNL     O3   13  -0.221   0.159   0.116
    1UNL    C11   14  -0.098   0.120   0.180
    1UNL    C12   15  -0.006   0.236   0.219
    1UNL     O4   16   0.020   0.313   0.098
    1UNL    C13   17  -0.077   0.411   0.064
    1UNL    C14   18  -0.021   0.558   0.098
    1UNL     O5   19  -0.108   0.665   0.052
    1UNL    C15   20   0.121   0.554   0.017
    1UNL    C16   21   0.226   0.494   0.110
    1UNL     O6   22   0.114   0.485  -0.110
    1UNL    C17   23  -0.020   0.474  -0.174
    1UNL     O7   24  -0.024   0.430  -0.314
    1UNL    C18   25   0.079   0.335  -0.337
    1UNL    C19   26   0.205   0.403  -0.361
    1UNL    C20   27   0.328   0.360  -0.327
    1UNL    C21   28   0.445   0.447  -0.339
    1UNL    C22   29   0.353   0.216  -0.298
    1UNL    C23   30   0.413   0.201  -0.160
    1UNL    C24   31   0.459   0.059  -0.143
    1UNL    C25   32   0.561   0.003  -0.084
    1UNL    C26   33   0.641   0.084   0.006
    1UNL    C27   34   0.604  -0.141  -0.102
    1UNL     O8   35   0.594  -0.203   0.025
    1UNL    C28   36   0.557  -0.344   0.017
    1UNL     O9   37   0.649  -0.421  -0.064
    1UNL    C29   38   0.601  -0.558  -0.065
    1UNL    C30   39   0.705  -0.648  -0.141
    1UNL    C31   40   0.445  -0.585  -0.102
    1UNL    O10   41   0.398  -0.718  -0.089
    1UNL    C32   42   0.349  -0.492  -0.022
    1UNL    O11   43   0.216  -0.511  -0.070
    1UNL    C33   44   0.409  -0.347  -0.020
    1UNL    O12   45   0.326  -0.252   0.048
    1UNL    C34   46  -0.124   0.402  -0.086
    1UNL    O13   47  -0.130   0.269  -0.134
    1UNL    O14   48   0.110   0.169   0.274
    1UNL    C35   49   0.194   0.097   0.178
    1UNL    C36   50   0.261  -0.013   0.256
    1UNL    C37   51   0.122   0.033   0.055
    1UNL    O15   52   0.138   0.124  -0.053
    1UNL    C38   53  -0.034   0.014   0.077
    1UNL    O16   54  -0.060  -0.118   0.133
    1UNL    C39   55  -0.052  -0.235   0.046
    1UNL    O17   56   0.037  -0.338   0.073
    1UNL    C40   57   0.032  -0.383   0.208
    1UNL    C41   58   0.040  -0.537   0.199
    1UNL    C42   59  -0.092  -0.326   0.286
    1UNL    O18   60  -0.109  -0.385   0.412
    1UNL    C43   61  -0.221  -0.344   0.201
    1UNL    O19   62  -0.326  -0.282   0.270
    1UNL    C44   63  -0.196  -0.288   0.056
    1UNL    O20   64  -0.278  -0.182   0.021
    1UNL     H1   65  -1.011   0.069   0.110
    1UNL     H2   66  -1.118  -0.019  -0.008
    1UNL     H3   67  -1.018   0.117  -0.062
    1UNL     H4   68  -0.833  -0.209  -0.152
    1UNL     H5   69  -1.132  -0.185  -0.158
    1UNL     H6   70  -1.024  -0.236  -0.302
    1UNL     H7   71  -1.006   0.011  -0.326
    1UNL     H8   72  -0.788  -0.071   0.165
    1UNL     H9   73  -0.742  -0.176   0.044
    1UNL    H10   74  -0.665   0.016  -0.093
    1UNL    H11   75  -0.744   0.125   0.037
    1UNL    H12   76  -0.592  -0.021   0.198
    1UNL    H13   77  -0.512   0.238  -0.073
    1UNL    H14   78  -0.345   0.236  -0.050
    1UNL    H15   79  -0.426   0.101  -0.134
    1UNL    H16   80  -0.115   0.059   0.267
    1UNL    H17   81  -0.046   0.303   0.294
    1UNL    H18   82  -0.170   0.394   0.128
    1UNL    H19   83   0.016   0.570   0.201
    1UNL    H20   84  -0.109   0.669  -0.045
    1UNL    H21   85   0.138   0.660  -0.006
    1UNL    H22   86   0.241   0.551   0.203
    1UNL    H23   87   0.321   0.492   0.048
    1UNL    H24   88   0.204   0.391   0.132
    1UNL    H25   89  -0.042   0.582  -0.188
    1UNL    H26   90   0.091   0.276  -0.251
    1UNL    H27   91   0.053   0.271  -0.422
    1UNL    H28   92   0.191   0.500  -0.407
    1UNL    H29   93   0.437   0.529  -0.264
    1UNL    H30   94   0.456   0.498  -0.439
    1UNL    H31   95   0.537   0.395  -0.323
    1UNL    H32   96   0.262   0.160  -0.310
    1UNL    H33   97   0.423   0.173  -0.367
    1UNL    H34   98   0.492   0.280  -0.138
    1UNL    H35   99   0.342   0.223  -0.078
    1UNL    H36  100   0.394  -0.013  -0.196
    1UNL    H37  101   0.690   0.160  -0.043
    1UNL    H38  102   0.706   0.027   0.060
    1UNL    H39  103   0.579   0.128   0.083
    1UNL    H40  104   0.714  -0.131  -0.128
    1UNL    H41  105   0.551  -0.194  -0.186
    1UNL    H42  106   0.562  -0.387   0.115
    1UNL    H43  107   0.599  -0.585   0.048
    1UNL    H44  108   0.706  -0.615  -0.241
    1UNL    H45  109   0.800  -0.640  -0.100
    1UNL    H46  110   0.666  -0.753  -0.132
    1UNL    H47  111   0.430  -0.552  -0.203
    1UNL    H48  112   0.308  -0.722  -0.134
    1UNL    H49  113   0.353  -0.518   0.085
    1UNL    H50  114   0.157  -0.439  -0.025
    1UNL    H51  115   0.396  -0.316  -0.125
    1UNL    H52  116   0.368  -0.161   0.038
    1UNL    H53  117  -0.219   0.447  -0.096
    1UNL    H54  118  -0.150   0.263  -0.231
    1UNL    H55  119   0.265   0.173   0.146
    1UNL    H56  120   0.278   0.024   0.359
    1UNL    H57  121   0.185  -0.087   0.278
    1UNL    H58  122   0.355  -0.053   0.212
    1UNL    H59  123   0.170  -0.064   0.044
    1UNL    H60  124   0.085   0.202  -0.039
    1UNL    H61  125  -0.101   0.009  -0.007
    1UNL    H62  126  -0.033  -0.209  -0.058
    1UNL    H63  127   0.120  -0.337   0.258
    1UNL    H64  128   0.048  -0.576   0.304
    1UNL    H65  129   0.133  -0.574   0.154
    1UNL    H66  130  -0.049  -0.572   0.146
    1UNL    H67  131  -0.086  -0.218   0.295
    1UNL    H68  132  -0.206  -0.394   0.431
    1UNL    H69  133  -0.246  -0.451   0.194
    1UNL    H70  134  -0.327  -0.185   0.256
    1UNL    H71  135  -0.224  -0.372  -0.014
    1UNL    H72  136  -0.273  -0.120   0.097
   0.00000   0.00000   0.00000   0.00000   0.00000   0.00000   0.00000   0.00000   0.00000
Generated with MDTraj, t= 44.0
 136
    1UNL     C1    1  -1.008   0.034  -0.000
    1UNL     C2    2  -0.909  -0.081  -0.037
    1UNL     C3    3  -0.929  -0.172  -0.137
    1UNL     C4    4  -1.049  -0.175  -0.221
    1UNL     O1    5  -1.073  -0.052  -0.289
    1UNL     C5    6  -0.783  -0.093   0.043
    1UNL     C6    7  -0.673   0.012  -0.004
    1UNL     C7    8  -0.557   0.037   0.091
    1UNL     C8    9  -0.436   0.090   0.057
    1UNL     C9   10  -0.400   0.130  -0.082
    1UNL    C10   11  -0.325   0.086   0.168
    1UNL     O2   12  -0.329   0.010   0.262
    1UNL     O3   13  -0.222   0.173   0.141
    1UNL    C11   14  -0.098   0.122   0.191
    1UNL    C12   15   0.001   0.238   0.219
    1UNL     O4   16   0.033   0.318   0.104
    1UNL    C13   17  -0.074   0.400   0.062
    1UNL    C14   18  -0.035   0.551   0.102
    1UNL     O5   19  -0.135   0.649   0.071
    1UNL    C15   20   0.089   0.593   0.016
    1UNL    C16   21   0.218   0.572   0.090
    1UNL     O6   22   0.102   0.519  -0.107
    1UNL    C17   23  -0.023   0.494  -0.171
    1UNL     O7   24  -0.007   0.454  -0.303
    1UNL    C18   25   0.100   0.363  -0.299
    1UNL    C19   26   0.235   0.417  -0.318
    1UNL    C20   27   0.349   0.349  -0.338
    1UNL    C21   28   0.478   0.422  -0.368
    1UNL    C22   29   0.369   0.199  -0.314
    1UNL    C23   30   0.425   0.173  -0.175
    1UNL    C24   31   0.477   0.032  -0.160
    1UNL    C25   32   0.592  -0.003  -0.102
    1UNL    C26   33   0.688   0.102  -0.046
    1UNL    C27   34   0.649  -0.141  -0.102
    1UNL     O8   35   0.616  -0.206   0.025
    1UNL    C28   36   0.558  -0.348   0.015
    1UNL     O9   37   0.624  -0.434  -0.072
    1UNL    C29   38   0.574  -0.571  -0.064
    1UNL    C30   39   0.669  -0.659  -0.153
    1UNL    C31   40   0.430  -0.578  -0.106
    1UNL    O10   41   0.371  -0.698  -0.083
    1UNL    C32   42   0.344  -0.479  -0.012
    1UNL    O11   43   0.207  -0.482  -0.056
    1UNL    C33   44   0.412  -0.340  -0.023
    1UNL    O12   45   0.350  -0.244   0.058
    1UNL    C34   46  -0.120   0.395  -0.087
    1UNL    O13   47  -0.105   0.263  -0.137
    1UNL    O14   48   0.125   0.191   0.271
    1UNL    C35   49   0.194   0.097   0.181
    1UNL    C36   50   0.262  -0.010   0.257
    1UNL    C37   51   0.108   0.043   0.058
    1UNL    O15   52   0.124   0.130  -0.062
    1UNL    C38   53  -0.046   0.014   0.093
    1UNL    O16   54  -0.068  -0.125   0.144
    1UNL    C39   55  -0.096  -0.225   0.045
    1UNL    O17   56   0.007  -0.321   0.057
    1UNL    C40   57   0.018  -0.375   0.195
    1UNL    C41   58   0.056  -0.520   0.201
    1UNL    C42   59  -0.102  -0.341   0.291
    1UNL    O18   60  -0.107  -0.416   0.412
    1UNL    C43   61  -0.233  -0.366   0.209
    1UNL    O19   62  -0.332  -0.309   0.294
    1UNL    C44   63  -0.235  -0.297   0.067
    1UNL    O20   64  -0.329  -0.195   0.061
    1UNL     H1   65  -1.062   0.027   0.096
    1UNL     H2   66  -1.090   0.054  -0.069
    1UNL     H3   67  -0.960   0.131   0.017
    1UNL     H4   68  -0.855  -0.246  -0.155
    1UNL     H5   69  -1.138  -0.189  -0.147
    1UNL     H6   70  -1.058  -0.256  -0.299
    1UNL     H7   71  -0.997  -0.040  -0.349
    1UNL     H8   72  -0.811  -0.081   0.150
    1UNL     H9   73  -0.734  -0.188   0.042
    1UNL    H10   74  -0.637  -0.036  -0.100
    1UNL    H11   75  -0.724   0.108  -0.019
    1UNL    H12   76  -0.593   0.028   0.195
    1UNL    H13   77  -0.476   0.186  -0.130
    1UNL    H14   78  -0.306   0.185  -0.067
    1UNL    H15   79  -0.397   0.035  -0.133
    1UNL    H16   80  -0.110   0.070   0.282
    1UNL    H17   81  -0.050   0.295   0.293
    1UNL    H18   82  -0.160   0.365   0.131
    1UNL    H19   83  -0.004   0.532   0.206
    1UNL    H20   84  -0.194   0.669   0.141
    1UNL    H21   85   0.061   0.695  -0.018
    1UNL    H22   86   0.226   0.632   0.180
    1UNL    H23   87   0.300   0.596   0.015
    1UNL    H24   88   0.229   0.465   0.112
    1UNL    H25   89  -0.084   0.590  -0.176
    1UNL    H26   90   0.094   0.299  -0.214
    1UNL    H27   91   0.081   0.296  -0.384
    1UNL    H28   92   0.246   0.526  -0.322
    1UNL    H29   93   0.519   0.476  -0.277
    1UNL    H30   94   0.470   0.496  -0.452
    1UNL    H31   95   0.550   0.354  -0.398
    1UNL    H32   96   0.280   0.143  -0.330
    1UNL    H33   97   0.439   0.173  -0.391
    1UNL    H34   98   0.511   0.242  -0.141
    1UNL    H35   99   0.350   0.195  -0.098
    1UNL    H36  100   0.408  -0.042  -0.189
    1UNL    H37  101   0.753   0.134  -0.119
    1UNL    H38  102   0.741   0.056   0.033
    1UNL    H39  103   0.635   0.179   0.000
    1UNL    H40  104   0.761  -0.137  -0.113
    1UNL    H41  105   0.611  -0.200  -0.189
    1UNL    H42  106   0.570  -0.394   0.110
    1UNL    H43  107   0.575  -0.609   0.045
    1UNL    H44  108   0.645  -0.623  -0.249
    1UNL    H45  109   0.769  -0.635  -0.127
    1UNL    H46  110   0.641  -0.765  -0.132
    1UNL    H47  111   0.423  -0.555  -0.212
    1UNL    H48  112   0.274  -0.688  -0.104
    1UNL    H49  113   0.374  -0.522   0.087
    1UNL    H50  114   0.148  -0.404  -0.026
    1UNL    H51  115   0.406  -0.316  -0.131
    1UNL    H52  116   0.392  -0.156   0.034
    1UNL    H53  117  -0.218   0.434  -0.099
    1UNL    H54  118  -0.116   0.266  -0.235
    1UNL    H55  119   0.266   0.163   0.137
    1UNL    H56  120   0.304   0.027   0.354
    1UNL    H57  121   0.187  -0.083   0.296
    1UNL    H58  122   0.341  -0.054   0.203
    1UNL    H59  123   0.166  -0.047   0.027
    1UNL    H60  124   0.074   0.217  -0.056
    1UNL    H61  125  -0.104   0.036   0.006
    1UNL    H62  126  -0.086  -0.195  -0.059
    1UNL    H63  127   0.099  -0.318   0.240
    1UNL    H64  128   0.060  -0.563   0.303
    1UNL    H65  129   0.157  -0.529   0.166
    1UNL    H66  130  -0.012  -0.580   0.129
    1UNL    H67  131  -0.093  -0.240   0.329
    1UNL    H68  132  -0.195  -0.453   0.435
    1UNL    H69  133  -0.246  -0.475   0.205
    1UNL    H70  134  -0.324  -0.214   0.299
    1UNL    H71  135  -0.260  -0.373  -0.013
    1UNL    H72  136  -0.310  -0.126   0.127
   0.00000   0.00000   0.00000   0.00000   0.00000   0.00000   0.00000   0.00000   0.00000
Generated with MDTraj, t= 45.0
 136
    1UNL     C1    1  -0.988   0.033  -0.015
    1UNL     C2    2  -0.895  -0.078  -0.033
    1UNL     C3    3  -0.906  -0.173  -0.127
    1UNL     C4    4  -1.026  -0.187  -0.207
    1UNL     O1    5  -1.055  -0.066  -0.285
    1UNL     C5    6  -0.773  -0.084   0.052
    1UNL     C6    7  -0.665   0.005  -0.013
    1UNL     C7    8  -0.550   0.026   0.078
    1UNL     C8    9  -0.430   0.076   0.046
    1UNL     C9   10  -0.399   0.128  -0.084
    1UNL    C10   11  -0.327   0.085   0.153
    1UNL     O2   12  -0.337   0.005   0.241
    1UNL     O3   13  -0.231   0.186   0.155
    1UNL    C11   14  -0.107   0.132   0.203
    1UNL    C12   15  -0.002   0.245   0.211
    1UNL     O4   16   0.022   0.306   0.085
    1UNL    C13   17  -0.084   0.399   0.054
    1UNL    C14   18  -0.051   0.547   0.108
    1UNL     O5   19  -0.164   0.628   0.126
    1UNL    C15   20   0.062   0.613   0.020
    1UNL    C16   21   0.169   0.652   0.120
    1UNL     O6   22   0.102   0.544  -0.097
    1UNL    C17   23  -0.006   0.499  -0.171
    1UNL     O7   24   0.026   0.447  -0.299
    1UNL    C18   25   0.130   0.348  -0.292
    1UNL    C19   26   0.262   0.403  -0.333
    1UNL    C20   27   0.376   0.336  -0.354
    1UNL    C21   28   0.502   0.420  -0.370
    1UNL    C22   29   0.387   0.193  -0.328
    1UNL    C23   30   0.454   0.159  -0.188
    1UNL    C24   31   0.495   0.013  -0.177
    1UNL    C25   32   0.616  -0.024  -0.139
    1UNL    C26   33   0.709   0.074  -0.079
    1UNL    C27   34   0.642  -0.171  -0.122
    1UNL     O8   35   0.622  -0.213   0.011
    1UNL    C28   36   0.558  -0.338  -0.004
    1UNL     O9   37   0.633  -0.430  -0.076
    1UNL    C29   38   0.571  -0.558  -0.072
    1UNL    C30   39   0.650  -0.657  -0.162
    1UNL    C31   40   0.422  -0.569  -0.112
    1UNL    O10   41   0.380  -0.701  -0.086
    1UNL    C32   42   0.343  -0.464  -0.031
    1UNL    O11   43   0.210  -0.444  -0.082
    1UNL    C33   44   0.410  -0.325  -0.045
    1UNL    O12   45   0.345  -0.222   0.034
    1UNL    C34   46  -0.110   0.405  -0.097
    1UNL    O13   47  -0.103   0.273  -0.156
    1UNL    O14   48   0.112   0.192   0.268
    1UNL    C35   49   0.177   0.087   0.197
    1UNL    C36   50   0.221  -0.014   0.294
    1UNL    C37   51   0.095   0.016   0.090
    1UNL    O15   52   0.119   0.062  -0.040
    1UNL    C38   53  -0.061   0.019   0.112
    1UNL    O16   54  -0.106  -0.105   0.171
    1UNL    C39   55  -0.098  -0.212   0.077
    1UNL    O17   56   0.020  -0.291   0.088
    1UNL    C40   57   0.024  -0.361   0.217
    1UNL    C41   58   0.022  -0.502   0.192
    1UNL    C42   59  -0.112  -0.347   0.312
    1UNL    O18   60  -0.107  -0.437   0.422
    1UNL    C43   61  -0.245  -0.353   0.227
    1UNL    O19   62  -0.337  -0.270   0.300
    1UNL    C44   63  -0.223  -0.306   0.081
    1UNL    O20   64  -0.333  -0.235   0.041
    1UNL     H1   65  -1.096   0.015  -0.016
    1UNL     H2   66  -0.971   0.098  -0.106
    1UNL     H3   67  -0.973   0.087   0.077
    1UNL     H4   68  -0.819  -0.249  -0.127
    1UNL     H5   69  -1.121  -0.189  -0.142
    1UNL     H6   70  -1.020  -0.284  -0.263
    1UNL     H7   71  -1.001  -0.075  -0.366
    1UNL     H8   72  -0.802  -0.040   0.150
    1UNL     H9   73  -0.751  -0.184   0.067
    1UNL    H10   74  -0.622  -0.047  -0.103
    1UNL    H11   75  -0.714   0.102  -0.029
    1UNL    H12   76  -0.576   0.010   0.179
    1UNL    H13   77  -0.483   0.170  -0.133
    1UNL    H14   78  -0.317   0.197  -0.057
    1UNL    H15   79  -0.380   0.039  -0.142
    1UNL    H16   80  -0.127   0.099   0.300
    1UNL    H17   81  -0.044   0.313   0.279
    1UNL    H18   82  -0.182   0.359   0.102
    1UNL    H19   83  -0.007   0.529   0.209
    1UNL    H20   84  -0.243   0.614   0.070
    1UNL    H21   85   0.012   0.705  -0.019
    1UNL    H22   86   0.123   0.708   0.202
    1UNL    H23   87   0.240   0.719   0.070
    1UNL    H24   88   0.226   0.566   0.163
    1UNL    H25   89  -0.070   0.591  -0.192
    1UNL    H26   90   0.132   0.322  -0.187
    1UNL    H27   91   0.106   0.253  -0.341
    1UNL    H28   92   0.264   0.506  -0.349
    1UNL    H29   93   0.544   0.448  -0.270
    1UNL    H30   94   0.485   0.513  -0.428
    1UNL    H31   95   0.574   0.362  -0.425
    1UNL    H32   96   0.289   0.146  -0.328
    1UNL    H33   97   0.443   0.142  -0.401
    1UNL    H34   98   0.546   0.226  -0.174
    1UNL    H35   99   0.393   0.189  -0.102
    1UNL    H36  100   0.423  -0.065  -0.208
    1UNL    H37  101   0.712   0.161  -0.136
    1UNL    H38  102   0.809   0.037  -0.063
    1UNL    H39  103   0.670   0.089   0.012
    1UNL    H40  104   0.748  -0.194  -0.148
    1UNL    H41  105   0.587  -0.240  -0.190
    1UNL    H42  106   0.546  -0.380   0.095
    1UNL    H43  107   0.569  -0.588   0.039
    1UNL    H44  108   0.639  -0.630  -0.264
    1UNL    H45  109   0.754  -0.667  -0.134
    1UNL    H46  110   0.602  -0.750  -0.138
    1UNL    H47  111   0.405  -0.547  -0.218
    1UNL    H48  112   0.284  -0.703  -0.081
    1UNL    H49  113   0.343  -0.484   0.080
    1UNL    H50  114   0.157  -0.390  -0.022
    1UNL    H51  115   0.394  -0.302  -0.151
    1UNL    H52  116   0.363  -0.132   0.011
    1UNL    H53  117  -0.206   0.454  -0.117
    1UNL    H54  118  -0.122   0.279  -0.253
    1UNL    H55  119   0.259   0.139   0.150
    1UNL    H56  120   0.296   0.022   0.367
    1UNL    H57  121   0.133  -0.043   0.357
    1UNL    H58  122   0.266  -0.098   0.243
    1UNL    H59  123   0.130  -0.093   0.104
    1UNL    H60  124   0.067   0.143  -0.064
    1UNL    H61  125  -0.114   0.044   0.022
    1UNL    H62  126  -0.096  -0.177  -0.026
    1UNL    H63  127   0.117  -0.334   0.261
    1UNL    H64  128   0.049  -0.562   0.281
    1UNL    H65  129   0.093  -0.532   0.115
    1UNL    H66  130  -0.083  -0.524   0.149
    1UNL    H67  131  -0.113  -0.246   0.355
    1UNL    H68  132  -0.195  -0.461   0.454
    1UNL    H69  133  -0.299  -0.448   0.224
    1UNL    H70  134  -0.310  -0.172   0.293
    1UNL    H71  135  -0.211  -0.388   0.005
    1UNL    H72  136  -0.349  -0.170   0.116
   0.00000   0.00000   0.00000   0.00000   0.00000   0.00000   0.00000   0.00000   0.00000
Generated with MDTraj, t= 46.0
 136
    1UNL     C1    1  -1.011   0.019  -0.040
    1UNL     C2    2  -0.906  -0.081  -0.036
    1UNL     C3    3  -0.914  -0.188  -0.118
    1UNL     C4    4  -1.022  -0.205  -0.215
    1UNL     O1    5  -1.030  -0.085  -0.289
    1UNL     C5    6  -0.784  -0.062   0.052
    1UNL     C6    7  -0.668   0.008  -0.018
    1UNL     C7    8  -0.558   0.035   0.081
    1UNL     C8    9  -0.447   0.103   0.055
    1UNL     C9   10  -0.413   0.167  -0.074
    1UNL    C10   11  -0.341   0.092   0.162
    1UNL     O2   12  -0.333   0.013   0.252
    1UNL     O3   13  -0.238   0.187   0.139
    1UNL    C11   14  -0.120   0.134   0.192
    1UNL    C12   15  -0.006   0.242   0.205
    1UNL     O4   16   0.023   0.314   0.076
    1UNL    C13   17  -0.084   0.399   0.040
    1UNL    C14   18  -0.063   0.539   0.104
    1UNL     O5   19  -0.181   0.596   0.139
    1UNL    C15   20   0.031   0.627   0.014
    1UNL    C16   21   0.129   0.693   0.104
    1UNL     O6   22   0.088   0.545  -0.088
    1UNL    C17   23  -0.005   0.501  -0.188
    1UNL     O7   24   0.059   0.430  -0.297
    1UNL    C18   25   0.178   0.365  -0.252
    1UNL    C19   26   0.300   0.425  -0.306
    1UNL    C20   27   0.408   0.351  -0.338
    1UNL    C21   28   0.514   0.426  -0.404
    1UNL    C22   29   0.415   0.200  -0.334
    1UNL    C23   30   0.466   0.154  -0.198
    1UNL    C24   31   0.515   0.014  -0.200
    1UNL    C25   32   0.637  -0.020  -0.157
    1UNL    C26   33   0.738   0.085  -0.118
    1UNL    C27   34   0.667  -0.163  -0.139
    1UNL     O8   35   0.617  -0.203  -0.015
    1UNL    C28   36   0.558  -0.333  -0.019
    1UNL     O9   37   0.621  -0.435  -0.098
    1UNL    C29   38   0.559  -0.566  -0.074
    1UNL    C30   39   0.627  -0.680  -0.152
    1UNL    C31   40   0.412  -0.560  -0.121
    1UNL    O10   41   0.350  -0.686  -0.114
    1UNL    C32   42   0.336  -0.451  -0.050
    1UNL    O11   43   0.193  -0.454  -0.068
    1UNL    C33   44   0.404  -0.319  -0.055
    1UNL    O12   45   0.354  -0.222   0.033
    1UNL    C34   46  -0.109   0.409  -0.114
    1UNL    O13   47  -0.113   0.280  -0.173
    1UNL    O14   48   0.113   0.189   0.272
    1UNL    C35   49   0.169   0.059   0.224
    1UNL    C36   50   0.176  -0.045   0.339
    1UNL    C37   51   0.099   0.002   0.094
    1UNL    O15   52   0.146   0.079  -0.015
    1UNL    C38   53  -0.055   0.006   0.116
    1UNL    O16   54  -0.103  -0.116   0.177
    1UNL    C39   55  -0.089  -0.232   0.089
    1UNL    O17   56   0.031  -0.296   0.130
    1UNL    C40   57   0.013  -0.392   0.235
    1UNL    C41   58   0.001  -0.529   0.185
    1UNL    C42   59  -0.106  -0.343   0.327
    1UNL    O18   60  -0.106  -0.408   0.456
    1UNL    C43   61  -0.238  -0.360   0.246
    1UNL    O19   62  -0.336  -0.277   0.306
    1UNL    C44   63  -0.218  -0.321   0.089
    1UNL    O20   64  -0.317  -0.231   0.059
    1UNL     H1   65  -1.085   0.011  -0.118
    1UNL     H2   66  -0.945   0.110  -0.063
    1UNL     H3   67  -1.057   0.017   0.057
    1UNL     H4   68  -0.834  -0.250  -0.111
    1UNL     H5   69  -1.118  -0.230  -0.159
    1UNL     H6   70  -1.000  -0.273  -0.298
    1UNL     H7   71  -0.953  -0.073  -0.350
    1UNL     H8   72  -0.817  -0.001   0.138
    1UNL     H9   73  -0.752  -0.155   0.085
    1UNL    H10   74  -0.634  -0.066  -0.097
    1UNL    H11   75  -0.701   0.105  -0.057
    1UNL    H12   76  -0.581  -0.015   0.176
    1UNL    H13   77  -0.480   0.240  -0.117
    1UNL    H14   78  -0.315   0.208  -0.064
    1UNL    H15   79  -0.420   0.089  -0.148
    1UNL    H16   80  -0.136   0.093   0.288
    1UNL    H17   81  -0.033   0.314   0.276
    1UNL    H18   82  -0.184   0.354   0.080
    1UNL    H19   83   0.000   0.535   0.197
    1UNL    H20   84  -0.257   0.567   0.077
    1UNL    H21   85  -0.029   0.710  -0.030
    1UNL    H22   86   0.089   0.762   0.182
    1UNL    H23   87   0.200   0.745   0.044
    1UNL    H24   88   0.193   0.617   0.159
    1UNL    H25   89  -0.054   0.596  -0.229
    1UNL    H26   90   0.183   0.348  -0.145
    1UNL    H27   91   0.166   0.265  -0.293
    1UNL    H28   92   0.294   0.536  -0.321
    1UNL    H29   93   0.557   0.505  -0.341
    1UNL    H30   94   0.472   0.471  -0.492
    1UNL    H31   95   0.596   0.360  -0.447
    1UNL    H32   96   0.320   0.149  -0.343
    1UNL    H33   97   0.481   0.156  -0.402
    1UNL    H34   98   0.547   0.228  -0.165
    1UNL    H35   99   0.390   0.157  -0.119
    1UNL    H36  100   0.449  -0.052  -0.252
    1UNL    H37  101   0.773   0.148  -0.194
    1UNL    H38  102   0.821   0.035  -0.075
    1UNL    H39  103   0.710   0.138  -0.033
    1UNL    H40  104   0.772  -0.192  -0.145
    1UNL    H41  105   0.616  -0.216  -0.219
    1UNL    H42  106   0.565  -0.368   0.085
    1UNL    H43  107   0.559  -0.578   0.038
    1UNL    H44  108   0.642  -0.664  -0.259
    1UNL    H45  109   0.728  -0.707  -0.121
    1UNL    H46  110   0.578  -0.769  -0.143
    1UNL    H47  111   0.418  -0.545  -0.231
    1UNL    H48  112   0.255  -0.673  -0.085
    1UNL    H49  113   0.341  -0.479   0.058
    1UNL    H50  114   0.153  -0.401  -0.000
    1UNL    H51  115   0.408  -0.288  -0.161
    1UNL    H52  116   0.405  -0.134   0.006
    1UNL    H53  117  -0.206   0.463  -0.132
    1UNL    H54  118  -0.071   0.285  -0.262
    1UNL    H55  119   0.270   0.090   0.194
    1UNL    H56  120   0.232  -0.008   0.423
    1UNL    H57  121   0.072  -0.053   0.374
    1UNL    H58  122   0.217  -0.143   0.305
    1UNL    H59  123   0.130  -0.109   0.081
    1UNL    H60  124   0.097   0.167  -0.008
    1UNL    H61  125  -0.105   0.005   0.020
    1UNL    H62  126  -0.074  -0.200  -0.016
    1UNL    H63  127   0.107  -0.393   0.286
    1UNL    H64  128  -0.031  -0.597   0.266
    1UNL    H65  129   0.098  -0.576   0.148
    1UNL    H66  130  -0.065  -0.527   0.095
    1UNL    H67  131  -0.086  -0.237   0.349
    1UNL    H68  132  -0.197  -0.433   0.482
    1UNL    H69  133  -0.255  -0.467   0.259
    1UNL    H70  134  -0.320  -0.181   0.309
    1UNL    H71  135  -0.215  -0.404   0.016
    1UNL    H72  136  -0.332  -0.163   0.131
   0.00000   0.00000   0.00000   0.00000   0.00000   0.00000   0.00000   0.00000   0.00000
Generated with MDTraj, t= 47.0
 136
    1UNL     C1    1  -1.032   0.022  -0.039
    1UNL     C2    2  -0.914  -0.069  -0.035
    1UNL     C3    3  -0.902  -0.166  -0.128
    1UNL     C4    4  -1.006  -0.217  -0.228
    1UNL     O1    5  -1.027  -0.138  -0.340
    1UNL     C5    6  -0.807  -0.051   0.064
    1UNL     C6    7  -0.692   0.033   0.008
    1UNL     C7    8  -0.567   0.015   0.093
    1UNL     C8    9  -0.458   0.094   0.070
    1UNL     C9   10  -0.447   0.192  -0.042
    1UNL    C10   11  -0.327   0.080   0.143
    1UNL     O2   12  -0.319   0.000   0.231
    1UNL     O3   13  -0.217   0.158   0.103
    1UNL    C11   14  -0.102   0.117   0.170
    1UNL    C12   15   0.003   0.240   0.185
    1UNL     O4   16   0.014   0.312   0.068
    1UNL    C13   17  -0.088   0.403   0.043
    1UNL    C14   18  -0.071   0.540   0.112
    1UNL     O5   19  -0.200   0.588   0.151
    1UNL    C15   20   0.016   0.634   0.007
    1UNL    C16   21   0.100   0.741   0.074
    1UNL     O6   22   0.095   0.559  -0.092
    1UNL    C17   23   0.010   0.487  -0.183
    1UNL     O7   24   0.081   0.400  -0.272
    1UNL    C18   25   0.208   0.364  -0.215
    1UNL    C19   26   0.323   0.422  -0.298
    1UNL    C20   27   0.439   0.373  -0.345
    1UNL    C21   28   0.531   0.457  -0.429
    1UNL    C22   29   0.459   0.225  -0.339
    1UNL    C23   30   0.477   0.177  -0.199
    1UNL    C24   31   0.515   0.030  -0.184
    1UNL    C25   32   0.639  -0.018  -0.164
    1UNL    C26   33   0.763   0.061  -0.164
    1UNL    C27   34   0.643  -0.172  -0.151
    1UNL     O8   35   0.621  -0.220  -0.017
    1UNL    C28   36   0.555  -0.338  -0.017
    1UNL     O9   37   0.614  -0.443  -0.101
    1UNL    C29   38   0.541  -0.569  -0.096
    1UNL    C30   39   0.620  -0.671  -0.172
    1UNL    C31   40   0.391  -0.550  -0.132
    1UNL    O10   41   0.316  -0.675  -0.124
    1UNL    C32   42   0.330  -0.446  -0.037
    1UNL    O11   43   0.193  -0.443  -0.080
    1UNL    C33   44   0.404  -0.314  -0.054
    1UNL    O12   45   0.362  -0.220   0.043
    1UNL    C34   46  -0.103   0.410  -0.109
    1UNL    O13   47  -0.128   0.280  -0.149
    1UNL    O14   48   0.121   0.201   0.248
    1UNL    C35   49   0.163   0.066   0.237
    1UNL    C36   50   0.121  -0.025   0.352
    1UNL    C37   51   0.113   0.007   0.095
    1UNL    O15   52   0.169   0.103   0.007
    1UNL    C38   53  -0.040  -0.010   0.093
    1UNL    O16   54  -0.076  -0.126   0.169
    1UNL    C39   55  -0.085  -0.256   0.095
    1UNL    O17   56   0.022  -0.345   0.117
    1UNL    C40   57   0.019  -0.401   0.253
    1UNL    C41   58   0.020  -0.550   0.242
    1UNL    C42   59  -0.106  -0.348   0.340
    1UNL    O18   60  -0.115  -0.419   0.463
    1UNL    C43   61  -0.242  -0.350   0.264
    1UNL    O19   62  -0.341  -0.270   0.326
    1UNL    C44   63  -0.225  -0.314   0.111
    1UNL    O20   64  -0.324  -0.225   0.073
    1UNL     H1   65  -1.045   0.080  -0.130
    1UNL     H2   66  -1.012   0.101   0.040
    1UNL     H3   67  -1.123  -0.029  -0.018
    1UNL     H4   68  -0.805  -0.223  -0.123
    1UNL     H5   69  -1.114  -0.214  -0.196
    1UNL     H6   70  -0.972  -0.314  -0.254
    1UNL     H7   71  -0.942  -0.122  -0.388
    1UNL     H8   72  -0.838  -0.007   0.157
    1UNL     H9   73  -0.766  -0.145   0.087
    1UNL    H10   74  -0.671   0.003  -0.098
    1UNL    H11   75  -0.730   0.134   0.011
    1UNL    H12   76  -0.568  -0.076   0.148
    1UNL    H13   77  -0.485   0.292  -0.032
    1UNL    H14   78  -0.348   0.208  -0.075
    1UNL    H15   79  -0.507   0.154  -0.122
    1UNL    H16   80  -0.128   0.084   0.268
    1UNL    H17   81  -0.039   0.305   0.258
    1UNL    H18   82  -0.185   0.358   0.082
    1UNL    H19   83  -0.007   0.535   0.205
    1UNL    H20   84  -0.248   0.620   0.066
    1UNL    H21   85  -0.063   0.686  -0.052
    1UNL    H22   86   0.054   0.799   0.159
    1UNL    H23   87   0.142   0.805  -0.000
    1UNL    H24   88   0.186   0.685   0.116
    1UNL    H25   89  -0.030   0.564  -0.254
    1UNL    H26   90   0.209   0.391  -0.111
    1UNL    H27   91   0.212   0.256  -0.206
    1UNL    H28   92   0.306   0.523  -0.316
    1UNL    H29   93   0.525   0.562  -0.409
    1UNL    H30   94   0.508   0.440  -0.533
    1UNL    H31   95   0.644   0.428  -0.427
    1UNL    H32   96   0.374   0.172  -0.382
    1UNL    H33   97   0.550   0.203  -0.383
    1UNL    H34   98   0.567   0.225  -0.149
    1UNL    H35   99   0.391   0.195  -0.134
    1UNL    H36  100   0.438  -0.043  -0.207
    1UNL    H37  101   0.757   0.144  -0.228
    1UNL    H38  102   0.842  -0.001  -0.185
    1UNL    H39  103   0.785   0.083  -0.060
    1UNL    H40  104   0.745  -0.196  -0.176
    1UNL    H41  105   0.583  -0.229  -0.220
    1UNL    H42  106   0.554  -0.362   0.093
    1UNL    H43  107   0.552  -0.590   0.011
    1UNL    H44  108   0.615  -0.657  -0.280
    1UNL    H45  109   0.728  -0.660  -0.154
    1UNL    H46  110   0.602  -0.772  -0.152
    1UNL    H47  111   0.380  -0.515  -0.238
    1UNL    H48  112   0.229  -0.652  -0.080
    1UNL    H49  113   0.319  -0.465   0.071
    1UNL    H50  114   0.136  -0.395  -0.018
    1UNL    H51  115   0.387  -0.279  -0.156
    1UNL    H52  116   0.407  -0.134   0.038
    1UNL    H53  117  -0.201   0.466  -0.137
    1UNL    H54  118  -0.047   0.232  -0.125
    1UNL    H55  119   0.273   0.086   0.227
    1UNL    H56  120   0.135   0.024   0.447
    1UNL    H57  121   0.016  -0.048   0.337
    1UNL    H58  122   0.181  -0.118   0.345
    1UNL    H59  123   0.162  -0.092   0.058
    1UNL    H60  124   0.153   0.190   0.043
    1UNL    H61  125  -0.081  -0.008  -0.008
    1UNL    H62  126  -0.076  -0.223  -0.010
    1UNL    H63  127   0.110  -0.377   0.308
    1UNL    H64  128   0.022  -0.608   0.339
    1UNL    H65  129   0.101  -0.595   0.174
    1UNL    H66  130  -0.068  -0.567   0.181
    1UNL    H67  131  -0.094  -0.240   0.365
    1UNL    H68  132  -0.211  -0.428   0.489
    1UNL    H69  133  -0.284  -0.452   0.269
    1UNL    H70  134  -0.310  -0.180   0.315
    1UNL    H71  135  -0.239  -0.403   0.050
    1UNL    H72  136  -0.329  -0.145   0.131
   0.00000   0.00000   0.00000   0.00000   0.00000   0.00000   0.00000   0.00000   0.00000
Generated with MDTraj, t= 48.0
 136
    1UNL     C1    1  -1.027   0.013  -0.025
    1UNL     C2    2  -0.914  -0.084  -0.029
    1UNL     C3    3  -0.896  -0.188  -0.114
    1UNL     C4    4  -0.998  -0.219  -0.225
    1UNL     O1    5  -0.981  -0.138  -0.346
    1UNL     C5    6  -0.798  -0.054   0.059
    1UNL     C6    7  -0.694   0.054   0.003
    1UNL     C7    8  -0.569   0.049   0.080
    1UNL     C8    9  -0.462   0.129   0.059
    1UNL     C9   10  -0.445   0.238  -0.044
    1UNL    C10   11  -0.338   0.087   0.136
    1UNL     O2   12  -0.337   0.009   0.224
    1UNL     O3   13  -0.224   0.141   0.091
    1UNL    C11   14  -0.114   0.105   0.171
    1UNL    C12   15  -0.015   0.231   0.186
    1UNL     O4   16   0.007   0.299   0.065
    1UNL    C13   17  -0.089   0.395   0.032
    1UNL    C14   18  -0.060   0.533   0.093
    1UNL     O5   19  -0.178   0.591   0.154
    1UNL    C15   20  -0.002   0.633  -0.014
    1UNL    C16   21   0.067   0.754   0.045
    1UNL     O6   22   0.081   0.563  -0.107
    1UNL    C17   23   0.018   0.470  -0.194
    1UNL     O7   24   0.101   0.360  -0.239
    1UNL    C18   25   0.227   0.355  -0.184
    1UNL    C19   26   0.325   0.437  -0.263
    1UNL    C20   27   0.425   0.375  -0.329
    1UNL    C21   28   0.520   0.464  -0.401
    1UNL    C22   29   0.476   0.234  -0.313
    1UNL    C23   30   0.513   0.198  -0.168
    1UNL    C24   31   0.524   0.050  -0.154
    1UNL    C25   32   0.638  -0.020  -0.181
    1UNL    C26   33   0.775   0.035  -0.218
    1UNL    C27   34   0.619  -0.168  -0.167
    1UNL     O8   35   0.609  -0.217  -0.029
    1UNL    C28   36   0.541  -0.338  -0.020
    1UNL     O9   37   0.594  -0.432  -0.120
    1UNL    C29   38   0.541  -0.561  -0.110
    1UNL    C30   39   0.613  -0.653  -0.205
    1UNL    C31   40   0.388  -0.553  -0.145
    1UNL    O10   41   0.324  -0.682  -0.125
    1UNL    C32   42   0.314  -0.450  -0.048
    1UNL    O11   43   0.178  -0.424  -0.093
    1UNL    C33   44   0.390  -0.318  -0.038
    1UNL    O12   45   0.346  -0.235   0.069
    1UNL    C34   46  -0.105   0.408  -0.123
    1UNL    O13   47  -0.137   0.281  -0.177
    1UNL    O14   48   0.106   0.195   0.251
    1UNL    C35   49   0.175   0.067   0.238
    1UNL    C36   50   0.152  -0.024   0.355
    1UNL    C37   51   0.117   0.002   0.117
    1UNL    O15   52   0.171   0.059   0.006
    1UNL    C38   53  -0.036  -0.018   0.114
    1UNL    O16   54  -0.083  -0.137   0.176
    1UNL    C39   55  -0.072  -0.258   0.096
    1UNL    O17   56   0.030  -0.343   0.128
    1UNL    C40   57   0.019  -0.389   0.265
    1UNL    C41   58   0.035  -0.540   0.269
    1UNL    C42   59  -0.102  -0.335   0.349
    1UNL    O18   60  -0.117  -0.413   0.467
    1UNL    C43   61  -0.236  -0.348   0.272
    1UNL    O19   62  -0.342  -0.262   0.321
    1UNL    C44   63  -0.217  -0.325   0.114
    1UNL    O20   64  -0.324  -0.242   0.062
    1UNL     H1   65  -1.031   0.079  -0.110
    1UNL     H2   66  -1.025   0.079   0.064
    1UNL     H3   67  -1.129  -0.028  -0.026
    1UNL     H4   68  -0.799  -0.238  -0.116
    1UNL     H5   69  -1.094  -0.205  -0.175
    1UNL     H6   70  -0.992  -0.313  -0.269
    1UNL     H7   71  -0.884  -0.140  -0.356
    1UNL     H8   72  -0.836  -0.015   0.146
    1UNL     H9   73  -0.742  -0.142   0.090
    1UNL    H10   74  -0.674   0.026  -0.103
    1UNL    H11   75  -0.728   0.156  -0.002
    1UNL    H12   76  -0.552  -0.045   0.134
    1UNL    H13   77  -0.464   0.338  -0.007
    1UNL    H14   78  -0.344   0.235  -0.075
    1UNL    H15   79  -0.517   0.212  -0.121
    1UNL    H16   80  -0.150   0.076   0.269
    1UNL    H17   81  -0.069   0.296   0.255
    1UNL    H18   82  -0.185   0.362   0.081
    1UNL    H19   83   0.010   0.512   0.178
    1UNL    H20   84  -0.224   0.653   0.091
    1UNL    H21   85  -0.092   0.664  -0.070
    1UNL    H22   86  -0.004   0.803   0.114
    1UNL    H23   87   0.099   0.820  -0.039
    1UNL    H24   88   0.153   0.720   0.103
    1UNL    H25   89  -0.017   0.521  -0.285
    1UNL    H26   90   0.223   0.382  -0.080
    1UNL    H27   91   0.250   0.248  -0.175
    1UNL    H28   92   0.315   0.547  -0.269
    1UNL    H29   93   0.497   0.570  -0.402
    1UNL    H30   94   0.529   0.422  -0.502
    1UNL    H31   95   0.625   0.448  -0.364
    1UNL    H32   96   0.398   0.163  -0.337
    1UNL    H33   97   0.560   0.220  -0.373
    1UNL    H34   98   0.608   0.247  -0.137
    1UNL    H35   99   0.444   0.231  -0.087
    1UNL    H36  100   0.437  -0.001  -0.117
    1UNL    H37  101   0.765   0.105  -0.296
    1UNL    H38  102   0.837  -0.045  -0.238
    1UNL    H39  103   0.816   0.076  -0.127
    1UNL    H40  104   0.693  -0.231  -0.211
    1UNL    H41  105   0.531  -0.180  -0.228
    1UNL    H42  106   0.569  -0.361   0.089
    1UNL    H43  107   0.563  -0.591  -0.010
    1UNL    H44  108   0.601  -0.598  -0.298
    1UNL    H45  109   0.716  -0.654  -0.179
    1UNL    H46  110   0.570  -0.753  -0.210
    1UNL    H47  111   0.365  -0.539  -0.255
    1UNL    H48  112   0.231  -0.673  -0.105
    1UNL    H49  113   0.303  -0.488   0.053
    1UNL    H50  114   0.129  -0.371  -0.023
    1UNL    H51  115   0.380  -0.272  -0.138
    1UNL    H52  116   0.379  -0.146   0.068
    1UNL    H53  117  -0.203   0.467  -0.145
    1UNL    H54  118  -0.047   0.237  -0.179
    1UNL    H55  119   0.289   0.070   0.225
    1UNL    H56  120   0.197   0.017   0.447
    1UNL    H57  121   0.045  -0.027   0.374
    1UNL    H58  122   0.188  -0.127   0.346
    1UNL    H59  123   0.147  -0.110   0.126
    1UNL    H60  124   0.131   0.152  -0.003
    1UNL    H61  125  -0.060  -0.028   0.006
    1UNL    H62  126  -0.053  -0.222  -0.007
    1UNL    H63  127   0.106  -0.343   0.318
    1UNL    H64  128   0.053  -0.574   0.377
    1UNL    H65  129   0.111  -0.588   0.200
    1UNL    H66  130  -0.057  -0.578   0.230
    1UNL    H67  131  -0.088  -0.230   0.381
    1UNL    H68  132  -0.212  -0.427   0.494
    1UNL    H69  133  -0.279  -0.449   0.286
    1UNL    H70  134  -0.320  -0.169   0.285
    1UNL    H71  135  -0.216  -0.418   0.060
    1UNL    H72  136  -0.310  -0.150   0.095
   0.00000   0.00000   0.00000   0.00000   0.00000   0.00000   0.00000   0.00000   0.00000
Generated with MDTraj, t= 49.0
 136
    1UNL     C1    1  -1.007   0.008  -0.047
    1UNL     C2    2  -0.895  -0.086  -0.033
    1UNL     C3    3  -0.887  -0.197  -0.106
    1UNL     C4    4  -0.979  -0.220  -0.225
    1UNL     O1    5  -0.958  -0.117  -0.327
    1UNL     C5    6  -0.790  -0.052   0.070
    1UNL     C6    7  -0.693   0.048   0.011
    1UNL     C7    8  -0.559   0.041   0.069
    1UNL     C8    9  -0.455   0.124   0.051
    1UNL     C9   10  -0.456   0.229  -0.056
    1UNL    C10   11  -0.334   0.093   0.127
    1UNL     O2   12  -0.328   0.002   0.204
    1UNL     O3   13  -0.219   0.175   0.104
    1UNL    C11   14  -0.112   0.130   0.178
    1UNL    C12   15  -0.005   0.247   0.193
    1UNL     O4   16   0.014   0.282   0.061
    1UNL    C13   17  -0.089   0.372   0.024
    1UNL    C14   18  -0.044   0.511   0.071
    1UNL     O5   19  -0.138   0.569   0.163
    1UNL    C15   20  -0.014   0.617  -0.041
    1UNL    C16   21   0.065   0.732   0.023
    1UNL     O6   22   0.071   0.554  -0.147
    1UNL    C17   23   0.016   0.436  -0.212
    1UNL     O7   24   0.115   0.337  -0.225
    1UNL    C18   25   0.220   0.363  -0.141
    1UNL    C19   26   0.323   0.449  -0.211
    1UNL    C20   27   0.426   0.399  -0.282
    1UNL    C21   28   0.518   0.486  -0.354
    1UNL    C22   29   0.457   0.256  -0.271
    1UNL    C23   30   0.549   0.218  -0.148
    1UNL    C24   31   0.574   0.071  -0.131
    1UNL    C25   32   0.661  -0.016  -0.185
    1UNL    C26   33   0.763   0.027  -0.283
    1UNL    C27   34   0.645  -0.162  -0.156
    1UNL     O8   35   0.579  -0.201  -0.036
    1UNL    C28   36   0.526  -0.329  -0.038
    1UNL     O9   37   0.575  -0.415  -0.143
    1UNL    C29   38   0.525  -0.551  -0.134
    1UNL    C30   39   0.592  -0.651  -0.237
    1UNL    C31   40   0.375  -0.556  -0.149
    1UNL    O10   41   0.331  -0.688  -0.164
    1UNL    C32   42   0.307  -0.475  -0.034
    1UNL    O11   43   0.166  -0.468  -0.042
    1UNL    C33   44   0.369  -0.333  -0.031
    1UNL    O12   45   0.324  -0.254   0.080
    1UNL    C34   46  -0.110   0.382  -0.130
    1UNL    O13   47  -0.164   0.276  -0.207
    1UNL    O14   48   0.113   0.208   0.259
    1UNL    C35   49   0.167   0.073   0.230
    1UNL    C36   50   0.167  -0.027   0.340
    1UNL    C37   51   0.102   0.002   0.106
    1UNL    O15   52   0.153   0.050  -0.017
    1UNL    C38   53  -0.056  -0.002   0.112
    1UNL    O16   54  -0.104  -0.116   0.180
    1UNL    C39   55  -0.079  -0.242   0.111
    1UNL    O17   56   0.041  -0.307   0.150
    1UNL    C40   57   0.016  -0.375   0.279
    1UNL    C41   58   0.029  -0.529   0.269
    1UNL    C42   59  -0.106  -0.321   0.354
    1UNL    O18   60  -0.125  -0.380   0.482
    1UNL    C43   61  -0.234  -0.359   0.270
    1UNL    O19   62  -0.346  -0.292   0.319
    1UNL    C44   63  -0.213  -0.329   0.125
    1UNL    O20   64  -0.318  -0.254   0.070
    1UNL     H1   65  -1.041   0.011  -0.150
    1UNL     H2   66  -0.980   0.106  -0.014
    1UNL     H3   67  -1.096  -0.023   0.014
    1UNL     H4   68  -0.805  -0.258  -0.091
    1UNL     H5   69  -1.086  -0.199  -0.211
    1UNL     H6   70  -0.970  -0.313  -0.270
    1UNL     H7   71  -0.865  -0.115  -0.358
    1UNL     H8   72  -0.824  -0.011   0.157
    1UNL     H9   73  -0.744  -0.147   0.090
    1UNL    H10   74  -0.668   0.025  -0.096
    1UNL    H11   75  -0.729   0.149  -0.006
    1UNL    H12   76  -0.550  -0.044   0.132
    1UNL    H13   77  -0.467   0.328  -0.015
    1UNL    H14   78  -0.355   0.226  -0.090
    1UNL    H15   79  -0.530   0.202  -0.130
    1UNL    H16   80  -0.144   0.106   0.281
    1UNL    H17   81  -0.037   0.343   0.245
    1UNL    H18   82  -0.174   0.346   0.090
    1UNL    H19   83   0.055   0.491   0.117
    1UNL    H20   84  -0.227   0.542   0.145
    1UNL    H21   85  -0.106   0.646  -0.093
    1UNL    H22   86   0.003   0.783   0.096
    1UNL    H23   87   0.105   0.804  -0.056
    1UNL    H24   88   0.149   0.697   0.080
    1UNL    H25   89  -0.004   0.471  -0.312
    1UNL    H26   90   0.177   0.415  -0.055
    1UNL    H27   91   0.262   0.273  -0.097
    1UNL    H28   92   0.299   0.552  -0.222
    1UNL    H29   93   0.469   0.581  -0.386
    1UNL    H30   94   0.556   0.426  -0.441
    1UNL    H31   95   0.603   0.506  -0.297
    1UNL    H32   96   0.367   0.197  -0.272
    1UNL    H33   97   0.515   0.224  -0.352
    1UNL    H34   98   0.642   0.278  -0.136
    1UNL    H35   99   0.506   0.256  -0.052
    1UNL    H36  100   0.521   0.024  -0.049
    1UNL    H37  101   0.719   0.054  -0.376
    1UNL    H38  102   0.840  -0.048  -0.298
    1UNL    H39  103   0.822   0.104  -0.244
    1UNL    H40  104   0.747  -0.198  -0.164
    1UNL    H41  105   0.589  -0.214  -0.232
    1UNL    H42  106   0.554  -0.358   0.070
    1UNL    H43  107   0.564  -0.581  -0.041
    1UNL    H44  108   0.588  -0.605  -0.332
    1UNL    H45  109   0.692  -0.658  -0.205
    1UNL    H46  110   0.536  -0.749  -0.233
    1UNL    H47  111   0.339  -0.511  -0.246
    1UNL    H48  112   0.232  -0.685  -0.164
    1UNL    H49  113   0.326  -0.519   0.062
    1UNL    H50  114   0.129  -0.412   0.036
    1UNL    H51  115   0.334  -0.288  -0.124
    1UNL    H52  116   0.342  -0.154   0.060
    1UNL    H53  117  -0.198   0.460  -0.134
    1UNL    H54  118  -0.095   0.207  -0.203
    1UNL    H55  119   0.275   0.078   0.194
    1UNL    H56  120   0.219   0.004   0.434
    1UNL    H57  121   0.064  -0.053   0.364
    1UNL    H58  122   0.210  -0.122   0.313
    1UNL    H59  123   0.130  -0.108   0.098
    1UNL    H60  124   0.102   0.129  -0.038
    1UNL    H61  125  -0.086  -0.005   0.002
    1UNL    H62  126  -0.078  -0.215   0.004
    1UNL    H63  127   0.102  -0.330   0.342
    1UNL    H64  128  -0.007  -0.574   0.366
    1UNL    H65  129   0.132  -0.567   0.253
    1UNL    H66  130  -0.029  -0.563   0.182
    1UNL    H67  131  -0.098  -0.212   0.379
    1UNL    H68  132  -0.217  -0.409   0.494
    1UNL    H69  133  -0.248  -0.470   0.276
    1UNL    H70  134  -0.354  -0.200   0.284
    1UNL    H71  135  -0.198  -0.419   0.069
    1UNL    H72  136  -0.315  -0.161   0.105
   0.00000   0.00000   0.00000   0.00000   0.00000   0.00000   0.00000   0.00000   0.00000
Generated with MDTraj, t= 50.0
 136
    1UNL     C1    1  -1.011   0.009  -0.080
    1UNL     C2    2  -0.900  -0.084  -0.047
    1UNL     C3    3  -0.879  -0.187  -0.125
    1UNL     C4    4  -0.965  -0.228  -0.239
    1UNL     O1    5  -0.984  -0.119  -0.324
    1UNL     C5    6  -0.805  -0.044   0.061
    1UNL     C6    7  -0.686   0.023   0.008
    1UNL     C7    8  -0.572   0.027   0.098
    1UNL     C8    9  -0.460   0.099   0.081
    1UNL     C9   10  -0.440   0.175  -0.039
    1UNL    C10   11  -0.337   0.077   0.165
    1UNL     O2   12  -0.340  -0.013   0.245
    1UNL     O3   13  -0.233   0.166   0.135
    1UNL    C11   14  -0.109   0.127   0.193
    1UNL    C12   15   0.000   0.237   0.181
    1UNL     O4   16  -0.002   0.284   0.046
    1UNL    C13   17  -0.082   0.388   0.007
    1UNL    C14   18  -0.028   0.524   0.054
    1UNL     O5   19  -0.102   0.603   0.154
    1UNL    C15   20  -0.010   0.623  -0.072
    1UNL    C16   21   0.050   0.754  -0.034
    1UNL     O6   22   0.070   0.562  -0.180
    1UNL    C17   23   0.027   0.424  -0.220
    1UNL     O7   24   0.124   0.326  -0.185
    1UNL    C18   25   0.236   0.358  -0.097
    1UNL    C19   26   0.342   0.448  -0.161
    1UNL    C20   27   0.446   0.404  -0.231
    1UNL    C21   28   0.528   0.501  -0.292
    1UNL    C22   29   0.469   0.255  -0.239
    1UNL    C23   30   0.571   0.221  -0.136
    1UNL    C24   31   0.581   0.074  -0.116
    1UNL    C25   32   0.639  -0.018  -0.194
    1UNL    C26   33   0.727   0.016  -0.308
    1UNL    C27   34   0.630  -0.159  -0.159
    1UNL     O8   35   0.544  -0.186  -0.056
    1UNL    C28   36   0.513  -0.322  -0.050
    1UNL     O9   37   0.563  -0.407  -0.162
    1UNL    C29   38   0.522  -0.543  -0.160
    1UNL    C30   39   0.587  -0.608  -0.290
    1UNL    C31   40   0.367  -0.551  -0.149
    1UNL    O10   41   0.327  -0.686  -0.157
    1UNL    C32   42   0.317  -0.478  -0.023
    1UNL    O11   43   0.178  -0.496  -0.011
    1UNL    C33   44   0.357  -0.333  -0.032
    1UNL    O12   45   0.311  -0.258   0.075
    1UNL    C34   46  -0.095   0.377  -0.141
    1UNL    O13   47  -0.127   0.241  -0.181
    1UNL    O14   48   0.137   0.203   0.218
    1UNL    C35   49   0.176   0.064   0.195
    1UNL    C36   50   0.166  -0.010   0.323
    1UNL    C37   51   0.088  -0.006   0.078
    1UNL    O15   52   0.127   0.046  -0.048
    1UNL    C38   53  -0.067  -0.000   0.108
    1UNL    O16   54  -0.114  -0.116   0.178
    1UNL    C39   55  -0.071  -0.240   0.112
    1UNL    O17   56   0.044  -0.316   0.163
    1UNL    C40   57   0.019  -0.367   0.295
    1UNL    C41   58   0.032  -0.517   0.294
    1UNL    C42   59  -0.109  -0.317   0.361
    1UNL    O18   60  -0.128  -0.367   0.493
    1UNL    C43   61  -0.240  -0.350   0.271
    1UNL    O19   62  -0.353  -0.269   0.325
    1UNL    C44   63  -0.201  -0.329   0.125
    1UNL    O20   64  -0.304  -0.264   0.057
    1UNL     H1   65  -1.011   0.037  -0.187
    1UNL     H2   66  -0.991   0.093  -0.020
    1UNL     H3   67  -1.113  -0.025  -0.047
    1UNL     H4   68  -0.777  -0.238  -0.114
    1UNL     H5   69  -1.066  -0.257  -0.203
    1UNL     H6   70  -0.923  -0.299  -0.307
    1UNL     H7   71  -0.898  -0.096  -0.369
    1UNL     H8   72  -0.857   0.018   0.126
    1UNL     H9   73  -0.758  -0.123   0.114
    1UNL    H10   74  -0.660  -0.014  -0.096
    1UNL    H11   75  -0.701   0.127  -0.023
    1UNL    H12   76  -0.579  -0.051   0.174
    1UNL    H13   77  -0.471   0.277  -0.030
    1UNL    H14   78  -0.334   0.189  -0.056
    1UNL    H15   79  -0.486   0.129  -0.124
    1UNL    H16   80  -0.140   0.097   0.297
    1UNL    H17   81  -0.030   0.334   0.235
    1UNL    H18   82  -0.180   0.377   0.052
    1UNL    H19   83   0.072   0.517   0.096
    1UNL    H20   84  -0.193   0.592   0.133
    1UNL    H21   85  -0.110   0.648  -0.112
    1UNL    H22   86   0.014   0.784   0.063
    1UNL    H23   87   0.032   0.837  -0.108
    1UNL    H24   88   0.158   0.751  -0.021
    1UNL    H25   89   0.012   0.432  -0.326
    1UNL    H26   90   0.205   0.403  -0.001
    1UNL    H27   91   0.283   0.265  -0.066
    1UNL    H28   92   0.328   0.553  -0.150
    1UNL    H29   93   0.468   0.555  -0.371
    1UNL    H30   94   0.619   0.456  -0.337
    1UNL    H31   95   0.563   0.574  -0.227
    1UNL    H32   96   0.379   0.199  -0.231
    1UNL    H33   97   0.510   0.229  -0.334
    1UNL    H34   98   0.671   0.265  -0.152
    1UNL    H35   99   0.554   0.268  -0.035
    1UNL    H36  100   0.535   0.032  -0.027
    1UNL    H37  101   0.673   0.072  -0.381
    1UNL    H38  102   0.771  -0.073  -0.357
    1UNL    H39  103   0.812   0.070  -0.285
    1UNL    H40  104   0.724  -0.208  -0.129
    1UNL    H41  105   0.603  -0.207  -0.254
    1UNL    H42  106   0.563  -0.348   0.049
    1UNL    H43  107   0.572  -0.576  -0.075
    1UNL    H44  108   0.537  -0.580  -0.380
    1UNL    H45  109   0.687  -0.579  -0.305
    1UNL    H46  110   0.578  -0.720  -0.282
    1UNL    H47  111   0.319  -0.506  -0.239
    1UNL    H48  112   0.226  -0.687  -0.159
    1UNL    H49  113   0.369  -0.517   0.064
    1UNL    H50  114   0.139  -0.421   0.039
    1UNL    H51  115   0.315  -0.299  -0.127
    1UNL    H52  116   0.334  -0.162   0.063
    1UNL    H53  117  -0.190   0.439  -0.173
    1UNL    H54  118  -0.058   0.186  -0.139
    1UNL    H55  119   0.280   0.069   0.156
    1UNL    H56  120   0.212   0.051   0.404
    1UNL    H57  121   0.062  -0.042   0.339
    1UNL    H58  122   0.221  -0.102   0.317
    1UNL    H59  123   0.102  -0.115   0.061
    1UNL    H60  124   0.119   0.145  -0.040
    1UNL    H61  125  -0.128   0.002   0.011
    1UNL    H62  126  -0.061  -0.206   0.008
    1UNL    H63  127   0.105  -0.316   0.353
    1UNL    H64  128   0.034  -0.547   0.401
    1UNL    H65  129   0.119  -0.557   0.243
    1UNL    H66  130  -0.058  -0.563   0.238
    1UNL    H67  131  -0.117  -0.207   0.375
    1UNL    H68  132  -0.219  -0.398   0.498
    1UNL    H69  133  -0.276  -0.454   0.282
    1UNL    H70  134  -0.347  -0.178   0.294
    1UNL    H71  135  -0.183  -0.424   0.077
    1UNL    H72  136  -0.306  -0.167   0.075
   0.00000   0.00000   0.00000   0.00000   0.00000   0.00000   0.00000   0.00000   0.00000
Generated with MDTraj, t= 51.0
 136
    1UNL     C1    1  -1.020   0.006  -0.066
    1UNL     C2    2  -0.899  -0.076  -0.061
    1UNL     C3    3  -0.877  -0.178  -0.141
    1UNL     C4    4  -0.977  -0.225  -0.249
    1UNL     O1    5  -1.004  -0.136  -0.354
    1UNL     C5    6  -0.806  -0.052   0.050
    1UNL     C6    7  -0.677   0.012   0.003
    1UNL     C7    8  -0.577   0.034   0.109
    1UNL     C8    9  -0.456   0.090   0.083
    1UNL     C9   10  -0.413   0.136  -0.046
    1UNL    C10   11  -0.340   0.083   0.180
    1UNL     O2   12  -0.334   0.005   0.275
    1UNL     O3   13  -0.243   0.166   0.143
    1UNL    C11   14  -0.113   0.131   0.191
    1UNL    C12   15  -0.000   0.239   0.179
    1UNL     O4   16   0.027   0.295   0.053
    1UNL    C13   17  -0.074   0.383   0.005
    1UNL    C14   18  -0.020   0.534   0.029
    1UNL     O5   19  -0.131   0.580   0.104
    1UNL    C15   20  -0.004   0.621  -0.100
    1UNL    C16   21   0.045   0.759  -0.079
    1UNL     O6   22   0.080   0.545  -0.193
    1UNL    C17   23   0.055   0.406  -0.210
    1UNL     O7   24   0.156   0.321  -0.178
    1UNL    C18   25   0.242   0.371  -0.082
    1UNL    C19   26   0.341   0.472  -0.146
    1UNL    C20   27   0.453   0.430  -0.207
    1UNL    C21   28   0.553   0.535  -0.252
    1UNL    C22   29   0.492   0.287  -0.219
    1UNL    C23   30   0.591   0.232  -0.121
    1UNL    C24   31   0.575   0.082  -0.105
    1UNL    C25   32   0.624  -0.003  -0.198
    1UNL    C26   33   0.704   0.047  -0.319
    1UNL    C27   34   0.630  -0.150  -0.176
    1UNL     O8   35   0.543  -0.191  -0.071
    1UNL    C28   36   0.499  -0.328  -0.070
    1UNL     O9   37   0.529  -0.392  -0.200
    1UNL    C29   38   0.512  -0.535  -0.193
    1UNL    C30   39   0.551  -0.597  -0.325
    1UNL    C31   40   0.365  -0.569  -0.156
    1UNL    O10   41   0.343  -0.702  -0.109
    1UNL    C32   42   0.309  -0.484  -0.035
    1UNL    O11   43   0.166  -0.510  -0.014
    1UNL    C33   44   0.349  -0.336  -0.033
    1UNL    O12   45   0.321  -0.278   0.093
    1UNL    C34   46  -0.085   0.370  -0.145
    1UNL    O13   47  -0.127   0.240  -0.186
    1UNL    O14   48   0.114   0.176   0.238
    1UNL    C35   49   0.177   0.060   0.181
    1UNL    C36   50   0.203  -0.046   0.299
    1UNL    C37   51   0.089   0.006   0.068
    1UNL    O15   52   0.116   0.071  -0.049
    1UNL    C38   53  -0.059   0.003   0.116
    1UNL    O16   54  -0.085  -0.115   0.196
    1UNL    C39   55  -0.082  -0.241   0.116
    1UNL    O17   56   0.025  -0.324   0.166
    1UNL    C40   57   0.017  -0.369   0.305
    1UNL    C41   58   0.047  -0.523   0.335
    1UNL    C42   59  -0.120  -0.320   0.366
    1UNL    O18   60  -0.131  -0.361   0.503
    1UNL    C43   61  -0.244  -0.362   0.279
    1UNL    O19   62  -0.366  -0.304   0.340
    1UNL    C44   63  -0.218  -0.320   0.134
    1UNL    O20   64  -0.306  -0.223   0.085
    1UNL     H1   65  -1.020   0.076  -0.152
    1UNL     H2   66  -1.039   0.053   0.027
    1UNL     H3   67  -1.113  -0.054  -0.077
    1UNL     H4   68  -0.795  -0.237  -0.130
    1UNL     H5   69  -1.077  -0.238  -0.201
    1UNL     H6   70  -0.934  -0.319  -0.284
    1UNL     H7   71  -0.914  -0.119  -0.393
    1UNL     H8   72  -0.832   0.024   0.122
    1UNL     H9   73  -0.786  -0.142   0.099
    1UNL    H10   74  -0.623  -0.035  -0.084
    1UNL    H11   75  -0.706   0.099  -0.057
    1UNL    H12   76  -0.596  -0.013   0.204
    1UNL    H13   77  -0.499   0.181  -0.088
    1UNL    H14   78  -0.338   0.217  -0.046
    1UNL    H15   79  -0.389   0.051  -0.107
    1UNL    H16   80  -0.131   0.109   0.302
    1UNL    H17   81  -0.022   0.337   0.236
    1UNL    H18   82  -0.165   0.364   0.060
    1UNL    H19   83   0.061   0.540   0.101
    1UNL    H20   84  -0.105   0.590   0.200
    1UNL    H21   85  -0.109   0.629  -0.135
    1UNL    H22   86  -0.042   0.818  -0.044
    1UNL    H23   87   0.083   0.796  -0.173
    1UNL    H24   88   0.121   0.775   0.004
    1UNL    H25   89   0.044   0.389  -0.318
    1UNL    H26   90   0.187   0.411   0.007
    1UNL    H27   91   0.297   0.285  -0.038
    1UNL    H28   92   0.325   0.581  -0.141
    1UNL    H29   93   0.538   0.561  -0.358
    1UNL    H30   94   0.652   0.492  -0.242
    1UNL    H31   95   0.557   0.630  -0.198
    1UNL    H32   96   0.406   0.229  -0.203
    1UNL    H33   97   0.524   0.265  -0.321
    1UNL    H34   98   0.696   0.252  -0.145
    1UNL    H35   99   0.582   0.283  -0.021
    1UNL    H36  100   0.528   0.033  -0.022
    1UNL    H37  101   0.668   0.148  -0.344
    1UNL    H38  102   0.699  -0.022  -0.403
    1UNL    H39  103   0.806   0.056  -0.294
    1UNL    H40  104   0.737  -0.182  -0.166
    1UNL    H41  105   0.595  -0.212  -0.262
    1UNL    H42  106   0.562  -0.373   0.011
    1UNL    H43  107   0.563  -0.562  -0.105
    1UNL    H44  108   0.504  -0.556  -0.412
    1UNL    H45  109   0.654  -0.581  -0.355
    1UNL    H46  110   0.531  -0.704  -0.333
    1UNL    H47  111   0.301  -0.564  -0.244
    1UNL    H48  112   0.248  -0.720  -0.087
    1UNL    H49  113   0.359  -0.518   0.057
    1UNL    H50  114   0.137  -0.447   0.049
    1UNL    H51  115   0.286  -0.288  -0.110
    1UNL    H52  116   0.357  -0.191   0.102
    1UNL    H53  117  -0.175   0.435  -0.185
    1UNL    H54  118  -0.050   0.181  -0.171
    1UNL    H55  119   0.277   0.089   0.148
    1UNL    H56  120   0.275  -0.000   0.365
    1UNL    H57  121   0.108  -0.071   0.348
    1UNL    H58  122   0.246  -0.144   0.268
    1UNL    H59  123   0.109  -0.099   0.051
    1UNL    H60  124   0.104   0.163  -0.030
    1UNL    H61  125  -0.119  -0.002   0.018
    1UNL    H62  126  -0.065  -0.207   0.013
    1UNL    H63  127   0.103  -0.301   0.345
    1UNL    H64  128   0.048  -0.538   0.443
    1UNL    H65  129   0.141  -0.564   0.295
    1UNL    H66  130  -0.033  -0.589   0.285
    1UNL    H67  131  -0.115  -0.211   0.385
    1UNL    H68  132  -0.222  -0.391   0.526
    1UNL    H69  133  -0.256  -0.471   0.285
    1UNL    H70  134  -0.354  -0.205   0.322
    1UNL    H71  135  -0.213  -0.405   0.065
    1UNL    H72  136  -0.278  -0.134   0.117
   0.00000   0.00000   0.00000   0.00000   0.00000   0.00000   0.00000   0.00000   0.00000
Generated with MDTraj, t= 52.0
 136
    1UNL     C1    1  -1.016   0.000  -0.056
    1UNL     C2    2  -0.907  -0.102  -0.047
    1UNL     C3    3  -0.886  -0.199  -0.131
    1UNL     C4    4  -0.985  -0.224  -0.249
    1UNL     O1    5  -0.990  -0.110  -0.339
    1UNL     C5    6  -0.793  -0.075   0.049
    1UNL     C6    7  -0.677   0.023  -0.006
    1UNL     C7    8  -0.562   0.030   0.084
    1UNL     C8    9  -0.436   0.074   0.049
    1UNL     C9   10  -0.392   0.121  -0.094
    1UNL    C10   11  -0.333   0.090   0.145
    1UNL     O2   12  -0.336   0.039   0.256
    1UNL     O3   13  -0.227   0.179   0.109
    1UNL    C11   14  -0.110   0.131   0.170
    1UNL    C12   15  -0.000   0.236   0.194
    1UNL     O4   16   0.035   0.296   0.071
    1UNL    C13   17  -0.067   0.369   0.002
    1UNL    C14   18  -0.054   0.522   0.032
    1UNL     O5   19  -0.182   0.561   0.087
    1UNL    C15   20  -0.013   0.603  -0.095
    1UNL    C16   21   0.036   0.742  -0.058
    1UNL     O6   22   0.081   0.534  -0.188
    1UNL    C17   23   0.064   0.393  -0.213
    1UNL     O7   24   0.177   0.321  -0.175
    1UNL    C18   25   0.257   0.376  -0.074
    1UNL    C19   26   0.350   0.482  -0.124
    1UNL    C20   27   0.468   0.449  -0.179
    1UNL    C21   28   0.559   0.557  -0.231
    1UNL    C22   29   0.497   0.303  -0.217
    1UNL    C23   30   0.585   0.228  -0.115
    1UNL    C24   31   0.566   0.081  -0.121
    1UNL    C25   32   0.626   0.007  -0.215
    1UNL    C26   33   0.728   0.063  -0.306
    1UNL    C27   34   0.609  -0.141  -0.208
    1UNL     O8   35   0.509  -0.182  -0.111
    1UNL    C28   36   0.481  -0.323  -0.098
    1UNL     O9   37   0.501  -0.389  -0.221
    1UNL    C29   38   0.491  -0.533  -0.203
    1UNL    C30   39   0.517  -0.608  -0.337
    1UNL    C31   40   0.355  -0.570  -0.147
    1UNL    O10   41   0.352  -0.706  -0.123
    1UNL    C32   42   0.314  -0.496  -0.014
    1UNL    O11   43   0.174  -0.519  -0.004
    1UNL    C33   44   0.342  -0.343  -0.032
    1UNL    O12   45   0.343  -0.272   0.089
    1UNL    C34   46  -0.068   0.337  -0.145
    1UNL    O13   47  -0.095   0.198  -0.168
    1UNL    O14   48   0.126   0.189   0.263
    1UNL    C35   49   0.181   0.077   0.195
    1UNL    C36   50   0.231  -0.028   0.296
    1UNL    C37   51   0.099   0.011   0.082
    1UNL    O15   52   0.131   0.059  -0.043
    1UNL    C38   53  -0.056   0.000   0.109
    1UNL    O16   54  -0.081  -0.105   0.207
    1UNL    C39   55  -0.084  -0.235   0.132
    1UNL    O17   56   0.009  -0.338   0.174
    1UNL    C40   57   0.009  -0.364   0.315
    1UNL    C41   58   0.037  -0.509   0.355
    1UNL    C42   59  -0.130  -0.328   0.379
    1UNL    O18   60  -0.141  -0.378   0.508
    1UNL    C43   61  -0.261  -0.345   0.294
    1UNL    O19   62  -0.365  -0.264   0.354
    1UNL    C44   63  -0.222  -0.305   0.143
    1UNL    O20   64  -0.319  -0.226   0.085
    1UNL     H1   65  -1.020   0.033  -0.162
    1UNL     H2   66  -1.006   0.078   0.019
    1UNL     H3   67  -1.113  -0.041  -0.031
    1UNL     H4   68  -0.801  -0.270  -0.121
    1UNL     H5   69  -1.085  -0.239  -0.200
    1UNL     H6   70  -0.954  -0.307  -0.318
    1UNL     H7   71  -0.901  -0.085  -0.372
    1UNL     H8   72  -0.830  -0.021   0.136
    1UNL     H9   73  -0.741  -0.161   0.076
    1UNL    H10   74  -0.645  -0.013  -0.107
    1UNL    H11   75  -0.697   0.124  -0.045
    1UNL    H12   76  -0.593   0.014   0.186
    1UNL    H13   77  -0.474   0.167  -0.142
    1UNL    H14   78  -0.313   0.197  -0.088
    1UNL    H15   79  -0.350   0.039  -0.148
    1UNL    H16   80  -0.140   0.102   0.278
    1UNL    H17   81  -0.038   0.323   0.261
    1UNL    H18   82  -0.161   0.329   0.036
    1UNL    H19   83   0.024   0.536   0.106
    1UNL    H20   84  -0.224   0.620   0.014
    1UNL    H21   85  -0.108   0.625  -0.150
    1UNL    H22   86  -0.043   0.788   0.007
    1UNL    H23   87   0.054   0.797  -0.145
    1UNL    H24   88   0.126   0.736   0.009
    1UNL    H25   89   0.059   0.379  -0.323
    1UNL    H26   90   0.186   0.411   0.007
    1UNL    H27   91   0.306   0.291  -0.018
    1UNL    H28   92   0.319   0.580  -0.115
    1UNL    H29   93   0.530   0.578  -0.331
    1UNL    H30   94   0.659   0.519  -0.227
    1UNL    H31   95   0.552   0.654  -0.172
    1UNL    H32   96   0.416   0.241  -0.239
    1UNL    H33   97   0.561   0.310  -0.307
    1UNL    H34   98   0.690   0.251  -0.128
    1UNL    H35   99   0.560   0.257  -0.008
    1UNL    H36  100   0.499   0.031  -0.050
    1UNL    H37  101   0.703   0.167  -0.337
    1UNL    H38  102   0.732   0.007  -0.398
    1UNL    H39  103   0.835   0.071  -0.269
    1UNL    H40  104   0.707  -0.192  -0.183
    1UNL    H41  105   0.591  -0.180  -0.312
    1UNL    H42  106   0.548  -0.366  -0.022
    1UNL    H43  107   0.562  -0.551  -0.125
    1UNL    H44  108   0.453  -0.574  -0.418
    1UNL    H45  109   0.616  -0.585  -0.378
    1UNL    H46  110   0.501  -0.710  -0.330
    1UNL    H47  111   0.281  -0.544  -0.221
    1UNL    H48  112   0.265  -0.734  -0.097
    1UNL    H49  113   0.378  -0.532   0.070
    1UNL    H50  114   0.136  -0.452   0.056
    1UNL    H51  115   0.260  -0.303  -0.095
    1UNL    H52  116   0.399  -0.187   0.066
    1UNL    H53  117  -0.163   0.390  -0.191
    1UNL    H54  118  -0.019   0.140  -0.141
    1UNL    H55  119   0.270   0.118   0.150
    1UNL    H56  120   0.307   0.017   0.358
    1UNL    H57  121   0.151  -0.080   0.349
    1UNL    H58  122   0.288  -0.111   0.244
    1UNL    H59  123   0.131  -0.090   0.066
    1UNL    H60  124   0.144   0.155  -0.032
    1UNL    H61  125  -0.104  -0.013   0.006
    1UNL    H62  126  -0.070  -0.212   0.026
    1UNL    H63  127   0.095  -0.294   0.348
    1UNL    H64  128   0.014  -0.524   0.462
    1UNL    H65  129   0.145  -0.537   0.337
    1UNL    H66  130  -0.019  -0.578   0.289
    1UNL    H67  131  -0.122  -0.219   0.396
    1UNL    H68  132  -0.237  -0.402   0.524
    1UNL    H69  133  -0.311  -0.443   0.296
    1UNL    H70  134  -0.344  -0.169   0.376
    1UNL    H71  135  -0.218  -0.395   0.076
    1UNL    H72  136  -0.332  -0.145   0.142
   0.00000   0.00000   0.00000   0.00000   0.00000   0.00000   0.00000   0.00000   0.00000
Generated with MDTraj, t= 53.0
 136
    1UNL     C1    1  -0.988  -0.003  -0.031
    1UNL     C2    2  -0.877  -0.110  -0.037
    1UNL     C3    3  -0.874  -0.195  -0.135
    1UNL     C4    4  -0.983  -0.211  -0.236
    1UNL     O1    5  -0.993  -0.101  -0.324
    1UNL     C5    6  -0.761  -0.093   0.052
    1UNL     C6    7  -0.670   0.009  -0.020
    1UNL     C7    8  -0.560   0.060   0.056
    1UNL     C8    9  -0.433   0.091   0.014
    1UNL     C9   10  -0.397   0.121  -0.126
    1UNL    C10   11  -0.326   0.082   0.114
    1UNL     O2   12  -0.337   0.015   0.219
    1UNL     O3   13  -0.208   0.142   0.081
    1UNL    C11   14  -0.110   0.128   0.180
    1UNL    C12   15  -0.011   0.240   0.189
    1UNL     O4   16   0.019   0.282   0.060
    1UNL    C13   17  -0.080   0.352  -0.015
    1UNL    C14   18  -0.079   0.504   0.024
    1UNL     O5   19  -0.208   0.559   0.071
    1UNL    C15   20  -0.026   0.591  -0.091
    1UNL    C16   21  -0.005   0.736  -0.046
    1UNL     O6   22   0.098   0.538  -0.155
    1UNL    C17   23   0.088   0.397  -0.204
    1UNL     O7   24   0.197   0.314  -0.157
    1UNL    C18   25   0.262   0.380  -0.052
    1UNL    C19   26   0.361   0.484  -0.096
    1UNL    C20   27   0.459   0.456  -0.182
    1UNL    C21   28   0.558   0.553  -0.220
    1UNL    C22   29   0.470   0.317  -0.233
    1UNL    C23   30   0.566   0.235  -0.135
    1UNL    C24   31   0.555   0.085  -0.150
    1UNL    C25   32   0.632  -0.002  -0.216
    1UNL    C26   33   0.755   0.047  -0.274
    1UNL    C27   34   0.581  -0.143  -0.226
    1UNL     O8   35   0.469  -0.166  -0.144
    1UNL    C28   36   0.470  -0.313  -0.125
    1UNL     O9   37   0.476  -0.386  -0.248
    1UNL    C29   38   0.477  -0.522  -0.214
    1UNL    C30   39   0.502  -0.610  -0.344
    1UNL    C31   40   0.345  -0.567  -0.151
    1UNL    O10   41   0.323  -0.705  -0.152
    1UNL    C32   42   0.327  -0.490  -0.013
    1UNL    O11   43   0.206  -0.528   0.056
    1UNL    C33   44   0.338  -0.337  -0.046
    1UNL    O12   45   0.322  -0.257   0.069
    1UNL    C34   46  -0.050   0.331  -0.162
    1UNL    O13   47  -0.052   0.195  -0.206
    1UNL    O14   48   0.105   0.195   0.274
    1UNL    C35   49   0.181   0.080   0.229
    1UNL    C36   50   0.227   0.001   0.349
    1UNL    C37   51   0.123  -0.007   0.121
    1UNL    O15   52   0.167   0.029  -0.006
    1UNL    C38   53  -0.034  -0.003   0.136
    1UNL    O16   54  -0.072  -0.122   0.215
    1UNL    C39   55  -0.078  -0.248   0.138
    1UNL    O17   56   0.031  -0.324   0.193
    1UNL    C40   57   0.000  -0.363   0.326
    1UNL    C41   58  -0.004  -0.514   0.345
    1UNL    C42   59  -0.129  -0.303   0.392
    1UNL    O18   60  -0.150  -0.364   0.522
    1UNL    C43   61  -0.255  -0.313   0.303
    1UNL    O19   62  -0.348  -0.224   0.353
    1UNL    C44   63  -0.215  -0.306   0.145
    1UNL    O20   64  -0.318  -0.247   0.071
    1UNL     H1   65  -1.029   0.018  -0.131
    1UNL     H2   66  -0.947   0.085   0.024
    1UNL     H3   67  -1.062  -0.027   0.043
    1UNL     H4   68  -0.795  -0.274  -0.136
    1UNL     H5   69  -1.090  -0.211  -0.194
    1UNL     H6   70  -0.969  -0.302  -0.302
    1UNL     H7   71  -0.911  -0.088  -0.376
    1UNL     H8   72  -0.797  -0.050   0.148
    1UNL     H9   73  -0.709  -0.182   0.056
    1UNL    H10   74  -0.624  -0.011  -0.121
    1UNL    H11   75  -0.724   0.096  -0.057
    1UNL    H12   76  -0.581   0.039   0.162
    1UNL    H13   77  -0.457   0.206  -0.157
    1UNL    H14   78  -0.292   0.152  -0.130
    1UNL    H15   79  -0.403   0.036  -0.191
    1UNL    H16   80  -0.149   0.100   0.287
    1UNL    H17   81  -0.065   0.325   0.245
    1UNL    H18   82  -0.176   0.313   0.016
    1UNL    H19   83  -0.012   0.505   0.109
    1UNL    H20   84  -0.208   0.612   0.156
    1UNL    H21   85  -0.100   0.605  -0.174
    1UNL    H22   86  -0.090   0.771   0.018
    1UNL    H23   87   0.005   0.803  -0.131
    1UNL    H24   88   0.080   0.747   0.023
    1UNL    H25   89   0.103   0.404  -0.315
    1UNL    H26   90   0.185   0.412   0.027
    1UNL    H27   91   0.311   0.294   0.006
    1UNL    H28   92   0.351   0.586  -0.052
    1UNL    H29   93   0.517   0.620  -0.290
    1UNL    H30   94   0.645   0.508  -0.261
    1UNL    H31   95   0.590   0.619  -0.131
    1UNL    H32   96   0.372   0.283  -0.239
    1UNL    H33   97   0.517   0.305  -0.332
    1UNL    H34   98   0.669   0.263  -0.133
    1UNL    H35   99   0.527   0.252  -0.030
    1UNL    H36  100   0.457   0.044  -0.133
    1UNL    H37  101   0.732   0.116  -0.355
    1UNL    H38  102   0.809  -0.033  -0.323
    1UNL    H39  103   0.829   0.108  -0.206
    1UNL    H40  104   0.667  -0.212  -0.207
    1UNL    H41  105   0.548  -0.171  -0.328
    1UNL    H42  106   0.551  -0.343  -0.062
    1UNL    H43  107   0.560  -0.531  -0.144
    1UNL    H44  108   0.417  -0.603  -0.412
    1UNL    H45  109   0.591  -0.578  -0.399
    1UNL    H46  110   0.503  -0.707  -0.309
    1UNL    H47  111   0.267  -0.531  -0.214
    1UNL    H48  112   0.260  -0.728  -0.078
    1UNL    H49  113   0.417  -0.522   0.044
    1UNL    H50  114   0.150  -0.449   0.091
    1UNL    H51  115   0.260  -0.311  -0.120
    1UNL    H52  116   0.339  -0.169   0.036
    1UNL    H53  117  -0.133   0.389  -0.218
    1UNL    H54  118   0.016   0.145  -0.161
    1UNL    H55  119   0.263   0.131   0.185
    1UNL    H56  120   0.282   0.065   0.419
    1UNL    H57  121   0.147  -0.061   0.393
    1UNL    H58  122   0.304  -0.073   0.322
    1UNL    H59  123   0.146  -0.112   0.134
    1UNL    H60  124   0.167   0.130  -0.009
    1UNL    H61  125  -0.073  -0.027   0.034
    1UNL    H62  126  -0.050  -0.227   0.034
    1UNL    H63  127   0.090  -0.325   0.385
    1UNL    H64  128  -0.013  -0.539   0.455
    1UNL    H65  129   0.094  -0.559   0.306
    1UNL    H66  130  -0.079  -0.561   0.287
    1UNL    H67  131  -0.108  -0.197   0.412
    1UNL    H68  132  -0.247  -0.358   0.528
    1UNL    H69  133  -0.293  -0.415   0.316
    1UNL    H70  134  -0.343  -0.136   0.309
    1UNL    H71  135  -0.203  -0.411   0.103
    1UNL    H72  136  -0.324  -0.156   0.108
   0.00000   0.00000   0.00000   0.00000   0.00000   0.00000   0.00000   0.00000   0.00000
Generated with MDTraj, t= 54.0
 136
    1UNL     C1    1  -1.024  -0.037  -0.020
    1UNL     C2    2  -0.896  -0.107  -0.050
    1UNL     C3    3  -0.886  -0.181  -0.154
    1UNL     C4    4  -1.004  -0.218  -0.239
    1UNL     O1    5  -1.027  -0.114  -0.327
    1UNL     C5    6  -0.767  -0.073   0.032
    1UNL     C6    7  -0.671   0.021  -0.032
    1UNL     C7    8  -0.543   0.035   0.041
    1UNL     C8    9  -0.417   0.068  -0.001
    1UNL     C9   10  -0.398   0.122  -0.128
    1UNL    C10   11  -0.307   0.075   0.100
    1UNL     O2   12  -0.319   0.005   0.204
    1UNL     O3   13  -0.191   0.134   0.072
    1UNL    C11   14  -0.096   0.114   0.169
    1UNL    C12   15  -0.006   0.244   0.175
    1UNL     O4   16   0.047   0.282   0.053
    1UNL    C13   17  -0.055   0.349  -0.021
    1UNL    C14   18  -0.064   0.498   0.024
    1UNL     O5   19  -0.202   0.515   0.067
    1UNL    C15   20  -0.027   0.592  -0.094
    1UNL    C16   21  -0.020   0.736  -0.048
    1UNL     O6   22   0.103   0.548  -0.143
    1UNL    C17   23   0.114   0.419  -0.203
    1UNL     O7   24   0.219   0.338  -0.146
    1UNL    C18   25   0.277   0.400  -0.037
    1UNL    C19   26   0.380   0.506  -0.073
    1UNL    C20   27   0.460   0.476  -0.177
    1UNL    C21   28   0.545   0.590  -0.222
    1UNL    C22   29   0.470   0.339  -0.242
    1UNL    C23   30   0.552   0.237  -0.160
    1UNL    C24   31   0.532   0.093  -0.196
    1UNL    C25   32   0.627  -0.001  -0.219
    1UNL    C26   33   0.775   0.026  -0.242
    1UNL    C27   34   0.578  -0.143  -0.248
    1UNL     O8   35   0.466  -0.162  -0.166
    1UNL    C28   36   0.447  -0.308  -0.141
    1UNL     O9   37   0.460  -0.394  -0.253
    1UNL    C29   38   0.443  -0.536  -0.227
    1UNL    C30   39   0.462  -0.610  -0.372
    1UNL    C31   40   0.320  -0.578  -0.147
    1UNL    O10   41   0.323  -0.713  -0.109
    1UNL    C32   42   0.313  -0.484  -0.024
    1UNL    O11   43   0.198  -0.510   0.056
    1UNL    C33   44   0.314  -0.336  -0.066
    1UNL    O12   45   0.299  -0.264   0.052
    1UNL    C34   46  -0.018   0.343  -0.175
    1UNL    O13   47  -0.019   0.209  -0.224
    1UNL    O14   48   0.091   0.225   0.282
    1UNL    C35   49   0.175   0.109   0.270
    1UNL    C36   50   0.169   0.038   0.407
    1UNL    C37   51   0.140   0.004   0.157
    1UNL    O15   52   0.195   0.042   0.028
    1UNL    C38   53  -0.013  -0.017   0.128
    1UNL    O16   54  -0.076  -0.129   0.196
    1UNL    C39   55  -0.055  -0.269   0.152
    1UNL    O17   56   0.049  -0.340   0.223
    1UNL    C40   57   0.005  -0.392   0.350
    1UNL    C41   58  -0.027  -0.543   0.337
    1UNL    C42   59  -0.115  -0.304   0.402
    1UNL    O18   60  -0.146  -0.322   0.539
    1UNL    C43   61  -0.237  -0.340   0.320
    1UNL    O19   62  -0.342  -0.263   0.353
    1UNL    C44   63  -0.199  -0.327   0.160
    1UNL    O20   64  -0.307  -0.253   0.090
    1UNL     H1   65  -1.060   0.006  -0.112
    1UNL     H2   66  -1.013   0.036   0.065
    1UNL     H3   67  -1.099  -0.098   0.026
    1UNL     H4   68  -0.793  -0.217  -0.180
    1UNL     H5   69  -1.099  -0.222  -0.177
    1UNL     H6   70  -0.998  -0.312  -0.301
    1UNL     H7   71  -0.936  -0.109  -0.369
    1UNL     H8   72  -0.784  -0.024   0.131
    1UNL     H9   73  -0.712  -0.161   0.041
    1UNL    H10   74  -0.661  -0.004  -0.141
    1UNL    H11   75  -0.704   0.123  -0.053
    1UNL    H12   76  -0.551  -0.010   0.138
    1UNL    H13   77  -0.466   0.209  -0.129
    1UNL    H14   78  -0.297   0.157  -0.140
    1UNL    H15   79  -0.419   0.051  -0.207
    1UNL    H16   80  -0.156   0.100   0.267
    1UNL    H17   81  -0.087   0.316   0.209
    1UNL    H18   82  -0.149   0.301   0.001
    1UNL    H19   83   0.003   0.515   0.108
    1UNL    H20   84  -0.236   0.593   0.027
    1UNL    H21   85  -0.093   0.591  -0.185
    1UNL    H22   86  -0.118   0.783  -0.029
    1UNL    H23   87   0.029   0.803  -0.125
    1UNL    H24   88   0.028   0.754   0.046
    1UNL    H25   89   0.136   0.429  -0.313
    1UNL    H26   90   0.194   0.445   0.026
    1UNL    H27   91   0.324   0.320   0.031
    1UNL    H28   92   0.377   0.599  -0.023
    1UNL    H29   93   0.495   0.686  -0.227
    1UNL    H30   94   0.578   0.571  -0.324
    1UNL    H31   95   0.635   0.609  -0.165
    1UNL    H32   96   0.376   0.293  -0.258
    1UNL    H33   97   0.512   0.355  -0.343
    1UNL    H34   98   0.655   0.260  -0.171
    1UNL    H35   99   0.528   0.255  -0.050
    1UNL    H36  100   0.430   0.055  -0.206
    1UNL    H37  101   0.774   0.104  -0.318
    1UNL    H38  102   0.819  -0.064  -0.296
    1UNL    H39  103   0.838   0.069  -0.156
    1UNL    H40  104   0.649  -0.225  -0.227
    1UNL    H41  105   0.551  -0.156  -0.353
    1UNL    H42  106   0.521  -0.335  -0.071
    1UNL    H43  107   0.527  -0.577  -0.165
    1UNL    H44  108   0.386  -0.571  -0.436
    1UNL    H45  109   0.557  -0.577  -0.413
    1UNL    H46  110   0.448  -0.715  -0.363
    1UNL    H47  111   0.231  -0.569  -0.206
    1UNL    H48  112   0.288  -0.716  -0.016
    1UNL    H49  113   0.397  -0.495   0.049
    1UNL    H50  114   0.172  -0.433   0.115
    1UNL    H51  115   0.224  -0.314  -0.126
    1UNL    H52  116   0.322  -0.173   0.036
    1UNL    H53  117  -0.107   0.386  -0.235
    1UNL    H54  118   0.055   0.162  -0.179
    1UNL    H55  119   0.269   0.157   0.253
    1UNL    H56  120   0.198   0.109   0.489
    1UNL    H57  121   0.067  -0.003   0.419
    1UNL    H58  122   0.235  -0.045   0.424
    1UNL    H59  123   0.179  -0.092   0.190
    1UNL    H60  124   0.195   0.136   0.010
    1UNL    H61  125  -0.040  -0.020   0.022
    1UNL    H62  126  -0.022  -0.270   0.046
    1UNL    H63  127   0.088  -0.381   0.424
    1UNL    H64  128  -0.044  -0.596   0.436
    1UNL    H65  129   0.057  -0.596   0.282
    1UNL    H66  130  -0.110  -0.560   0.272
    1UNL    H67  131  -0.084  -0.198   0.392
    1UNL    H68  132  -0.242  -0.307   0.546
    1UNL    H69  133  -0.267  -0.443   0.343
    1UNL    H70  134  -0.342  -0.174   0.302
    1UNL    H71  135  -0.217  -0.428   0.113
    1UNL    H72  136  -0.270  -0.161   0.086
   0.00000   0.00000   0.00000   0.00000   0.00000   0.00000   0.00000   0.00000   0.00000
Generated with MDTraj, t= 55.0
 136
    1UNL     C1    1  -1.043  -0.046  -0.032
    1UNL     C2    2  -0.906  -0.095  -0.071
    1UNL     C3    3  -0.887  -0.171  -0.176
    1UNL     C4    4  -1.005  -0.225  -0.255
    1UNL     O1    5  -1.079  -0.117  -0.318
    1UNL     C5    6  -0.790  -0.071   0.019
    1UNL     C6    7  -0.670  -0.003  -0.047
    1UNL     C7    8  -0.549  -0.008   0.040
    1UNL     C8    9  -0.432   0.052   0.008
    1UNL     C9   10  -0.416   0.114  -0.123
    1UNL    C10   11  -0.319   0.056   0.109
    1UNL     O2   12  -0.330  -0.000   0.222
    1UNL     O3   13  -0.198   0.114   0.073
    1UNL    C11   14  -0.095   0.096   0.161
    1UNL    C12   15  -0.012   0.226   0.168
    1UNL     O4   16   0.038   0.256   0.039
    1UNL    C13   17  -0.056   0.337  -0.038
    1UNL    C14   18  -0.063   0.483   0.008
    1UNL     O5   19  -0.197   0.520   0.058
    1UNL    C15   20  -0.008   0.594  -0.095
    1UNL    C16   21  -0.004   0.732  -0.031
    1UNL     O6   22   0.124   0.562  -0.148
    1UNL    C17   23   0.130   0.429  -0.201
    1UNL     O7   24   0.235   0.352  -0.145
    1UNL    C18   25   0.306   0.416  -0.044
    1UNL    C19   26   0.411   0.514  -0.098
    1UNL    C20   27   0.497   0.489  -0.197
    1UNL    C21   28   0.597   0.602  -0.229
    1UNL    C22   29   0.492   0.361  -0.266
    1UNL    C23   30   0.553   0.250  -0.183
    1UNL    C24   31   0.522   0.109  -0.216
    1UNL    C25   32   0.609   0.008  -0.226
    1UNL    C26   33   0.756   0.019  -0.204
    1UNL    C27   34   0.547  -0.124  -0.256
    1UNL     O8   35   0.440  -0.167  -0.173
    1UNL    C28   36   0.419  -0.310  -0.153
    1UNL     O9   37   0.426  -0.387  -0.274
    1UNL    C29   38   0.433  -0.527  -0.239
    1UNL    C30   39   0.431  -0.611  -0.367
    1UNL    C31   40   0.313  -0.577  -0.153
    1UNL    O10   41   0.335  -0.701  -0.086
    1UNL    C32   42   0.284  -0.474  -0.036
    1UNL    O11   43   0.164  -0.511   0.031
    1UNL    C33   44   0.290  -0.329  -0.072
    1UNL    O12   45   0.300  -0.241   0.036
    1UNL    C34   46   0.003   0.343  -0.183
    1UNL    O13   47   0.027   0.208  -0.224
    1UNL    O14   48   0.092   0.232   0.277
    1UNL    C35   49   0.152   0.105   0.310
    1UNL    C36   50   0.083   0.036   0.431
    1UNL    C37   51   0.143   0.005   0.190
    1UNL    O15   52   0.218   0.059   0.079
    1UNL    C38   53  -0.002  -0.029   0.141
    1UNL    O16   54  -0.066  -0.128   0.216
    1UNL    C39   55  -0.035  -0.258   0.167
    1UNL    O17   56   0.066  -0.332   0.237
    1UNL    C40   57   0.030  -0.370   0.375
    1UNL    C41   58   0.039  -0.521   0.383
    1UNL    C42   59  -0.116  -0.313   0.425
    1UNL    O18   60  -0.147  -0.380   0.543
    1UNL    C43   61  -0.226  -0.336   0.316
    1UNL    O19   62  -0.334  -0.247   0.334
    1UNL    C44   63  -0.176  -0.328   0.165
    1UNL    O20   64  -0.267  -0.264   0.080
    1UNL     H1   65  -1.106  -0.040  -0.118
    1UNL     H2   66  -1.046   0.050   0.027
    1UNL     H3   67  -1.091  -0.108   0.042
    1UNL     H4   68  -0.785  -0.223  -0.188
    1UNL     H5   69  -1.077  -0.278  -0.188
    1UNL     H6   70  -0.980  -0.292  -0.339
    1UNL     H7   71  -1.018  -0.045  -0.348
    1UNL     H8   72  -0.817  -0.006   0.104
    1UNL     H9   73  -0.754  -0.165   0.057
    1UNL    H10   74  -0.638  -0.060  -0.138
    1UNL    H11   75  -0.704   0.083  -0.102
    1UNL    H12   76  -0.570  -0.056   0.137
    1UNL    H13   77  -0.451   0.218  -0.109
    1UNL    H14   78  -0.314   0.111  -0.156
    1UNL    H15   79  -0.479   0.059  -0.193
    1UNL    H16   80  -0.142   0.082   0.264
    1UNL    H17   81  -0.082   0.305   0.203
    1UNL    H18   82  -0.153   0.289  -0.038
    1UNL    H19   83  -0.005   0.489   0.102
    1UNL    H20   84  -0.251   0.442   0.063
    1UNL    H21   85  -0.079   0.604  -0.181
    1UNL    H22   86  -0.093   0.771   0.019
    1UNL    H23   87   0.025   0.804  -0.113
    1UNL    H24   88   0.074   0.741   0.043
    1UNL    H25   89   0.152   0.442  -0.311
    1UNL    H26   90   0.233   0.472   0.021
    1UNL    H27   91   0.350   0.339   0.026
    1UNL    H28   92   0.404   0.616  -0.055
    1UNL    H29   93   0.578   0.696  -0.175
    1UNL    H30   94   0.586   0.621  -0.338
    1UNL    H31   95   0.694   0.577  -0.211
    1UNL    H32   96   0.388   0.341  -0.295
    1UNL    H33   97   0.552   0.375  -0.357
    1UNL    H34   98   0.660   0.267  -0.186
    1UNL    H35   99   0.531   0.267  -0.073
    1UNL    H36  100   0.420   0.084  -0.228
    1UNL    H37  101   0.795   0.100  -0.275
    1UNL    H38  102   0.812  -0.075  -0.243
    1UNL    H39  103   0.792   0.055  -0.106
    1UNL    H40  104   0.624  -0.199  -0.265
    1UNL    H41  105   0.499  -0.116  -0.353
    1UNL    H42  106   0.504  -0.335  -0.095
    1UNL    H43  107   0.527  -0.558  -0.182
    1UNL    H44  108   0.334  -0.593  -0.407
    1UNL    H45  109   0.501  -0.582  -0.440
    1UNL    H46  110   0.428  -0.721  -0.346
    1UNL    H47  111   0.233  -0.595  -0.223
    1UNL    H48  112   0.290  -0.698  -0.002
    1UNL    H49  113   0.358  -0.484   0.047
    1UNL    H50  114   0.135  -0.441   0.087
    1UNL    H51  115   0.209  -0.300  -0.140
    1UNL    H52  116   0.302  -0.141   0.003
    1UNL    H53  117  -0.072   0.381  -0.261
    1UNL    H54  118   0.076   0.161  -0.150
    1UNL    H55  119   0.258   0.122   0.331
    1UNL    H56  120   0.086   0.102   0.523
    1UNL    H57  121  -0.021   0.016   0.399
    1UNL    H58  122   0.123  -0.056   0.467
    1UNL    H59  123   0.198  -0.083   0.231
    1UNL    H60  124   0.188   0.154   0.061
    1UNL    H61  125  -0.001  -0.056   0.037
    1UNL    H62  126   0.010  -0.260   0.064
    1UNL    H63  127   0.106  -0.326   0.439
    1UNL    H64  128   0.009  -0.563   0.483
    1UNL    H65  129   0.139  -0.560   0.357
    1UNL    H66  130  -0.036  -0.560   0.310
    1UNL    H67  131  -0.105  -0.205   0.451
    1UNL    H68  132  -0.238  -0.356   0.570
    1UNL    H69  133  -0.273  -0.435   0.329
    1UNL    H70  134  -0.324  -0.160   0.296
    1UNL    H71  135  -0.162  -0.432   0.128
    1UNL    H72  136  -0.282  -0.175   0.122
   0.00000   0.00000   0.00000   0.00000   0.00000   0.00000   0.00000   0.00000   0.00000
Generated with MDTraj, t= 56.0
 136
    1UNL     C1    1  -1.029  -0.037  -0.030
    1UNL     C2    2  -0.904  -0.099  -0.075
    1UNL     C3    3  -0.895  -0.177  -0.179
    1UNL     C4    4  -1.008  -0.217  -0.276
    1UNL     O1    5  -1.102  -0.112  -0.306
    1UNL     C5    6  -0.785  -0.092   0.011
    1UNL     C6    7  -0.653  -0.043  -0.059
    1UNL     C7    8  -0.545  -0.014   0.038
    1UNL     C8    9  -0.438   0.062   0.006
    1UNL     C9   10  -0.412   0.111  -0.136
    1UNL    C10   11  -0.321   0.052   0.099
    1UNL     O2   12  -0.324  -0.021   0.202
    1UNL     O3   13  -0.204   0.124   0.071
    1UNL    C11   14  -0.108   0.121   0.169
    1UNL    C12   15  -0.019   0.244   0.168
    1UNL     O4   16   0.049   0.256   0.041
    1UNL    C13   17  -0.033   0.335  -0.046
    1UNL    C14   18  -0.051   0.478   0.006
    1UNL     O5   19  -0.188   0.507   0.038
    1UNL    C15   20  -0.006   0.588  -0.099
    1UNL    C16   21  -0.005   0.723  -0.027
    1UNL     O6   22   0.124   0.559  -0.144
    1UNL    C17   23   0.143   0.426  -0.204
    1UNL     O7   24   0.257   0.359  -0.145
    1UNL    C18   25   0.336   0.433  -0.050
    1UNL    C19   26   0.442   0.521  -0.109
    1UNL    C20   27   0.524   0.493  -0.213
    1UNL    C21   28   0.628   0.588  -0.249
    1UNL    C22   29   0.515   0.354  -0.275
    1UNL    C23   30   0.573   0.238  -0.195
    1UNL    C24   31   0.521   0.107  -0.244
    1UNL    C25   32   0.590  -0.006  -0.232
    1UNL    C26   33   0.725  -0.010  -0.177
    1UNL    C27   34   0.508  -0.119  -0.279
    1UNL     O8   35   0.395  -0.141  -0.199
    1UNL    C28   36   0.386  -0.277  -0.161
    1UNL     O9   37   0.412  -0.363  -0.272
    1UNL    C29   38   0.425  -0.501  -0.235
    1UNL    C30   39   0.444  -0.587  -0.352
    1UNL    C31   40   0.304  -0.552  -0.154
    1UNL    O10   41   0.310  -0.691  -0.136
    1UNL    C32   42   0.277  -0.459  -0.029
    1UNL    O11   43   0.160  -0.515   0.035
    1UNL    C33   44   0.264  -0.309  -0.074
    1UNL    O12   45   0.267  -0.234   0.042
    1UNL    C34   46   0.023   0.335  -0.191
    1UNL    O13   47   0.067   0.210  -0.221
    1UNL    O14   48   0.061   0.232   0.288
    1UNL    C35   49   0.118   0.103   0.329
    1UNL    C36   50   0.038   0.046   0.447
    1UNL    C37   51   0.126   0.006   0.209
    1UNL    O15   52   0.212   0.047   0.100
    1UNL    C38   53  -0.019  -0.010   0.162
    1UNL    O16   54  -0.068  -0.127   0.235
    1UNL    C39   55  -0.031  -0.249   0.183
    1UNL    O17   56   0.070  -0.301   0.260
    1UNL    C40   57   0.039  -0.354   0.398
    1UNL    C41   58   0.096  -0.488   0.420
    1UNL    C42   59  -0.115  -0.337   0.434
    1UNL    O18   60  -0.139  -0.419   0.549
    1UNL    C43   61  -0.215  -0.372   0.317
    1UNL    O19   62  -0.338  -0.301   0.326
    1UNL    C44   63  -0.157  -0.345   0.175
    1UNL    O20   64  -0.242  -0.284   0.084
    1UNL     H1   65  -1.111  -0.056  -0.096
    1UNL     H2   66  -1.020   0.070  -0.002
    1UNL     H3   67  -1.048  -0.077   0.070
    1UNL     H4   68  -0.805  -0.228  -0.192
    1UNL     H5   69  -1.072  -0.291  -0.225
    1UNL     H6   70  -0.967  -0.255  -0.368
    1UNL     H7   71  -1.069  -0.022  -0.326
    1UNL     H8   72  -0.815  -0.021   0.089
    1UNL     H9   73  -0.770  -0.190   0.065
    1UNL    H10   74  -0.628  -0.108  -0.148
    1UNL    H11   75  -0.662   0.048  -0.116
    1UNL    H12   76  -0.576  -0.069   0.126
    1UNL    H13   77  -0.459   0.210  -0.149
    1UNL    H14   78  -0.308   0.120  -0.159
    1UNL    H15   79  -0.454   0.042  -0.211
    1UNL    H16   80  -0.154   0.120   0.272
    1UNL    H17   81  -0.079   0.334   0.199
    1UNL    H18   82  -0.128   0.282  -0.050
    1UNL    H19   83   0.006   0.487   0.102
    1UNL    H20   84  -0.222   0.436   0.101
    1UNL    H21   85  -0.072   0.593  -0.187
    1UNL    H22   86  -0.096   0.745   0.027
    1UNL    H23   87   0.022   0.796  -0.105
    1UNL    H24   88   0.082   0.720   0.043
    1UNL    H25   89   0.160   0.449  -0.312
    1UNL    H26   90   0.270   0.475   0.030
    1UNL    H27   91   0.381   0.352   0.011
    1UNL    H28   92   0.442   0.618  -0.062
    1UNL    H29   93   0.643   0.658  -0.166
    1UNL    H30   94   0.596   0.636  -0.343
    1UNL    H31   95   0.716   0.534  -0.266
    1UNL    H32   96   0.404   0.345  -0.293
    1UNL    H33   97   0.565   0.356  -0.371
    1UNL    H34   98   0.681   0.245  -0.182
    1UNL    H35   99   0.539   0.250  -0.088
    1UNL    H36  100   0.417   0.103  -0.281
    1UNL    H37  101   0.800   0.010  -0.266
    1UNL    H38  102   0.761  -0.113  -0.143
    1UNL    H39  103   0.753   0.065  -0.103
    1UNL    H40  104   0.567  -0.209  -0.284
    1UNL    H41  105   0.472  -0.101  -0.378
    1UNL    H42  106   0.466  -0.279  -0.089
    1UNL    H43  107   0.515  -0.496  -0.164
    1UNL    H44  108   0.352  -0.596  -0.403
    1UNL    H45  109   0.513  -0.561  -0.425
    1UNL    H46  110   0.460  -0.693  -0.319
    1UNL    H47  111   0.224  -0.533  -0.228
    1UNL    H48  112   0.266  -0.706  -0.050
    1UNL    H49  113   0.351  -0.472   0.050
    1UNL    H50  114   0.133  -0.453   0.105
    1UNL    H51  115   0.171  -0.298  -0.130
    1UNL    H52  116   0.270  -0.132   0.032
    1UNL    H53  117  -0.051   0.365  -0.270
    1UNL    H54  118   0.112   0.177  -0.143
    1UNL    H55  119   0.225   0.131   0.345
    1UNL    H56  120   0.021   0.107   0.538
    1UNL    H57  121  -0.056   0.010   0.405
    1UNL    H58  122   0.090  -0.045   0.486
    1UNL    H59  123   0.167  -0.091   0.251
    1UNL    H60  124   0.197   0.140   0.091
    1UNL    H61  125  -0.007  -0.038   0.062
    1UNL    H62  126  -0.000  -0.251   0.075
    1UNL    H63  127   0.093  -0.286   0.460
    1UNL    H64  128   0.066  -0.528   0.521
    1UNL    H65  129   0.204  -0.482   0.414
    1UNL    H66  130   0.049  -0.560   0.341
    1UNL    H67  131  -0.122  -0.230   0.464
    1UNL    H68  132  -0.229  -0.397   0.584
    1UNL    H69  133  -0.245  -0.479   0.327
    1UNL    H70  134  -0.344  -0.204   0.300
    1UNL    H71  135  -0.123  -0.442   0.136
    1UNL    H72  136  -0.266  -0.196   0.122
   0.00000   0.00000   0.00000   0.00000   0.00000   0.00000   0.00000   0.00000   0.00000
Generated with MDTraj, t= 57.0
 136
    1UNL     C1    1  -1.022  -0.041  -0.026
    1UNL     C2    2  -0.909  -0.124  -0.075
    1UNL     C3    3  -0.915  -0.204  -0.179
    1UNL     C4    4  -1.035  -0.207  -0.269
    1UNL     O1    5  -1.080  -0.082  -0.300
    1UNL     C5    6  -0.771  -0.111  -0.006
    1UNL     C6    7  -0.656  -0.026  -0.063
    1UNL     C7    8  -0.532  -0.044   0.011
    1UNL     C8    9  -0.422   0.031  -0.015
    1UNL     C9   10  -0.382   0.105  -0.139
    1UNL    C10   11  -0.313   0.030   0.089
    1UNL     O2   12  -0.331  -0.052   0.179
    1UNL     O3   13  -0.215   0.124   0.077
    1UNL    C11   14  -0.109   0.117   0.171
    1UNL    C12   15  -0.022   0.252   0.185
    1UNL     O4   16   0.056   0.268   0.063
    1UNL    C13   17  -0.024   0.330  -0.035
    1UNL    C14   18  -0.051   0.478   0.006
    1UNL     O5   19  -0.187   0.503   0.036
    1UNL    C15   20  -0.002   0.574  -0.104
    1UNL    C16   21  -0.024   0.721  -0.073
    1UNL     O6   22   0.135   0.557  -0.124
    1UNL    C17   23   0.167   0.425  -0.182
    1UNL     O7   24   0.281   0.365  -0.124
    1UNL    C18   25   0.366   0.448  -0.047
    1UNL    C19   26   0.459   0.543  -0.110
    1UNL    C20   27   0.544   0.503  -0.204
    1UNL    C21   28   0.639   0.604  -0.258
    1UNL    C22   29   0.522   0.368  -0.274
    1UNL    C23   30   0.604   0.249  -0.218
    1UNL    C24   31   0.531   0.131  -0.269
    1UNL    C25   32   0.561   0.003  -0.256
    1UNL    C26   33   0.683  -0.030  -0.169
    1UNL    C27   34   0.461  -0.104  -0.296
    1UNL     O8   35   0.374  -0.132  -0.189
    1UNL    C28   36   0.380  -0.270  -0.156
    1UNL     O9   37   0.400  -0.360  -0.263
    1UNL    C29   38   0.406  -0.501  -0.228
    1UNL    C30   39   0.448  -0.590  -0.347
    1UNL    C31   40   0.274  -0.544  -0.153
    1UNL    O10   41   0.266  -0.679  -0.139
    1UNL    C32   42   0.254  -0.460  -0.031
    1UNL    O11   43   0.148  -0.496   0.050
    1UNL    C33   44   0.257  -0.309  -0.077
    1UNL    O12   45   0.246  -0.238   0.042
    1UNL    C34   46   0.046   0.325  -0.178
    1UNL    O13   47   0.081   0.193  -0.211
    1UNL    O14   48   0.051   0.251   0.308
    1UNL    C35   49   0.123   0.124   0.333
    1UNL    C36   50   0.075   0.073   0.467
    1UNL    C37   51   0.115   0.016   0.213
    1UNL    O15   52   0.201   0.033   0.098
    1UNL    C38   53  -0.024  -0.008   0.155
    1UNL    O16   54  -0.090  -0.127   0.217
    1UNL    C39   55  -0.026  -0.245   0.182
    1UNL    O17   56   0.079  -0.298   0.267
    1UNL    C40   57   0.044  -0.338   0.404
    1UNL    C41   58   0.099  -0.469   0.429
    1UNL    C42   59  -0.112  -0.340   0.423
    1UNL    O18   60  -0.147  -0.392   0.557
    1UNL    C43   61  -0.193  -0.405   0.309
    1UNL    O19   62  -0.327  -0.354   0.327
    1UNL    C44   63  -0.131  -0.360   0.173
    1UNL    O20   64  -0.238  -0.327   0.088
    1UNL     H1   65  -1.117  -0.084  -0.059
    1UNL     H2   66  -1.013   0.062  -0.053
    1UNL     H3   67  -1.009  -0.036   0.083
    1UNL     H4   68  -0.820  -0.243  -0.216
    1UNL     H5   69  -1.110  -0.274  -0.229
    1UNL     H6   70  -0.999  -0.236  -0.366
    1UNL     H7   71  -1.000  -0.033  -0.329
    1UNL     H8   72  -0.782  -0.079   0.097
    1UNL     H9   73  -0.731  -0.219   0.005
    1UNL    H10   74  -0.640  -0.026  -0.173
    1UNL    H11   75  -0.692   0.075  -0.059
    1UNL    H12   76  -0.562  -0.090   0.105
    1UNL    H13   77  -0.467   0.168  -0.165
    1UNL    H14   78  -0.289   0.162  -0.128
    1UNL    H15   79  -0.371   0.032  -0.221
    1UNL    H16   80  -0.165   0.110   0.268
    1UNL    H17   81  -0.099   0.330   0.191
    1UNL    H18   82  -0.119   0.276  -0.039
    1UNL    H19   83   0.009   0.500   0.099
    1UNL    H20   84  -0.241   0.519  -0.052
    1UNL    H21   85  -0.036   0.550  -0.205
    1UNL    H22   86  -0.132   0.744  -0.078
    1UNL    H23   87   0.035   0.775  -0.143
    1UNL    H24   88   0.019   0.743   0.029
    1UNL    H25   89   0.188   0.447  -0.288
    1UNL    H26   90   0.297   0.495   0.022
    1UNL    H27   91   0.416   0.380   0.021
    1UNL    H28   92   0.449   0.643  -0.074
    1UNL    H29   93   0.716   0.642  -0.191
    1UNL    H30   94   0.587   0.682  -0.308
    1UNL    H31   95   0.695   0.554  -0.338
    1UNL    H32   96   0.412   0.336  -0.267
    1UNL    H33   97   0.539   0.384  -0.380
    1UNL    H34   98   0.713   0.261  -0.240
    1UNL    H35   99   0.598   0.257  -0.107
    1UNL    H36  100   0.430   0.142  -0.297
    1UNL    H37  101   0.771   0.038  -0.202
    1UNL    H38  102   0.718  -0.133  -0.195
    1UNL    H39  103   0.665  -0.011  -0.058
    1UNL    H40  104   0.519  -0.193  -0.317
    1UNL    H41  105   0.401  -0.083  -0.384
    1UNL    H42  106   0.462  -0.268  -0.083
    1UNL    H43  107   0.485  -0.499  -0.145
    1UNL    H44  108   0.383  -0.565  -0.427
    1UNL    H45  109   0.544  -0.566  -0.385
    1UNL    H46  110   0.434  -0.699  -0.338
    1UNL    H47  111   0.194  -0.511  -0.224
    1UNL    H48  112   0.213  -0.699  -0.055
    1UNL    H49  113   0.335  -0.476   0.041
    1UNL    H50  114   0.139  -0.429   0.126
    1UNL    H51  115   0.176  -0.287  -0.146
    1UNL    H52  116   0.249  -0.141   0.025
    1UNL    H53  117  -0.029   0.351  -0.256
    1UNL    H54  118   0.139   0.164  -0.138
    1UNL    H55  119   0.230   0.165   0.326
    1UNL    H56  120   0.084   0.147   0.546
    1UNL    H57  121  -0.029   0.043   0.452
    1UNL    H58  122   0.139  -0.015   0.503
    1UNL    H59  123   0.139  -0.082   0.267
    1UNL    H60  124   0.207   0.133   0.082
    1UNL    H61  125  -0.021  -0.021   0.051
    1UNL    H62  126   0.022  -0.226   0.084
    1UNL    H63  127   0.082  -0.268   0.474
    1UNL    H64  128   0.091  -0.500   0.536
    1UNL    H65  129   0.205  -0.463   0.396
    1UNL    H66  130   0.035  -0.542   0.367
    1UNL    H67  131  -0.130  -0.231   0.418
    1UNL    H68  132  -0.246  -0.385   0.556
    1UNL    H69  133  -0.197  -0.516   0.312
    1UNL    H70  134  -0.322  -0.258   0.301
    1UNL    H71  135  -0.081  -0.443   0.126
    1UNL    H72  136  -0.279  -0.245   0.121
   0.00000   0.00000   0.00000   0.00000   0.00000   0.00000   0.00000   0.00000   0.00000
Generated with MDTraj, t= 58.0
 136
    1UNL     C1    1  -0.976  -0.036  -0.029
    1UNL     C2    2  -0.877  -0.127  -0.093
    1UNL     C3    3  -0.919  -0.201  -0.193
    1UNL     C4    4  -1.056  -0.186  -0.259
    1UNL     O1    5  -1.069  -0.059  -0.319
    1UNL     C5    6  -0.757  -0.158  -0.016
    1UNL     C6    7  -0.656  -0.064  -0.062
    1UNL     C7    8  -0.546  -0.028   0.024
    1UNL     C8    9  -0.438   0.037  -0.013
    1UNL     C9   10  -0.409   0.081  -0.149
    1UNL    C10   11  -0.321   0.019   0.082
    1UNL     O2   12  -0.331  -0.061   0.174
    1UNL     O3   13  -0.209   0.093   0.056
    1UNL    C11   14  -0.115   0.093   0.162
    1UNL    C12   15  -0.042   0.231   0.183
    1UNL     O4   16   0.043   0.261   0.072
    1UNL    C13   17  -0.027   0.317  -0.037
    1UNL    C14   18  -0.058   0.470  -0.007
    1UNL     O5   19  -0.189   0.504   0.035
    1UNL    C15   20   0.005   0.571  -0.112
    1UNL    C16   21  -0.027   0.715  -0.074
    1UNL     O6   22   0.149   0.554  -0.124
    1UNL    C17   23   0.183   0.417  -0.168
    1UNL     O7   24   0.293   0.361  -0.105
    1UNL    C18   25   0.376   0.442  -0.020
    1UNL    C19   26   0.478   0.534  -0.088
    1UNL    C20   27   0.534   0.511  -0.205
    1UNL    C21   28   0.636   0.611  -0.249
    1UNL    C22   29   0.501   0.396  -0.286
    1UNL    C23   30   0.562   0.260  -0.247
    1UNL    C24   31   0.497   0.137  -0.302
    1UNL    C25   32   0.532   0.016  -0.257
    1UNL    C26   33   0.634  -0.007  -0.157
    1UNL    C27   34   0.457  -0.106  -0.293
    1UNL     O8   35   0.368  -0.139  -0.191
    1UNL    C28   36   0.376  -0.275  -0.155
    1UNL     O9   37   0.384  -0.366  -0.268
    1UNL    C29   38   0.385  -0.498  -0.233
    1UNL    C30   39   0.412  -0.579  -0.355
    1UNL    C31   40   0.259  -0.550  -0.151
    1UNL    O10   41   0.249  -0.684  -0.103
    1UNL    C32   42   0.245  -0.457  -0.024
    1UNL    O11   43   0.134  -0.476   0.054
    1UNL    C33   44   0.261  -0.307  -0.056
    1UNL    O12   45   0.269  -0.231   0.061
    1UNL    C34   46   0.066   0.310  -0.169
    1UNL    O13   47   0.136   0.183  -0.182
    1UNL    O14   48   0.025   0.225   0.313
    1UNL    C35   49   0.129   0.123   0.334
    1UNL    C36   50   0.111   0.047   0.468
    1UNL    C37   51   0.136   0.019   0.208
    1UNL    O15   52   0.213   0.068   0.101
    1UNL    C38   53  -0.007  -0.015   0.149
    1UNL    O16   54  -0.055  -0.128   0.221
    1UNL    C39   55  -0.008  -0.248   0.170
    1UNL    O17   56   0.092  -0.304   0.261
    1UNL    C40   57   0.054  -0.339   0.396
    1UNL    C41   58   0.086  -0.478   0.447
    1UNL    C42   59  -0.104  -0.313   0.412
    1UNL    O18   60  -0.154  -0.345   0.548
    1UNL    C43   61  -0.181  -0.388   0.307
    1UNL    O19   62  -0.311  -0.343   0.325
    1UNL    C44   63  -0.126  -0.349   0.165
    1UNL    O20   64  -0.226  -0.290   0.080
    1UNL     H1   65  -1.055  -0.096   0.018
    1UNL     H2   66  -1.020   0.035  -0.094
    1UNL     H3   67  -0.928   0.027   0.047
    1UNL     H4   68  -0.845  -0.272  -0.234
    1UNL     H5   69  -1.132  -0.174  -0.185
    1UNL     H6   70  -1.076  -0.273  -0.318
    1UNL     H7   71  -1.024  -0.061  -0.408
    1UNL     H8   72  -0.773  -0.155   0.091
    1UNL     H9   73  -0.722  -0.267  -0.041
    1UNL    H10   74  -0.635  -0.096  -0.169
    1UNL    H11   75  -0.706   0.026  -0.093
    1UNL    H12   76  -0.571  -0.061   0.124
    1UNL    H13   77  -0.505   0.120  -0.182
    1UNL    H14   78  -0.319   0.148  -0.148
    1UNL    H15   79  -0.392  -0.012  -0.207
    1UNL    H16   80  -0.171   0.069   0.254
    1UNL    H17   81  -0.113   0.312   0.185
    1UNL    H18   82  -0.121   0.262  -0.047
    1UNL    H19   83  -0.003   0.494   0.088
    1UNL    H20   84  -0.247   0.511  -0.048
    1UNL    H21   85  -0.029   0.538  -0.210
    1UNL    H22   86  -0.134   0.737  -0.050
    1UNL    H23   87   0.005   0.778  -0.152
    1UNL    H24   88   0.037   0.748   0.011
    1UNL    H25   89   0.214   0.435  -0.271
    1UNL    H26   90   0.308   0.503   0.035
    1UNL    H27   91   0.416   0.375   0.052
    1UNL    H28   92   0.510   0.617  -0.023
    1UNL    H29   93   0.724   0.619  -0.189
    1UNL    H30   94   0.596   0.705  -0.264
    1UNL    H31   95   0.681   0.586  -0.351
    1UNL    H32   96   0.388   0.390  -0.280
    1UNL    H33   97   0.525   0.414  -0.391
    1UNL    H34   98   0.671   0.264  -0.276
    1UNL    H35   99   0.566   0.259  -0.137
    1UNL    H36  100   0.397   0.146  -0.348
    1UNL    H37  101   0.702   0.079  -0.141
    1UNL    H38  102   0.705  -0.086  -0.195
    1UNL    H39  103   0.590  -0.036  -0.049
    1UNL    H40  104   0.526  -0.190  -0.311
    1UNL    H41  105   0.404  -0.091  -0.388
    1UNL    H42  106   0.465  -0.282  -0.090
    1UNL    H43  107   0.470  -0.508  -0.161
    1UNL    H44  108   0.328  -0.557  -0.419
    1UNL    H45  109   0.502  -0.532  -0.399
    1UNL    H46  110   0.417  -0.684  -0.341
    1UNL    H47  111   0.171  -0.540  -0.221
    1UNL    H48  112   0.184  -0.692  -0.028
    1UNL    H49  113   0.326  -0.483   0.044
    1UNL    H50  114   0.133  -0.414   0.127
    1UNL    H51  115   0.169  -0.278  -0.108
    1UNL    H52  116   0.279  -0.138   0.042
    1UNL    H53  117  -0.004   0.313  -0.252
    1UNL    H54  118   0.217   0.180  -0.122
    1UNL    H55  119   0.228   0.182   0.336
    1UNL    H56  120   0.111   0.123   0.546
    1UNL    H57  121   0.012  -0.002   0.465
    1UNL    H58  122   0.199  -0.019   0.495
    1UNL    H59  123   0.195  -0.069   0.249
    1UNL    H60  124   0.158   0.149   0.078
    1UNL    H61  125  -0.005  -0.026   0.043
    1UNL    H62  126   0.044  -0.224   0.078
    1UNL    H63  127   0.101  -0.269   0.461
    1UNL    H64  128   0.047  -0.498   0.549
    1UNL    H65  129   0.199  -0.500   0.446
    1UNL    H66  130   0.029  -0.551   0.387
    1UNL    H67  131  -0.114  -0.207   0.393
    1UNL    H68  132  -0.249  -0.355   0.530
    1UNL    H69  133  -0.185  -0.498   0.323
    1UNL    H70  134  -0.314  -0.257   0.277
    1UNL    H71  135  -0.104  -0.440   0.112
    1UNL    H72  136  -0.256  -0.200   0.107
   0.00000   0.00000   0.00000   0.00000   0.00000   0.00000   0.00000   0.00000   0.00000
Generated with MDTraj, t= 59.0
 136
    1UNL     C1    1  -0.980  -0.024  -0.038
    1UNL     C2    2  -0.905  -0.141  -0.095
    1UNL     C3    3  -0.948  -0.216  -0.198
    1UNL     C4    4  -1.074  -0.179  -0.271
    1UNL     O1    5  -1.054  -0.048  -0.328
    1UNL     C5    6  -0.765  -0.170  -0.035
    1UNL     C6    7  -0.645  -0.072  -0.060
    1UNL     C7    8  -0.511  -0.079   0.006
    1UNL     C8    9  -0.406   0.001  -0.018
    1UNL     C9   10  -0.387   0.067  -0.139
    1UNL    C10   11  -0.305   0.024   0.089
    1UNL     O2   12  -0.326  -0.026   0.199
    1UNL     O3   13  -0.191   0.103   0.051
    1UNL    C11   14  -0.104   0.102   0.162
    1UNL    C12   15  -0.025   0.234   0.187
    1UNL     O4   16   0.061   0.273   0.081
    1UNL    C13   17  -0.009   0.321  -0.027
    1UNL    C14   18  -0.061   0.464   0.001
    1UNL     O5   19  -0.200   0.471  -0.005
    1UNL    C15   20   0.002   0.570  -0.098
    1UNL    C16   21  -0.018   0.713  -0.053
    1UNL     O6   22   0.139   0.536  -0.104
    1UNL    C17   23   0.180   0.400  -0.162
    1UNL     O7   24   0.292   0.345  -0.097
    1UNL    C18   25   0.366   0.441  -0.017
    1UNL    C19   26   0.453   0.545  -0.100
    1UNL    C20   27   0.517   0.528  -0.217
    1UNL    C21   28   0.632   0.614  -0.252
    1UNL    C22   29   0.490   0.404  -0.302
    1UNL    C23   30   0.548   0.276  -0.243
    1UNL    C24   31   0.505   0.145  -0.301
    1UNL    C25   32   0.523   0.026  -0.238
    1UNL    C26   33   0.617  -0.001  -0.129
    1UNL    C27   34   0.446  -0.092  -0.292
    1UNL     O8   35   0.349  -0.138  -0.202
    1UNL    C28   36   0.362  -0.274  -0.165
    1UNL     O9   37   0.352  -0.361  -0.275
    1UNL    C29   38   0.368  -0.500  -0.246
    1UNL    C30   39   0.364  -0.596  -0.375
    1UNL    C31   40   0.257  -0.546  -0.149
    1UNL    O10   41   0.260  -0.686  -0.126
    1UNL    C32   42   0.283  -0.464  -0.013
    1UNL    O11   43   0.180  -0.495   0.074
    1UNL    C33   44   0.270  -0.317  -0.051
    1UNL    O12   45   0.299  -0.244   0.062
    1UNL    C34   46   0.063   0.310  -0.163
    1UNL    O13   47   0.109   0.179  -0.184
    1UNL    O14   48   0.045   0.213   0.316
    1UNL    C35   49   0.145   0.114   0.328
    1UNL    C36   50   0.123   0.040   0.461
    1UNL    C37   51   0.150   0.015   0.205
    1UNL    O15   52   0.233   0.064   0.099
    1UNL    C38   53  -0.002  -0.009   0.146
    1UNL    O16   54  -0.062  -0.126   0.206
    1UNL    C39   55  -0.005  -0.249   0.181
    1UNL    O17   56   0.090  -0.299   0.280
    1UNL    C40   57   0.035  -0.334   0.412
    1UNL    C41   58   0.059  -0.478   0.458
    1UNL    C42   59  -0.117  -0.287   0.422
    1UNL    O18   60  -0.162  -0.335   0.557
    1UNL    C43   61  -0.200  -0.349   0.308
    1UNL    O19   62  -0.319  -0.282   0.299
    1UNL    C44   63  -0.126  -0.351   0.172
    1UNL    O20   64  -0.204  -0.306   0.060
    1UNL     H1   65  -0.989  -0.033   0.072
    1UNL     H2   66  -1.074  -0.012  -0.082
    1UNL     H3   67  -0.938   0.075  -0.059
    1UNL     H4   68  -0.877  -0.275  -0.241
    1UNL     H5   69  -1.159  -0.189  -0.207
    1UNL     H6   70  -1.087  -0.233  -0.364
    1UNL     H7   71  -0.977  -0.040  -0.390
    1UNL     H8   72  -0.787  -0.165   0.075
    1UNL     H9   73  -0.742  -0.281  -0.053
    1UNL    H10   74  -0.628  -0.067  -0.170
    1UNL    H11   75  -0.692   0.024  -0.053
    1UNL    H12   76  -0.531  -0.138   0.095
    1UNL    H13   77  -0.459   0.149  -0.148
    1UNL    H14   78  -0.278   0.100  -0.143
    1UNL    H15   79  -0.410   0.000  -0.223
    1UNL    H16   80  -0.158   0.066   0.247
    1UNL    H17   81  -0.087   0.318   0.203
    1UNL    H18   82  -0.091   0.247  -0.035
    1UNL    H19   83  -0.033   0.497   0.103
    1UNL    H20   84  -0.231   0.394   0.043
    1UNL    H21   85  -0.042   0.543  -0.193
    1UNL    H22   86  -0.126   0.733  -0.035
    1UNL    H23   87   0.018   0.790  -0.124
    1UNL    H24   88   0.038   0.736   0.036
    1UNL    H25   89   0.217   0.425  -0.260
    1UNL    H26   90   0.298   0.491   0.046
    1UNL    H27   91   0.429   0.388   0.052
    1UNL    H28   92   0.475   0.625  -0.034
    1UNL    H29   93   0.718   0.579  -0.201
    1UNL    H30   94   0.601   0.713  -0.233
    1UNL    H31   95   0.656   0.603  -0.363
    1UNL    H32   96   0.386   0.394  -0.313
    1UNL    H33   97   0.530   0.428  -0.401
    1UNL    H34   98   0.661   0.278  -0.232
    1UNL    H35   99   0.511   0.266  -0.142
    1UNL    H36  100   0.432   0.150  -0.377
    1UNL    H37  101   0.724   0.020  -0.152
    1UNL    H38  102   0.621  -0.115  -0.107
    1UNL    H39  103   0.589   0.053  -0.030
    1UNL    H40  104   0.519  -0.172  -0.319
    1UNL    H41  105   0.393  -0.072  -0.388
    1UNL    H42  106   0.466  -0.284  -0.123
    1UNL    H43  107   0.467  -0.512  -0.205
    1UNL    H44  108   0.261  -0.587  -0.408
    1UNL    H45  109   0.427  -0.543  -0.451
    1UNL    H46  110   0.382  -0.697  -0.362
    1UNL    H47  111   0.154  -0.517  -0.189
    1UNL    H48  112   0.267  -0.694  -0.030
    1UNL    H49  113   0.383  -0.478   0.030
    1UNL    H50  114   0.174  -0.426   0.138
    1UNL    H51  115   0.169  -0.300  -0.091
    1UNL    H52  116   0.270  -0.155   0.055
    1UNL    H53  117  -0.007   0.332  -0.241
    1UNL    H54  118   0.170   0.155  -0.114
    1UNL    H55  119   0.244   0.170   0.330
    1UNL    H56  120   0.125   0.121   0.539
    1UNL    H57  121   0.022  -0.009   0.468
    1UNL    H58  122   0.206  -0.025   0.489
    1UNL    H59  123   0.199  -0.077   0.244
    1UNL    H60  124   0.196   0.149   0.077
    1UNL    H61  125   0.010  -0.040   0.044
    1UNL    H62  126   0.046  -0.245   0.086
    1UNL    H63  127   0.093  -0.266   0.476
    1UNL    H64  128   0.008  -0.514   0.553
    1UNL    H65  129   0.173  -0.497   0.470
    1UNL    H66  130   0.018  -0.546   0.386
    1UNL    H67  131  -0.112  -0.180   0.421
    1UNL    H68  132  -0.258  -0.329   0.551
    1UNL    H69  133  -0.232  -0.448   0.348
    1UNL    H70  134  -0.309  -0.187   0.260
    1UNL    H71  135  -0.097  -0.456   0.158
    1UNL    H72  136  -0.228  -0.212   0.068
   0.00000   0.00000   0.00000   0.00000   0.00000   0.00000   0.00000   0.00000   0.00000
Generated with MDTraj, t= 60.0
 136
    1UNL     C1    1  -0.939  -0.000  -0.046
    1UNL     C2    2  -0.859  -0.114  -0.097
    1UNL     C3    3  -0.890  -0.197  -0.195
    1UNL     C4    4  -1.014  -0.187  -0.273
    1UNL     O1    5  -1.062  -0.056  -0.307
    1UNL     C5    6  -0.728  -0.153  -0.026
    1UNL     C6    7  -0.609  -0.079  -0.092
    1UNL     C7    8  -0.512  -0.034   0.008
    1UNL     C8    9  -0.396   0.032  -0.019
    1UNL     C9   10  -0.357   0.089  -0.144
    1UNL    C10   11  -0.293   0.034   0.097
    1UNL     O2   12  -0.308  -0.048   0.185
    1UNL     O3   13  -0.192   0.122   0.074
    1UNL    C11   14  -0.092   0.103   0.175
    1UNL    C12   15  -0.010   0.231   0.189
    1UNL     O4   16   0.057   0.265   0.069
    1UNL    C13   17  -0.028   0.313  -0.034
    1UNL    C14   18  -0.089   0.455  -0.007
    1UNL     O5   19  -0.228   0.457  -0.038
    1UNL    C15   20  -0.005   0.569  -0.078
    1UNL    C16   21  -0.037   0.714  -0.029
    1UNL     O6   22   0.135   0.538  -0.083
    1UNL    C17   23   0.161   0.418  -0.166
    1UNL     O7   24   0.282   0.359  -0.138
    1UNL    C18   25   0.359   0.423  -0.041
    1UNL    C19   26   0.454   0.531  -0.095
    1UNL    C20   27   0.522   0.525  -0.210
    1UNL    C21   28   0.584   0.648  -0.277
    1UNL    C22   29   0.520   0.400  -0.298
    1UNL    C23   30   0.565   0.275  -0.219
    1UNL    C24   31   0.518   0.144  -0.275
    1UNL    C25   32   0.514   0.019  -0.221
    1UNL    C26   33   0.597  -0.022  -0.099
    1UNL    C27   34   0.426  -0.087  -0.281
    1UNL     O8   35   0.342  -0.140  -0.185
    1UNL    C28   36   0.366  -0.280  -0.176
    1UNL     O9   37   0.334  -0.358  -0.293
    1UNL    C29   38   0.355  -0.498  -0.269
    1UNL    C30   39   0.300  -0.584  -0.386
    1UNL    C31   40   0.278  -0.553  -0.152
    1UNL    O10   41   0.285  -0.691  -0.128
    1UNL    C32   42   0.307  -0.472  -0.024
    1UNL    O11   43   0.231  -0.521   0.084
    1UNL    C33   44   0.284  -0.320  -0.056
    1UNL    O12   45   0.299  -0.240   0.064
    1UNL    C34   46   0.041   0.312  -0.173
    1UNL    O13   47   0.086   0.180  -0.201
    1UNL    O14   48   0.071   0.227   0.304
    1UNL    C35   49   0.148   0.103   0.312
    1UNL    C36   50   0.118   0.041   0.445
    1UNL    C37   51   0.141   0.001   0.193
    1UNL    O15   52   0.227   0.040   0.085
    1UNL    C38   53  -0.012  -0.019   0.154
    1UNL    O16   54  -0.074  -0.121   0.234
    1UNL    C39   55  -0.016  -0.247   0.209
    1UNL    O17   56   0.080  -0.307   0.298
    1UNL    C40   57   0.019  -0.339   0.425
    1UNL    C41   58   0.044  -0.487   0.449
    1UNL    C42   59  -0.126  -0.291   0.428
    1UNL    O18   60  -0.183  -0.306   0.566
    1UNL    C43   61  -0.209  -0.362   0.315
    1UNL    O19   62  -0.344  -0.316   0.304
    1UNL    C44   63  -0.135  -0.346   0.182
    1UNL    O20   64  -0.215  -0.306   0.068
    1UNL     H1   65  -0.881   0.044   0.035
    1UNL     H2   66  -1.032  -0.040  -0.010
    1UNL     H3   67  -0.979   0.075  -0.114
    1UNL     H4   68  -0.807  -0.275  -0.212
    1UNL     H5   69  -1.098  -0.217  -0.211
    1UNL     H6   70  -1.006  -0.252  -0.362
    1UNL     H7   71  -0.994  -0.005  -0.356
    1UNL     H8   72  -0.737  -0.121   0.084
    1UNL     H9   73  -0.725  -0.267  -0.024
    1UNL    H10   74  -0.565  -0.133  -0.179
    1UNL    H11   75  -0.649   0.006  -0.142
    1UNL    H12   76  -0.535  -0.083   0.102
    1UNL    H13   77  -0.409   0.185  -0.164
    1UNL    H14   78  -0.244   0.092  -0.153
    1UNL    H15   79  -0.398   0.030  -0.227
    1UNL    H16   80  -0.156   0.105   0.258
    1UNL    H17   81  -0.070   0.317   0.205
    1UNL    H18   82  -0.112   0.242  -0.033
    1UNL    H19   83  -0.085   0.490   0.097
    1UNL    H20   84  -0.261   0.370  -0.045
    1UNL    H21   85  -0.036   0.567  -0.183
    1UNL    H22   86  -0.137   0.737  -0.067
    1UNL    H23   87   0.039   0.790  -0.070
    1UNL    H24   88  -0.030   0.722   0.076
    1UNL    H25   89   0.184   0.443  -0.269
    1UNL    H26   90   0.294   0.460   0.036
    1UNL    H27   91   0.410   0.342   0.009
    1UNL    H28   92   0.440   0.625  -0.036
    1UNL    H29   93   0.684   0.624  -0.301
    1UNL    H30   94   0.562   0.740  -0.221
    1UNL    H31   95   0.537   0.658  -0.377
    1UNL    H32   96   0.422   0.384  -0.332
    1UNL    H33   97   0.582   0.414  -0.387
    1UNL    H34   98   0.677   0.275  -0.192
    1UNL    H35   99   0.512   0.280  -0.126
    1UNL    H36  100   0.449   0.156  -0.360
    1UNL    H37  101   0.698  -0.066  -0.131
    1UNL    H38  102   0.544  -0.114  -0.051
    1UNL    H39  103   0.600   0.064  -0.033
    1UNL    H40  104   0.494  -0.169  -0.319
    1UNL    H41  105   0.370  -0.055  -0.373
    1UNL    H42  106   0.474  -0.301  -0.149
    1UNL    H43  107   0.460  -0.502  -0.261
    1UNL    H44  108   0.202  -0.554  -0.428
    1UNL    H45  109   0.369  -0.578  -0.472
    1UNL    H46  110   0.285  -0.684  -0.357
    1UNL    H47  111   0.169  -0.539  -0.179
    1UNL    H48  112   0.329  -0.702  -0.041
    1UNL    H49  113   0.413  -0.485   0.005
    1UNL    H50  114   0.198  -0.446   0.142
    1UNL    H51  115   0.177  -0.320  -0.084
    1UNL    H52  116   0.324  -0.143   0.044
    1UNL    H53  117  -0.021   0.342  -0.253
    1UNL    H54  118   0.159   0.165  -0.140
    1UNL    H55  119   0.253   0.141   0.301
    1UNL    H56  120   0.135   0.118   0.527
    1UNL    H57  121   0.012   0.005   0.457
    1UNL    H58  122   0.187  -0.037   0.470
    1UNL    H59  123   0.170  -0.096   0.233
    1UNL    H60  124   0.191   0.123   0.044
    1UNL    H61  125  -0.010  -0.053   0.048
    1UNL    H62  126   0.046  -0.242   0.120
    1UNL    H63  127   0.082  -0.277   0.493
    1UNL    H64  128   0.013  -0.528   0.551
    1UNL    H65  129   0.156  -0.498   0.440
    1UNL    H66  130  -0.008  -0.546   0.375
    1UNL    H67  131  -0.118  -0.185   0.406
    1UNL    H68  132  -0.281  -0.309   0.548
    1UNL    H69  133  -0.233  -0.468   0.335
    1UNL    H70  134  -0.344  -0.227   0.271
    1UNL    H71  135  -0.078  -0.438   0.159
    1UNL    H72  136  -0.249  -0.216   0.094
   0.00000   0.00000   0.00000   0.00000   0.00000   0.00000   0.00000   0.00000   0.00000
Generated with MDTraj, t= 61.0
 136
    1UNL     C1    1  -0.956  -0.003  -0.052
    1UNL     C2    2  -0.845  -0.099  -0.099
    1UNL     C3    3  -0.868  -0.182  -0.201
    1UNL     C4    4  -0.995  -0.194  -0.276
    1UNL     O1    5  -1.047  -0.070  -0.322
    1UNL     C5    6  -0.713  -0.111  -0.035
    1UNL     C6    7  -0.592  -0.040  -0.099
    1UNL     C7    8  -0.476  -0.054  -0.008
    1UNL     C8    9  -0.366   0.027  -0.024
    1UNL     C9   10  -0.337   0.102  -0.155
    1UNL    C10   11  -0.281   0.043   0.099
    1UNL     O2   12  -0.304  -0.013   0.200
    1UNL     O3   13  -0.182   0.131   0.085
    1UNL    C11   14  -0.082   0.115   0.190
    1UNL    C12   15   0.013   0.237   0.191
    1UNL     O4   16   0.063   0.273   0.054
    1UNL    C13   17  -0.028   0.310  -0.049
    1UNL    C14   18  -0.099   0.447  -0.016
    1UNL     O5   19  -0.233   0.452  -0.061
    1UNL    C15   20  -0.028   0.569  -0.083
    1UNL    C16   21  -0.045   0.692   0.008
    1UNL     O6   22   0.113   0.550  -0.111
    1UNL    C17   23   0.144   0.426  -0.182
    1UNL     O7   24   0.261   0.353  -0.136
    1UNL    C18   25   0.345   0.423  -0.039
    1UNL    C19   26   0.424   0.535  -0.099
    1UNL    C20   27   0.499   0.518  -0.204
    1UNL    C21   28   0.578   0.638  -0.247
    1UNL    C22   29   0.498   0.392  -0.286
    1UNL    C23   30   0.584   0.271  -0.240
    1UNL    C24   31   0.522   0.140  -0.291
    1UNL    C25   32   0.507   0.029  -0.214
    1UNL    C26   33   0.565   0.005  -0.081
    1UNL    C27   34   0.442  -0.091  -0.270
    1UNL     O8   35   0.344  -0.136  -0.175
    1UNL    C28   36   0.337  -0.283  -0.168
    1UNL     O9   37   0.286  -0.359  -0.284
    1UNL    C29   38   0.330  -0.495  -0.277
    1UNL    C30   39   0.279  -0.561  -0.412
    1UNL    C31   40   0.277  -0.560  -0.141
    1UNL    O10   41   0.325  -0.695  -0.124
    1UNL    C32   42   0.311  -0.479  -0.014
    1UNL    O11   43   0.239  -0.536   0.091
    1UNL    C33   44   0.275  -0.332  -0.039
    1UNL    O12   45   0.314  -0.251   0.068
    1UNL    C34   46   0.030   0.312  -0.189
    1UNL    O13   47   0.079   0.188  -0.244
    1UNL    O14   48   0.125   0.221   0.283
    1UNL    C35   49   0.172   0.090   0.310
    1UNL    C36   50   0.118   0.029   0.440
    1UNL    C37   51   0.149  -0.003   0.189
    1UNL    O15   52   0.220   0.058   0.081
    1UNL    C38   53  -0.004  -0.016   0.164
    1UNL    O16   54  -0.047  -0.122   0.250
    1UNL    C39   55  -0.019  -0.256   0.202
    1UNL    O17   56   0.070  -0.317   0.295
    1UNL    C40   57   0.015  -0.347   0.430
    1UNL    C41   58   0.038  -0.497   0.479
    1UNL    C42   59  -0.131  -0.306   0.437
    1UNL    O18   60  -0.199  -0.351   0.565
    1UNL    C43   61  -0.212  -0.369   0.319
    1UNL    O19   62  -0.340  -0.311   0.323
    1UNL    C44   63  -0.147  -0.349   0.181
    1UNL    O20   64  -0.235  -0.295   0.081
    1UNL     H1   65  -0.913   0.096  -0.050
    1UNL     H2   66  -0.980  -0.026   0.053
    1UNL     H3   67  -1.057  -0.009  -0.093
    1UNL     H4   68  -0.786  -0.239  -0.227
    1UNL     H5   69  -1.066  -0.245  -0.209
    1UNL     H6   70  -0.984  -0.256  -0.368
    1UNL     H7   71  -0.969  -0.028  -0.364
    1UNL     H8   72  -0.729  -0.086   0.078
    1UNL     H9   73  -0.683  -0.220  -0.043
    1UNL    H10   74  -0.565  -0.091  -0.195
    1UNL    H11   75  -0.620   0.058  -0.130
    1UNL    H12   76  -0.493  -0.104   0.086
    1UNL    H13   77  -0.384   0.204  -0.152
    1UNL    H14   78  -0.228   0.091  -0.177
    1UNL    H15   79  -0.401   0.052  -0.228
    1UNL    H16   80  -0.146   0.117   0.274
    1UNL    H17   81  -0.035   0.325   0.226
    1UNL    H18   82  -0.100   0.229  -0.039
    1UNL    H19   83  -0.092   0.468   0.090
    1UNL    H20   84  -0.264   0.362  -0.037
    1UNL    H21   85  -0.073   0.590  -0.181
    1UNL    H22   86  -0.149   0.700   0.036
    1UNL    H23   87  -0.009   0.783  -0.047
    1UNL    H24   88   0.024   0.682   0.092
    1UNL    H25   89   0.173   0.439  -0.284
    1UNL    H26   90   0.269   0.466   0.029
    1UNL    H27   91   0.395   0.348   0.024
    1UNL    H28   92   0.425   0.622  -0.042
    1UNL    H29   93   0.636   0.611  -0.332
    1UNL    H30   94   0.639   0.692  -0.170
    1UNL    H31   95   0.519   0.713  -0.292
    1UNL    H32   96   0.398   0.359  -0.284
    1UNL    H33   97   0.516   0.405  -0.394
    1UNL    H34   98   0.687   0.281  -0.288
    1UNL    H35   99   0.601   0.269  -0.132
    1UNL    H36  100   0.461   0.147  -0.378
    1UNL    H37  101   0.658  -0.068  -0.085
    1UNL    H38  102   0.495  -0.046  -0.009
    1UNL    H39  103   0.590   0.102  -0.038
    1UNL    H40  104   0.516  -0.170  -0.297
    1UNL    H41  105   0.390  -0.069  -0.366
    1UNL    H42  106   0.449  -0.308  -0.168
    1UNL    H43  107   0.434  -0.482  -0.267
    1UNL    H44  108   0.170  -0.571  -0.422
    1UNL    H45  109   0.306  -0.513  -0.503
    1UNL    H46  110   0.312  -0.665  -0.421
    1UNL    H47  111   0.168  -0.582  -0.139
    1UNL    H48  112   0.359  -0.713  -0.031
    1UNL    H49  113   0.420  -0.478   0.012
    1UNL    H50  114   0.216  -0.466   0.161
    1UNL    H51  115   0.166  -0.317  -0.053
    1UNL    H52  116   0.308  -0.156   0.029
    1UNL    H53  117  -0.038   0.344  -0.261
    1UNL    H54  118   0.171   0.178  -0.203
    1UNL    H55  119   0.280   0.098   0.317
    1UNL    H56  120   0.151   0.085   0.532
    1UNL    H57  121   0.008   0.020   0.441
    1UNL    H58  122   0.168  -0.069   0.449
    1UNL    H59  123   0.182  -0.103   0.213
    1UNL    H60  124   0.179   0.141   0.045
    1UNL    H61  125  -0.014  -0.054   0.059
    1UNL    H62  126   0.024  -0.252   0.104
    1UNL    H63  127   0.077  -0.281   0.500
    1UNL    H64  128   0.002  -0.524   0.582
    1UNL    H65  129   0.147  -0.513   0.476
    1UNL    H66  130  -0.014  -0.570   0.409
    1UNL    H67  131  -0.131  -0.196   0.439
    1UNL    H68  132  -0.296  -0.351   0.546
    1UNL    H69  133  -0.236  -0.474   0.333
    1UNL    H70  134  -0.334  -0.216   0.298
    1UNL    H71  135  -0.111  -0.449   0.145
    1UNL    H72  136  -0.259  -0.200   0.111
   0.00000   0.00000   0.00000   0.00000   0.00000   0.00000   0.00000   0.00000   0.00000
Generated with MDTraj, t= 62.0
 136
    1UNL     C1    1  -0.977  -0.016  -0.065
    1UNL     C2    2  -0.863  -0.095  -0.104
    1UNL     C3    3  -0.870  -0.178  -0.210
    1UNL     C4    4  -0.997  -0.193  -0.294
    1UNL     O1    5  -1.022  -0.079  -0.370
    1UNL     C5    6  -0.730  -0.108  -0.027
    1UNL     C6    7  -0.599  -0.041  -0.083
    1UNL     C7    8  -0.493  -0.018   0.018
    1UNL     C8    9  -0.375   0.042  -0.008
    1UNL     C9   10  -0.345   0.096  -0.148
    1UNL    C10   11  -0.274   0.047   0.095
    1UNL     O2   12  -0.286  -0.000   0.201
    1UNL     O3   13  -0.157   0.111   0.069
    1UNL    C11   14  -0.063   0.100   0.174
    1UNL    C12   15   0.022   0.222   0.175
    1UNL     O4   16   0.069   0.259   0.042
    1UNL    C13   17  -0.033   0.302  -0.048
    1UNL    C14   18  -0.094   0.442   0.004
    1UNL     O5   19  -0.231   0.438  -0.024
    1UNL    C15   20  -0.033   0.565  -0.078
    1UNL    C16   21  -0.045   0.696  -0.002
    1UNL     O6   22   0.104   0.531  -0.093
    1UNL    C17   23   0.133   0.414  -0.182
    1UNL     O7   24   0.257   0.344  -0.153
    1UNL    C18   25   0.334   0.412  -0.048
    1UNL    C19   26   0.421   0.523  -0.094
    1UNL    C20   27   0.485   0.516  -0.207
    1UNL    C21   28   0.604   0.592  -0.229
    1UNL    C22   29   0.462   0.399  -0.294
    1UNL    C23   30   0.554   0.283  -0.246
    1UNL    C24   31   0.496   0.154  -0.288
    1UNL    C25   32   0.479   0.047  -0.210
    1UNL    C26   33   0.519   0.051  -0.068
    1UNL    C27   34   0.429  -0.082  -0.262
    1UNL     O8   35   0.346  -0.144  -0.163
    1UNL    C28   36   0.355  -0.285  -0.152
    1UNL     O9   37   0.309  -0.343  -0.277
    1UNL    C29   38   0.329  -0.492  -0.273
    1UNL    C30   39   0.267  -0.544  -0.404
    1UNL    C31   40   0.276  -0.563  -0.147
    1UNL    O10   41   0.315  -0.698  -0.121
    1UNL    C32   42   0.303  -0.477  -0.014
    1UNL    O11   43   0.224  -0.518   0.102
    1UNL    C33   44   0.275  -0.335  -0.036
    1UNL    O12   45   0.304  -0.263   0.085
    1UNL    C34   46   0.016   0.308  -0.192
    1UNL    O13   47   0.068   0.189  -0.249
    1UNL    O14   48   0.137   0.224   0.262
    1UNL    C35   49   0.197   0.101   0.299
    1UNL    C36   50   0.144   0.062   0.442
    1UNL    C37   51   0.170  -0.020   0.196
    1UNL    O15   52   0.249   0.016   0.081
    1UNL    C38   53   0.022  -0.032   0.155
    1UNL    O16   54  -0.037  -0.130   0.238
    1UNL    C39   55  -0.001  -0.260   0.196
    1UNL    O17   56   0.078  -0.333   0.298
    1UNL    C40   57   0.025  -0.341   0.427
    1UNL    C41   58   0.036  -0.492   0.469
    1UNL    C42   59  -0.130  -0.311   0.439
    1UNL    O18   60  -0.191  -0.384   0.553
    1UNL    C43   61  -0.220  -0.346   0.314
    1UNL    O19   62  -0.333  -0.256   0.333
    1UNL    C44   63  -0.139  -0.340   0.174
    1UNL    O20   64  -0.225  -0.265   0.086
    1UNL     H1   65  -0.976   0.072  -0.122
    1UNL     H2   66  -0.985   0.000   0.045
    1UNL     H3   67  -1.065  -0.076  -0.084
    1UNL     H4   68  -0.775  -0.232  -0.225
    1UNL     H5   69  -1.090  -0.212  -0.236
    1UNL     H6   70  -0.977  -0.278  -0.368
    1UNL     H7   71  -0.948  -0.054  -0.432
    1UNL     H8   72  -0.740  -0.053   0.077
    1UNL     H9   73  -0.710  -0.218  -0.012
    1UNL    H10   74  -0.566  -0.116  -0.160
    1UNL    H11   75  -0.617   0.051  -0.135
    1UNL    H12   76  -0.505  -0.067   0.113
    1UNL    H13   77  -0.369   0.206  -0.155
    1UNL    H14   78  -0.240   0.068  -0.170
    1UNL    H15   79  -0.414   0.050  -0.222
    1UNL    H16   80  -0.116   0.076   0.263
    1UNL    H17   81  -0.033   0.305   0.211
    1UNL    H18   82  -0.118   0.234  -0.040
    1UNL    H19   83  -0.085   0.460   0.111
    1UNL    H20   84  -0.263   0.350   0.020
    1UNL    H21   85  -0.082   0.556  -0.177
    1UNL    H22   86  -0.150   0.719   0.013
    1UNL    H23   87   0.003   0.776  -0.056
    1UNL    H24   88   0.011   0.692   0.095
    1UNL    H25   89   0.160   0.454  -0.279
    1UNL    H26   90   0.260   0.438   0.033
    1UNL    H27   91   0.394   0.331   0.003
    1UNL    H28   92   0.442   0.600  -0.017
    1UNL    H29   93   0.627   0.607  -0.333
    1UNL    H30   94   0.693   0.550  -0.174
    1UNL    H31   95   0.589   0.688  -0.196
    1UNL    H32   96   0.362   0.360  -0.294
    1UNL    H33   97   0.479   0.425  -0.398
    1UNL    H34   98   0.659   0.294  -0.287
    1UNL    H35   99   0.566   0.289  -0.134
    1UNL    H36  100   0.453   0.156  -0.388
    1UNL    H37  101   0.551  -0.049  -0.026
    1UNL    H38  102   0.437   0.077  -0.000
    1UNL    H39  103   0.595   0.132  -0.040
    1UNL    H40  104   0.515  -0.146  -0.290
    1UNL    H41  105   0.372  -0.062  -0.354
    1UNL    H42  106   0.464  -0.314  -0.129
    1UNL    H43  107   0.435  -0.499  -0.272
    1UNL    H44  108   0.159  -0.529  -0.411
    1UNL    H45  109   0.317  -0.492  -0.480
    1UNL    H46  110   0.284  -0.652  -0.426
    1UNL    H47  111   0.168  -0.571  -0.163
    1UNL    H48  112   0.410  -0.698  -0.093
    1UNL    H49  113   0.411  -0.490   0.012
    1UNL    H50  114   0.194  -0.446   0.157
    1UNL    H51  115   0.167  -0.323  -0.051
    1UNL    H52  116   0.297  -0.172   0.066
    1UNL    H53  117  -0.059   0.342  -0.253
    1UNL    H54  118   0.151   0.165  -0.202
    1UNL    H55  119   0.302   0.115   0.305
    1UNL    H56  120   0.146   0.150   0.507
    1UNL    H57  121   0.039   0.029   0.439
    1UNL    H58  122   0.216  -0.015   0.490
    1UNL    H59  123   0.207  -0.113   0.237
    1UNL    H60  124   0.221   0.103   0.045
    1UNL    H61  125   0.020  -0.081   0.051
    1UNL    H62  126   0.063  -0.255   0.111
    1UNL    H63  127   0.090  -0.275   0.496
    1UNL    H64  128  -0.014  -0.515   0.565
    1UNL    H65  129   0.139  -0.522   0.480
    1UNL    H66  130  -0.014  -0.558   0.387
    1UNL    H67  131  -0.141  -0.200   0.459
    1UNL    H68  132  -0.285  -0.361   0.545
    1UNL    H69  133  -0.260  -0.447   0.322
    1UNL    H70  134  -0.311  -0.164   0.299
    1UNL    H71  135  -0.119  -0.447   0.145
    1UNL    H72  136  -0.251  -0.184   0.128
   0.00000   0.00000   0.00000   0.00000   0.00000   0.00000   0.00000   0.00000   0.00000
Generated with MDTraj, t= 63.0
 136
    1UNL     C1    1  -0.981  -0.007  -0.096
    1UNL     C2    2  -0.860  -0.098  -0.106
    1UNL     C3    3  -0.851  -0.190  -0.204
    1UNL     C4    4  -0.947  -0.200  -0.319
    1UNL     O1    5  -0.962  -0.073  -0.373
    1UNL     C5    6  -0.756  -0.095  -0.002
    1UNL     C6    7  -0.633  -0.013  -0.052
    1UNL     C7    8  -0.519   0.000   0.044
    1UNL     C8    9  -0.393   0.038   0.003
    1UNL     C9   10  -0.353   0.071  -0.129
    1UNL    C10   11  -0.288   0.040   0.116
    1UNL     O2   12  -0.315   0.008   0.230
    1UNL     O3   13  -0.162   0.082   0.069
    1UNL    C11   14  -0.071   0.081   0.178
    1UNL    C12   15   0.004   0.220   0.172
    1UNL     O4   16   0.063   0.239   0.043
    1UNL    C13   17  -0.025   0.307  -0.055
    1UNL    C14   18  -0.073   0.443   0.002
    1UNL     O5   19  -0.210   0.441   0.033
    1UNL    C15   20  -0.026   0.574  -0.087
    1UNL    C16   21  -0.057   0.709  -0.021
    1UNL     O6   22   0.110   0.557  -0.138
    1UNL    C17   23   0.140   0.426  -0.205
    1UNL     O7   24   0.260   0.367  -0.172
    1UNL    C18   25   0.331   0.409  -0.056
    1UNL    C19   26   0.434   0.514  -0.078
    1UNL    C20   27   0.506   0.519  -0.190
    1UNL    C21   28   0.586   0.648  -0.236
    1UNL    C22   29   0.498   0.412  -0.295
    1UNL    C23   30   0.580   0.277  -0.278
    1UNL    C24   31   0.495   0.158  -0.303
    1UNL    C25   32   0.461   0.062  -0.217
    1UNL    C26   33   0.507   0.059  -0.073
    1UNL    C27   34   0.393  -0.068  -0.256
    1UNL     O8   35   0.339  -0.141  -0.147
    1UNL    C28   36   0.354  -0.287  -0.139
    1UNL     O9   37   0.316  -0.354  -0.263
    1UNL    C29   38   0.347  -0.498  -0.254
    1UNL    C30   39   0.304  -0.559  -0.389
    1UNL    C31   40   0.255  -0.562  -0.147
    1UNL    O10   41   0.271  -0.701  -0.155
    1UNL    C32   42   0.294  -0.493  -0.008
    1UNL    O11   43   0.199  -0.543   0.094
    1UNL    C33   44   0.274  -0.345  -0.024
    1UNL    O12   45   0.297  -0.284   0.104
    1UNL    C34   46   0.025   0.317  -0.203
    1UNL    O13   47   0.061   0.190  -0.262
    1UNL    O14   48   0.106   0.234   0.270
    1UNL    C35   49   0.180   0.113   0.295
    1UNL    C36   50   0.136   0.067   0.439
    1UNL    C37   51   0.172  -0.000   0.190
    1UNL    O15   52   0.238   0.042   0.069
    1UNL    C38   53   0.026  -0.041   0.163
    1UNL    O16   54  -0.010  -0.143   0.262
    1UNL    C39   55  -0.002  -0.274   0.204
    1UNL    O17   56   0.088  -0.350   0.285
    1UNL    C40   57   0.031  -0.371   0.414
    1UNL    C41   58   0.031  -0.523   0.443
    1UNL    C42   59  -0.115  -0.311   0.432
    1UNL    O18   60  -0.166  -0.339   0.562
    1UNL    C43   61  -0.211  -0.353   0.318
    1UNL    O19   62  -0.330  -0.280   0.321
    1UNL    C44   63  -0.134  -0.352   0.181
    1UNL    O20   64  -0.205  -0.276   0.077
    1UNL     H1   65  -1.030   0.020  -0.186
    1UNL     H2   66  -0.949   0.088  -0.048
    1UNL     H3   67  -1.045  -0.043  -0.017
    1UNL     H4   68  -0.766  -0.261  -0.194
    1UNL     H5   69  -1.048  -0.237  -0.286
    1UNL     H6   70  -0.911  -0.267  -0.406
    1UNL     H7   71  -0.887  -0.043  -0.430
    1UNL     H8   72  -0.805  -0.046   0.093
    1UNL     H9   73  -0.716  -0.199   0.015
    1UNL    H10   74  -0.588  -0.049  -0.149
    1UNL    H11   75  -0.673   0.084  -0.077
    1UNL    H12   76  -0.523  -0.055   0.138
    1UNL    H13   77  -0.384   0.174  -0.163
    1UNL    H14   78  -0.243   0.070  -0.133
    1UNL    H15   79  -0.383   0.004  -0.213
    1UNL    H16   80  -0.135   0.076   0.266
    1UNL    H17   81  -0.062   0.302   0.190
    1UNL    H18   82  -0.108   0.236  -0.055
    1UNL    H19   83  -0.015   0.462   0.092
    1UNL    H20   84  -0.237   0.355   0.083
    1UNL    H21   85  -0.084   0.562  -0.181
    1UNL    H22   86  -0.168   0.718  -0.016
    1UNL    H23   87  -0.025   0.790  -0.080
    1UNL    H24   88  -0.010   0.729   0.079
    1UNL    H25   89   0.149   0.461  -0.309
    1UNL    H26   90   0.256   0.442   0.023
    1UNL    H27   91   0.379   0.314  -0.017
    1UNL    H28   92   0.430   0.598  -0.015
    1UNL    H29   93   0.534   0.694  -0.320
    1UNL    H30   94   0.685   0.618  -0.268
    1UNL    H31   95   0.595   0.719  -0.158
    1UNL    H32   96   0.389   0.394  -0.304
    1UNL    H33   97   0.530   0.452  -0.390
    1UNL    H34   98   0.677   0.275  -0.336
    1UNL    H35   99   0.617   0.271  -0.170
    1UNL    H36  100   0.464   0.136  -0.404
    1UNL    H37  101   0.425   0.033  -0.014
    1UNL    H38  102   0.543   0.158  -0.040
    1UNL    H39  103   0.598  -0.013  -0.058
    1UNL    H40  104   0.465  -0.133  -0.305
    1UNL    H41  105   0.309  -0.053  -0.323
    1UNL    H42  106   0.465  -0.303  -0.118
    1UNL    H43  107   0.453  -0.510  -0.235
    1UNL    H44  108   0.202  -0.528  -0.405
    1UNL    H45  109   0.372  -0.538  -0.468
    1UNL    H46  110   0.304  -0.671  -0.374
    1UNL    H47  111   0.153  -0.539  -0.173
    1UNL    H48  112   0.242  -0.740  -0.071
    1UNL    H49  113   0.402  -0.514   0.013
    1UNL    H50  114   0.171  -0.468   0.154
    1UNL    H51  115   0.168  -0.324  -0.044
    1UNL    H52  116   0.293  -0.182   0.101
    1UNL    H53  117  -0.060   0.339  -0.256
    1UNL    H54  118   0.137   0.158  -0.215
    1UNL    H55  119   0.281   0.147   0.298
    1UNL    H56  120   0.154   0.152   0.507
    1UNL    H57  121   0.027   0.049   0.450
    1UNL    H58  122   0.199  -0.017   0.485
    1UNL    H59  123   0.227  -0.087   0.226
    1UNL    H60  124   0.210   0.136   0.050
    1UNL    H61  125   0.022  -0.077   0.054
    1UNL    H62  126   0.030  -0.260   0.104
    1UNL    H63  127   0.109  -0.315   0.479
    1UNL    H64  128   0.019  -0.549   0.550
    1UNL    H65  129   0.130  -0.566   0.416
    1UNL    H66  130  -0.043  -0.581   0.381
    1UNL    H67  131  -0.102  -0.199   0.419
    1UNL    H68  132  -0.251  -0.293   0.572
    1UNL    H69  133  -0.242  -0.457   0.330
    1UNL    H70  134  -0.310  -0.192   0.288
    1UNL    H71  135  -0.122  -0.458   0.147
    1UNL    H72  136  -0.199  -0.181   0.096
   0.00000   0.00000   0.00000   0.00000   0.00000   0.00000   0.00000   0.00000   0.00000
Generated with MDTraj, t= 64.0
 136
    1UNL     C1    1  -0.980  -0.000  -0.106
    1UNL     C2    2  -0.862  -0.092  -0.105
    1UNL     C3    3  -0.820  -0.177  -0.203
    1UNL     C4    4  -0.898  -0.201  -0.325
    1UNL     O1    5  -0.912  -0.084  -0.402
    1UNL     C5    6  -0.773  -0.081   0.019
    1UNL     C6    7  -0.659   0.020  -0.010
    1UNL     C7    8  -0.533   0.004   0.074
    1UNL     C8    9  -0.407   0.025   0.022
    1UNL     C9   10  -0.378   0.033  -0.115
    1UNL    C10   11  -0.291   0.022   0.119
    1UNL     O2   12  -0.300  -0.038   0.225
    1UNL     O3   13  -0.183   0.099   0.075
    1UNL    C11   14  -0.074   0.085   0.169
    1UNL    C12   15  -0.001   0.221   0.166
    1UNL     O4   16   0.052   0.247   0.037
    1UNL    C13   17  -0.032   0.321  -0.054
    1UNL    C14   18  -0.054   0.465  -0.002
    1UNL     O5   19  -0.180   0.487   0.051
    1UNL    C15   20  -0.029   0.578  -0.108
    1UNL    C16   21  -0.049   0.720  -0.048
    1UNL     O6   22   0.107   0.547  -0.156
    1UNL    C17   23   0.131   0.409  -0.217
    1UNL     O7   24   0.253   0.346  -0.191
    1UNL    C18   25   0.316   0.405  -0.081
    1UNL    C19   26   0.397   0.522  -0.124
    1UNL    C20   27   0.496   0.512  -0.215
    1UNL    C21   28   0.604   0.614  -0.228
    1UNL    C22   29   0.503   0.396  -0.318
    1UNL    C23   30   0.557   0.277  -0.242
    1UNL    C24   31   0.491   0.155  -0.282
    1UNL    C25   32   0.466   0.050  -0.205
    1UNL    C26   33   0.515   0.049  -0.060
    1UNL    C27   34   0.397  -0.077  -0.251
    1UNL     O8   35   0.325  -0.132  -0.149
    1UNL    C28   36   0.345  -0.273  -0.145
    1UNL     O9   37   0.327  -0.343  -0.274
    1UNL    C29   38   0.356  -0.483  -0.259
    1UNL    C30   39   0.357  -0.563  -0.394
    1UNL    C31   40   0.254  -0.544  -0.162
    1UNL    O10   41   0.247  -0.681  -0.177
    1UNL    C32   42   0.275  -0.485  -0.022
    1UNL    O11   43   0.182  -0.536   0.072
    1UNL    C33   44   0.260  -0.330  -0.036
    1UNL    O12   45   0.297  -0.267   0.089
    1UNL    C34   46   0.020   0.307  -0.201
    1UNL    O13   47   0.070   0.178  -0.222
    1UNL    O14   48   0.090   0.220   0.278
    1UNL    C35   49   0.174   0.106   0.314
    1UNL    C36   50   0.130   0.062   0.451
    1UNL    C37   51   0.176   0.004   0.207
    1UNL    O15   52   0.265   0.045   0.099
    1UNL    C38   53   0.024  -0.031   0.158
    1UNL    O16   54  -0.028  -0.138   0.250
    1UNL    C39   55   0.002  -0.273   0.206
    1UNL    O17   56   0.096  -0.350   0.296
    1UNL    C40   57   0.031  -0.391   0.414
    1UNL    C41   58   0.026  -0.538   0.427
    1UNL    C42   59  -0.110  -0.319   0.434
    1UNL    O18   60  -0.163  -0.333   0.568
    1UNL    C43   61  -0.209  -0.363   0.324
    1UNL    O19   62  -0.331  -0.299   0.331
    1UNL    C44   63  -0.129  -0.350   0.184
    1UNL    O20   64  -0.201  -0.267   0.095
    1UNL     H1   65  -1.064  -0.030  -0.168
    1UNL     H2   66  -0.950   0.099  -0.141
    1UNL     H3   67  -1.009   0.024  -0.005
    1UNL     H4   68  -0.733  -0.228  -0.182
    1UNL     H5   69  -1.003  -0.234  -0.305
    1UNL     H6   70  -0.850  -0.288  -0.385
    1UNL     H7   71  -0.826  -0.078  -0.446
    1UNL     H8   72  -0.818  -0.038   0.117
    1UNL     H9   73  -0.723  -0.180   0.034
    1UNL    H10   74  -0.628   0.001  -0.116
    1UNL    H11   75  -0.695   0.122  -0.010
    1UNL    H12   76  -0.538  -0.036   0.173
    1UNL    H13   77  -0.443   0.108  -0.166
    1UNL    H14   78  -0.273   0.068  -0.126
    1UNL    H15   79  -0.381  -0.068  -0.166
    1UNL    H16   80  -0.134   0.086   0.264
    1UNL    H17   81  -0.066   0.304   0.183
    1UNL    H18   82  -0.131   0.275  -0.044
    1UNL    H19   83   0.018   0.494   0.072
    1UNL    H20   84  -0.219   0.406   0.092
    1UNL    H21   85  -0.101   0.564  -0.192
    1UNL    H22   86  -0.154   0.731  -0.014
    1UNL    H23   87  -0.030   0.796  -0.122
    1UNL    H24   88   0.024   0.745   0.031
    1UNL    H25   89   0.126   0.447  -0.322
    1UNL    H26   90   0.233   0.438  -0.010
    1UNL    H27   91   0.386   0.337  -0.025
    1UNL    H28   92   0.378   0.618  -0.074
    1UNL    H29   93   0.566   0.713  -0.201
    1UNL    H30   94   0.631   0.609  -0.326
    1UNL    H31   95   0.692   0.586  -0.169
    1UNL    H32   96   0.394   0.368  -0.339
    1UNL    H33   97   0.553   0.424  -0.409
    1UNL    H34   98   0.665   0.267  -0.270
    1UNL    H35   99   0.558   0.290  -0.129
    1UNL    H36  100   0.461   0.140  -0.383
    1UNL    H37  101   0.490  -0.043  -0.015
    1UNL    H38  102   0.457   0.124  -0.001
    1UNL    H39  103   0.624   0.072  -0.055
    1UNL    H40  104   0.462  -0.154  -0.290
    1UNL    H41  105   0.321  -0.054  -0.323
    1UNL    H42  106   0.454  -0.287  -0.116
    1UNL    H43  107   0.457  -0.499  -0.216
    1UNL    H44  108   0.260  -0.566  -0.439
    1UNL    H45  109   0.440  -0.533  -0.459
    1UNL    H46  110   0.389  -0.665  -0.365
    1UNL    H47  111   0.152  -0.517  -0.183
    1UNL    H48  112   0.261  -0.722  -0.089
    1UNL    H49  113   0.379  -0.507   0.012
    1UNL    H50  114   0.157  -0.473   0.148
    1UNL    H51  115   0.154  -0.309  -0.049
    1UNL    H52  116   0.306  -0.172   0.063
    1UNL    H53  117  -0.061   0.317  -0.264
    1UNL    H54  118   0.145   0.170  -0.154
    1UNL    H55  119   0.272   0.152   0.312
    1UNL    H56  120   0.140   0.140   0.531
    1UNL    H57  121   0.023   0.029   0.462
    1UNL    H58  122   0.196  -0.018   0.489
    1UNL    H59  123   0.213  -0.093   0.246
    1UNL    H60  124   0.224   0.129   0.079
    1UNL    H61  125   0.032  -0.066   0.050
    1UNL    H62  126   0.054  -0.264   0.114
    1UNL    H63  127   0.090  -0.343   0.497
    1UNL    H64  128  -0.023  -0.572   0.522
    1UNL    H65  129   0.137  -0.564   0.443
    1UNL    H66  130  -0.002  -0.596   0.340
    1UNL    H67  131  -0.088  -0.207   0.432
    1UNL    H68  132  -0.245  -0.278   0.579
    1UNL    H69  133  -0.230  -0.471   0.336
    1UNL    H70  134  -0.323  -0.202   0.306
    1UNL    H71  135  -0.099  -0.449   0.146
    1UNL    H72  136  -0.213  -0.175   0.137
   0.00000   0.00000   0.00000   0.00000   0.00000   0.00000   0.00000   0.00000   0.00000
Generated with MDTraj, t= 65.0
 136
    1UNL     C1    1  -0.967  -0.018  -0.115
    1UNL     C2    2  -0.839  -0.089  -0.101
    1UNL     C3    3  -0.803  -0.183  -0.188
    1UNL     C4    4  -0.873  -0.203  -0.319
    1UNL     O1    5  -0.866  -0.083  -0.399
    1UNL     C5    6  -0.751  -0.068   0.016
    1UNL     C6    7  -0.654   0.051  -0.010
    1UNL     C7    8  -0.532   0.035   0.084
    1UNL     C8    9  -0.404   0.034   0.039
    1UNL     C9   10  -0.369   0.025  -0.110
    1UNL    C10   11  -0.290   0.031   0.125
    1UNL     O2   12  -0.295  -0.031   0.228
    1UNL     O3   13  -0.182   0.106   0.095
    1UNL    C11   14  -0.081   0.101   0.192
    1UNL    C12   15   0.011   0.227   0.183
    1UNL     O4   16   0.067   0.264   0.059
    1UNL    C13   17  -0.029   0.322  -0.028
    1UNL    C14   18  -0.052   0.475  -0.007
    1UNL     O5   19  -0.180   0.499   0.052
    1UNL    C15   20  -0.033   0.570  -0.137
    1UNL    C16   21  -0.017   0.717  -0.092
    1UNL     O6   22   0.086   0.530  -0.212
    1UNL    C17   23   0.115   0.384  -0.228
    1UNL     O7   24   0.249   0.345  -0.181
    1UNL    C18   25   0.306   0.429  -0.078
    1UNL    C19   26   0.408   0.528  -0.115
    1UNL    C20   27   0.496   0.517  -0.215
    1UNL    C21   28   0.589   0.623  -0.239
    1UNL    C22   29   0.511   0.393  -0.301
    1UNL    C23   30   0.571   0.269  -0.233
    1UNL    C24   31   0.520   0.142  -0.287
    1UNL    C25   32   0.493   0.036  -0.214
    1UNL    C26   33   0.531   0.025  -0.074
    1UNL    C27   34   0.410  -0.077  -0.271
    1UNL     O8   35   0.323  -0.127  -0.175
    1UNL    C28   36   0.353  -0.262  -0.152
    1UNL     O9   37   0.370  -0.336  -0.277
    1UNL    C29   38   0.371  -0.484  -0.267
    1UNL    C30   39   0.362  -0.537  -0.415
    1UNL    C31   40   0.257  -0.547  -0.175
    1UNL    O10   41   0.264  -0.686  -0.148
    1UNL    C32   42   0.247  -0.472  -0.040
    1UNL    O11   43   0.150  -0.524   0.042
    1UNL    C33   44   0.242  -0.319  -0.060
    1UNL    O12   45   0.255  -0.250   0.063
    1UNL    C34   46  -0.002   0.288  -0.182
    1UNL    O13   47   0.019   0.145  -0.202
    1UNL    O14   48   0.118   0.226   0.284
    1UNL    C35   49   0.173   0.098   0.331
    1UNL    C36   50   0.107   0.058   0.463
    1UNL    C37   51   0.150  -0.008   0.221
    1UNL    O15   52   0.222   0.032   0.098
    1UNL    C38   53  -0.001  -0.027   0.172
    1UNL    O16   54  -0.055  -0.129   0.256
    1UNL    C39   55  -0.012  -0.257   0.212
    1UNL    O17   56   0.086  -0.329   0.294
    1UNL    C40   57   0.038  -0.373   0.420
    1UNL    C41   58   0.057  -0.524   0.446
    1UNL    C42   59  -0.119  -0.333   0.443
    1UNL    O18   60  -0.170  -0.402   0.560
    1UNL    C43   61  -0.214  -0.377   0.327
    1UNL    O19   62  -0.324  -0.297   0.336
    1UNL    C44   63  -0.133  -0.356   0.192
    1UNL    O20   64  -0.223  -0.303   0.095
    1UNL     H1   65  -1.051  -0.088  -0.094
    1UNL     H2   66  -0.984   0.019  -0.213
    1UNL     H3   67  -0.971   0.072  -0.056
    1UNL     H4   68  -0.711  -0.244  -0.155
    1UNL     H5   69  -0.981  -0.213  -0.296
    1UNL     H6   70  -0.847  -0.288  -0.390
    1UNL     H7   71  -0.776  -0.042  -0.388
    1UNL     H8   72  -0.807  -0.029   0.108
    1UNL     H9   73  -0.680  -0.151   0.045
    1UNL    H10   74  -0.623   0.034  -0.117
    1UNL    H11   75  -0.691   0.153  -0.013
    1UNL    H12   76  -0.555   0.020   0.190
    1UNL    H13   77  -0.375   0.129  -0.148
    1UNL    H14   78  -0.264  -0.011  -0.112
    1UNL    H15   79  -0.432  -0.055  -0.159
    1UNL    H16   80  -0.129   0.076   0.294
    1UNL    H17   81  -0.050   0.309   0.212
    1UNL    H18   82  -0.121   0.270   0.001
    1UNL    H19   83   0.017   0.507   0.068
    1UNL    H20   84  -0.189   0.424   0.107
    1UNL    H21   85  -0.128   0.560  -0.194
    1UNL    H22   86  -0.100   0.738  -0.023
    1UNL    H23   87  -0.027   0.787  -0.180
    1UNL    H24   88   0.080   0.734  -0.049
    1UNL    H25   89   0.122   0.377  -0.340
    1UNL    H26   90   0.219   0.485  -0.030
    1UNL    H27   91   0.356   0.360  -0.005
    1UNL    H28   92   0.424   0.609  -0.047
    1UNL    H29   93   0.624   0.670  -0.147
    1UNL    H30   94   0.552   0.695  -0.301
    1UNL    H31   95   0.679   0.591  -0.293
    1UNL    H32   96   0.404   0.372  -0.334
    1UNL    H33   97   0.569   0.407  -0.390
    1UNL    H34   98   0.685   0.263  -0.232
    1UNL    H35   99   0.543   0.282  -0.124
    1UNL    H36  100   0.491   0.134  -0.393
    1UNL    H37  101   0.624  -0.025  -0.045
    1UNL    H38  102   0.454  -0.030  -0.017
    1UNL    H39  103   0.536   0.114  -0.026
    1UNL    H40  104   0.475  -0.159  -0.302
    1UNL    H41  105   0.351  -0.047  -0.356
    1UNL    H42  106   0.450  -0.276  -0.098
    1UNL    H43  107   0.474  -0.517  -0.234
    1UNL    H44  108   0.270  -0.504  -0.461
    1UNL    H45  109   0.446  -0.499  -0.479
    1UNL    H46  110   0.376  -0.641  -0.431
    1UNL    H47  111   0.167  -0.543  -0.233
    1UNL    H48  112   0.292  -0.698  -0.053
    1UNL    H49  113   0.348  -0.490   0.004
    1UNL    H50  114   0.143  -0.470   0.121
    1UNL    H51  115   0.142  -0.297  -0.095
    1UNL    H52  116   0.253  -0.159   0.046
    1UNL    H53  117  -0.085   0.297  -0.242
    1UNL    H54  118   0.098   0.116  -0.154
    1UNL    H55  119   0.282   0.113   0.347
    1UNL    H56  120   0.103   0.141   0.542
    1UNL    H57  121   0.000   0.030   0.445
    1UNL    H58  122   0.160  -0.025   0.510
    1UNL    H59  123   0.197  -0.107   0.250
    1UNL    H60  124   0.184   0.121   0.070
    1UNL    H61  125  -0.005  -0.065   0.067
    1UNL    H62  126   0.018  -0.249   0.109
    1UNL    H63  127   0.100  -0.314   0.489
    1UNL    H64  128  -0.000  -0.536   0.543
    1UNL    H65  129   0.166  -0.551   0.472
    1UNL    H66  130   0.020  -0.586   0.367
    1UNL    H67  131  -0.142  -0.224   0.457
    1UNL    H68  132  -0.264  -0.375   0.578
    1UNL    H69  133  -0.263  -0.477   0.342
    1UNL    H70  134  -0.304  -0.210   0.293
    1UNL    H71  135  -0.101  -0.453   0.156
    1UNL    H72  136  -0.226  -0.206   0.118
   0.00000   0.00000   0.00000   0.00000   0.00000   0.00000   0.00000   0.00000   0.00000
Generated with MDTraj, t= 66.0
 136
    1UNL     C1    1  -0.934  -0.020  -0.101
    1UNL     C2    2  -0.804  -0.102  -0.090
    1UNL     C3    3  -0.763  -0.178  -0.191
    1UNL     C4    4  -0.846  -0.208  -0.312
    1UNL     O1    5  -0.852  -0.095  -0.401
    1UNL     C5    6  -0.712  -0.062   0.010
    1UNL     C6    7  -0.631   0.066  -0.033
    1UNL     C7    8  -0.523   0.083   0.071
    1UNL     C8    9  -0.392   0.063   0.040
    1UNL     C9   10  -0.341   0.036  -0.097
    1UNL    C10   11  -0.296   0.054   0.145
    1UNL     O2   12  -0.330  -0.016   0.238
    1UNL     O3   13  -0.196   0.135   0.124
    1UNL    C11   14  -0.087   0.125   0.213
    1UNL    C12   15   0.013   0.245   0.202
    1UNL     O4   16   0.060   0.257   0.069
    1UNL    C13   17  -0.035   0.306  -0.027
    1UNL    C14   18  -0.045   0.461  -0.008
    1UNL     O5   19  -0.162   0.501   0.064
    1UNL    C15   20  -0.023   0.547  -0.141
    1UNL    C16   21  -0.031   0.696  -0.129
    1UNL     O6   22   0.104   0.513  -0.202
    1UNL    C17   23   0.120   0.368  -0.227
    1UNL     O7   24   0.250   0.325  -0.183
    1UNL    C18   25   0.288   0.406  -0.070
    1UNL    C19   26   0.369   0.518  -0.109
    1UNL    C20   27   0.458   0.511  -0.209
    1UNL    C21   28   0.548   0.630  -0.227
    1UNL    C22   29   0.472   0.390  -0.294
    1UNL    C23   30   0.578   0.288  -0.246
    1UNL    C24   31   0.549   0.150  -0.290
    1UNL    C25   32   0.526   0.042  -0.217
    1UNL    C26   33   0.552   0.035  -0.073
    1UNL    C27   34   0.446  -0.077  -0.273
    1UNL     O8   35   0.335  -0.131  -0.196
    1UNL    C28   36   0.331  -0.272  -0.181
    1UNL     O9   37   0.335  -0.357  -0.300
    1UNL    C29   38   0.366  -0.492  -0.276
    1UNL    C30   39   0.389  -0.562  -0.400
    1UNL    C31   40   0.252  -0.557  -0.188
    1UNL    O10   41   0.288  -0.687  -0.140
    1UNL    C32   42   0.245  -0.464  -0.054
    1UNL    O11   43   0.148  -0.517   0.036
    1UNL    C33   44   0.222  -0.321  -0.086
    1UNL    O12   45   0.229  -0.242   0.027
    1UNL    C34   46   0.010   0.264  -0.167
    1UNL    O13   47   0.038   0.124  -0.188
    1UNL    O14   48   0.122   0.227   0.305
    1UNL    C35   49   0.167   0.092   0.331
    1UNL    C36   50   0.099   0.038   0.462
    1UNL    C37   51   0.135  -0.007   0.211
    1UNL    O15   52   0.211   0.039   0.092
    1UNL    C38   53  -0.013  -0.013   0.187
    1UNL    O16   54  -0.065  -0.121   0.265
    1UNL    C39   55  -0.031  -0.248   0.202
    1UNL    O17   56   0.076  -0.312   0.278
    1UNL    C40   57   0.029  -0.357   0.418
    1UNL    C41   58   0.078  -0.501   0.446
    1UNL    C42   59  -0.124  -0.343   0.447
    1UNL    O18   60  -0.159  -0.429   0.553
    1UNL    C43   61  -0.215  -0.376   0.326
    1UNL    O19   62  -0.337  -0.316   0.357
    1UNL    C44   63  -0.155  -0.344   0.180
    1UNL    O20   64  -0.265  -0.283   0.112
    1UNL     H1   65  -0.981  -0.021   0.001
    1UNL     H2   66  -1.014  -0.041  -0.169
    1UNL     H3   67  -0.906   0.081  -0.121
    1UNL     H4   68  -0.668  -0.217  -0.190
    1UNL     H5   69  -0.951  -0.237  -0.298
    1UNL     H6   70  -0.789  -0.285  -0.368
    1UNL     H7   71  -0.777  -0.030  -0.397
    1UNL     H8   72  -0.758  -0.036   0.107
    1UNL     H9   73  -0.633  -0.142   0.036
    1UNL    H10   74  -0.575   0.066  -0.131
    1UNL    H11   75  -0.695   0.153  -0.037
    1UNL    H12   76  -0.561   0.088   0.169
    1UNL    H13   77  -0.359   0.124  -0.162
    1UNL    H14   78  -0.230   0.026  -0.085
    1UNL    H15   79  -0.372  -0.066  -0.133
    1UNL    H16   80  -0.129   0.121   0.321
    1UNL    H17   81  -0.026   0.338   0.233
    1UNL    H18   82  -0.133   0.265  -0.002
    1UNL    H19   83   0.026   0.501   0.062
    1UNL    H20   84  -0.197   0.437   0.128
    1UNL    H21   85  -0.098   0.513  -0.214
    1UNL    H22   86  -0.135   0.720  -0.109
    1UNL    H23   87  -0.002   0.743  -0.229
    1UNL    H24   88   0.035   0.736  -0.055
    1UNL    H25   89   0.126   0.354  -0.336
    1UNL    H26   90   0.189   0.448  -0.028
    1UNL    H27   91   0.339   0.342   0.004
    1UNL    H28   92   0.375   0.608  -0.050
    1UNL    H29   93   0.626   0.629  -0.156
    1UNL    H30   94   0.494   0.724  -0.221
    1UNL    H31   95   0.591   0.636  -0.326
    1UNL    H32   96   0.374   0.340  -0.320
    1UNL    H33   97   0.511   0.424  -0.388
    1UNL    H34   98   0.685   0.324  -0.260
    1UNL    H35   99   0.562   0.280  -0.135
    1UNL    H36  100   0.521   0.136  -0.390
    1UNL    H37  101   0.583   0.125  -0.016
    1UNL    H38  102   0.614  -0.048  -0.045
    1UNL    H39  103   0.463   0.012  -0.027
    1UNL    H40  104   0.511  -0.162  -0.299
    1UNL    H41  105   0.398  -0.047  -0.366
    1UNL    H42  106   0.428  -0.297  -0.137
    1UNL    H43  107   0.462  -0.490  -0.213
    1UNL    H44  108   0.300  -0.572  -0.462
    1UNL    H45  109   0.464  -0.509  -0.465
    1UNL    H46  110   0.431  -0.657  -0.393
    1UNL    H47  111   0.154  -0.559  -0.234
    1UNL    H48  112   0.208  -0.736  -0.104
    1UNL    H49  113   0.342  -0.465  -0.002
    1UNL    H50  114   0.139  -0.452   0.113
    1UNL    H51  115   0.124  -0.307  -0.130
    1UNL    H52  116   0.227  -0.151  -0.005
    1UNL    H53  117  -0.074   0.272  -0.229
    1UNL    H54  118   0.132   0.118  -0.204
    1UNL    H55  119   0.279   0.095   0.354
    1UNL    H56  120   0.108   0.114   0.546
    1UNL    H57  121  -0.010   0.031   0.441
    1UNL    H58  122   0.142  -0.057   0.499
    1UNL    H59  123   0.173  -0.109   0.238
    1UNL    H60  124   0.167   0.119   0.068
    1UNL    H61  125  -0.041  -0.032   0.083
    1UNL    H62  126   0.019  -0.220   0.111
    1UNL    H63  127   0.081  -0.293   0.487
    1UNL    H64  128   0.090  -0.518   0.558
    1UNL    H65  129   0.178  -0.514   0.398
    1UNL    H66  130   0.009  -0.576   0.403
    1UNL    H67  131  -0.155  -0.245   0.485
    1UNL    H68  132  -0.257  -0.428   0.564
    1UNL    H69  133  -0.238  -0.485   0.330
    1UNL    H70  134  -0.348  -0.232   0.310
    1UNL    H71  135  -0.116  -0.435   0.138
    1UNL    H72  136  -0.288  -0.194   0.143
   0.00000   0.00000   0.00000   0.00000   0.00000   0.00000   0.00000   0.00000   0.00000
Generated with MDTraj, t= 67.0
 136
    1UNL     C1    1  -0.926  -0.054  -0.129
    1UNL     C2    2  -0.789  -0.090  -0.128
    1UNL     C3    3  -0.743  -0.177  -0.218
    1UNL     C4    4  -0.835  -0.222  -0.332
    1UNL     O1    5  -0.880  -0.115  -0.410
    1UNL     C5    6  -0.706  -0.060  -0.005
    1UNL     C6    7  -0.644   0.077  -0.019
    1UNL     C7    8  -0.529   0.109   0.080
    1UNL     C8    9  -0.399   0.089   0.047
    1UNL     C9   10  -0.354   0.024  -0.073
    1UNL    C10   11  -0.298   0.091   0.159
    1UNL     O2   12  -0.316   0.018   0.259
    1UNL     O3   13  -0.196   0.174   0.149
    1UNL    C11   14  -0.081   0.134   0.226
    1UNL    C12   15   0.023   0.250   0.223
    1UNL     O4   16   0.068   0.262   0.091
    1UNL    C13   17  -0.028   0.304  -0.014
    1UNL    C14   18  -0.061   0.458  -0.000
    1UNL     O5   19  -0.193   0.480   0.040
    1UNL    C15   20  -0.036   0.519  -0.139
    1UNL    C16   21  -0.048   0.672  -0.135
    1UNL     O6   22   0.105   0.473  -0.165
    1UNL    C17   23   0.125   0.340  -0.211
    1UNL     O7   24   0.254   0.299  -0.182
    1UNL    C18   25   0.311   0.352  -0.057
    1UNL    C19   26   0.385   0.477  -0.086
    1UNL    C20   27   0.446   0.501  -0.205
    1UNL    C21   28   0.498   0.640  -0.224
    1UNL    C22   29   0.472   0.395  -0.311
    1UNL    C23   30   0.549   0.271  -0.261
    1UNL    C24   31   0.505   0.134  -0.289
    1UNL    C25   32   0.504   0.034  -0.206
    1UNL    C26   33   0.535   0.045  -0.058
    1UNL    C27   34   0.471  -0.096  -0.270
    1UNL     O8   35   0.351  -0.140  -0.217
    1UNL    C28   36   0.355  -0.272  -0.186
    1UNL     O9   37   0.371  -0.354  -0.303
    1UNL    C29   38   0.381  -0.494  -0.277
    1UNL    C30   39   0.379  -0.584  -0.395
    1UNL    C31   40   0.265  -0.546  -0.187
    1UNL    O10   41   0.284  -0.682  -0.154
    1UNL    C32   42   0.246  -0.452  -0.061
    1UNL    O11   43   0.139  -0.488   0.022
    1UNL    C33   44   0.230  -0.305  -0.107
    1UNL    O12   45   0.225  -0.228   0.014
    1UNL    C34   46   0.012   0.243  -0.151
    1UNL    O13   47   0.037   0.108  -0.130
    1UNL    O14   48   0.130   0.225   0.318
    1UNL    C35   49   0.184   0.092   0.330
    1UNL    C36   50   0.165   0.024   0.470
    1UNL    C37   51   0.147   0.002   0.213
    1UNL    O15   52   0.229   0.036   0.098
    1UNL    C38   53  -0.002   0.001   0.179
    1UNL    O16   54  -0.067  -0.108   0.243
    1UNL    C39   55  -0.047  -0.239   0.190
    1UNL    O17   56   0.051  -0.324   0.242
    1UNL    C40   57   0.036  -0.355   0.387
    1UNL    C41   58   0.083  -0.495   0.412
    1UNL    C42   59  -0.109  -0.329   0.428
    1UNL    O18   60  -0.143  -0.385   0.552
    1UNL    C43   61  -0.221  -0.364   0.322
    1UNL    O19   62  -0.348  -0.316   0.367
    1UNL    C44   63  -0.183  -0.317   0.176
    1UNL    O20   64  -0.298  -0.232   0.136
    1UNL     H1   65  -0.934   0.035  -0.064
    1UNL     H2   66  -0.997  -0.125  -0.094
    1UNL     H3   67  -0.953  -0.031  -0.230
    1UNL     H4   68  -0.641  -0.214  -0.198
    1UNL     H5   69  -0.919  -0.261  -0.280
    1UNL     H6   70  -0.793  -0.293  -0.401
    1UNL     H7   71  -0.800  -0.058  -0.421
    1UNL     H8   72  -0.763  -0.068   0.088
    1UNL     H9   73  -0.618  -0.136   0.013
    1UNL    H10   74  -0.614   0.099  -0.123
    1UNL    H11   75  -0.718   0.150   0.013
    1UNL    H12   76  -0.569   0.127   0.182
    1UNL    H13   77  -0.389   0.063  -0.170
    1UNL    H14   78  -0.242   0.039  -0.081
    1UNL    H15   79  -0.360  -0.086  -0.069
    1UNL    H16   80  -0.117   0.131   0.337
    1UNL    H17   81  -0.019   0.341   0.255
    1UNL    H18   82  -0.115   0.242   0.015
    1UNL    H19   83   0.014   0.491   0.073
    1UNL    H20   84  -0.216   0.408   0.108
    1UNL    H21   85  -0.094   0.468  -0.215
    1UNL    H22   86  -0.133   0.702  -0.076
    1UNL    H23   87  -0.061   0.716  -0.235
    1UNL    H24   88   0.041   0.718  -0.089
    1UNL    H25   89   0.128   0.340  -0.320
    1UNL    H26   90   0.231   0.358   0.024
    1UNL    H27   91   0.376   0.269  -0.032
    1UNL    H28   92   0.369   0.569  -0.027
    1UNL    H29   93   0.594   0.640  -0.187
    1UNL    H30   94   0.427   0.716  -0.178
    1UNL    H31   95   0.494   0.660  -0.328
    1UNL    H32   96   0.376   0.351  -0.348
    1UNL    H33   97   0.514   0.444  -0.398
    1UNL    H34   98   0.652   0.271  -0.311
    1UNL    H35   99   0.574   0.282  -0.154
    1UNL    H36  100   0.469   0.104  -0.389
    1UNL    H37  101   0.441   0.065  -0.012
    1UNL    H38  102   0.611   0.111  -0.040
    1UNL    H39  103   0.573  -0.048  -0.021
    1UNL    H40  104   0.549  -0.173  -0.249
    1UNL    H41  105   0.462  -0.095  -0.380
    1UNL    H42  106   0.439  -0.294  -0.123
    1UNL    H43  107   0.483  -0.498  -0.223
    1UNL    H44  108   0.288  -0.560  -0.453
    1UNL    H45  109   0.469  -0.560  -0.454
    1UNL    H46  110   0.381  -0.688  -0.375
    1UNL    H47  111   0.169  -0.539  -0.239
    1UNL    H48  112   0.203  -0.728  -0.125
    1UNL    H49  113   0.332  -0.465   0.004
    1UNL    H50  114   0.119  -0.420   0.092
    1UNL    H51  115   0.136  -0.298  -0.161
    1UNL    H52  116   0.244  -0.134  -0.008
    1UNL    H53  117  -0.068   0.247  -0.221
    1UNL    H54  118   0.131   0.105  -0.092
    1UNL    H55  119   0.293   0.132   0.310
    1UNL    H56  120   0.204   0.084   0.555
    1UNL    H57  121   0.059   0.006   0.491
    1UNL    H58  122   0.220  -0.076   0.476
    1UNL    H59  123   0.179  -0.105   0.233
    1UNL    H60  124   0.219   0.131   0.083
    1UNL    H61  125  -0.019  -0.000   0.074
    1UNL    H62  126  -0.012  -0.212   0.090
    1UNL    H63  127   0.109  -0.292   0.437
    1UNL    H64  128   0.041  -0.523   0.512
    1UNL    H65  129   0.191  -0.504   0.425
    1UNL    H66  130   0.058  -0.572   0.330
    1UNL    H67  131  -0.113  -0.223   0.447
    1UNL    H68  132  -0.239  -0.381   0.566
    1UNL    H69  133  -0.226  -0.475   0.316
    1UNL    H70  134  -0.364  -0.224   0.334
    1UNL    H71  135  -0.183  -0.390   0.095
    1UNL    H72  136  -0.278  -0.141   0.174
   0.00000   0.00000   0.00000   0.00000   0.00000   0.00000   0.00000   0.00000   0.00000
Generated with MDTraj, t= 68.0
 136
    1UNL     C1    1  -0.914  -0.056  -0.125
    1UNL     C2    2  -0.764  -0.090  -0.145
    1UNL     C3    3  -0.723  -0.163  -0.249
    1UNL     C4    4  -0.808  -0.231  -0.353
    1UNL     O1    5  -0.895  -0.138  -0.409
    1UNL     C5    6  -0.679  -0.066  -0.028
    1UNL     C6    7  -0.637   0.082  -0.005
    1UNL     C7    8  -0.538   0.098   0.116
    1UNL     C8    9  -0.407   0.071   0.099
    1UNL     C9   10  -0.340   0.039  -0.024
    1UNL    C10   11  -0.312   0.082   0.213
    1UNL     O2   12  -0.329   0.017   0.320
    1UNL     O3   13  -0.205   0.170   0.188
    1UNL    C11   14  -0.083   0.136   0.243
    1UNL    C12   15   0.020   0.250   0.239
    1UNL     O4   16   0.072   0.274   0.108
    1UNL    C13   17  -0.021   0.280   0.007
    1UNL    C14   18  -0.069   0.425  -0.016
    1UNL     O5   19  -0.211   0.433   0.004
    1UNL    C15   20  -0.020   0.507  -0.143
    1UNL    C16   21  -0.031   0.657  -0.124
    1UNL     O6   22   0.113   0.466  -0.186
    1UNL    C17   23   0.133   0.323  -0.189
    1UNL     O7   24   0.261   0.280  -0.146
    1UNL    C18   25   0.311   0.357  -0.038
    1UNL    C19   26   0.350   0.485  -0.095
    1UNL    C20   27   0.424   0.504  -0.208
    1UNL    C21   28   0.484   0.641  -0.225
    1UNL    C22   29   0.454   0.390  -0.299
    1UNL    C23   30   0.568   0.295  -0.253
    1UNL    C24   31   0.551   0.156  -0.316
    1UNL    C25   32   0.540   0.045  -0.243
    1UNL    C26   33   0.558   0.051  -0.094
    1UNL    C27   34   0.468  -0.080  -0.289
    1UNL     O8   35   0.377  -0.133  -0.191
    1UNL    C28   36   0.367  -0.277  -0.182
    1UNL     O9   37   0.380  -0.370  -0.296
    1UNL    C29   38   0.377  -0.513  -0.260
    1UNL    C30   39   0.398  -0.602  -0.386
    1UNL    C31   40   0.247  -0.557  -0.187
    1UNL    O10   41   0.260  -0.694  -0.163
    1UNL    C32   42   0.225  -0.472  -0.066
    1UNL    O11   43   0.111  -0.493   0.003
    1UNL    C33   44   0.235  -0.319  -0.108
    1UNL    O12   45   0.208  -0.249   0.018
    1UNL    C34   46   0.023   0.232  -0.128
    1UNL    O13   47   0.038   0.095  -0.139
    1UNL    O14   48   0.119   0.222   0.338
    1UNL    C35   49   0.188   0.092   0.320
    1UNL    C36   50   0.172   0.013   0.447
    1UNL    C37   51   0.140   0.008   0.204
    1UNL    O15   52   0.201   0.045   0.084
    1UNL    C38   53  -0.012   0.009   0.183
    1UNL    O16   54  -0.076  -0.099   0.239
    1UNL    C39   55  -0.064  -0.222   0.164
    1UNL    O17   56   0.046  -0.302   0.205
    1UNL    C40   57   0.035  -0.342   0.348
    1UNL    C41   58   0.063  -0.491   0.363
    1UNL    C42   59  -0.099  -0.289   0.409
    1UNL    O18   60  -0.109  -0.328   0.547
    1UNL    C43   61  -0.225  -0.328   0.319
    1UNL    O19   62  -0.354  -0.284   0.355
    1UNL    C44   63  -0.202  -0.303   0.174
    1UNL    O20   64  -0.300  -0.216   0.124
    1UNL     H1   65  -0.924   0.043  -0.169
    1UNL     H2   66  -0.944  -0.033  -0.024
    1UNL     H3   67  -0.983  -0.129  -0.165
    1UNL     H4   68  -0.615  -0.185  -0.256
    1UNL     H5   69  -0.869  -0.310  -0.319
    1UNL     H6   70  -0.743  -0.261  -0.433
    1UNL     H7   71  -0.848  -0.052  -0.415
    1UNL     H8   72  -0.726  -0.094   0.065
    1UNL     H9   73  -0.591  -0.145  -0.031
    1UNL    H10   74  -0.583   0.104  -0.099
    1UNL    H11   75  -0.720   0.152   0.001
    1UNL    H12   76  -0.579   0.114   0.211
    1UNL    H13   77  -0.340   0.131  -0.086
    1UNL    H14   78  -0.232   0.018   0.006
    1UNL    H15   79  -0.382  -0.053  -0.067
    1UNL    H16   80  -0.102   0.106   0.355
    1UNL    H17   81  -0.037   0.333   0.268
    1UNL    H18   82  -0.110   0.223   0.038
    1UNL    H19   83  -0.035   0.487   0.070
    1UNL    H20   84  -0.245   0.365   0.070
    1UNL    H21   85  -0.083   0.475  -0.225
    1UNL    H22   86  -0.137   0.689  -0.115
    1UNL    H23   87   0.012   0.710  -0.205
    1UNL    H24   88   0.019   0.684  -0.026
    1UNL    H25   89   0.136   0.296  -0.292
    1UNL    H26   90   0.219   0.370   0.026
    1UNL    H27   91   0.395   0.308   0.014
    1UNL    H28   92   0.313   0.572  -0.047
    1UNL    H29   93   0.588   0.634  -0.207
    1UNL    H30   94   0.433   0.721  -0.164
    1UNL    H31   95   0.467   0.674  -0.323
    1UNL    H32   96   0.358   0.341  -0.317
    1UNL    H33   97   0.484   0.417  -0.400
    1UNL    H34   98   0.671   0.338  -0.276
    1UNL    H35   99   0.573   0.285  -0.144
    1UNL    H36  100   0.525   0.144  -0.417
    1UNL    H37  101   0.580  -0.044  -0.059
    1UNL    H38  102   0.468   0.075  -0.048
    1UNL    H39  103   0.621   0.130  -0.055
    1UNL    H40  104   0.536  -0.162  -0.326
    1UNL    H41  105   0.400  -0.059  -0.374
    1UNL    H42  106   0.452  -0.297  -0.122
    1UNL    H43  107   0.466  -0.523  -0.190
    1UNL    H44  108   0.311  -0.576  -0.449
    1UNL    H45  109   0.487  -0.570  -0.432
    1UNL    H46  110   0.399  -0.710  -0.364
    1UNL    H47  111   0.160  -0.545  -0.255
    1UNL    H48  112   0.288  -0.718  -0.073
    1UNL    H49  113   0.310  -0.492  -0.002
    1UNL    H50  114   0.098  -0.427   0.070
    1UNL    H51  115   0.160  -0.286  -0.181
    1UNL    H52  116   0.217  -0.146   0.016
    1UNL    H53  117  -0.063   0.258  -0.193
    1UNL    H54  118   0.115   0.078  -0.086
    1UNL    H55  119   0.293   0.135   0.300
    1UNL    H56  120   0.192   0.069   0.539
    1UNL    H57  121   0.070  -0.028   0.458
    1UNL    H58  122   0.241  -0.079   0.452
    1UNL    H59  123   0.170  -0.096   0.227
    1UNL    H60  124   0.197   0.146   0.081
    1UNL    H61  125  -0.036  -0.008   0.082
    1UNL    H62  126  -0.039  -0.195   0.060
    1UNL    H63  127   0.123  -0.300   0.398
    1UNL    H64  128   0.074  -0.511   0.473
    1UNL    H65  129   0.158  -0.527   0.323
    1UNL    H66  130  -0.016  -0.562   0.318
    1UNL    H67  131  -0.106  -0.182   0.415
    1UNL    H68  132  -0.200  -0.314   0.580
    1UNL    H69  133  -0.231  -0.439   0.328
    1UNL    H70  134  -0.362  -0.186   0.353
    1UNL    H71  135  -0.200  -0.393   0.110
    1UNL    H72  136  -0.302  -0.138   0.190
   0.00000   0.00000   0.00000   0.00000   0.00000   0.00000   0.00000   0.00000   0.00000
Generated with MDTraj, t= 69.0
 136
    1UNL     C1    1  -0.886  -0.061  -0.110
    1UNL     C2    2  -0.746  -0.113  -0.132
    1UNL     C3    3  -0.700  -0.169  -0.241
    1UNL     C4    4  -0.773  -0.204  -0.367
    1UNL     O1    5  -0.886  -0.117  -0.392
    1UNL     C5    6  -0.653  -0.102  -0.017
    1UNL     C6    7  -0.644   0.051   0.029
    1UNL     C7    8  -0.532   0.073   0.128
    1UNL     C8    9  -0.405   0.091   0.093
    1UNL     C9   10  -0.349   0.078  -0.047
    1UNL    C10   11  -0.305   0.098   0.202
    1UNL     O2   12  -0.323   0.031   0.309
    1UNL     O3   13  -0.193   0.185   0.188
    1UNL    C11   14  -0.082   0.146   0.252
    1UNL    C12   15   0.033   0.250   0.224
    1UNL     O4   16   0.069   0.261   0.086
    1UNL    C13   17  -0.036   0.275  -0.004
    1UNL    C14   18  -0.093   0.419  -0.010
    1UNL     O5   19  -0.234   0.416   0.001
    1UNL    C15   20  -0.037   0.493  -0.136
    1UNL    C16   21  -0.047   0.641  -0.121
    1UNL     O6   22   0.102   0.457  -0.167
    1UNL    C17   23   0.137   0.315  -0.189
    1UNL     O7   24   0.250   0.271  -0.099
    1UNL    C18   25   0.314   0.370  -0.020
    1UNL    C19   26   0.381   0.485  -0.087
    1UNL    C20   27   0.435   0.491  -0.211
    1UNL    C21   28   0.508   0.608  -0.252
    1UNL    C22   29   0.432   0.373  -0.306
    1UNL    C23   30   0.543   0.272  -0.267
    1UNL    C24   31   0.498   0.131  -0.289
    1UNL    C25   32   0.531   0.025  -0.215
    1UNL    C26   33   0.578   0.037  -0.075
    1UNL    C27   34   0.486  -0.102  -0.273
    1UNL     O8   35   0.357  -0.135  -0.217
    1UNL    C28   36   0.371  -0.268  -0.175
    1UNL     O9   37   0.397  -0.354  -0.289
    1UNL    C29   38   0.398  -0.493  -0.268
    1UNL    C30   39   0.446  -0.565  -0.393
    1UNL    C31   40   0.258  -0.537  -0.210
    1UNL    O10   41   0.231  -0.682  -0.193
    1UNL    C32   42   0.229  -0.458  -0.074
    1UNL    O11   43   0.100  -0.486  -0.018
    1UNL    C33   44   0.245  -0.310  -0.095
    1UNL    O12   45   0.262  -0.247   0.032
    1UNL    C34   46   0.013   0.223  -0.151
    1UNL    O13   47   0.033   0.080  -0.141
    1UNL    O14   48   0.147   0.226   0.309
    1UNL    C35   49   0.188   0.088   0.321
    1UNL    C36   50   0.148   0.036   0.460
    1UNL    C37   51   0.132  -0.002   0.204
    1UNL    O15   52   0.198   0.033   0.083
    1UNL    C38   53  -0.026   0.016   0.182
    1UNL    O16   54  -0.104  -0.092   0.218
    1UNL    C39   55  -0.077  -0.216   0.151
    1UNL    O17   56   0.037  -0.285   0.197
    1UNL    C40   57   0.025  -0.336   0.335
    1UNL    C41   58   0.025  -0.488   0.333
    1UNL    C42   59  -0.097  -0.277   0.416
    1UNL    O18   60  -0.103  -0.349   0.545
    1UNL    C43   61  -0.225  -0.315   0.335
    1UNL    O19   62  -0.342  -0.239   0.385
    1UNL    C44   63  -0.213  -0.301   0.177
    1UNL    O20   64  -0.327  -0.232   0.129
    1UNL     H1   65  -0.921  -0.017  -0.200
    1UNL     H2   66  -0.890   0.031  -0.051
    1UNL     H3   67  -0.951  -0.134  -0.061
    1UNL     H4   68  -0.600  -0.189  -0.240
    1UNL     H5   69  -0.816  -0.298  -0.351
    1UNL     H6   70  -0.715  -0.206  -0.456
    1UNL     H7   71  -0.874  -0.046  -0.461
    1UNL     H8   72  -0.680  -0.179   0.056
    1UNL     H9   73  -0.543  -0.131  -0.038
    1UNL    H10   74  -0.637   0.121  -0.055
    1UNL    H11   75  -0.744   0.077   0.066
    1UNL    H12   76  -0.553   0.048   0.234
    1UNL    H13   77  -0.328   0.183  -0.080
    1UNL    H14   78  -0.257   0.019  -0.036
    1UNL    H15   79  -0.422   0.023  -0.106
    1UNL    H16   80  -0.099   0.135   0.366
    1UNL    H17   81  -0.000   0.345   0.257
    1UNL    H18   82  -0.115   0.203   0.024
    1UNL    H19   83  -0.042   0.471   0.076
    1UNL    H20   84  -0.258   0.345   0.065
    1UNL    H21   85  -0.096   0.462  -0.222
    1UNL    H22   86  -0.153   0.672  -0.113
    1UNL    H23   87   0.001   0.687  -0.203
    1UNL    H24   88   0.001   0.664  -0.022
    1UNL    H25   89   0.164   0.296  -0.289
    1UNL    H26   90   0.241   0.414   0.052
    1UNL    H27   91   0.393   0.313   0.028
    1UNL    H28   92   0.372   0.583  -0.033
    1UNL    H29   93   0.615   0.595  -0.236
    1UNL    H30   94   0.469   0.702  -0.210
    1UNL    H31   95   0.494   0.629  -0.354
    1UNL    H32   96   0.343   0.317  -0.312
    1UNL    H33   97   0.447   0.417  -0.405
    1UNL    H34   98   0.648   0.296  -0.309
    1UNL    H35   99   0.561   0.286  -0.160
    1UNL    H36  100   0.450   0.108  -0.386
    1UNL    H37  101   0.646  -0.026  -0.035
    1UNL    H38  102   0.498   0.017  -0.006
    1UNL    H39  103   0.595   0.136  -0.039
    1UNL    H40  104   0.558  -0.186  -0.251
    1UNL    H41  105   0.481  -0.095  -0.384
    1UNL    H42  106   0.444  -0.272  -0.098
    1UNL    H43  107   0.470  -0.507  -0.183
    1UNL    H44  108   0.368  -0.555  -0.468
    1UNL    H45  109   0.539  -0.532  -0.427
    1UNL    H46  110   0.451  -0.673  -0.362
    1UNL    H47  111   0.180  -0.499  -0.281
    1UNL    H48  112   0.212  -0.703  -0.098
    1UNL    H49  113   0.301  -0.496  -0.002
    1UNL    H50  114   0.082  -0.413   0.051
    1UNL    H51  115   0.151  -0.271  -0.139
    1UNL    H52  116   0.237  -0.149   0.036
    1UNL    H53  117  -0.067   0.240  -0.228
    1UNL    H54  118   0.107   0.064  -0.079
    1UNL    H55  119   0.300   0.086   0.322
    1UNL    H56  120   0.189   0.098   0.542
    1UNL    H57  121   0.036   0.027   0.470
    1UNL    H58  122   0.188  -0.067   0.475
    1UNL    H59  123   0.172  -0.103   0.222
    1UNL    H60  124   0.207   0.128   0.068
    1UNL    H61  125  -0.042   0.020   0.076
    1UNL    H62  126  -0.062  -0.199   0.042
    1UNL    H63  127   0.120  -0.309   0.387
    1UNL    H64  128   0.039  -0.519   0.440
    1UNL    H65  129   0.116  -0.530   0.282
    1UNL    H66  130  -0.064  -0.537   0.289
    1UNL    H67  131  -0.102  -0.172   0.443
    1UNL    H68  132  -0.181  -0.322   0.600
    1UNL    H69  133  -0.243  -0.415   0.374
    1UNL    H70  134  -0.344  -0.147   0.349
    1UNL    H71  135  -0.223  -0.403   0.133
    1UNL    H72  136  -0.335  -0.147   0.177
   0.00000   0.00000   0.00000   0.00000   0.00000   0.00000   0.00000   0.00000   0.00000
Generated with MDTraj, t= 70.0
 136
    1UNL     C1    1  -0.892  -0.136  -0.103
    1UNL     C2    2  -0.742  -0.143  -0.121
    1UNL     C3    3  -0.687  -0.172  -0.236
    1UNL     C4    4  -0.772  -0.190  -0.354
    1UNL     O1    5  -0.839  -0.066  -0.395
    1UNL     C5    6  -0.642  -0.114  -0.003
    1UNL     C6    7  -0.647   0.032   0.038
    1UNL     C7    8  -0.541   0.070   0.142
    1UNL     C8    9  -0.422   0.112   0.103
    1UNL     C9   10  -0.395   0.140  -0.039
    1UNL    C10   11  -0.306   0.109   0.193
    1UNL     O2   12  -0.309   0.036   0.295
    1UNL     O3   13  -0.201   0.186   0.164
    1UNL    C11   14  -0.076   0.147   0.225
    1UNL    C12   15   0.036   0.256   0.206
    1UNL     O4   16   0.071   0.245   0.071
    1UNL    C13   17  -0.037   0.275  -0.020
    1UNL    C14   18  -0.089   0.424  -0.014
    1UNL     O5   19  -0.228   0.418   0.009
    1UNL    C15   20  -0.048   0.506  -0.147
    1UNL    C16   21  -0.074   0.654  -0.134
    1UNL     O6   22   0.088   0.482  -0.172
    1UNL    C17   23   0.119   0.348  -0.208
    1UNL     O7   24   0.242   0.290  -0.166
    1UNL    C18   25   0.291   0.374  -0.055
    1UNL    C19   26   0.372   0.499  -0.093
    1UNL    C20   27   0.443   0.498  -0.210
    1UNL    C21   28   0.506   0.627  -0.252
    1UNL    C22   29   0.461   0.379  -0.299
    1UNL    C23   30   0.558   0.276  -0.245
    1UNL    C24   31   0.548   0.139  -0.305
    1UNL    C25   32   0.564   0.032  -0.227
    1UNL    C26   33   0.615   0.040  -0.084
    1UNL    C27   34   0.501  -0.097  -0.265
    1UNL     O8   35   0.410  -0.151  -0.164
    1UNL    C28   36   0.389  -0.288  -0.162
    1UNL     O9   37   0.397  -0.357  -0.284
    1UNL    C29   38   0.388  -0.506  -0.263
    1UNL    C30   39   0.431  -0.576  -0.389
    1UNL    C31   40   0.247  -0.539  -0.219
    1UNL    O10   41   0.213  -0.685  -0.211
    1UNL    C32   42   0.228  -0.470  -0.080
    1UNL    O11   43   0.097  -0.499  -0.035
    1UNL    C33   44   0.251  -0.322  -0.089
    1UNL    O12   45   0.260  -0.262   0.037
    1UNL    C34   46   0.008   0.250  -0.163
    1UNL    O13   47   0.063   0.120  -0.176
    1UNL    O14   48   0.137   0.231   0.313
    1UNL    C35   49   0.170   0.090   0.346
    1UNL    C36   50   0.122   0.030   0.478
    1UNL    C37   51   0.129  -0.004   0.226
    1UNL    O15   52   0.204   0.010   0.106
    1UNL    C38   53  -0.017   0.009   0.185
    1UNL    O16   54  -0.098  -0.098   0.246
    1UNL    C39   55  -0.101  -0.221   0.170
    1UNL    O17   56   0.012  -0.312   0.183
    1UNL    C40   57   0.020  -0.367   0.325
    1UNL    C41   58   0.014  -0.515   0.311
    1UNL    C42   59  -0.099  -0.307   0.412
    1UNL    O18   60  -0.102  -0.366   0.546
    1UNL    C43   61  -0.239  -0.326   0.350
    1UNL    O19   62  -0.319  -0.238   0.432
    1UNL    C44   63  -0.241  -0.289   0.201
    1UNL    O20   64  -0.349  -0.214   0.166
    1UNL     H1   65  -0.955  -0.199  -0.160
    1UNL     H2   66  -0.928  -0.043  -0.148
    1UNL     H3   67  -0.910  -0.130   0.005
    1UNL     H4   68  -0.573  -0.175  -0.250
    1UNL     H5   69  -0.846  -0.262  -0.328
    1UNL     H6   70  -0.708  -0.230  -0.432
    1UNL     H7   71  -0.776  -0.009  -0.446
    1UNL     H8   72  -0.650  -0.178   0.086
    1UNL     H9   73  -0.547  -0.150  -0.049
    1UNL    H10   74  -0.662   0.098  -0.049
    1UNL    H11   75  -0.742   0.058   0.088
    1UNL    H12   76  -0.561   0.026   0.237
    1UNL    H13   77  -0.410   0.248  -0.064
    1UNL    H14   78  -0.294   0.113  -0.068
    1UNL    H15   79  -0.453   0.081  -0.113
    1UNL    H16   80  -0.104   0.152   0.337
    1UNL    H17   81  -0.010   0.351   0.218
    1UNL    H18   82  -0.120   0.205  -0.009
    1UNL    H19   83  -0.033   0.476   0.069
    1UNL    H20   84  -0.247   0.343   0.074
    1UNL    H21   85  -0.114   0.463  -0.223
    1UNL    H22   86  -0.168   0.681  -0.084
    1UNL    H23   87  -0.073   0.701  -0.234
    1UNL    H24   88   0.006   0.694  -0.073
    1UNL    H25   89   0.126   0.353  -0.315
    1UNL    H26   90   0.197   0.407  -0.011
    1UNL    H27   91   0.340   0.308   0.014
    1UNL    H28   92   0.369   0.591  -0.043
    1UNL    H29   93   0.611   0.636  -0.216
    1UNL    H30   94   0.445   0.710  -0.237
    1UNL    H31   95   0.513   0.629  -0.360
    1UNL    H32   96   0.361   0.339  -0.313
    1UNL    H33   97   0.496   0.410  -0.398
    1UNL    H34   98   0.666   0.310  -0.256
    1UNL    H35   99   0.552   0.269  -0.135
    1UNL    H36  100   0.506   0.121  -0.401
    1UNL    H37  101   0.602  -0.053  -0.037
    1UNL    H38  102   0.546   0.098  -0.027
    1UNL    H39  103   0.704   0.089  -0.071
    1UNL    H40  104   0.581  -0.169  -0.292
    1UNL    H41  105   0.437  -0.083  -0.353
    1UNL    H42  106   0.465  -0.334  -0.102
    1UNL    H43  107   0.450  -0.527  -0.176
    1UNL    H44  108   0.369  -0.547  -0.470
    1UNL    H45  109   0.533  -0.557  -0.418
    1UNL    H46  110   0.425  -0.687  -0.383
    1UNL    H47  111   0.176  -0.489  -0.292
    1UNL    H48  112   0.210  -0.704  -0.113
    1UNL    H49  113   0.305  -0.509  -0.012
    1UNL    H50  114   0.071  -0.446   0.040
    1UNL    H51  115   0.172  -0.275  -0.152
    1UNL    H52  116   0.255  -0.165   0.043
    1UNL    H53  117  -0.085   0.264  -0.229
    1UNL    H54  118   0.163   0.123  -0.160
    1UNL    H55  119   0.279   0.083   0.349
    1UNL    H56  120   0.166   0.101   0.557
    1UNL    H57  121   0.009   0.022   0.486
    1UNL    H58  122   0.163  -0.069   0.499
    1UNL    H59  123   0.146  -0.107   0.256
    1UNL    H60  124   0.170   0.093   0.063
    1UNL    H61  125  -0.039   0.001   0.081
    1UNL    H62  126  -0.095  -0.191   0.062
    1UNL    H63  127   0.117  -0.329   0.368
    1UNL    H64  128   0.001  -0.559   0.413
    1UNL    H65  129   0.117  -0.548   0.272
    1UNL    H66  130  -0.063  -0.545   0.242
    1UNL    H67  131  -0.082  -0.201   0.428
    1UNL    H68  132  -0.170  -0.330   0.606
    1UNL    H69  133  -0.271  -0.427   0.372
    1UNL    H70  134  -0.298  -0.150   0.398
    1UNL    H71  135  -0.253  -0.382   0.138
    1UNL    H72  136  -0.338  -0.127   0.204
   0.00000   0.00000   0.00000   0.00000   0.00000   0.00000   0.00000   0.00000   0.00000
Generated with MDTraj, t= 71.0
 136
    1UNL     C1    1  -0.890  -0.204  -0.074
    1UNL     C2    2  -0.742  -0.167  -0.103
    1UNL     C3    3  -0.697  -0.147  -0.223
    1UNL     C4    4  -0.755  -0.163  -0.357
    1UNL     O1    5  -0.800  -0.041  -0.411
    1UNL     C5    6  -0.642  -0.130   0.010
    1UNL     C6    7  -0.661   0.006   0.063
    1UNL     C7    8  -0.557   0.040   0.162
    1UNL     C8    9  -0.449   0.108   0.119
    1UNL     C9   10  -0.452   0.172  -0.015
    1UNL    C10   11  -0.320   0.107   0.196
    1UNL     O2   12  -0.333   0.069   0.313
    1UNL     O3   13  -0.214   0.156   0.139
    1UNL    C11   14  -0.089   0.134   0.215
    1UNL    C12   15   0.020   0.248   0.194
    1UNL     O4   16   0.077   0.245   0.061
    1UNL    C13   17  -0.021   0.285  -0.038
    1UNL    C14   18  -0.071   0.432  -0.013
    1UNL     O5   19  -0.206   0.445   0.044
    1UNL    C15   20  -0.048   0.516  -0.147
    1UNL    C16   21  -0.084   0.659  -0.130
    1UNL     O6   22   0.082   0.500  -0.203
    1UNL    C17   23   0.105   0.369  -0.252
    1UNL     O7   24   0.238   0.325  -0.242
    1UNL    C18   25   0.305   0.378  -0.122
    1UNL    C19   26   0.387   0.504  -0.138
    1UNL    C20   27   0.491   0.516  -0.223
    1UNL    C21   28   0.543   0.651  -0.245
    1UNL    C22   29   0.523   0.399  -0.313
    1UNL    C23   30   0.588   0.280  -0.238
    1UNL    C24   31   0.528   0.148  -0.263
    1UNL    C25   32   0.554   0.037  -0.197
    1UNL    C26   33   0.656   0.036  -0.087
    1UNL    C27   34   0.494  -0.099  -0.227
    1UNL     O8   35   0.458  -0.171  -0.112
    1UNL    C28   36   0.415  -0.309  -0.132
    1UNL     O9   37   0.416  -0.362  -0.267
    1UNL    C29   38   0.387  -0.504  -0.272
    1UNL    C30   39   0.385  -0.550  -0.414
    1UNL    C31   40   0.250  -0.535  -0.217
    1UNL    O10   41   0.219  -0.674  -0.230
    1UNL    C32   42   0.223  -0.477  -0.083
    1UNL    O11   43   0.087  -0.488  -0.056
    1UNL    C33   44   0.267  -0.326  -0.080
    1UNL    O12   45   0.259  -0.268   0.053
    1UNL    C34   46   0.013   0.256  -0.183
    1UNL    O13   47   0.080   0.127  -0.179
    1UNL    O14   48   0.115   0.232   0.300
    1UNL    C35   49   0.158   0.101   0.335
    1UNL    C36   50   0.098   0.051   0.460
    1UNL    C37   51   0.120  -0.007   0.218
    1UNL    O15   52   0.196   0.005   0.098
    1UNL    C38   53  -0.030  -0.001   0.181
    1UNL    O16   54  -0.101  -0.114   0.251
    1UNL    C39   55  -0.118  -0.228   0.177
    1UNL    O17   56  -0.012  -0.318   0.179
    1UNL    C40   57  -0.006  -0.394   0.310
    1UNL    C41   58  -0.016  -0.541   0.297
    1UNL    C42   59  -0.095  -0.333   0.424
    1UNL    O18   60  -0.081  -0.404   0.549
    1UNL    C43   61  -0.241  -0.323   0.383
    1UNL    O19   62  -0.303  -0.218   0.461
    1UNL    C44   63  -0.250  -0.302   0.222
    1UNL    O20   64  -0.367  -0.237   0.181
    1UNL     H1   65  -0.918  -0.278  -0.004
    1UNL     H2   66  -0.941  -0.237  -0.164
    1UNL     H3   67  -0.935  -0.108  -0.049
    1UNL     H4   68  -0.599  -0.115  -0.227
    1UNL     H5   69  -0.841  -0.226  -0.342
    1UNL     H6   70  -0.683  -0.210  -0.428
    1UNL     H7   71  -0.729   0.026  -0.396
    1UNL     H8   72  -0.664  -0.211   0.083
    1UNL     H9   73  -0.538  -0.143  -0.016
    1UNL    H10   74  -0.672   0.089  -0.005
    1UNL    H11   75  -0.764   0.008   0.104
    1UNL    H12   76  -0.568  -0.004   0.262
    1UNL    H13   77  -0.545   0.230  -0.033
    1UNL    H14   78  -0.363   0.234  -0.026
    1UNL    H15   79  -0.440   0.100  -0.098
    1UNL    H16   80  -0.111   0.130   0.327
    1UNL    H17   81  -0.034   0.341   0.197
    1UNL    H18   82  -0.107   0.218  -0.025
    1UNL    H19   83   0.004   0.486   0.052
    1UNL    H20   84  -0.233   0.362   0.086
    1UNL    H21   85  -0.124   0.474  -0.218
    1UNL    H22   86  -0.183   0.681  -0.092
    1UNL    H23   87  -0.070   0.713  -0.230
    1UNL    H24   88  -0.017   0.700  -0.059
    1UNL    H25   89   0.079   0.370  -0.357
    1UNL    H26   90   0.226   0.387  -0.049
    1UNL    H27   91   0.366   0.297  -0.090
    1UNL    H28   92   0.349   0.598  -0.090
    1UNL    H29   93   0.595   0.679  -0.152
    1UNL    H30   94   0.463   0.706  -0.278
    1UNL    H31   95   0.617   0.651  -0.326
    1UNL    H32   96   0.431   0.366  -0.365
    1UNL    H33   97   0.596   0.429  -0.388
    1UNL    H34   98   0.701   0.279  -0.251
    1UNL    H35   99   0.583   0.298  -0.127
    1UNL    H36  100   0.451   0.137  -0.336
    1UNL    H37  101   0.654  -0.066  -0.056
    1UNL    H38  102   0.610   0.089  -0.010
    1UNL    H39  103   0.746   0.077  -0.112
    1UNL    H40  104   0.570  -0.161  -0.276
    1UNL    H41  105   0.406  -0.088  -0.288
    1UNL    H42  106   0.475  -0.379  -0.075
    1UNL    H43  107   0.460  -0.551  -0.210
    1UNL    H44  108   0.322  -0.491  -0.478
    1UNL    H45  109   0.488  -0.553  -0.456
    1UNL    H46  110   0.351  -0.651  -0.415
    1UNL    H47  111   0.176  -0.489  -0.289
    1UNL    H48  112   0.267  -0.727  -0.162
    1UNL    H49  113   0.281  -0.535  -0.007
    1UNL    H50  114   0.061  -0.429   0.018
    1UNL    H51  115   0.205  -0.271  -0.154
    1UNL    H52  116   0.250  -0.176   0.055
    1UNL    H53  117  -0.085   0.241  -0.243
    1UNL    H54  118   0.175   0.141  -0.173
    1UNL    H55  119   0.264   0.109   0.340
    1UNL    H56  120   0.114   0.125   0.546
    1UNL    H57  121  -0.010   0.024   0.451
    1UNL    H58  122   0.143  -0.046   0.491
    1UNL    H59  123   0.143  -0.109   0.243
    1UNL    H60  124   0.164   0.090   0.067
    1UNL    H61  125  -0.044  -0.020   0.076
    1UNL    H62  126  -0.128  -0.199   0.069
    1UNL    H63  127   0.099  -0.366   0.340
    1UNL    H64  128   0.022  -0.594   0.390
    1UNL    H65  129   0.054  -0.571   0.212
    1UNL    H66  130  -0.116  -0.570   0.274
    1UNL    H67  131  -0.069  -0.225   0.434
    1UNL    H68  132  -0.135  -0.355   0.613
    1UNL    H69  133  -0.293  -0.415   0.406
    1UNL    H70  134  -0.295  -0.127   0.416
    1UNL    H71  135  -0.249  -0.397   0.160
    1UNL    H72  136  -0.377  -0.143   0.214
   0.00000   0.00000   0.00000   0.00000   0.00000   0.00000   0.00000   0.00000   0.00000
Generated with MDTraj, t= 72.0
 136
    1UNL     C1    1  -0.871  -0.253  -0.086
    1UNL     C2    2  -0.743  -0.174  -0.095
    1UNL     C3    3  -0.699  -0.124  -0.205
    1UNL     C4    4  -0.745  -0.140  -0.337
    1UNL     O1    5  -0.784  -0.024  -0.401
    1UNL     C5    6  -0.659  -0.160   0.025
    1UNL     C6    7  -0.684  -0.025   0.104
    1UNL     C7    8  -0.558   0.015   0.171
    1UNL     C8    9  -0.458   0.088   0.121
    1UNL     C9   10  -0.493   0.175  -0.003
    1UNL    C10   11  -0.326   0.093   0.190
    1UNL     O2   12  -0.321   0.044   0.305
    1UNL     O3   13  -0.222   0.159   0.133
    1UNL    C11   14  -0.097   0.132   0.202
    1UNL    C12   15   0.012   0.240   0.173
    1UNL     O4   16   0.071   0.237   0.040
    1UNL    C13   17  -0.023   0.288  -0.050
    1UNL    C14   18  -0.047   0.439  -0.029
    1UNL     O5   19  -0.168   0.452   0.045
    1UNL    C15   20  -0.057   0.524  -0.157
    1UNL    C16   21  -0.089   0.664  -0.114
    1UNL     O6   22   0.065   0.501  -0.229
    1UNL    C17   23   0.094   0.368  -0.279
    1UNL     O7   24   0.240   0.349  -0.276
    1UNL    C18   25   0.290   0.392  -0.158
    1UNL    C19   26   0.395   0.499  -0.171
    1UNL    C20   27   0.507   0.496  -0.244
    1UNL    C21   28   0.601   0.609  -0.235
    1UNL    C22   29   0.537   0.372  -0.318
    1UNL    C23   30   0.608   0.255  -0.241
    1UNL    C24   31   0.516   0.135  -0.223
    1UNL    C25   32   0.532   0.028  -0.148
    1UNL    C26   33   0.666   0.007  -0.089
    1UNL    C27   34   0.441  -0.092  -0.151
    1UNL     O8   35   0.499  -0.189  -0.077
    1UNL    C28   36   0.427  -0.304  -0.105
    1UNL     O9   37   0.427  -0.325  -0.250
    1UNL    C29   38   0.393  -0.461  -0.282
    1UNL    C30   39   0.404  -0.488  -0.436
    1UNL    C31   40   0.245  -0.500  -0.228
    1UNL    O10   41   0.221  -0.640  -0.253
    1UNL    C32   42   0.225  -0.457  -0.083
    1UNL    O11   43   0.087  -0.465  -0.052
    1UNL    C33   44   0.282  -0.308  -0.063
    1UNL    O12   45   0.261  -0.276   0.076
    1UNL    C34   46   0.013   0.258  -0.199
    1UNL    O13   47   0.102   0.149  -0.196
    1UNL    O14   48   0.107   0.214   0.281
    1UNL    C35   49   0.150   0.075   0.317
    1UNL    C36   50   0.099   0.038   0.460
    1UNL    C37   51   0.099  -0.030   0.206
    1UNL    O15   52   0.181  -0.017   0.093
    1UNL    C38   53  -0.048  -0.003   0.166
    1UNL    O16   54  -0.137  -0.100   0.226
    1UNL    C39   55  -0.140  -0.233   0.177
    1UNL    O17   56  -0.017  -0.307   0.186
    1UNL    C40   57  -0.008  -0.393   0.300
    1UNL    C41   58  -0.050  -0.535   0.273
    1UNL    C42   59  -0.087  -0.335   0.425
    1UNL    O18   60  -0.062  -0.423   0.537
    1UNL    C43   61  -0.235  -0.303   0.402
    1UNL    O19   62  -0.282  -0.200   0.485
    1UNL    C44   63  -0.259  -0.297   0.246
    1UNL    O20   64  -0.369  -0.222   0.203
    1UNL     H1   65  -0.919  -0.246   0.010
    1UNL     H2   66  -0.853  -0.358  -0.105
    1UNL     H3   67  -0.943  -0.221  -0.160
    1UNL     H4   68  -0.606  -0.066  -0.204
    1UNL     H5   69  -0.832  -0.204  -0.344
    1UNL     H6   70  -0.660  -0.180  -0.400
    1UNL     H7   71  -0.725   0.052  -0.386
    1UNL     H8   72  -0.669  -0.243   0.099
    1UNL     H9   73  -0.560  -0.166  -0.011
    1UNL    H10   74  -0.726   0.042   0.032
    1UNL    H11   75  -0.771  -0.021   0.173
    1UNL    H12   76  -0.540  -0.046   0.256
    1UNL    H13   77  -0.581   0.240   0.014
    1UNL    H14   78  -0.398   0.226  -0.021
    1UNL    H15   79  -0.513   0.115  -0.093
    1UNL    H16   80  -0.116   0.138   0.313
    1UNL    H17   81  -0.021   0.342   0.187
    1UNL    H18   82  -0.115   0.233  -0.029
    1UNL    H19   83   0.049   0.478   0.015
    1UNL    H20   84  -0.195   0.362   0.079
    1UNL    H21   85  -0.139   0.487  -0.224
    1UNL    H22   86  -0.189   0.678  -0.075
    1UNL    H23   87  -0.074   0.740  -0.195
    1UNL    H24   88  -0.026   0.688  -0.030
    1UNL    H25   89   0.057   0.366  -0.385
    1UNL    H26   90   0.206   0.421  -0.094
    1UNL    H27   91   0.336   0.303  -0.116
    1UNL    H28   92   0.366   0.590  -0.125
    1UNL    H29   93   0.578   0.683  -0.161
    1UNL    H30   94   0.621   0.644  -0.336
    1UNL    H31   95   0.697   0.573  -0.197
    1UNL    H32   96   0.440   0.331  -0.357
    1UNL    H33   97   0.596   0.395  -0.405
    1UNL    H34   98   0.705   0.218  -0.285
    1UNL    H35   99   0.640   0.295  -0.140
    1UNL    H36  100   0.422   0.144  -0.277
    1UNL    H37  101   0.664  -0.086  -0.037
    1UNL    H38  102   0.679   0.072  -0.011
    1UNL    H39  103   0.752  -0.001  -0.152
    1UNL    H40  104   0.436  -0.130  -0.253
    1UNL    H41  105   0.345  -0.074  -0.105
    1UNL    H42  106   0.476  -0.395  -0.064
    1UNL    H43  107   0.463  -0.520  -0.230
    1UNL    H44  108   0.330  -0.422  -0.481
    1UNL    H45  109   0.506  -0.465  -0.479
    1UNL    H46  110   0.384  -0.589  -0.450
    1UNL    H47  111   0.164  -0.448  -0.287
    1UNL    H48  112   0.261  -0.696  -0.184
    1UNL    H49  113   0.273  -0.523  -0.006
    1UNL    H50  114   0.071  -0.406   0.029
    1UNL    H51  115   0.222  -0.233  -0.120
    1UNL    H52  116   0.232  -0.185   0.073
    1UNL    H53  117  -0.082   0.229  -0.261
    1UNL    H54  118   0.182   0.181  -0.151
    1UNL    H55  119   0.255   0.068   0.318
    1UNL    H56  120   0.144   0.108   0.537
    1UNL    H57  121  -0.011   0.041   0.464
    1UNL    H58  122   0.114  -0.069   0.496
    1UNL    H59  123   0.110  -0.131   0.240
    1UNL    H60  124   0.165   0.071   0.049
    1UNL    H61  125  -0.054  -0.010   0.056
    1UNL    H62  126  -0.164  -0.233   0.069
    1UNL    H63  127   0.099  -0.392   0.334
    1UNL    H64  128  -0.045  -0.604   0.362
    1UNL    H65  129   0.010  -0.584   0.194
    1UNL    H66  130  -0.159  -0.531   0.244
    1UNL    H67  131  -0.038  -0.238   0.451
    1UNL    H68  132  -0.111  -0.388   0.614
    1UNL    H69  133  -0.283  -0.393   0.440
    1UNL    H70  134  -0.296  -0.123   0.420
    1UNL    H71  135  -0.277  -0.402   0.208
    1UNL    H72  136  -0.345  -0.135   0.235
   0.00000   0.00000   0.00000   0.00000   0.00000   0.00000   0.00000   0.00000   0.00000
Generated with MDTraj, t= 73.0
 136
    1UNL     C1    1  -0.849  -0.268  -0.103
    1UNL     C2    2  -0.729  -0.188  -0.091
    1UNL     C3    3  -0.681  -0.134  -0.196
    1UNL     C4    4  -0.756  -0.139  -0.317
    1UNL     O1    5  -0.786  -0.009  -0.363
    1UNL     C5    6  -0.664  -0.169   0.046
    1UNL     C6    7  -0.683  -0.018   0.100
    1UNL     C7    8  -0.560   0.031   0.177
    1UNL     C8    9  -0.460   0.106   0.128
    1UNL     C9   10  -0.464   0.171  -0.009
    1UNL    C10   11  -0.331   0.114   0.206
    1UNL     O2   12  -0.327   0.078   0.326
    1UNL     O3   13  -0.222   0.164   0.136
    1UNL    C11   14  -0.100   0.125   0.195
    1UNL    C12   15   0.013   0.235   0.169
    1UNL     O4   16   0.051   0.230   0.028
    1UNL    C13   17  -0.037   0.276  -0.073
    1UNL    C14   18  -0.057   0.428  -0.041
    1UNL     O5   19  -0.177   0.444   0.049
    1UNL    C15   20  -0.072   0.513  -0.171
    1UNL    C16   21  -0.097   0.657  -0.138
    1UNL     O6   22   0.040   0.510  -0.261
    1UNL    C17   23   0.095   0.379  -0.282
    1UNL     O7   24   0.241   0.369  -0.261
    1UNL    C18   25   0.292   0.413  -0.140
    1UNL    C19   26   0.425   0.492  -0.150
    1UNL    C20   27   0.524   0.470  -0.236
    1UNL    C21   28   0.644   0.564  -0.239
    1UNL    C22   29   0.526   0.357  -0.335
    1UNL    C23   30   0.594   0.235  -0.269
    1UNL    C24   31   0.498   0.140  -0.191
    1UNL    C25   32   0.543   0.044  -0.107
    1UNL    C26   33   0.683   0.002  -0.092
    1UNL    C27   34   0.442  -0.063  -0.063
    1UNL     O8   35   0.501  -0.190  -0.029
    1UNL    C28   36   0.426  -0.305  -0.081
    1UNL     O9   37   0.432  -0.313  -0.228
    1UNL    C29   38   0.388  -0.441  -0.283
    1UNL    C30   39   0.418  -0.449  -0.427
    1UNL    C31   40   0.241  -0.459  -0.249
    1UNL    O10   41   0.197  -0.586  -0.290
    1UNL    C32   42   0.225  -0.455  -0.093
    1UNL    O11   43   0.086  -0.464  -0.056
    1UNL    C33   44   0.281  -0.325  -0.037
    1UNL    O12   45   0.264  -0.329   0.105
    1UNL    C34   46   0.017   0.256  -0.220
    1UNL    O13   47   0.093   0.138  -0.226
    1UNL    O14   48   0.121   0.207   0.262
    1UNL    C35   49   0.144   0.068   0.293
    1UNL    C36   50   0.080   0.030   0.429
    1UNL    C37   51   0.095  -0.028   0.180
    1UNL    O15   52   0.164  -0.014   0.060
    1UNL    C38   53  -0.060  -0.021   0.155
    1UNL    O16   54  -0.141  -0.108   0.237
    1UNL    C39   55  -0.153  -0.234   0.174
    1UNL    O17   56  -0.034  -0.319   0.173
    1UNL    C40   57  -0.002  -0.399   0.285
    1UNL    C41   58  -0.027  -0.548   0.263
    1UNL    C42   59  -0.070  -0.337   0.413
    1UNL    O18   60  -0.042  -0.412   0.529
    1UNL    C43   61  -0.223  -0.306   0.402
    1UNL    O19   62  -0.264  -0.188   0.471
    1UNL    C44   63  -0.266  -0.307   0.245
    1UNL    O20   64  -0.385  -0.235   0.227
    1UNL     H1   65  -0.887  -0.315  -0.012
    1UNL     H2   66  -0.832  -0.340  -0.181
    1UNL     H3   67  -0.930  -0.212  -0.144
    1UNL     H4   68  -0.590  -0.069  -0.183
    1UNL     H5   69  -0.853  -0.191  -0.312
    1UNL     H6   70  -0.699  -0.189  -0.402
    1UNL     H7   71  -0.700   0.037  -0.379
    1UNL     H8   72  -0.693  -0.246   0.122
    1UNL     H9   73  -0.561  -0.173   0.035
    1UNL    H10   74  -0.705   0.055   0.026
    1UNL    H11   75  -0.780  -0.017   0.156
    1UNL    H12   76  -0.543  -0.017   0.274
    1UNL    H13   77  -0.560   0.217  -0.031
    1UNL    H14   78  -0.375   0.235  -0.019
    1UNL    H15   79  -0.452   0.096  -0.091
    1UNL    H16   80  -0.129   0.128   0.303
    1UNL    H17   81  -0.016   0.337   0.192
    1UNL    H18   82  -0.133   0.224  -0.057
    1UNL    H19   83   0.026   0.455   0.024
    1UNL    H20   84  -0.207   0.353   0.085
    1UNL    H21   85  -0.161   0.463  -0.219
    1UNL    H22   86  -0.145   0.671  -0.040
    1UNL    H23   87  -0.149   0.712  -0.215
    1UNL    H24   88   0.005   0.696  -0.125
    1UNL    H25   89   0.088   0.372  -0.397
    1UNL    H26   90   0.216   0.488  -0.117
    1UNL    H27   91   0.292   0.333  -0.068
    1UNL    H28   92   0.430   0.577  -0.079
    1UNL    H29   93   0.625   0.666  -0.256
    1UNL    H30   94   0.717   0.521  -0.316
    1UNL    H31   95   0.702   0.572  -0.150
    1UNL    H32   96   0.419   0.333  -0.365
    1UNL    H33   97   0.580   0.388  -0.422
    1UNL    H34   98   0.634   0.171  -0.352
    1UNL    H35   99   0.683   0.258  -0.202
    1UNL    H36  100   0.396   0.148  -0.214
    1UNL    H37  101   0.700  -0.065  -0.014
    1UNL    H38  102   0.738   0.084  -0.062
    1UNL    H39  103   0.722  -0.047  -0.178
    1UNL    H40  104   0.370  -0.085  -0.140
    1UNL    H41  105   0.391  -0.031   0.026
    1UNL    H42  106   0.485  -0.396  -0.052
    1UNL    H43  107   0.445  -0.518  -0.239
    1UNL    H44  108   0.372  -0.360  -0.474
    1UNL    H45  109   0.527  -0.433  -0.431
    1UNL    H46  110   0.396  -0.544  -0.470
    1UNL    H47  111   0.186  -0.388  -0.315
    1UNL    H48  112   0.201  -0.646  -0.215
    1UNL    H49  113   0.278  -0.544  -0.048
    1UNL    H50  114   0.067  -0.416   0.024
    1UNL    H51  115   0.227  -0.234  -0.068
    1UNL    H52  116   0.338  -0.275   0.138
    1UNL    H53  117  -0.068   0.242  -0.298
    1UNL    H54  118   0.185   0.152  -0.188
    1UNL    H55  119   0.250   0.060   0.307
    1UNL    H56  120   0.091   0.109   0.507
    1UNL    H57  121  -0.025  -0.006   0.412
    1UNL    H58  122   0.121  -0.073   0.468
    1UNL    H59  123   0.115  -0.125   0.223
    1UNL    H60  124   0.130   0.068   0.018
    1UNL    H61  125  -0.087  -0.040   0.048
    1UNL    H62  126  -0.183  -0.225   0.068
    1UNL    H63  127   0.106  -0.384   0.296
    1UNL    H64  128  -0.004  -0.618   0.347
    1UNL    H65  129   0.021  -0.592   0.175
    1UNL    H66  130  -0.142  -0.556   0.249
    1UNL    H67  131  -0.021  -0.236   0.431
    1UNL    H68  132  -0.102  -0.381   0.602
    1UNL    H69  133  -0.282  -0.383   0.456
    1UNL    H70  134  -0.278  -0.107   0.411
    1UNL    H71  135  -0.281  -0.414   0.213
    1UNL    H72  136  -0.375  -0.141   0.241
   0.00000   0.00000   0.00000   0.00000   0.00000   0.00000   0.00000   0.00000   0.00000
Generated with MDTraj, t= 74.0
 136
    1UNL     C1    1  -0.845  -0.271  -0.065
    1UNL     C2    2  -0.710  -0.183  -0.072
    1UNL     C3    3  -0.673  -0.127  -0.183
    1UNL     C4    4  -0.742  -0.135  -0.315
    1UNL     O1    5  -0.800  -0.005  -0.353
    1UNL     C5    6  -0.638  -0.148   0.051
    1UNL     C6    7  -0.677  -0.011   0.096
    1UNL     C7    8  -0.556   0.053   0.177
    1UNL     C8    9  -0.457   0.113   0.108
    1UNL     C9   10  -0.448   0.156  -0.031
    1UNL    C10   11  -0.319   0.108   0.173
    1UNL     O2   12  -0.317   0.052   0.283
    1UNL     O3   13  -0.209   0.162   0.110
    1UNL    C11   14  -0.090   0.134   0.180
    1UNL    C12   15   0.029   0.222   0.149
    1UNL     O4   16   0.067   0.224   0.017
    1UNL    C13   17  -0.031   0.275  -0.078
    1UNL    C14   18  -0.083   0.426  -0.053
    1UNL     O5   19  -0.194   0.430   0.041
    1UNL    C15   20  -0.084   0.506  -0.183
    1UNL    C16   21  -0.133   0.647  -0.177
    1UNL     O6   22   0.052   0.506  -0.239
    1UNL    C17   23   0.096   0.375  -0.268
    1UNL     O7   24   0.230   0.349  -0.223
    1UNL    C18   25   0.274   0.435  -0.117
    1UNL    C19   26   0.414   0.487  -0.125
    1UNL    C20   27   0.502   0.437  -0.210
    1UNL    C21   28   0.637   0.489  -0.207
    1UNL    C22   29   0.491   0.325  -0.316
    1UNL    C23   30   0.562   0.189  -0.283
    1UNL    C24   31   0.480   0.108  -0.187
    1UNL    C25   32   0.520   0.010  -0.106
    1UNL    C26   33   0.666  -0.035  -0.106
    1UNL    C27   34   0.428  -0.054  -0.013
    1UNL     O8   35   0.477  -0.181   0.030
    1UNL    C28   36   0.431  -0.292  -0.052
    1UNL     O9   37   0.450  -0.277  -0.195
    1UNL    C29   38   0.401  -0.395  -0.266
    1UNL    C30   39   0.419  -0.380  -0.413
    1UNL    C31   40   0.240  -0.408  -0.242
    1UNL    O10   41   0.183  -0.515  -0.323
    1UNL    C32   42   0.223  -0.441  -0.090
    1UNL    O11   43   0.082  -0.454  -0.064
    1UNL    C33   44   0.287  -0.327  -0.010
    1UNL    O12   45   0.279  -0.353   0.134
    1UNL    C34   46   0.003   0.257  -0.221
    1UNL    O13   47   0.081   0.145  -0.237
    1UNL    O14   48   0.137   0.190   0.233
    1UNL    C35   49   0.170   0.048   0.260
    1UNL    C36   50   0.131   0.017   0.403
    1UNL    C37   51   0.101  -0.041   0.165
    1UNL    O15   52   0.163  -0.034   0.037
    1UNL    C38   53  -0.051  -0.018   0.150
    1UNL    O16   54  -0.127  -0.112   0.222
    1UNL    C39   55  -0.165  -0.236   0.159
    1UNL    O17   56  -0.040  -0.313   0.147
    1UNL    C40   57   0.002  -0.378   0.272
    1UNL    C41   58  -0.011  -0.534   0.262
    1UNL    C42   59  -0.062  -0.321   0.403
    1UNL    O18   60  -0.020  -0.386   0.517
    1UNL    C43   61  -0.219  -0.310   0.395
    1UNL    O19   62  -0.261  -0.201   0.471
    1UNL    C44   63  -0.277  -0.301   0.249
    1UNL    O20   64  -0.399  -0.225   0.255
    1UNL     H1   65  -0.829  -0.380  -0.072
    1UNL     H2   66  -0.915  -0.238  -0.139
    1UNL     H3   67  -0.909  -0.266   0.019
    1UNL     H4   68  -0.591  -0.065  -0.184
    1UNL     H5   69  -0.826  -0.209  -0.303
    1UNL     H6   70  -0.669  -0.172  -0.396
    1UNL     H7   71  -0.769   0.067  -0.292
    1UNL     H8   72  -0.651  -0.220   0.133
    1UNL     H9   73  -0.538  -0.147   0.019
    1UNL    H10   74  -0.697   0.052   0.013
    1UNL    H11   75  -0.765  -0.010   0.165
    1UNL    H12   76  -0.543   0.037   0.281
    1UNL    H13   77  -0.544   0.187  -0.071
    1UNL    H14   78  -0.363   0.224  -0.054
    1UNL    H15   79  -0.433   0.074  -0.103
    1UNL    H16   80  -0.123   0.139   0.284
    1UNL    H17   81   0.005   0.328   0.164
    1UNL    H18   82  -0.118   0.207  -0.062
    1UNL    H19   83  -0.003   0.471   0.002
    1UNL    H20   84  -0.205   0.343   0.075
    1UNL    H21   85  -0.139   0.453  -0.266
    1UNL    H22   86  -0.243   0.656  -0.169
    1UNL    H23   87  -0.099   0.698  -0.262
    1UNL    H24   88  -0.089   0.689  -0.083
    1UNL    H25   89   0.106   0.364  -0.383
    1UNL    H26   90   0.197   0.510  -0.096
    1UNL    H27   91   0.269   0.361  -0.039
    1UNL    H28   92   0.439   0.566  -0.058
    1UNL    H29   93   0.665   0.552  -0.288
    1UNL    H30   94   0.704   0.396  -0.200
    1UNL    H31   95   0.648   0.546  -0.119
    1UNL    H32   96   0.384   0.307  -0.348
    1UNL    H33   97   0.543   0.367  -0.400
    1UNL    H34   98   0.568   0.126  -0.377
    1UNL    H35   99   0.667   0.209  -0.241
    1UNL    H36  100   0.372   0.135  -0.189
    1UNL    H37  101   0.680  -0.123  -0.057
    1UNL    H38  102   0.714   0.046  -0.053
    1UNL    H39  103   0.696  -0.052  -0.207
    1UNL    H40  104   0.333  -0.067  -0.065
    1UNL    H41  105   0.420   0.010   0.074
    1UNL    H42  106   0.490  -0.385  -0.022
    1UNL    H43  107   0.451  -0.480  -0.226
    1UNL    H44  108   0.368  -0.288  -0.447
    1UNL    H45  109   0.521  -0.367  -0.440
    1UNL    H46  110   0.384  -0.467  -0.471
    1UNL    H47  111   0.177  -0.321  -0.263
    1UNL    H48  112   0.141  -0.577  -0.261
    1UNL    H49  113   0.256  -0.545  -0.065
    1UNL    H50  114   0.045  -0.398   0.007
    1UNL    H51  115   0.221  -0.239  -0.009
    1UNL    H52  116   0.342  -0.277   0.172
    1UNL    H53  117  -0.083   0.242  -0.294
    1UNL    H54  118   0.163   0.157  -0.187
    1UNL    H55  119   0.277   0.053   0.237
    1UNL    H56  120   0.187   0.085   0.469
    1UNL    H57  121   0.018   0.030   0.406
    1UNL    H58  122   0.138  -0.096   0.427
    1UNL    H59  123   0.117  -0.145   0.191
    1UNL    H60  124   0.129   0.048  -0.001
    1UNL    H61  125  -0.066  -0.044   0.041
    1UNL    H62  126  -0.203  -0.227   0.057
    1UNL    H63  127   0.107  -0.351   0.267
    1UNL    H64  128   0.046  -0.599   0.335
    1UNL    H65  129   0.014  -0.572   0.163
    1UNL    H66  130  -0.121  -0.555   0.279
    1UNL    H67  131  -0.018  -0.216   0.406
    1UNL    H68  132  -0.076  -0.363   0.595
    1UNL    H69  133  -0.270  -0.396   0.444
    1UNL    H70  134  -0.273  -0.119   0.410
    1UNL    H71  135  -0.295  -0.406   0.216
    1UNL    H72  136  -0.368  -0.128   0.271
   0.00000   0.00000   0.00000   0.00000   0.00000   0.00000   0.00000   0.00000   0.00000
Generated with MDTraj, t= 75.0
 136
    1UNL     C1    1  -0.858  -0.244  -0.051
    1UNL     C2    2  -0.726  -0.167  -0.072
    1UNL     C3    3  -0.675  -0.122  -0.184
    1UNL     C4    4  -0.732  -0.131  -0.324
    1UNL     O1    5  -0.843  -0.050  -0.345
    1UNL     C5    6  -0.636  -0.141   0.050
    1UNL     C6    7  -0.665   0.005   0.088
    1UNL     C7    8  -0.552   0.064   0.172
    1UNL     C8    9  -0.438   0.107   0.118
    1UNL     C9   10  -0.422   0.123  -0.030
    1UNL    C10   11  -0.313   0.121   0.192
    1UNL     O2   12  -0.298   0.081   0.307
    1UNL     O3   13  -0.207   0.165   0.115
    1UNL    C11   14  -0.085   0.138   0.180
    1UNL    C12   15   0.033   0.229   0.146
    1UNL     O4   16   0.064   0.233   0.005
    1UNL    C13   17  -0.039   0.262  -0.090
    1UNL    C14   18  -0.093   0.410  -0.056
    1UNL     O5   19  -0.226   0.410  -0.003
    1UNL    C15   20  -0.098   0.494  -0.187
    1UNL    C16   21  -0.140   0.640  -0.159
    1UNL     O6   22   0.040   0.501  -0.237
    1UNL    C17   23   0.093   0.372  -0.278
    1UNL     O7   24   0.226   0.338  -0.242
    1UNL    C18   25   0.260   0.394  -0.118
    1UNL    C19   26   0.408   0.423  -0.103
    1UNL    C20   27   0.508   0.384  -0.177
    1UNL    C21   28   0.643   0.437  -0.150
    1UNL    C22   29   0.486   0.312  -0.304
    1UNL    C23   30   0.523   0.164  -0.284
    1UNL    C24   31   0.470   0.111  -0.151
    1UNL    C25   32   0.513  -0.006  -0.105
    1UNL    C26   33   0.638  -0.074  -0.163
    1UNL    C27   34   0.455  -0.061   0.026
    1UNL     O8   35   0.487  -0.191   0.069
    1UNL    C28   36   0.429  -0.290  -0.017
    1UNL     O9   37   0.439  -0.248  -0.151
    1UNL    C29   38   0.395  -0.335  -0.256
    1UNL    C30   39   0.430  -0.269  -0.389
    1UNL    C31   40   0.243  -0.373  -0.230
    1UNL    O10   41   0.194  -0.444  -0.338
    1UNL    C32   42   0.221  -0.433  -0.086
    1UNL    O11   43   0.080  -0.460  -0.075
    1UNL    C33   44   0.284  -0.323   0.009
    1UNL    O12   45   0.279  -0.368   0.146
    1UNL    C34   46  -0.000   0.250  -0.232
    1UNL    O13   47   0.051   0.123  -0.250
    1UNL    O14   48   0.155   0.191   0.223
    1UNL    C35   49   0.185   0.048   0.233
    1UNL    C36   50   0.176  -0.010   0.371
    1UNL    C37   51   0.101  -0.039   0.133
    1UNL    O15   52   0.150  -0.029  -0.002
    1UNL    C38   53  -0.050  -0.016   0.134
    1UNL    O16   54  -0.117  -0.107   0.221
    1UNL    C39   55  -0.149  -0.233   0.158
    1UNL    O17   56  -0.034  -0.323   0.143
    1UNL    C40   57   0.003  -0.377   0.269
    1UNL    C41   58  -0.031  -0.527   0.277
    1UNL    C42   59  -0.051  -0.302   0.388
    1UNL    O18   60  -0.000  -0.357   0.502
    1UNL    C43   61  -0.212  -0.306   0.386
    1UNL    O19   62  -0.257  -0.188   0.453
    1UNL    C44   63  -0.260  -0.300   0.237
    1UNL    O20   64  -0.388  -0.230   0.240
    1UNL     H1   65  -0.915  -0.234  -0.144
    1UNL     H2   66  -0.913  -0.199   0.028
    1UNL     H3   67  -0.847  -0.348  -0.035
    1UNL     H4   68  -0.582  -0.059  -0.167
    1UNL     H5   69  -0.761  -0.240  -0.324
    1UNL     H6   70  -0.640  -0.107  -0.393
    1UNL     H7   71  -0.822   0.037  -0.387
    1UNL     H8   72  -0.646  -0.213   0.130
    1UNL     H9   73  -0.535  -0.144   0.019
    1UNL    H10   74  -0.664   0.067   0.002
    1UNL    H11   75  -0.760   0.015   0.145
    1UNL    H12   76  -0.549   0.035   0.277
    1UNL    H13   77  -0.514   0.140  -0.087
    1UNL    H14   78  -0.336   0.193  -0.043
    1UNL    H15   79  -0.385   0.031  -0.078
    1UNL    H16   80  -0.113   0.140   0.282
    1UNL    H17   81   0.024   0.337   0.174
    1UNL    H18   82  -0.124   0.190  -0.076
    1UNL    H19   83  -0.034   0.457   0.019
    1UNL    H20   84  -0.225   0.327   0.052
    1UNL    H21   85  -0.157   0.446  -0.268
    1UNL    H22   86  -0.210   0.639  -0.075
    1UNL    H23   87  -0.183   0.694  -0.239
    1UNL    H24   88  -0.050   0.695  -0.126
    1UNL    H25   89   0.095   0.374  -0.394
    1UNL    H26   90   0.204   0.489  -0.120
    1UNL    H27   91   0.219   0.334  -0.037
    1UNL    H28   92   0.436   0.467  -0.006
    1UNL    H29   93   0.698   0.466  -0.239
    1UNL    H30   94   0.706   0.361  -0.101
    1UNL    H31   95   0.627   0.524  -0.090
    1UNL    H32   96   0.382   0.332  -0.335
    1UNL    H33   97   0.541   0.356  -0.386
    1UNL    H34   98   0.488   0.098  -0.367
    1UNL    H35   99   0.638   0.167  -0.276
    1UNL    H36  100   0.384   0.151  -0.104
    1UNL    H37  101   0.639  -0.179  -0.148
    1UNL    H38  102   0.718  -0.023  -0.112
    1UNL    H39  103   0.633  -0.068  -0.267
    1UNL    H40  104   0.347  -0.054   0.021
    1UNL    H41  105   0.493   0.004   0.103
    1UNL    H42  106   0.503  -0.377  -0.018
    1UNL    H43  107   0.456  -0.423  -0.241
    1UNL    H44  108   0.387  -0.174  -0.420
    1UNL    H45  109   0.534  -0.253  -0.395
    1UNL    H46  110   0.419  -0.345  -0.472
    1UNL    H47  111   0.196  -0.276  -0.235
    1UNL    H48  112   0.098  -0.464  -0.315
    1UNL    H49  113   0.276  -0.528  -0.088
    1UNL    H50  114   0.041  -0.409   0.002
    1UNL    H51  115   0.229  -0.229   0.007
    1UNL    H52  116   0.340  -0.319   0.205
    1UNL    H53  117  -0.090   0.255  -0.296
    1UNL    H54  118   0.141   0.132  -0.217
    1UNL    H55  119   0.292   0.036   0.202
    1UNL    H56  120   0.237   0.052   0.440
    1UNL    H57  121   0.066  -0.009   0.405
    1UNL    H58  122   0.197  -0.121   0.382
    1UNL    H59  123   0.111  -0.141   0.166
    1UNL    H60  124   0.122   0.060  -0.037
    1UNL    H61  125  -0.083  -0.025   0.027
    1UNL    H62  126  -0.186  -0.218   0.057
    1UNL    H63  127   0.112  -0.368   0.260
    1UNL    H64  128  -0.024  -0.570   0.381
    1UNL    H65  129   0.039  -0.584   0.209
    1UNL    H66  130  -0.133  -0.537   0.244
    1UNL    H67  131  -0.012  -0.196   0.381
    1UNL    H68  132  -0.047  -0.315   0.577
    1UNL    H69  133  -0.255  -0.394   0.440
    1UNL    H70  134  -0.238  -0.105   0.397
    1UNL    H71  135  -0.277  -0.400   0.194
    1UNL    H72  136  -0.380  -0.159   0.299
   0.00000   0.00000   0.00000   0.00000   0.00000   0.00000   0.00000   0.00000   0.00000
Generated with MDTraj, t= 76.0
 136
    1UNL     C1    1  -0.877  -0.199  -0.067
    1UNL     C2    2  -0.738  -0.141  -0.088
    1UNL     C3    3  -0.682  -0.126  -0.207
    1UNL     C4    4  -0.754  -0.156  -0.332
    1UNL     O1    5  -0.880  -0.112  -0.318
    1UNL     C5    6  -0.657  -0.127   0.033
    1UNL     C6    7  -0.677   0.017   0.105
    1UNL     C7    8  -0.554   0.054   0.179
    1UNL     C8    9  -0.435   0.085   0.130
    1UNL     C9   10  -0.415   0.085  -0.020
    1UNL    C10   11  -0.310   0.111   0.216
    1UNL     O2   12  -0.295   0.055   0.320
    1UNL     O3   13  -0.212   0.177   0.150
    1UNL    C11   14  -0.078   0.141   0.183
    1UNL    C12   15   0.030   0.231   0.134
    1UNL     O4   16   0.047   0.233  -0.006
    1UNL    C13   17  -0.064   0.266  -0.088
    1UNL    C14   18  -0.107   0.416  -0.068
    1UNL     O5   19  -0.234   0.413  -0.012
    1UNL    C15   20  -0.086   0.507  -0.196
    1UNL    C16   21  -0.125   0.651  -0.139
    1UNL     O6   22   0.048   0.491  -0.256
    1UNL    C17   23   0.082   0.357  -0.296
    1UNL     O7   24   0.223   0.343  -0.267
    1UNL    C18   25   0.238   0.365  -0.133
    1UNL    C19   26   0.386   0.397  -0.096
    1UNL    C20   27   0.497   0.361  -0.155
    1UNL    C21   28   0.627   0.381  -0.078
    1UNL    C22   29   0.490   0.275  -0.282
    1UNL    C23   30   0.541   0.135  -0.269
    1UNL    C24   31   0.492   0.079  -0.143
    1UNL    C25   32   0.559  -0.009  -0.072
    1UNL    C26   33   0.691  -0.060  -0.107
    1UNL    C27   34   0.485  -0.069   0.043
    1UNL     O8   35   0.506  -0.211   0.053
    1UNL    C28   36   0.445  -0.283  -0.050
    1UNL     O9   37   0.439  -0.215  -0.173
    1UNL    C29   38   0.380  -0.302  -0.272
    1UNL    C30   39   0.385  -0.230  -0.410
    1UNL    C31   40   0.231  -0.343  -0.235
    1UNL    O10   41   0.173  -0.427  -0.336
    1UNL    C32   42   0.232  -0.408  -0.095
    1UNL    O11   43   0.106  -0.457  -0.069
    1UNL    C33   44   0.304  -0.317   0.001
    1UNL    O12   45   0.306  -0.383   0.130
    1UNL    C34   46  -0.012   0.239  -0.235
    1UNL    O13   47   0.063   0.117  -0.243
    1UNL    O14   48   0.150   0.203   0.207
    1UNL    C35   49   0.188   0.060   0.215
    1UNL    C36   50   0.190   0.004   0.354
    1UNL    C37   51   0.100  -0.042   0.124
    1UNL    O15   52   0.149  -0.043  -0.010
    1UNL    C38   53  -0.054  -0.002   0.121
    1UNL    O16   54  -0.119  -0.094   0.210
    1UNL    C39   55  -0.141  -0.224   0.150
    1UNL    O17   56  -0.016  -0.312   0.146
    1UNL    C40   57   0.003  -0.374   0.272
    1UNL    C41   58  -0.028  -0.524   0.280
    1UNL    C42   59  -0.054  -0.296   0.393
    1UNL    O18   60  -0.018  -0.351   0.521
    1UNL    C43   61  -0.211  -0.284   0.384
    1UNL    O19   62  -0.256  -0.176   0.464
    1UNL    C44   63  -0.252  -0.281   0.235
    1UNL    O20   64  -0.368  -0.204   0.222
    1UNL     H1   65  -0.947  -0.121  -0.043
    1UNL     H2   66  -0.882  -0.270   0.014
    1UNL     H3   67  -0.920  -0.241  -0.156
    1UNL     H4   68  -0.587  -0.082  -0.213
    1UNL     H5   69  -0.756  -0.268  -0.334
    1UNL     H6   70  -0.698  -0.100  -0.419
    1UNL     H7   71  -0.896  -0.019  -0.342
    1UNL     H8   72  -0.667  -0.200   0.107
    1UNL     H9   73  -0.555  -0.141   0.004
    1UNL    H10   74  -0.703   0.094   0.034
    1UNL    H11   75  -0.764   0.014   0.174
    1UNL    H12   76  -0.549   0.029   0.283
    1UNL    H13   77  -0.508   0.076  -0.082
    1UNL    H14   78  -0.346   0.170  -0.039
    1UNL    H15   79  -0.357  -0.002  -0.044
    1UNL    H16   80  -0.079   0.131   0.287
    1UNL    H17   81   0.007   0.337   0.162
    1UNL    H18   82  -0.145   0.192  -0.066
    1UNL    H19   83  -0.042   0.452   0.008
    1UNL    H20   84  -0.228   0.336   0.054
    1UNL    H21   85  -0.165   0.474  -0.264
    1UNL    H22   86  -0.224   0.668  -0.179
    1UNL    H23   87  -0.067   0.737  -0.178
    1UNL    H24   88  -0.132   0.662  -0.032
    1UNL    H25   89   0.075   0.355  -0.411
    1UNL    H26   90   0.166   0.441  -0.095
    1UNL    H27   91   0.217   0.267  -0.088
    1UNL    H28   92   0.405   0.431   0.005
    1UNL    H29   93   0.713   0.333  -0.129
    1UNL    H30   94   0.632   0.327   0.011
    1UNL    H31   95   0.645   0.488  -0.063
    1UNL    H32   96   0.390   0.274  -0.316
    1UNL    H33   97   0.532   0.334  -0.363
    1UNL    H34   98   0.490   0.075  -0.349
    1UNL    H35   99   0.653   0.120  -0.281
    1UNL    H36  100   0.388   0.099  -0.122
    1UNL    H37  101   0.730  -0.116  -0.023
    1UNL    H38  102   0.761   0.018  -0.126
    1UNL    H39  103   0.687  -0.141  -0.173
    1UNL    H40  104   0.377  -0.059   0.030
    1UNL    H41  105   0.508  -0.021   0.139
    1UNL    H42  106   0.502  -0.376  -0.080
    1UNL    H43  107   0.432  -0.400  -0.277
    1UNL    H44  108   0.356  -0.127  -0.412
    1UNL    H45  109   0.486  -0.233  -0.445
    1UNL    H46  110   0.326  -0.291  -0.485
    1UNL    H47  111   0.173  -0.254  -0.223
    1UNL    H48  112   0.083  -0.450  -0.304
    1UNL    H49  113   0.298  -0.494  -0.102
    1UNL    H50  114   0.061  -0.403   0.004
    1UNL    H51  115   0.245  -0.228   0.022
    1UNL    H52  116   0.368  -0.344   0.186
    1UNL    H53  117  -0.100   0.219  -0.295
    1UNL    H54  118   0.160   0.141  -0.256
    1UNL    H55  119   0.292   0.058   0.182
    1UNL    H56  120   0.241   0.071   0.432
    1UNL    H57  121   0.084  -0.013   0.392
    1UNL    H58  122   0.224  -0.101   0.360
    1UNL    H59  123   0.095  -0.144   0.166
    1UNL    H60  124   0.117   0.036  -0.057
    1UNL    H61  125  -0.085  -0.016   0.014
    1UNL    H62  126  -0.177  -0.208   0.049
    1UNL    H63  127   0.113  -0.368   0.288
    1UNL    H64  128   0.027  -0.574   0.365
    1UNL    H65  129   0.007  -0.577   0.184
    1UNL    H66  130  -0.132  -0.538   0.295
    1UNL    H67  131  -0.015  -0.190   0.399
    1UNL    H68  132  -0.059  -0.291   0.585
    1UNL    H69  133  -0.260  -0.371   0.435
    1UNL    H70  134  -0.269  -0.100   0.407
    1UNL    H71  135  -0.283  -0.378   0.197
    1UNL    H72  136  -0.343  -0.104   0.208
   0.00000   0.00000   0.00000   0.00000   0.00000   0.00000   0.00000   0.00000   0.00000
Generated with MDTraj, t= 77.0
 136
    1UNL     C1    1  -0.905  -0.171  -0.035
    1UNL     C2    2  -0.765  -0.137  -0.081
    1UNL     C3    3  -0.715  -0.139  -0.203
    1UNL     C4    4  -0.776  -0.171  -0.334
    1UNL     O1    5  -0.916  -0.148  -0.318
    1UNL     C5    6  -0.664  -0.124   0.025
    1UNL     C6    7  -0.676   0.002   0.113
    1UNL     C7    8  -0.545   0.047   0.174
    1UNL     C8    9  -0.440   0.090   0.105
    1UNL     C9   10  -0.425   0.098  -0.045
    1UNL    C10   11  -0.321   0.121   0.188
    1UNL     O2   12  -0.325   0.096   0.303
    1UNL     O3   13  -0.216   0.172   0.125
    1UNL    C11   14  -0.087   0.139   0.187
    1UNL    C12   15   0.012   0.240   0.136
    1UNL     O4   16   0.039   0.235  -0.013
    1UNL    C13   17  -0.059   0.273  -0.102
    1UNL    C14   18  -0.098   0.419  -0.066
    1UNL     O5   19  -0.221   0.435  -0.008
    1UNL    C15   20  -0.096   0.501  -0.194
    1UNL    C16   21  -0.145   0.654  -0.183
    1UNL     O6   22   0.041   0.503  -0.250
    1UNL    C17   23   0.092   0.373  -0.289
    1UNL     O7   24   0.229   0.347  -0.259
    1UNL    C18   25   0.258   0.350  -0.125
    1UNL    C19   26   0.396   0.392  -0.098
    1UNL    C20   27   0.504   0.333  -0.136
    1UNL    C21   28   0.629   0.381  -0.074
    1UNL    C22   29   0.502   0.244  -0.265
    1UNL    C23   30   0.593   0.124  -0.251
    1UNL    C24   31   0.549   0.021  -0.151
    1UNL    C25   32   0.609  -0.024  -0.043
    1UNL    C26   33   0.736   0.036  -0.001
    1UNL    C27   34   0.530  -0.119   0.038
    1UNL     O8   35   0.555  -0.254   0.006
    1UNL    C28   36   0.459  -0.307  -0.079
    1UNL     O9   37   0.433  -0.229  -0.198
    1UNL    C29   38   0.352  -0.289  -0.299
    1UNL    C30   39   0.323  -0.201  -0.418
    1UNL    C31   40   0.215  -0.326  -0.238
    1UNL    O10   41   0.137  -0.406  -0.326
    1UNL    C32   42   0.233  -0.413  -0.107
    1UNL    O11   43   0.109  -0.455  -0.056
    1UNL    C33   44   0.316  -0.332  -0.013
    1UNL    O12   45   0.330  -0.412   0.103
    1UNL    C34   46  -0.002   0.258  -0.251
    1UNL    O13   47   0.051   0.125  -0.255
    1UNL    O14   48   0.131   0.223   0.212
    1UNL    C35   49   0.188   0.085   0.211
    1UNL    C36   50   0.213   0.046   0.356
    1UNL    C37   51   0.116  -0.024   0.135
    1UNL    O15   52   0.154  -0.022   0.002
    1UNL    C38   53  -0.044   0.000   0.142
    1UNL    O16   54  -0.123  -0.094   0.222
    1UNL    C39   55  -0.142  -0.224   0.161
    1UNL    O17   56  -0.019  -0.300   0.155
    1UNL    C40   57   0.011  -0.363   0.281
    1UNL    C41   58   0.015  -0.518   0.267
    1UNL    C42   59  -0.063  -0.295   0.407
    1UNL    O18   60  -0.028  -0.358   0.532
    1UNL    C43   61  -0.218  -0.310   0.393
    1UNL    O19   62  -0.294  -0.218   0.474
    1UNL    C44   63  -0.252  -0.300   0.239
    1UNL    O20   64  -0.374  -0.231   0.219
    1UNL     H1   65  -0.934  -0.121   0.053
    1UNL     H2   66  -0.928  -0.277  -0.020
    1UNL     H3   67  -0.975  -0.131  -0.107
    1UNL     H4   68  -0.608  -0.130  -0.198
    1UNL     H5   69  -0.767  -0.276  -0.367
    1UNL     H6   70  -0.745  -0.096  -0.416
    1UNL     H7   71  -0.932  -0.051  -0.308
    1UNL     H8   72  -0.675  -0.210   0.081
    1UNL     H9   73  -0.561  -0.131  -0.005
    1UNL    H10   74  -0.732   0.083   0.069
    1UNL    H11   75  -0.740  -0.029   0.199
    1UNL    H12   76  -0.537   0.047   0.283
    1UNL    H13   77  -0.522   0.095  -0.100
    1UNL    H14   78  -0.362   0.177  -0.086
    1UNL    H15   79  -0.378   0.009  -0.086
    1UNL    H16   80  -0.103   0.142   0.291
    1UNL    H17   81  -0.030   0.341   0.160
    1UNL    H18   82  -0.148   0.205  -0.092
    1UNL    H19   83  -0.021   0.462  -0.005
    1UNL    H20   84  -0.235   0.354   0.041
    1UNL    H21   85  -0.173   0.454  -0.254
    1UNL    H22   86  -0.197   0.668  -0.090
    1UNL    H23   87  -0.228   0.682  -0.256
    1UNL    H24   88  -0.070   0.728  -0.185
    1UNL    H25   89   0.086   0.385  -0.404
    1UNL    H26   90   0.184   0.422  -0.080
    1UNL    H27   91   0.242   0.249  -0.081
    1UNL    H28   92   0.412   0.470  -0.023
    1UNL    H29   93   0.705   0.323  -0.127
    1UNL    H30   94   0.642   0.357   0.024
    1UNL    H31   95   0.638   0.491  -0.090
    1UNL    H32   96   0.403   0.218  -0.290
    1UNL    H33   97   0.524   0.306  -0.352
    1UNL    H34   98   0.606   0.076  -0.353
    1UNL    H35   99   0.698   0.161  -0.232
    1UNL    H36  100   0.453  -0.021  -0.176
    1UNL    H37  101   0.785  -0.014   0.082
    1UNL    H38  102   0.725   0.138   0.021
    1UNL    H39  103   0.814   0.018  -0.070
    1UNL    H40  104   0.421  -0.104   0.040
    1UNL    H41  105   0.566  -0.107   0.142
    1UNL    H42  106   0.487  -0.403  -0.125
    1UNL    H43  107   0.392  -0.388  -0.339
    1UNL    H44  108   0.271  -0.114  -0.387
    1UNL    H45  109   0.421  -0.175  -0.464
    1UNL    H46  110   0.263  -0.263  -0.485
    1UNL    H47  111   0.162  -0.233  -0.219
    1UNL    H48  112   0.075  -0.461  -0.275
    1UNL    H49  113   0.291  -0.501  -0.130
    1UNL    H50  114   0.073  -0.394   0.012
    1UNL    H51  115   0.269  -0.237   0.009
    1UNL    H52  116   0.419  -0.376   0.145
    1UNL    H53  117  -0.091   0.256  -0.310
    1UNL    H54  118   0.145   0.124  -0.235
    1UNL    H55  119   0.284   0.101   0.155
    1UNL    H56  120   0.264   0.139   0.405
    1UNL    H57  121   0.116   0.030   0.410
    1UNL    H58  122   0.261  -0.053   0.366
    1UNL    H59  123   0.123  -0.129   0.170
    1UNL    H60  124   0.133   0.067  -0.030
    1UNL    H61  125  -0.061  -0.014   0.034
    1UNL    H62  126  -0.173  -0.202   0.057
    1UNL    H63  127   0.118  -0.327   0.290
    1UNL    H64  128   0.048  -0.569   0.360
    1UNL    H65  129   0.089  -0.558   0.191
    1UNL    H66  130  -0.085  -0.562   0.245
    1UNL    H67  131  -0.030  -0.189   0.420
    1UNL    H68  132  -0.071  -0.313   0.607
    1UNL    H69  133  -0.238  -0.412   0.436
    1UNL    H70  134  -0.261  -0.126   0.458
    1UNL    H71  135  -0.267  -0.395   0.192
    1UNL    H72  136  -0.377  -0.158   0.278
   0.00000   0.00000   0.00000   0.00000   0.00000   0.00000   0.00000   0.00000   0.00000
Generated with MDTraj, t= 78.0
 136
    1UNL     C1    1  -0.929  -0.202  -0.024
    1UNL     C2    2  -0.791  -0.168  -0.071
    1UNL     C3    3  -0.753  -0.181  -0.200
    1UNL     C4    4  -0.835  -0.213  -0.313
    1UNL     O1    5  -0.955  -0.132  -0.327
    1UNL     C5    6  -0.681  -0.121   0.026
    1UNL     C6    7  -0.694   0.008   0.097
    1UNL     C7    8  -0.565   0.059   0.161
    1UNL     C8    9  -0.460   0.114   0.100
    1UNL     C9   10  -0.461   0.144  -0.040
    1UNL    C10   11  -0.331   0.106   0.169
    1UNL     O2   12  -0.314   0.053   0.274
    1UNL     O3   13  -0.227   0.167   0.102
    1UNL    C11   14  -0.103   0.139   0.174
    1UNL    C12   15   0.006   0.240   0.139
    1UNL     O4   16   0.052   0.231   0.005
    1UNL    C13   17  -0.032   0.286  -0.096
    1UNL    C14   18  -0.094   0.431  -0.083
    1UNL     O5   19  -0.213   0.433  -0.006
    1UNL    C15   20  -0.081   0.510  -0.219
    1UNL    C16   21  -0.119   0.659  -0.197
    1UNL     O6   22   0.057   0.502  -0.267
    1UNL    C17   23   0.106   0.367  -0.294
    1UNL     O7   24   0.242   0.358  -0.262
    1UNL    C18   25   0.259   0.374  -0.122
    1UNL    C19   26   0.404   0.401  -0.086
    1UNL    C20   27   0.506   0.341  -0.140
    1UNL    C21   28   0.638   0.401  -0.119
    1UNL    C22   29   0.512   0.212  -0.224
    1UNL    C23   30   0.631   0.113  -0.224
    1UNL    C24   31   0.596  -0.005  -0.146
    1UNL    C25   32   0.617  -0.033  -0.018
    1UNL    C26   33   0.690   0.059   0.079
    1UNL    C27   34   0.557  -0.158   0.038
    1UNL     O8   35   0.573  -0.272  -0.039
    1UNL    C28   36   0.457  -0.306  -0.109
    1UNL     O9   37   0.419  -0.212  -0.213
    1UNL    C29   38   0.318  -0.272  -0.302
    1UNL    C30   39   0.278  -0.188  -0.416
    1UNL    C31   40   0.186  -0.310  -0.222
    1UNL    O10   41   0.091  -0.370  -0.305
    1UNL    C32   42   0.223  -0.415  -0.114
    1UNL    O11   43   0.109  -0.459  -0.041
    1UNL    C33   44   0.332  -0.347  -0.024
    1UNL    O12   45   0.380  -0.440   0.081
    1UNL    C34   46   0.017   0.257  -0.240
    1UNL    O13   47   0.069   0.128  -0.263
    1UNL    O14   48   0.110   0.227   0.231
    1UNL    C35   49   0.170   0.104   0.224
    1UNL    C36   50   0.202   0.059   0.371
    1UNL    C37   51   0.106  -0.011   0.144
    1UNL    O15   52   0.161  -0.038   0.020
    1UNL    C38   53  -0.050   0.004   0.136
    1UNL    O16   54  -0.109  -0.092   0.225
    1UNL    C39   55  -0.117  -0.227   0.162
    1UNL    O17   56   0.003  -0.304   0.161
    1UNL    C40   57   0.041  -0.345   0.297
    1UNL    C41   58   0.055  -0.498   0.291
    1UNL    C42   59  -0.056  -0.297   0.411
    1UNL    O18   60  -0.029  -0.376   0.527
    1UNL    C43   61  -0.205  -0.311   0.383
    1UNL    O19   62  -0.288  -0.228   0.467
    1UNL    C44   63  -0.237  -0.294   0.232
    1UNL    O20   64  -0.349  -0.212   0.204
    1UNL     H1   65  -0.926  -0.275   0.051
    1UNL     H2   66  -1.004  -0.229  -0.100
    1UNL     H3   67  -0.964  -0.112   0.024
    1UNL     H4   68  -0.644  -0.164  -0.216
    1UNL     H5   69  -0.876  -0.310  -0.301
    1UNL     H6   70  -0.789  -0.206  -0.414
    1UNL     H7   71  -0.919  -0.040  -0.325
    1UNL     H8   72  -0.653  -0.192   0.094
    1UNL     H9   73  -0.594  -0.126  -0.037
    1UNL    H10   74  -0.734   0.089   0.036
    1UNL    H11   75  -0.779  -0.010   0.169
    1UNL    H12   76  -0.552   0.050   0.267
    1UNL    H13   77  -0.559   0.187  -0.068
    1UNL    H14   78  -0.379   0.205  -0.074
    1UNL    H15   79  -0.448   0.052  -0.098
    1UNL    H16   80  -0.126   0.143   0.278
    1UNL    H17   81  -0.019   0.350   0.152
    1UNL    H18   82  -0.121   0.216  -0.089
    1UNL    H19   83  -0.024   0.488  -0.023
    1UNL    H20   84  -0.236   0.336   0.022
    1UNL    H21   85  -0.153   0.475  -0.290
    1UNL    H22   86  -0.211   0.668  -0.141
    1UNL    H23   87  -0.138   0.716  -0.291
    1UNL    H24   88  -0.047   0.709  -0.138
    1UNL    H25   89   0.100   0.358  -0.407
    1UNL    H26   90   0.182   0.446  -0.084
    1UNL    H27   91   0.237   0.271  -0.079
    1UNL    H28   92   0.422   0.485  -0.020
    1UNL    H29   93   0.699   0.379  -0.205
    1UNL    H30   94   0.695   0.354  -0.041
    1UNL    H31   95   0.631   0.508  -0.093
    1UNL    H32   96   0.421   0.161  -0.228
    1UNL    H33   97   0.523   0.249  -0.326
    1UNL    H34   98   0.652   0.088  -0.333
    1UNL    H35   99   0.724   0.166  -0.197
    1UNL    H36  100   0.529  -0.071  -0.192
    1UNL    H37  101   0.779   0.007   0.107
    1UNL    H38  102   0.619   0.087   0.152
    1UNL    H39  103   0.729   0.146   0.024
    1UNL    H40  104   0.448  -0.143   0.049
    1UNL    H41  105   0.593  -0.188   0.141
    1UNL    H42  106   0.474  -0.393  -0.170
    1UNL    H43  107   0.364  -0.370  -0.341
    1UNL    H44  108   0.210  -0.114  -0.376
    1UNL    H45  109   0.366  -0.135  -0.466
    1UNL    H46  110   0.223  -0.244  -0.485
    1UNL    H47  111   0.148  -0.221  -0.168
    1UNL    H48  112   0.032  -0.430  -0.251
    1UNL    H49  113   0.264  -0.503  -0.161
    1UNL    H50  114   0.087  -0.401   0.031
    1UNL    H51  115   0.289  -0.261   0.025
    1UNL    H52  116   0.468  -0.411   0.112
    1UNL    H53  117  -0.077   0.259  -0.294
    1UNL    H54  118   0.165   0.129  -0.230
    1UNL    H55  119   0.273   0.121   0.174
    1UNL    H56  120   0.269   0.134   0.425
    1UNL    H57  121   0.113   0.049   0.434
    1UNL    H58  122   0.243  -0.045   0.362
    1UNL    H59  123   0.121  -0.106   0.202
    1UNL    H60  124   0.126   0.030  -0.043
    1UNL    H61  125  -0.077  -0.009   0.031
    1UNL    H62  126  -0.133  -0.198   0.056
    1UNL    H63  127   0.140  -0.290   0.299
    1UNL    H64  128   0.070  -0.551   0.387
    1UNL    H65  129   0.138  -0.534   0.228
    1UNL    H66  130  -0.044  -0.540   0.250
    1UNL    H67  131  -0.041  -0.189   0.430
    1UNL    H68  132  -0.087  -0.348   0.600
    1UNL    H69  133  -0.235  -0.413   0.414
    1UNL    H70  134  -0.326  -0.153   0.422
    1UNL    H71  135  -0.258  -0.387   0.184
    1UNL    H72  136  -0.339  -0.115   0.228
   0.00000   0.00000   0.00000   0.00000   0.00000   0.00000   0.00000   0.00000   0.00000
Generated with MDTraj, t= 79.0
 136
    1UNL     C1    1  -0.933  -0.199   0.016
    1UNL     C2    2  -0.801  -0.202  -0.052
    1UNL     C3    3  -0.801  -0.209  -0.188
    1UNL     C4    4  -0.920  -0.233  -0.276
    1UNL     O1    5  -0.977  -0.118  -0.340
    1UNL     C5    6  -0.675  -0.151   0.018
    1UNL     C6    7  -0.685   0.001   0.046
    1UNL     C7    8  -0.575   0.049   0.133
    1UNL     C8    9  -0.474   0.124   0.089
    1UNL     C9   10  -0.475   0.184  -0.045
    1UNL    C10   11  -0.339   0.119   0.159
    1UNL     O2   12  -0.330   0.067   0.266
    1UNL     O3   13  -0.227   0.166   0.078
    1UNL    C11   14  -0.110   0.140   0.157
    1UNL    C12   15   0.005   0.247   0.138
    1UNL     O4   16   0.057   0.244   0.006
    1UNL    C13   17  -0.036   0.268  -0.101
    1UNL    C14   18  -0.079   0.420  -0.084
    1UNL     O5   19  -0.212   0.429  -0.032
    1UNL    C15   20  -0.056   0.504  -0.218
    1UNL    C16   21  -0.082   0.656  -0.193
    1UNL     O6   22   0.082   0.496  -0.249
    1UNL    C17   23   0.124   0.361  -0.291
    1UNL     O7   24   0.262   0.329  -0.269
    1UNL    C18   25   0.289   0.371  -0.133
    1UNL    C19   26   0.426   0.437  -0.128
    1UNL    C20   27   0.531   0.364  -0.146
    1UNL    C21   28   0.662   0.432  -0.138
    1UNL    C22   29   0.514   0.221  -0.200
    1UNL    C23   30   0.633   0.126  -0.170
    1UNL    C24   31   0.607  -0.010  -0.121
    1UNL    C25   32   0.583  -0.036   0.006
    1UNL    C26   33   0.612   0.061   0.116
    1UNL    C27   34   0.550  -0.176   0.037
    1UNL     O8   35   0.570  -0.267  -0.067
    1UNL    C28   36   0.450  -0.308  -0.140
    1UNL     O9   37   0.387  -0.205  -0.225
    1UNL    C29   38   0.270  -0.252  -0.297
    1UNL    C30   39   0.223  -0.143  -0.379
    1UNL    C31   40   0.161  -0.306  -0.198
    1UNL    O10   41   0.048  -0.336  -0.269
    1UNL    C32   42   0.217  -0.424  -0.115
    1UNL    O11   43   0.117  -0.483  -0.035
    1UNL    C33   44   0.344  -0.367  -0.045
    1UNL    O12   45   0.406  -0.462   0.044
    1UNL    C34   46   0.040   0.237  -0.232
    1UNL    O13   47   0.122   0.122  -0.213
    1UNL    O14   48   0.114   0.242   0.238
    1UNL    C35   49   0.167   0.108   0.236
    1UNL    C36   50   0.185   0.056   0.380
    1UNL    C37   51   0.104  -0.005   0.139
    1UNL    O15   52   0.175   0.000   0.017
    1UNL    C38   53  -0.053  -0.002   0.124
    1UNL    O16   54  -0.104  -0.104   0.208
    1UNL    C39   55  -0.094  -0.237   0.154
    1UNL    O17   56   0.033  -0.293   0.174
    1UNL    C40   57   0.057  -0.343   0.304
    1UNL    C41   58   0.068  -0.495   0.309
    1UNL    C42   59  -0.041  -0.293   0.412
    1UNL    O18   60  -0.023  -0.354   0.542
    1UNL    C43   61  -0.190  -0.317   0.370
    1UNL    O19   62  -0.274  -0.224   0.438
    1UNL    C44   63  -0.211  -0.323   0.219
    1UNL    O20   64  -0.339  -0.269   0.183
    1UNL     H1   65  -1.003  -0.271  -0.022
    1UNL     H2   66  -0.983  -0.102   0.015
    1UNL     H3   67  -0.922  -0.225   0.121
    1UNL     H4   68  -0.713  -0.179  -0.234
    1UNL     H5   69  -0.999  -0.276  -0.222
    1UNL     H6   70  -0.886  -0.294  -0.358
    1UNL     H7   71  -0.917  -0.086  -0.412
    1UNL     H8   72  -0.651  -0.211   0.101
    1UNL     H9   73  -0.588  -0.176  -0.039
    1UNL    H10   74  -0.694   0.044  -0.054
    1UNL    H11   75  -0.781   0.028   0.096
    1UNL    H12   76  -0.562   0.007   0.232
    1UNL    H13   77  -0.523   0.281  -0.038
    1UNL    H14   78  -0.371   0.187  -0.071
    1UNL    H15   79  -0.527   0.119  -0.119
    1UNL    H16   80  -0.148   0.117   0.257
    1UNL    H17   81  -0.040   0.350   0.144
    1UNL    H18   82  -0.115   0.190  -0.090
    1UNL    H19   83  -0.010   0.454  -0.004
    1UNL    H20   84  -0.239   0.345   0.006
    1UNL    H21   85  -0.123   0.457  -0.288
    1UNL    H22   86  -0.172   0.691  -0.242
    1UNL    H23   87  -0.003   0.716  -0.233
    1UNL    H24   88  -0.095   0.674  -0.086
    1UNL    H25   89   0.113   0.361  -0.402
    1UNL    H26   90   0.215   0.450  -0.105
    1UNL    H27   91   0.271   0.283  -0.063
    1UNL    H28   92   0.437   0.540  -0.101
    1UNL    H29   93   0.729   0.393  -0.208
    1UNL    H30   94   0.724   0.430  -0.041
    1UNL    H31   95   0.647   0.537  -0.153
    1UNL    H32   96   0.428   0.181  -0.152
    1UNL    H33   97   0.478   0.225  -0.303
    1UNL    H34   98   0.693   0.115  -0.267
    1UNL    H35   99   0.703   0.174  -0.100
    1UNL    H36  100   0.588  -0.086  -0.199
    1UNL    H37  101   0.717   0.061   0.132
    1UNL    H38  102   0.553   0.032   0.200
    1UNL    H39  103   0.585   0.167   0.092
    1UNL    H40  104   0.445  -0.175   0.069
    1UNL    H41  105   0.611  -0.208   0.126
    1UNL    H42  106   0.479  -0.382  -0.211
    1UNL    H43  107   0.308  -0.343  -0.357
    1UNL    H44  108   0.236  -0.051  -0.319
    1UNL    H45  109   0.289  -0.129  -0.467
    1UNL    H46  110   0.122  -0.145  -0.409
    1UNL    H47  111   0.138  -0.225  -0.123
    1UNL    H48  112  -0.002  -0.404  -0.218
    1UNL    H49  113   0.230  -0.500  -0.192
    1UNL    H50  114   0.091  -0.420   0.032
    1UNL    H51  115   0.306  -0.284   0.016
    1UNL    H52  116   0.491  -0.428   0.082
    1UNL    H53  117  -0.033   0.202  -0.306
    1UNL    H54  118   0.201   0.146  -0.259
    1UNL    H55  119   0.273   0.126   0.191
    1UNL    H56  120   0.219   0.140   0.444
    1UNL    H57  121   0.085   0.037   0.422
    1UNL    H58  122   0.246  -0.041   0.395
    1UNL    H59  123   0.134  -0.108   0.176
    1UNL    H60  124   0.139   0.068  -0.041
    1UNL    H61  125  -0.082  -0.026   0.023
    1UNL    H62  126  -0.094  -0.220   0.044
    1UNL    H63  127   0.158  -0.302   0.328
    1UNL    H64  128   0.101  -0.535   0.408
    1UNL    H65  129   0.140  -0.531   0.235
    1UNL    H66  130  -0.036  -0.536   0.288
    1UNL    H67  131  -0.022  -0.189   0.433
    1UNL    H68  132  -0.099  -0.329   0.600
    1UNL    H69  133  -0.212  -0.415   0.413
    1UNL    H70  134  -0.286  -0.147   0.379
    1UNL    H71  135  -0.207  -0.423   0.182
    1UNL    H72  136  -0.331  -0.176   0.153
   0.00000   0.00000   0.00000   0.00000   0.00000   0.00000   0.00000   0.00000   0.00000
Generated with MDTraj, t= 80.0
 136
    1UNL     C1    1  -0.951  -0.199   0.046
    1UNL     C2    2  -0.834  -0.190  -0.043
    1UNL     C3    3  -0.849  -0.212  -0.177
    1UNL     C4    4  -0.984  -0.233  -0.239
    1UNL     O1    5  -1.007  -0.135  -0.340
    1UNL     C5    6  -0.697  -0.172   0.002
    1UNL     C6    7  -0.670  -0.024   0.032
    1UNL     C7    8  -0.537  -0.005   0.098
    1UNL     C8    9  -0.443   0.082   0.050
    1UNL     C9   10  -0.474   0.178  -0.054
    1UNL    C10   11  -0.316   0.096   0.131
    1UNL     O2   12  -0.308   0.043   0.236
    1UNL     O3   13  -0.214   0.165   0.077
    1UNL    C11   14  -0.100   0.141   0.160
    1UNL    C12   15   0.015   0.249   0.145
    1UNL     O4   16   0.073   0.255   0.012
    1UNL    C13   17  -0.018   0.282  -0.097
    1UNL    C14   18  -0.071   0.434  -0.096
    1UNL     O5   19  -0.210   0.418  -0.068
    1UNL    C15   20  -0.054   0.510  -0.228
    1UNL    C16   21  -0.114   0.648  -0.213
    1UNL     O6   22   0.085   0.499  -0.273
    1UNL    C17   23   0.141   0.367  -0.283
    1UNL     O7   24   0.277   0.352  -0.241
    1UNL    C18   25   0.317   0.415  -0.121
    1UNL    C19   26   0.465   0.459  -0.134
    1UNL    C20   27   0.567   0.377  -0.153
    1UNL    C21   28   0.697   0.442  -0.174
    1UNL    C22   29   0.541   0.226  -0.165
    1UNL    C23   30   0.670   0.139  -0.132
    1UNL    C24   31   0.637  -0.007  -0.099
    1UNL    C25   32   0.570  -0.043   0.011
    1UNL    C26   33   0.518   0.055   0.109
    1UNL    C27   34   0.527  -0.188   0.030
    1UNL     O8   35   0.545  -0.267  -0.082
    1UNL    C28   36   0.422  -0.305  -0.139
    1UNL     O9   37   0.355  -0.187  -0.182
    1UNL    C29   38   0.238  -0.220  -0.261
    1UNL    C30   39   0.182  -0.108  -0.342
    1UNL    C31   40   0.132  -0.304  -0.175
    1UNL    O10   41   0.012  -0.336  -0.250
    1UNL    C32   42   0.200  -0.430  -0.110
    1UNL    O11   43   0.105  -0.486  -0.028
    1UNL    C33   44   0.334  -0.387  -0.049
    1UNL    O12   45   0.409  -0.493  -0.005
    1UNL    C34   46   0.048   0.250  -0.232
    1UNL    O13   47   0.122   0.133  -0.224
    1UNL    O14   48   0.114   0.225   0.249
    1UNL    C35   49   0.173   0.091   0.271
    1UNL    C36   50   0.163   0.032   0.404
    1UNL    C37   51   0.125  -0.011   0.166
    1UNL    O15   52   0.197  -0.003   0.041
    1UNL    C38   53  -0.031  -0.000   0.134
    1UNL    O16   54  -0.104  -0.107   0.187
    1UNL    C39   55  -0.078  -0.241   0.139
    1UNL    O17   56   0.051  -0.290   0.174
    1UNL    C40   57   0.072  -0.333   0.311
    1UNL    C41   58   0.082  -0.485   0.314
    1UNL    C42   59  -0.037  -0.275   0.401
    1UNL    O18   60  -0.021  -0.300   0.542
    1UNL    C43   61  -0.182  -0.311   0.355
    1UNL    O19   62  -0.265  -0.203   0.394
    1UNL    C44   63  -0.190  -0.335   0.206
    1UNL    O20   64  -0.315  -0.307   0.151
    1UNL     H1   65  -0.982  -0.304   0.038
    1UNL     H2   66  -1.030  -0.141   0.006
    1UNL     H3   67  -0.936  -0.174   0.150
    1UNL     H4   68  -0.759  -0.200  -0.248
    1UNL     H5   69  -1.055  -0.213  -0.164
    1UNL     H6   70  -0.988  -0.330  -0.281
    1UNL     H7   71  -0.945  -0.059  -0.339
    1UNL     H8   72  -0.694  -0.232   0.091
    1UNL     H9   73  -0.623  -0.230  -0.050
    1UNL    H10   74  -0.664   0.030  -0.063
    1UNL    H11   75  -0.757   0.011   0.091
    1UNL    H12   76  -0.507  -0.076   0.173
    1UNL    H13   77  -0.549   0.248  -0.020
    1UNL    H14   78  -0.383   0.232  -0.080
    1UNL    H15   79  -0.513   0.136  -0.150
    1UNL    H16   80  -0.142   0.143   0.265
    1UNL    H17   81  -0.032   0.349   0.161
    1UNL    H18   82  -0.106   0.219  -0.082
    1UNL    H19   83  -0.030   0.497  -0.012
    1UNL    H20   84  -0.219   0.330  -0.018
    1UNL    H21   85  -0.106   0.447  -0.301
    1UNL    H22   86  -0.176   0.644  -0.124
    1UNL    H23   87  -0.172   0.669  -0.296
    1UNL    H24   88  -0.039   0.727  -0.188
    1UNL    H25   89   0.157   0.351  -0.390
    1UNL    H26   90   0.245   0.497  -0.100
    1UNL    H27   91   0.308   0.340  -0.038
    1UNL    H28   92   0.477   0.567  -0.146
    1UNL    H29   93   0.779   0.374  -0.186
    1UNL    H30   94   0.723   0.508  -0.084
    1UNL    H31   95   0.684   0.515  -0.250
    1UNL    H32   96   0.454   0.202  -0.105
    1UNL    H33   97   0.499   0.203  -0.262
    1UNL    H34   98   0.746   0.141  -0.219
    1UNL    H35   99   0.714   0.181  -0.042
    1UNL    H36  100   0.676  -0.080  -0.167
    1UNL    H37  101   0.559   0.154   0.105
    1UNL    H38  102   0.519   0.014   0.213
    1UNL    H39  103   0.410   0.064   0.098
    1UNL    H40  104   0.432  -0.204   0.085
    1UNL    H41  105   0.601  -0.239   0.100
    1UNL    H42  106   0.451  -0.363  -0.223
    1UNL    H43  107   0.287  -0.294  -0.334
    1UNL    H44  108   0.095  -0.064  -0.290
    1UNL    H45  109   0.261  -0.038  -0.350
    1UNL    H46  110   0.154  -0.137  -0.444
    1UNL    H47  111   0.104  -0.235  -0.089
    1UNL    H48  112  -0.025  -0.418  -0.215
    1UNL    H49  113   0.216  -0.507  -0.187
    1UNL    H50  114   0.084  -0.420   0.045
    1UNL    H51  115   0.318  -0.335   0.047
    1UNL    H52  116   0.505  -0.459   0.022
    1UNL    H53  117  -0.031   0.231  -0.310
    1UNL    H54  118   0.212   0.160  -0.265
    1UNL    H55  119   0.283   0.119   0.245
    1UNL    H56  120   0.183   0.103   0.484
    1UNL    H57  121   0.056   0.006   0.425
    1UNL    H58  122   0.226  -0.063   0.419
    1UNL    H59  123   0.139  -0.116   0.206
    1UNL    H60  124   0.159   0.067  -0.016
    1UNL    H61  125  -0.047  -0.007   0.027
    1UNL    H62  126  -0.094  -0.238   0.029
    1UNL    H63  127   0.170  -0.299   0.344
    1UNL    H64  128   0.108  -0.529   0.417
    1UNL    H65  129   0.165  -0.515   0.248
    1UNL    H66  130  -0.013  -0.526   0.280
    1UNL    H67  131  -0.036  -0.167   0.396
    1UNL    H68  132  -0.105  -0.269   0.585
    1UNL    H69  133  -0.228  -0.392   0.411
    1UNL    H70  134  -0.250  -0.123   0.341
    1UNL    H71  135  -0.186  -0.442   0.186
    1UNL    H72  136  -0.329  -0.207   0.173
   0.00000   0.00000   0.00000   0.00000   0.00000   0.00000   0.00000   0.00000   0.00000
Generated with MDTraj, t= 81.0
 136
    1UNL     C1    1  -0.968  -0.187   0.068
    1UNL     C2    2  -0.862  -0.191  -0.038
    1UNL     C3    3  -0.892  -0.214  -0.169
    1UNL     C4    4  -1.035  -0.226  -0.203
    1UNL     O1    5  -1.038  -0.153  -0.325
    1UNL     C5    6  -0.723  -0.179   0.008
    1UNL     C6    7  -0.657  -0.043  -0.005
    1UNL     C7    8  -0.520  -0.045   0.058
    1UNL     C8    9  -0.419   0.042   0.029
    1UNL     C9   10  -0.439   0.146  -0.070
    1UNL    C10   11  -0.299   0.057   0.117
    1UNL     O2   12  -0.302   0.015   0.227
    1UNL     O3   13  -0.199   0.132   0.071
    1UNL    C11   14  -0.081   0.125   0.150
    1UNL    C12   15   0.020   0.243   0.142
    1UNL     O4   16   0.085   0.260   0.011
    1UNL    C13   17   0.002   0.281  -0.100
    1UNL    C14   18  -0.060   0.423  -0.086
    1UNL     O5   19  -0.193   0.419  -0.025
    1UNL    C15   20  -0.042   0.504  -0.210
    1UNL    C16   21  -0.117   0.633  -0.234
    1UNL     O6   22   0.104   0.513  -0.240
    1UNL    C17   23   0.159   0.390  -0.281
    1UNL     O7   24   0.293   0.380  -0.264
    1UNL    C18   25   0.324   0.426  -0.139
    1UNL    C19   26   0.469   0.472  -0.143
    1UNL    C20   27   0.565   0.384  -0.171
    1UNL    C21   28   0.714   0.432  -0.184
    1UNL    C22   29   0.547   0.234  -0.164
    1UNL    C23   30   0.661   0.148  -0.095
    1UNL    C24   31   0.621   0.006  -0.073
    1UNL    C25   32   0.546  -0.041   0.025
    1UNL    C26   33   0.482   0.059   0.116
    1UNL    C27   34   0.520  -0.187   0.047
    1UNL     O8   35   0.532  -0.268  -0.073
    1UNL    C28   36   0.409  -0.296  -0.142
    1UNL     O9   37   0.328  -0.182  -0.179
    1UNL    C29   38   0.209  -0.218  -0.256
    1UNL    C30   39   0.126  -0.105  -0.307
    1UNL    C31   40   0.120  -0.309  -0.168
    1UNL    O10   41  -0.006  -0.342  -0.229
    1UNL    C32   42   0.193  -0.434  -0.119
    1UNL    O11   43   0.100  -0.507  -0.041
    1UNL    C33   44   0.329  -0.392  -0.058
    1UNL    O12   45   0.400  -0.513  -0.040
    1UNL    C34   46   0.092   0.257  -0.228
    1UNL    O13   47   0.181   0.154  -0.198
    1UNL    O14   48   0.125   0.237   0.244
    1UNL    C35   49   0.162   0.101   0.277
    1UNL    C36   50   0.101   0.061   0.400
    1UNL    C37   51   0.137   0.009   0.161
    1UNL    O15   52   0.222   0.036   0.044
    1UNL    C38   53  -0.012  -0.003   0.115
    1UNL    O16   54  -0.078  -0.113   0.175
    1UNL    C39   55  -0.059  -0.242   0.123
    1UNL    O17   56   0.062  -0.299   0.165
    1UNL    C40   57   0.078  -0.313   0.315
    1UNL    C41   58   0.095  -0.461   0.351
    1UNL    C42   59  -0.045  -0.258   0.394
    1UNL    O18   60  -0.022  -0.273   0.535
    1UNL    C43   61  -0.179  -0.324   0.343
    1UNL    O19   62  -0.286  -0.235   0.392
    1UNL    C44   63  -0.180  -0.324   0.184
    1UNL    O20   64  -0.291  -0.265   0.131
    1UNL     H1   65  -1.021  -0.284   0.058
    1UNL     H2   66  -1.033  -0.104   0.055
    1UNL     H3   67  -0.926  -0.188   0.167
    1UNL     H4   68  -0.820  -0.209  -0.244
    1UNL     H5   69  -1.100  -0.176  -0.136
    1UNL     H6   70  -1.056  -0.330  -0.214
    1UNL     H7   71  -1.091  -0.196  -0.397
    1UNL     H8   72  -0.717  -0.232   0.102
    1UNL     H9   73  -0.666  -0.245  -0.050
    1UNL    H10   74  -0.656  -0.024  -0.115
    1UNL    H11   75  -0.719   0.033   0.045
    1UNL    H12   76  -0.509  -0.117   0.138
    1UNL    H13   77  -0.519   0.214  -0.047
    1UNL    H14   78  -0.348   0.207  -0.080
    1UNL    H15   79  -0.464   0.106  -0.170
    1UNL    H16   80  -0.117   0.133   0.259
    1UNL    H17   81  -0.037   0.335   0.170
    1UNL    H18   82  -0.082   0.213  -0.099
    1UNL    H19   83   0.013   0.466  -0.009
    1UNL    H20   84  -0.211   0.329   0.007
    1UNL    H21   85  -0.063   0.430  -0.292
    1UNL    H22   86  -0.213   0.625  -0.282
    1UNL    H23   87  -0.056   0.695  -0.292
    1UNL    H24   88  -0.141   0.676  -0.134
    1UNL    H25   89   0.153   0.391  -0.387
    1UNL    H26   90   0.257   0.508  -0.117
    1UNL    H27   91   0.298   0.343  -0.070
    1UNL    H28   92   0.488   0.575  -0.156
    1UNL    H29   93   0.784   0.352  -0.147
    1UNL    H30   94   0.735   0.520  -0.122
    1UNL    H31   95   0.737   0.466  -0.283
    1UNL    H32   96   0.451   0.204  -0.120
    1UNL    H33   97   0.541   0.197  -0.263
    1UNL    H34   98   0.760   0.160  -0.153
    1UNL    H35   99   0.670   0.196   0.001
    1UNL    H36  100   0.655  -0.066  -0.146
    1UNL    H37  101   0.554   0.110   0.184
    1UNL    H38  102   0.405   0.001   0.175
    1UNL    H39  103   0.427   0.138   0.067
    1UNL    H40  104   0.418  -0.207   0.079
    1UNL    H41  105   0.564  -0.241   0.133
    1UNL    H42  106   0.442  -0.344  -0.232
    1UNL    H43  107   0.247  -0.277  -0.343
    1UNL    H44  108   0.114  -0.036  -0.225
    1UNL    H45  109   0.185  -0.063  -0.384
    1UNL    H46  110   0.026  -0.139  -0.347
    1UNL    H47  111   0.091  -0.242  -0.081
    1UNL    H48  112  -0.039  -0.428  -0.192
    1UNL    H49  113   0.212  -0.506  -0.201
    1UNL    H50  114   0.080  -0.455   0.044
    1UNL    H51  115   0.319  -0.353   0.046
    1UNL    H52  116   0.477  -0.498   0.008
    1UNL    H53  117   0.031   0.206  -0.310
    1UNL    H54  118   0.241   0.141  -0.270
    1UNL    H55  119   0.278   0.104   0.297
    1UNL    H56  120   0.106   0.137   0.478
    1UNL    H57  121  -0.012   0.047   0.389
    1UNL    H58  122   0.146  -0.036   0.435
    1UNL    H59  123   0.166  -0.095   0.196
    1UNL    H60  124   0.198   0.127   0.014
    1UNL    H61  125  -0.026  -0.009   0.006
    1UNL    H62  126  -0.070  -0.241   0.014
    1UNL    H63  127   0.170  -0.262   0.341
    1UNL    H64  128   0.097  -0.479   0.464
    1UNL    H65  129   0.193  -0.504   0.319
    1UNL    H66  130   0.016  -0.523   0.317
    1UNL    H67  131  -0.049  -0.152   0.379
    1UNL    H68  132  -0.107  -0.267   0.582
    1UNL    H69  133  -0.186  -0.425   0.382
    1UNL    H70  134  -0.295  -0.157   0.331
    1UNL    H71  135  -0.163  -0.423   0.137
    1UNL    H72  136  -0.291  -0.170   0.144
   0.00000   0.00000   0.00000   0.00000   0.00000   0.00000   0.00000   0.00000   0.00000
Generated with MDTraj, t= 82.0
 136
    1UNL     C1    1  -0.974  -0.162   0.097
    1UNL     C2    2  -0.870  -0.183  -0.007
    1UNL     C3    3  -0.912  -0.192  -0.136
    1UNL     C4    4  -1.050  -0.197  -0.176
    1UNL     O1    5  -1.067  -0.198  -0.315
    1UNL     C5    6  -0.720  -0.187   0.015
    1UNL     C6    7  -0.632  -0.077  -0.059
    1UNL     C7    8  -0.529  -0.025   0.041
    1UNL     C8    9  -0.425   0.053   0.006
    1UNL     C9   10  -0.431   0.120  -0.131
    1UNL    C10   11  -0.305   0.066   0.090
    1UNL     O2   12  -0.313   0.026   0.203
    1UNL     O3   13  -0.194   0.134   0.032
    1UNL    C11   14  -0.083   0.130   0.124
    1UNL    C12   15   0.009   0.252   0.133
    1UNL     O4   16   0.094   0.258   0.018
    1UNL    C13   17   0.020   0.286  -0.097
    1UNL    C14   18  -0.050   0.420  -0.095
    1UNL     O5   19  -0.187   0.398  -0.048
    1UNL    C15   20  -0.054   0.509  -0.223
    1UNL    C16   21  -0.107   0.649  -0.186
    1UNL     O6   22   0.083   0.523  -0.266
    1UNL    C17   23   0.157   0.403  -0.302
    1UNL     O7   24   0.302   0.416  -0.296
    1UNL    C18   25   0.349   0.439  -0.166
    1UNL    C19   26   0.492   0.470  -0.154
    1UNL    C20   27   0.595   0.388  -0.168
    1UNL    C21   28   0.728   0.441  -0.161
    1UNL    C22   29   0.583   0.237  -0.197
    1UNL    C23   30   0.631   0.152  -0.083
    1UNL    C24   31   0.569   0.017  -0.073
    1UNL    C25   32   0.533  -0.039   0.041
    1UNL    C26   33   0.549   0.017   0.172
    1UNL    C27   34   0.454  -0.162   0.026
    1UNL     O8   35   0.510  -0.258  -0.071
    1UNL    C28   36   0.403  -0.299  -0.154
    1UNL     O9   37   0.322  -0.185  -0.199
    1UNL    C29   38   0.198  -0.222  -0.253
    1UNL    C30   39   0.116  -0.100  -0.285
    1UNL    C31   40   0.113  -0.312  -0.155
    1UNL    O10   41  -0.017  -0.342  -0.207
    1UNL    C32   42   0.191  -0.442  -0.133
    1UNL    O11   43   0.127  -0.526  -0.041
    1UNL    C33   44   0.328  -0.400  -0.070
    1UNL    O12   45   0.415  -0.514  -0.045
    1UNL    C34   46   0.108   0.267  -0.226
    1UNL    O13   47   0.216   0.184  -0.202
    1UNL    O14   48   0.079   0.253   0.259
    1UNL    C35   49   0.143   0.124   0.290
    1UNL    C36   50   0.104   0.066   0.431
    1UNL    C37   51   0.136   0.010   0.183
    1UNL    O15   52   0.245   0.034   0.090
    1UNL    C38   53  -0.008  -0.005   0.117
    1UNL    O16   54  -0.077  -0.114   0.182
    1UNL    C39   55  -0.051  -0.245   0.134
    1UNL    O17   56   0.068  -0.308   0.180
    1UNL    C40   57   0.083  -0.323   0.331
    1UNL    C41   58   0.123  -0.463   0.363
    1UNL    C42   59  -0.050  -0.281   0.398
    1UNL    O18   60  -0.047  -0.299   0.541
    1UNL    C43   61  -0.172  -0.345   0.335
    1UNL    O19   62  -0.297  -0.289   0.389
    1UNL    C44   63  -0.168  -0.332   0.177
    1UNL    O20   64  -0.282  -0.268   0.128
    1UNL     H1   65  -1.070  -0.209   0.070
    1UNL     H2   66  -0.987  -0.058   0.122
    1UNL     H3   67  -0.948  -0.217   0.187
    1UNL     H4   68  -0.834  -0.206  -0.213
    1UNL     H5   69  -1.105  -0.119  -0.129
    1UNL     H6   70  -1.092  -0.292  -0.144
    1UNL     H7   71  -1.100  -0.107  -0.339
    1UNL     H8   72  -0.692  -0.203   0.120
    1UNL     H9   73  -0.695  -0.281  -0.021
    1UNL    H10   74  -0.595  -0.121  -0.155
    1UNL    H11   75  -0.707  -0.002  -0.084
    1UNL    H12   76  -0.526  -0.073   0.139
    1UNL    H13   77  -0.506   0.200  -0.133
    1UNL    H14   78  -0.331   0.165  -0.146
    1UNL    H15   79  -0.454   0.047  -0.208
    1UNL    H16   80  -0.127   0.118   0.231
    1UNL    H17   81  -0.059   0.341   0.135
    1UNL    H18   82  -0.063   0.217  -0.103
    1UNL    H19   83   0.008   0.470  -0.008
    1UNL    H20   84  -0.215   0.304  -0.024
    1UNL    H21   85  -0.115   0.455  -0.302
    1UNL    H22   86  -0.156   0.652  -0.092
    1UNL    H23   87  -0.165   0.696  -0.265
    1UNL    H24   88  -0.014   0.701  -0.166
    1UNL    H25   89   0.136   0.405  -0.404
    1UNL    H26   90   0.283   0.514  -0.127
    1UNL    H27   91   0.323   0.351  -0.107
    1UNL    H28   92   0.518   0.577  -0.147
    1UNL    H29   93   0.791   0.377  -0.093
    1UNL    H30   94   0.736   0.539  -0.126
    1UNL    H31   95   0.772   0.444  -0.263
    1UNL    H32   96   0.473   0.218  -0.203
    1UNL    H33   97   0.626   0.212  -0.290
    1UNL    H34   98   0.744   0.142  -0.100
    1UNL    H35   99   0.608   0.202   0.011
    1UNL    H36  100   0.558  -0.040  -0.164
    1UNL    H37  101   0.657   0.020   0.209
    1UNL    H38  102   0.488  -0.043   0.245
    1UNL    H39  103   0.520   0.121   0.179
    1UNL    H40  104   0.348  -0.141   0.007
    1UNL    H41  105   0.447  -0.212   0.122
    1UNL    H42  106   0.435  -0.343  -0.248
    1UNL    H43  107   0.216  -0.276  -0.346
    1UNL    H44  108   0.117  -0.034  -0.202
    1UNL    H45  109   0.156  -0.046  -0.370
    1UNL    H46  110   0.010  -0.129  -0.308
    1UNL    H47  111   0.094  -0.261  -0.056
    1UNL    H48  112  -0.068  -0.391  -0.135
    1UNL    H49  113   0.197  -0.505  -0.226
    1UNL    H50  114   0.107  -0.468   0.037
    1UNL    H51  115   0.297  -0.351   0.026
    1UNL    H52  116   0.490  -0.485   0.009
    1UNL    H53  117   0.048   0.202  -0.297
    1UNL    H54  118   0.280   0.189  -0.280
    1UNL    H55  119   0.255   0.153   0.300
    1UNL    H56  120   0.118   0.141   0.514
    1UNL    H57  121  -0.008   0.053   0.435
    1UNL    H58  122   0.151  -0.032   0.454
    1UNL    H59  123   0.173  -0.087   0.229
    1UNL    H60  124   0.212   0.113   0.044
    1UNL    H61  125   0.002  -0.042   0.015
    1UNL    H62  126  -0.062  -0.235   0.025
    1UNL    H63  127   0.162  -0.256   0.364
    1UNL    H64  128   0.139  -0.481   0.472
    1UNL    H65  129   0.220  -0.494   0.313
    1UNL    H66  130   0.047  -0.536   0.339
    1UNL    H67  131  -0.061  -0.174   0.383
    1UNL    H68  132  -0.138  -0.287   0.574
    1UNL    H69  133  -0.177  -0.450   0.356
    1UNL    H70  134  -0.314  -0.206   0.336
    1UNL    H71  135  -0.155  -0.433   0.129
    1UNL    H72  136  -0.276  -0.166   0.130
   0.00000   0.00000   0.00000   0.00000   0.00000   0.00000   0.00000   0.00000   0.00000
Generated with MDTraj, t= 83.0
 136
    1UNL     C1    1  -0.969  -0.131   0.120
    1UNL     C2    2  -0.872  -0.161   0.009
    1UNL     C3    3  -0.917  -0.187  -0.114
    1UNL     C4    4  -1.047  -0.164  -0.157
    1UNL     O1    5  -1.081  -0.219  -0.282
    1UNL     C5    6  -0.720  -0.182   0.020
    1UNL     C6    7  -0.646  -0.056  -0.047
    1UNL     C7    8  -0.500  -0.051   0.000
    1UNL     C8    9  -0.396   0.022  -0.052
    1UNL     C9   10  -0.392   0.093  -0.182
    1UNL    C10   11  -0.294   0.045   0.057
    1UNL     O2   12  -0.313   0.016   0.174
    1UNL     O3   13  -0.184   0.120   0.014
    1UNL    C11   14  -0.097   0.126   0.128
    1UNL    C12   15  -0.003   0.255   0.124
    1UNL     O4   16   0.086   0.246   0.011
    1UNL    C13   17   0.010   0.283  -0.108
    1UNL    C14   18  -0.056   0.423  -0.092
    1UNL     O5   19  -0.197   0.412  -0.068
    1UNL    C15   20  -0.027   0.517  -0.216
    1UNL    C16   21  -0.093   0.652  -0.212
    1UNL     O6   22   0.116   0.525  -0.228
    1UNL    C17   23   0.163   0.409  -0.297
    1UNL     O7   24   0.304   0.415  -0.296
    1UNL    C18   25   0.357   0.453  -0.171
    1UNL    C19   26   0.502   0.489  -0.167
    1UNL    C20   27   0.607   0.409  -0.174
    1UNL    C21   28   0.743   0.468  -0.167
    1UNL    C22   29   0.581   0.265  -0.181
    1UNL    C23   30   0.591   0.195  -0.047
    1UNL    C24   31   0.516   0.063  -0.042
    1UNL    C25   32   0.538  -0.033   0.049
    1UNL    C26   33   0.636  -0.015   0.161
    1UNL    C27   34   0.471  -0.171   0.037
    1UNL     O8   35   0.514  -0.239  -0.076
    1UNL    C28   36   0.402  -0.293  -0.142
    1UNL     O9   37   0.308  -0.194  -0.187
    1UNL    C29   38   0.189  -0.241  -0.259
    1UNL    C30   39   0.116  -0.117  -0.324
    1UNL    C31   40   0.102  -0.311  -0.154
    1UNL    O10   41  -0.024  -0.348  -0.205
    1UNL    C32   42   0.173  -0.443  -0.114
    1UNL    O11   43   0.111  -0.513  -0.010
    1UNL    C33   44   0.322  -0.405  -0.066
    1UNL    O12   45   0.411  -0.518  -0.070
    1UNL    C34   46   0.102   0.272  -0.236
    1UNL    O13   47   0.209   0.177  -0.205
    1UNL    O14   48   0.063   0.252   0.249
    1UNL    C35   49   0.146   0.144   0.283
    1UNL    C36   50   0.107   0.093   0.430
    1UNL    C37   51   0.136   0.018   0.193
    1UNL    O15   52   0.235   0.025   0.094
    1UNL    C38   53  -0.008  -0.006   0.142
    1UNL    O16   54  -0.078  -0.112   0.212
    1UNL    C39   55  -0.060  -0.240   0.151
    1UNL    O17   56   0.062  -0.305   0.188
    1UNL    C40   57   0.080  -0.340   0.328
    1UNL    C41   58   0.140  -0.477   0.338
    1UNL    C42   59  -0.058  -0.315   0.405
    1UNL    O18   60  -0.062  -0.362   0.539
    1UNL    C43   61  -0.182  -0.362   0.337
    1UNL    O19   62  -0.301  -0.298   0.388
    1UNL    C44   63  -0.174  -0.330   0.184
    1UNL    O20   64  -0.295  -0.280   0.126
    1UNL     H1   65  -1.062  -0.180   0.100
    1UNL     H2   66  -0.988  -0.025   0.144
    1UNL     H3   67  -0.944  -0.185   0.212
    1UNL     H4   68  -0.838  -0.223  -0.184
    1UNL     H5   69  -1.066  -0.058  -0.172
    1UNL     H6   70  -1.121  -0.204  -0.086
    1UNL     H7   71  -1.027  -0.300  -0.298
    1UNL     H8   72  -0.704  -0.171   0.129
    1UNL     H9   73  -0.681  -0.274  -0.007
    1UNL    H10   74  -0.651  -0.078  -0.157
    1UNL    H11   75  -0.704   0.034  -0.030
    1UNL    H12   76  -0.490  -0.090   0.099
    1UNL    H13   77  -0.480   0.160  -0.199
    1UNL    H14   78  -0.302   0.155  -0.184
    1UNL    H15   79  -0.388   0.022  -0.261
    1UNL    H16   80  -0.168   0.135   0.220
    1UNL    H17   81  -0.065   0.347   0.122
    1UNL    H18   82  -0.070   0.212  -0.113
    1UNL    H19   83  -0.009   0.475  -0.001
    1UNL    H20   84  -0.213   0.315  -0.053
    1UNL    H21   85  -0.065   0.465  -0.312
    1UNL    H22   86  -0.173   0.649  -0.143
    1UNL    H23   87  -0.140   0.679  -0.310
    1UNL    H24   88  -0.029   0.729  -0.182
    1UNL    H25   89   0.133   0.435  -0.393
    1UNL    H26   90   0.307   0.544  -0.144
    1UNL    H27   91   0.333   0.380  -0.095
    1UNL    H28   92   0.523   0.591  -0.180
    1UNL    H29   93   0.800   0.417  -0.087
    1UNL    H30   94   0.743   0.571  -0.151
    1UNL    H31   95   0.795   0.457  -0.269
    1UNL    H32   96   0.474   0.262  -0.213
    1UNL    H33   97   0.638   0.214  -0.254
    1UNL    H34   98   0.700   0.162  -0.039
    1UNL    H35   99   0.569   0.265   0.033
    1UNL    H36  100   0.453   0.043  -0.127
    1UNL    H37  101   0.686   0.087   0.163
    1UNL    H38  102   0.710  -0.096   0.157
    1UNL    H39  103   0.592  -0.021   0.266
    1UNL    H40  104   0.362  -0.163   0.028
    1UNL    H41  105   0.484  -0.231   0.126
    1UNL    H42  106   0.433  -0.331  -0.241
    1UNL    H43  107   0.226  -0.303  -0.338
    1UNL    H44  108   0.064  -0.056  -0.251
    1UNL    H45  109   0.179  -0.043  -0.380
    1UNL    H46  110   0.042  -0.148  -0.395
    1UNL    H47  111   0.094  -0.240  -0.067
    1UNL    H48  112  -0.074  -0.381  -0.130
    1UNL    H49  113   0.190  -0.511  -0.201
    1UNL    H50  114   0.094  -0.449   0.059
    1UNL    H51  115   0.313  -0.372   0.041
    1UNL    H52  116   0.498  -0.494  -0.021
    1UNL    H53  117   0.046   0.224  -0.318
    1UNL    H54  118   0.293   0.209  -0.243
    1UNL    H55  119   0.249   0.194   0.282
    1UNL    H56  120   0.112   0.179   0.506
    1UNL    H57  121   0.001   0.069   0.429
    1UNL    H58  122   0.166   0.005   0.463
    1UNL    H59  123   0.169  -0.068   0.258
    1UNL    H60  124   0.203   0.094   0.031
    1UNL    H61  125  -0.018  -0.035   0.035
    1UNL    H62  126  -0.064  -0.215   0.045
    1UNL    H63  127   0.153  -0.273   0.375
    1UNL    H64  128   0.150  -0.496   0.444
    1UNL    H65  129   0.241  -0.481   0.288
    1UNL    H66  130   0.066  -0.553   0.300
    1UNL    H67  131  -0.073  -0.209   0.418
    1UNL    H68  132  -0.152  -0.343   0.577
    1UNL    H69  133  -0.202  -0.466   0.365
    1UNL    H70  134  -0.314  -0.218   0.332
    1UNL    H71  135  -0.158  -0.433   0.140
    1UNL    H72  136  -0.298  -0.185   0.163
   0.00000   0.00000   0.00000   0.00000   0.00000   0.00000   0.00000   0.00000   0.00000
Generated with MDTraj, t= 84.0
 136
    1UNL     C1    1  -0.971  -0.093   0.110
    1UNL     C2    2  -0.876  -0.129  -0.005
    1UNL     C3    3  -0.934  -0.166  -0.120
    1UNL     C4    4  -1.074  -0.163  -0.140
    1UNL     O1    5  -1.100  -0.251  -0.252
    1UNL     C5    6  -0.727  -0.158   0.016
    1UNL     C6    7  -0.627  -0.081  -0.074
    1UNL     C7    8  -0.516  -0.030   0.011
    1UNL     C8    9  -0.405   0.025  -0.041
    1UNL     C9   10  -0.377   0.042  -0.179
    1UNL    C10   11  -0.291   0.054   0.060
    1UNL     O2   12  -0.316   0.013   0.169
    1UNL     O3   13  -0.180   0.124   0.026
    1UNL    C11   14  -0.081   0.118   0.126
    1UNL    C12   15   0.006   0.249   0.119
    1UNL     O4   16   0.093   0.268   0.004
    1UNL    C13   17   0.017   0.283  -0.117
    1UNL    C14   18  -0.059   0.417  -0.107
    1UNL     O5   19  -0.196   0.398  -0.105
    1UNL    C15   20  -0.029   0.509  -0.227
    1UNL    C16   21  -0.089   0.648  -0.209
    1UNL     O6   22   0.114   0.521  -0.248
    1UNL    C17   23   0.178   0.393  -0.286
    1UNL     O7   24   0.316   0.389  -0.251
    1UNL    C18   25   0.356   0.475  -0.143
    1UNL    C19   26   0.500   0.510  -0.137
    1UNL    C20   27   0.596   0.420  -0.161
    1UNL    C21   28   0.734   0.462  -0.196
    1UNL    C22   29   0.585   0.273  -0.151
    1UNL    C23   30   0.547   0.220  -0.007
    1UNL    C24   31   0.493   0.081  -0.017
    1UNL    C25   32   0.554  -0.032   0.028
    1UNL    C26   33   0.689  -0.027   0.102
    1UNL    C27   34   0.477  -0.161   0.032
    1UNL     O8   35   0.514  -0.241  -0.070
    1UNL    C28   36   0.401  -0.288  -0.138
    1UNL     O9   37   0.317  -0.182  -0.197
    1UNL    C29   38   0.195  -0.235  -0.263
    1UNL    C30   39   0.119  -0.111  -0.314
    1UNL    C31   40   0.108  -0.308  -0.167
    1UNL    O10   41  -0.021  -0.360  -0.221
    1UNL    C32   42   0.183  -0.433  -0.105
    1UNL    O11   43   0.092  -0.500  -0.021
    1UNL    C33   44   0.323  -0.393  -0.046
    1UNL    O12   45   0.407  -0.507  -0.039
    1UNL    C34   46   0.102   0.265  -0.238
    1UNL    O13   47   0.199   0.162  -0.205
    1UNL    O14   48   0.084   0.259   0.241
    1UNL    C35   49   0.146   0.132   0.283
    1UNL    C36   50   0.098   0.084   0.416
    1UNL    C37   51   0.137   0.023   0.177
    1UNL    O15   52   0.224   0.052   0.071
    1UNL    C38   53  -0.004  -0.009   0.127
    1UNL    O16   54  -0.073  -0.111   0.203
    1UNL    C39   55  -0.052  -0.241   0.154
    1UNL    O17   56   0.072  -0.294   0.195
    1UNL    C40   57   0.073  -0.357   0.329
    1UNL    C41   58   0.093  -0.507   0.320
    1UNL    C42   59  -0.054  -0.322   0.420
    1UNL    O18   60  -0.050  -0.402   0.537
    1UNL    C43   61  -0.183  -0.357   0.349
    1UNL    O19   62  -0.291  -0.290   0.397
    1UNL    C44   63  -0.170  -0.334   0.196
    1UNL    O20   64  -0.294  -0.300   0.138
    1UNL     H1   65  -1.017  -0.183   0.140
    1UNL     H2   66  -1.049  -0.018   0.079
    1UNL     H3   67  -0.920  -0.058   0.199
    1UNL     H4   68  -0.877  -0.212  -0.193
    1UNL     H5   69  -1.114  -0.062  -0.160
    1UNL     H6   70  -1.132  -0.210  -0.057
    1UNL     H7   71  -1.100  -0.209  -0.340
    1UNL     H8   72  -0.711  -0.144   0.126
    1UNL     H9   73  -0.716  -0.259   0.001
    1UNL    H10   74  -0.584  -0.155  -0.149
    1UNL    H11   75  -0.673  -0.003  -0.131
    1UNL    H12   76  -0.518  -0.043   0.120
    1UNL    H13   77  -0.436   0.123  -0.228
    1UNL    H14   78  -0.273   0.071  -0.183
    1UNL    H15   79  -0.385  -0.051  -0.231
    1UNL    H16   80  -0.133   0.120   0.229
    1UNL    H17   81  -0.070   0.330   0.124
    1UNL    H18   82  -0.049   0.195  -0.112
    1UNL    H19   83  -0.031   0.479  -0.017
    1UNL    H20   84  -0.212   0.311  -0.062
    1UNL    H21   85  -0.074   0.477  -0.325
    1UNL    H22   86  -0.167   0.666  -0.281
    1UNL    H23   87  -0.023   0.734  -0.232
    1UNL    H24   88  -0.135   0.661  -0.117
    1UNL    H25   89   0.175   0.392  -0.391
    1UNL    H26   90   0.302   0.571  -0.147
    1UNL    H27   91   0.335   0.430  -0.047
    1UNL    H28   92   0.530   0.615  -0.145
    1UNL    H29   93   0.806   0.412  -0.134
    1UNL    H30   94   0.742   0.572  -0.190
    1UNL    H31   95   0.752   0.440  -0.305
    1UNL    H32   96   0.520   0.223  -0.225
    1UNL    H33   97   0.684   0.238  -0.169
    1UNL    H34   98   0.637   0.234   0.062
    1UNL    H35   99   0.467   0.281   0.031
    1UNL    H36  100   0.398   0.072  -0.069
    1UNL    H37  101   0.663   0.000   0.208
    1UNL    H38  102   0.749   0.050   0.054
    1UNL    H39  103   0.749  -0.126   0.097
    1UNL    H40  104   0.370  -0.137   0.016
    1UNL    H41  105   0.477  -0.217   0.124
    1UNL    H42  106   0.436  -0.341  -0.231
    1UNL    H43  107   0.216  -0.301  -0.342
    1UNL    H44  108   0.117  -0.025  -0.246
    1UNL    H45  109   0.161  -0.075  -0.413
    1UNL    H46  110   0.021  -0.139  -0.338
    1UNL    H47  111   0.077  -0.236  -0.087
    1UNL    H48  112  -0.061  -0.416  -0.152
    1UNL    H49  113   0.203  -0.503  -0.191
    1UNL    H50  114   0.076  -0.446   0.057
    1UNL    H51  115   0.301  -0.356   0.058
    1UNL    H52  116   0.493  -0.487   0.019
    1UNL    H53  117   0.046   0.226  -0.320
    1UNL    H54  118   0.290   0.186  -0.235
    1UNL    H55  119   0.251   0.171   0.284
    1UNL    H56  120   0.087   0.169   0.492
    1UNL    H57  121  -0.003   0.046   0.406
    1UNL    H58  122   0.159   0.001   0.460
    1UNL    H59  123   0.177  -0.075   0.220
    1UNL    H60  124   0.189   0.123   0.013
    1UNL    H61  125  -0.006  -0.040   0.019
    1UNL    H62  126  -0.055  -0.231   0.045
    1UNL    H63  127   0.165  -0.318   0.379
    1UNL    H64  128   0.081  -0.538   0.422
    1UNL    H65  129   0.193  -0.534   0.280
    1UNL    H66  130   0.006  -0.550   0.260
    1UNL    H67  131  -0.052  -0.217   0.452
    1UNL    H68  132  -0.130  -0.387   0.593
    1UNL    H69  133  -0.200  -0.464   0.373
    1UNL    H70  134  -0.275  -0.200   0.365
    1UNL    H71  135  -0.137  -0.436   0.160
    1UNL    H72  136  -0.305  -0.205   0.126
   0.00000   0.00000   0.00000   0.00000   0.00000   0.00000   0.00000   0.00000   0.00000
Generated with MDTraj, t= 85.0
 136
    1UNL     C1    1  -0.961  -0.043   0.081
    1UNL     C2    2  -0.887  -0.133  -0.006
    1UNL     C3    3  -0.952  -0.195  -0.105
    1UNL     C4    4  -1.090  -0.165  -0.148
    1UNL     O1    5  -1.132  -0.248  -0.259
    1UNL     C5    6  -0.739  -0.145   0.006
    1UNL     C6    7  -0.637  -0.046  -0.062
    1UNL     C7    8  -0.516  -0.019   0.023
    1UNL     C8    9  -0.399   0.023  -0.019
    1UNL     C9   10  -0.370  -0.002  -0.171
    1UNL    C10   11  -0.303   0.058   0.085
    1UNL     O2   12  -0.312   0.027   0.201
    1UNL     O3   13  -0.193   0.120   0.030
    1UNL    C11   14  -0.091   0.124   0.128
    1UNL    C12   15   0.009   0.244   0.129
    1UNL     O4   16   0.086   0.261   0.008
    1UNL    C13   17   0.011   0.282  -0.112
    1UNL    C14   18  -0.079   0.412  -0.119
    1UNL     O5   19  -0.213   0.370  -0.145
    1UNL    C15   20  -0.027   0.495  -0.243
    1UNL    C16   21  -0.094   0.631  -0.245
    1UNL     O6   22   0.117   0.513  -0.231
    1UNL    C17   23   0.179   0.387  -0.278
    1UNL     O7   24   0.311   0.384  -0.235
    1UNL    C18   25   0.338   0.479  -0.129
    1UNL    C19   26   0.482   0.509  -0.134
    1UNL    C20   27   0.586   0.421  -0.135
    1UNL    C21   28   0.727   0.466  -0.150
    1UNL    C22   29   0.579   0.271  -0.138
    1UNL    C23   30   0.549   0.225   0.002
    1UNL    C24   31   0.498   0.091   0.007
    1UNL    C25   32   0.570  -0.023   0.012
    1UNL    C26   33   0.711  -0.048   0.014
    1UNL    C27   34   0.494  -0.149   0.013
    1UNL     O8   35   0.522  -0.253  -0.076
    1UNL    C28   36   0.404  -0.298  -0.144
    1UNL     O9   37   0.331  -0.183  -0.190
    1UNL    C29   38   0.212  -0.222  -0.267
    1UNL    C30   39   0.135  -0.098  -0.315
    1UNL    C31   40   0.124  -0.306  -0.176
    1UNL    O10   41   0.008  -0.351  -0.253
    1UNL    C32   42   0.200  -0.429  -0.119
    1UNL    O11   43   0.114  -0.503  -0.039
    1UNL    C33   44   0.315  -0.367  -0.037
    1UNL    O12   45   0.392  -0.461   0.027
    1UNL    C34   46   0.101   0.259  -0.234
    1UNL    O13   47   0.192   0.151  -0.220
    1UNL    O14   48   0.099   0.229   0.248
    1UNL    C35   49   0.142   0.096   0.294
    1UNL    C36   50   0.084   0.053   0.421
    1UNL    C37   51   0.132  -0.007   0.176
    1UNL    O15   52   0.200   0.026   0.057
    1UNL    C38   53  -0.021  -0.014   0.130
    1UNL    O16   54  -0.074  -0.123   0.206
    1UNL    C39   55  -0.039  -0.248   0.153
    1UNL    O17   56   0.086  -0.307   0.189
    1UNL    C40   57   0.082  -0.379   0.326
    1UNL    C41   58   0.058  -0.525   0.308
    1UNL    C42   59  -0.031  -0.314   0.414
    1UNL    O18   60  -0.039  -0.381   0.535
    1UNL    C43   61  -0.175  -0.330   0.352
    1UNL    O19   62  -0.252  -0.223   0.397
    1UNL    C44   63  -0.170  -0.329   0.195
    1UNL    O20   64  -0.280  -0.253   0.141
    1UNL     H1   65  -0.968  -0.079   0.181
    1UNL     H2   66  -1.063  -0.033   0.038
    1UNL     H3   67  -0.924   0.059   0.084
    1UNL     H4   68  -0.894  -0.270  -0.168
    1UNL     H5   69  -1.096  -0.060  -0.188
    1UNL     H6   70  -1.169  -0.175  -0.067
    1UNL     H7   71  -1.109  -0.344  -0.251
    1UNL     H8   72  -0.714  -0.142   0.114
    1UNL     H9   73  -0.716  -0.242  -0.031
    1UNL    H10   74  -0.617  -0.086  -0.166
    1UNL    H11   75  -0.686   0.050  -0.064
    1UNL    H12   76  -0.527  -0.035   0.127
    1UNL    H13   77  -0.425   0.065  -0.239
    1UNL    H14   78  -0.266   0.019  -0.191
    1UNL    H15   79  -0.375  -0.108  -0.197
    1UNL    H16   80  -0.139   0.125   0.231
    1UNL    H17   81  -0.049   0.337   0.148
    1UNL    H18   82  -0.053   0.193  -0.107
    1UNL    H19   83  -0.081   0.466  -0.021
    1UNL    H20   84  -0.246   0.290  -0.092
    1UNL    H21   85  -0.068   0.445  -0.332
    1UNL    H22   86  -0.199   0.626  -0.223
    1UNL    H23   87  -0.095   0.675  -0.344
    1UNL    H24   88  -0.045   0.695  -0.173
    1UNL    H25   89   0.182   0.383  -0.387
    1UNL    H26   90   0.276   0.572  -0.135
    1UNL    H27   91   0.305   0.439  -0.032
    1UNL    H28   92   0.515   0.603  -0.169
    1UNL    H29   93   0.802   0.399  -0.116
    1UNL    H30   94   0.748   0.568  -0.099
    1UNL    H31   95   0.752   0.485  -0.255
    1UNL    H32   96   0.497   0.245  -0.206
    1UNL    H33   97   0.663   0.224  -0.183
    1UNL    H34   98   0.630   0.231   0.080
    1UNL    H35   99   0.472   0.293   0.042
    1UNL    H36  100   0.393   0.084   0.007
    1UNL    H37  101   0.743  -0.088   0.113
    1UNL    H38  102   0.764   0.051  -0.004
    1UNL    H39  103   0.745  -0.111  -0.076
    1UNL    H40  104   0.385  -0.129   0.006
    1UNL    H41  105   0.509  -0.190   0.112
    1UNL    H42  106   0.440  -0.371  -0.224
    1UNL    H43  107   0.241  -0.291  -0.341
    1UNL    H44  108   0.075  -0.054  -0.233
    1UNL    H45  109   0.202  -0.019  -0.353
    1UNL    H46  110   0.070  -0.130  -0.393
    1UNL    H47  111   0.087  -0.249  -0.088
    1UNL    H48  112  -0.056  -0.404  -0.196
    1UNL    H49  113   0.239  -0.497  -0.199
    1UNL    H50  114   0.103  -0.441   0.040
    1UNL    H51  115   0.283  -0.297   0.044
    1UNL    H52  116   0.485  -0.420   0.040
    1UNL    H53  117   0.039   0.234  -0.314
    1UNL    H54  118   0.272   0.176  -0.168
    1UNL    H55  119   0.248   0.112   0.312
    1UNL    H56  120   0.080   0.121   0.509
    1UNL    H57  121  -0.019   0.016   0.403
    1UNL    H58  122   0.135  -0.044   0.453
    1UNL    H59  123   0.168  -0.110   0.211
    1UNL    H60  124   0.155   0.104   0.016
    1UNL    H61  125  -0.022  -0.051   0.024
    1UNL    H62  126  -0.044  -0.236   0.044
    1UNL    H63  127   0.185  -0.363   0.371
    1UNL    H64  128   0.049  -0.585   0.401
    1UNL    H65  129   0.142  -0.562   0.248
    1UNL    H66  130  -0.035  -0.544   0.250
    1UNL    H67  131  -0.014  -0.205   0.426
    1UNL    H68  132  -0.115  -0.345   0.587
    1UNL    H69  133  -0.229  -0.425   0.378
    1UNL    H70  134  -0.266  -0.152   0.328
    1UNL    H71  135  -0.158  -0.426   0.143
    1UNL    H72  136  -0.290  -0.159   0.165
   0.00000   0.00000   0.00000   0.00000   0.00000   0.00000   0.00000   0.00000   0.00000
Generated with MDTraj, t= 86.0
 136
    1UNL     C1    1  -0.961   0.008   0.035
    1UNL     C2    2  -0.884  -0.110  -0.025
    1UNL     C3    3  -0.946  -0.197  -0.106
    1UNL     C4    4  -1.087  -0.172  -0.152
    1UNL     O1    5  -1.136  -0.260  -0.252
    1UNL     C5    6  -0.746  -0.130   0.019
    1UNL     C6    7  -0.657  -0.011  -0.040
    1UNL     C7    8  -0.534   0.007   0.046
    1UNL     C8    9  -0.409   0.020   0.003
    1UNL     C9   10  -0.380   0.001  -0.142
    1UNL    C10   11  -0.294   0.046   0.094
    1UNL     O2   12  -0.311  -0.009   0.199
    1UNL     O3   13  -0.188   0.118   0.044
    1UNL    C11   14  -0.078   0.112   0.130
    1UNL    C12   15   0.016   0.240   0.121
    1UNL     O4   16   0.086   0.263   0.003
    1UNL    C13   17   0.002   0.245  -0.115
    1UNL    C14   18  -0.093   0.371  -0.124
    1UNL     O5   19  -0.229   0.344  -0.116
    1UNL    C15   20  -0.055   0.471  -0.235
    1UNL    C16   21  -0.125   0.608  -0.227
    1UNL     O6   22   0.086   0.498  -0.235
    1UNL    C17   23   0.167   0.382  -0.276
    1UNL     O7   24   0.305   0.385  -0.234
    1UNL    C18   25   0.330   0.480  -0.133
    1UNL    C19   26   0.470   0.525  -0.131
    1UNL    C20   27   0.581   0.443  -0.132
    1UNL    C21   28   0.718   0.493  -0.092
    1UNL    C22   29   0.579   0.284  -0.110
    1UNL    C23   30   0.620   0.226   0.025
    1UNL    C24   31   0.565   0.094   0.051
    1UNL    C25   32   0.606  -0.022  -0.003
    1UNL    C26   33   0.727  -0.042  -0.084
    1UNL    C27   34   0.534  -0.148   0.039
    1UNL     O8   35   0.533  -0.252  -0.055
    1UNL    C28   36   0.416  -0.289  -0.130
    1UNL     O9   37   0.349  -0.180  -0.197
    1UNL    C29   38   0.239  -0.238  -0.283
    1UNL    C30   39   0.176  -0.127  -0.361
    1UNL    C31   40   0.132  -0.309  -0.202
    1UNL    O10   41   0.030  -0.365  -0.290
    1UNL    C32   42   0.196  -0.418  -0.118
    1UNL    O11   43   0.104  -0.493  -0.040
    1UNL    C33   44   0.317  -0.356  -0.030
    1UNL    O12   45   0.376  -0.470   0.041
    1UNL    C34   46   0.100   0.237  -0.240
    1UNL    O13   47   0.197   0.147  -0.206
    1UNL    O14   48   0.097   0.240   0.239
    1UNL    C35   49   0.156   0.105   0.265
    1UNL    C36   50   0.112   0.054   0.404
    1UNL    C37   51   0.147  -0.009   0.158
    1UNL    O15   52   0.238   0.032   0.057
    1UNL    C38   53  -0.005  -0.024   0.117
    1UNL    O16   54  -0.077  -0.120   0.191
    1UNL    C39   55  -0.088  -0.251   0.138
    1UNL    O17   56   0.032  -0.321   0.165
    1UNL    C40   57   0.053  -0.373   0.300
    1UNL    C41   58   0.053  -0.520   0.295
    1UNL    C42   59  -0.044  -0.300   0.404
    1UNL    O18   60  -0.028  -0.356   0.537
    1UNL    C43   61  -0.199  -0.301   0.362
    1UNL    O19   62  -0.248  -0.181   0.413
    1UNL    C44   63  -0.205  -0.329   0.211
    1UNL    O20   64  -0.340  -0.304   0.175
    1UNL     H1   65  -0.910   0.058   0.118
    1UNL     H2   66  -1.054  -0.034   0.071
    1UNL     H3   67  -0.993   0.086  -0.034
    1UNL     H4   68  -0.899  -0.287  -0.130
    1UNL     H5   69  -1.100  -0.065  -0.186
    1UNL     H6   70  -1.155  -0.186  -0.061
    1UNL     H7   71  -1.062  -0.326  -0.262
    1UNL     H8   72  -0.740  -0.123   0.128
    1UNL     H9   73  -0.704  -0.226  -0.019
    1UNL    H10   74  -0.625  -0.054  -0.140
    1UNL    H11   75  -0.715   0.077  -0.055
    1UNL    H12   76  -0.546   0.027   0.154
    1UNL    H13   77  -0.438   0.070  -0.200
    1UNL    H14   78  -0.278   0.022  -0.172
    1UNL    H15   79  -0.390  -0.106  -0.169
    1UNL    H16   80  -0.117   0.112   0.234
    1UNL    H17   81  -0.049   0.329   0.138
    1UNL    H18   82  -0.052   0.150  -0.099
    1UNL    H19   83  -0.067   0.425  -0.031
    1UNL    H20   84  -0.248   0.280  -0.047
    1UNL    H21   85  -0.083   0.426  -0.329
    1UNL    H22   86  -0.227   0.597  -0.261
    1UNL    H23   87  -0.085   0.665  -0.305
    1UNL    H24   88  -0.126   0.662  -0.131
    1UNL    H25   89   0.177   0.385  -0.386
    1UNL    H26   90   0.257   0.566  -0.144
    1UNL    H27   91   0.301   0.440  -0.035
    1UNL    H28   92   0.491   0.633  -0.120
    1UNL    H29   93   0.790   0.410  -0.092
    1UNL    H30   94   0.715   0.543   0.011
    1UNL    H31   95   0.757   0.567  -0.159
    1UNL    H32   96   0.478   0.251  -0.124
    1UNL    H33   97   0.622   0.227  -0.191
    1UNL    H34   98   0.732   0.226   0.028
    1UNL    H35   99   0.595   0.292   0.110
    1UNL    H36  100   0.481   0.089   0.120
    1UNL    H37  101   0.817   0.001  -0.030
    1UNL    H38  102   0.724   0.024  -0.180
    1UNL    H39  103   0.741  -0.145  -0.127
    1UNL    H40  104   0.430  -0.114   0.062
    1UNL    H41  105   0.577  -0.187   0.130
    1UNL    H42  106   0.454  -0.369  -0.202
    1UNL    H43  107   0.295  -0.302  -0.346
    1UNL    H44  108   0.126  -0.060  -0.291
    1UNL    H45  109   0.251  -0.072  -0.413
    1UNL    H46  110   0.101  -0.166  -0.434
    1UNL    H47  111   0.085  -0.228  -0.141
    1UNL    H48  112  -0.046  -0.401  -0.242
    1UNL    H49  113   0.241  -0.488  -0.192
    1UNL    H50  114   0.074  -0.436   0.038
    1UNL    H51  115   0.297  -0.282   0.049
    1UNL    H52  116   0.468  -0.460   0.035
    1UNL    H53  117   0.045   0.208  -0.323
    1UNL    H54  118   0.267   0.195  -0.158
    1UNL    H55  119   0.261   0.117   0.274
    1UNL    H56  120   0.122   0.137   0.473
    1UNL    H57  121   0.001   0.028   0.392
    1UNL    H58  122   0.163  -0.039   0.446
    1UNL    H59  123   0.182  -0.107   0.204
    1UNL    H60  124   0.199   0.108   0.009
    1UNL    H61  125  -0.013  -0.053   0.009
    1UNL    H62  126  -0.112  -0.249   0.029
    1UNL    H63  127   0.156  -0.340   0.330
    1UNL    H64  128   0.098  -0.571   0.386
    1UNL    H65  129   0.110  -0.557   0.208
    1UNL    H66  130  -0.042  -0.567   0.284
    1UNL    H67  131  -0.012  -0.194   0.419
    1UNL    H68  132  -0.092  -0.322   0.601
    1UNL    H69  133  -0.257  -0.384   0.413
    1UNL    H70  134  -0.264  -0.121   0.337
    1UNL    H71  135  -0.184  -0.436   0.200
    1UNL    H72  136  -0.340  -0.204   0.160
   0.00000   0.00000   0.00000   0.00000   0.00000   0.00000   0.00000   0.00000   0.00000
Generated with MDTraj, t= 87.0
 136
    1UNL     C1    1  -1.000   0.048   0.019
    1UNL     C2    2  -0.913  -0.065  -0.024
    1UNL     C3    3  -0.949  -0.163  -0.107
    1UNL     C4    4  -1.087  -0.191  -0.162
    1UNL     O1    5  -1.104  -0.304  -0.244
    1UNL     C5    6  -0.778  -0.074   0.040
    1UNL     C6    7  -0.668   0.004  -0.044
    1UNL     C7    8  -0.539   0.019   0.036
    1UNL     C8    9  -0.419   0.029  -0.017
    1UNL     C9   10  -0.388   0.036  -0.157
    1UNL    C10   11  -0.307   0.064   0.085
    1UNL     O2   12  -0.326   0.054   0.204
    1UNL     O3   13  -0.184   0.101   0.033
    1UNL    C11   14  -0.086   0.097   0.137
    1UNL    C12   15   0.021   0.219   0.125
    1UNL     O4   16   0.096   0.230   0.003
    1UNL    C13   17   0.018   0.249  -0.114
    1UNL    C14   18  -0.082   0.367  -0.122
    1UNL     O5   19  -0.219   0.321  -0.113
    1UNL    C15   20  -0.067   0.457  -0.254
    1UNL    C16   21  -0.146   0.591  -0.226
    1UNL     O6   22   0.072   0.486  -0.259
    1UNL    C17   23   0.153   0.376  -0.288
    1UNL     O7   24   0.286   0.396  -0.244
    1UNL    C18   25   0.307   0.442  -0.117
    1UNL    C19   26   0.440   0.505  -0.099
    1UNL    C20   27   0.556   0.439  -0.073
    1UNL    C21   28   0.685   0.516  -0.076
    1UNL    C22   29   0.539   0.297  -0.042
    1UNL    C23   30   0.658   0.228   0.012
    1UNL    C24   31   0.619   0.096   0.054
    1UNL    C25   32   0.589  -0.010  -0.027
    1UNL    C26   33   0.661  -0.043  -0.155
    1UNL    C27   34   0.501  -0.127   0.019
    1UNL     O8   35   0.539  -0.251  -0.030
    1UNL    C28   36   0.443  -0.303  -0.120
    1UNL     O9   37   0.393  -0.203  -0.212
    1UNL    C29   38   0.285  -0.241  -0.298
    1UNL    C30   39   0.239  -0.124  -0.386
    1UNL    C31   40   0.169  -0.309  -0.219
    1UNL    O10   41   0.066  -0.355  -0.310
    1UNL    C32   42   0.220  -0.423  -0.133
    1UNL    O11   43   0.121  -0.499  -0.069
    1UNL    C33   44   0.327  -0.363  -0.037
    1UNL    O12   45   0.378  -0.463   0.049
    1UNL    C34   46   0.097   0.236  -0.249
    1UNL    O13   47   0.195   0.140  -0.240
    1UNL    O14   48   0.094   0.216   0.244
    1UNL    C35   49   0.173   0.103   0.272
    1UNL    C36   50   0.150   0.056   0.421
    1UNL    C37   51   0.142  -0.020   0.185
    1UNL    O15   52   0.223  -0.040   0.071
    1UNL    C38   53  -0.006  -0.039   0.138
    1UNL    O16   54  -0.083  -0.122   0.214
    1UNL    C39   55  -0.108  -0.250   0.153
    1UNL    O17   56   0.011  -0.332   0.159
    1UNL    C40   57   0.057  -0.375   0.288
    1UNL    C41   58   0.060  -0.521   0.310
    1UNL    C42   59  -0.027  -0.302   0.396
    1UNL    O18   60   0.017  -0.330   0.531
    1UNL    C43   61  -0.188  -0.313   0.387
    1UNL    O19   62  -0.264  -0.209   0.454
    1UNL    C44   63  -0.227  -0.313   0.230
    1UNL    O20   64  -0.346  -0.236   0.181
    1UNL     H1   65  -0.935   0.138   0.036
    1UNL     H2   66  -1.046   0.019   0.111
    1UNL     H3   67  -1.081   0.072  -0.049
    1UNL     H4   68  -0.876  -0.241  -0.121
    1UNL     H5   69  -1.122  -0.105  -0.224
    1UNL     H6   70  -1.161  -0.198  -0.074
    1UNL     H7   71  -1.083  -0.278  -0.337
    1UNL     H8   72  -0.787  -0.034   0.140
    1UNL     H9   73  -0.754  -0.187   0.048
    1UNL    H10   74  -0.639  -0.039  -0.146
    1UNL    H11   75  -0.702   0.104  -0.061
    1UNL    H12   76  -0.541   0.025   0.142
    1UNL    H13   77  -0.393   0.136  -0.192
    1UNL    H14   78  -0.286   0.003  -0.175
    1UNL    H15   79  -0.441  -0.040  -0.220
    1UNL    H16   80  -0.144   0.103   0.229
    1UNL    H17   81  -0.039   0.312   0.137
    1UNL    H18   82  -0.053   0.164  -0.113
    1UNL    H19   83  -0.058   0.446  -0.051
    1UNL    H20   84  -0.222   0.257  -0.037
    1UNL    H21   85  -0.087   0.405  -0.344
    1UNL    H22   86  -0.241   0.591  -0.273
    1UNL    H23   87  -0.091   0.672  -0.258
    1UNL    H24   88  -0.166   0.604  -0.118
    1UNL    H25   89   0.175   0.372  -0.399
    1UNL    H26   90   0.233   0.523  -0.090
    1UNL    H27   91   0.287   0.364  -0.044
    1UNL    H28   92   0.455   0.608  -0.119
    1UNL    H29   93   0.758   0.472  -0.152
    1UNL    H30   94   0.729   0.519   0.024
    1UNL    H31   95   0.662   0.618  -0.101
    1UNL    H32   96   0.454   0.279   0.018
    1UNL    H33   97   0.514   0.250  -0.136
    1UNL    H34   98   0.742   0.215  -0.058
    1UNL    H35   99   0.704   0.288   0.095
    1UNL    H36  100   0.576   0.091   0.153
    1UNL    H37  101   0.744   0.035  -0.179
    1UNL    H38  102   0.595  -0.046  -0.250
    1UNL    H39  103   0.696  -0.148  -0.154
    1UNL    H40  104   0.398  -0.104  -0.018
    1UNL    H41  105   0.497  -0.134   0.127
    1UNL    H42  106   0.497  -0.383  -0.179
    1UNL    H43  107   0.333  -0.318  -0.359
    1UNL    H44  108   0.207  -0.041  -0.326
    1UNL    H45  109   0.319  -0.094  -0.448
    1UNL    H46  110   0.153  -0.147  -0.457
    1UNL    H47  111   0.115  -0.243  -0.151
    1UNL    H48  112  -0.004  -0.398  -0.258
    1UNL    H49  113   0.258  -0.503  -0.199
    1UNL    H50  114   0.080  -0.445   0.007
    1UNL    H51  115   0.284  -0.291   0.034
    1UNL    H52  116   0.482  -0.452   0.066
    1UNL    H53  117   0.032   0.201  -0.323
    1UNL    H54  118   0.277   0.174  -0.193
    1UNL    H55  119   0.271   0.135   0.250
    1UNL    H56  120   0.180   0.141   0.480
    1UNL    H57  121   0.036   0.039   0.430
    1UNL    H58  122   0.209  -0.034   0.456
    1UNL    H59  123   0.163  -0.112   0.248
    1UNL    H60  124   0.202   0.027   0.001
    1UNL    H61  125   0.003  -0.074   0.032
    1UNL    H62  126  -0.150  -0.240   0.050
    1UNL    H63  127   0.160  -0.338   0.299
    1UNL    H64  128   0.090  -0.541   0.419
    1UNL    H65  129   0.126  -0.570   0.236
    1UNL    H66  130  -0.035  -0.565   0.299
    1UNL    H67  131  -0.004  -0.191   0.386
    1UNL    H68  132  -0.051  -0.311   0.599
    1UNL    H69  133  -0.223  -0.408   0.437
    1UNL    H70  134  -0.267  -0.128   0.403
    1UNL    H71  135  -0.240  -0.419   0.213
    1UNL    H72  136  -0.336  -0.143   0.203
   0.00000   0.00000   0.00000   0.00000   0.00000   0.00000   0.00000   0.00000   0.00000
Generated with MDTraj, t= 88.0
 136
    1UNL     C1    1  -1.039   0.061  -0.010
    1UNL     C2    2  -0.927  -0.035  -0.018
    1UNL     C3    3  -0.933  -0.144  -0.094
    1UNL     C4    4  -1.051  -0.183  -0.185
    1UNL     O1    5  -1.068  -0.320  -0.222
    1UNL     C5    6  -0.793   0.017   0.049
    1UNL     C6    7  -0.670   0.007  -0.034
    1UNL     C7    8  -0.541   0.039   0.045
    1UNL     C8    9  -0.424   0.064  -0.006
    1UNL     C9   10  -0.402   0.085  -0.154
    1UNL    C10   11  -0.312   0.068   0.086
    1UNL     O2   12  -0.317   0.045   0.206
    1UNL     O3   13  -0.187   0.103   0.027
    1UNL    C11   14  -0.082   0.099   0.123
    1UNL    C12   15   0.023   0.212   0.107
    1UNL     O4   16   0.086   0.209  -0.020
    1UNL    C13   17   0.007   0.225  -0.134
    1UNL    C14   18  -0.074   0.356  -0.132
    1UNL     O5   19  -0.215   0.355  -0.086
    1UNL    C15   20  -0.064   0.452  -0.260
    1UNL    C16   21  -0.151   0.579  -0.253
    1UNL     O6   22   0.071   0.483  -0.272
    1UNL    C17   23   0.156   0.365  -0.289
    1UNL     O7   24   0.288   0.377  -0.235
    1UNL    C18   25   0.283   0.447  -0.119
    1UNL    C19   26   0.409   0.509  -0.086
    1UNL    C20   27   0.510   0.443  -0.025
    1UNL    C21   28   0.633   0.510  -0.025
    1UNL    C22   29   0.502   0.300   0.012
    1UNL    C23   30   0.637   0.223  -0.009
    1UNL    C24   31   0.633   0.084   0.034
    1UNL    C25   32   0.582  -0.018  -0.041
    1UNL    C26   33   0.542   0.009  -0.185
    1UNL    C27   34   0.550  -0.153   0.033
    1UNL     O8   35   0.573  -0.268  -0.040
    1UNL    C28   36   0.458  -0.315  -0.112
    1UNL     O9   37   0.415  -0.214  -0.205
    1UNL    C29   38   0.326  -0.253  -0.304
    1UNL    C30   39   0.307  -0.142  -0.405
    1UNL    C31   40   0.197  -0.302  -0.234
    1UNL    O10   41   0.110  -0.361  -0.333
    1UNL    C32   42   0.226  -0.421  -0.134
    1UNL    O11   43   0.106  -0.467  -0.086
    1UNL    C33   44   0.336  -0.376  -0.030
    1UNL    O12   45   0.385  -0.466   0.062
    1UNL    C34   46   0.097   0.222  -0.261
    1UNL    O13   47   0.193   0.128  -0.240
    1UNL    O14   48   0.108   0.217   0.223
    1UNL    C35   49   0.175   0.094   0.255
    1UNL    C36   50   0.158   0.068   0.401
    1UNL    C37   51   0.139  -0.034   0.166
    1UNL    O15   52   0.216  -0.031   0.043
    1UNL    C38   53  -0.014  -0.040   0.132
    1UNL    O16   54  -0.097  -0.126   0.217
    1UNL    C39   55  -0.121  -0.257   0.165
    1UNL    O17   56   0.001  -0.334   0.169
    1UNL    C40   57   0.052  -0.370   0.299
    1UNL    C41   58   0.045  -0.526   0.309
    1UNL    C42   59  -0.027  -0.298   0.405
    1UNL    O18   60   0.033  -0.341   0.529
    1UNL    C43   61  -0.178  -0.327   0.397
    1UNL    O19   62  -0.246  -0.246   0.489
    1UNL    C44   63  -0.226  -0.323   0.250
    1UNL    O20   64  -0.349  -0.245   0.237
    1UNL     H1   65  -1.001   0.164   0.020
    1UNL     H2   66  -1.118   0.024   0.052
    1UNL     H3   67  -1.088   0.075  -0.105
    1UNL     H4   68  -0.840  -0.205  -0.099
    1UNL     H5   69  -1.056  -0.116  -0.272
    1UNL     H6   70  -1.147  -0.168  -0.127
    1UNL     H7   71  -1.014  -0.352  -0.297
    1UNL     H8   72  -0.804   0.119   0.082
    1UNL     H9   73  -0.777  -0.046   0.148
    1UNL    H10   74  -0.660  -0.094  -0.082
    1UNL    H11   75  -0.668   0.079  -0.115
    1UNL    H12   76  -0.542   0.026   0.154
    1UNL    H13   77  -0.435   0.181  -0.184
    1UNL    H14   78  -0.294   0.083  -0.171
    1UNL    H15   79  -0.435  -0.002  -0.213
    1UNL    H16   80  -0.134   0.113   0.214
    1UNL    H17   81  -0.033   0.307   0.121
    1UNL    H18   82  -0.064   0.142  -0.137
    1UNL    H19   83  -0.019   0.422  -0.067
    1UNL    H20   84  -0.224   0.258  -0.052
    1UNL    H21   85  -0.076   0.377  -0.335
    1UNL    H22   86  -0.199   0.594  -0.158
    1UNL    H23   87  -0.214   0.577  -0.340
    1UNL    H24   88  -0.083   0.661  -0.271
    1UNL    H25   89   0.185   0.365  -0.400
    1UNL    H26   90   0.207   0.528  -0.128
    1UNL    H27   91   0.253   0.387  -0.033
    1UNL    H28   92   0.426   0.616  -0.095
    1UNL    H29   93   0.687   0.493  -0.125
    1UNL    H30   94   0.698   0.483   0.054
    1UNL    H31   95   0.615   0.619  -0.012
    1UNL    H32   96   0.466   0.297   0.111
    1UNL    H33   97   0.423   0.251  -0.043
    1UNL    H34   98   0.665   0.226  -0.114
    1UNL    H35   99   0.726   0.272   0.042
    1UNL    H36  100   0.659   0.060   0.136
    1UNL    H37  101   0.620   0.082  -0.227
    1UNL    H38  102   0.444   0.064  -0.197
    1UNL    H39  103   0.525  -0.085  -0.247
    1UNL    H40  104   0.446  -0.160   0.073
    1UNL    H41  105   0.615  -0.162   0.120
    1UNL    H42  106   0.508  -0.388  -0.180
    1UNL    H43  107   0.379  -0.335  -0.358
    1UNL    H44  108   0.263  -0.059  -0.354
    1UNL    H45  109   0.405  -0.112  -0.439
    1UNL    H46  110   0.245  -0.160  -0.495
    1UNL    H47  111   0.141  -0.219  -0.191
    1UNL    H48  112   0.033  -0.402  -0.283
    1UNL    H49  113   0.259  -0.506  -0.192
    1UNL    H50  114   0.083  -0.412  -0.009
    1UNL    H51  115   0.293  -0.296   0.030
    1UNL    H52  116   0.474  -0.445   0.086
    1UNL    H53  117   0.041   0.184  -0.343
    1UNL    H54  118   0.246   0.152  -0.164
    1UNL    H55  119   0.278   0.114   0.230
    1UNL    H56  120   0.200   0.149   0.466
    1UNL    H57  121   0.049   0.058   0.423
    1UNL    H58  122   0.212  -0.024   0.432
    1UNL    H59  123   0.158  -0.130   0.223
    1UNL    H60  124   0.176   0.043  -0.007
    1UNL    H61  125  -0.017  -0.090   0.033
    1UNL    H62  126  -0.157  -0.253   0.058
    1UNL    H63  127   0.156  -0.338   0.299
    1UNL    H64  128   0.057  -0.555   0.416
    1UNL    H65  129   0.113  -0.572   0.234
    1UNL    H66  130  -0.055  -0.553   0.280
    1UNL    H67  131  -0.021  -0.184   0.392
    1UNL    H68  132  -0.019  -0.313   0.608
    1UNL    H69  133  -0.197  -0.433   0.426
    1UNL    H70  134  -0.295  -0.171   0.447
    1UNL    H71  135  -0.229  -0.426   0.213
    1UNL    H72  136  -0.321  -0.149   0.222
   0.00000   0.00000   0.00000   0.00000   0.00000   0.00000   0.00000   0.00000   0.00000
Generated with MDTraj, t= 89.0
 136
    1UNL     C1    1  -1.028   0.113  -0.039
    1UNL     C2    2  -0.926  -0.000  -0.032
    1UNL     C3    3  -0.918  -0.113  -0.098
    1UNL     C4    4  -1.016  -0.184  -0.187
    1UNL     O1    5  -0.999  -0.327  -0.180
    1UNL     C5    6  -0.812   0.038   0.053
    1UNL     C6    7  -0.686   0.047  -0.025
    1UNL     C7    8  -0.556   0.027   0.054
    1UNL     C8    9  -0.436   0.061   0.010
    1UNL     C9   10  -0.419   0.104  -0.132
    1UNL    C10   11  -0.308   0.062   0.094
    1UNL     O2   12  -0.328   0.019   0.207
    1UNL     O3   13  -0.198   0.117   0.039
    1UNL    C11   14  -0.086   0.105   0.125
    1UNL    C12   15   0.021   0.216   0.098
    1UNL     O4   16   0.083   0.210  -0.033
    1UNL    C13   17  -0.000   0.236  -0.147
    1UNL    C14   18  -0.059   0.389  -0.142
    1UNL     O5   19  -0.185   0.394  -0.077
    1UNL    C15   20  -0.061   0.445  -0.288
    1UNL    C16   21  -0.138   0.578  -0.281
    1UNL     O6   22   0.082   0.455  -0.328
    1UNL    C17   23   0.169   0.341  -0.311
    1UNL     O7   24   0.277   0.371  -0.230
    1UNL    C18   25   0.254   0.445  -0.116
    1UNL    C19   26   0.383   0.503  -0.071
    1UNL    C20   27   0.477   0.453   0.015
    1UNL    C21   28   0.587   0.544   0.066
    1UNL    C22   29   0.487   0.305   0.040
    1UNL    C23   30   0.620   0.226   0.011
    1UNL    C24   31   0.620   0.087   0.053
    1UNL    C25   32   0.570  -0.021  -0.013
    1UNL    C26   33   0.517   0.008  -0.152
    1UNL    C27   34   0.553  -0.156   0.046
    1UNL     O8   35   0.580  -0.266  -0.047
    1UNL    C28   36   0.471  -0.311  -0.131
    1UNL     O9   37   0.437  -0.227  -0.243
    1UNL    C29   38   0.331  -0.278  -0.332
    1UNL    C30   39   0.296  -0.176  -0.437
    1UNL    C31   40   0.202  -0.310  -0.252
    1UNL    O10   41   0.111  -0.380  -0.336
    1UNL    C32   42   0.234  -0.415  -0.136
    1UNL    O11   43   0.114  -0.457  -0.073
    1UNL    C33   44   0.347  -0.356  -0.040
    1UNL    O12   45   0.383  -0.441   0.069
    1UNL    C34   46   0.089   0.208  -0.276
    1UNL    O13   47   0.174   0.097  -0.257
    1UNL    O14   48   0.121   0.212   0.202
    1UNL    C35   49   0.170   0.069   0.232
    1UNL    C36   50   0.139   0.040   0.370
    1UNL    C37   51   0.123  -0.047   0.131
    1UNL    O15   52   0.198  -0.024   0.008
    1UNL    C38   53  -0.029  -0.039   0.111
    1UNL    O16   54  -0.100  -0.118   0.215
    1UNL    C39   55  -0.114  -0.253   0.175
    1UNL    O17   56   0.019  -0.316   0.168
    1UNL    C40   57   0.067  -0.376   0.293
    1UNL    C41   58   0.060  -0.529   0.291
    1UNL    C42   59  -0.011  -0.327   0.419
    1UNL    O18   60   0.030  -0.369   0.554
    1UNL    C43   61  -0.167  -0.347   0.416
    1UNL    O19   62  -0.216  -0.251   0.509
    1UNL    C44   63  -0.214  -0.328   0.268
    1UNL    O20   64  -0.346  -0.257   0.282
    1UNL     H1   65  -0.996   0.200   0.023
    1UNL     H2   66  -1.130   0.087  -0.016
    1UNL     H3   67  -1.035   0.156  -0.140
    1UNL     H4   68  -0.841  -0.172  -0.065
    1UNL     H5   69  -0.998  -0.158  -0.289
    1UNL     H6   70  -1.118  -0.150  -0.157
    1UNL     H7   71  -0.908  -0.355  -0.205
    1UNL     H8   72  -0.821   0.135   0.102
    1UNL     H9   73  -0.795  -0.028   0.147
    1UNL    H10   74  -0.681  -0.030  -0.105
    1UNL    H11   75  -0.695   0.141  -0.083
    1UNL    H12   76  -0.559  -0.008   0.154
    1UNL    H13   77  -0.455   0.206  -0.145
    1UNL    H14   78  -0.315   0.100  -0.162
    1UNL    H15   79  -0.467   0.033  -0.197
    1UNL    H16   80  -0.115   0.108   0.226
    1UNL    H17   81  -0.023   0.316   0.120
    1UNL    H18   82  -0.085   0.168  -0.142
    1UNL    H19   83   0.013   0.456  -0.101
    1UNL    H20   84  -0.198   0.310  -0.035
    1UNL    H21   85  -0.100   0.366  -0.351
    1UNL    H22   86  -0.062   0.651  -0.288
    1UNL    H23   87  -0.200   0.584  -0.188
    1UNL    H24   88  -0.202   0.584  -0.364
    1UNL    H25   89   0.209   0.328  -0.417
    1UNL    H26   90   0.186   0.531  -0.134
    1UNL    H27   91   0.203   0.383  -0.045
    1UNL    H28   92   0.400   0.608  -0.084
    1UNL    H29   93   0.683   0.527   0.012
    1UNL    H30   94   0.607   0.533   0.169
    1UNL    H31   95   0.559   0.654   0.059
    1UNL    H32   96   0.464   0.281   0.140
    1UNL    H33   97   0.411   0.249  -0.012
    1UNL    H34   98   0.639   0.233  -0.093
    1UNL    H35   99   0.704   0.292   0.053
    1UNL    H36  100   0.657   0.070   0.154
    1UNL    H37  101   0.487   0.116  -0.155
    1UNL    H38  102   0.425  -0.049  -0.182
    1UNL    H39  103   0.593  -0.023  -0.236
    1UNL    H40  104   0.448  -0.175   0.071
    1UNL    H41  105   0.616  -0.176   0.134
    1UNL    H42  106   0.505  -0.404  -0.174
    1UNL    H43  107   0.380  -0.366  -0.384
    1UNL    H44  108   0.255  -0.091  -0.384
    1UNL    H45  109   0.386  -0.142  -0.491
    1UNL    H46  110   0.224  -0.206  -0.508
    1UNL    H47  111   0.166  -0.215  -0.213
    1UNL    H48  112   0.045  -0.419  -0.274
    1UNL    H49  113   0.275  -0.506  -0.174
    1UNL    H50  114   0.094  -0.400  -0.001
    1UNL    H51  115   0.299  -0.273   0.012
    1UNL    H52  116   0.474  -0.432   0.082
    1UNL    H53  117   0.023   0.185  -0.358
    1UNL    H54  118   0.248   0.132  -0.201
    1UNL    H55  119   0.280   0.062   0.219
    1UNL    H56  120   0.169   0.122   0.445
    1UNL    H57  121   0.033   0.023   0.385
    1UNL    H58  122   0.194  -0.048   0.406
    1UNL    H59  123   0.142  -0.150   0.171
    1UNL    H60  124   0.156   0.047  -0.046
    1UNL    H61  125  -0.051  -0.080   0.012
    1UNL    H62  126  -0.155  -0.255   0.072
    1UNL    H63  127   0.172  -0.347   0.290
    1UNL    H64  128   0.115  -0.575   0.373
    1UNL    H65  129   0.088  -0.562   0.190
    1UNL    H66  130  -0.047  -0.560   0.303
    1UNL    H67  131   0.006  -0.215   0.407
    1UNL    H68  132  -0.032  -0.329   0.619
    1UNL    H69  133  -0.190  -0.448   0.451
    1UNL    H70  134  -0.241  -0.167   0.464
    1UNL    H71  135  -0.225  -0.427   0.222
    1UNL    H72  136  -0.339  -0.160   0.258
   0.00000   0.00000   0.00000   0.00000   0.00000   0.00000   0.00000   0.00000   0.00000
Generated with MDTraj, t= 90.0
 136
    1UNL     C1    1  -0.991   0.094  -0.106
    1UNL     C2    2  -0.909  -0.001  -0.024
    1UNL     C3    3  -0.921  -0.129  -0.050
    1UNL     C4    4  -1.018  -0.185  -0.149
    1UNL     O1    5  -1.008  -0.316  -0.210
    1UNL     C5    6  -0.812   0.064   0.068
    1UNL     C6    7  -0.680   0.097  -0.013
    1UNL     C7    8  -0.551   0.112   0.064
    1UNL     C8    9  -0.432   0.119   0.011
    1UNL     C9   10  -0.413   0.122  -0.139
    1UNL    C10   11  -0.315   0.098   0.093
    1UNL     O2   12  -0.321   0.059   0.208
    1UNL     O3   13  -0.203   0.129   0.032
    1UNL    C11   14  -0.090   0.103   0.123
    1UNL    C12   15   0.030   0.205   0.099
    1UNL     O4   16   0.088   0.208  -0.033
    1UNL    C13   17   0.004   0.228  -0.149
    1UNL    C14   18  -0.050   0.376  -0.146
    1UNL     O5   19  -0.185   0.383  -0.117
    1UNL    C15   20  -0.040   0.451  -0.290
    1UNL    C16   21  -0.102   0.592  -0.293
    1UNL     O6   22   0.094   0.451  -0.340
    1UNL    C17   23   0.170   0.326  -0.316
    1UNL     O7   24   0.285   0.343  -0.244
    1UNL    C18   25   0.255   0.421  -0.132
    1UNL    C19   26   0.363   0.496  -0.073
    1UNL    C20   27   0.432   0.437   0.029
    1UNL    C21   28   0.526   0.522   0.111
    1UNL    C22   29   0.422   0.288   0.059
    1UNL    C23   30   0.560   0.233   0.075
    1UNL    C24   31   0.561   0.090   0.088
    1UNL    C25   32   0.528   0.004  -0.011
    1UNL    C26   33   0.493   0.035  -0.153
    1UNL    C27   34   0.527  -0.136   0.030
    1UNL     O8   35   0.570  -0.243  -0.064
    1UNL    C28   36   0.458  -0.292  -0.131
    1UNL     O9   37   0.417  -0.214  -0.240
    1UNL    C29   38   0.327  -0.279  -0.330
    1UNL    C30   39   0.289  -0.219  -0.467
    1UNL    C31   40   0.199  -0.326  -0.250
    1UNL    O10   41   0.106  -0.394  -0.332
    1UNL    C32   42   0.244  -0.416  -0.130
    1UNL    O11   43   0.141  -0.474  -0.056
    1UNL    C33   44   0.338  -0.324  -0.038
    1UNL    O12   45   0.369  -0.399   0.079
    1UNL    C34   46   0.083   0.201  -0.276
    1UNL    O13   47   0.171   0.090  -0.255
    1UNL    O14   48   0.132   0.183   0.193
    1UNL    C35   49   0.184   0.051   0.232
    1UNL    C36   50   0.145   0.008   0.373
    1UNL    C37   51   0.126  -0.053   0.132
    1UNL    O15   52   0.182  -0.066   0.000
    1UNL    C38   53  -0.028  -0.042   0.118
    1UNL    O16   54  -0.096  -0.122   0.219
    1UNL    C39   55  -0.098  -0.260   0.179
    1UNL    O17   56   0.036  -0.321   0.176
    1UNL    C40   57   0.084  -0.383   0.291
    1UNL    C41   58   0.088  -0.538   0.290
    1UNL    C42   59   0.018  -0.328   0.419
    1UNL    O18   60   0.069  -0.397   0.534
    1UNL    C43   61  -0.139  -0.351   0.414
    1UNL    O19   62  -0.187  -0.247   0.489
    1UNL    C44   63  -0.189  -0.336   0.268
    1UNL    O20   64  -0.315  -0.262   0.271
    1UNL     H1   65  -0.991   0.194  -0.064
    1UNL     H2   66  -1.096   0.067  -0.121
    1UNL     H3   67  -0.948   0.111  -0.206
    1UNL     H4   68  -0.869  -0.199   0.024
    1UNL     H5   69  -1.033  -0.109  -0.220
    1UNL     H6   70  -1.112  -0.195  -0.093
    1UNL     H7   71  -0.913  -0.343  -0.218
    1UNL     H8   72  -0.845   0.155   0.121
    1UNL     H9   73  -0.796   0.000   0.164
    1UNL    H10   74  -0.665   0.014  -0.084
    1UNL    H11   75  -0.684   0.184  -0.085
    1UNL    H12   76  -0.558   0.094   0.171
    1UNL    H13   77  -0.383   0.222  -0.177
    1UNL    H14   78  -0.333   0.058  -0.173
    1UNL    H15   79  -0.496   0.086  -0.194
    1UNL    H16   80  -0.132   0.114   0.220
    1UNL    H17   81  -0.018   0.301   0.118
    1UNL    H18   82  -0.077   0.157  -0.134
    1UNL    H19   83   0.009   0.433  -0.078
    1UNL    H20   84  -0.215   0.342  -0.026
    1UNL    H21   85  -0.105   0.391  -0.358
    1UNL    H22   86  -0.168   0.590  -0.374
    1UNL    H23   87  -0.022   0.665  -0.315
    1UNL    H24   88  -0.146   0.622  -0.202
    1UNL    H25   89   0.200   0.300  -0.420
    1UNL    H26   90   0.168   0.483  -0.155
    1UNL    H27   91   0.217   0.360  -0.050
    1UNL    H28   92   0.370   0.603  -0.073
    1UNL    H29   93   0.625   0.521   0.071
    1UNL    H30   94   0.532   0.476   0.211
    1UNL    H31   95   0.488   0.628   0.128
    1UNL    H32   96   0.367   0.271   0.148
    1UNL    H33   97   0.367   0.234  -0.018
    1UNL    H34   98   0.618   0.256  -0.011
    1UNL    H35   99   0.613   0.277   0.168
    1UNL    H36  100   0.591   0.048   0.181
    1UNL    H37  101   0.515   0.145  -0.170
    1UNL    H38  102   0.383   0.024  -0.179
    1UNL    H39  103   0.546  -0.036  -0.227
    1UNL    H40  104   0.427  -0.163   0.069
    1UNL    H41  105   0.592  -0.157   0.115
    1UNL    H42  106   0.490  -0.386  -0.173
    1UNL    H43  107   0.367  -0.385  -0.354
    1UNL    H44  108   0.230  -0.127  -0.456
    1UNL    H45  109   0.378  -0.203  -0.532
    1UNL    H46  110   0.228  -0.287  -0.516
    1UNL    H47  111   0.141  -0.244  -0.209
    1UNL    H48  112   0.053  -0.449  -0.272
    1UNL    H49  113   0.300  -0.498  -0.171
    1UNL    H50  114   0.113  -0.414   0.017
    1UNL    H51  115   0.278  -0.234  -0.022
    1UNL    H52  116   0.470  -0.408   0.079
    1UNL    H53  117   0.013   0.173  -0.355
    1UNL    H54  118   0.250   0.132  -0.217
    1UNL    H55  119   0.298   0.059   0.224
    1UNL    H56  120   0.168   0.087   0.453
    1UNL    H57  121   0.041  -0.019   0.380
    1UNL    H58  122   0.212  -0.079   0.394
    1UNL    H59  123   0.143  -0.152   0.180
    1UNL    H60  124   0.143   0.003  -0.057
    1UNL    H61  125  -0.050  -0.082   0.018
    1UNL    H62  126  -0.134  -0.265   0.074
    1UNL    H63  127   0.191  -0.355   0.294
    1UNL    H64  128   0.122  -0.591   0.376
    1UNL    H65  129   0.137  -0.567   0.196
    1UNL    H66  130  -0.014  -0.587   0.270
    1UNL    H67  131   0.033  -0.216   0.428
    1UNL    H68  132   0.033  -0.353   0.614
    1UNL    H69  133  -0.173  -0.441   0.465
    1UNL    H70  134  -0.198  -0.165   0.439
    1UNL    H71  135  -0.216  -0.434   0.225
    1UNL    H72  136  -0.301  -0.163   0.255
   0.00000   0.00000   0.00000   0.00000   0.00000   0.00000   0.00000   0.00000   0.00000
Generated with MDTraj, t= 91.0
 136
    1UNL     C1    1  -0.956   0.112  -0.128
    1UNL     C2    2  -0.903   0.007  -0.035
    1UNL     C3    3  -0.950  -0.115  -0.024
    1UNL     C4    4  -1.043  -0.193  -0.118
    1UNL     O1    5  -0.985  -0.297  -0.190
    1UNL     C5    6  -0.782   0.042   0.047
    1UNL     C6    7  -0.671   0.141  -0.012
    1UNL     C7    8  -0.542   0.116   0.061
    1UNL     C8    9  -0.420   0.116   0.008
    1UNL     C9   10  -0.387   0.140  -0.136
    1UNL    C10   11  -0.302   0.102   0.092
    1UNL     O2   12  -0.324   0.083   0.212
    1UNL     O3   13  -0.179   0.117   0.028
    1UNL    C11   14  -0.070   0.101   0.118
    1UNL    C12   15   0.042   0.210   0.092
    1UNL     O4   16   0.095   0.204  -0.037
    1UNL    C13   17   0.010   0.218  -0.156
    1UNL    C14   18  -0.065   0.353  -0.157
    1UNL     O5   19  -0.201   0.343  -0.119
    1UNL    C15   20  -0.051   0.431  -0.296
    1UNL    C16   21  -0.083   0.580  -0.277
    1UNL     O6   22   0.076   0.413  -0.357
    1UNL    C17   23   0.166   0.307  -0.317
    1UNL     O7   24   0.266   0.348  -0.221
    1UNL    C18   25   0.242   0.469  -0.150
    1UNL    C19   26   0.355   0.516  -0.064
    1UNL    C20   27   0.412   0.459   0.048
    1UNL    C21   28   0.497   0.534   0.143
    1UNL    C22   29   0.382   0.316   0.091
    1UNL    C23   30   0.514   0.232   0.101
    1UNL    C24   31   0.504   0.087   0.130
    1UNL    C25   32   0.518  -0.007   0.034
    1UNL    C26   33   0.528   0.035  -0.105
    1UNL    C27   34   0.528  -0.152   0.064
    1UNL     O8   35   0.550  -0.228  -0.061
    1UNL    C28   36   0.448  -0.289  -0.134
    1UNL     O9   37   0.392  -0.218  -0.249
    1UNL    C29   38   0.298  -0.292  -0.333
    1UNL    C30   39   0.251  -0.193  -0.440
    1UNL    C31   40   0.182  -0.350  -0.251
    1UNL    O10   41   0.112  -0.437  -0.333
    1UNL    C32   42   0.230  -0.420  -0.128
    1UNL    O11   43   0.123  -0.469  -0.058
    1UNL    C33   44   0.329  -0.340  -0.044
    1UNL    O12   45   0.359  -0.412   0.074
    1UNL    C34   46   0.088   0.181  -0.282
    1UNL    O13   47   0.188   0.071  -0.274
    1UNL    O14   48   0.138   0.200   0.194
    1UNL    C35   49   0.193   0.064   0.206
    1UNL    C36   50   0.186   0.023   0.356
    1UNL    C37   51   0.130  -0.049   0.115
    1UNL    O15   52   0.199  -0.044  -0.008
    1UNL    C38   53  -0.020  -0.043   0.105
    1UNL    O16   54  -0.084  -0.123   0.206
    1UNL    C39   55  -0.090  -0.267   0.169
    1UNL    O17   56   0.043  -0.328   0.153
    1UNL    C40   57   0.093  -0.384   0.269
    1UNL    C41   58   0.084  -0.537   0.280
    1UNL    C42   59   0.035  -0.330   0.406
    1UNL    O18   60   0.104  -0.396   0.515
    1UNL    C43   61  -0.128  -0.337   0.415
    1UNL    O19   62  -0.179  -0.225   0.471
    1UNL    C44   63  -0.182  -0.340   0.266
    1UNL    O20   64  -0.316  -0.287   0.252
    1UNL     H1   65  -0.907   0.208  -0.121
    1UNL     H2   66  -1.066   0.124  -0.114
    1UNL     H3   67  -0.938   0.079  -0.233
    1UNL     H4   68  -0.918  -0.159   0.064
    1UNL     H5   69  -1.074  -0.127  -0.192
    1UNL     H6   70  -1.132  -0.225  -0.068
    1UNL     H7   71  -0.886  -0.296  -0.184
    1UNL     H8   72  -0.803   0.042   0.158
    1UNL     H9   73  -0.723  -0.056   0.055
    1UNL    H10   74  -0.654   0.151  -0.120
    1UNL    H11   75  -0.692   0.251   0.011
    1UNL    H12   76  -0.549   0.086   0.163
    1UNL    H13   77  -0.399   0.247  -0.162
    1UNL    H14   78  -0.285   0.117  -0.160
    1UNL    H15   79  -0.447   0.075  -0.195
    1UNL    H16   80  -0.102   0.114   0.221
    1UNL    H17   81   0.004   0.310   0.107
    1UNL    H18   82  -0.065   0.142  -0.142
    1UNL    H19   83  -0.018   0.407  -0.077
    1UNL    H20   84  -0.212   0.271  -0.061
    1UNL    H21   85  -0.136   0.398  -0.362
    1UNL    H22   86  -0.103   0.595  -0.174
    1UNL    H23   87  -0.173   0.621  -0.323
    1UNL    H24   88  -0.008   0.648  -0.311
    1UNL    H25   89   0.219   0.284  -0.409
    1UNL    H26   90   0.206   0.549  -0.215
    1UNL    H27   91   0.157   0.464  -0.079
    1UNL    H28   92   0.383   0.620  -0.075
    1UNL    H29   93   0.598   0.538   0.112
    1UNL    H30   94   0.492   0.477   0.242
    1UNL    H31   95   0.452   0.634   0.161
    1UNL    H32   96   0.333   0.322   0.184
    1UNL    H33   97   0.311   0.268   0.025
    1UNL    H34   98   0.574   0.242   0.013
    1UNL    H35   99   0.575   0.280   0.187
    1UNL    H36  100   0.490   0.048   0.232
    1UNL    H37  101   0.466   0.132  -0.121
    1UNL    H38  102   0.475  -0.036  -0.176
    1UNL    H39  103   0.637   0.032  -0.141
    1UNL    H40  104   0.445  -0.198   0.123
    1UNL    H41  105   0.619  -0.172   0.123
    1UNL    H42  106   0.498  -0.373  -0.178
    1UNL    H43  107   0.348  -0.388  -0.377
    1UNL    H44  108   0.192  -0.112  -0.397
    1UNL    H45  109   0.337  -0.157  -0.499
    1UNL    H46  110   0.186  -0.247  -0.505
    1UNL    H47  111   0.121  -0.263  -0.221
    1UNL    H48  112   0.076  -0.511  -0.275
    1UNL    H49  113   0.291  -0.504  -0.158
    1UNL    H50  114   0.107  -0.412   0.022
    1UNL    H51  115   0.276  -0.248  -0.011
    1UNL    H52  116   0.439  -0.482   0.068
    1UNL    H53  117   0.017   0.157  -0.364
    1UNL    H54  118   0.271   0.111  -0.236
    1UNL    H55  119   0.298   0.075   0.168
    1UNL    H56  120   0.236   0.109   0.403
    1UNL    H57  121   0.082   0.018   0.395
    1UNL    H58  122   0.248  -0.067   0.377
    1UNL    H59  123   0.156  -0.150   0.153
    1UNL    H60  124   0.172   0.047  -0.039
    1UNL    H61  125  -0.047  -0.081   0.007
    1UNL    H62  126  -0.126  -0.274   0.067
    1UNL    H63  127   0.201  -0.355   0.263
    1UNL    H64  128   0.100  -0.584   0.375
    1UNL    H65  129   0.139  -0.582   0.196
    1UNL    H66  130  -0.017  -0.575   0.250
    1UNL    H67  131   0.065  -0.221   0.410
    1UNL    H68  132   0.102  -0.338   0.593
    1UNL    H69  133  -0.152  -0.424   0.473
    1UNL    H70  134  -0.172  -0.148   0.405
    1UNL    H71  135  -0.188  -0.449   0.239
    1UNL    H72  136  -0.309  -0.190   0.248
   0.00000   0.00000   0.00000   0.00000   0.00000   0.00000   0.00000   0.00000   0.00000
Generated with MDTraj, t= 92.0
 136
    1UNL     C1    1  -0.901   0.089  -0.147
    1UNL     C2    2  -0.878  -0.003  -0.024
    1UNL     C3    3  -0.938  -0.121  -0.014
    1UNL     C4    4  -1.057  -0.174  -0.095
    1UNL     O1    5  -1.022  -0.260  -0.199
    1UNL     C5    6  -0.781   0.047   0.076
    1UNL     C6    7  -0.673   0.136   0.013
    1UNL     C7    8  -0.533   0.131   0.077
    1UNL     C8    9  -0.421   0.111   0.004
    1UNL     C9   10  -0.415   0.090  -0.146
    1UNL    C10   11  -0.300   0.078   0.085
    1UNL     O2   12  -0.310   0.029   0.201
    1UNL     O3   13  -0.183   0.106   0.014
    1UNL    C11   14  -0.080   0.093   0.111
    1UNL    C12   15   0.035   0.201   0.087
    1UNL     O4   16   0.104   0.196  -0.037
    1UNL    C13   17   0.018   0.211  -0.151
    1UNL    C14   18  -0.060   0.353  -0.158
    1UNL     O5   19  -0.200   0.345  -0.134
    1UNL    C15   20  -0.038   0.433  -0.292
    1UNL    C16   21  -0.110   0.568  -0.309
    1UNL     O6   22   0.101   0.443  -0.329
    1UNL    C17   23   0.186   0.326  -0.315
    1UNL     O7   24   0.287   0.346  -0.210
    1UNL    C18   25   0.237   0.449  -0.131
    1UNL    C19   26   0.335   0.522  -0.047
    1UNL    C20   27   0.411   0.458   0.041
    1UNL    C21   28   0.495   0.530   0.141
    1UNL    C22   29   0.391   0.318   0.056
    1UNL    C23   30   0.518   0.247   0.113
    1UNL    C24   31   0.500   0.103   0.120
    1UNL    C25   32   0.509   0.013   0.021
    1UNL    C26   33   0.543   0.046  -0.120
    1UNL    C27   34   0.469  -0.129   0.041
    1UNL     O8   35   0.532  -0.226  -0.035
    1UNL    C28   36   0.429  -0.294  -0.111
    1UNL     O9   37   0.362  -0.198  -0.198
    1UNL    C29   38   0.296  -0.268  -0.311
    1UNL    C30   39   0.242  -0.166  -0.409
    1UNL    C31   40   0.184  -0.365  -0.256
    1UNL    O10   41   0.104  -0.431  -0.353
    1UNL    C32   42   0.237  -0.455  -0.140
    1UNL    O11   43   0.141  -0.538  -0.082
    1UNL    C33   44   0.311  -0.371  -0.033
    1UNL    O12   45   0.354  -0.436   0.082
    1UNL    C34   46   0.106   0.193  -0.279
    1UNL    O13   47   0.192   0.073  -0.258
    1UNL    O14   48   0.125   0.198   0.198
    1UNL    C35   49   0.188   0.067   0.217
    1UNL    C36   50   0.210   0.044   0.368
    1UNL    C37   51   0.135  -0.056   0.133
    1UNL    O15   52   0.209  -0.058   0.009
    1UNL    C38   53  -0.020  -0.054   0.108
    1UNL    O16   54  -0.090  -0.132   0.199
    1UNL    C39   55  -0.091  -0.268   0.152
    1UNL    O17   56   0.034  -0.332   0.139
    1UNL    C40   57   0.091  -0.385   0.260
    1UNL    C41   58   0.091  -0.542   0.250
    1UNL    C42   59   0.042  -0.313   0.393
    1UNL    O18   60   0.102  -0.365   0.511
    1UNL    C43   61  -0.114  -0.305   0.398
    1UNL    O19   62  -0.157  -0.181   0.455
    1UNL    C44   63  -0.181  -0.332   0.252
    1UNL    O20   64  -0.310  -0.266   0.239
    1UNL     H1   65  -0.831   0.170  -0.157
    1UNL     H2   66  -1.003   0.133  -0.162
    1UNL     H3   67  -0.872   0.026  -0.235
    1UNL     H4   68  -0.897  -0.196   0.059
    1UNL     H5   69  -1.120  -0.097  -0.125
    1UNL     H6   70  -1.123  -0.232  -0.032
    1UNL     H7   71  -0.976  -0.343  -0.172
    1UNL     H8   72  -0.830   0.087   0.169
    1UNL     H9   73  -0.732  -0.043   0.128
    1UNL    H10   74  -0.651   0.089  -0.083
    1UNL    H11   75  -0.703   0.243  -0.018
    1UNL    H12   76  -0.521   0.134   0.184
    1UNL    H13   77  -0.467   0.169  -0.200
    1UNL    H14   78  -0.318   0.088  -0.190
    1UNL    H15   79  -0.467  -0.005  -0.162
    1UNL    H16   80  -0.115   0.102   0.219
    1UNL    H17   81  -0.001   0.301   0.096
    1UNL    H18   82  -0.058   0.135  -0.141
    1UNL    H19   83  -0.021   0.410  -0.075
    1UNL    H20   84  -0.213   0.275  -0.064
    1UNL    H21   85  -0.081   0.369  -0.374
    1UNL    H22   86  -0.054   0.640  -0.370
    1UNL    H23   87  -0.119   0.617  -0.215
    1UNL    H24   88  -0.210   0.560  -0.339
    1UNL    H25   89   0.248   0.318  -0.401
    1UNL    H26   90   0.197   0.525  -0.196
    1UNL    H27   91   0.143   0.414  -0.076
    1UNL    H28   92   0.342   0.630  -0.041
    1UNL    H29   93   0.603   0.521   0.134
    1UNL    H30   94   0.471   0.492   0.247
    1UNL    H31   95   0.473   0.636   0.149
    1UNL    H32   96   0.309   0.297   0.120
    1UNL    H33   97   0.367   0.275  -0.040
    1UNL    H34   98   0.599   0.277   0.047
    1UNL    H35   99   0.545   0.286   0.217
    1UNL    H36  100   0.466   0.054   0.206
    1UNL    H37  101   0.444   0.053  -0.178
    1UNL    H38  102   0.597  -0.040  -0.170
    1UNL    H39  103   0.619   0.130  -0.132
    1UNL    H40  104   0.361  -0.134   0.025
    1UNL    H41  105   0.484  -0.154   0.147
    1UNL    H42  106   0.484  -0.359  -0.177
    1UNL    H43  107   0.379  -0.332  -0.358
    1UNL    H44  108   0.156  -0.118  -0.367
    1UNL    H45  109   0.312  -0.093  -0.441
    1UNL    H46  110   0.206  -0.227  -0.495
    1UNL    H47  111   0.120  -0.287  -0.206
    1UNL    H48  112   0.079  -0.520  -0.321
    1UNL    H49  113   0.311  -0.521  -0.187
    1UNL    H50  114   0.095  -0.480  -0.012
    1UNL    H51  115   0.232  -0.302   0.005
    1UNL    H52  116   0.454  -0.460   0.081
    1UNL    H53  117   0.040   0.170  -0.368
    1UNL    H54  118   0.268   0.108  -0.202
    1UNL    H55  119   0.282   0.084   0.170
    1UNL    H56  120   0.275   0.121   0.401
    1UNL    H57  121   0.119   0.048   0.436
    1UNL    H58  122   0.271  -0.048   0.390
    1UNL    H59  123   0.166  -0.146   0.189
    1UNL    H60  124   0.181   0.024  -0.035
    1UNL    H61  125  -0.046  -0.097   0.012
    1UNL    H62  126  -0.140  -0.275   0.056
    1UNL    H63  127   0.196  -0.349   0.240
    1UNL    H64  128   0.151  -0.596   0.326
    1UNL    H65  129   0.122  -0.558   0.146
    1UNL    H66  130  -0.009  -0.575   0.255
    1UNL    H67  131   0.074  -0.207   0.370
    1UNL    H68  132   0.104  -0.296   0.581
    1UNL    H69  133  -0.154  -0.383   0.461
    1UNL    H70  134  -0.171  -0.115   0.388
    1UNL    H71  135  -0.203  -0.441   0.238
    1UNL    H72  136  -0.304  -0.167   0.234
   0.00000   0.00000   0.00000   0.00000   0.00000   0.00000   0.00000   0.00000   0.00000
Generated with MDTraj, t= 93.0
 136
    1UNL     C1    1  -0.916   0.062  -0.160
    1UNL     C2    2  -0.899  -0.005  -0.028
    1UNL     C3    3  -0.980  -0.094   0.023
    1UNL     C4    4  -1.072  -0.181  -0.064
    1UNL     O1    5  -1.026  -0.197  -0.199
    1UNL     C5    6  -0.779   0.013   0.063
    1UNL     C6    7  -0.675   0.106   0.011
    1UNL     C7    8  -0.542   0.115   0.073
    1UNL     C8    9  -0.434   0.058   0.020
    1UNL     C9   10  -0.436   0.021  -0.122
    1UNL    C10   11  -0.309   0.051   0.091
    1UNL     O2   12  -0.306  -0.013   0.196
    1UNL     O3   13  -0.199   0.115   0.038
    1UNL    C11   14  -0.077   0.090   0.105
    1UNL    C12   15   0.015   0.209   0.084
    1UNL     O4   16   0.088   0.217  -0.037
    1UNL    C13   17   0.021   0.229  -0.157
    1UNL    C14   18  -0.061   0.367  -0.173
    1UNL     O5   19  -0.198   0.338  -0.144
    1UNL    C15   20  -0.058   0.424  -0.319
    1UNL    C16   21  -0.148   0.549  -0.336
    1UNL     O6   22   0.082   0.443  -0.346
    1UNL    C17   23   0.180   0.345  -0.315
    1UNL     O7   24   0.291   0.393  -0.230
    1UNL    C18   25   0.247   0.467  -0.116
    1UNL    C19   26   0.352   0.530  -0.025
    1UNL    C20   27   0.447   0.467   0.047
    1UNL    C21   28   0.541   0.547   0.125
    1UNL    C22   29   0.452   0.314   0.069
    1UNL    C23   30   0.589   0.241   0.087
    1UNL    C24   31   0.570   0.093   0.125
    1UNL    C25   32   0.543  -0.006   0.037
    1UNL    C26   33   0.541   0.007  -0.107
    1UNL    C27   34   0.488  -0.137   0.087
    1UNL     O8   35   0.528  -0.238  -0.002
    1UNL    C28   36   0.430  -0.289  -0.100
    1UNL     O9   37   0.365  -0.200  -0.188
    1UNL    C29   38   0.291  -0.262  -0.301
    1UNL    C30   39   0.226  -0.147  -0.375
    1UNL    C31   40   0.182  -0.355  -0.251
    1UNL    O10   41   0.112  -0.428  -0.359
    1UNL    C32   42   0.243  -0.458  -0.148
    1UNL    O11   43   0.121  -0.519  -0.085
    1UNL    C33   44   0.327  -0.383  -0.036
    1UNL    O12   45   0.398  -0.473   0.048
    1UNL    C34   46   0.128   0.206  -0.267
    1UNL    O13   47   0.244   0.128  -0.229
    1UNL    O14   48   0.100   0.205   0.198
    1UNL    C35   49   0.183   0.085   0.210
    1UNL    C36   50   0.171   0.039   0.346
    1UNL    C37   51   0.143  -0.034   0.119
    1UNL    O15   52   0.215  -0.036  -0.005
    1UNL    C38   53  -0.010  -0.047   0.087
    1UNL    O16   54  -0.068  -0.131   0.185
    1UNL    C39   55  -0.113  -0.267   0.148
    1UNL    O17   56  -0.001  -0.353   0.123
    1UNL    C40   57   0.079  -0.387   0.243
    1UNL    C41   58   0.074  -0.540   0.273
    1UNL    C42   59   0.028  -0.301   0.369
    1UNL    O18   60   0.091  -0.324   0.497
    1UNL    C43   61  -0.123  -0.308   0.395
    1UNL    O19   62  -0.169  -0.182   0.443
    1UNL    C44   63  -0.195  -0.336   0.262
    1UNL    O20   64  -0.328  -0.294   0.247
    1UNL     H1   65  -0.848   0.147  -0.174
    1UNL     H2   66  -1.020   0.096  -0.182
    1UNL     H3   67  -0.875  -0.010  -0.233
    1UNL     H4   68  -0.959  -0.134   0.120
    1UNL     H5   69  -1.167  -0.140  -0.073
    1UNL     H6   70  -1.095  -0.278  -0.017
    1UNL     H7   71  -0.932  -0.223  -0.195
    1UNL     H8   72  -0.799   0.030   0.173
    1UNL     H9   73  -0.721  -0.084   0.079
    1UNL    H10   74  -0.665   0.075  -0.092
    1UNL    H11   75  -0.722   0.212   0.003
    1UNL    H12   76  -0.538   0.149   0.175
    1UNL    H13   77  -0.451   0.101  -0.190
    1UNL    H14   78  -0.339  -0.019  -0.148
    1UNL    H15   79  -0.508  -0.060  -0.141
    1UNL    H16   80  -0.105   0.087   0.217
    1UNL    H17   81  -0.057   0.287   0.082
    1UNL    H18   82  -0.052   0.149  -0.156
    1UNL    H19   83  -0.021   0.446  -0.109
    1UNL    H20   84  -0.205   0.294  -0.053
    1UNL    H21   85  -0.080   0.343  -0.393
    1UNL    H22   86  -0.225   0.544  -0.418
    1UNL    H23   87  -0.087   0.630  -0.354
    1UNL    H24   88  -0.184   0.564  -0.239
    1UNL    H25   89   0.239   0.334  -0.403
    1UNL    H26   90   0.171   0.534  -0.149
    1UNL    H27   91   0.179   0.394  -0.059
    1UNL    H28   92   0.357   0.639  -0.023
    1UNL    H29   93   0.650   0.511   0.132
    1UNL    H30   94   0.505   0.557   0.230
    1UNL    H31   95   0.543   0.647   0.086
    1UNL    H32   96   0.393   0.296   0.156
    1UNL    H33   97   0.396   0.268  -0.008
    1UNL    H34   98   0.643   0.235  -0.007
    1UNL    H35   99   0.649   0.296   0.166
    1UNL    H36  100   0.568   0.066   0.233
    1UNL    H37  101   0.451  -0.045  -0.146
    1UNL    H38  102   0.629  -0.043  -0.163
    1UNL    H39  103   0.554   0.112  -0.149
    1UNL    H40  104   0.379  -0.139   0.089
    1UNL    H41  105   0.517  -0.159   0.192
    1UNL    H42  106   0.489  -0.343  -0.174
    1UNL    H43  107   0.359  -0.328  -0.363
    1UNL    H44  108   0.200  -0.074  -0.300
    1UNL    H45  109   0.293  -0.095  -0.438
    1UNL    H46  110   0.134  -0.175  -0.433
    1UNL    H47  111   0.096  -0.308  -0.196
    1UNL    H48  112   0.078  -0.509  -0.322
    1UNL    H49  113   0.291  -0.542  -0.203
    1UNL    H50  114   0.082  -0.458  -0.017
    1UNL    H51  115   0.263  -0.320   0.030
    1UNL    H52  116   0.485  -0.441   0.050
    1UNL    H53  117   0.081   0.154  -0.357
    1UNL    H54  118   0.300   0.193  -0.187
    1UNL    H55  119   0.282   0.119   0.191
    1UNL    H56  120   0.210   0.105   0.421
    1UNL    H57  121   0.063   0.021   0.377
    1UNL    H58  122   0.232  -0.053   0.358
    1UNL    H59  123   0.171  -0.124   0.176
    1UNL    H60  124   0.215   0.048  -0.055
    1UNL    H61  125  -0.032  -0.083  -0.013
    1UNL    H62  126  -0.165  -0.277   0.054
    1UNL    H63  127   0.181  -0.349   0.222
    1UNL    H64  128   0.142  -0.564   0.360
    1UNL    H65  129   0.092  -0.595   0.181
    1UNL    H66  130  -0.022  -0.560   0.308
    1UNL    H67  131   0.054  -0.196   0.338
    1UNL    H68  132   0.069  -0.255   0.565
    1UNL    H69  133  -0.142  -0.381   0.473
    1UNL    H70  134  -0.195  -0.124   0.365
    1UNL    H71  135  -0.186  -0.444   0.236
    1UNL    H72  136  -0.319  -0.200   0.224
   0.00000   0.00000   0.00000   0.00000   0.00000   0.00000   0.00000   0.00000   0.00000
Generated with MDTraj, t= 94.0
 136
    1UNL     C1    1  -0.927   0.063  -0.133
    1UNL     C2    2  -0.896  -0.031  -0.023
    1UNL     C3    3  -0.978  -0.129   0.011
    1UNL     C4    4  -1.106  -0.152  -0.062
    1UNL     O1    5  -1.098  -0.184  -0.198
    1UNL     C5    6  -0.791   0.009   0.077
    1UNL     C6    7  -0.680   0.088   0.009
    1UNL     C7    8  -0.549   0.074   0.072
    1UNL     C8    9  -0.441   0.019   0.013
    1UNL     C9   10  -0.445  -0.064  -0.111
    1UNL    C10   11  -0.309   0.043   0.084
    1UNL     O2   12  -0.312   0.032   0.207
    1UNL     O3   13  -0.206   0.088   0.011
    1UNL    C11   14  -0.088   0.091   0.101
    1UNL    C12   15   0.012   0.208   0.078
    1UNL     O4   16   0.101   0.208  -0.038
    1UNL    C13   17   0.036   0.224  -0.162
    1UNL    C14   18  -0.067   0.352  -0.173
    1UNL     O5   19  -0.202   0.317  -0.143
    1UNL    C15   20  -0.056   0.431  -0.302
    1UNL    C16   21  -0.178   0.518  -0.339
    1UNL     O6   22   0.074   0.486  -0.304
    1UNL    C17   23   0.180   0.382  -0.315
    1UNL     O7   24   0.302   0.411  -0.244
    1UNL    C18   25   0.274   0.459  -0.111
    1UNL    C19   26   0.395   0.517  -0.037
    1UNL    C20   27   0.482   0.451   0.040
    1UNL    C21   28   0.612   0.525   0.070
    1UNL    C22   29   0.455   0.308   0.083
    1UNL    C23   30   0.580   0.222   0.091
    1UNL    C24   31   0.549   0.074   0.096
    1UNL    C25   32   0.533  -0.014  -0.002
    1UNL    C26   33   0.529   0.025  -0.146
    1UNL    C27   34   0.511  -0.149   0.054
    1UNL     O8   35   0.555  -0.262  -0.016
    1UNL    C28   36   0.454  -0.306  -0.103
    1UNL     O9   37   0.389  -0.200  -0.165
    1UNL    C29   38   0.303  -0.239  -0.271
    1UNL    C30   39   0.253  -0.116  -0.337
    1UNL    C31   40   0.188  -0.321  -0.217
    1UNL    O10   41   0.107  -0.380  -0.320
    1UNL    C32   42   0.252  -0.437  -0.132
    1UNL    O11   43   0.141  -0.507  -0.067
    1UNL    C33   44   0.348  -0.384  -0.025
    1UNL    O12   45   0.403  -0.494   0.055
    1UNL    C34   46   0.141   0.230  -0.276
    1UNL    O13   47   0.255   0.154  -0.246
    1UNL    O14   48   0.092   0.206   0.202
    1UNL    C35   49   0.162   0.082   0.230
    1UNL    C36   50   0.145   0.039   0.372
    1UNL    C37   51   0.131  -0.031   0.133
    1UNL    O15   52   0.216  -0.039   0.011
    1UNL    C38   53  -0.020  -0.046   0.093
    1UNL    O16   54  -0.085  -0.135   0.178
    1UNL    C39   55  -0.100  -0.264   0.122
    1UNL    O17   56   0.028  -0.330   0.120
    1UNL    C40   57   0.075  -0.376   0.255
    1UNL    C41   58   0.042  -0.516   0.287
    1UNL    C42   59   0.015  -0.286   0.369
    1UNL    O18   60   0.066  -0.323   0.502
    1UNL    C43   61  -0.135  -0.309   0.365
    1UNL    O19   62  -0.188  -0.190   0.431
    1UNL    C44   63  -0.194  -0.336   0.216
    1UNL    O20   64  -0.318  -0.274   0.209
    1UNL     H1   65  -0.929   0.171  -0.097
    1UNL     H2   66  -1.018   0.043  -0.191
    1UNL     H3   67  -0.837   0.062  -0.195
    1UNL     H4   68  -0.973  -0.188   0.100
    1UNL     H5   69  -1.168  -0.068  -0.053
    1UNL     H6   70  -1.169  -0.231  -0.016
    1UNL     H7   71  -1.040  -0.263  -0.208
    1UNL     H8   72  -0.832   0.074   0.160
    1UNL     H9   73  -0.753  -0.076   0.141
    1UNL    H10   74  -0.675   0.076  -0.100
    1UNL    H11   75  -0.705   0.199   0.035
    1UNL    H12   76  -0.535   0.112   0.172
    1UNL    H13   77  -0.437  -0.014  -0.202
    1UNL    H14   78  -0.367  -0.139  -0.102
    1UNL    H15   79  -0.539  -0.120  -0.111
    1UNL    H16   80  -0.124   0.103   0.209
    1UNL    H17   81  -0.042   0.298   0.087
    1UNL    H18   82  -0.025   0.133  -0.168
    1UNL    H19   83  -0.035   0.418  -0.092
    1UNL    H20   84  -0.210   0.256  -0.068
    1UNL    H21   85  -0.046   0.350  -0.376
    1UNL    H22   86  -0.269   0.456  -0.362
    1UNL    H23   87  -0.141   0.561  -0.427
    1UNL    H24   88  -0.186   0.597  -0.271
    1UNL    H25   89   0.208   0.390  -0.419
    1UNL    H26   90   0.206   0.541  -0.123
    1UNL    H27   91   0.220   0.384  -0.042
    1UNL    H28   92   0.434   0.606  -0.082
    1UNL    H29   93   0.704   0.456   0.062
    1UNL    H30   94   0.605   0.561   0.170
    1UNL    H31   95   0.617   0.612   0.001
    1UNL    H32   96   0.409   0.304   0.179
    1UNL    H33   97   0.385   0.258   0.020
    1UNL    H34   98   0.644   0.255   0.006
    1UNL    H35   99   0.634   0.247   0.186
    1UNL    H36  100   0.545   0.035   0.193
    1UNL    H37  101   0.423   0.035  -0.173
    1UNL    H38  102   0.561  -0.062  -0.215
    1UNL    H39  103   0.599   0.107  -0.183
    1UNL    H40  104   0.402  -0.166   0.060
    1UNL    H41  105   0.545  -0.166   0.159
    1UNL    H42  106   0.494  -0.375  -0.182
    1UNL    H43  107   0.366  -0.288  -0.347
    1UNL    H44  108   0.199  -0.058  -0.263
    1UNL    H45  109   0.334  -0.048  -0.360
    1UNL    H46  110   0.192  -0.133  -0.427
    1UNL    H47  111   0.125  -0.253  -0.155
    1UNL    H48  112   0.057  -0.458  -0.291
    1UNL    H49  113   0.303  -0.513  -0.198
    1UNL    H50  114   0.092  -0.440  -0.018
    1UNL    H51  115   0.307  -0.322   0.057
    1UNL    H52  116   0.495  -0.472   0.082
    1UNL    H53  117   0.094   0.185  -0.372
    1UNL    H54  118   0.321   0.220  -0.206
    1UNL    H55  119   0.265   0.114   0.211
    1UNL    H56  120   0.177   0.115   0.447
    1UNL    H57  121   0.037   0.020   0.389
    1UNL    H58  122   0.208  -0.049   0.387
    1UNL    H59  123   0.154  -0.122   0.189
    1UNL    H60  124   0.201   0.047  -0.035
    1UNL    H61  125  -0.030  -0.078  -0.011
    1UNL    H62  126  -0.151  -0.257   0.025
    1UNL    H63  127   0.183  -0.355   0.263
    1UNL    H64  128   0.060  -0.534   0.395
    1UNL    H65  129   0.097  -0.585   0.225
    1UNL    H66  130  -0.062  -0.545   0.268
    1UNL    H67  131   0.030  -0.177   0.347
    1UNL    H68  132   0.040  -0.258   0.571
    1UNL    H69  133  -0.154  -0.388   0.439
    1UNL    H70  134  -0.199  -0.114   0.370
    1UNL    H71  135  -0.211  -0.444   0.198
    1UNL    H72  136  -0.316  -0.173   0.208
   0.00000   0.00000   0.00000   0.00000   0.00000   0.00000   0.00000   0.00000   0.00000
Generated with MDTraj, t= 95.0
 136
    1UNL     C1    1  -0.979   0.087  -0.081
    1UNL     C2    2  -0.924  -0.036  -0.029
    1UNL     C3    3  -1.010  -0.137   0.003
    1UNL     C4    4  -1.153  -0.144  -0.051
    1UNL     O1    5  -1.156  -0.201  -0.184
    1UNL     C5    6  -0.780  -0.030   0.016
    1UNL     C6    7  -0.678   0.081  -0.032
    1UNL     C7    8  -0.542   0.081   0.053
    1UNL     C8    9  -0.422   0.017   0.028
    1UNL     C9   10  -0.409  -0.085  -0.075
    1UNL    C10   11  -0.301   0.041   0.101
    1UNL     O2   12  -0.299   0.020   0.222
    1UNL     O3   13  -0.195   0.081   0.021
    1UNL    C11   14  -0.066   0.091   0.095
    1UNL    C12   15   0.023   0.219   0.073
    1UNL     O4   16   0.097   0.220  -0.050
    1UNL    C13   17   0.023   0.228  -0.171
    1UNL    C14   18  -0.078   0.348  -0.180
    1UNL     O5   19  -0.212   0.290  -0.181
    1UNL    C15   20  -0.064   0.450  -0.301
    1UNL    C16   21  -0.164   0.569  -0.277
    1UNL     O6   22   0.074   0.488  -0.293
    1UNL    C17   23   0.181   0.389  -0.313
    1UNL     O7   24   0.302   0.400  -0.243
    1UNL    C18   25   0.281   0.485  -0.129
    1UNL    C19   26   0.411   0.529  -0.061
    1UNL    C20   27   0.495   0.456   0.011
    1UNL    C21   28   0.627   0.521   0.043
    1UNL    C22   29   0.475   0.312   0.047
    1UNL    C23   30   0.594   0.223   0.075
    1UNL    C24   31   0.553   0.080   0.116
    1UNL    C25   32   0.556  -0.024   0.036
    1UNL    C26   33   0.607  -0.018  -0.103
    1UNL    C27   34   0.523  -0.162   0.081
    1UNL     O8   35   0.566  -0.265  -0.010
    1UNL    C28   36   0.467  -0.307  -0.111
    1UNL     O9   37   0.410  -0.202  -0.195
    1UNL    C29   38   0.299  -0.238  -0.283
    1UNL    C30   39   0.228  -0.130  -0.373
    1UNL    C31   40   0.188  -0.311  -0.199
    1UNL    O10   41   0.059  -0.344  -0.256
    1UNL    C32   42   0.253  -0.426  -0.129
    1UNL    O11   43   0.160  -0.506  -0.069
    1UNL    C33   44   0.356  -0.380  -0.034
    1UNL    O12   45   0.416  -0.492   0.029
    1UNL    C34   46   0.133   0.239  -0.288
    1UNL    O13   47   0.237   0.157  -0.241
    1UNL    O14   48   0.111   0.230   0.185
    1UNL    C35   49   0.169   0.100   0.233
    1UNL    C36   50   0.118   0.069   0.381
    1UNL    C37   51   0.154  -0.031   0.146
    1UNL    O15   52   0.240  -0.013   0.033
    1UNL    C38   53   0.009  -0.048   0.095
    1UNL    O16   54  -0.064  -0.142   0.180
    1UNL    C39   55  -0.090  -0.272   0.128
    1UNL    O17   56   0.026  -0.353   0.132
    1UNL    C40   57   0.079  -0.369   0.269
    1UNL    C41   58   0.089  -0.511   0.291
    1UNL    C42   59  -0.023  -0.305   0.381
    1UNL    O18   60   0.004  -0.349   0.518
    1UNL    C43   61  -0.175  -0.324   0.354
    1UNL    O19   62  -0.235  -0.207   0.412
    1UNL    C44   63  -0.209  -0.339   0.204
    1UNL    O20   64  -0.328  -0.276   0.168
    1UNL     H1   65  -1.004   0.161   0.002
    1UNL     H2   66  -1.068   0.062  -0.139
    1UNL     H3   67  -0.899   0.134  -0.141
    1UNL     H4   68  -0.983  -0.233   0.054
    1UNL     H5   69  -1.205  -0.052  -0.059
    1UNL     H6   70  -1.221  -0.205   0.017
    1UNL     H7   71  -1.093  -0.277  -0.194
    1UNL     H8   72  -0.789  -0.029   0.130
    1UNL     H9   73  -0.729  -0.128   0.013
    1UNL    H10   74  -0.650   0.066  -0.135
    1UNL    H11   75  -0.726   0.186  -0.022
    1UNL    H12   76  -0.544   0.142   0.144
    1UNL    H13   77  -0.455  -0.060  -0.168
    1UNL    H14   78  -0.305  -0.113  -0.091
    1UNL    H15   79  -0.457  -0.171  -0.032
    1UNL    H16   80  -0.100   0.098   0.201
    1UNL    H17   81  -0.033   0.308   0.081
    1UNL    H18   82  -0.030   0.131  -0.176
    1UNL    H19   83  -0.067   0.417  -0.095
    1UNL    H20   84  -0.233   0.222  -0.103
    1UNL    H21   85  -0.067   0.409  -0.401
    1UNL    H22   86  -0.265   0.530  -0.282
    1UNL    H23   87  -0.157   0.645  -0.352
    1UNL    H24   88  -0.141   0.619  -0.186
    1UNL    H25   89   0.197   0.397  -0.423
    1UNL    H26   90   0.235   0.578  -0.157
    1UNL    H27   91   0.223   0.429  -0.047
    1UNL    H28   92   0.464   0.608  -0.115
    1UNL    H29   93   0.708   0.494  -0.028
    1UNL    H30   94   0.663   0.489   0.138
    1UNL    H31   95   0.617   0.634   0.049
    1UNL    H32   96   0.408   0.307   0.131
    1UNL    H33   97   0.421   0.263  -0.033
    1UNL    H34   98   0.669   0.219  -0.011
    1UNL    H35   99   0.652   0.274   0.154
    1UNL    H36  100   0.520   0.052   0.219
    1UNL    H37  101   0.530   0.044  -0.157
    1UNL    H38  102   0.606  -0.118  -0.150
    1UNL    H39  103   0.715   0.013  -0.111
    1UNL    H40  104   0.418  -0.180   0.111
    1UNL    H41  105   0.583  -0.184   0.172
    1UNL    H42  106   0.520  -0.376  -0.182
    1UNL    H43  107   0.349  -0.300  -0.354
    1UNL    H44  108   0.181  -0.055  -0.309
    1UNL    H45  109   0.301  -0.067  -0.430
    1UNL    H46  110   0.158  -0.171  -0.439
    1UNL    H47  111   0.155  -0.247  -0.114
    1UNL    H48  112   0.027  -0.434  -0.221
    1UNL    H49  113   0.297  -0.490  -0.211
    1UNL    H50  114   0.127  -0.465   0.010
    1UNL    H51  115   0.322  -0.319   0.053
    1UNL    H52  116   0.510  -0.466   0.057
    1UNL    H53  117   0.098   0.188  -0.386
    1UNL    H54  118   0.298   0.210  -0.186
    1UNL    H55  119   0.276   0.132   0.225
    1UNL    H56  120   0.124   0.163   0.446
    1UNL    H57  121   0.015   0.049   0.368
    1UNL    H58  122   0.169  -0.011   0.436
    1UNL    H59  123   0.181  -0.120   0.202
    1UNL    H60  124   0.212   0.066  -0.016
    1UNL    H61  125   0.010  -0.083  -0.009
    1UNL    H62  126  -0.115  -0.248   0.023
    1UNL    H63  127   0.174  -0.317   0.282
    1UNL    H64  128   0.139  -0.532   0.386
    1UNL    H65  129   0.134  -0.558   0.208
    1UNL    H66  130  -0.013  -0.562   0.298
    1UNL    H67  131  -0.003  -0.194   0.375
    1UNL    H68  132  -0.037  -0.289   0.583
    1UNL    H69  133  -0.209  -0.415   0.407
    1UNL    H70  134  -0.239  -0.134   0.343
    1UNL    H71  135  -0.219  -0.444   0.169
    1UNL    H72  136  -0.312  -0.180   0.175
   0.00000   0.00000   0.00000   0.00000   0.00000   0.00000   0.00000   0.00000   0.00000
Generated with MDTraj, t= 96.0
 136
    1UNL     C1    1  -0.953   0.080  -0.051
    1UNL     C2    2  -0.890  -0.047  -0.034
    1UNL     C3    3  -0.974  -0.153  -0.005
    1UNL     C4    4  -1.129  -0.146  -0.012
    1UNL     O1    5  -1.185  -0.155  -0.144
    1UNL     C5    6  -0.747  -0.048   0.010
    1UNL     C6    7  -0.655   0.066  -0.049
    1UNL     C7    8  -0.526   0.072   0.027
    1UNL     C8    9  -0.418   0.002  -0.008
    1UNL     C9   10  -0.400  -0.087  -0.119
    1UNL    C10   11  -0.303   0.031   0.076
    1UNL     O2   12  -0.302  -0.002   0.196
    1UNL     O3   13  -0.201   0.103   0.018
    1UNL    C11   14  -0.085   0.102   0.104
    1UNL    C12   15   0.016   0.221   0.078
    1UNL     O4   16   0.090   0.240  -0.050
    1UNL    C13   17   0.010   0.239  -0.159
    1UNL    C14   18  -0.093   0.350  -0.168
    1UNL     O5   19  -0.223   0.290  -0.189
    1UNL    C15   20  -0.060   0.459  -0.276
    1UNL    C16   21  -0.139   0.589  -0.251
    1UNL     O6   22   0.080   0.488  -0.267
    1UNL    C17   23   0.166   0.378  -0.316
    1UNL     O7   24   0.293   0.379  -0.250
    1UNL    C18   25   0.285   0.448  -0.121
    1UNL    C19   26   0.410   0.510  -0.075
    1UNL    C20   27   0.504   0.448  -0.011
    1UNL    C21   28   0.626   0.509   0.033
    1UNL    C22   29   0.488   0.295   0.003
    1UNL    C23   30   0.599   0.224   0.077
    1UNL    C24   31   0.555   0.082   0.092
    1UNL    C25   32   0.595  -0.015   0.013
    1UNL    C26   33   0.714   0.009  -0.077
    1UNL    C27   34   0.530  -0.141   0.041
    1UNL     O8   35   0.566  -0.256  -0.030
    1UNL    C28   36   0.458  -0.304  -0.108
    1UNL     O9   37   0.388  -0.195  -0.171
    1UNL    C29   38   0.283  -0.239  -0.258
    1UNL    C30   39   0.238  -0.125  -0.348
    1UNL    C31   40   0.173  -0.307  -0.183
    1UNL    O10   41   0.064  -0.333  -0.274
    1UNL    C32   42   0.236  -0.433  -0.110
    1UNL    O11   43   0.132  -0.504  -0.045
    1UNL    C33   44   0.363  -0.397  -0.030
    1UNL    O12   45   0.427  -0.508   0.031
    1UNL    C34   46   0.095   0.232  -0.295
    1UNL    O13   47   0.201   0.140  -0.294
    1UNL    O14   48   0.096   0.239   0.198
    1UNL    C35   49   0.159   0.119   0.248
    1UNL    C36   50   0.106   0.070   0.389
    1UNL    C37   51   0.146  -0.005   0.152
    1UNL    O15   52   0.238   0.007   0.046
    1UNL    C38   53  -0.003  -0.029   0.103
    1UNL    O16   54  -0.074  -0.127   0.180
    1UNL    C39   55  -0.059  -0.257   0.134
    1UNL    O17   56   0.055  -0.326   0.172
    1UNL    C40   57   0.065  -0.370   0.312
    1UNL    C41   58   0.095  -0.517   0.303
    1UNL    C42   59  -0.054  -0.320   0.403
    1UNL    O18   60  -0.041  -0.377   0.532
    1UNL    C43   61  -0.193  -0.343   0.338
    1UNL    O19   62  -0.282  -0.247   0.388
    1UNL    C44   63  -0.191  -0.338   0.183
    1UNL    O20   64  -0.296  -0.264   0.123
    1UNL     H1   65  -1.052   0.088  -0.000
    1UNL     H2   66  -0.975   0.092  -0.159
    1UNL     H3   67  -0.890   0.157  -0.000
    1UNL     H4   68  -0.943  -0.252   0.006
    1UNL     H5   69  -1.171  -0.059   0.034
    1UNL     H6   70  -1.175  -0.232   0.049
    1UNL     H7   71  -1.127  -0.213  -0.198
    1UNL     H8   72  -0.737  -0.054   0.122
    1UNL     H9   73  -0.706  -0.144  -0.023
    1UNL    H10   74  -0.642   0.052  -0.158
    1UNL    H11   75  -0.702   0.168  -0.040
    1UNL    H12   76  -0.514   0.134   0.112
    1UNL    H13   77  -0.470  -0.077  -0.204
    1UNL    H14   78  -0.300  -0.076  -0.160
    1UNL    H15   79  -0.402  -0.183  -0.076
    1UNL    H16   80  -0.129   0.104   0.204
    1UNL    H17   81  -0.046   0.306   0.081
    1UNL    H18   82  -0.038   0.138  -0.150
    1UNL    H19   83  -0.108   0.416  -0.081
    1UNL    H20   84  -0.230   0.214  -0.135
    1UNL    H21   85  -0.073   0.421  -0.375
    1UNL    H22   86  -0.239   0.574  -0.236
    1UNL    H23   87  -0.135   0.655  -0.338
    1UNL    H24   88  -0.098   0.655  -0.176
    1UNL    H25   89   0.168   0.404  -0.428
    1UNL    H26   90   0.210   0.524  -0.136
    1UNL    H27   91   0.246   0.372  -0.042
    1UNL    H28   92   0.430   0.607  -0.115
    1UNL    H29   93   0.647   0.600  -0.020
    1UNL    H30   94   0.714   0.446   0.013
    1UNL    H31   95   0.620   0.533   0.146
    1UNL    H32   96   0.394   0.273   0.046
    1UNL    H33   97   0.483   0.263  -0.101
    1UNL    H34   98   0.704   0.234   0.027
    1UNL    H35   99   0.616   0.261   0.179
    1UNL    H36  100   0.473   0.055   0.153
    1UNL    H37  101   0.687   0.088  -0.156
    1UNL    H38  102   0.736  -0.082  -0.130
    1UNL    H39  103   0.811   0.031  -0.027
    1UNL    H40  104   0.421  -0.126   0.023
    1UNL    H41  105   0.538  -0.161   0.150
    1UNL    H42  106   0.513  -0.357  -0.194
    1UNL    H43  107   0.324  -0.312  -0.321
    1UNL    H44  108   0.189  -0.049  -0.291
    1UNL    H45  109   0.334  -0.079  -0.385
    1UNL    H46  110   0.178  -0.155  -0.429
    1UNL    H47  111   0.132  -0.242  -0.107
    1UNL    H48  112   0.015  -0.413  -0.249
    1UNL    H49  113   0.260  -0.500  -0.199
    1UNL    H50  114   0.101  -0.448   0.028
    1UNL    H51  115   0.331  -0.333   0.055
    1UNL    H52  116   0.519  -0.498   0.037
    1UNL    H53  117   0.024   0.203  -0.380
    1UNL    H54  118   0.289   0.184  -0.293
    1UNL    H55  119   0.268   0.150   0.261
    1UNL    H56  120   0.107   0.147   0.471
    1UNL    H57  121   0.004   0.043   0.375
    1UNL    H58  122   0.156  -0.017   0.437
    1UNL    H59  123   0.167  -0.091   0.213
    1UNL    H60  124   0.214   0.090  -0.002
    1UNL    H61  125   0.005  -0.063  -0.001
    1UNL    H62  126  -0.056  -0.244   0.024
    1UNL    H63  127   0.155  -0.325   0.353
    1UNL    H64  128   0.112  -0.551   0.404
    1UNL    H65  129   0.181  -0.531   0.239
    1UNL    H66  130   0.015  -0.576   0.249
    1UNL    H67  131  -0.044  -0.208   0.407
    1UNL    H68  132  -0.094  -0.322   0.592
    1UNL    H69  133  -0.231  -0.444   0.370
    1UNL    H70  134  -0.296  -0.175   0.325
    1UNL    H71  135  -0.197  -0.432   0.132
    1UNL    H72  136  -0.289  -0.169   0.148
   0.00000   0.00000   0.00000   0.00000   0.00000   0.00000   0.00000   0.00000   0.00000
Generated with MDTraj, t= 97.0
 136
    1UNL     C1    1  -0.954   0.071  -0.030
    1UNL     C2    2  -0.880  -0.053  -0.014
    1UNL     C3    3  -0.945  -0.169   0.015
    1UNL     C4    4  -1.087  -0.177  -0.002
    1UNL     O1    5  -1.145  -0.091  -0.095
    1UNL     C5    6  -0.737  -0.046   0.016
    1UNL     C6    7  -0.662   0.053  -0.076
    1UNL     C7    8  -0.520   0.076  -0.023
    1UNL     C8    9  -0.404   0.020  -0.061
    1UNL     C9   10  -0.394  -0.065  -0.179
    1UNL    C10   11  -0.293   0.037   0.046
    1UNL     O2   12  -0.322   0.005   0.163
    1UNL     O3   13  -0.178   0.099   0.008
    1UNL    C11   14  -0.080   0.106   0.108
    1UNL    C12   15   0.011   0.233   0.087
    1UNL     O4   16   0.073   0.253  -0.044
    1UNL    C13   17  -0.013   0.246  -0.150
    1UNL    C14   18  -0.114   0.367  -0.149
    1UNL     O5   19  -0.245   0.328  -0.154
    1UNL    C15   20  -0.083   0.465  -0.269
    1UNL    C16   21  -0.160   0.594  -0.261
    1UNL     O6   22   0.057   0.499  -0.281
    1UNL    C17   23   0.141   0.384  -0.305
    1UNL     O7   24   0.266   0.392  -0.244
    1UNL    C18   25   0.267   0.454  -0.114
    1UNL    C19   26   0.400   0.499  -0.059
    1UNL    C20   27   0.503   0.430  -0.025
    1UNL    C21   28   0.635   0.510  -0.004
    1UNL    C22   29   0.509   0.282  -0.028
    1UNL    C23   30   0.613   0.209   0.069
    1UNL    C24   31   0.560   0.069   0.100
    1UNL    C25   32   0.608  -0.042   0.047
    1UNL    C26   33   0.726  -0.045  -0.041
    1UNL    C27   34   0.531  -0.172   0.060
    1UNL     O8   35   0.567  -0.265  -0.047
    1UNL    C28   36   0.457  -0.307  -0.123
    1UNL     O9   37   0.389  -0.204  -0.195
    1UNL    C29   38   0.276  -0.250  -0.275
    1UNL    C30   39   0.218  -0.133  -0.349
    1UNL    C31   40   0.169  -0.321  -0.187
    1UNL    O10   41   0.073  -0.373  -0.276
    1UNL    C32   42   0.231  -0.441  -0.104
    1UNL    O11   43   0.140  -0.489  -0.009
    1UNL    C33   44   0.363  -0.388  -0.032
    1UNL    O12   45   0.450  -0.478   0.042
    1UNL    C34   46   0.077   0.239  -0.279
    1UNL    O13   47   0.178   0.146  -0.253
    1UNL    O14   48   0.109   0.241   0.198
    1UNL    C35   49   0.152   0.118   0.255
    1UNL    C36   50   0.084   0.085   0.379
    1UNL    C37   51   0.151  -0.001   0.164
    1UNL    O15   52   0.238   0.036   0.058
    1UNL    C38   53   0.002  -0.026   0.111
    1UNL    O16   54  -0.069  -0.126   0.178
    1UNL    C39   55  -0.026  -0.255   0.145
    1UNL    O17   56   0.091  -0.301   0.207
    1UNL    C40   57   0.059  -0.366   0.337
    1UNL    C41   58   0.067  -0.523   0.332
    1UNL    C42   59  -0.073  -0.322   0.409
    1UNL    O18   60  -0.075  -0.366   0.545
    1UNL    C43   61  -0.200  -0.350   0.313
    1UNL    O19   62  -0.304  -0.264   0.324
    1UNL    C44   63  -0.154  -0.352   0.166
    1UNL    O20   64  -0.249  -0.302   0.071
    1UNL     H1   65  -1.050   0.072  -0.077
    1UNL     H2   66  -0.889   0.137  -0.093
    1UNL     H3   67  -0.969   0.106   0.075
    1UNL     H4   68  -0.894  -0.265   0.051
    1UNL     H5   69  -1.146  -0.164   0.088
    1UNL     H6   70  -1.112  -0.286  -0.035
    1UNL     H7   71  -1.084  -0.088  -0.172
    1UNL     H8   72  -0.726  -0.024   0.125
    1UNL     H9   73  -0.688  -0.143   0.007
    1UNL    H10   74  -0.669   0.017  -0.183
    1UNL    H11   75  -0.712   0.152  -0.089
    1UNL    H12   76  -0.504   0.135   0.068
    1UNL    H13   77  -0.443  -0.027  -0.271
    1UNL    H14   78  -0.291  -0.084  -0.201
    1UNL    H15   79  -0.438  -0.155  -0.148
    1UNL    H16   80  -0.136   0.118   0.198
    1UNL    H17   81  -0.041   0.321   0.122
    1UNL    H18   82  -0.047   0.138  -0.135
    1UNL    H19   83  -0.114   0.424  -0.056
    1UNL    H20   84  -0.249   0.239  -0.102
    1UNL    H21   85  -0.106   0.409  -0.358
    1UNL    H22   86  -0.258   0.576  -0.288
    1UNL    H23   87  -0.118   0.664  -0.333
    1UNL    H24   88  -0.152   0.644  -0.165
    1UNL    H25   89   0.162   0.400  -0.419
    1UNL    H26   90   0.192   0.533  -0.123
    1UNL    H27   91   0.217   0.375  -0.048
    1UNL    H28   92   0.415   0.609  -0.060
    1UNL    H29   93   0.623   0.587   0.068
    1UNL    H30   94   0.657   0.559  -0.104
    1UNL    H31   95   0.720   0.443   0.026
    1UNL    H32   96   0.413   0.246   0.002
    1UNL    H33   97   0.527   0.248  -0.129
    1UNL    H34   98   0.723   0.199   0.032
    1UNL    H35   99   0.621   0.267   0.161
    1UNL    H36  100   0.468   0.056   0.159
    1UNL    H37  101   0.709   0.025  -0.126
    1UNL    H38  102   0.744  -0.143  -0.088
    1UNL    H39  103   0.828  -0.023  -0.001
    1UNL    H40  104   0.425  -0.146   0.051
    1UNL    H41  105   0.543  -0.219   0.158
    1UNL    H42  106   0.485  -0.389  -0.198
    1UNL    H43  107   0.322  -0.317  -0.340
    1UNL    H44  108   0.189  -0.059  -0.276
    1UNL    H45  109   0.282  -0.087  -0.424
    1UNL    H46  110   0.124  -0.164  -0.395
    1UNL    H47  111   0.135  -0.244  -0.118
    1UNL    H48  112   0.022  -0.450  -0.244
    1UNL    H49  113   0.257  -0.529  -0.170
    1UNL    H50  114   0.121  -0.417   0.057
    1UNL    H51  115   0.326  -0.325   0.051
    1UNL    H52  116   0.544  -0.448   0.031
    1UNL    H53  117   0.019   0.207  -0.370
    1UNL    H54  118   0.269   0.184  -0.227
    1UNL    H55  119   0.266   0.134   0.274
    1UNL    H56  120   0.092   0.162   0.455
    1UNL    H57  121  -0.020   0.057   0.359
    1UNL    H58  122   0.135  -0.003   0.424
    1UNL    H59  123   0.193  -0.091   0.201
    1UNL    H60  124   0.203   0.123   0.030
    1UNL    H61  125   0.013  -0.050   0.004
    1UNL    H62  126   0.002  -0.244   0.037
    1UNL    H63  127   0.142  -0.339   0.405
    1UNL    H64  128   0.040  -0.552   0.432
    1UNL    H65  129   0.169  -0.557   0.304
    1UNL    H66  130   0.001  -0.567   0.258
    1UNL    H67  131  -0.067  -0.213   0.421
    1UNL    H68  132  -0.160  -0.335   0.585
    1UNL    H69  133  -0.236  -0.449   0.354
    1UNL    H70  134  -0.305  -0.176   0.270
    1UNL    H71  135  -0.132  -0.455   0.144
    1UNL    H72  136  -0.261  -0.202   0.083
   0.00000   0.00000   0.00000   0.00000   0.00000   0.00000   0.00000   0.00000   0.00000
Generated with MDTraj, t= 98.0
 136
    1UNL     C1    1  -0.959   0.085   0.049
    1UNL     C2    2  -0.881  -0.030   0.005
    1UNL     C3    3  -0.939  -0.152  -0.030
    1UNL     C4    4  -1.075  -0.182   0.011
    1UNL     O1    5  -1.161  -0.137  -0.094
    1UNL     C5    6  -0.730  -0.023   0.013
    1UNL     C6    7  -0.645   0.056  -0.080
    1UNL     C7    8  -0.498   0.082  -0.029
    1UNL     C8    9  -0.383   0.021  -0.072
    1UNL     C9   10  -0.365  -0.047  -0.205
    1UNL    C10   11  -0.277   0.022   0.031
    1UNL     O2   12  -0.292  -0.042   0.134
    1UNL     O3   13  -0.178   0.107   0.006
    1UNL    C11   14  -0.080   0.109   0.104
    1UNL    C12   15  -0.005   0.238   0.102
    1UNL     O4   16   0.065   0.251  -0.016
    1UNL    C13   17  -0.007   0.273  -0.131
    1UNL    C14   18  -0.102   0.396  -0.133
    1UNL     O5   19  -0.233   0.358  -0.121
    1UNL    C15   20  -0.081   0.479  -0.264
    1UNL    C16   21  -0.180   0.597  -0.271
    1UNL     O6   22   0.060   0.509  -0.273
    1UNL    C17   23   0.140   0.392  -0.294
    1UNL     O7   24   0.262   0.405  -0.232
    1UNL    C18   25   0.254   0.469  -0.106
    1UNL    C19   26   0.397   0.503  -0.057
    1UNL    C20   27   0.503   0.426  -0.060
    1UNL    C21   28   0.648   0.473  -0.036
    1UNL    C22   29   0.499   0.274  -0.071
    1UNL    C23   30   0.560   0.211   0.057
    1UNL    C24   31   0.532   0.060   0.067
    1UNL    C25   32   0.607  -0.043   0.035
    1UNL    C26   33   0.742  -0.020  -0.024
    1UNL    C27   34   0.550  -0.180   0.055
    1UNL     O8   35   0.580  -0.273  -0.052
    1UNL    C28   36   0.460  -0.321  -0.110
    1UNL     O9   37   0.390  -0.222  -0.196
    1UNL    C29   38   0.279  -0.272  -0.279
    1UNL    C30   39   0.212  -0.163  -0.363
    1UNL    C31   40   0.172  -0.340  -0.185
    1UNL    O10   41   0.064  -0.405  -0.249
    1UNL    C32   42   0.239  -0.455  -0.096
    1UNL    O11   43   0.142  -0.520  -0.016
    1UNL    C33   44   0.354  -0.386  -0.012
    1UNL    O12   45   0.423  -0.481   0.068
    1UNL    C34   46   0.069   0.258  -0.264
    1UNL    O13   47   0.161   0.160  -0.255
    1UNL    O14   48   0.067   0.257   0.223
    1UNL    C35   49   0.132   0.125   0.268
    1UNL    C36   50   0.079   0.060   0.393
    1UNL    C37   51   0.152   0.017   0.159
    1UNL    O15   52   0.240   0.056   0.055
    1UNL    C38   53   0.007  -0.022   0.111
    1UNL    O16   54  -0.047  -0.133   0.183
    1UNL    C39   55   0.001  -0.263   0.142
    1UNL    O17   56   0.097  -0.330   0.220
    1UNL    C40   57   0.055  -0.353   0.359
    1UNL    C41   58   0.066  -0.508   0.384
    1UNL    C42   59  -0.086  -0.299   0.382
    1UNL    O18   60  -0.135  -0.337   0.507
    1UNL    C43   61  -0.187  -0.354   0.280
    1UNL    O19   62  -0.298  -0.268   0.290
    1UNL    C44   63  -0.126  -0.352   0.137
    1UNL    O20   64  -0.213  -0.297   0.038
    1UNL     H1   65  -1.062   0.083   0.021
    1UNL     H2   66  -0.915   0.175  -0.001
    1UNL     H3   67  -0.958   0.086   0.161
    1UNL     H4   68  -0.888  -0.226  -0.080
    1UNL     H5   69  -1.105  -0.131   0.103
    1UNL     H6   70  -1.102  -0.293   0.038
    1UNL     H7   71  -1.113  -0.153  -0.178
    1UNL     H8   72  -0.719   0.023   0.113
    1UNL     H9   73  -0.684  -0.120   0.030
    1UNL    H10   74  -0.642  -0.006  -0.177
    1UNL    H11   75  -0.694   0.145  -0.118
    1UNL    H12   76  -0.489   0.126   0.067
    1UNL    H13   77  -0.356   0.016  -0.295
    1UNL    H14   78  -0.272  -0.100  -0.201
    1UNL    H15   79  -0.441  -0.124  -0.214
    1UNL    H16   80  -0.147   0.109   0.187
    1UNL    H17   81  -0.089   0.307   0.103
    1UNL    H18   82  -0.064   0.174  -0.133
    1UNL    H19   83  -0.087   0.464  -0.050
    1UNL    H20   84  -0.238   0.272  -0.075
    1UNL    H21   85  -0.100   0.417  -0.352
    1UNL    H22   86  -0.276   0.545  -0.261
    1UNL    H23   87  -0.173   0.647  -0.364
    1UNL    H24   88  -0.165   0.663  -0.189
    1UNL    H25   89   0.171   0.386  -0.406
    1UNL    H26   90   0.191   0.556  -0.121
    1UNL    H27   91   0.204   0.393  -0.035
    1UNL    H28   92   0.398   0.603  -0.021
    1UNL    H29   93   0.703   0.423   0.043
    1UNL    H30   94   0.645   0.584  -0.007
    1UNL    H31   95   0.707   0.462  -0.127
    1UNL    H32   96   0.401   0.233  -0.085
    1UNL    H33   97   0.561   0.243  -0.153
    1UNL    H34   98   0.674   0.231   0.059
    1UNL    H35   99   0.518   0.255   0.149
    1UNL    H36  100   0.435   0.036   0.105
    1UNL    H37  101   0.730   0.035  -0.117
    1UNL    H38  102   0.793  -0.119  -0.045
    1UNL    H39  103   0.817   0.038   0.035
    1UNL    H40  104   0.443  -0.175   0.062
    1UNL    H41  105   0.586  -0.217   0.150
    1UNL    H42  106   0.493  -0.396  -0.188
    1UNL    H43  107   0.309  -0.358  -0.333
    1UNL    H44  108   0.145  -0.106  -0.300
    1UNL    H45  109   0.280  -0.101  -0.414
    1UNL    H46  110   0.141  -0.209  -0.436
    1UNL    H47  111   0.122  -0.270  -0.121
    1UNL    H48  112   0.055  -0.501  -0.220
    1UNL    H49  113   0.285  -0.533  -0.162
    1UNL    H50  114   0.132  -0.469   0.071
    1UNL    H51  115   0.305  -0.302   0.042
    1UNL    H52  116   0.493  -0.429   0.127
    1UNL    H53  117  -0.002   0.235  -0.345
    1UNL    H54  118   0.251   0.189  -0.262
    1UNL    H55  119   0.238   0.163   0.294
    1UNL    H56  120   0.074   0.131   0.471
    1UNL    H57  121  -0.022   0.011   0.368
    1UNL    H58  122   0.147  -0.020   0.430
    1UNL    H59  123   0.191  -0.074   0.197
    1UNL    H60  124   0.201   0.129   0.004
    1UNL    H61  125   0.004  -0.052   0.005
    1UNL    H62  126   0.044  -0.249   0.041
    1UNL    H63  127   0.127  -0.299   0.424
    1UNL    H64  128   0.045  -0.525   0.489
    1UNL    H65  129   0.170  -0.547   0.365
    1UNL    H66  130   0.005  -0.572   0.328
    1UNL    H67  131  -0.088  -0.191   0.375
    1UNL    H68  132  -0.234  -0.334   0.511
    1UNL    H69  133  -0.235  -0.449   0.316
    1UNL    H70  134  -0.294  -0.189   0.236
    1UNL    H71  135  -0.110  -0.454   0.105
    1UNL    H72  136  -0.227  -0.209   0.075
   0.00000   0.00000   0.00000   0.00000   0.00000   0.00000   0.00000   0.00000   0.00000
Generated with MDTraj, t= 99.0
 136
    1UNL     C1    1  -0.974   0.070   0.076
    1UNL     C2    2  -0.875  -0.030   0.023
    1UNL     C3    3  -0.926  -0.152  -0.017
    1UNL     C4    4  -1.075  -0.184  -0.010
    1UNL     O1    5  -1.159  -0.133  -0.118
    1UNL     C5    6  -0.726  -0.030   0.046
    1UNL     C6    7  -0.651   0.045  -0.070
    1UNL     C7    8  -0.519   0.088  -0.021
    1UNL     C8    9  -0.406   0.030  -0.065
    1UNL     C9   10  -0.400  -0.041  -0.197
    1UNL    C10   11  -0.285   0.015   0.022
    1UNL     O2   12  -0.303  -0.061   0.117
    1UNL     O3   13  -0.170   0.079  -0.011
    1UNL    C11   14  -0.094   0.097   0.106
    1UNL    C12   15  -0.009   0.233   0.107
    1UNL     O4   16   0.073   0.263  -0.008
    1UNL    C13   17  -0.006   0.276  -0.127
    1UNL    C14   18  -0.090   0.406  -0.111
    1UNL     O5   19  -0.226   0.378  -0.080
    1UNL    C15   20  -0.080   0.489  -0.245
    1UNL    C16   21  -0.152   0.626  -0.241
    1UNL     O6   22   0.061   0.518  -0.280
    1UNL    C17   23   0.143   0.397  -0.300
    1UNL     O7   24   0.274   0.413  -0.251
    1UNL    C18   25   0.276   0.478  -0.125
    1UNL    C19   26   0.414   0.529  -0.095
    1UNL    C20   27   0.508   0.444  -0.063
    1UNL    C21   28   0.649   0.485  -0.044
    1UNL    C22   29   0.485   0.295  -0.076
    1UNL    C23   30   0.534   0.213   0.038
    1UNL    C24   31   0.510   0.059   0.028
    1UNL    C25   32   0.591  -0.044   0.005
    1UNL    C26   33   0.735  -0.038  -0.025
    1UNL    C27   34   0.537  -0.180   0.042
    1UNL     O8   35   0.575  -0.287  -0.042
    1UNL    C28   36   0.466  -0.335  -0.109
    1UNL     O9   37   0.399  -0.235  -0.189
    1UNL    C29   38   0.286  -0.290  -0.264
    1UNL    C30   39   0.235  -0.183  -0.362
    1UNL    C31   40   0.180  -0.354  -0.175
    1UNL    O10   41   0.081  -0.417  -0.253
    1UNL    C32   42   0.247  -0.463  -0.082
    1UNL    O11   43   0.155  -0.520   0.008
    1UNL    C33   44   0.366  -0.400  -0.006
    1UNL    O12   45   0.426  -0.491   0.086
    1UNL    C34   46   0.076   0.256  -0.258
    1UNL    O13   47   0.156   0.147  -0.229
    1UNL    O14   48   0.064   0.243   0.235
    1UNL    C35   49   0.153   0.137   0.270
    1UNL    C36   50   0.107   0.069   0.396
    1UNL    C37   51   0.159   0.029   0.155
    1UNL    O15   52   0.231   0.085   0.051
    1UNL    C38   53   0.011  -0.024   0.105
    1UNL    O16   54  -0.044  -0.134   0.177
    1UNL    C39   55   0.004  -0.259   0.135
    1UNL    O17   56   0.106  -0.301   0.228
    1UNL    C40   57   0.046  -0.320   0.366
    1UNL    C41   58   0.069  -0.466   0.396
    1UNL    C42   59  -0.108  -0.295   0.365
    1UNL    O18   60  -0.183  -0.327   0.484
    1UNL    C43   61  -0.188  -0.374   0.257
    1UNL    O19   62  -0.319  -0.318   0.263
    1UNL    C44   63  -0.116  -0.354   0.118
    1UNL    O20   64  -0.207  -0.307   0.027
    1UNL     H1   65  -1.046   0.112   0.006
    1UNL     H2   66  -0.918   0.158   0.115
    1UNL     H3   67  -1.031   0.018   0.155
    1UNL     H4   68  -0.862  -0.242  -0.049
    1UNL     H5   69  -1.128  -0.156   0.081
    1UNL     H6   70  -1.087  -0.301  -0.011
    1UNL     H7   71  -1.112  -0.134  -0.205
    1UNL     H8   72  -0.702   0.017   0.142
    1UNL     H9   73  -0.690  -0.130   0.060
    1UNL    H10   74  -0.644  -0.009  -0.173
    1UNL    H11   75  -0.715   0.129  -0.092
    1UNL    H12   76  -0.516   0.137   0.077
    1UNL    H13   77  -0.420   0.017  -0.286
    1UNL    H14   78  -0.297  -0.069  -0.205
    1UNL    H15   79  -0.460  -0.133  -0.189
    1UNL    H16   80  -0.156   0.079   0.189
    1UNL    H17   81  -0.082   0.315   0.123
    1UNL    H18   82  -0.079   0.190  -0.124
    1UNL    H19   83  -0.046   0.465  -0.032
    1UNL    H20   84  -0.235   0.283  -0.049
    1UNL    H21   85  -0.122   0.431  -0.329
    1UNL    H22   86  -0.251   0.608  -0.193
    1UNL    H23   87  -0.161   0.666  -0.337
    1UNL    H24   88  -0.093   0.691  -0.186
    1UNL    H25   89   0.170   0.378  -0.410
    1UNL    H26   90   0.205   0.560  -0.127
    1UNL    H27   91   0.247   0.402  -0.046
    1UNL    H28   92   0.418   0.638  -0.074
    1UNL    H29   93   0.727   0.405  -0.046
    1UNL    H30   94   0.662   0.540   0.054
    1UNL    H31   95   0.681   0.551  -0.123
    1UNL    H32   96   0.379   0.277  -0.095
    1UNL    H33   97   0.537   0.258  -0.160
    1UNL    H34   98   0.645   0.221   0.050
    1UNL    H35   99   0.486   0.251   0.130
    1UNL    H36  100   0.411   0.033   0.048
    1UNL    H37  101   0.759   0.051  -0.084
    1UNL    H38  102   0.748  -0.137  -0.080
    1UNL    H39  103   0.796  -0.045   0.068
    1UNL    H40  104   0.430  -0.175   0.030
    1UNL    H41  105   0.558  -0.214   0.143
    1UNL    H42  106   0.497  -0.416  -0.179
    1UNL    H43  107   0.324  -0.374  -0.321
    1UNL    H44  108   0.192  -0.098  -0.309
    1UNL    H45  109   0.310  -0.159  -0.430
    1UNL    H46  110   0.146  -0.225  -0.417
    1UNL    H47  111   0.137  -0.272  -0.122
    1UNL    H48  112   0.066  -0.510  -0.225
    1UNL    H49  113   0.289  -0.544  -0.145
    1UNL    H50  114   0.157  -0.457   0.083
    1UNL    H51  115   0.321  -0.325   0.060
    1UNL    H52  116   0.451  -0.579   0.049
    1UNL    H53  117   0.009   0.231  -0.338
    1UNL    H54  118   0.186   0.145  -0.130
    1UNL    H55  119   0.251   0.188   0.299
    1UNL    H56  120   0.101   0.143   0.473
    1UNL    H57  121   0.003   0.029   0.377
    1UNL    H58  122   0.171  -0.011   0.439
    1UNL    H59  123   0.221  -0.053   0.185
    1UNL    H60  124   0.207   0.182   0.054
    1UNL    H61  125   0.017  -0.058  -0.000
    1UNL    H62  126   0.048  -0.247   0.035
    1UNL    H63  127   0.098  -0.255   0.440
    1UNL    H64  128   0.049  -0.501   0.498
    1UNL    H65  129   0.179  -0.480   0.386
    1UNL    H66  130   0.036  -0.539   0.328
    1UNL    H67  131  -0.121  -0.191   0.345
    1UNL    H68  132  -0.276  -0.352   0.464
    1UNL    H69  133  -0.200  -0.482   0.281
    1UNL    H70  134  -0.326  -0.227   0.223
    1UNL    H71  135  -0.071  -0.446   0.079
    1UNL    H72  136  -0.241  -0.216   0.052
   0.00000   0.00000   0.00000   0.00000   0.00000   0.00000   0.00000   0.00000   0.00000
