[ moleculetype ]
; name        nrexcl
res           1

[ atoms ]
;    nr  type resnr resid  atom  cgnr     charge       mass
      1 SN4a      1 res   C1        1      0.000     54.000
      2 TC3       1 res   C2        2      0.000     36.000
      3 TC4       1 res   C3        3      0.000     36.000
      4 SC3       1 res   C4        4      0.000     54.000
      5 TC3       1 res   C5        5      0.000     36.000
      6 TN4a      1 res   C6        6      0.000     36.000
      7 SC4       1 res   C7        7      0.000     54.000
      8 TN6a      1 res   C8        8      0.000     36.000
      9 TC4       1 res   C9        9      0.000     36.000
     10 TC5       1 res   C10      10      0.000     36.000
     11 SC5       1 res   C11      11      0.000     54.000
     12 SN4a      1 res   C12      12      0.000     54.000
     13 SC2       1 res   C13      13      0.000     54.000
     14 SC2       1 res   C14      14      0.000     54.000

[ bonds ]
;  ai    aj   funct      b0(nm)        k
    1     2     1      0.34287    20000
    2     3     1      0.27327    20000
    2    10     1      0.24447    20000
    3     4     1      0.32347    20000
    3     9     1      0.28467    20000
    4     5     1      0.37817    20000
    4     9     1      0.33153    20000
    5     6     1      0.25028    20000
    6     7     1      0.31632    20000
    6     8     1      0.28562    20000
    7     8     1      0.26167    20000
    9    10     1      0.27157    20000
   10    11     1      0.38348    20000
   10    14     1      0.24599    20000
   11    12     1      0.32725    20000
   11    14     1      0.36179    20000
   12    13     1      0.32364    20000
   13    14     1      0.35927    20000
