1TPCN06046
32
    1res  C1    1   -0.312  -0.389   0.218
    1res  C2    2   -0.390  -0.298  -0.058
    1res  C3    3   -0.284  -0.049   0.010
    1res  C4    4   -0.055   0.002  -0.038
    1res  C5    5    0.223  -0.092  -0.049
    1res  C6    6    0.488  -0.027   0.021
    1res  C7    7    0.610   0.144   0.225
    1res  C8    8    0.726   0.012  -0.035
    1res  C9    9    0.900  -0.030   0.104
    1res  C10   10    0.995  -0.099   0.333
    1res  C11   11    1.160  -0.202   0.166
    1res  C12   12    1.170  -0.109  -0.019
    1res  C13   13    1.295   0.159  -0.143
    1res  C14   14    1.415   0.273   0.086
    1res  C15   15    1.559   0.083   0.052
    1res  C16   16    1.479  -0.007  -0.149
    1res  C17   17    0.963  -0.105  -0.103
    1res  C18   18    0.634   0.197  -0.164
    1res  C19   19    0.482   0.053  -0.272
    1res  C20   20    0.054  -0.092  -0.295
    1res  C21   21    0.011   0.139  -0.325
    1res  C22   22   -0.091   0.240  -0.149
    1res  C23   23   -0.537  -0.148  -0.225
    1res  C24   24   -0.587   0.045  -0.025
    1res  C25   25   -0.778  -0.104   0.228
    1res  C26   26   -0.867  -0.091  -0.029
    1res  C27   27   -1.002   0.190   0.102
    1res  C28   28   -1.196   0.053   0.227
    1res  C29   29   -1.334   0.061   0.004
    1res  C30   30   -1.202   0.342  -0.022
    1res  C31   31   -1.263   0.185  -0.242
    1res  C32   32   -0.896   0.142  -0.194
  10.00000  10.00000  10.00000
