Generated with MDTraj, t= 0.0
 49
    1UNL     C1    1  -0.275   0.131   0.302
    1UNL     C2    2  -0.269  -0.008   0.250
    1UNL     C3    3  -0.219  -0.042   0.131
    1UNL     C4    4  -0.216  -0.182   0.079
    1UNL     N1    5  -0.170  -0.178  -0.067
    1UNL     C5    6  -0.258  -0.262  -0.156
    1UNL     C6    7  -0.025  -0.224  -0.078
    1UNL     C7    8   0.074  -0.141   0.003
    1UNL     C8    9   0.086   0.011  -0.027
    1UNL     C9   10   0.232   0.051  -0.021
    1UNL    C10   11   0.315   0.072   0.087
    1UNL    C11   12   0.448   0.102   0.065
    1UNL    C12   13   0.498   0.111  -0.065
    1UNL    C13   14   0.416   0.090  -0.174
    1UNL    C14   15   0.282   0.060  -0.152
    1UNL     N2   16   0.178   0.042  -0.246
    1UNL    C15   17   0.051   0.063  -0.174
    1UNL     O1   18   0.025   0.205  -0.163
    1UNL    C16   19  -0.002   0.236  -0.027
    1UNL    C17   20  -0.017   0.102   0.050
    1UNL    C18   21   0.019   0.116   0.198
    1UNL     O2   22  -0.003   0.226   0.249
    1UNL     O3   23   0.065   0.016   0.253
    1UNL    C19   24  -0.165   0.050   0.024
    1UNL    C20   25  -0.179  -0.031  -0.110
    1UNL    C21   26  -0.076  -0.007  -0.220
    1UNL     O4   27  -0.092  -0.044  -0.333
    1UNL     H1   28  -0.178   0.162   0.341
    1UNL     H2   29  -0.348   0.140   0.383
    1UNL     H3   30  -0.304   0.201   0.224
    1UNL     H4   31  -0.303  -0.087   0.314
    1UNL     H5   32  -0.149  -0.244   0.139
    1UNL     H6   33  -0.315  -0.226   0.085
    1UNL     H7   34  -0.361  -0.232  -0.147
    1UNL     H8   35  -0.227  -0.251  -0.259
    1UNL     H9   36  -0.250  -0.367  -0.127
    1UNL    H10   37  -0.022  -0.329  -0.048
    1UNL    H11   38   0.002  -0.222  -0.184
    1UNL    H12   39   0.174  -0.185  -0.011
    1UNL    H13   40   0.054  -0.152   0.110
    1UNL    H14   41   0.274   0.064   0.186
    1UNL    H15   42   0.513   0.119   0.149
    1UNL    H16   43   0.602   0.135  -0.080
    1UNL    H17   44   0.454   0.098  -0.274
    1UNL    H18   45   0.179   0.093  -0.334
    1UNL    H19   46  -0.093   0.298  -0.022
    1UNL    H20   47   0.081   0.295   0.013
    1UNL    H21   48  -0.230   0.138   0.018
    1UNL    H22   49  -0.279  -0.014  -0.154
   0.00000   0.00000   0.00000   0.00000   0.00000   0.00000   0.00000   0.00000   0.00000
Generated with MDTraj, t= 1.0
 49
    1UNL     C1    1  -0.283   0.131   0.301
    1UNL     C2    2  -0.264  -0.009   0.256
    1UNL     C3    3  -0.214  -0.040   0.136
    1UNL     C4    4  -0.222  -0.179   0.081
    1UNL     N1    5  -0.173  -0.180  -0.064
    1UNL     C5    6  -0.262  -0.262  -0.152
    1UNL     C6    7  -0.032  -0.224  -0.077
    1UNL     C7    8   0.068  -0.149   0.005
    1UNL     C8    9   0.090   0.004  -0.035
    1UNL     C9   10   0.237   0.038  -0.027
    1UNL    C10   11   0.302   0.077   0.086
    1UNL    C11   12   0.437   0.112   0.067
    1UNL    C12   13   0.492   0.123  -0.061
    1UNL    C13   14   0.420   0.096  -0.177
    1UNL    C14   15   0.289   0.054  -0.154
    1UNL     N2   16   0.186   0.038  -0.253
    1UNL    C15   17   0.054   0.062  -0.179
    1UNL     O1   18   0.040   0.207  -0.156
    1UNL    C16   19   0.009   0.231  -0.021
    1UNL    C17   20  -0.007   0.094   0.045
    1UNL    C18   21   0.021   0.117   0.194
    1UNL     O2   22  -0.022   0.222   0.243
    1UNL     O3   23   0.079   0.024   0.252
    1UNL    C19   24  -0.161   0.048   0.029
    1UNL    C20   25  -0.180  -0.032  -0.107
    1UNL    C21   26  -0.080  -0.005  -0.222
    1UNL     O4   27  -0.100  -0.033  -0.335
    1UNL     H1   28  -0.262   0.154   0.407
    1UNL     H2   29  -0.388   0.162   0.306
    1UNL     H3   30  -0.203   0.187   0.250
    1UNL     H4   31  -0.290  -0.093   0.318
    1UNL     H5   32  -0.175  -0.254   0.145
    1UNL     H6   33  -0.326  -0.214   0.073
    1UNL     H7   34  -0.360  -0.212  -0.166
    1UNL     H8   35  -0.229  -0.295  -0.243
    1UNL     H9   36  -0.269  -0.363  -0.099
    1UNL    H10   37  -0.024  -0.328  -0.046
    1UNL    H11   38  -0.001  -0.222  -0.183
    1UNL    H12   39   0.163  -0.200  -0.014
    1UNL    H13   40   0.057  -0.149   0.109
    1UNL    H14   41   0.258   0.048   0.179
    1UNL    H15   42   0.513   0.143   0.139
    1UNL    H16   43   0.598   0.143  -0.082
    1UNL    H17   44   0.474   0.082  -0.272
    1UNL    H18   45   0.187   0.105  -0.331
    1UNL    H19   46  -0.084   0.288  -0.022
    1UNL    H20   47   0.092   0.289   0.012
    1UNL    H21   48  -0.226   0.135   0.043
    1UNL    H22   49  -0.280  -0.017  -0.148
   0.00000   0.00000   0.00000   0.00000   0.00000   0.00000   0.00000   0.00000   0.00000
Generated with MDTraj, t= 2.0
 49
    1UNL     C1    1  -0.284   0.135   0.298
    1UNL     C2    2  -0.284  -0.008   0.247
    1UNL     C3    3  -0.225  -0.049   0.135
    1UNL     C4    4  -0.213  -0.182   0.071
    1UNL     N1    5  -0.166  -0.181  -0.066
    1UNL     C5    6  -0.256  -0.252  -0.161
    1UNL     C6    7  -0.023  -0.217  -0.080
    1UNL     C7    8   0.068  -0.143   0.015
    1UNL     C8    9   0.082   0.010  -0.021
    1UNL     C9   10   0.235   0.055  -0.021
    1UNL    C10   11   0.324   0.083   0.086
    1UNL    C11   12   0.457   0.111   0.056
    1UNL    C12   13   0.504   0.111  -0.079
    1UNL    C13   14   0.410   0.094  -0.182
    1UNL    C14   15   0.282   0.060  -0.156
    1UNL     N2   16   0.174   0.026  -0.242
    1UNL    C15   17   0.053   0.062  -0.169
    1UNL     O1   18   0.034   0.207  -0.157
    1UNL    C16   19  -0.008   0.236  -0.018
    1UNL    C17   20  -0.021   0.106   0.054
    1UNL    C18   21   0.018   0.111   0.197
    1UNL     O2   22   0.009   0.222   0.250
    1UNL     O3   23   0.067   0.010   0.250
    1UNL    C19   24  -0.169   0.052   0.029
    1UNL    C20   25  -0.185  -0.030  -0.110
    1UNL    C21   26  -0.078  -0.006  -0.215
    1UNL     O4   27  -0.087  -0.055  -0.326
    1UNL     H1   28  -0.333   0.165   0.393
    1UNL     H2   29  -0.330   0.208   0.234
    1UNL     H3   30  -0.177   0.145   0.311
    1UNL     H4   31  -0.337  -0.080   0.310
    1UNL     H5   32  -0.153  -0.255   0.125
    1UNL     H6   33  -0.312  -0.229   0.069
    1UNL     H7   34  -0.365  -0.244  -0.138
    1UNL     H8   35  -0.247  -0.222  -0.258
    1UNL     H9   36  -0.218  -0.355  -0.184
    1UNL    H10   37  -0.013  -0.323  -0.063
    1UNL    H11   38   0.007  -0.194  -0.183
    1UNL    H12   39   0.171  -0.179   0.008
    1UNL    H13   40   0.041  -0.151   0.114
    1UNL    H14   41   0.290   0.087   0.192
    1UNL    H15   42   0.515   0.132   0.144
    1UNL    H16   43   0.603   0.147  -0.099
    1UNL    H17   44   0.442   0.081  -0.281
    1UNL    H18   45   0.182   0.079  -0.332
    1UNL    H19   46  -0.097   0.299  -0.022
    1UNL    H20   47   0.073   0.293   0.017
    1UNL    H21   48  -0.234   0.139   0.012
    1UNL    H22   49  -0.280  -0.015  -0.162
   0.00000   0.00000   0.00000   0.00000   0.00000   0.00000   0.00000   0.00000   0.00000
Generated with MDTraj, t= 3.0
 49
    1UNL     C1    1  -0.271   0.136   0.304
    1UNL     C2    2  -0.265   0.002   0.249
    1UNL     C3    3  -0.223  -0.030   0.129
    1UNL     C4    4  -0.218  -0.177   0.081
    1UNL     N1    5  -0.163  -0.183  -0.064
    1UNL     C5    6  -0.254  -0.267  -0.152
    1UNL     C6    7  -0.020  -0.227  -0.073
    1UNL     C7    8   0.077  -0.144   0.010
    1UNL     C8    9   0.090   0.015  -0.026
    1UNL     C9   10   0.233   0.061  -0.022
    1UNL    C10   11   0.318   0.071   0.086
    1UNL    C11   12   0.456   0.089   0.064
    1UNL    C12   13   0.499   0.102  -0.071
    1UNL    C13   14   0.419   0.090  -0.183
    1UNL    C14   15   0.282   0.079  -0.155
    1UNL     N2   16   0.176   0.057  -0.249
    1UNL    C15   17   0.044   0.062  -0.176
    1UNL     O1   18   0.006   0.206  -0.160
    1UNL    C16   19   0.005   0.232  -0.016
    1UNL    C17   20  -0.016   0.100   0.050
    1UNL    C18   21   0.013   0.110   0.197
    1UNL     O2   22   0.000   0.226   0.246
    1UNL     O3   23   0.039   0.006   0.261
    1UNL    C19   24  -0.160   0.047   0.020
    1UNL    C20   25  -0.174  -0.040  -0.116
    1UNL    C21   26  -0.073  -0.010  -0.222
    1UNL     O4   27  -0.090  -0.042  -0.338
    1UNL     H1   28  -0.370   0.168   0.341
    1UNL     H2   29  -0.218   0.210   0.249
    1UNL     H3   30  -0.221   0.125   0.401
    1UNL     H4   31  -0.288  -0.079   0.314
    1UNL     H5   32  -0.151  -0.234   0.144
    1UNL     H6   33  -0.309  -0.239   0.088
    1UNL     H7   34  -0.353  -0.224  -0.150
    1UNL     H8   35  -0.238  -0.304  -0.252
    1UNL     H9   36  -0.262  -0.366  -0.099
    1UNL    H10   37  -0.015  -0.333  -0.050
    1UNL    H11   38   0.001  -0.211  -0.182
    1UNL    H12   39   0.176  -0.186  -0.014
    1UNL    H13   40   0.065  -0.164   0.110
    1UNL    H14   41   0.266   0.082   0.176
    1UNL    H15   42   0.522   0.122   0.144
    1UNL    H16   43   0.604   0.128  -0.095
    1UNL    H17   44   0.445   0.121  -0.287
    1UNL    H18   45   0.175   0.112  -0.338
    1UNL    H19   46  -0.071   0.305   0.012
    1UNL    H20   47   0.095   0.281   0.003
    1UNL    H21   48  -0.223   0.137   0.018
    1UNL    H22   49  -0.274  -0.034  -0.160
   0.00000   0.00000   0.00000   0.00000   0.00000   0.00000   0.00000   0.00000   0.00000
Generated with MDTraj, t= 4.0
 49
    1UNL     C1    1  -0.284   0.134   0.297
    1UNL     C2    2  -0.258  -0.003   0.253
    1UNL     C3    3  -0.209  -0.045   0.134
    1UNL     C4    4  -0.214  -0.181   0.079
    1UNL     N1    5  -0.168  -0.184  -0.059
    1UNL     C5    6  -0.259  -0.264  -0.152
    1UNL     C6    7  -0.021  -0.228  -0.085
    1UNL     C7    8   0.074  -0.137  -0.004
    1UNL     C8    9   0.083   0.015  -0.028
    1UNL     C9   10   0.230   0.053  -0.024
    1UNL    C10   11   0.309   0.055   0.090
    1UNL    C11   12   0.443   0.091   0.073
    1UNL    C12   13   0.500   0.112  -0.057
    1UNL    C13   14   0.417   0.094  -0.172
    1UNL    C14   15   0.280   0.066  -0.152
    1UNL     N2   16   0.181   0.049  -0.247
    1UNL    C15   17   0.050   0.070  -0.174
    1UNL     O1   18   0.016   0.210  -0.166
    1UNL    C16   19  -0.011   0.237  -0.033
    1UNL    C17   20  -0.015   0.107   0.050
    1UNL    C18   21   0.022   0.116   0.195
    1UNL     O2   22   0.010   0.228   0.246
    1UNL     O3   23   0.069   0.013   0.245
    1UNL    C19   24  -0.161   0.047   0.022
    1UNL    C20   25  -0.181  -0.037  -0.107
    1UNL    C21   26  -0.083  -0.010  -0.218
    1UNL     O4   27  -0.092  -0.046  -0.329
    1UNL     H1   28  -0.374   0.151   0.362
    1UNL     H2   29  -0.268   0.195   0.211
    1UNL     H3   30  -0.220   0.163   0.380
    1UNL     H4   31  -0.264  -0.072   0.340
    1UNL     H5   32  -0.159  -0.250   0.144
    1UNL     H6   33  -0.315  -0.221   0.077
    1UNL     H7   34  -0.362  -0.242  -0.167
    1UNL     H8   35  -0.228  -0.250  -0.258
    1UNL     H9   36  -0.263  -0.371  -0.124
    1UNL    H10   37  -0.023  -0.327  -0.045
    1UNL    H11   38  -0.010  -0.230  -0.198
    1UNL    H12   39   0.173  -0.182  -0.015
    1UNL    H13   40   0.061  -0.150   0.101
    1UNL    H14   41   0.267   0.064   0.194
    1UNL    H15   42   0.509   0.112   0.155
    1UNL    H16   43   0.602   0.141  -0.067
    1UNL    H17   44   0.438   0.113  -0.272
    1UNL    H18   45   0.179   0.107  -0.332
    1UNL    H19   46  -0.090   0.313  -0.038
    1UNL    H20   47   0.069   0.291   0.007
    1UNL    H21   48  -0.233   0.130   0.025
    1UNL    H22   49  -0.281  -0.016  -0.147
   0.00000   0.00000   0.00000   0.00000   0.00000   0.00000   0.00000   0.00000   0.00000
Generated with MDTraj, t= 5.0
 49
    1UNL     C1    1  -0.278   0.126   0.314
    1UNL     C2    2  -0.281  -0.008   0.248
    1UNL     C3    3  -0.223  -0.044   0.137
    1UNL     C4    4  -0.226  -0.183   0.077
    1UNL     N1    5  -0.172  -0.180  -0.070
    1UNL     C5    6  -0.259  -0.261  -0.163
    1UNL     C6    7  -0.024  -0.226  -0.087
    1UNL     C7    8   0.077  -0.143  -0.004
    1UNL     C8    9   0.087   0.012  -0.028
    1UNL     C9   10   0.237   0.050  -0.022
    1UNL    C10   11   0.317   0.070   0.085
    1UNL    C11   12   0.450   0.114   0.061
    1UNL    C12   13   0.497   0.123  -0.074
    1UNL    C13   14   0.413   0.091  -0.177
    1UNL    C14   15   0.284   0.045  -0.152
    1UNL     N2   16   0.175   0.028  -0.244
    1UNL    C15   17   0.052   0.064  -0.173
    1UNL     O1   18   0.036   0.210  -0.162
    1UNL    C16   19  -0.001   0.238  -0.033
    1UNL    C17   20  -0.019   0.103   0.052
    1UNL    C18   21   0.018   0.121   0.205
    1UNL     O2   22  -0.010   0.233   0.256
    1UNL     O3   23   0.074   0.017   0.253
    1UNL    C19   24  -0.168   0.047   0.030
    1UNL    C20   25  -0.176  -0.025  -0.110
    1UNL    C21   26  -0.068  -0.005  -0.215
    1UNL     O4   27  -0.086  -0.048  -0.324
    1UNL     H1   28  -0.252   0.121   0.421
    1UNL     H2   29  -0.364   0.185   0.294
    1UNL     H3   30  -0.201   0.192   0.279
    1UNL     H4   31  -0.307  -0.089   0.310
    1UNL     H5   32  -0.162  -0.254   0.133
    1UNL     H6   33  -0.326  -0.223   0.083
    1UNL     H7   34  -0.363  -0.241  -0.145
    1UNL     H8   35  -0.271  -0.229  -0.275
    1UNL     H9   36  -0.263  -0.367  -0.141
    1UNL    H10   37  -0.030  -0.330  -0.062
    1UNL    H11   38  -0.012  -0.218  -0.199
    1UNL    H12   39   0.172  -0.191  -0.023
    1UNL    H13   40   0.066  -0.157   0.105
    1UNL    H14   41   0.276   0.050   0.179
    1UNL    H15   42   0.507   0.120   0.155
    1UNL    H16   43   0.603   0.143  -0.094
    1UNL    H17   44   0.455   0.067  -0.278
    1UNL    H18   45   0.193   0.075  -0.330
    1UNL    H19   46  -0.096   0.294  -0.035
    1UNL    H20   47   0.058   0.313   0.013
    1UNL    H21   48  -0.229   0.138   0.014
    1UNL    H22   49  -0.271  -0.009  -0.161
   0.00000   0.00000   0.00000   0.00000   0.00000   0.00000   0.00000   0.00000   0.00000
Generated with MDTraj, t= 6.0
 49
    1UNL     C1    1  -0.275   0.126   0.304
    1UNL     C2    2  -0.276  -0.010   0.244
    1UNL     C3    3  -0.214  -0.040   0.131
    1UNL     C4    4  -0.229  -0.185   0.077
    1UNL     N1    5  -0.173  -0.181  -0.066
    1UNL     C5    6  -0.257  -0.260  -0.162
    1UNL     C6    7  -0.018  -0.231  -0.075
    1UNL     C7    8   0.076  -0.140   0.009
    1UNL     C8    9   0.091   0.010  -0.019
    1UNL     C9   10   0.235   0.048  -0.022
    1UNL    C10   11   0.313   0.086   0.081
    1UNL    C11   12   0.447   0.116   0.059
    1UNL    C12   13   0.496   0.118  -0.072
    1UNL    C13   14   0.414   0.085  -0.181
    1UNL    C14   15   0.283   0.045  -0.156
    1UNL     N2   16   0.180   0.032  -0.244
    1UNL    C15   17   0.058   0.061  -0.172
    1UNL     O1   18   0.030   0.203  -0.168
    1UNL    C16   19   0.015   0.232  -0.025
    1UNL    C17   20  -0.009   0.102   0.057
    1UNL    C18   21   0.021   0.122   0.208
    1UNL     O2   22  -0.019   0.228   0.259
    1UNL     O3   23   0.062   0.017   0.264
    1UNL    C19   24  -0.162   0.049   0.020
    1UNL    C20   25  -0.172  -0.033  -0.112
    1UNL    C21   26  -0.076  -0.006  -0.222
    1UNL     O4   27  -0.105  -0.027  -0.341
    1UNL     H1   28  -0.174   0.166   0.327
    1UNL     H2   29  -0.321   0.130   0.399
    1UNL     H3   30  -0.330   0.191   0.239
    1UNL     H4   31  -0.296  -0.094   0.315
    1UNL     H5   32  -0.187  -0.265   0.140
    1UNL     H6   33  -0.332  -0.207   0.057
    1UNL     H7   34  -0.360  -0.239  -0.182
    1UNL     H8   35  -0.220  -0.245  -0.273
    1UNL     H9   36  -0.259  -0.362  -0.135
    1UNL    H10   37  -0.024  -0.330  -0.034
    1UNL    H11   38   0.005  -0.230  -0.185
    1UNL    H12   39   0.174  -0.182   0.006
    1UNL    H13   40   0.039  -0.152   0.117
    1UNL    H14   41   0.270   0.052   0.180
    1UNL    H15   42   0.511   0.153   0.136
    1UNL    H16   43   0.600   0.124  -0.091
    1UNL    H17   44   0.443   0.065  -0.279
    1UNL    H18   45   0.182   0.076  -0.333
    1UNL    H19   46  -0.058   0.314   0.001
    1UNL    H20   47   0.098   0.285   0.016
    1UNL    H21   48  -0.219   0.143   0.021
    1UNL    H22   49  -0.274  -0.013  -0.148
   0.00000   0.00000   0.00000   0.00000   0.00000   0.00000   0.00000   0.00000   0.00000
Generated with MDTraj, t= 7.0
 49
    1UNL     C1    1  -0.299   0.124   0.291
    1UNL     C2    2  -0.271  -0.016   0.246
    1UNL     C3    3  -0.208  -0.051   0.136
    1UNL     C4    4  -0.208  -0.189   0.087
    1UNL     N1    5  -0.169  -0.183  -0.066
    1UNL     C5    6  -0.265  -0.255  -0.148
    1UNL     C6    7  -0.020  -0.226  -0.078
    1UNL     C7    8   0.074  -0.138  -0.006
    1UNL     C8    9   0.082   0.015  -0.031
    1UNL     C9   10   0.231   0.061  -0.019
    1UNL    C10   11   0.314   0.071   0.095
    1UNL    C11   12   0.451   0.097   0.073
    1UNL    C12   13   0.500   0.103  -0.060
    1UNL    C13   14   0.415   0.090  -0.172
    1UNL    C14   15   0.283   0.058  -0.147
    1UNL     N2   16   0.178   0.043  -0.241
    1UNL    C15   17   0.049   0.064  -0.170
    1UNL     O1   18   0.028   0.204  -0.170
    1UNL    C16   19  -0.012   0.240  -0.033
    1UNL    C17   20  -0.019   0.104   0.054
    1UNL    C18   21   0.026   0.121   0.197
    1UNL     O2   22   0.028   0.235   0.244
    1UNL     O3   23   0.064   0.013   0.243
    1UNL    C19   24  -0.168   0.046   0.026
    1UNL    C20   25  -0.181  -0.029  -0.109
    1UNL    C21   26  -0.079  -0.002  -0.223
    1UNL     O4   27  -0.096  -0.038  -0.336
    1UNL     H1   28  -0.208   0.182   0.313
    1UNL     H2   29  -0.342   0.118   0.389
    1UNL     H3   30  -0.365   0.157   0.211
    1UNL     H4   31  -0.279  -0.081   0.327
    1UNL     H5   32  -0.134  -0.251   0.139
    1UNL     H6   33  -0.309  -0.224   0.102
    1UNL     H7   34  -0.360  -0.212  -0.126
    1UNL     H8   35  -0.247  -0.250  -0.262
    1UNL     H9   36  -0.284  -0.359  -0.131
    1UNL    H10   37  -0.016  -0.329  -0.046
    1UNL    H11   38   0.002  -0.213  -0.188
    1UNL    H12   39   0.173  -0.179  -0.007
    1UNL    H13   40   0.033  -0.139   0.104
    1UNL    H14   41   0.278   0.083   0.193
    1UNL    H15   42   0.520   0.114   0.157
    1UNL    H16   43   0.602   0.141  -0.077
    1UNL    H17   44   0.447   0.106  -0.276
    1UNL    H18   45   0.177   0.069  -0.339
    1UNL    H19   46  -0.104   0.309  -0.039
    1UNL    H20   47   0.050   0.316   0.011
    1UNL    H21   48  -0.226   0.139   0.012
    1UNL    H22   49  -0.284  -0.015  -0.143
   0.00000   0.00000   0.00000   0.00000   0.00000   0.00000   0.00000   0.00000   0.00000
Generated with MDTraj, t= 8.0
 49
    1UNL     C1    1  -0.272   0.144   0.306
    1UNL     C2    2  -0.277   0.002   0.246
    1UNL     C3    3  -0.224  -0.031   0.133
    1UNL     C4    4  -0.206  -0.181   0.087
    1UNL     N1    5  -0.171  -0.178  -0.072
    1UNL     C5    6  -0.250  -0.269  -0.153
    1UNL     C6    7  -0.018  -0.232  -0.085
    1UNL     C7    8   0.086  -0.147  -0.008
    1UNL     C8    9   0.088   0.012  -0.023
    1UNL     C9   10   0.232   0.054  -0.022
    1UNL    C10   11   0.316   0.056   0.089
    1UNL    C11   12   0.450   0.085   0.064
    1UNL    C12   13   0.497   0.106  -0.067
    1UNL    C13   14   0.412   0.092  -0.172
    1UNL    C14   15   0.278   0.066  -0.155
    1UNL     N2   16   0.176   0.061  -0.251
    1UNL    C15   17   0.051   0.071  -0.174
    1UNL     O1   18   0.015   0.211  -0.156
    1UNL    C16   19  -0.008   0.236  -0.019
    1UNL    C17   20  -0.023   0.095   0.051
    1UNL    C18   21   0.013   0.112   0.197
    1UNL     O2   22   0.010   0.232   0.239
    1UNL     O3   23   0.046   0.012   0.262
    1UNL    C19   24  -0.169   0.050   0.025
    1UNL    C20   25  -0.174  -0.033  -0.111
    1UNL    C21   26  -0.074  -0.008  -0.224
    1UNL     O4   27  -0.085  -0.057  -0.331
    1UNL     H1   28  -0.176   0.191   0.331
    1UNL     H2   29  -0.306   0.151   0.409
    1UNL     H3   30  -0.336   0.204   0.242
    1UNL     H4   31  -0.303  -0.090   0.307
    1UNL     H5   32  -0.128  -0.234   0.143
    1UNL     H6   33  -0.303  -0.228   0.089
    1UNL     H7   34  -0.357  -0.265  -0.142
    1UNL     H8   35  -0.214  -0.273  -0.261
    1UNL     H9   36  -0.228  -0.374  -0.139
    1UNL    H10   37  -0.010  -0.338  -0.060
    1UNL    H11   38   0.004  -0.222  -0.194
    1UNL    H12   39   0.184  -0.169  -0.043
    1UNL    H13   40   0.084  -0.165   0.107
    1UNL    H14   41   0.265   0.067   0.186
    1UNL    H15   42   0.509   0.109   0.149
    1UNL    H16   43   0.600   0.123  -0.090
    1UNL    H17   44   0.447   0.129  -0.267
    1UNL    H18   45   0.188   0.106  -0.343
    1UNL    H19   46  -0.097   0.308  -0.001
    1UNL    H20   47   0.072   0.305   0.014
    1UNL    H21   48  -0.221   0.147   0.008
    1UNL    H22   49  -0.274  -0.016  -0.153
   0.00000   0.00000   0.00000   0.00000   0.00000   0.00000   0.00000   0.00000   0.00000
Generated with MDTraj, t= 9.0
 49
    1UNL     C1    1  -0.282   0.135   0.299
    1UNL     C2    2  -0.269  -0.002   0.240
    1UNL     C3    3  -0.215  -0.042   0.128
    1UNL     C4    4  -0.226  -0.177   0.078
    1UNL     N1    5  -0.176  -0.178  -0.068
    1UNL     C5    6  -0.248  -0.270  -0.155
    1UNL     C6    7  -0.031  -0.226  -0.073
    1UNL     C7    8   0.068  -0.142   0.012
    1UNL     C8    9   0.086   0.010  -0.030
    1UNL     C9   10   0.238   0.052  -0.025
    1UNL    C10   11   0.326   0.070   0.084
    1UNL    C11   12   0.455   0.105   0.059
    1UNL    C12   13   0.503   0.117  -0.070
    1UNL    C13   14   0.416   0.098  -0.181
    1UNL    C14   15   0.285   0.065  -0.159
    1UNL     N2   16   0.182   0.049  -0.250
    1UNL    C15   17   0.048   0.065  -0.172
    1UNL     O1   18   0.026   0.208  -0.158
    1UNL    C16   19  -0.005   0.239  -0.020
    1UNL    C17   20  -0.011   0.104   0.053
    1UNL    C18   21   0.022   0.109   0.199
    1UNL     O2   22  -0.003   0.219   0.253
    1UNL     O3   23   0.059   0.005   0.255
    1UNL    C19   24  -0.162   0.052   0.023
    1UNL    C20   25  -0.177  -0.030  -0.109
    1UNL    C21   26  -0.077  -0.011  -0.213
    1UNL     O4   27  -0.095  -0.055  -0.326
    1UNL     H1   28  -0.250   0.149   0.401
    1UNL     H2   29  -0.385   0.169   0.312
    1UNL     H3   30  -0.249   0.211   0.226
    1UNL     H4   31  -0.297  -0.079   0.304
    1UNL     H5   32  -0.166  -0.243   0.141
    1UNL     H6   33  -0.334  -0.195   0.079
    1UNL     H7   34  -0.352  -0.229  -0.158
    1UNL     H8   35  -0.204  -0.264  -0.253
    1UNL     H9   36  -0.273  -0.377  -0.149
    1UNL    H10   37  -0.030  -0.330  -0.038
    1UNL    H11   38   0.008  -0.223  -0.176
    1UNL    H12   39   0.166  -0.186   0.005
    1UNL    H13   40   0.031  -0.135   0.121
    1UNL    H14   41   0.280   0.063   0.182
    1UNL    H15   42   0.529   0.125   0.138
    1UNL    H16   43   0.612   0.117  -0.083
    1UNL    H17   44   0.446   0.091  -0.283
    1UNL    H18   45   0.179   0.118  -0.329
    1UNL    H19   46  -0.088   0.319  -0.030
    1UNL    H20   47   0.081   0.298   0.013
    1UNL    H21   48  -0.228   0.141   0.031
    1UNL    H22   49  -0.280  -0.009  -0.143
   0.00000   0.00000   0.00000   0.00000   0.00000   0.00000   0.00000   0.00000   0.00000
Generated with MDTraj, t= 10.0
 49
    1UNL     C1    1  -0.294   0.127   0.298
    1UNL     C2    2  -0.273  -0.017   0.246
    1UNL     C3    3  -0.208  -0.043   0.133
    1UNL     C4    4  -0.207  -0.185   0.075
    1UNL     N1    5  -0.174  -0.174  -0.071
    1UNL     C5    6  -0.280  -0.252  -0.151
    1UNL     C6    7  -0.034  -0.232  -0.080
    1UNL     C7    8   0.067  -0.149   0.001
    1UNL     C8    9   0.091   0.007  -0.025
    1UNL     C9   10   0.238   0.044  -0.021
    1UNL    C10   11   0.311   0.084   0.087
    1UNL    C11   12   0.444   0.121   0.062
    1UNL    C12   13   0.495   0.118  -0.069
    1UNL    C13   14   0.414   0.099  -0.178
    1UNL    C14   15   0.287   0.053  -0.148
    1UNL     N2   16   0.180   0.030  -0.241
    1UNL    C15   17   0.050   0.055  -0.171
    1UNL     O1   18   0.041   0.204  -0.160
    1UNL    C16   19   0.005   0.231  -0.024
    1UNL    C17   20  -0.006   0.098   0.051
    1UNL    C18   21   0.024   0.116   0.197
    1UNL     O2   22  -0.008   0.225   0.250
    1UNL     O3   23   0.089   0.025   0.256
    1UNL    C19   24  -0.159   0.052   0.027
    1UNL    C20   25  -0.181  -0.030  -0.111
    1UNL    C21   26  -0.084  -0.007  -0.218
    1UNL     O4   27  -0.097  -0.035  -0.334
    1UNL     H1   28  -0.386   0.132   0.352
    1UNL     H2   29  -0.300   0.190   0.208
    1UNL     H3   30  -0.207   0.164   0.352
    1UNL     H4   31  -0.299  -0.103   0.313
    1UNL     H5   32  -0.136  -0.247   0.124
    1UNL     H6   33  -0.309  -0.225   0.084
    1UNL     H7   34  -0.390  -0.233  -0.130
    1UNL     H8   35  -0.265  -0.256  -0.254
    1UNL     H9   36  -0.292  -0.356  -0.115
    1UNL    H10   37  -0.029  -0.340  -0.060
    1UNL    H11   38  -0.003  -0.218  -0.184
    1UNL    H12   39   0.161  -0.200  -0.012
    1UNL    H13   40   0.033  -0.150   0.108
    1UNL    H14   41   0.267   0.070   0.182
    1UNL    H15   42   0.505   0.146   0.144
    1UNL    H16   43   0.599   0.140  -0.083
    1UNL    H17   44   0.476   0.069  -0.265
    1UNL    H18   45   0.187   0.083  -0.330
    1UNL    H19   46  -0.096   0.287  -0.037
    1UNL    H20   47   0.070   0.313   0.012
    1UNL    H21   48  -0.218   0.145   0.010
    1UNL    H22   49  -0.285  -0.022  -0.149
   0.00000   0.00000   0.00000   0.00000   0.00000   0.00000   0.00000   0.00000   0.00000
Generated with MDTraj, t= 11.0
 49
    1UNL     C1    1  -0.276   0.134   0.322
    1UNL     C2    2  -0.272   0.003   0.249
    1UNL     C3    3  -0.219  -0.029   0.132
    1UNL     C4    4  -0.211  -0.174   0.078
    1UNL     N1    5  -0.159  -0.175  -0.068
    1UNL     C5    6  -0.245  -0.263  -0.162
    1UNL     C6    7  -0.022  -0.222  -0.070
    1UNL     C7    8   0.077  -0.149   0.004
    1UNL     C8    9   0.085   0.002  -0.022
    1UNL     C9   10   0.229   0.053  -0.021
    1UNL    C10   11   0.312   0.083   0.087
    1UNL    C11   12   0.445   0.103   0.062
    1UNL    C12   13   0.494   0.112  -0.068
    1UNL    C13   14   0.409   0.091  -0.179
    1UNL    C14   15   0.278   0.054  -0.157
    1UNL     N2   16   0.177   0.030  -0.250
    1UNL    C15   17   0.053   0.058  -0.174
    1UNL     O1   18   0.035   0.205  -0.162
    1UNL    C16   19  -0.000   0.226  -0.023
    1UNL    C17   20  -0.015   0.094   0.050
    1UNL    C18   21   0.019   0.112   0.195
    1UNL     O2   22  -0.018   0.218   0.251
    1UNL     O3   23   0.073   0.018   0.257
    1UNL    C19   24  -0.165   0.050   0.023
    1UNL    C20   25  -0.176  -0.036  -0.119
    1UNL    C21   26  -0.077  -0.007  -0.224
    1UNL     O4   27  -0.103  -0.027  -0.336
    1UNL     H1   28  -0.366   0.185   0.291
    1UNL     H2   29  -0.191   0.197   0.296
    1UNL     H3   30  -0.297   0.129   0.430
    1UNL     H4   31  -0.298  -0.080   0.308
    1UNL     H5   32  -0.143  -0.224   0.142
    1UNL     H6   33  -0.307  -0.224   0.089
    1UNL     H7   34  -0.359  -0.266  -0.145
    1UNL     H8   35  -0.245  -0.223  -0.258
    1UNL     H9   36  -0.232  -0.372  -0.158
    1UNL    H10   37  -0.024  -0.327  -0.033
    1UNL    H11   38   0.000  -0.239  -0.175
    1UNL    H12   39   0.177  -0.180  -0.027
    1UNL    H13   40   0.064  -0.160   0.111
    1UNL    H14   41   0.277   0.074   0.192
    1UNL    H15   42   0.500   0.143   0.149
    1UNL    H16   43   0.598   0.137  -0.085
    1UNL    H17   44   0.448   0.085  -0.276
    1UNL    H18   45   0.168   0.088  -0.334
    1UNL    H19   46  -0.089   0.302  -0.014
    1UNL    H20   47   0.083   0.288   0.010
    1UNL    H21   48  -0.228   0.142   0.016
    1UNL    H22   49  -0.275  -0.010  -0.164
   0.00000   0.00000   0.00000   0.00000   0.00000   0.00000   0.00000   0.00000   0.00000
Generated with MDTraj, t= 12.0
 49
    1UNL     C1    1  -0.291   0.125   0.294
    1UNL     C2    2  -0.277  -0.009   0.247
    1UNL     C3    3  -0.212  -0.051   0.136
    1UNL     C4    4  -0.215  -0.189   0.077
    1UNL     N1    5  -0.171  -0.189  -0.067
    1UNL     C5    6  -0.259  -0.261  -0.158
    1UNL     C6    7  -0.029  -0.222  -0.079
    1UNL     C7    8   0.072  -0.135   0.007
    1UNL     C8    9   0.087   0.024  -0.027
    1UNL     C9   10   0.233   0.059  -0.020
    1UNL    C10   11   0.326   0.065   0.081
    1UNL    C11   12   0.461   0.089   0.052
    1UNL    C12   13   0.510   0.101  -0.074
    1UNL    C13   14   0.419   0.084  -0.178
    1UNL    C14   15   0.281   0.063  -0.152
    1UNL     N2   16   0.174   0.054  -0.241
    1UNL    C15   17   0.041   0.072  -0.170
    1UNL     O1   18   0.018   0.214  -0.160
    1UNL    C16   19  -0.024   0.242  -0.024
    1UNL    C17   20  -0.018   0.109   0.054
    1UNL    C18   21   0.020   0.119   0.199
    1UNL     O2   22   0.027   0.233   0.250
    1UNL     O3   23   0.049   0.014   0.260
    1UNL    C19   24  -0.158   0.043   0.027
    1UNL    C20   25  -0.172  -0.034  -0.111
    1UNL    C21   26  -0.073  -0.005  -0.216
    1UNL     O4   27  -0.087  -0.057  -0.324
    1UNL     H1   28  -0.320   0.182   0.206
    1UNL     H2   29  -0.202   0.176   0.336
    1UNL     H3   30  -0.387   0.155   0.340
    1UNL     H4   31  -0.305  -0.079   0.327
    1UNL     H5   32  -0.153  -0.244   0.143
    1UNL     H6   33  -0.315  -0.229   0.093
    1UNL     H7   34  -0.358  -0.229  -0.204
    1UNL     H8   35  -0.210  -0.274  -0.251
    1UNL     H9   36  -0.279  -0.354  -0.103
    1UNL    H10   37  -0.021  -0.333  -0.066
    1UNL    H11   38   0.000  -0.213  -0.182
    1UNL    H12   39   0.168  -0.181  -0.019
    1UNL    H13   40   0.056  -0.145   0.110
    1UNL    H14   41   0.291   0.087   0.176
    1UNL    H15   42   0.532   0.112   0.128
    1UNL    H16   43   0.611   0.134  -0.087
    1UNL    H17   44   0.448   0.106  -0.284
    1UNL    H18   45   0.181   0.122  -0.315
    1UNL    H19   46  -0.126   0.300  -0.030
    1UNL    H20   47   0.044   0.317   0.011
    1UNL    H21   48  -0.226   0.132   0.024
    1UNL    H22   49  -0.276  -0.014  -0.145
   0.00000   0.00000   0.00000   0.00000   0.00000   0.00000   0.00000   0.00000   0.00000
Generated with MDTraj, t= 13.0
 49
    1UNL     C1    1  -0.269   0.129   0.313
    1UNL     C2    2  -0.275  -0.003   0.244
    1UNL     C3    3  -0.214  -0.034   0.131
    1UNL     C4    4  -0.209  -0.180   0.082
    1UNL     N1    5  -0.160  -0.188  -0.071
    1UNL     C5    6  -0.247  -0.275  -0.148
    1UNL     C6    7  -0.020  -0.224  -0.081
    1UNL     C7    8   0.076  -0.129   0.001
    1UNL     C8    9   0.084   0.017  -0.032
    1UNL     C9   10   0.230   0.051  -0.023
    1UNL    C10   11   0.315   0.051   0.085
    1UNL    C11   12   0.449   0.084   0.062
    1UNL    C12   13   0.494   0.103  -0.069
    1UNL    C13   14   0.415   0.094  -0.174
    1UNL    C14   15   0.279   0.069  -0.151
    1UNL     N2   16   0.178   0.059  -0.250
    1UNL    C15   17   0.046   0.073  -0.183
    1UNL     O1   18   0.011   0.214  -0.166
    1UNL    C16   19   0.004   0.242  -0.027
    1UNL    C17   20  -0.012   0.108   0.047
    1UNL    C18   21   0.015   0.120   0.199
    1UNL     O2   22   0.023   0.232   0.257
    1UNL     O3   23   0.029   0.011   0.260
    1UNL    C19   24  -0.160   0.048   0.029
    1UNL    C20   25  -0.179  -0.036  -0.112
    1UNL    C21   26  -0.082  -0.011  -0.222
    1UNL     O4   27  -0.095  -0.057  -0.333
    1UNL     H1   28  -0.335   0.186   0.249
    1UNL     H2   29  -0.166   0.173   0.312
    1UNL     H3   30  -0.332   0.130   0.404
    1UNL     H4   31  -0.302  -0.090   0.301
    1UNL     H5   32  -0.155  -0.237   0.156
    1UNL     H6   33  -0.303  -0.231   0.094
    1UNL     H7   34  -0.357  -0.261  -0.138
    1UNL     H8   35  -0.243  -0.262  -0.255
    1UNL     H9   36  -0.213  -0.376  -0.123
    1UNL    H10   37  -0.008  -0.325  -0.034
    1UNL    H11   38   0.007  -0.235  -0.183
    1UNL    H12   39   0.176  -0.174  -0.005
    1UNL    H13   40   0.043  -0.135   0.098
    1UNL    H14   41   0.275   0.064   0.189
    1UNL    H15   42   0.518   0.086   0.147
    1UNL    H16   43   0.599   0.120  -0.079
    1UNL    H17   44   0.458   0.124  -0.264
    1UNL    H18   45   0.188   0.111  -0.334
    1UNL    H19   46  -0.085   0.313  -0.012
    1UNL    H20   47   0.084   0.302   0.005
    1UNL    H21   48  -0.228   0.137   0.017
    1UNL    H22   49  -0.277  -0.010  -0.159
   0.00000   0.00000   0.00000   0.00000   0.00000   0.00000   0.00000   0.00000   0.00000
Generated with MDTraj, t= 14.0
 49
    1UNL     C1    1  -0.261   0.134   0.308
    1UNL     C2    2  -0.268  -0.005   0.249
    1UNL     C3    3  -0.216  -0.048   0.132
    1UNL     C4    4  -0.224  -0.183   0.079
    1UNL     N1    5  -0.174  -0.186  -0.065
    1UNL     C5    6  -0.265  -0.263  -0.156
    1UNL     C6    7  -0.031  -0.235  -0.078
    1UNL     C7    8   0.076  -0.150  -0.007
    1UNL     C8    9   0.082   0.006  -0.027
    1UNL     C9   10   0.232   0.054  -0.015
    1UNL    C10   11   0.316   0.087   0.091
    1UNL    C11   12   0.444   0.112   0.065
    1UNL    C12   13   0.492   0.118  -0.062
    1UNL    C13   14   0.413   0.092  -0.171
    1UNL    C14   15   0.277   0.065  -0.150
    1UNL     N2   16   0.178   0.036  -0.243
    1UNL    C15   17   0.053   0.051  -0.168
    1UNL     O1   18   0.031   0.208  -0.160
    1UNL    C16   19  -0.011   0.238  -0.028
    1UNL    C17   20  -0.019   0.105   0.052
    1UNL    C18   21   0.029   0.117   0.196
    1UNL     O2   22   0.008   0.229   0.247
    1UNL     O3   23   0.074   0.016   0.252
    1UNL    C19   24  -0.164   0.047   0.022
    1UNL    C20   25  -0.176  -0.037  -0.114
    1UNL    C21   26  -0.076  -0.009  -0.225
    1UNL     O4   27  -0.096  -0.030  -0.339
    1UNL     H1   28  -0.296   0.194   0.223
    1UNL     H2   29  -0.158   0.168   0.329
    1UNL     H3   30  -0.344   0.157   0.380
    1UNL     H4   31  -0.303  -0.076   0.320
    1UNL     H5   32  -0.172  -0.252   0.143
    1UNL     H6   33  -0.323  -0.224   0.087
    1UNL     H7   34  -0.372  -0.239  -0.158
    1UNL     H8   35  -0.252  -0.241  -0.266
    1UNL     H9   36  -0.242  -0.369  -0.157
    1UNL    H10   37  -0.035  -0.343  -0.046
    1UNL    H11   38  -0.006  -0.241  -0.182
    1UNL    H12   39   0.176  -0.193  -0.024
    1UNL    H13   40   0.061  -0.148   0.095
    1UNL    H14   41   0.285   0.071   0.189
    1UNL    H15   42   0.513   0.113   0.148
    1UNL    H16   43   0.600   0.121  -0.075
    1UNL    H17   44   0.447   0.079  -0.276
    1UNL    H18   45   0.174   0.065  -0.340
    1UNL    H19   46  -0.097   0.311  -0.021
    1UNL    H20   47   0.063   0.294   0.017
    1UNL    H21   48  -0.229   0.139   0.019
    1UNL    H22   49  -0.278  -0.021  -0.153
   0.00000   0.00000   0.00000   0.00000   0.00000   0.00000   0.00000   0.00000   0.00000
Generated with MDTraj, t= 15.0
 49
    1UNL     C1    1  -0.281   0.117   0.324
    1UNL     C2    2  -0.256  -0.011   0.256
    1UNL     C3    3  -0.205  -0.041   0.137
    1UNL     C4    4  -0.229  -0.178   0.074
    1UNL     N1    5  -0.172  -0.170  -0.069
    1UNL     C5    6  -0.267  -0.243  -0.167
    1UNL     C6    7  -0.030  -0.229  -0.079
    1UNL     C7    8   0.075  -0.151   0.006
    1UNL     C8    9   0.091   0.000  -0.025
    1UNL     C9   10   0.236   0.039  -0.019
    1UNL    C10   11   0.314   0.085   0.085
    1UNL    C11   12   0.444   0.131   0.055
    1UNL    C12   13   0.486   0.125  -0.073
    1UNL    C13   14   0.410   0.092  -0.178
    1UNL    C14   15   0.284   0.047  -0.152
    1UNL     N2   16   0.178   0.023  -0.246
    1UNL    C15   17   0.056   0.051  -0.170
    1UNL     O1   18   0.043   0.199  -0.164
    1UNL    C16   19   0.017   0.233  -0.027
    1UNL    C17   20  -0.013   0.101   0.048
    1UNL    C18   21   0.014   0.117   0.201
    1UNL     O2   22  -0.028   0.224   0.251
    1UNL     O3   23   0.080   0.023   0.253
    1UNL    C19   24  -0.167   0.056   0.024
    1UNL    C20   25  -0.174  -0.021  -0.111
    1UNL    C21   26  -0.077  -0.004  -0.217
    1UNL     O4   27  -0.092  -0.043  -0.332
    1UNL     H1   28  -0.270   0.206   0.257
    1UNL     H2   29  -0.209   0.152   0.403
    1UNL     H3   30  -0.388   0.131   0.351
    1UNL     H4   31  -0.281  -0.102   0.313
    1UNL     H5   32  -0.187  -0.261   0.132
    1UNL     H6   33  -0.329  -0.214   0.082
    1UNL     H7   34  -0.352  -0.188  -0.205
    1UNL     H8   35  -0.226  -0.271  -0.269
    1UNL     H9   36  -0.288  -0.347  -0.144
    1UNL    H10   37  -0.037  -0.338  -0.056
    1UNL    H11   38  -0.011  -0.223  -0.185
    1UNL    H12   39   0.174  -0.193  -0.011
    1UNL    H13   40   0.055  -0.163   0.110
    1UNL    H14   41   0.285   0.058   0.187
    1UNL    H15   42   0.525   0.149   0.125
    1UNL    H16   43   0.582   0.168  -0.097
    1UNL    H17   44   0.448   0.087  -0.277
    1UNL    H18   45   0.162   0.047  -0.344
    1UNL    H19   46  -0.083   0.283  -0.032
    1UNL    H20   47   0.066   0.307   0.025
    1UNL    H21   48  -0.238   0.143   0.033
    1UNL    H22   49  -0.275  -0.015  -0.155
   0.00000   0.00000   0.00000   0.00000   0.00000   0.00000   0.00000   0.00000   0.00000
Generated with MDTraj, t= 16.0
 49
    1UNL     C1    1  -0.257   0.120   0.317
    1UNL     C2    2  -0.281  -0.005   0.243
    1UNL     C3    3  -0.225  -0.041   0.130
    1UNL     C4    4  -0.227  -0.180   0.070
    1UNL     N1    5  -0.167  -0.184  -0.072
    1UNL     C5    6  -0.256  -0.275  -0.162
    1UNL     C6    7  -0.024  -0.223  -0.083
    1UNL     C7    8   0.070  -0.136   0.014
    1UNL     C8    9   0.088   0.008  -0.023
    1UNL     C9   10   0.237   0.044  -0.022
    1UNL    C10   11   0.318   0.076   0.089
    1UNL    C11   12   0.449   0.112   0.058
    1UNL    C12   13   0.495   0.109  -0.072
    1UNL    C13   14   0.415   0.078  -0.176
    1UNL    C14   15   0.284   0.051  -0.153
    1UNL     N2   16   0.177   0.050  -0.245
    1UNL    C15   17   0.054   0.061  -0.167
    1UNL     O1   18   0.023   0.207  -0.160
    1UNL    C16   19  -0.004   0.230  -0.026
    1UNL    C17   20  -0.013   0.101   0.051
    1UNL    C18   21   0.024   0.124   0.199
    1UNL     O2   22  -0.016   0.232   0.246
    1UNL     O3   23   0.078   0.022   0.250
    1UNL    C19   24  -0.162   0.051   0.030
    1UNL    C20   25  -0.179  -0.026  -0.107
    1UNL    C21   26  -0.078  -0.006  -0.216
    1UNL     O4   27  -0.100  -0.041  -0.332
    1UNL     H1   28  -0.244   0.207   0.248
    1UNL     H2   29  -0.159   0.114   0.366
    1UNL     H3   30  -0.341   0.141   0.388
    1UNL     H4   31  -0.330  -0.080   0.295
    1UNL     H5   32  -0.182  -0.252   0.138
    1UNL     H6   33  -0.324  -0.221   0.072
    1UNL     H7   34  -0.360  -0.265  -0.148
    1UNL     H8   35  -0.251  -0.242  -0.271
    1UNL     H9   36  -0.231  -0.378  -0.183
    1UNL    H10   37  -0.032  -0.329  -0.048
    1UNL    H11   38   0.009  -0.213  -0.186
    1UNL    H12   39   0.168  -0.181   0.014
    1UNL    H13   40   0.033  -0.140   0.116
    1UNL    H14   41   0.296   0.062   0.193
    1UNL    H15   42   0.516   0.142   0.139
    1UNL    H16   43   0.592   0.153  -0.094
    1UNL    H17   44   0.451   0.116  -0.272
    1UNL    H18   45   0.186   0.097  -0.337
    1UNL    H19   46  -0.080   0.310  -0.004
    1UNL    H20   47   0.076   0.282   0.016
    1UNL    H21   48  -0.220   0.148   0.018
    1UNL    H22   49  -0.278  -0.011  -0.154
   0.00000   0.00000   0.00000   0.00000   0.00000   0.00000   0.00000   0.00000   0.00000
Generated with MDTraj, t= 17.0
 49
    1UNL     C1    1  -0.285   0.122   0.296
    1UNL     C2    2  -0.247  -0.015   0.254
    1UNL     C3    3  -0.199  -0.050   0.135
    1UNL     C4    4  -0.207  -0.189   0.081
    1UNL     N1    5  -0.165  -0.182  -0.067
    1UNL     C5    6  -0.256  -0.262  -0.145
    1UNL     C6    7  -0.020  -0.221  -0.088
    1UNL     C7    8   0.074  -0.134   0.005
    1UNL     C8    9   0.077   0.022  -0.025
    1UNL     C9   10   0.227   0.066  -0.017
    1UNL    C10   11   0.316   0.068   0.089
    1UNL    C11   12   0.449   0.076   0.066
    1UNL    C12   13   0.502   0.084  -0.058
    1UNL    C13   14   0.421   0.080  -0.173
    1UNL    C14   15   0.282   0.073  -0.151
    1UNL     N2   16   0.176   0.060  -0.243
    1UNL    C15   17   0.043   0.070  -0.172
    1UNL     O1   18   0.015   0.211  -0.168
    1UNL    C16   19  -0.019   0.241  -0.035
    1UNL    C17   20  -0.028   0.110   0.049
    1UNL    C18   21   0.016   0.121   0.193
    1UNL     O2   22   0.023   0.236   0.235
    1UNL     O3   23   0.046   0.014   0.247
    1UNL    C19   24  -0.163   0.046   0.024
    1UNL    C20   25  -0.176  -0.034  -0.104
    1UNL    C21   26  -0.079  -0.003  -0.220
    1UNL     O4   27  -0.094  -0.045  -0.326
    1UNL     H1   28  -0.360   0.168   0.226
    1UNL     H2   29  -0.194   0.182   0.283
    1UNL     H3   30  -0.314   0.118   0.404
    1UNL     H4   31  -0.274  -0.093   0.330
    1UNL     H5   32  -0.151  -0.254   0.147
    1UNL     H6   33  -0.302  -0.235   0.091
    1UNL     H7   34  -0.359  -0.241  -0.144
    1UNL     H8   35  -0.224  -0.267  -0.254
    1UNL     H9   36  -0.243  -0.365  -0.127
    1UNL    H10   37  -0.009  -0.331  -0.082
    1UNL    H11   38  -0.002  -0.190  -0.191
    1UNL    H12   39   0.174  -0.173   0.013
    1UNL    H13   40   0.041  -0.129   0.112
    1UNL    H14   41   0.276   0.054   0.188
    1UNL    H15   42   0.518   0.060   0.144
    1UNL    H16   43   0.608   0.090  -0.076
    1UNL    H17   44   0.453   0.124  -0.267
    1UNL    H18   45   0.178   0.114  -0.333
    1UNL    H19   46  -0.117   0.294  -0.046
    1UNL    H20   47   0.043   0.322  -0.004
    1UNL    H21   48  -0.231   0.137   0.033
    1UNL    H22   49  -0.279  -0.023  -0.141
   0.00000   0.00000   0.00000   0.00000   0.00000   0.00000   0.00000   0.00000   0.00000
Generated with MDTraj, t= 18.0
 49
    1UNL     C1    1  -0.281   0.126   0.315
    1UNL     C2    2  -0.275  -0.007   0.250
    1UNL     C3    3  -0.223  -0.035   0.133
    1UNL     C4    4  -0.211  -0.180   0.080
    1UNL     N1    5  -0.157  -0.179  -0.070
    1UNL     C5    6  -0.244  -0.265  -0.150
    1UNL     C6    7  -0.014  -0.223  -0.081
    1UNL     C7    8   0.087  -0.145  -0.002
    1UNL     C8    9   0.089   0.011  -0.025
    1UNL     C9   10   0.227   0.058  -0.022
    1UNL    C10   11   0.313   0.069   0.085
    1UNL    C11   12   0.448   0.089   0.061
    1UNL    C12   13   0.494   0.084  -0.071
    1UNL    C13   14   0.410   0.094  -0.179
    1UNL    C14   15   0.274   0.074  -0.154
    1UNL     N2   16   0.173   0.046  -0.255
    1UNL    C15   17   0.052   0.069  -0.176
    1UNL     O1   18   0.018   0.214  -0.164
    1UNL    C16   19  -0.005   0.234  -0.020
    1UNL    C17   20  -0.016   0.093   0.053
    1UNL    C18   21   0.012   0.119   0.200
    1UNL     O2   22   0.010   0.236   0.243
    1UNL     O3   23   0.045   0.023   0.268
    1UNL    C19   24  -0.165   0.049   0.027
    1UNL    C20   25  -0.175  -0.036  -0.111
    1UNL    C21   26  -0.077  -0.008  -0.221
    1UNL     O4   27  -0.088  -0.042  -0.339
    1UNL     H1   28  -0.380   0.179   0.322
    1UNL     H2   29  -0.229   0.203   0.254
    1UNL     H3   30  -0.228   0.122   0.412
    1UNL     H4   31  -0.311  -0.092   0.299
    1UNL     H5   32  -0.156  -0.245   0.145
    1UNL     H6   33  -0.309  -0.224   0.092
    1UNL     H7   34  -0.344  -0.228  -0.157
    1UNL     H8   35  -0.212  -0.295  -0.255
    1UNL     H9   36  -0.256  -0.362  -0.111
    1UNL    H10   37  -0.013  -0.331  -0.062
    1UNL    H11   38   0.009  -0.217  -0.189
    1UNL    H12   39   0.183  -0.186  -0.022
    1UNL    H13   40   0.070  -0.154   0.111
    1UNL    H14   41   0.268   0.056   0.185
    1UNL    H15   42   0.525   0.065   0.139
    1UNL    H16   43   0.601   0.073  -0.084
    1UNL    H17   44   0.451   0.109  -0.276
    1UNL    H18   45   0.161   0.108  -0.337
    1UNL    H19   46  -0.083   0.318  -0.013
    1UNL    H20   47   0.082   0.285   0.016
    1UNL    H21   48  -0.224   0.146   0.024
    1UNL    H22   49  -0.274  -0.021  -0.159
   0.00000   0.00000   0.00000   0.00000   0.00000   0.00000   0.00000   0.00000   0.00000
Generated with MDTraj, t= 19.0
 49
    1UNL     C1    1  -0.274   0.140   0.307
    1UNL     C2    2  -0.272  -0.003   0.254
    1UNL     C3    3  -0.222  -0.046   0.137
    1UNL     C4    4  -0.233  -0.176   0.069
    1UNL     N1    5  -0.174  -0.176  -0.072
    1UNL     C5    6  -0.259  -0.257  -0.164
    1UNL     C6    7  -0.028  -0.222  -0.073
    1UNL     C7    8   0.069  -0.141   0.009
    1UNL     C8    9   0.090   0.006  -0.026
    1UNL     C9   10   0.239   0.045  -0.019
    1UNL    C10   11   0.320   0.081   0.087
    1UNL    C11   12   0.447   0.113   0.055
    1UNL    C12   13   0.494   0.125  -0.080
    1UNL    C13   14   0.415   0.090  -0.187
    1UNL    C14   15   0.285   0.054  -0.150
    1UNL     N2   16   0.180   0.032  -0.240
    1UNL    C15   17   0.053   0.056  -0.169
    1UNL     O1   18   0.036   0.198  -0.162
    1UNL    C16   19  -0.010   0.236  -0.023
    1UNL    C17   20  -0.015   0.101   0.054
    1UNL    C18   21   0.025   0.114   0.198
    1UNL     O2   22  -0.021   0.210   0.262
    1UNL     O3   23   0.082   0.018   0.248
    1UNL    C19   24  -0.163   0.047   0.031
    1UNL    C20   25  -0.179  -0.030  -0.111
    1UNL    C21   26  -0.071  -0.006  -0.218
    1UNL     O4   27  -0.087  -0.043  -0.335
    1UNL     H1   28  -0.352   0.179   0.379
    1UNL     H2   29  -0.298   0.208   0.223
    1UNL     H3   30  -0.174   0.157   0.351
    1UNL     H4   31  -0.316  -0.081   0.319
    1UNL     H5   32  -0.190  -0.247   0.135
    1UNL     H6   33  -0.340  -0.195   0.070
    1UNL     H7   34  -0.366  -0.261  -0.144
    1UNL     H8   35  -0.219  -0.223  -0.264
    1UNL     H9   36  -0.241  -0.362  -0.179
    1UNL    H10   37  -0.029  -0.326  -0.044
    1UNL    H11   38   0.013  -0.222  -0.177
    1UNL    H12   39   0.162  -0.190  -0.005
    1UNL    H13   40   0.032  -0.152   0.118
    1UNL    H14   41   0.291   0.072   0.189
    1UNL    H15   42   0.504   0.136   0.140
    1UNL    H16   43   0.596   0.159  -0.092
    1UNL    H17   44   0.453   0.080  -0.291
    1UNL    H18   45   0.187   0.093  -0.322
    1UNL    H19   46  -0.104   0.300  -0.038
    1UNL    H20   47   0.064   0.307   0.014
    1UNL    H21   48  -0.224   0.141   0.010
    1UNL    H22   49  -0.281  -0.023  -0.154
   0.00000   0.00000   0.00000   0.00000   0.00000   0.00000   0.00000   0.00000   0.00000
Generated with MDTraj, t= 20.0
 49
    1UNL     C1    1  -0.287   0.129   0.308
    1UNL     C2    2  -0.273  -0.010   0.244
    1UNL     C3    3  -0.205  -0.040   0.133
    1UNL     C4    4  -0.219  -0.187   0.082
    1UNL     N1    5  -0.175  -0.171  -0.069
    1UNL     C5    6  -0.274  -0.249  -0.148
    1UNL     C6    7  -0.034  -0.222  -0.086
    1UNL     C7    8   0.066  -0.146  -0.002
    1UNL     C8    9   0.094   0.005  -0.029
    1UNL     C9   10   0.240   0.034  -0.021
    1UNL    C10   11   0.316   0.077   0.086
    1UNL    C11   12   0.446   0.125   0.063
    1UNL    C12   13   0.495   0.136  -0.063
    1UNL    C13   14   0.418   0.086  -0.171
    1UNL    C14   15   0.284   0.044  -0.156
    1UNL     N2   16   0.183   0.034  -0.248
    1UNL    C15   17   0.054   0.058  -0.180
    1UNL     O1   18   0.036   0.197  -0.167
    1UNL    C16   19   0.015   0.232  -0.028
    1UNL    C17   20  -0.004   0.098   0.046
    1UNL    C18   21   0.018   0.115   0.198
    1UNL     O2   22  -0.016   0.218   0.258
    1UNL     O3   23   0.077   0.023   0.256
    1UNL    C19   24  -0.156   0.051   0.024
    1UNL    C20   25  -0.179  -0.028  -0.110
    1UNL    C21   26  -0.079  -0.008  -0.219
    1UNL     O4   27  -0.101  -0.042  -0.328
    1UNL     H1   28  -0.364   0.133   0.388
    1UNL     H2   29  -0.334   0.197   0.236
    1UNL     H3   30  -0.184   0.152   0.346
    1UNL     H4   31  -0.321  -0.093   0.289
    1UNL     H5   32  -0.162  -0.254   0.140
    1UNL     H6   33  -0.324  -0.218   0.093
    1UNL     H7   34  -0.375  -0.224  -0.109
    1UNL     H8   35  -0.256  -0.258  -0.254
    1UNL     H9   36  -0.279  -0.355  -0.119
    1UNL    H10   37  -0.022  -0.328  -0.074
    1UNL    H11   38  -0.010  -0.214  -0.195
    1UNL    H12   39   0.159  -0.194  -0.024
    1UNL    H13   40   0.035  -0.170   0.107
    1UNL    H14   41   0.269   0.077   0.185
    1UNL    H15   42   0.497   0.181   0.144
    1UNL    H16   43   0.571   0.209  -0.088
    1UNL    H17   44   0.454   0.075  -0.268
    1UNL    H18   45   0.187   0.101  -0.322
    1UNL    H19   46  -0.085   0.288  -0.032
    1UNL    H20   47   0.093   0.307  -0.003
    1UNL    H21   48  -0.215   0.148   0.040
    1UNL    H22   49  -0.280  -0.000  -0.142
   0.00000   0.00000   0.00000   0.00000   0.00000   0.00000   0.00000   0.00000   0.00000
Generated with MDTraj, t= 21.0
 49
    1UNL     C1    1  -0.274   0.137   0.295
    1UNL     C2    2  -0.278  -0.001   0.247
    1UNL     C3    3  -0.224  -0.039   0.133
    1UNL     C4    4  -0.217  -0.175   0.077
    1UNL     N1    5  -0.166  -0.181  -0.064
    1UNL     C5    6  -0.254  -0.277  -0.152
    1UNL     C6    7  -0.018  -0.223  -0.074
    1UNL     C7    8   0.084  -0.147   0.002
    1UNL     C8    9   0.083   0.011  -0.026
    1UNL     C9   10   0.228   0.048  -0.018
    1UNL    C10   11   0.312   0.065   0.087
    1UNL    C11   12   0.450   0.104   0.061
    1UNL    C12   13   0.500   0.105  -0.070
    1UNL    C13   14   0.409   0.094  -0.171
    1UNL    C14   15   0.276   0.067  -0.148
    1UNL     N2   16   0.179   0.045  -0.248
    1UNL    C15   17   0.049   0.065  -0.172
    1UNL     O1   18   0.020   0.208  -0.160
    1UNL    C16   19  -0.005   0.236  -0.028
    1UNL    C17   20  -0.016   0.104   0.054
    1UNL    C18   21   0.027   0.114   0.197
    1UNL     O2   22   0.017   0.222   0.251
    1UNL     O3   23   0.054   0.011   0.258
    1UNL    C19   24  -0.163   0.047   0.027
    1UNL    C20   25  -0.172  -0.035  -0.112
    1UNL    C21   26  -0.073  -0.008  -0.225
    1UNL     O4   27  -0.104  -0.033  -0.336
    1UNL     H1   28  -0.314   0.151   0.396
    1UNL     H2   29  -0.341   0.197   0.233
    1UNL     H3   30  -0.167   0.169   0.294
    1UNL     H4   31  -0.323  -0.077   0.309
    1UNL     H5   32  -0.147  -0.230   0.136
    1UNL     H6   33  -0.320  -0.214   0.077
    1UNL     H7   34  -0.360  -0.242  -0.164
    1UNL     H8   35  -0.204  -0.284  -0.246
    1UNL     H9   36  -0.275  -0.380  -0.113
    1UNL    H10   37  -0.016  -0.327  -0.048
    1UNL    H11   38   0.016  -0.227  -0.181
    1UNL    H12   39   0.182  -0.186  -0.012
    1UNL    H13   40   0.066  -0.147   0.116
    1UNL    H14   41   0.268   0.072   0.184
    1UNL    H15   42   0.507   0.134   0.144
    1UNL    H16   43   0.602   0.134  -0.091
    1UNL    H17   44   0.452   0.094  -0.274
    1UNL    H18   45   0.184   0.096  -0.334
    1UNL    H19   46  -0.086   0.319  -0.024
    1UNL    H20   47   0.094   0.279  -0.006
    1UNL    H21   48  -0.228   0.137   0.001
    1UNL    H22   49  -0.272  -0.006  -0.147
   0.00000   0.00000   0.00000   0.00000   0.00000   0.00000   0.00000   0.00000   0.00000
Generated with MDTraj, t= 22.0
 49
    1UNL     C1    1  -0.289   0.132   0.293
    1UNL     C2    2  -0.266  -0.003   0.249
    1UNL     C3    3  -0.220  -0.044   0.134
    1UNL     C4    4  -0.212  -0.189   0.084
    1UNL     N1    5  -0.165  -0.175  -0.061
    1UNL     C5    6  -0.246  -0.254  -0.158
    1UNL     C6    7  -0.017  -0.229  -0.073
    1UNL     C7    8   0.084  -0.140  -0.003
    1UNL     C8    9   0.079   0.019  -0.028
    1UNL     C9   10   0.230   0.070  -0.019
    1UNL    C10   11   0.319   0.068   0.085
    1UNL    C11   12   0.455   0.076   0.056
    1UNL    C12   13   0.502   0.099  -0.077
    1UNL    C13   14   0.408   0.089  -0.178
    1UNL    C14   15   0.273   0.076  -0.149
    1UNL     N2   16   0.173   0.052  -0.239
    1UNL    C15   17   0.045   0.068  -0.174
    1UNL     O1   18   0.019   0.211  -0.159
    1UNL    C16   19  -0.015   0.238  -0.026
    1UNL    C17   20  -0.021   0.106   0.049
    1UNL    C18   21   0.011   0.115   0.197
    1UNL     O2   22   0.039   0.227   0.242
    1UNL     O3   23   0.032   0.009   0.256
    1UNL    C19   24  -0.167   0.048   0.023
    1UNL    C20   25  -0.178  -0.029  -0.111
    1UNL    C21   26  -0.077  -0.011  -0.211
    1UNL     O4   27  -0.075  -0.052  -0.326
    1UNL     H1   28  -0.373   0.144   0.363
    1UNL     H2   29  -0.321   0.198   0.212
    1UNL     H3   30  -0.199   0.176   0.339
    1UNL     H4   31  -0.282  -0.083   0.322
    1UNL     H5   32  -0.133  -0.242   0.138
    1UNL     H6   33  -0.310  -0.236   0.084
    1UNL     H7   34  -0.350  -0.246  -0.118
    1UNL     H8   35  -0.235  -0.220  -0.257
    1UNL     H9   36  -0.230  -0.364  -0.138
    1UNL    H10   37  -0.008  -0.323  -0.023
    1UNL    H11   38   0.013  -0.242  -0.180
    1UNL    H12   39   0.186  -0.172  -0.020
    1UNL    H13   40   0.065  -0.151   0.107
    1UNL    H14   41   0.281   0.054   0.188
    1UNL    H15   42   0.530   0.063   0.136
    1UNL    H16   43   0.604   0.073  -0.103
    1UNL    H17   44   0.435   0.089  -0.279
    1UNL    H18   45   0.176   0.106  -0.323
    1UNL    H19   46  -0.125   0.271  -0.028
    1UNL    H20   47   0.048   0.314   0.016
    1UNL    H21   48  -0.242   0.133   0.002
    1UNL    H22   49  -0.282  -0.014  -0.145
   0.00000   0.00000   0.00000   0.00000   0.00000   0.00000   0.00000   0.00000   0.00000
Generated with MDTraj, t= 23.0
 49
    1UNL     C1    1  -0.272   0.119   0.310
    1UNL     C2    2  -0.270  -0.011   0.248
    1UNL     C3    3  -0.219  -0.037   0.129
    1UNL     C4    4  -0.219  -0.177   0.075
    1UNL     N1    5  -0.172  -0.182  -0.062
    1UNL     C5    6  -0.256  -0.276  -0.154
    1UNL     C6    7  -0.023  -0.226  -0.071
    1UNL     C7    8   0.076  -0.138   0.003
    1UNL     C8    9   0.096   0.014  -0.027
    1UNL     C9   10   0.235   0.051  -0.026
    1UNL    C10   11   0.315   0.064   0.087
    1UNL    C11   12   0.446   0.097   0.061
    1UNL    C12   13   0.499   0.102  -0.070
    1UNL    C13   14   0.415   0.087  -0.177
    1UNL    C14   15   0.282   0.055  -0.158
    1UNL     N2   16   0.175   0.063  -0.247
    1UNL    C15   17   0.051   0.064  -0.169
    1UNL     O1   18   0.022   0.205  -0.157
    1UNL    C16   19   0.005   0.244  -0.022
    1UNL    C17   20  -0.015   0.108   0.046
    1UNL    C18   21   0.023   0.123   0.196
    1UNL     O2   22   0.006   0.237   0.244
    1UNL     O3   23   0.041   0.020   0.264
    1UNL    C19   24  -0.166   0.048   0.021
    1UNL    C20   25  -0.178  -0.034  -0.117
    1UNL    C21   26  -0.075  -0.008  -0.223
    1UNL     O4   27  -0.091  -0.045  -0.335
    1UNL     H1   28  -0.340   0.116   0.396
    1UNL     H2   29  -0.318   0.192   0.244
    1UNL     H3   30  -0.169   0.147   0.335
    1UNL     H4   31  -0.311  -0.092   0.302
    1UNL     H5   32  -0.161  -0.253   0.132
    1UNL     H6   33  -0.323  -0.203   0.064
    1UNL     H7   34  -0.366  -0.256  -0.138
    1UNL     H8   35  -0.235  -0.257  -0.256
    1UNL     H9   36  -0.245  -0.381  -0.114
    1UNL    H10   37  -0.011  -0.324  -0.029
    1UNL    H11   38   0.010  -0.233  -0.176
    1UNL    H12   39   0.175  -0.182  -0.014
    1UNL    H13   40   0.060  -0.148   0.110
    1UNL    H14   41   0.265   0.056   0.180
    1UNL    H15   42   0.519   0.104   0.137
    1UNL    H16   43   0.606   0.110  -0.088
    1UNL    H17   44   0.441   0.098  -0.284
    1UNL    H18   45   0.169   0.129  -0.324
    1UNL    H19   46  -0.077   0.311   0.016
    1UNL    H20   47   0.097   0.287   0.007
    1UNL    H21   48  -0.235   0.140   0.025
    1UNL    H22   49  -0.282  -0.011  -0.149
   0.00000   0.00000   0.00000   0.00000   0.00000   0.00000   0.00000   0.00000   0.00000
Generated with MDTraj, t= 24.0
 49
    1UNL     C1    1  -0.263   0.125   0.309
    1UNL     C2    2  -0.264  -0.014   0.251
    1UNL     C3    3  -0.212  -0.051   0.134
    1UNL     C4    4  -0.226  -0.186   0.070
    1UNL     N1    5  -0.179  -0.177  -0.071
    1UNL     C5    6  -0.261  -0.257  -0.168
    1UNL     C6    7  -0.026  -0.216  -0.080
    1UNL     C7    8   0.062  -0.144   0.013
    1UNL     C8    9   0.085   0.006  -0.026
    1UNL     C9   10   0.232   0.046  -0.018
    1UNL    C10   11   0.318   0.080   0.094
    1UNL    C11   12   0.450   0.120   0.074
    1UNL    C12   13   0.495   0.119  -0.062
    1UNL    C13   14   0.414   0.086  -0.171
    1UNL    C14   15   0.287   0.036  -0.150
    1UNL     N2   16   0.181   0.030  -0.247
    1UNL    C15   17   0.055   0.057  -0.174
    1UNL     O1   18   0.036   0.203  -0.170
    1UNL    C16   19  -0.001   0.237  -0.039
    1UNL    C17   20  -0.012   0.105   0.046
    1UNL    C18   21   0.020   0.121   0.194
    1UNL     O2   22  -0.014   0.219   0.257
    1UNL     O3   23   0.087   0.032   0.244
    1UNL    C19   24  -0.166   0.051   0.024
    1UNL    C20   25  -0.182  -0.025  -0.107
    1UNL    C21   26  -0.077  -0.003  -0.220
    1UNL     O4   27  -0.115  -0.039  -0.325
    1UNL     H1   28  -0.355   0.152   0.359
    1UNL     H2   29  -0.249   0.198   0.228
    1UNL     H3   30  -0.173   0.134   0.372
    1UNL     H4   31  -0.305  -0.088   0.324
    1UNL     H5   32  -0.158  -0.258   0.123
    1UNL     H6   33  -0.326  -0.224   0.075
    1UNL     H7   34  -0.366  -0.222  -0.162
    1UNL     H8   35  -0.224  -0.250  -0.270
    1UNL     H9   36  -0.259  -0.354  -0.113
    1UNL    H10   37  -0.019  -0.320  -0.050
    1UNL    H11   38   0.006  -0.219  -0.185
    1UNL    H12   39   0.167  -0.183   0.008
    1UNL    H13   40   0.039  -0.162   0.115
    1UNL    H14   41   0.284   0.069   0.198
    1UNL    H15   42   0.507   0.158   0.159
    1UNL    H16   43   0.590   0.163  -0.086
    1UNL    H17   44   0.448   0.097  -0.271
    1UNL    H18   45   0.193   0.055  -0.347
    1UNL    H19   46  -0.098   0.287  -0.046
    1UNL    H20   47   0.060   0.302   0.018
    1UNL    H21   48  -0.229   0.145   0.001
    1UNL    H22   49  -0.273   0.014  -0.161
   0.00000   0.00000   0.00000   0.00000   0.00000   0.00000   0.00000   0.00000   0.00000
Generated with MDTraj, t= 25.0
 49
    1UNL     C1    1  -0.278   0.115   0.319
    1UNL     C2    2  -0.262  -0.020   0.254
    1UNL     C3    3  -0.218  -0.040   0.131
    1UNL     C4    4  -0.211  -0.178   0.074
    1UNL     N1    5  -0.172  -0.177  -0.067
    1UNL     C5    6  -0.267  -0.247  -0.158
    1UNL     C6    7  -0.034  -0.230  -0.087
    1UNL     C7    8   0.074  -0.147  -0.006
    1UNL     C8    9   0.085   0.005  -0.022
    1UNL     C9   10   0.234   0.050  -0.021
    1UNL    C10   11   0.315   0.083   0.078
    1UNL    C11   12   0.450   0.114   0.056
    1UNL    C12   13   0.501   0.118  -0.073
    1UNL    C13   14   0.414   0.083  -0.179
    1UNL    C14   15   0.286   0.041  -0.149
    1UNL     N2   16   0.179   0.032  -0.242
    1UNL    C15   17   0.058   0.057  -0.174
    1UNL     O1   18   0.038   0.199  -0.161
    1UNL    C16   19  -0.002   0.240  -0.030
    1UNL    C17   20  -0.021   0.102   0.052
    1UNL    C18   21   0.017   0.122   0.199
    1UNL     O2   22  -0.015   0.234   0.243
    1UNL     O3   23   0.064   0.030   0.270
    1UNL    C19   24  -0.164   0.050   0.026
    1UNL    C20   25  -0.178  -0.024  -0.105
    1UNL    C21   26  -0.075  -0.009  -0.218
    1UNL     O4   27  -0.087  -0.041  -0.336
    1UNL     H1   28  -0.357   0.174   0.275
    1UNL     H2   29  -0.192   0.183   0.321
    1UNL     H3   30  -0.292   0.109   0.427
    1UNL     H4   31  -0.294  -0.101   0.312
    1UNL     H5   32  -0.151  -0.249   0.136
    1UNL     H6   33  -0.312  -0.216   0.077
    1UNL     H7   34  -0.362  -0.195  -0.144
    1UNL     H8   35  -0.236  -0.240  -0.265
    1UNL     H9   36  -0.275  -0.344  -0.107
    1UNL    H10   37  -0.030  -0.339  -0.075
    1UNL    H11   38  -0.023  -0.218  -0.194
    1UNL    H12   39   0.170  -0.203  -0.017
    1UNL    H13   40   0.058  -0.158   0.097
    1UNL    H14   41   0.276   0.066   0.175
    1UNL    H15   42   0.505   0.160   0.135
    1UNL    H16   43   0.602   0.142  -0.100
    1UNL    H17   44   0.443   0.086  -0.282
    1UNL    H18   45   0.193   0.072  -0.336
    1UNL    H19   46  -0.101   0.289  -0.031
    1UNL    H20   47   0.068   0.310   0.008
    1UNL    H21   48  -0.224   0.147   0.052
    1UNL    H22   49  -0.275  -0.001  -0.153
   0.00000   0.00000   0.00000   0.00000   0.00000   0.00000   0.00000   0.00000   0.00000
Generated with MDTraj, t= 26.0
 49
    1UNL     C1    1  -0.272   0.136   0.307
    1UNL     C2    2  -0.267  -0.004   0.250
    1UNL     C3    3  -0.227  -0.034   0.128
    1UNL     C4    4  -0.223  -0.178   0.077
    1UNL     N1    5  -0.163  -0.182  -0.065
    1UNL     C5    6  -0.243  -0.276  -0.159
    1UNL     C6    7  -0.015  -0.224  -0.070
    1UNL     C7    8   0.078  -0.135   0.014
    1UNL     C8    9   0.081   0.012  -0.031
    1UNL     C9   10   0.228   0.061  -0.021
    1UNL    C10   11   0.315   0.064   0.086
    1UNL    C11   12   0.448   0.091   0.059
    1UNL    C12   13   0.497   0.096  -0.070
    1UNL    C13   14   0.411   0.094  -0.183
    1UNL    C14   15   0.278   0.069  -0.153
    1UNL     N2   16   0.174   0.053  -0.249
    1UNL    C15   17   0.045   0.064  -0.176
    1UNL     O1   18   0.017   0.206  -0.161
    1UNL    C16   19  -0.010   0.235  -0.023
    1UNL    C17   20  -0.013   0.097   0.052
    1UNL    C18   21   0.026   0.118   0.200
    1UNL     O2   22   0.011   0.231   0.251
    1UNL     O3   23   0.056   0.015   0.262
    1UNL    C19   24  -0.164   0.045   0.018
    1UNL    C20   25  -0.177  -0.037  -0.105
    1UNL    C21   26  -0.080  -0.010  -0.224
    1UNL     O4   27  -0.093  -0.035  -0.343
    1UNL     H1   28  -0.215   0.207   0.247
    1UNL     H2   29  -0.235   0.135   0.410
    1UNL     H3   30  -0.373   0.169   0.329
    1UNL     H4   31  -0.301  -0.084   0.321
    1UNL     H5   32  -0.159  -0.237   0.147
    1UNL     H6   33  -0.320  -0.228   0.084
    1UNL     H7   34  -0.348  -0.256  -0.151
    1UNL     H8   35  -0.205  -0.242  -0.263
    1UNL     H9   36  -0.220  -0.377  -0.127
    1UNL    H10   37  -0.028  -0.321  -0.019
    1UNL    H11   38   0.020  -0.246  -0.169
    1UNL    H12   39   0.179  -0.182  -0.001
    1UNL    H13   40   0.065  -0.151   0.116
    1UNL    H14   41   0.272   0.070   0.186
    1UNL    H15   42   0.513   0.091   0.146
    1UNL    H16   43   0.604   0.090  -0.084
    1UNL    H17   44   0.429   0.093  -0.293
    1UNL    H18   45   0.192   0.082  -0.347
    1UNL    H19   46  -0.096   0.306  -0.020
    1UNL    H20   47   0.078   0.282   0.022
    1UNL    H21   48  -0.218   0.144   0.000
    1UNL    H22   49  -0.277  -0.039  -0.154
   0.00000   0.00000   0.00000   0.00000   0.00000   0.00000   0.00000   0.00000   0.00000
Generated with MDTraj, t= 27.0
 49
    1UNL     C1    1  -0.293   0.139   0.284
    1UNL     C2    2  -0.261  -0.005   0.254
    1UNL     C3    3  -0.205  -0.049   0.144
    1UNL     C4    4  -0.203  -0.182   0.085
    1UNL     N1    5  -0.169  -0.173  -0.064
    1UNL     C5    6  -0.264  -0.272  -0.145
    1UNL     C6    7  -0.024  -0.222  -0.081
    1UNL     C7    8   0.069  -0.129  -0.001
    1UNL     C8    9   0.088   0.022  -0.030
    1UNL     C9   10   0.230   0.062  -0.026
    1UNL    C10   11   0.317   0.062   0.081
    1UNL    C11   12   0.456   0.081   0.066
    1UNL    C12   13   0.507   0.104  -0.065
    1UNL    C13   14   0.421   0.092  -0.169
    1UNL    C14   15   0.282   0.076  -0.155
    1UNL     N2   16   0.171   0.061  -0.249
    1UNL    C15   17   0.050   0.073  -0.175
    1UNL     O1   18   0.013   0.211  -0.164
    1UNL    C16   19  -0.011   0.243  -0.024
    1UNL    C17   20  -0.024   0.106   0.050
    1UNL    C18   21   0.015   0.112   0.199
    1UNL     O2   22   0.025   0.222   0.255
    1UNL     O3   23   0.057   0.006   0.244
    1UNL    C19   24  -0.168   0.044   0.025
    1UNL    C20   25  -0.186  -0.037  -0.110
    1UNL    C21   26  -0.076  -0.011  -0.219
    1UNL     O4   27  -0.092  -0.063  -0.325
    1UNL     H1   28  -0.203   0.199   0.297
    1UNL     H2   29  -0.357   0.134   0.371
    1UNL     H3   30  -0.362   0.186   0.214
    1UNL     H4   31  -0.295  -0.071   0.329
    1UNL     H5   32  -0.124  -0.246   0.127
    1UNL     H6   33  -0.297  -0.243   0.102
    1UNL     H7   34  -0.364  -0.247  -0.119
    1UNL     H8   35  -0.252  -0.235  -0.254
    1UNL     H9   36  -0.242  -0.376  -0.123
    1UNL    H10   37  -0.003  -0.332  -0.076
    1UNL    H11   38  -0.014  -0.201  -0.185
    1UNL    H12   39   0.172  -0.173  -0.017
    1UNL    H13   40   0.059  -0.144   0.102
    1UNL    H14   41   0.275   0.061   0.181
    1UNL    H15   42   0.522   0.079   0.152
    1UNL    H16   43   0.611   0.095  -0.089
    1UNL    H17   44   0.459   0.086  -0.265
    1UNL    H18   45   0.172   0.120  -0.333
    1UNL    H19   46  -0.113   0.290  -0.038
    1UNL    H20   47   0.067   0.310   0.019
    1UNL    H21   48  -0.228   0.142   0.017
    1UNL    H22   49  -0.279  -0.017  -0.166
   0.00000   0.00000   0.00000   0.00000   0.00000   0.00000   0.00000   0.00000   0.00000
Generated with MDTraj, t= 28.0
 49
    1UNL     C1    1  -0.295   0.131   0.304
    1UNL     C2    2  -0.294  -0.003   0.242
    1UNL     C3    3  -0.225  -0.033   0.135
    1UNL     C4    4  -0.207  -0.179   0.091
    1UNL     N1    5  -0.170  -0.173  -0.064
    1UNL     C5    6  -0.264  -0.273  -0.144
    1UNL     C6    7  -0.030  -0.220  -0.085
    1UNL     C7    8   0.077  -0.151  -0.003
    1UNL     C8    9   0.087   0.005  -0.023
    1UNL     C9   10   0.238   0.039  -0.031
    1UNL    C10   11   0.319   0.069   0.078
    1UNL    C11   12   0.448   0.107   0.058
    1UNL    C12   13   0.498   0.126  -0.073
    1UNL    C13   14   0.420   0.099  -0.184
    1UNL    C14   15   0.286   0.061  -0.162
    1UNL     N2   16   0.180   0.050  -0.250
    1UNL    C15   17   0.051   0.060  -0.173
    1UNL     O1   18   0.031   0.205  -0.156
    1UNL    C16   19   0.009   0.231  -0.017
    1UNL    C17   20  -0.009   0.095   0.055
    1UNL    C18   21   0.029   0.114   0.203
    1UNL     O2   22  -0.010   0.220   0.253
    1UNL     O3   23   0.069   0.014   0.260
    1UNL    C19   24  -0.158   0.052   0.021
    1UNL    C20   25  -0.180  -0.030  -0.114
    1UNL    C21   26  -0.074  -0.003  -0.219
    1UNL     O4   27  -0.097  -0.045  -0.330
    1UNL     H1   28  -0.194   0.160   0.336
    1UNL     H2   29  -0.369   0.131   0.382
    1UNL     H3   30  -0.337   0.215   0.248
    1UNL     H4   31  -0.345  -0.086   0.291
    1UNL     H5   32  -0.131  -0.242   0.139
    1UNL     H6   33  -0.300  -0.243   0.112
    1UNL     H7   34  -0.365  -0.230  -0.140
    1UNL     H8   35  -0.234  -0.274  -0.252
    1UNL     H9   36  -0.272  -0.365  -0.086
    1UNL    H10   37  -0.037  -0.327  -0.056
    1UNL    H11   38   0.002  -0.215  -0.186
    1UNL    H12   39   0.181  -0.189  -0.022
    1UNL    H13   40   0.063  -0.178   0.099
    1UNL    H14   41   0.282   0.063   0.179
    1UNL    H15   42   0.517   0.139   0.134
    1UNL    H16   43   0.597   0.167  -0.092
    1UNL    H17   44   0.453   0.098  -0.292
    1UNL    H18   45   0.179   0.098  -0.338
    1UNL    H19   46  -0.071   0.310  -0.002
    1UNL    H20   47   0.113   0.261   0.014
    1UNL    H21   48  -0.210   0.155   0.019
    1UNL    H22   49  -0.286  -0.033  -0.147
   0.00000   0.00000   0.00000   0.00000   0.00000   0.00000   0.00000   0.00000   0.00000
Generated with MDTraj, t= 29.0
 49
    1UNL     C1    1  -0.287   0.143   0.291
    1UNL     C2    2  -0.269  -0.003   0.250
    1UNL     C3    3  -0.227  -0.041   0.133
    1UNL     C4    4  -0.222  -0.178   0.080
    1UNL     N1    5  -0.172  -0.180  -0.067
    1UNL     C5    6  -0.248  -0.251  -0.171
    1UNL     C6    7  -0.031  -0.235  -0.070
    1UNL     C7    8   0.073  -0.145   0.011
    1UNL     C8    9   0.086   0.003  -0.028
    1UNL     C9   10   0.236   0.042  -0.022
    1UNL    C10   11   0.316   0.088   0.083
    1UNL    C11   12   0.447   0.130   0.052
    1UNL    C12   13   0.491   0.121  -0.078
    1UNL    C13   14   0.405   0.097  -0.181
    1UNL    C14   15   0.280   0.051  -0.155
    1UNL     N2   16   0.178   0.018  -0.245
    1UNL    C15   17   0.055   0.056  -0.167
    1UNL     O1   18   0.036   0.195  -0.160
    1UNL    C16   19   0.006   0.231  -0.024
    1UNL    C17   20  -0.010   0.096   0.058
    1UNL    C18   21   0.024   0.104   0.207
    1UNL     O2   22  -0.014   0.205   0.263
    1UNL     O3   23   0.095   0.013   0.243
    1UNL    C19   24  -0.161   0.055   0.033
    1UNL    C20   25  -0.184  -0.028  -0.109
    1UNL    C21   26  -0.082  -0.004  -0.213
    1UNL     O4   27  -0.097  -0.023  -0.332
    1UNL     H1   28  -0.220   0.167   0.373
    1UNL     H2   29  -0.392   0.152   0.313
    1UNL     H3   30  -0.277   0.221   0.213
    1UNL     H4   31  -0.296  -0.081   0.320
    1UNL     H5   32  -0.165  -0.247   0.144
    1UNL     H6   33  -0.326  -0.225   0.076
    1UNL     H7   34  -0.350  -0.205  -0.182
    1UNL     H8   35  -0.197  -0.225  -0.262
    1UNL     H9   36  -0.260  -0.358  -0.145
    1UNL    H10   37  -0.025  -0.334  -0.022
    1UNL    H11   38   0.007  -0.236  -0.168
    1UNL    H12   39   0.174  -0.193   0.010
    1UNL    H13   40   0.047  -0.136   0.118
    1UNL    H14   41   0.281   0.086   0.186
    1UNL    H15   42   0.506   0.173   0.133
    1UNL    H16   43   0.582   0.173  -0.100
    1UNL    H17   44   0.431   0.101  -0.282
    1UNL    H18   45   0.177   0.059  -0.336
    1UNL    H19   46  -0.098   0.267  -0.037
    1UNL    H20   47   0.080   0.308   0.012
    1UNL    H21   48  -0.231   0.145   0.018
    1UNL    H22   49  -0.287  -0.010  -0.144
   0.00000   0.00000   0.00000   0.00000   0.00000   0.00000   0.00000   0.00000   0.00000
Generated with MDTraj, t= 30.0
 49
    1UNL     C1    1  -0.277   0.121   0.320
    1UNL     C2    2  -0.268  -0.018   0.253
    1UNL     C3    3  -0.220  -0.041   0.133
    1UNL     C4    4  -0.212  -0.181   0.085
    1UNL     N1    5  -0.176  -0.179  -0.070
    1UNL     C5    6  -0.273  -0.256  -0.149
    1UNL     C6    7  -0.033  -0.233  -0.083
    1UNL     C7    8   0.075  -0.155  -0.003
    1UNL     C8    9   0.084   0.009  -0.028
    1UNL     C9   10   0.233   0.052  -0.021
    1UNL    C10   11   0.312   0.087   0.081
    1UNL    C11   12   0.453   0.111   0.052
    1UNL    C12   13   0.502   0.116  -0.075
    1UNL    C13   14   0.422   0.087  -0.176
    1UNL    C14   15   0.288   0.054  -0.152
    1UNL     N2   16   0.182   0.038  -0.246
    1UNL    C15   17   0.052   0.060  -0.175
    1UNL     O1   18   0.028   0.208  -0.163
    1UNL    C16   19   0.002   0.242  -0.029
    1UNL    C17   20  -0.013   0.101   0.046
    1UNL    C18   21   0.018   0.116   0.205
    1UNL     O2   22  -0.012   0.229   0.242
    1UNL     O3   23   0.065   0.014   0.259
    1UNL    C19   24  -0.168   0.059   0.025
    1UNL    C20   25  -0.182  -0.032  -0.110
    1UNL    C21   26  -0.077  -0.003  -0.220
    1UNL     O4   27  -0.080  -0.037  -0.329
    1UNL     H1   28  -0.242   0.115   0.422
    1UNL     H2   29  -0.380   0.150   0.312
    1UNL     H3   30  -0.224   0.198   0.263
    1UNL     H4   31  -0.300  -0.104   0.307
    1UNL     H5   32  -0.135  -0.235   0.144
    1UNL     H6   33  -0.309  -0.237   0.102
    1UNL     H7   34  -0.383  -0.234  -0.137
    1UNL     H8   35  -0.246  -0.250  -0.251
    1UNL     H9   36  -0.255  -0.358  -0.107
    1UNL    H10   37  -0.034  -0.338  -0.047
    1UNL    H11   38  -0.004  -0.236  -0.185
    1UNL    H12   39   0.174  -0.196  -0.027
    1UNL    H13   40   0.065  -0.165   0.108
    1UNL    H14   41   0.263   0.086   0.175
    1UNL    H15   42   0.519   0.130   0.133
    1UNL    H16   43   0.606   0.138  -0.097
    1UNL    H17   44   0.470   0.104  -0.275
    1UNL    H18   45   0.186   0.099  -0.325
    1UNL    H19   46  -0.072   0.319  -0.006
    1UNL    H20   47   0.099   0.277   0.004
    1UNL    H21   48  -0.247   0.143   0.020
    1UNL    H22   49  -0.284  -0.010  -0.147
   0.00000   0.00000   0.00000   0.00000   0.00000   0.00000   0.00000   0.00000   0.00000
Generated with MDTraj, t= 31.0
 49
    1UNL     C1    1  -0.258   0.124   0.305
    1UNL     C2    2  -0.256  -0.016   0.253
    1UNL     C3    3  -0.217  -0.054   0.133
    1UNL     C4    4  -0.211  -0.188   0.080
    1UNL     N1    5  -0.170  -0.183  -0.067
    1UNL     C5    6  -0.244  -0.275  -0.165
    1UNL     C6    7  -0.024  -0.213  -0.076
    1UNL     C7    8   0.069  -0.132   0.005
    1UNL     C8    9   0.085   0.017  -0.029
    1UNL     C9   10   0.231   0.052  -0.021
    1UNL    C10   11   0.315   0.053   0.092
    1UNL    C11   12   0.445   0.078   0.072
    1UNL    C12   13   0.495   0.094  -0.054
    1UNL    C13   14   0.411   0.094  -0.170
    1UNL    C14   15   0.275   0.071  -0.156
    1UNL     N2   16   0.177   0.052  -0.256
    1UNL    C15   17   0.048   0.069  -0.174
    1UNL     O1   18   0.003   0.216  -0.170
    1UNL    C16   19  -0.002   0.246  -0.029
    1UNL    C17   20  -0.020   0.111   0.049
    1UNL    C18   21   0.022   0.129   0.197
    1UNL     O2   22   0.014   0.242   0.239
    1UNL     O3   23   0.061   0.025   0.248
    1UNL    C19   24  -0.162   0.044   0.027
    1UNL    C20   25  -0.182  -0.035  -0.114
    1UNL    C21   26  -0.077  -0.006  -0.218
    1UNL     O4   27  -0.104  -0.053  -0.327
    1UNL     H1   28  -0.244   0.131   0.412
    1UNL     H2   29  -0.356   0.167   0.291
    1UNL     H3   30  -0.192   0.198   0.261
    1UNL     H4   31  -0.294  -0.095   0.321
    1UNL     H5   32  -0.131  -0.245   0.140
    1UNL     H6   33  -0.313  -0.232   0.094
    1UNL     H7   34  -0.353  -0.267  -0.156
    1UNL     H8   35  -0.223  -0.239  -0.264
    1UNL     H9   36  -0.215  -0.382  -0.157
    1UNL    H10   37  -0.011  -0.318  -0.050
    1UNL    H11   38  -0.002  -0.212  -0.181
    1UNL    H12   39   0.167  -0.182   0.005
    1UNL    H13   40   0.042  -0.128   0.116
    1UNL    H14   41   0.288   0.053   0.199
    1UNL    H15   42   0.522   0.068   0.151
    1UNL    H16   43   0.602   0.097  -0.063
    1UNL    H17   44   0.447   0.122  -0.267
    1UNL    H18   45   0.166   0.124  -0.327
    1UNL    H19   46  -0.087   0.303   0.003
    1UNL    H20   47   0.084   0.302   0.002
    1UNL    H21   48  -0.254   0.114   0.034
    1UNL    H22   49  -0.284  -0.007  -0.148
   0.00000   0.00000   0.00000   0.00000   0.00000   0.00000   0.00000   0.00000   0.00000
Generated with MDTraj, t= 32.0
 49
    1UNL     C1    1  -0.270   0.118   0.307
    1UNL     C2    2  -0.267  -0.024   0.260
    1UNL     C3    3  -0.215  -0.051   0.140
    1UNL     C4    4  -0.220  -0.191   0.080
    1UNL     N1    5  -0.171  -0.182  -0.065
    1UNL     C5    6  -0.251  -0.269  -0.160
    1UNL     C6    7  -0.022  -0.224  -0.072
    1UNL     C7    8   0.074  -0.124   0.003
    1UNL     C8    9   0.084   0.026  -0.020
    1UNL     C9   10   0.231   0.059  -0.022
    1UNL    C10   11   0.323   0.072   0.082
    1UNL    C11   12   0.456   0.084   0.059
    1UNL    C12   13   0.501   0.091  -0.072
    1UNL    C13   14   0.423   0.077  -0.182
    1UNL    C14   15   0.285   0.067  -0.151
    1UNL     N2   16   0.176   0.061  -0.238
    1UNL    C15   17   0.041   0.066  -0.173
    1UNL     O1   18   0.026   0.212  -0.165
    1UNL    C16   19  -0.015   0.239  -0.030
    1UNL    C17   20  -0.029   0.110   0.047
    1UNL    C18   21   0.015   0.127   0.199
    1UNL     O2   22   0.017   0.242   0.241
    1UNL     O3   23   0.052   0.020   0.251
    1UNL    C19   24  -0.166   0.045   0.024
    1UNL    C20   25  -0.185  -0.033  -0.111
    1UNL    C21   26  -0.087  -0.002  -0.218
    1UNL     O4   27  -0.085  -0.045  -0.332
    1UNL     H1   28  -0.247   0.128   0.413
    1UNL     H2   29  -0.373   0.154   0.296
    1UNL     H3   30  -0.209   0.181   0.244
    1UNL     H4   31  -0.304  -0.098   0.323
    1UNL     H5   32  -0.144  -0.251   0.142
    1UNL     H6   33  -0.323  -0.233   0.085
    1UNL     H7   34  -0.350  -0.235  -0.182
    1UNL     H8   35  -0.200  -0.285  -0.258
    1UNL     H9   36  -0.264  -0.368  -0.113
    1UNL    H10   37  -0.015  -0.330  -0.050
    1UNL    H11   38   0.001  -0.217  -0.178
    1UNL    H12   39   0.174  -0.163  -0.020
    1UNL    H13   40   0.055  -0.155   0.113
    1UNL    H14   41   0.293   0.065   0.182
    1UNL    H15   42   0.522   0.081   0.142
    1UNL    H16   43   0.605   0.120  -0.081
    1UNL    H17   44   0.465   0.088  -0.280
    1UNL    H18   45   0.167   0.088  -0.338
    1UNL    H19   46  -0.110   0.288  -0.022
    1UNL    H20   47   0.060   0.296   0.024
    1UNL    H21   48  -0.259   0.113   0.009
    1UNL    H22   49  -0.286  -0.023  -0.157
   0.00000   0.00000   0.00000   0.00000   0.00000   0.00000   0.00000   0.00000   0.00000
Generated with MDTraj, t= 33.0
 49
    1UNL     C1    1  -0.284   0.122   0.313
    1UNL     C2    2  -0.268  -0.007   0.255
    1UNL     C3    3  -0.229  -0.041   0.132
    1UNL     C4    4  -0.207  -0.178   0.083
    1UNL     N1    5  -0.161  -0.173  -0.068
    1UNL     C5    6  -0.250  -0.254  -0.155
    1UNL     C6    7  -0.026  -0.227  -0.078
    1UNL     C7    8   0.075  -0.139  -0.001
    1UNL     C8    9   0.087   0.006  -0.026
    1UNL     C9   10   0.229   0.051  -0.022
    1UNL    C10   11   0.319   0.083   0.076
    1UNL    C11   12   0.448   0.119   0.046
    1UNL    C12   13   0.496   0.111  -0.080
    1UNL    C13   14   0.415   0.077  -0.183
    1UNL    C14   15   0.279   0.055  -0.158
    1UNL     N2   16   0.176   0.026  -0.250
    1UNL    C15   17   0.054   0.057  -0.174
    1UNL     O1   18   0.029   0.206  -0.157
    1UNL    C16   19   0.012   0.228  -0.024
    1UNL    C17   20  -0.014   0.097   0.055
    1UNL    C18   21   0.015   0.119   0.210
    1UNL     O2   22  -0.017   0.230   0.255
    1UNL     O3   23   0.053   0.015   0.263
    1UNL    C19   24  -0.164   0.051   0.030
    1UNL    C20   25  -0.174  -0.025  -0.108
    1UNL    C21   26  -0.077  -0.004  -0.225
    1UNL     O4   27  -0.088  -0.036  -0.337
    1UNL     H1   28  -0.273   0.109   0.421
    1UNL     H2   29  -0.393   0.141   0.304
    1UNL     H3   30  -0.224   0.200   0.268
    1UNL     H4   31  -0.302  -0.083   0.331
    1UNL     H5   32  -0.128  -0.226   0.152
    1UNL     H6   33  -0.306  -0.229   0.090
    1UNL     H7   34  -0.350  -0.220  -0.144
    1UNL     H8   35  -0.224  -0.231  -0.264
    1UNL     H9   36  -0.246  -0.364  -0.148
    1UNL    H10   37  -0.033  -0.325  -0.034
    1UNL    H11   38  -0.011  -0.236  -0.188
    1UNL    H12   39   0.168  -0.189  -0.028
    1UNL    H13   40   0.059  -0.159   0.112
    1UNL    H14   41   0.285   0.059   0.180
    1UNL    H15   42   0.512   0.152   0.131
    1UNL    H16   43   0.600   0.137  -0.091
    1UNL    H17   44   0.459   0.062  -0.285
    1UNL    H18   45   0.164   0.070  -0.344
    1UNL    H19   46  -0.072   0.298  -0.012
    1UNL    H20   47   0.109   0.265   0.010
    1UNL    H21   48  -0.242   0.137   0.033
    1UNL    H22   49  -0.268   0.005  -0.162
   0.00000   0.00000   0.00000   0.00000   0.00000   0.00000   0.00000   0.00000   0.00000
Generated with MDTraj, t= 34.0
 49
    1UNL     C1    1  -0.285   0.141   0.282
    1UNL     C2    2  -0.282  -0.001   0.248
    1UNL     C3    3  -0.226  -0.038   0.136
    1UNL     C4    4  -0.225  -0.185   0.084
    1UNL     N1    5  -0.182  -0.183  -0.064
    1UNL     C5    6  -0.265  -0.263  -0.156
    1UNL     C6    7  -0.033  -0.228  -0.072
    1UNL     C7    8   0.073  -0.150   0.012
    1UNL     C8    9   0.082   0.003  -0.026
    1UNL     C9   10   0.237   0.044  -0.022
    1UNL    C10   11   0.322   0.074   0.080
    1UNL    C11   12   0.447   0.124   0.054
    1UNL    C12   13   0.502   0.135  -0.069
    1UNL    C13   14   0.417   0.104  -0.178
    1UNL    C14   15   0.284   0.056  -0.154
    1UNL     N2   16   0.183   0.027  -0.244
    1UNL    C15   17   0.050   0.053  -0.169
    1UNL     O1   18   0.030   0.201  -0.165
    1UNL    C16   19   0.001   0.232  -0.031
    1UNL    C17   20  -0.014   0.099   0.053
    1UNL    C18   21   0.030   0.105   0.207
    1UNL     O2   22  -0.006   0.206   0.269
    1UNL     O3   23   0.111   0.021   0.245
    1UNL    C19   24  -0.166   0.055   0.020
    1UNL    C20   25  -0.179  -0.036  -0.102
    1UNL    C21   26  -0.080  -0.007  -0.219
    1UNL     O4   27  -0.104  -0.026  -0.336
    1UNL     H1   28  -0.270   0.165   0.387
    1UNL     H2   29  -0.387   0.181   0.266
    1UNL     H3   30  -0.220   0.205   0.223
    1UNL     H4   31  -0.327  -0.070   0.312
    1UNL     H5   32  -0.154  -0.247   0.144
    1UNL     H6   33  -0.328  -0.234   0.087
    1UNL     H7   34  -0.373  -0.250  -0.151
    1UNL     H8   35  -0.230  -0.228  -0.259
    1UNL     H9   36  -0.240  -0.368  -0.156
    1UNL    H10   37  -0.034  -0.332  -0.057
    1UNL    H11   38  -0.013  -0.213  -0.181
    1UNL    H12   39   0.170  -0.199  -0.003
    1UNL    H13   40   0.065  -0.149   0.127
    1UNL    H14   41   0.291   0.064   0.179
    1UNL    H15   42   0.506   0.151   0.136
    1UNL    H16   43   0.603   0.170  -0.077
    1UNL    H17   44   0.460   0.107  -0.272
    1UNL    H18   45   0.185   0.085  -0.330
    1UNL    H19   46  -0.098   0.283  -0.026
    1UNL    H20   47   0.089   0.291   0.006
    1UNL    H21   48  -0.241   0.141   0.012
    1UNL    H22   49  -0.273  -0.016  -0.162
   0.00000   0.00000   0.00000   0.00000   0.00000   0.00000   0.00000   0.00000   0.00000
Generated with MDTraj, t= 35.0
 49
    1UNL     C1    1  -0.306   0.145   0.290
    1UNL     C2    2  -0.277   0.002   0.244
    1UNL     C3    3  -0.224  -0.035   0.131
    1UNL     C4    4  -0.202  -0.173   0.091
    1UNL     N1    5  -0.174  -0.174  -0.065
    1UNL     C5    6  -0.269  -0.269  -0.135
    1UNL     C6    7  -0.029  -0.223  -0.079
    1UNL     C7    8   0.082  -0.142  -0.014
    1UNL     C8    9   0.096   0.012  -0.032
    1UNL     C9   10   0.243   0.049  -0.036
    1UNL    C10   11   0.322   0.063   0.079
    1UNL    C11   12   0.457   0.099   0.058
    1UNL    C12   13   0.493   0.126  -0.075
    1UNL    C13   14   0.418   0.103  -0.185
    1UNL    C14   15   0.288   0.057  -0.169
    1UNL     N2   16   0.177   0.054  -0.260
    1UNL    C15   17   0.051   0.063  -0.179
    1UNL     O1   18   0.022   0.202  -0.161
    1UNL    C16   19   0.010   0.234  -0.015
    1UNL    C17   20  -0.010   0.099   0.053
    1UNL    C18   21   0.020   0.105   0.206
    1UNL     O2   22  -0.008   0.210   0.267
    1UNL     O3   23   0.057   0.002   0.262
    1UNL    C19   24  -0.162   0.054   0.027
    1UNL    C20   25  -0.183  -0.025  -0.103
    1UNL    C21   26  -0.078  -0.010  -0.212
    1UNL     O4   27  -0.083  -0.061  -0.324
    1UNL     H1   28  -0.348   0.142   0.391
    1UNL     H2   29  -0.386   0.181   0.225
    1UNL     H3   30  -0.221   0.214   0.277
    1UNL     H4   31  -0.306  -0.079   0.316
    1UNL     H5   32  -0.119  -0.220   0.147
    1UNL     H6   33  -0.294  -0.240   0.108
    1UNL     H7   34  -0.372  -0.221  -0.133
    1UNL     H8   35  -0.237  -0.289  -0.237
    1UNL     H9   36  -0.278  -0.362  -0.079
    1UNL    H10   37  -0.030  -0.326  -0.055
    1UNL    H11   38  -0.012  -0.208  -0.189
    1UNL    H12   39   0.184  -0.184  -0.017
    1UNL    H13   40   0.061  -0.150   0.098
    1UNL    H14   41   0.276   0.076   0.178
    1UNL    H15   42   0.523   0.127   0.144
    1UNL    H16   43   0.593   0.166  -0.091
    1UNL    H17   44   0.470   0.133  -0.281
    1UNL    H18   45   0.165   0.133  -0.323
    1UNL    H19   46  -0.077   0.298   0.019
    1UNL    H20   47   0.112   0.277   0.009
    1UNL    H21   48  -0.224   0.151   0.029
    1UNL    H22   49  -0.278  -0.023  -0.164
   0.00000   0.00000   0.00000   0.00000   0.00000   0.00000   0.00000   0.00000   0.00000
Generated with MDTraj, t= 36.0
 49
    1UNL     C1    1  -0.301   0.154   0.277
    1UNL     C2    2  -0.287   0.001   0.244
    1UNL     C3    3  -0.231  -0.043   0.134
    1UNL     C4    4  -0.206  -0.179   0.092
    1UNL     N1    5  -0.160  -0.180  -0.062
    1UNL     C5    6  -0.247  -0.273  -0.144
    1UNL     C6    7  -0.010  -0.223  -0.075
    1UNL     C7    8   0.085  -0.135  -0.001
    1UNL     C8    9   0.091   0.017  -0.028
    1UNL     C9   10   0.232   0.065  -0.030
    1UNL    C10   11   0.318   0.069   0.081
    1UNL    C11   12   0.451   0.078   0.051
    1UNL    C12   13   0.496   0.101  -0.079
    1UNL    C13   14   0.416   0.101  -0.191
    1UNL    C14   15   0.285   0.073  -0.164
    1UNL     N2   16   0.179   0.059  -0.248
    1UNL    C15   17   0.049   0.066  -0.165
    1UNL     O1   18   0.010   0.208  -0.155
    1UNL    C16   19  -0.014   0.236  -0.015
    1UNL    C17   20  -0.020   0.100   0.062
    1UNL    C18   21   0.019   0.104   0.203
    1UNL     O2   22   0.042   0.210   0.255
    1UNL     O3   23   0.044   0.000   0.259
    1UNL    C19   24  -0.171   0.051   0.026
    1UNL    C20   25  -0.182  -0.034  -0.104
    1UNL    C21   26  -0.077  -0.009  -0.218
    1UNL     O4   27  -0.091  -0.047  -0.330
    1UNL     H1   28  -0.391   0.172   0.338
    1UNL     H2   29  -0.318   0.207   0.184
    1UNL     H3   30  -0.209   0.202   0.316
    1UNL     H4   31  -0.318  -0.068   0.317
    1UNL     H5   32  -0.121  -0.234   0.134
    1UNL     H6   33  -0.296  -0.248   0.113
    1UNL     H7   34  -0.355  -0.235  -0.148
    1UNL     H8   35  -0.206  -0.270  -0.241
    1UNL     H9   36  -0.251  -0.376  -0.101
    1UNL    H10   37  -0.003  -0.316  -0.022
    1UNL    H11   38   0.020  -0.225  -0.184
    1UNL    H12   39   0.187  -0.170  -0.022
    1UNL    H13   40   0.077  -0.161   0.109
    1UNL    H14   41   0.274   0.087   0.178
    1UNL    H15   42   0.519   0.098   0.129
    1UNL    H16   43   0.602   0.113  -0.090
    1UNL    H17   44   0.446   0.110  -0.291
    1UNL    H18   45   0.166   0.108  -0.335
    1UNL    H19   46  -0.106   0.301  -0.007
    1UNL    H20   47   0.081   0.290   0.012
    1UNL    H21   48  -0.235   0.145   0.024
    1UNL    H22   49  -0.282  -0.026  -0.155
   0.00000   0.00000   0.00000   0.00000   0.00000   0.00000   0.00000   0.00000   0.00000
Generated with MDTraj, t= 37.0
 49
    1UNL     C1    1  -0.268   0.129   0.296
    1UNL     C2    2  -0.267  -0.014   0.249
    1UNL     C3    3  -0.228  -0.043   0.130
    1UNL     C4    4  -0.212  -0.181   0.093
    1UNL     N1    5  -0.167  -0.177  -0.057
    1UNL     C5    6  -0.248  -0.265  -0.153
    1UNL     C6    7  -0.018  -0.231  -0.073
    1UNL     C7    8   0.075  -0.145   0.012
    1UNL     C8    9   0.084   0.011  -0.028
    1UNL     C9   10   0.235   0.057  -0.025
    1UNL    C10   11   0.325   0.076   0.079
    1UNL    C11   12   0.457   0.100   0.059
    1UNL    C12   13   0.507   0.103  -0.072
    1UNL    C13   14   0.413   0.100  -0.177
    1UNL    C14   15   0.278   0.065  -0.156
    1UNL     N2   16   0.168   0.042  -0.246
    1UNL    C15   17   0.043   0.063  -0.174
    1UNL     O1   18   0.019   0.203  -0.158
    1UNL    C16   19  -0.013   0.236  -0.026
    1UNL    C17   20  -0.025   0.098   0.047
    1UNL    C18   21   0.017   0.117   0.197
    1UNL     O2   22   0.032   0.229   0.247
    1UNL     O3   23   0.033   0.013   0.260
    1UNL    C19   24  -0.172   0.048   0.021
    1UNL    C20   25  -0.176  -0.039  -0.109
    1UNL    C21   26  -0.078  -0.000  -0.221
    1UNL     O4   27  -0.093  -0.027  -0.336
    1UNL     H1   28  -0.314   0.145   0.395
    1UNL     H2   29  -0.333   0.191   0.234
    1UNL     H3   30  -0.175   0.189   0.289
    1UNL     H4   31  -0.293  -0.098   0.314
    1UNL     H5   32  -0.137  -0.241   0.149
    1UNL     H6   33  -0.307  -0.245   0.098
    1UNL     H7   34  -0.358  -0.251  -0.142
    1UNL     H8   35  -0.213  -0.233  -0.250
    1UNL     H9   36  -0.224  -0.374  -0.137
    1UNL    H10   37  -0.011  -0.336  -0.058
    1UNL    H11   38   0.013  -0.199  -0.177
    1UNL    H12   39   0.178  -0.186   0.007
    1UNL    H13   40   0.053  -0.156   0.120
    1UNL    H14   41   0.279   0.076   0.177
    1UNL    H15   42   0.522   0.119   0.146
    1UNL    H16   43   0.614   0.106  -0.093
    1UNL    H17   44   0.455   0.077  -0.276
    1UNL    H18   45   0.171   0.086  -0.335
    1UNL    H19   46  -0.109   0.293  -0.023
    1UNL    H20   47   0.075   0.296   0.006
    1UNL    H21   48  -0.239   0.142   0.014
    1UNL    H22   49  -0.273  -0.027  -0.164
   0.00000   0.00000   0.00000   0.00000   0.00000   0.00000   0.00000   0.00000   0.00000
Generated with MDTraj, t= 38.0
 49
    1UNL     C1    1  -0.256   0.101   0.331
    1UNL     C2    2  -0.252  -0.029   0.257
    1UNL     C3    3  -0.215  -0.051   0.133
    1UNL     C4    4  -0.217  -0.186   0.075
    1UNL     N1    5  -0.177  -0.170  -0.074
    1UNL     C5    6  -0.270  -0.257  -0.166
    1UNL     C6    7  -0.038  -0.218  -0.084
    1UNL     C7    8   0.062  -0.143   0.005
    1UNL     C8    9   0.083   0.008  -0.022
    1UNL     C9   10   0.229   0.043  -0.026
    1UNL    C10   11   0.302   0.078   0.081
    1UNL    C11   12   0.435   0.124   0.061
    1UNL    C12   13   0.501   0.123  -0.062
    1UNL    C13   14   0.419   0.087  -0.170
    1UNL    C14   15   0.287   0.045  -0.149
    1UNL     N2   16   0.182   0.029  -0.243
    1UNL    C15   17   0.052   0.061  -0.179
    1UNL     O1   18   0.028   0.199  -0.168
    1UNL    C16   19   0.015   0.231  -0.029
    1UNL    C17   20  -0.012   0.102   0.049
    1UNL    C18   21   0.022   0.134   0.192
    1UNL     O2   22  -0.008   0.242   0.239
    1UNL     O3   23   0.071   0.039   0.251
    1UNL    C19   24  -0.161   0.056   0.032
    1UNL    C20   25  -0.181  -0.020  -0.108
    1UNL    C21   26  -0.076  -0.011  -0.218
    1UNL     O4   27  -0.098  -0.050  -0.333
    1UNL     H1   28  -0.322   0.086   0.419
    1UNL     H2   29  -0.310   0.174   0.271
    1UNL     H3   30  -0.157   0.149   0.348
    1UNL     H4   31  -0.286  -0.108   0.323
    1UNL     H5   32  -0.155  -0.259   0.134
    1UNL     H6   33  -0.319  -0.232   0.075
    1UNL     H7   34  -0.363  -0.220  -0.127
    1UNL     H8   35  -0.252  -0.227  -0.271
    1UNL     H9   36  -0.273  -0.370  -0.155
    1UNL    H10   37  -0.044  -0.318  -0.047
    1UNL    H11   38  -0.012  -0.232  -0.192
    1UNL    H12   39   0.159  -0.196  -0.001
    1UNL    H13   40   0.049  -0.146   0.115
    1UNL    H14   41   0.261   0.072   0.183
    1UNL    H15   42   0.481   0.174   0.143
    1UNL    H16   43   0.608   0.135  -0.068
    1UNL    H17   44   0.469   0.077  -0.267
    1UNL    H18   45   0.193   0.070  -0.334
    1UNL    H19   46  -0.062   0.307  -0.023
    1UNL    H20   47   0.108   0.267   0.015
    1UNL    H21   48  -0.232   0.148   0.034
    1UNL    H22   49  -0.280  -0.004  -0.159
   0.00000   0.00000   0.00000   0.00000   0.00000   0.00000   0.00000   0.00000   0.00000
Generated with MDTraj, t= 39.0
 49
    1UNL     C1    1  -0.234   0.104   0.329
    1UNL     C2    2  -0.250  -0.028   0.265
    1UNL     C3    3  -0.219  -0.048   0.136
    1UNL     C4    4  -0.244  -0.181   0.060
    1UNL     N1    5  -0.185  -0.177  -0.072
    1UNL     C5    6  -0.264  -0.262  -0.179
    1UNL     C6    7  -0.038  -0.225  -0.064
    1UNL     C7    8   0.067  -0.137   0.007
    1UNL     C8    9   0.083   0.015  -0.026
    1UNL     C9   10   0.234   0.057  -0.019
    1UNL    C10   11   0.321   0.075   0.084
    1UNL    C11   12   0.454   0.110   0.062
    1UNL    C12   13   0.500   0.126  -0.067
    1UNL    C13   14   0.424   0.086  -0.180
    1UNL    C14   15   0.290   0.046  -0.153
    1UNL     N2   16   0.178   0.027  -0.237
    1UNL    C15   17   0.051   0.058  -0.168
    1UNL     O1   18   0.043   0.201  -0.162
    1UNL    C16   19  -0.006   0.231  -0.032
    1UNL    C17   20  -0.027   0.098   0.049
    1UNL    C18   21   0.014   0.134   0.191
    1UNL     O2   22  -0.017   0.241   0.239
    1UNL     O3   23   0.075   0.042   0.241
    1UNL    C19   24  -0.169   0.046   0.027
    1UNL    C20   25  -0.188  -0.029  -0.109
    1UNL    C21   26  -0.078  -0.007  -0.213
    1UNL     O4   27  -0.090  -0.040  -0.327
    1UNL     H1   28  -0.330   0.117   0.384
    1UNL     H2   29  -0.228   0.190   0.261
    1UNL     H3   30  -0.143   0.115   0.390
    1UNL     H4   31  -0.286  -0.103   0.332
    1UNL     H5   32  -0.191  -0.273   0.102
    1UNL     H6   33  -0.349  -0.216   0.065
    1UNL     H7   34  -0.364  -0.237  -0.208
    1UNL     H8   35  -0.191  -0.274  -0.266
    1UNL     H9   36  -0.273  -0.361  -0.133
    1UNL    H10   37  -0.042  -0.328  -0.031
    1UNL    H11   38  -0.002  -0.231  -0.170
    1UNL    H12   39   0.165  -0.189   0.007
    1UNL    H13   40   0.040  -0.138   0.113
    1UNL    H14   41   0.275   0.071   0.178
    1UNL    H15   42   0.514   0.137   0.149
    1UNL    H16   43   0.598   0.168  -0.081
    1UNL    H17   44   0.450   0.091  -0.281
    1UNL    H18   45   0.181   0.073  -0.328
    1UNL    H19   46  -0.097   0.284  -0.053
    1UNL    H20   47   0.059   0.295   0.022
    1UNL    H21   48  -0.246   0.133   0.030
    1UNL    H22   49  -0.288  -0.004  -0.152
   0.00000   0.00000   0.00000   0.00000   0.00000   0.00000   0.00000   0.00000   0.00000
Generated with MDTraj, t= 40.0
 49
    1UNL     C1    1  -0.261   0.110   0.320
    1UNL     C2    2  -0.257  -0.017   0.257
    1UNL     C3    3  -0.216  -0.044   0.134
    1UNL     C4    4  -0.210  -0.190   0.081
    1UNL     N1    5  -0.165  -0.180  -0.066
    1UNL     C5    6  -0.237  -0.260  -0.171
    1UNL     C6    7  -0.020  -0.215  -0.082
    1UNL     C7    8   0.084  -0.134   0.001
    1UNL     C8    9   0.088   0.016  -0.026
    1UNL     C9   10   0.234   0.059  -0.026
    1UNL    C10   11   0.311   0.065   0.087
    1UNL    C11   12   0.443   0.092   0.067
    1UNL    C12   13   0.494   0.089  -0.068
    1UNL    C13   14   0.412   0.078  -0.178
    1UNL    C14   15   0.277   0.060  -0.159
    1UNL     N2   16   0.166   0.039  -0.247
    1UNL    C15   17   0.047   0.068  -0.172
    1UNL     O1   18   0.017   0.214  -0.165
    1UNL    C16   19  -0.005   0.247  -0.029
    1UNL    C17   20  -0.025   0.102   0.047
    1UNL    C18   21   0.012   0.132   0.198
    1UNL     O2   22   0.025   0.248   0.241
    1UNL     O3   23   0.030   0.032   0.266
    1UNL    C19   24  -0.164   0.047   0.025
    1UNL    C20   25  -0.185  -0.038  -0.108
    1UNL    C21   26  -0.079  -0.006  -0.220
    1UNL     O4   27  -0.095  -0.048  -0.331
    1UNL     H1   28  -0.311   0.088   0.417
    1UNL     H2   29  -0.329   0.187   0.278
    1UNL     H3   30  -0.166   0.162   0.331
    1UNL     H4   31  -0.291  -0.105   0.317
    1UNL     H5   32  -0.142  -0.240   0.159
    1UNL     H6   33  -0.297  -0.257   0.094
    1UNL     H7   34  -0.346  -0.246  -0.170
    1UNL     H8   35  -0.193  -0.241  -0.275
    1UNL     H9   36  -0.227  -0.365  -0.146
    1UNL    H10   37  -0.003  -0.319  -0.054
    1UNL    H11   38  -0.000  -0.209  -0.190
    1UNL    H12   39   0.182  -0.182  -0.019
    1UNL    H13   40   0.066  -0.159   0.105
    1UNL    H14   41   0.265   0.065   0.189
    1UNL    H15   42   0.506   0.106   0.154
    1UNL    H16   43   0.598   0.106  -0.089
    1UNL    H17   44   0.447   0.085  -0.285
    1UNL    H18   45   0.158   0.077  -0.343
    1UNL    H19   46  -0.083   0.318  -0.011
    1UNL    H20   47   0.088   0.294   0.000
    1UNL    H21   48  -0.240   0.133   0.012
    1UNL    H22   49  -0.282  -0.007  -0.151
   0.00000   0.00000   0.00000   0.00000   0.00000   0.00000   0.00000   0.00000   0.00000
Generated with MDTraj, t= 41.0
 49
    1UNL     C1    1  -0.286   0.135   0.288
    1UNL     C2    2  -0.276  -0.012   0.253
    1UNL     C3    3  -0.225  -0.052   0.134
    1UNL     C4    4  -0.199  -0.189   0.090
    1UNL     N1    5  -0.163  -0.192  -0.058
    1UNL     C5    6  -0.258  -0.275  -0.138
    1UNL     C6    7  -0.020  -0.234  -0.079
    1UNL     C7    8   0.078  -0.132  -0.000
    1UNL     C8    9   0.081   0.025  -0.030
    1UNL     C9   10   0.227   0.066  -0.025
    1UNL    C10   11   0.312   0.075   0.089
    1UNL    C11   12   0.453   0.085   0.064
    1UNL    C12   13   0.504   0.089  -0.069
    1UNL    C13   14   0.419   0.080  -0.175
    1UNL    C14   15   0.280   0.075  -0.152
    1UNL     N2   16   0.179   0.062  -0.247
    1UNL    C15   17   0.047   0.072  -0.177
    1UNL     O1   18  -0.003   0.213  -0.168
    1UNL    C16   19  -0.015   0.250  -0.025
    1UNL    C17   20  -0.023   0.111   0.049
    1UNL    C18   21   0.026   0.113   0.197
    1UNL     O2   22   0.038   0.225   0.245
    1UNL     O3   23   0.053   0.008   0.253
    1UNL    C19   24  -0.164   0.046   0.026
    1UNL    C20   25  -0.174  -0.037  -0.106
    1UNL    C21   26  -0.074  -0.001  -0.223
    1UNL     O4   27  -0.094  -0.026  -0.340
    1UNL     H1   28  -0.354   0.143   0.375
    1UNL     H2   29  -0.336   0.195   0.208
    1UNL     H3   30  -0.187   0.179   0.296
    1UNL     H4   31  -0.311  -0.080   0.324
    1UNL     H5   32  -0.138  -0.250   0.166
    1UNL     H6   33  -0.295  -0.239   0.111
    1UNL     H7   34  -0.366  -0.257  -0.112
    1UNL     H8   35  -0.240  -0.268  -0.247
    1UNL     H9   36  -0.249  -0.378  -0.105
    1UNL    H10   37  -0.009  -0.338  -0.040
    1UNL    H11   38   0.011  -0.254  -0.182
    1UNL    H12   39   0.180  -0.176  -0.014
    1UNL    H13   40   0.066  -0.139   0.106
    1UNL    H14   41   0.280   0.052   0.186
    1UNL    H15   42   0.528   0.085   0.141
    1UNL    H16   43   0.610   0.082  -0.084
    1UNL    H17   44   0.451   0.085  -0.274
    1UNL    H18   45   0.189   0.074  -0.350
    1UNL    H19   46  -0.101   0.317  -0.019
    1UNL    H20   47   0.071   0.305   0.021
    1UNL    H21   48  -0.252   0.121   0.020
    1UNL    H22   49  -0.277  -0.021  -0.145
   0.00000   0.00000   0.00000   0.00000   0.00000   0.00000   0.00000   0.00000   0.00000
Generated with MDTraj, t= 42.0
 49
    1UNL     C1    1  -0.301   0.156   0.288
    1UNL     C2    2  -0.280   0.005   0.247
    1UNL     C3    3  -0.219  -0.038   0.136
    1UNL     C4    4  -0.213  -0.179   0.086
    1UNL     N1    5  -0.170  -0.181  -0.057
    1UNL     C5    6  -0.258  -0.257  -0.149
    1UNL     C6    7  -0.023  -0.230  -0.077
    1UNL     C7    8   0.077  -0.141  -0.001
    1UNL     C8    9   0.085   0.008  -0.037
    1UNL     C9   10   0.236   0.047  -0.025
    1UNL    C10   11   0.330   0.062   0.074
    1UNL    C11   12   0.460   0.105   0.050
    1UNL    C12   13   0.500   0.133  -0.079
    1UNL    C13   14   0.411   0.113  -0.181
    1UNL    C14   15   0.283   0.063  -0.160
    1UNL     N2   16   0.181   0.038  -0.253
    1UNL    C15   17   0.050   0.062  -0.176
    1UNL     O1   18   0.021   0.203  -0.159
    1UNL    C16   19   0.014   0.233  -0.018
    1UNL    C17   20  -0.011   0.100   0.048
    1UNL    C18   21   0.022   0.102   0.207
    1UNL     O2   22  -0.022   0.202   0.269
    1UNL     O3   23   0.073  -0.002   0.256
    1UNL    C19   24  -0.160   0.057   0.028
    1UNL    C20   25  -0.181  -0.028  -0.102
    1UNL    C21   26  -0.084  -0.004  -0.217
    1UNL     O4   27  -0.090  -0.052  -0.327
    1UNL     H1   28  -0.370   0.164   0.374
    1UNL     H2   29  -0.343   0.218   0.205
    1UNL     H3   30  -0.202   0.201   0.296
    1UNL     H4   31  -0.309  -0.082   0.312
    1UNL     H5   32  -0.136  -0.244   0.138
    1UNL     H6   33  -0.303  -0.236   0.115
    1UNL     H7   34  -0.365  -0.224  -0.126
    1UNL     H8   35  -0.242  -0.242  -0.254
    1UNL     H9   36  -0.263  -0.364  -0.123
    1UNL    H10   37  -0.003  -0.340  -0.060
    1UNL    H11   38  -0.003  -0.228  -0.184
    1UNL    H12   39   0.182  -0.181   0.007
    1UNL    H13   40   0.049  -0.133   0.101
    1UNL    H14   41   0.288   0.030   0.172
    1UNL    H15   42   0.536   0.096   0.129
    1UNL    H16   43   0.595   0.177  -0.106
    1UNL    H17   44   0.435   0.127  -0.288
    1UNL    H18   45   0.184   0.083  -0.346
    1UNL    H19   46  -0.074   0.299  -0.002
    1UNL    H20   47   0.103   0.289   0.027
    1UNL    H21   48  -0.238   0.143   0.029
    1UNL    H22   49  -0.283  -0.011  -0.141
   0.00000   0.00000   0.00000   0.00000   0.00000   0.00000   0.00000   0.00000   0.00000
Generated with MDTraj, t= 43.0
 49
    1UNL     C1    1  -0.317   0.149   0.287
    1UNL     C2    2  -0.304   0.009   0.236
    1UNL     C3    3  -0.233  -0.034   0.136
    1UNL     C4    4  -0.219  -0.172   0.094
    1UNL     N1    5  -0.183  -0.172  -0.057
    1UNL     C5    6  -0.272  -0.261  -0.159
    1UNL     C6    7  -0.036  -0.214  -0.082
    1UNL     C7    8   0.082  -0.148  -0.006
    1UNL     C8    9   0.095  -0.002  -0.027
    1UNL     C9   10   0.244   0.039  -0.034
    1UNL    C10   11   0.314   0.084   0.072
    1UNL    C11   12   0.441   0.130   0.049
    1UNL    C12   13   0.494   0.139  -0.080
    1UNL    C13   14   0.412   0.101  -0.186
    1UNL    C14   15   0.287   0.055  -0.164
    1UNL     N2   16   0.176   0.035  -0.251
    1UNL    C15   17   0.057   0.050  -0.167
    1UNL     O1   18   0.034   0.210  -0.144
    1UNL    C16   19   0.020   0.226  -0.006
    1UNL    C17   20  -0.000   0.089   0.058
    1UNL    C18   21   0.039   0.099   0.208
    1UNL     O2   22  -0.012   0.195   0.267
    1UNL     O3   23   0.114   0.011   0.253
    1UNL    C19   24  -0.157   0.051   0.027
    1UNL    C20   25  -0.182  -0.033  -0.104
    1UNL    C21   26  -0.077  -0.016  -0.216
    1UNL     O4   27  -0.089  -0.054  -0.327
    1UNL     H1   28  -0.392   0.158   0.367
    1UNL     H2   29  -0.348   0.222   0.211
    1UNL     H3   30  -0.216   0.190   0.307
    1UNL     H4   31  -0.350  -0.072   0.283
    1UNL     H5   32  -0.152  -0.230   0.162
    1UNL     H6   33  -0.313  -0.230   0.096
    1UNL     H7   34  -0.374  -0.216  -0.164
    1UNL     H8   35  -0.242  -0.262  -0.261
    1UNL     H9   36  -0.292  -0.364  -0.117
    1UNL    H10   37  -0.030  -0.324  -0.058
    1UNL    H11   38  -0.009  -0.220  -0.187
    1UNL    H12   39   0.177  -0.191  -0.052
    1UNL    H13   40   0.078  -0.179   0.093
    1UNL    H14   41   0.273   0.076   0.171
    1UNL    H15   42   0.494   0.161   0.134
    1UNL    H16   43   0.589   0.186  -0.096
    1UNL    H17   44   0.446   0.122  -0.285
    1UNL    H18   45   0.167   0.078  -0.344
    1UNL    H19   46  -0.062   0.299   0.013
    1UNL    H20   47   0.112   0.282   0.034
    1UNL    H21   48  -0.212   0.152   0.016
    1UNL    H22   49  -0.281  -0.015  -0.150
   0.00000   0.00000   0.00000   0.00000   0.00000   0.00000   0.00000   0.00000   0.00000
Generated with MDTraj, t= 44.0
 49
    1UNL     C1    1  -0.307   0.150   0.278
    1UNL     C2    2  -0.266   0.011   0.254
    1UNL     C3    3  -0.213  -0.042   0.144
    1UNL     C4    4  -0.205  -0.179   0.086
    1UNL     N1    5  -0.167  -0.176  -0.061
    1UNL     C5    6  -0.264  -0.265  -0.138
    1UNL     C6    7  -0.031  -0.226  -0.075
    1UNL     C7    8   0.073  -0.141   0.007
    1UNL     C8    9   0.091   0.008  -0.030
    1UNL     C9   10   0.235   0.052  -0.031
    1UNL    C10   11   0.321   0.081   0.078
    1UNL    C11   12   0.458   0.110   0.053
    1UNL    C12   13   0.502   0.127  -0.076
    1UNL    C13   14   0.418   0.095  -0.185
    1UNL    C14   15   0.283   0.066  -0.162
    1UNL     N2   16   0.174   0.032  -0.251
    1UNL    C15   17   0.052   0.061  -0.172
    1UNL     O1   18   0.033   0.199  -0.158
    1UNL    C16   19   0.003   0.227  -0.019
    1UNL    C17   20  -0.017   0.095   0.055
    1UNL    C18   21   0.013   0.097   0.203
    1UNL     O2   22  -0.013   0.202   0.263
    1UNL     O3   23   0.074  -0.002   0.249
    1UNL    C19   24  -0.163   0.038   0.019
    1UNL    C20   25  -0.177  -0.035  -0.109
    1UNL    C21   26  -0.075   0.002  -0.214
    1UNL     O4   27  -0.098  -0.019  -0.330
    1UNL     H1   28  -0.373   0.149   0.366
    1UNL     H2   29  -0.361   0.197   0.196
    1UNL     H3   30  -0.216   0.213   0.290
    1UNL     H4   31  -0.294  -0.064   0.333
    1UNL     H5   32  -0.132  -0.248   0.129
    1UNL     H6   33  -0.302  -0.231   0.104
    1UNL     H7   34  -0.369  -0.233  -0.137
    1UNL     H8   35  -0.234  -0.249  -0.242
    1UNL     H9   36  -0.256  -0.373  -0.108
    1UNL    H10   37  -0.033  -0.335  -0.041
    1UNL    H11   38  -0.004  -0.243  -0.178
    1UNL    H12   39   0.167  -0.202  -0.006
    1UNL    H13   40   0.050  -0.143   0.108
    1UNL    H14   41   0.290   0.072   0.178
    1UNL    H15   42   0.531   0.128   0.134
    1UNL    H16   43   0.601   0.167  -0.098
    1UNL    H17   44   0.453   0.113  -0.285
    1UNL    H18   45   0.159   0.068  -0.344
    1UNL    H19   46  -0.082   0.297  -0.012
    1UNL    H20   47   0.092   0.287   0.015
    1UNL    H21   48  -0.232   0.130   0.008
    1UNL    H22   49  -0.275  -0.025  -0.159
   0.00000   0.00000   0.00000   0.00000   0.00000   0.00000   0.00000   0.00000   0.00000
Generated with MDTraj, t= 45.0
 49
    1UNL     C1    1  -0.286   0.119   0.304
    1UNL     C2    2  -0.286  -0.014   0.253
    1UNL     C3    3  -0.221  -0.036   0.140
    1UNL     C4    4  -0.197  -0.177   0.085
    1UNL     N1    5  -0.156  -0.182  -0.069
    1UNL     C5    6  -0.246  -0.267  -0.147
    1UNL     C6    7  -0.014  -0.227  -0.080
    1UNL     C7    8   0.078  -0.139   0.003
    1UNL     C8    9   0.082   0.019  -0.027
    1UNL     C9   10   0.227   0.053  -0.027
    1UNL    C10   11   0.316   0.062   0.078
    1UNL    C11   12   0.448   0.086   0.056
    1UNL    C12   13   0.506   0.091  -0.070
    1UNL    C13   14   0.422   0.090  -0.180
    1UNL    C14   15   0.280   0.075  -0.159
    1UNL     N2   16   0.173   0.052  -0.243
    1UNL    C15   17   0.044   0.071  -0.175
    1UNL     O1   18   0.009   0.211  -0.165
    1UNL    C16   19  -0.009   0.241  -0.024
    1UNL    C17   20  -0.013   0.104   0.051
    1UNL    C18   21   0.021   0.118   0.196
    1UNL     O2   22   0.019   0.235   0.242
    1UNL     O3   23   0.047   0.018   0.266
    1UNL    C19   24  -0.164   0.051   0.027
    1UNL    C20   25  -0.184  -0.035  -0.106
    1UNL    C21   26  -0.080  -0.010  -0.218
    1UNL     O4   27  -0.097  -0.042  -0.335
    1UNL     H1   28  -0.327   0.118   0.407
    1UNL     H2   29  -0.355   0.182   0.248
    1UNL     H3   30  -0.182   0.158   0.302
    1UNL     H4   31  -0.325  -0.093   0.309
    1UNL     H5   32  -0.120  -0.219   0.149
    1UNL     H6   33  -0.284  -0.246   0.106
    1UNL     H7   34  -0.344  -0.238  -0.118
    1UNL     H8   35  -0.238  -0.242  -0.258
    1UNL     H9   36  -0.227  -0.373  -0.124
    1UNL    H10   37  -0.009  -0.340  -0.069
    1UNL    H11   38   0.011  -0.221  -0.185
    1UNL    H12   39   0.187  -0.169  -0.007
    1UNL    H13   40   0.056  -0.156   0.105
    1UNL    H14   41   0.270   0.055   0.181
    1UNL    H15   42   0.510   0.075   0.141
    1UNL    H16   43   0.611   0.108  -0.086
    1UNL    H17   44   0.459   0.103  -0.283
    1UNL    H18   45   0.178   0.092  -0.335
    1UNL    H19   46  -0.093   0.299   0.009
    1UNL    H20   47   0.080   0.303  -0.006
    1UNL    H21   48  -0.217   0.153   0.021
    1UNL    H22   49  -0.282  -0.020  -0.154
   0.00000   0.00000   0.00000   0.00000   0.00000   0.00000   0.00000   0.00000   0.00000
Generated with MDTraj, t= 46.0
 49
    1UNL     C1    1  -0.261   0.115   0.314
    1UNL     C2    2  -0.257  -0.024   0.252
    1UNL     C3    3  -0.217  -0.054   0.129
    1UNL     C4    4  -0.223  -0.197   0.073
    1UNL     N1    5  -0.172  -0.179  -0.072
    1UNL     C5    6  -0.248  -0.265  -0.162
    1UNL     C6    7  -0.024  -0.214  -0.076
    1UNL     C7    8   0.066  -0.130   0.004
    1UNL     C8    9   0.081   0.019  -0.031
    1UNL     C9   10   0.229   0.056  -0.018
    1UNL    C10   11   0.318   0.073   0.087
    1UNL    C11   12   0.451   0.085   0.065
    1UNL    C12   13   0.499   0.084  -0.068
    1UNL    C13   14   0.412   0.078  -0.177
    1UNL    C14   15   0.276   0.065  -0.151
    1UNL     N2   16   0.177   0.066  -0.254
    1UNL    C15   17   0.046   0.081  -0.176
    1UNL     O1   18   0.000   0.216  -0.159
    1UNL    C16   19  -0.029   0.242  -0.026
    1UNL    C17   20  -0.014   0.110   0.054
    1UNL    C18   21   0.031   0.131   0.191
    1UNL     O2   22   0.037   0.245   0.234
    1UNL     O3   23   0.049   0.030   0.255
    1UNL    C19   24  -0.167   0.041   0.027
    1UNL    C20   25  -0.185  -0.033  -0.107
    1UNL    C21   26  -0.072  -0.004  -0.216
    1UNL     O4   27  -0.078  -0.061  -0.321
    1UNL     H1   28  -0.323   0.119   0.407
    1UNL     H2   29  -0.317   0.184   0.251
    1UNL     H3   30  -0.158   0.145   0.343
    1UNL     H4   31  -0.293  -0.103   0.319
    1UNL     H5   32  -0.174  -0.261   0.147
    1UNL     H6   33  -0.330  -0.231   0.067
    1UNL     H7   34  -0.349  -0.232  -0.181
    1UNL     H8   35  -0.192  -0.265  -0.263
    1UNL     H9   36  -0.242  -0.360  -0.111
    1UNL    H10   37  -0.011  -0.323  -0.049
    1UNL    H11   38   0.006  -0.204  -0.180
    1UNL    H12   39   0.170  -0.170  -0.009
    1UNL    H13   40   0.042  -0.137   0.109
    1UNL    H14   41   0.283   0.065   0.184
    1UNL    H15   42   0.517   0.094   0.153
    1UNL    H16   43   0.606   0.078  -0.069
    1UNL    H17   44   0.453   0.096  -0.272
    1UNL    H18   45   0.182  -0.021  -0.303
    1UNL    H19   46  -0.126   0.284  -0.018
    1UNL    H20   47   0.042   0.319   0.001
    1UNL    H21   48  -0.237   0.131   0.028
    1UNL    H22   49  -0.285  -0.022  -0.151
   0.00000   0.00000   0.00000   0.00000   0.00000   0.00000   0.00000   0.00000   0.00000
Generated with MDTraj, t= 47.0
 49
    1UNL     C1    1  -0.242   0.115   0.333
    1UNL     C2    2  -0.238  -0.030   0.268
    1UNL     C3    3  -0.208  -0.047   0.137
    1UNL     C4    4  -0.225  -0.182   0.070
    1UNL     N1    5  -0.170  -0.176  -0.071
    1UNL     C5    6  -0.254  -0.265  -0.165
    1UNL     C6    7  -0.028  -0.224  -0.068
    1UNL     C7    8   0.069  -0.142   0.011
    1UNL     C8    9   0.084   0.013  -0.030
    1UNL     C9   10   0.232   0.052  -0.023
    1UNL    C10   11   0.313   0.073   0.082
    1UNL    C11   12   0.447   0.100   0.065
    1UNL    C12   13   0.501   0.111  -0.061
    1UNL    C13   14   0.422   0.087  -0.171
    1UNL    C14   15   0.284   0.058  -0.151
    1UNL     N2   16   0.181   0.041  -0.250
    1UNL    C15   17   0.053   0.060  -0.180
    1UNL     O1   18   0.026   0.204  -0.166
    1UNL    C16   19  -0.006   0.249  -0.035
    1UNL    C17   20  -0.020   0.113   0.042
    1UNL    C18   21   0.007   0.122   0.193
    1UNL     O2   22  -0.007   0.237   0.237
    1UNL     O3   23   0.049   0.019   0.249
    1UNL    C19   24  -0.172   0.057   0.028
    1UNL    C20   25  -0.179  -0.027  -0.111
    1UNL    C21   26  -0.086  -0.006  -0.222
    1UNL     O4   27  -0.105  -0.048  -0.333
    1UNL     H1   28  -0.339   0.170   0.350
    1UNL     H2   29  -0.203   0.192   0.266
    1UNL     H3   30  -0.184   0.119   0.426
    1UNL     H4   31  -0.262  -0.109   0.335
    1UNL     H5   32  -0.176  -0.267   0.118
    1UNL     H6   33  -0.338  -0.186   0.077
    1UNL     H7   34  -0.357  -0.224  -0.173
    1UNL     H8   35  -0.207  -0.247  -0.265
    1UNL     H9   36  -0.251  -0.369  -0.137
    1UNL    H10   37  -0.029  -0.333  -0.033
    1UNL    H11   38   0.006  -0.217  -0.170
    1UNL    H12   39   0.165  -0.198  -0.009
    1UNL    H13   40   0.053  -0.144   0.119
    1UNL    H14   41   0.265   0.059   0.183
    1UNL    H15   42   0.509   0.115   0.149
    1UNL    H16   43   0.604   0.148  -0.070
    1UNL    H17   44   0.466   0.102  -0.272
    1UNL    H18   45   0.171   0.066  -0.346
    1UNL    H19   46  -0.093   0.311  -0.033
    1UNL    H20   47   0.076   0.309   0.004
    1UNL    H21   48  -0.242   0.148   0.028
    1UNL    H22   49  -0.279  -0.019  -0.155
   0.00000   0.00000   0.00000   0.00000   0.00000   0.00000   0.00000   0.00000   0.00000
Generated with MDTraj, t= 48.0
 49
    1UNL     C1    1  -0.273   0.118   0.313
    1UNL     C2    2  -0.273  -0.017   0.241
    1UNL     C3    3  -0.217  -0.049   0.129
    1UNL     C4    4  -0.211  -0.184   0.082
    1UNL     N1    5  -0.178  -0.176  -0.071
    1UNL     C5    6  -0.271  -0.256  -0.157
    1UNL     C6    7  -0.030  -0.232  -0.090
    1UNL     C7    8   0.071  -0.151  -0.005
    1UNL     C8    9   0.088   0.007  -0.023
    1UNL     C9   10   0.235   0.048  -0.016
    1UNL    C10   11   0.315   0.084   0.090
    1UNL    C11   12   0.444   0.124   0.059
    1UNL    C12   13   0.491   0.120  -0.068
    1UNL    C13   14   0.413   0.082  -0.175
    1UNL    C14   15   0.280   0.048  -0.155
    1UNL     N2   16   0.176   0.019  -0.246
    1UNL    C15   17   0.049   0.056  -0.173
    1UNL     O1   18   0.031   0.206  -0.155
    1UNL    C16   19   0.003   0.227  -0.014
    1UNL    C17   20  -0.016   0.096   0.053
    1UNL    C18   21   0.030   0.128   0.198
    1UNL     O2   22  -0.006   0.237   0.246
    1UNL     O3   23   0.102   0.043   0.250
    1UNL    C19   24  -0.168   0.045   0.030
    1UNL    C20   25  -0.185  -0.033  -0.113
    1UNL    C21   26  -0.083  -0.007  -0.218
    1UNL     O4   27  -0.096  -0.027  -0.336
    1UNL     H1   28  -0.372   0.164   0.338
    1UNL     H2   29  -0.230   0.203   0.258
    1UNL     H3   30  -0.220   0.100   0.407
    1UNL     H4   31  -0.304  -0.098   0.304
    1UNL     H5   32  -0.135  -0.237   0.143
    1UNL     H6   33  -0.315  -0.229   0.085
    1UNL     H7   34  -0.375  -0.225  -0.126
    1UNL     H8   35  -0.261  -0.216  -0.257
    1UNL     H9   36  -0.257  -0.365  -0.151
    1UNL    H10   37  -0.036  -0.338  -0.056
    1UNL    H11   38   0.001  -0.233  -0.195
    1UNL    H12   39   0.173  -0.187  -0.030
    1UNL    H13   40   0.063  -0.169   0.104
    1UNL    H14   41   0.281   0.079   0.189
    1UNL    H15   42   0.508   0.145   0.145
    1UNL    H16   43   0.583   0.166  -0.092
    1UNL    H17   44   0.443   0.077  -0.275
    1UNL    H18   45   0.165   0.064  -0.336
    1UNL    H19   46  -0.083   0.290   0.003
    1UNL    H20   47   0.084   0.278   0.043
    1UNL    H21   48  -0.239   0.134   0.030
    1UNL    H22   49  -0.289  -0.021  -0.147
   0.00000   0.00000   0.00000   0.00000   0.00000   0.00000   0.00000   0.00000   0.00000
Generated with MDTraj, t= 49.0
 49
    1UNL     C1    1  -0.302   0.137   0.297
    1UNL     C2    2  -0.273  -0.003   0.253
    1UNL     C3    3  -0.222  -0.033   0.135
    1UNL     C4    4  -0.214  -0.177   0.088
    1UNL     N1    5  -0.168  -0.177  -0.060
    1UNL     C5    6  -0.258  -0.257  -0.157
    1UNL     C6    7  -0.020  -0.222  -0.061
    1UNL     C7    8   0.086  -0.138   0.012
    1UNL     C8    9   0.090   0.012  -0.023
    1UNL     C9   10   0.240   0.053  -0.031
    1UNL    C10   11   0.324   0.080   0.077
    1UNL    C11   12   0.460   0.105   0.042
    1UNL    C12   13   0.498   0.113  -0.094
    1UNL    C13   14   0.418   0.087  -0.199
    1UNL    C14   15   0.287   0.061  -0.164
    1UNL     N2   16   0.172   0.040  -0.240
    1UNL    C15   17   0.050   0.060  -0.162
    1UNL     O1   18   0.034   0.207  -0.158
    1UNL    C16   19   0.007   0.234  -0.024
    1UNL    C17   20  -0.018   0.106   0.055
    1UNL    C18   21   0.008   0.103   0.210
    1UNL     O2   22  -0.032   0.203   0.267
    1UNL     O3   23   0.067   0.002   0.251
    1UNL    C19   24  -0.158   0.052   0.022
    1UNL    C20   25  -0.174  -0.033  -0.111
    1UNL    C21   26  -0.078  -0.003  -0.220
    1UNL     O4   27  -0.095  -0.041  -0.332
    1UNL     H1   28  -0.396   0.150   0.354
    1UNL     H2   29  -0.323   0.199   0.208
    1UNL     H3   30  -0.217   0.167   0.361
    1UNL     H4   31  -0.278  -0.081   0.331
    1UNL     H5   32  -0.134  -0.236   0.138
    1UNL     H6   33  -0.314  -0.226   0.087
    1UNL     H7   34  -0.363  -0.218  -0.160
    1UNL     H8   35  -0.223  -0.240  -0.256
    1UNL     H9   36  -0.259  -0.367  -0.136
    1UNL    H10   37  -0.015  -0.329  -0.033
    1UNL    H11   38  -0.004  -0.219  -0.170
    1UNL    H12   39   0.190  -0.174   0.001
    1UNL    H13   40   0.060  -0.145   0.122
    1UNL    H14   41   0.302   0.073   0.183
    1UNL    H15   42   0.534   0.127   0.117
    1UNL    H16   43   0.604   0.133  -0.113
    1UNL    H17   44   0.449   0.102  -0.303
    1UNL    H18   45   0.170   0.071  -0.336
    1UNL    H19   46  -0.077   0.306  -0.018
    1UNL    H20   47   0.098   0.287   0.018
    1UNL    H21   48  -0.225   0.141  -0.002
    1UNL    H22   49  -0.279  -0.009  -0.132
   0.00000   0.00000   0.00000   0.00000   0.00000   0.00000   0.00000   0.00000   0.00000
Generated with MDTraj, t= 50.0
 49
    1UNL     C1    1  -0.311   0.147   0.269
    1UNL     C2    2  -0.293   0.010   0.237
    1UNL     C3    3  -0.227  -0.038   0.135
    1UNL     C4    4  -0.204  -0.185   0.093
    1UNL     N1    5  -0.156  -0.189  -0.058
    1UNL     C5    6  -0.255  -0.279  -0.133
    1UNL     C6    7  -0.021  -0.233  -0.079
    1UNL     C7    8   0.083  -0.136  -0.014
    1UNL     C8    9   0.084   0.017  -0.032
    1UNL     C9   10   0.237   0.054  -0.035
    1UNL    C10   11   0.326   0.054   0.074
    1UNL    C11   12   0.459   0.085   0.054
    1UNL    C12   13   0.504   0.101  -0.076
    1UNL    C13   14   0.418   0.096  -0.179
    1UNL    C14   15   0.280   0.076  -0.165
    1UNL     N2   16   0.172   0.074  -0.255
    1UNL    C15   17   0.048   0.080  -0.174
    1UNL     O1   18   0.007   0.218  -0.154
    1UNL    C16   19  -0.000   0.230  -0.016
    1UNL    C17   20  -0.014   0.093   0.056
    1UNL    C18   21   0.020   0.106   0.212
    1UNL     O2   22   0.010   0.220   0.264
    1UNL     O3   23   0.068   0.004   0.262
    1UNL    C19   24  -0.164   0.051   0.029
    1UNL    C20   25  -0.172  -0.032  -0.103
    1UNL    C21   26  -0.073  -0.005  -0.217
    1UNL     O4   27  -0.096  -0.051  -0.325
    1UNL     H1   28  -0.320   0.152   0.380
    1UNL     H2   29  -0.411   0.187   0.238
    1UNL     H3   30  -0.213   0.197   0.256
    1UNL     H4   31  -0.322  -0.062   0.308
    1UNL     H5   32  -0.129  -0.238   0.157
    1UNL     H6   33  -0.304  -0.232   0.093
    1UNL     H7   34  -0.356  -0.239  -0.132
    1UNL     H8   35  -0.233  -0.297  -0.238
    1UNL     H9   36  -0.260  -0.379  -0.080
    1UNL    H10   37  -0.017  -0.335  -0.041
    1UNL    H11   38  -0.005  -0.234  -0.191
    1UNL    H12   39   0.182  -0.174  -0.041
    1UNL    H13   40   0.067  -0.151   0.099
    1UNL    H14   41   0.284   0.045   0.174
    1UNL    H15   42   0.546   0.082   0.118
    1UNL    H16   43   0.606   0.113  -0.105
    1UNL    H17   44   0.458   0.109  -0.279
    1UNL    H18   45   0.171   0.134  -0.339
    1UNL    H19   46  -0.091   0.290   0.007
    1UNL    H20   47   0.090   0.293   0.017
    1UNL    H21   48  -0.230   0.141   0.009
    1UNL    H22   49  -0.275  -0.015  -0.138
   0.00000   0.00000   0.00000   0.00000   0.00000   0.00000   0.00000   0.00000   0.00000
Generated with MDTraj, t= 51.0
 49
    1UNL     C1    1  -0.304   0.137   0.279
    1UNL     C2    2  -0.278   0.001   0.245
    1UNL     C3    3  -0.217  -0.039   0.136
    1UNL     C4    4  -0.202  -0.183   0.092
    1UNL     N1    5  -0.169  -0.185  -0.058
    1UNL     C5    6  -0.260  -0.269  -0.138
    1UNL     C6    7  -0.021  -0.223  -0.091
    1UNL     C7    8   0.080  -0.141  -0.005
    1UNL     C8    9   0.079   0.017  -0.030
    1UNL     C9   10   0.231   0.050  -0.024
    1UNL    C10   11   0.319   0.050   0.085
    1UNL    C11   12   0.449   0.084   0.059
    1UNL    C12   13   0.496   0.119  -0.066
    1UNL    C13   14   0.415   0.108  -0.174
    1UNL    C14   15   0.284   0.068  -0.157
    1UNL     N2   16   0.174   0.055  -0.247
    1UNL    C15   17   0.048   0.068  -0.177
    1UNL     O1   18   0.018   0.209  -0.166
    1UNL    C16   19  -0.014   0.241  -0.023
    1UNL    C17   20  -0.021   0.105   0.054
    1UNL    C18   21   0.040   0.113   0.200
    1UNL     O2   22   0.026   0.222   0.257
    1UNL     O3   23   0.070   0.003   0.247
    1UNL    C19   24  -0.167   0.056   0.027
    1UNL    C20   25  -0.176  -0.028  -0.103
    1UNL    C21   26  -0.079  -0.008  -0.218
    1UNL     O4   27  -0.100  -0.055  -0.327
    1UNL     H1   28  -0.372   0.141   0.367
    1UNL     H2   29  -0.365   0.197   0.208
    1UNL     H3   30  -0.212   0.176   0.324
    1UNL     H4   31  -0.289  -0.081   0.320
    1UNL     H5   32  -0.121  -0.217   0.164
    1UNL     H6   33  -0.294  -0.241   0.095
    1UNL     H7   34  -0.366  -0.255  -0.130
    1UNL     H8   35  -0.236  -0.246  -0.245
    1UNL     H9   36  -0.239  -0.376  -0.118
    1UNL    H10   37  -0.007  -0.327  -0.065
    1UNL    H11   38  -0.002  -0.218  -0.203
    1UNL    H12   39   0.179  -0.181  -0.035
    1UNL    H13   40   0.079  -0.155   0.109
    1UNL    H14   41   0.276   0.026   0.178
    1UNL    H15   42   0.517   0.074   0.144
    1UNL    H16   43   0.602   0.144  -0.084
    1UNL    H17   44   0.449   0.119  -0.274
    1UNL    H18   45   0.169   0.097  -0.343
    1UNL    H19   46  -0.105   0.302  -0.012
    1UNL    H20   47   0.074   0.301   0.014
    1UNL    H21   48  -0.241   0.141   0.017
    1UNL    H22   49  -0.275  -0.015  -0.148
   0.00000   0.00000   0.00000   0.00000   0.00000   0.00000   0.00000   0.00000   0.00000
Generated with MDTraj, t= 52.0
 49
    1UNL     C1    1  -0.245   0.131   0.323
    1UNL     C2    2  -0.255  -0.008   0.252
    1UNL     C3    3  -0.222  -0.038   0.126
    1UNL     C4    4  -0.232  -0.180   0.073
    1UNL     N1    5  -0.175  -0.182  -0.068
    1UNL     C5    6  -0.268  -0.256  -0.163
    1UNL     C6    7  -0.028  -0.227  -0.064
    1UNL     C7    8   0.077  -0.144   0.010
    1UNL     C8    9   0.096   0.003  -0.023
    1UNL     C9   10   0.240   0.052  -0.023
    1UNL    C10   11   0.319   0.095   0.079
    1UNL    C11   12   0.449   0.129   0.055
    1UNL    C12   13   0.493   0.125  -0.075
    1UNL    C13   14   0.412   0.088  -0.186
    1UNL    C14   15   0.286   0.052  -0.155
    1UNL     N2   16   0.177   0.034  -0.246
    1UNL    C15   17   0.054   0.050  -0.173
    1UNL     O1   18   0.028   0.195  -0.162
    1UNL    C16   19   0.004   0.235  -0.022
    1UNL    C17   20  -0.016   0.095   0.052
    1UNL    C18   21   0.004   0.107   0.207
    1UNL     O2   22  -0.015   0.219   0.259
    1UNL     O3   23   0.058   0.009   0.258
    1UNL    C19   24  -0.164   0.054   0.018
    1UNL    C20   25  -0.182  -0.030  -0.114
    1UNL    C21   26  -0.077  -0.007  -0.225
    1UNL     O4   27  -0.091  -0.037  -0.341
    1UNL     H1   28  -0.323   0.140   0.399
    1UNL     H2   29  -0.255   0.216   0.253
    1UNL     H3   30  -0.152   0.123   0.379
    1UNL     H4   31  -0.266  -0.095   0.309
    1UNL     H5   32  -0.171  -0.259   0.130
    1UNL     H6   33  -0.339  -0.200   0.081
    1UNL     H7   34  -0.371  -0.222  -0.154
    1UNL     H8   35  -0.245  -0.239  -0.274
    1UNL     H9   36  -0.270  -0.361  -0.141
    1UNL    H10   37  -0.031  -0.329  -0.031
    1UNL    H11   38  -0.000  -0.227  -0.176
    1UNL    H12   39   0.177  -0.192   0.007
    1UNL    H13   40   0.047  -0.140   0.121
    1UNL    H14   41   0.284   0.092   0.185
    1UNL    H15   42   0.504   0.172   0.136
    1UNL    H16   43   0.595   0.147  -0.088
    1UNL    H17   44   0.450   0.089  -0.291
    1UNL    H18   45   0.183   0.080  -0.340
    1UNL    H19   46  -0.087   0.289  -0.039
    1UNL    H20   47   0.081   0.296   0.030
    1UNL    H21   48  -0.228   0.147   0.022
    1UNL    H22   49  -0.278  -0.002  -0.159
   0.00000   0.00000   0.00000   0.00000   0.00000   0.00000   0.00000   0.00000   0.00000
Generated with MDTraj, t= 53.0
 49
    1UNL     C1    1  -0.263   0.100   0.333
    1UNL     C2    2  -0.262  -0.038   0.255
    1UNL     C3    3  -0.214  -0.056   0.132
    1UNL     C4    4  -0.222  -0.186   0.068
    1UNL     N1    5  -0.174  -0.168  -0.078
    1UNL     C5    6  -0.263  -0.242  -0.178
    1UNL     C6    7  -0.030  -0.229  -0.077
    1UNL     C7    8   0.065  -0.149   0.010
    1UNL     C8    9   0.087   0.003  -0.018
    1UNL     C9   10   0.228   0.048  -0.019
    1UNL    C10   11   0.306   0.090   0.085
    1UNL    C11   12   0.430   0.138   0.064
    1UNL    C12   13   0.485   0.127  -0.062
    1UNL    C13   14   0.413   0.081  -0.180
    1UNL    C14   15   0.279   0.038  -0.150
    1UNL     N2   16   0.178   0.017  -0.248
    1UNL    C15   17   0.052   0.051  -0.169
    1UNL     O1   18   0.041   0.194  -0.161
    1UNL    C16   19  -0.004   0.235  -0.034
    1UNL    C17   20  -0.023   0.102   0.051
    1UNL    C18   21   0.035   0.134   0.195
    1UNL     O2   22   0.032   0.252   0.234
    1UNL     O3   23   0.073   0.036   0.262
    1UNL    C19   24  -0.168   0.050   0.034
    1UNL    C20   25  -0.182  -0.025  -0.109
    1UNL    C21   26  -0.078  -0.005  -0.222
    1UNL     O4   27  -0.104  -0.037  -0.335
    1UNL     H1   28  -0.362   0.135   0.363
    1UNL     H2   29  -0.212   0.175   0.271
    1UNL     H3   30  -0.215   0.079   0.428
    1UNL     H4   31  -0.297  -0.131   0.307
    1UNL     H5   32  -0.166  -0.264   0.128
    1UNL     H6   33  -0.331  -0.200   0.067
    1UNL     H7   34  -0.369  -0.210  -0.179
    1UNL     H8   35  -0.233  -0.235  -0.287
    1UNL     H9   36  -0.259  -0.343  -0.144
    1UNL    H10   37  -0.034  -0.331  -0.041
    1UNL    H11   38   0.002  -0.239  -0.186
    1UNL    H12   39   0.164  -0.195   0.016
    1UNL    H13   40   0.021  -0.164   0.116
    1UNL    H14   41   0.269   0.107   0.181
    1UNL    H15   42   0.494   0.182   0.143
    1UNL    H16   43   0.583   0.174  -0.086
    1UNL    H17   44   0.459   0.076  -0.275
    1UNL    H18   45   0.188   0.055  -0.342
    1UNL    H19   46  -0.084   0.299  -0.056
    1UNL    H20   47   0.080   0.282   0.016
    1UNL    H21   48  -0.234   0.141   0.046
    1UNL    H22   49  -0.280  -0.009  -0.156
   0.00000   0.00000   0.00000   0.00000   0.00000   0.00000   0.00000   0.00000   0.00000
Generated with MDTraj, t= 54.0
 49
    1UNL     C1    1  -0.242   0.112   0.320
    1UNL     C2    2  -0.238  -0.031   0.262
    1UNL     C3    3  -0.209  -0.049   0.134
    1UNL     C4    4  -0.217  -0.187   0.078
    1UNL     N1    5  -0.178  -0.180  -0.065
    1UNL     C5    6  -0.253  -0.273  -0.152
    1UNL     C6    7  -0.030  -0.226  -0.085
    1UNL     C7    8   0.066  -0.142   0.004
    1UNL     C8    9   0.080   0.014  -0.027
    1UNL     C9   10   0.227   0.049  -0.019
    1UNL    C10   11   0.314   0.065   0.092
    1UNL    C11   12   0.446   0.095   0.069
    1UNL    C12   13   0.500   0.115  -0.060
    1UNL    C13   14   0.420   0.093  -0.169
    1UNL    C14   15   0.282   0.063  -0.151
    1UNL     N2   16   0.179   0.040  -0.241
    1UNL    C15   17   0.048   0.068  -0.179
    1UNL     O1   18   0.035   0.209  -0.164
    1UNL    C16   19  -0.018   0.242  -0.038
    1UNL    C17   20  -0.021   0.105   0.045
    1UNL    C18   21   0.016   0.130   0.186
    1UNL     O2   22   0.023   0.245   0.229
    1UNL     O3   23   0.034   0.029   0.253
    1UNL    C19   24  -0.166   0.049   0.024
    1UNL    C20   25  -0.184  -0.031  -0.111
    1UNL    C21   26  -0.081  -0.003  -0.221
    1UNL     O4   27  -0.107  -0.036  -0.334
    1UNL     H1   28  -0.333   0.173   0.313
    1UNL     H2   29  -0.163   0.175   0.280
    1UNL     H3   30  -0.242   0.114   0.430
    1UNL     H4   31  -0.259  -0.113   0.324
    1UNL     H5   32  -0.141  -0.248   0.137
    1UNL     H6   33  -0.320  -0.225   0.089
    1UNL     H7   34  -0.359  -0.233  -0.148
    1UNL     H8   35  -0.223  -0.253  -0.256
    1UNL     H9   36  -0.246  -0.377  -0.124
    1UNL    H10   37  -0.022  -0.335  -0.077
    1UNL    H11   38   0.000  -0.202  -0.190
    1UNL    H12   39   0.164  -0.187  -0.015
    1UNL    H13   40   0.043  -0.157   0.115
    1UNL    H14   41   0.274   0.055   0.196
    1UNL    H15   42   0.497   0.118   0.158
    1UNL    H16   43   0.604   0.124  -0.067
    1UNL    H17   44   0.454   0.097  -0.274
    1UNL    H18   45   0.183   0.076  -0.334
    1UNL    H19   46  -0.117   0.272  -0.058
    1UNL    H20   47   0.038   0.324   0.009
    1UNL    H21   48  -0.232   0.140   0.031
    1UNL    H22   49  -0.280  -0.025  -0.164
   0.00000   0.00000   0.00000   0.00000   0.00000   0.00000   0.00000   0.00000   0.00000
Generated with MDTraj, t= 55.0
 49
    1UNL     C1    1  -0.290   0.133   0.293
    1UNL     C2    2  -0.276  -0.005   0.249
    1UNL     C3    3  -0.218  -0.040   0.135
    1UNL     C4    4  -0.206  -0.186   0.082
    1UNL     N1    5  -0.160  -0.179  -0.064
    1UNL     C5    6  -0.243  -0.277  -0.155
    1UNL     C6    7  -0.022  -0.221  -0.074
    1UNL     C7    8   0.080  -0.130  -0.005
    1UNL     C8    9   0.081   0.023  -0.038
    1UNL     C9   10   0.231   0.063  -0.026
    1UNL    C10   11   0.316   0.067   0.083
    1UNL    C11   12   0.456   0.079   0.061
    1UNL    C12   13   0.502   0.076  -0.072
    1UNL    C13   14   0.412   0.085  -0.171
    1UNL    C14   15   0.276   0.072  -0.156
    1UNL     N2   16   0.171   0.073  -0.248
    1UNL    C15   17   0.040   0.078  -0.179
    1UNL     O1   18   0.005   0.211  -0.161
    1UNL    C16   19  -0.009   0.240  -0.019
    1UNL    C17   20  -0.014   0.102   0.057
    1UNL    C18   21   0.026   0.117   0.198
    1UNL     O2   22   0.006   0.223   0.252
    1UNL     O3   23   0.079   0.020   0.245
    1UNL    C19   24  -0.166   0.046   0.027
    1UNL    C20   25  -0.182  -0.035  -0.103
    1UNL    C21   26  -0.081  -0.007  -0.215
    1UNL     O4   27  -0.093  -0.059  -0.323
    1UNL     H1   28  -0.385   0.186   0.283
    1UNL     H2   29  -0.216   0.205   0.259
    1UNL     H3   30  -0.298   0.130   0.402
    1UNL     H4   31  -0.319  -0.083   0.319
    1UNL     H5   32  -0.133  -0.255   0.133
    1UNL     H6   33  -0.307  -0.232   0.086
    1UNL     H7   34  -0.349  -0.251  -0.133
    1UNL     H8   35  -0.225  -0.255  -0.258
    1UNL     H9   36  -0.219  -0.383  -0.130
    1UNL    H10   37  -0.021  -0.320  -0.024
    1UNL    H11   38  -0.001  -0.240  -0.181
    1UNL    H12   39   0.176  -0.168  -0.044
    1UNL    H13   40   0.084  -0.137   0.108
    1UNL    H14   41   0.264   0.070   0.174
    1UNL    H15   42   0.529   0.084   0.148
    1UNL    H16   43   0.611   0.057  -0.084
    1UNL    H17   44   0.444   0.086  -0.273
    1UNL    H18   45   0.174   0.123  -0.334
    1UNL    H19   46  -0.093   0.301   0.014
    1UNL    H20   47   0.083   0.304   0.002
    1UNL    H21   48  -0.225   0.140   0.014
    1UNL    H22   49  -0.281  -0.027  -0.148
   0.00000   0.00000   0.00000   0.00000   0.00000   0.00000   0.00000   0.00000   0.00000
Generated with MDTraj, t= 56.0
 49
    1UNL     C1    1  -0.338   0.139   0.268
    1UNL     C2    2  -0.294   0.006   0.241
    1UNL     C3    3  -0.218  -0.033   0.137
    1UNL     C4    4  -0.197  -0.172   0.089
    1UNL     N1    5  -0.166  -0.172  -0.057
    1UNL     C5    6  -0.262  -0.262  -0.142
    1UNL     C6    7  -0.018  -0.223  -0.066
    1UNL     C7    8   0.081  -0.144   0.011
    1UNL     C8    9   0.085   0.011  -0.016
    1UNL     C9   10   0.238   0.055  -0.027
    1UNL    C10   11   0.334   0.064   0.069
    1UNL    C11   12   0.473   0.080   0.030
    1UNL    C12   13   0.508   0.108  -0.105
    1UNL    C13   14   0.408   0.096  -0.199
    1UNL    C14   15   0.276   0.059  -0.160
    1UNL     N2   16   0.171   0.055  -0.245
    1UNL    C15   17   0.051   0.066  -0.160
    1UNL     O1   18   0.021   0.209  -0.150
    1UNL    C16   19   0.005   0.241  -0.014
    1UNL    C17   20  -0.011   0.101   0.060
    1UNL    C18   21   0.020   0.108   0.209
    1UNL     O2   22  -0.046   0.187   0.274
    1UNL     O3   23   0.096   0.024   0.252
    1UNL    C19   24  -0.161   0.051   0.024
    1UNL    C20   25  -0.176  -0.034  -0.104
    1UNL    C21   26  -0.070  -0.008  -0.214
    1UNL     O4   27  -0.081  -0.041  -0.329
    1UNL     H1   28  -0.384   0.187   0.184
    1UNL     H2   29  -0.256   0.205   0.296
    1UNL     H3   30  -0.416   0.125   0.341
    1UNL     H4   31  -0.332  -0.060   0.314
    1UNL     H5   32  -0.114  -0.222   0.141
    1UNL     H6   33  -0.284  -0.242   0.098
    1UNL     H7   34  -0.365  -0.228  -0.130
    1UNL     H8   35  -0.233  -0.249  -0.244
    1UNL     H9   36  -0.244  -0.368  -0.106
    1UNL    H10   37  -0.014  -0.331  -0.032
    1UNL    H11   38   0.007  -0.230  -0.171
    1UNL    H12   39   0.185  -0.174  -0.015
    1UNL    H13   40   0.068  -0.162   0.119
    1UNL    H14   41   0.302   0.059   0.174
    1UNL    H15   42   0.556   0.067   0.091
    1UNL    H16   43   0.602   0.140  -0.142
    1UNL    H17   44   0.443   0.101  -0.301
    1UNL    H18   45   0.166   0.119  -0.322
    1UNL    H19   46  -0.072   0.313   0.020
    1UNL    H20   47   0.109   0.290   0.003
    1UNL    H21   48  -0.208   0.153   0.010
    1UNL    H22   49  -0.275  -0.024  -0.149
   0.00000   0.00000   0.00000   0.00000   0.00000   0.00000   0.00000   0.00000   0.00000
Generated with MDTraj, t= 57.0
 49
    1UNL     C1    1  -0.331   0.152   0.262
    1UNL     C2    2  -0.318   0.010   0.223
    1UNL     C3    3  -0.225  -0.028   0.135
    1UNL     C4    4  -0.208  -0.174   0.099
    1UNL     N1    5  -0.171  -0.179  -0.051
    1UNL     C5    6  -0.258  -0.260  -0.134
    1UNL     C6    7  -0.025  -0.231  -0.070
    1UNL     C7    8   0.089  -0.149  -0.008
    1UNL     C8    9   0.099   0.000  -0.027
    1UNL     C9   10   0.241   0.044  -0.028
    1UNL    C10   11   0.328   0.079   0.079
    1UNL    C11   12   0.462   0.111   0.044
    1UNL    C12   13   0.500   0.117  -0.090
    1UNL    C13   14   0.408   0.097  -0.193
    1UNL    C14   15   0.279   0.058  -0.166
    1UNL     N2   16   0.173   0.039  -0.255
    1UNL    C15   17   0.056   0.057  -0.165
    1UNL     O1   18   0.032   0.200  -0.152
    1UNL    C16   19   0.014   0.230  -0.013
    1UNL    C17   20  -0.002   0.092   0.056
    1UNL    C18   21   0.024   0.095   0.210
    1UNL     O2   22  -0.042   0.173   0.277
    1UNL     O3   23   0.122   0.033   0.253
    1UNL    C19   24  -0.159   0.048   0.025
    1UNL    C20   25  -0.176  -0.035  -0.102
    1UNL    C21   26  -0.073  -0.006  -0.211
    1UNL     O4   27  -0.109  -0.015  -0.325
    1UNL     H1   28  -0.337   0.219   0.178
    1UNL     H2   29  -0.243   0.188   0.315
    1UNL     H3   30  -0.423   0.166   0.318
    1UNL     H4   31  -0.364  -0.063   0.292
    1UNL     H5   32  -0.119  -0.220   0.143
    1UNL     H6   33  -0.293  -0.242   0.122
    1UNL     H7   34  -0.351  -0.208  -0.120
    1UNL     H8   35  -0.222  -0.261  -0.239
    1UNL     H9   36  -0.265  -0.361  -0.086
    1UNL    H10   37  -0.015  -0.342  -0.046
    1UNL    H11   38  -0.006  -0.227  -0.175
    1UNL    H12   39   0.189  -0.185  -0.043
    1UNL    H13   40   0.082  -0.162   0.100
    1UNL    H14   41   0.310   0.064   0.185
    1UNL    H15   42   0.525   0.159   0.126
    1UNL    H16   43   0.604   0.139  -0.115
    1UNL    H17   44   0.428   0.113  -0.299
    1UNL    H18   45   0.157   0.097  -0.338
    1UNL    H19   46  -0.077   0.288   0.000
    1UNL    H20   47   0.102   0.297   0.023
    1UNL    H21   48  -0.210   0.145   0.007
    1UNL    H22   49  -0.272  -0.019  -0.154
   0.00000   0.00000   0.00000   0.00000   0.00000   0.00000   0.00000   0.00000   0.00000
Generated with MDTraj, t= 58.0
 49
    1UNL     C1    1  -0.309   0.153   0.278
    1UNL     C2    2  -0.281   0.003   0.249
    1UNL     C3    3  -0.217  -0.041   0.139
    1UNL     C4    4  -0.203  -0.176   0.092
    1UNL     N1    5  -0.169  -0.171  -0.063
    1UNL     C5    6  -0.257  -0.262  -0.144
    1UNL     C6    7  -0.028  -0.227  -0.086
    1UNL     C7    8   0.081  -0.153  -0.001
    1UNL     C8    9   0.095   0.006  -0.030
    1UNL     C9   10   0.234   0.045  -0.026
    1UNL    C10   11   0.316   0.077   0.075
    1UNL    C11   12   0.444   0.124   0.051
    1UNL    C12   13   0.495   0.121  -0.081
    1UNL    C13   14   0.415   0.090  -0.189
    1UNL    C14   15   0.285   0.057  -0.159
    1UNL     N2   16   0.177   0.045  -0.248
    1UNL    C15   17   0.050   0.059  -0.173
    1UNL     O1   18   0.036   0.208  -0.159
    1UNL    C16   19   0.007   0.239  -0.023
    1UNL    C17   20  -0.005   0.103   0.050
    1UNL    C18   21   0.030   0.102   0.204
    1UNL     O2   22  -0.015   0.198   0.267
    1UNL     O3   23   0.077  -0.003   0.255
    1UNL    C19   24  -0.159   0.048   0.029
    1UNL    C20   25  -0.182  -0.024  -0.101
    1UNL    C21   26  -0.084  -0.001  -0.212
    1UNL     O4   27  -0.097  -0.050  -0.321
    1UNL     H1   28  -0.394   0.189   0.219
    1UNL     H2   29  -0.234   0.222   0.242
    1UNL     H3   30  -0.331   0.182   0.380
    1UNL     H4   31  -0.317  -0.068   0.320
    1UNL     H5   32  -0.149  -0.252   0.150
    1UNL     H6   33  -0.312  -0.205   0.090
    1UNL     H7   34  -0.359  -0.231  -0.130
    1UNL     H8   35  -0.223  -0.263  -0.254
    1UNL     H9   36  -0.250  -0.361  -0.104
    1UNL    H10   37  -0.032  -0.332  -0.041
    1UNL    H11   38  -0.000  -0.235  -0.190
    1UNL    H12   39   0.180  -0.206  -0.013
    1UNL    H13   40   0.052  -0.163   0.102
    1UNL    H14   41   0.264   0.077   0.168
    1UNL    H15   42   0.499   0.155   0.133
    1UNL    H16   43   0.595   0.166  -0.092
    1UNL    H17   44   0.445   0.099  -0.291
    1UNL    H18   45   0.178   0.095  -0.340
    1UNL    H19   46  -0.083   0.297  -0.013
    1UNL    H20   47   0.094   0.298   0.020
    1UNL    H21   48  -0.221   0.140   0.025
    1UNL    H22   49  -0.285  -0.010  -0.138
   0.00000   0.00000   0.00000   0.00000   0.00000   0.00000   0.00000   0.00000   0.00000
Generated with MDTraj, t= 59.0
 49
    1UNL     C1    1  -0.255   0.132   0.319
    1UNL     C2    2  -0.268  -0.011   0.253
    1UNL     C3    3  -0.213  -0.045   0.134
    1UNL     C4    4  -0.227  -0.174   0.077
    1UNL     N1    5  -0.178  -0.181  -0.069
    1UNL     C5    6  -0.261  -0.280  -0.144
    1UNL     C6    7  -0.029  -0.225  -0.075
    1UNL     C7    8   0.059  -0.139   0.007
    1UNL     C8    9   0.085   0.007  -0.027
    1UNL     C9   10   0.232   0.057  -0.019
    1UNL    C10   11   0.324   0.068   0.079
    1UNL    C11   12   0.452   0.103   0.060
    1UNL    C12   13   0.500   0.125  -0.071
    1UNL    C13   14   0.410   0.102  -0.178
    1UNL    C14   15   0.276   0.072  -0.147
    1UNL     N2   16   0.182   0.052  -0.251
    1UNL    C15   17   0.056   0.058  -0.177
    1UNL     O1   18   0.017   0.205  -0.162
    1UNL    C16   19  -0.010   0.236  -0.029
    1UNL    C17   20  -0.013   0.103   0.045
    1UNL    C18   21   0.018   0.115   0.196
    1UNL     O2   22   0.039   0.230   0.239
    1UNL     O3   23   0.025   0.007   0.259
    1UNL    C19   24  -0.164   0.049   0.021
    1UNL    C20   25  -0.181  -0.029  -0.115
    1UNL    C21   26  -0.073  -0.015  -0.220
    1UNL     O4   27  -0.077  -0.053  -0.334
    1UNL     H1   28  -0.349   0.187   0.308
    1UNL     H2   29  -0.186   0.195   0.267
    1UNL     H3   30  -0.229   0.128   0.425
    1UNL     H4   31  -0.299  -0.095   0.312
    1UNL     H5   32  -0.168  -0.240   0.140
    1UNL     H6   33  -0.333  -0.214   0.086
    1UNL     H7   34  -0.367  -0.256  -0.130
    1UNL     H8   35  -0.241  -0.267  -0.255
    1UNL     H9   36  -0.246  -0.382  -0.116
    1UNL    H10   37  -0.019  -0.333  -0.040
    1UNL    H11   38   0.002  -0.230  -0.178
    1UNL    H12   39   0.162  -0.185   0.011
    1UNL    H13   40   0.026  -0.137   0.108
    1UNL    H14   41   0.286   0.055   0.182
    1UNL    H15   42   0.521   0.108   0.147
    1UNL    H16   43   0.601   0.143  -0.092
    1UNL    H17   44   0.443   0.119  -0.281
    1UNL    H18   45   0.172   0.127  -0.324
    1UNL    H19   46  -0.108   0.274  -0.030
    1UNL    H20   47   0.065   0.307   0.011
    1UNL    H21   48  -0.239   0.131   0.025
    1UNL    H22   49  -0.275   0.006  -0.163
   0.00000   0.00000   0.00000   0.00000   0.00000   0.00000   0.00000   0.00000   0.00000
Generated with MDTraj, t= 60.0
 49
    1UNL     C1    1  -0.241   0.117   0.320
    1UNL     C2    2  -0.259  -0.016   0.258
    1UNL     C3    3  -0.205  -0.053   0.139
    1UNL     C4    4  -0.223  -0.187   0.076
    1UNL     N1    5  -0.172  -0.179  -0.073
    1UNL     C5    6  -0.247  -0.253  -0.181
    1UNL     C6    7  -0.023  -0.217  -0.070
    1UNL     C7    8   0.074  -0.139   0.012
    1UNL     C8    9   0.080   0.013  -0.028
    1UNL     C9   10   0.220   0.051  -0.016
    1UNL    C10   11   0.298   0.081   0.097
    1UNL    C11   12   0.434   0.100   0.074
    1UNL    C12   13   0.492   0.099  -0.051
    1UNL    C13   14   0.407   0.092  -0.163
    1UNL    C14   15   0.270   0.073  -0.145
    1UNL     N2   16   0.172   0.048  -0.248
    1UNL    C15   17   0.042   0.056  -0.175
    1UNL     O1   18   0.010   0.198  -0.169
    1UNL    C16   19  -0.018   0.232  -0.036
    1UNL    C17   20  -0.020   0.106   0.047
    1UNL    C18   21   0.036   0.127   0.191
    1UNL     O2   22   0.065   0.247   0.214
    1UNL     O3   23   0.043   0.033   0.269
    1UNL    C19   24  -0.161   0.041   0.024
    1UNL    C20   25  -0.180  -0.030  -0.113
    1UNL    C21   26  -0.081  -0.015  -0.227
    1UNL     O4   27  -0.099  -0.057  -0.337
    1UNL     H1   28  -0.327   0.126   0.388
    1UNL     H2   29  -0.249   0.202   0.253
    1UNL     H3   30  -0.149   0.111   0.378
    1UNL     H4   31  -0.290  -0.103   0.315
    1UNL     H5   32  -0.170  -0.265   0.131
    1UNL     H6   33  -0.329  -0.228   0.087
    1UNL     H7   34  -0.360  -0.248  -0.189
    1UNL     H8   35  -0.207  -0.232  -0.280
    1UNL     H9   36  -0.227  -0.357  -0.162
    1UNL    H10   37  -0.013  -0.327  -0.070
    1UNL    H11   38   0.005  -0.196  -0.174
    1UNL    H12   39   0.173  -0.191  -0.009
    1UNL    H13   40   0.064  -0.145   0.116
    1UNL    H14   41   0.256   0.069   0.194
    1UNL    H15   42   0.496   0.109   0.161
    1UNL    H16   43   0.605   0.094  -0.058
    1UNL    H17   44   0.446   0.099  -0.261
    1UNL    H18   45   0.176   0.097  -0.339
    1UNL    H19   46  -0.105   0.288  -0.028
    1UNL    H20   47   0.072   0.289  -0.009
    1UNL    H21   48  -0.244   0.116   0.020
    1UNL    H22   49  -0.283  -0.009  -0.148
   0.00000   0.00000   0.00000   0.00000   0.00000   0.00000   0.00000   0.00000   0.00000
Generated with MDTraj, t= 61.0
 49
    1UNL     C1    1  -0.258   0.102   0.330
    1UNL     C2    2  -0.247  -0.022   0.269
    1UNL     C3    3  -0.205  -0.053   0.143
    1UNL     C4    4  -0.211  -0.183   0.075
    1UNL     N1    5  -0.167  -0.174  -0.075
    1UNL     C5    6  -0.261  -0.265  -0.148
    1UNL     C6    7  -0.030  -0.217  -0.081
    1UNL     C7    8   0.068  -0.137   0.003
    1UNL     C8    9   0.082   0.016  -0.021
    1UNL     C9   10   0.228   0.053  -0.016
    1UNL    C10   11   0.314   0.085   0.089
    1UNL    C11   12   0.453   0.105   0.064
    1UNL    C12   13   0.499   0.102  -0.067
    1UNL    C13   14   0.414   0.075  -0.170
    1UNL    C14   15   0.282   0.050  -0.152
    1UNL     N2   16   0.177   0.035  -0.242
    1UNL    C15   17   0.050   0.060  -0.173
    1UNL     O1   18   0.044   0.203  -0.169
    1UNL    C16   19  -0.014   0.234  -0.043
    1UNL    C17   20  -0.022   0.108   0.043
    1UNL    C18   21   0.007   0.128   0.188
    1UNL     O2   22  -0.003   0.245   0.228
    1UNL     O3   23   0.046   0.031   0.252
    1UNL    C19   24  -0.161   0.050   0.029
    1UNL    C20   25  -0.183  -0.029  -0.115
    1UNL    C21   26  -0.080  -0.001  -0.223
    1UNL     O4   27  -0.090  -0.031  -0.339
    1UNL     H1   28  -0.295   0.081   0.432
    1UNL     H2   29  -0.341   0.164   0.292
    1UNL     H3   30  -0.163   0.152   0.349
    1UNL     H4   31  -0.259  -0.111   0.327
    1UNL     H5   32  -0.179  -0.264   0.144
    1UNL     H6   33  -0.320  -0.215   0.072
    1UNL     H7   34  -0.361  -0.217  -0.170
    1UNL     H8   35  -0.224  -0.282  -0.245
    1UNL     H9   36  -0.280  -0.365  -0.103
    1UNL    H10   37  -0.044  -0.318  -0.037
    1UNL    H11   38  -0.000  -0.239  -0.186
    1UNL    H12   39   0.166  -0.191   0.005
    1UNL    H13   40   0.026  -0.159   0.097
    1UNL    H14   41   0.271   0.085   0.191
    1UNL    H15   42   0.521   0.099   0.148
    1UNL    H16   43   0.591   0.141  -0.092
    1UNL    H17   44   0.455   0.066  -0.272
    1UNL    H18   45   0.181   0.086  -0.330
    1UNL    H19   46  -0.111   0.268  -0.059
    1UNL    H20   47   0.047   0.311   0.004
    1UNL    H21   48  -0.239   0.127   0.031
    1UNL    H22   49  -0.284   0.003  -0.147
   0.00000   0.00000   0.00000   0.00000   0.00000   0.00000   0.00000   0.00000   0.00000
Generated with MDTraj, t= 62.0
 49
    1UNL     C1    1  -0.283   0.116   0.307
    1UNL     C2    2  -0.285  -0.015   0.249
    1UNL     C3    3  -0.211  -0.046   0.138
    1UNL     C4    4  -0.223  -0.181   0.070
    1UNL     N1    5  -0.168  -0.178  -0.070
    1UNL     C5    6  -0.242  -0.268  -0.164
    1UNL     C6    7  -0.023  -0.222  -0.074
    1UNL     C7    8   0.067  -0.139   0.011
    1UNL     C8    9   0.086   0.009  -0.029
    1UNL     C9   10   0.236   0.043  -0.020
    1UNL    C10   11   0.319   0.078   0.084
    1UNL    C11   12   0.450   0.107   0.052
    1UNL    C12   13   0.495   0.100  -0.081
    1UNL    C13   14   0.412   0.068  -0.185
    1UNL    C14   15   0.282   0.045  -0.149
    1UNL     N2   16   0.178   0.038  -0.240
    1UNL    C15   17   0.050   0.062  -0.170
    1UNL     O1   18   0.032   0.207  -0.161
    1UNL    C16   19   0.002   0.233  -0.024
    1UNL    C17   20  -0.013   0.104   0.052
    1UNL    C18   21   0.020   0.128   0.200
    1UNL     O2   22  -0.041   0.222   0.250
    1UNL     O3   23   0.108   0.059   0.253
    1UNL    C19   24  -0.157   0.053   0.035
    1UNL    C20   25  -0.180  -0.032  -0.110
    1UNL    C21   26  -0.077   0.000  -0.215
    1UNL     O4   27  -0.108  -0.032  -0.326
    1UNL     H1   28  -0.389   0.139   0.323
    1UNL     H2   29  -0.248   0.199   0.243
    1UNL     H3   30  -0.234   0.108   0.404
    1UNL     H4   31  -0.321  -0.104   0.306
    1UNL     H5   32  -0.170  -0.259   0.129
    1UNL     H6   33  -0.328  -0.227   0.070
    1UNL     H7   34  -0.352  -0.274  -0.154
    1UNL     H8   35  -0.226  -0.234  -0.263
    1UNL     H9   36  -0.206  -0.375  -0.165
    1UNL    H10   37  -0.015  -0.330  -0.062
    1UNL    H11   38   0.009  -0.212  -0.181
    1UNL    H12   39   0.165  -0.193   0.004
    1UNL    H13   40   0.039  -0.150   0.113
    1UNL    H14   41   0.291   0.076   0.186
    1UNL    H15   42   0.522   0.148   0.125
    1UNL    H16   43   0.603   0.119  -0.113
    1UNL    H17   44   0.438   0.082  -0.287
    1UNL    H18   45   0.177   0.082  -0.330
    1UNL    H19   46  -0.084   0.294  -0.020
    1UNL    H20   47   0.088   0.288   0.020
    1UNL    H21   48  -0.231   0.135   0.027
    1UNL    H22   49  -0.280  -0.007  -0.151
   0.00000   0.00000   0.00000   0.00000   0.00000   0.00000   0.00000   0.00000   0.00000
Generated with MDTraj, t= 63.0
 49
    1UNL     C1    1  -0.325   0.135   0.281
    1UNL     C2    2  -0.294  -0.007   0.241
    1UNL     C3    3  -0.214  -0.041   0.134
    1UNL     C4    4  -0.208  -0.184   0.090
    1UNL     N1    5  -0.163  -0.176  -0.058
    1UNL     C5    6  -0.255  -0.257  -0.148
    1UNL     C6    7  -0.020  -0.224  -0.072
    1UNL     C7    8   0.087  -0.144   0.003
    1UNL     C8    9   0.093   0.015  -0.024
    1UNL     C9   10   0.244   0.058  -0.026
    1UNL    C10   11   0.336   0.067   0.079
    1UNL    C11   12   0.469   0.092   0.042
    1UNL    C12   13   0.508   0.096  -0.089
    1UNL    C13   14   0.414   0.086  -0.188
    1UNL    C14   15   0.278   0.067  -0.160
    1UNL     N2   16   0.168   0.046  -0.246
    1UNL    C15   17   0.047   0.070  -0.168
    1UNL     O1   18   0.016   0.217  -0.156
    1UNL    C16   19  -0.001   0.243  -0.020
    1UNL    C17   20  -0.009   0.106   0.051
    1UNL    C18   21   0.023   0.117   0.200
    1UNL     O2   22  -0.037   0.205   0.258
    1UNL     O3   23   0.087   0.026   0.252
    1UNL    C19   24  -0.157   0.055   0.033
    1UNL    C20   25  -0.175  -0.033  -0.102
    1UNL    C21   26  -0.079  -0.007  -0.213
    1UNL     O4   27  -0.095  -0.050  -0.321
    1UNL     H1   28  -0.350   0.190   0.191
    1UNL     H2   29  -0.239   0.195   0.320
    1UNL     H3   30  -0.412   0.133   0.347
    1UNL     H4   31  -0.323  -0.087   0.306
    1UNL     H5   32  -0.141  -0.257   0.142
    1UNL     H6   33  -0.312  -0.224   0.108
    1UNL     H7   34  -0.361  -0.238  -0.148
    1UNL     H8   35  -0.219  -0.256  -0.250
    1UNL     H9   36  -0.232  -0.364  -0.119
    1UNL    H10   37  -0.015  -0.330  -0.054
    1UNL    H11   38   0.007  -0.224  -0.182
    1UNL    H12   39   0.184  -0.188  -0.029
    1UNL    H13   40   0.094  -0.159   0.110
    1UNL    H14   41   0.305   0.062   0.183
    1UNL    H15   42   0.543   0.102   0.118
    1UNL    H16   43   0.610   0.104  -0.110
    1UNL    H17   44   0.436   0.109  -0.292
    1UNL    H18   45   0.158   0.061  -0.344
    1UNL    H19   46  -0.090   0.302  -0.014
    1UNL    H20   47   0.084   0.302   0.023
    1UNL    H21   48  -0.229   0.139   0.033
    1UNL    H22   49  -0.282  -0.038  -0.133
   0.00000   0.00000   0.00000   0.00000   0.00000   0.00000   0.00000   0.00000   0.00000
Generated with MDTraj, t= 64.0
 49
    1UNL     C1    1  -0.309   0.165   0.274
    1UNL     C2    2  -0.286   0.015   0.234
    1UNL     C3    3  -0.217  -0.029   0.124
    1UNL     C4    4  -0.196  -0.171   0.095
    1UNL     N1    5  -0.152  -0.186  -0.053
    1UNL     C5    6  -0.259  -0.281  -0.111
    1UNL     C6    7  -0.017  -0.236  -0.065
    1UNL     C7    8   0.091  -0.138  -0.014
    1UNL     C8    9   0.086   0.015  -0.030
    1UNL     C9   10   0.231   0.067  -0.020
    1UNL    C10   11   0.326   0.062   0.081
    1UNL    C11   12   0.458   0.081   0.048
    1UNL    C12   13   0.493   0.107  -0.084
    1UNL    C13   14   0.410   0.098  -0.186
    1UNL    C14   15   0.277   0.073  -0.159
    1UNL     N2   16   0.170   0.065  -0.247
    1UNL    C15   17   0.047   0.073  -0.171
    1UNL     O1   18   0.005   0.211  -0.152
    1UNL    C16   19  -0.002   0.244  -0.012
    1UNL    C17   20  -0.020   0.098   0.051
    1UNL    C18   21   0.014   0.092   0.201
    1UNL     O2   22  -0.013   0.192   0.264
    1UNL     O3   23   0.075  -0.006   0.243
    1UNL    C19   24  -0.163   0.055   0.020
    1UNL    C20   25  -0.173  -0.043  -0.110
    1UNL    C21   26  -0.073  -0.011  -0.217
    1UNL     O4   27  -0.078  -0.039  -0.334
    1UNL     H1   28  -0.323   0.225   0.184
    1UNL     H2   29  -0.224   0.230   0.310
    1UNL     H3   30  -0.398   0.187   0.335
    1UNL     H4   31  -0.308  -0.066   0.308
    1UNL     H5   32  -0.129  -0.209   0.176
    1UNL     H6   33  -0.294  -0.225   0.109
    1UNL     H7   34  -0.343  -0.219  -0.121
    1UNL     H8   35  -0.228  -0.307  -0.214
    1UNL     H9   36  -0.280  -0.384  -0.069
    1UNL    H10   37  -0.013  -0.327  -0.009
    1UNL    H11   38   0.010  -0.256  -0.174
    1UNL    H12   39   0.191  -0.173  -0.043
    1UNL    H13   40   0.096  -0.147   0.096
    1UNL    H14   41   0.286   0.050   0.182
    1UNL    H15   42   0.534   0.059   0.125
    1UNL    H16   43   0.594   0.142  -0.104
    1UNL    H17   44   0.437   0.122  -0.288
    1UNL    H18   45   0.166   0.086  -0.346
    1UNL    H19   46  -0.087   0.314  -0.002
    1UNL    H20   47   0.092   0.296   0.026
    1UNL    H21   48  -0.226   0.144  -0.004
    1UNL    H22   49  -0.276  -0.043  -0.152
   0.00000   0.00000   0.00000   0.00000   0.00000   0.00000   0.00000   0.00000   0.00000
Generated with MDTraj, t= 65.0
 49
    1UNL     C1    1  -0.291   0.159   0.274
    1UNL     C2    2  -0.281   0.010   0.239
    1UNL     C3    3  -0.210  -0.035   0.131
    1UNL     C4    4  -0.214  -0.181   0.090
    1UNL     N1    5  -0.172  -0.181  -0.061
    1UNL     C5    6  -0.267  -0.264  -0.148
    1UNL     C6    7  -0.023  -0.230  -0.076
    1UNL     C7    8   0.091  -0.141  -0.004
    1UNL     C8    9   0.092   0.012  -0.036
    1UNL     C9   10   0.239   0.042  -0.027
    1UNL    C10   11   0.314   0.068   0.083
    1UNL    C11   12   0.443   0.111   0.066
    1UNL    C12   13   0.483   0.135  -0.065
    1UNL    C13   14   0.408   0.111  -0.178
    1UNL    C14   15   0.280   0.063  -0.158
    1UNL     N2   16   0.176   0.049  -0.251
    1UNL    C15   17   0.044   0.063  -0.178
    1UNL     O1   18   0.013   0.204  -0.159
    1UNL    C16   19   0.010   0.237  -0.018
    1UNL    C17   20  -0.004   0.096   0.053
    1UNL    C18   21   0.032   0.101   0.201
    1UNL     O2   22   0.015   0.210   0.254
    1UNL     O3   23   0.060  -0.003   0.258
    1UNL    C19   24  -0.154   0.048   0.028
    1UNL    C20   25  -0.171  -0.038  -0.100
    1UNL    C21   26  -0.080  -0.014  -0.218
    1UNL     O4   27  -0.110  -0.060  -0.325
    1UNL     H1   28  -0.382   0.196   0.227
    1UNL     H2   29  -0.217   0.226   0.224
    1UNL     H3   30  -0.301   0.180   0.383
    1UNL     H4   31  -0.312  -0.063   0.309
    1UNL     H5   32  -0.136  -0.232   0.156
    1UNL     H6   33  -0.308  -0.235   0.113
    1UNL     H7   34  -0.371  -0.247  -0.123
    1UNL     H8   35  -0.249  -0.248  -0.257
    1UNL     H9   36  -0.228  -0.368  -0.147
    1UNL    H10   37  -0.009  -0.334  -0.048
    1UNL    H11   38   0.001  -0.216  -0.186
    1UNL    H12   39   0.191  -0.180  -0.025
    1UNL    H13   40   0.088  -0.152   0.109
    1UNL    H14   41   0.295   0.028   0.180
    1UNL    H15   42   0.513   0.132   0.141
    1UNL    H16   43   0.591   0.166  -0.076
    1UNL    H17   44   0.445   0.135  -0.275
    1UNL    H18   45   0.184   0.076  -0.349
    1UNL    H19   46  -0.073   0.308   0.005
    1UNL    H20   47   0.111   0.283   0.010
    1UNL    H21   48  -0.211   0.143   0.010
    1UNL    H22   49  -0.276  -0.018  -0.131
   0.00000   0.00000   0.00000   0.00000   0.00000   0.00000   0.00000   0.00000   0.00000
Generated with MDTraj, t= 66.0
 49
    1UNL     C1    1  -0.263   0.116   0.322
    1UNL     C2    2  -0.268  -0.007   0.251
    1UNL     C3    3  -0.213  -0.045   0.130
    1UNL     C4    4  -0.240  -0.182   0.072
    1UNL     N1    5  -0.182  -0.179  -0.068
    1UNL     C5    6  -0.282  -0.263  -0.151
    1UNL     C6    7  -0.038  -0.227  -0.079
    1UNL     C7    8   0.061  -0.144   0.002
    1UNL     C8    9   0.088   0.001  -0.024
    1UNL     C9   10   0.236   0.044  -0.022
    1UNL    C10   11   0.320   0.088   0.082
    1UNL    C11   12   0.442   0.149   0.057
    1UNL    C12   13   0.492   0.155  -0.069
    1UNL    C13   14   0.418   0.099  -0.173
    1UNL    C14   15   0.289   0.041  -0.151
    1UNL     N2   16   0.182   0.019  -0.239
    1UNL    C15   17   0.057   0.056  -0.170
    1UNL     O1   18   0.047   0.204  -0.161
    1UNL    C16   19  -0.001   0.235  -0.034
    1UNL    C17   20  -0.012   0.093   0.049
    1UNL    C18   21   0.028   0.112   0.195
    1UNL     O2   22   0.022   0.228   0.239
    1UNL     O3   23   0.061   0.014   0.259
    1UNL    C19   24  -0.167   0.049   0.023
    1UNL    C20   25  -0.183  -0.029  -0.113
    1UNL    C21   26  -0.074  -0.013  -0.221
    1UNL     O4   27  -0.092  -0.048  -0.332
    1UNL     H1   28  -0.319   0.189   0.262
    1UNL     H2   29  -0.162   0.160   0.330
    1UNL     H3   30  -0.319   0.101   0.419
    1UNL     H4   31  -0.312  -0.087   0.316
    1UNL     H5   32  -0.200  -0.275   0.129
    1UNL     H6   33  -0.350  -0.189   0.078
    1UNL     H7   34  -0.379  -0.208  -0.141
    1UNL     H8   35  -0.244  -0.261  -0.256
    1UNL     H9   36  -0.287  -0.370  -0.142
    1UNL    H10   37  -0.036  -0.329  -0.043
    1UNL    H11   38  -0.004  -0.227  -0.187
    1UNL    H12   39   0.162  -0.183   0.000
    1UNL    H13   40   0.043  -0.152   0.116
    1UNL    H14   41   0.298   0.074   0.189
    1UNL    H15   42   0.509   0.170   0.144
    1UNL    H16   43   0.577   0.208  -0.084
    1UNL    H17   44   0.462   0.097  -0.274
    1UNL    H18   45   0.181   0.028  -0.343
    1UNL    H19   46  -0.101   0.281  -0.050
    1UNL    H20   47   0.070   0.311   0.011
    1UNL    H21   48  -0.219   0.148   0.035
    1UNL    H22   49  -0.283   0.000  -0.152
   0.00000   0.00000   0.00000   0.00000   0.00000   0.00000   0.00000   0.00000   0.00000
Generated with MDTraj, t= 67.0
 49
    1UNL     C1    1  -0.221   0.101   0.337
    1UNL     C2    2  -0.231  -0.017   0.269
    1UNL     C3    3  -0.207  -0.041   0.136
    1UNL     C4    4  -0.228  -0.179   0.061
    1UNL     N1    5  -0.168  -0.170  -0.076
    1UNL     C5    6  -0.246  -0.259  -0.175
    1UNL     C6    7  -0.025  -0.226  -0.074
    1UNL     C7    8   0.065  -0.134   0.011
    1UNL     C8    9   0.080   0.010  -0.029
    1UNL     C9   10   0.218   0.058  -0.017
    1UNL    C10   11   0.297   0.091   0.089
    1UNL    C11   12   0.426   0.126   0.063
    1UNL    C12   13   0.484   0.112  -0.059
    1UNL    C13   14   0.415   0.067  -0.168
    1UNL    C14   15   0.278   0.047  -0.147
    1UNL     N2   16   0.175   0.016  -0.241
    1UNL    C15   17   0.047   0.055  -0.178
    1UNL     O1   18   0.031   0.199  -0.166
    1UNL    C16   19  -0.012   0.236  -0.032
    1UNL    C17   20  -0.020   0.102   0.048
    1UNL    C18   21   0.017   0.126   0.194
    1UNL     O2   22   0.003   0.244   0.233
    1UNL     O3   23   0.059   0.031   0.263
    1UNL    C19   24  -0.168   0.049   0.024
    1UNL    C20   25  -0.171  -0.027  -0.116
    1UNL    C21   26  -0.078  -0.003  -0.228
    1UNL     O4   27  -0.102  -0.046  -0.339
    1UNL     H1   28  -0.201   0.186   0.268
    1UNL     H2   29  -0.135   0.116   0.405
    1UNL     H3   30  -0.316   0.125   0.389
    1UNL     H4   31  -0.252  -0.104   0.321
    1UNL     H5   32  -0.185  -0.268   0.120
    1UNL     H6   33  -0.337  -0.193   0.046
    1UNL     H7   34  -0.353  -0.221  -0.175
    1UNL     H8   35  -0.200  -0.268  -0.276
    1UNL     H9   36  -0.247  -0.360  -0.150
    1UNL    H10   37  -0.024  -0.329  -0.037
    1UNL    H11   38   0.015  -0.225  -0.177
    1UNL    H12   39   0.160  -0.178   0.040
    1UNL    H13   40   0.024  -0.126   0.120
    1UNL    H14   41   0.249   0.089   0.183
    1UNL    H15   42   0.478   0.162   0.147
    1UNL    H16   43   0.594   0.142  -0.076
    1UNL    H17   44   0.458   0.066  -0.264
    1UNL    H18   45   0.183   0.034  -0.343
    1UNL    H19   46  -0.108   0.290  -0.034
    1UNL    H20   47   0.064   0.299   0.019
    1UNL    H21   48  -0.226   0.142  -0.004
    1UNL    H22   49  -0.272  -0.025  -0.165
   0.00000   0.00000   0.00000   0.00000   0.00000   0.00000   0.00000   0.00000   0.00000
Generated with MDTraj, t= 68.0
 49
    1UNL     C1    1  -0.254   0.096   0.334
    1UNL     C2    2  -0.254  -0.027   0.262
    1UNL     C3    3  -0.209  -0.054   0.136
    1UNL     C4    4  -0.212  -0.192   0.075
    1UNL     N1    5  -0.168  -0.180  -0.068
    1UNL     C5    6  -0.258  -0.258  -0.161
    1UNL     C6    7  -0.014  -0.220  -0.080
    1UNL     C7    8   0.078  -0.129   0.012
    1UNL     C8    9   0.081   0.018  -0.026
    1UNL     C9   10   0.233   0.066  -0.021
    1UNL    C10   11   0.318   0.066   0.087
    1UNL    C11   12   0.453   0.068   0.069
    1UNL    C12   13   0.507   0.075  -0.057
    1UNL    C13   14   0.420   0.076  -0.168
    1UNL    C14   15   0.284   0.075  -0.150
    1UNL     N2   16   0.177   0.044  -0.238
    1UNL    C15   17   0.046   0.070  -0.177
    1UNL     O1   18   0.016   0.215  -0.173
    1UNL    C16   19  -0.038   0.237  -0.038
    1UNL    C17   20  -0.020   0.103   0.046
    1UNL    C18   21   0.015   0.143   0.184
    1UNL     O2   22  -0.010   0.258   0.217
    1UNL     O3   23   0.067   0.063   0.262
    1UNL    C19   24  -0.165   0.034   0.028
    1UNL    C20   25  -0.180  -0.038  -0.115
    1UNL    C21   26  -0.082  -0.009  -0.223
    1UNL     O4   27  -0.102  -0.041  -0.339
    1UNL     H1   28  -0.317   0.171   0.280
    1UNL     H2   29  -0.155   0.143   0.331
    1UNL     H3   30  -0.291   0.082   0.438
    1UNL     H4   31  -0.281  -0.119   0.321
    1UNL     H5   32  -0.139  -0.264   0.127
    1UNL     H6   33  -0.316  -0.228   0.080
    1UNL     H7   34  -0.360  -0.229  -0.126
    1UNL     H8   35  -0.241  -0.238  -0.268
    1UNL     H9   36  -0.250  -0.363  -0.155
    1UNL    H10   37  -0.003  -0.325  -0.046
    1UNL    H11   38   0.016  -0.216  -0.185
    1UNL    H12   39   0.175  -0.175   0.012
    1UNL    H13   40   0.055  -0.145   0.124
    1UNL    H14   41   0.278   0.065   0.189
    1UNL    H15   42   0.526   0.078   0.152
    1UNL    H16   43   0.610   0.072  -0.063
    1UNL    H17   44   0.466   0.098  -0.267
    1UNL    H18   45   0.179   0.078  -0.336
    1UNL    H19   46  -0.142   0.267  -0.036
    1UNL    H20   47   0.021   0.316   0.009
    1UNL    H21   48  -0.222   0.130   0.040
    1UNL    H22   49  -0.282  -0.018  -0.154
   0.00000   0.00000   0.00000   0.00000   0.00000   0.00000   0.00000   0.00000   0.00000
Generated with MDTraj, t= 69.0
 49
    1UNL     C1    1  -0.283   0.117   0.307
    1UNL     C2    2  -0.254  -0.020   0.251
    1UNL     C3    3  -0.197  -0.048   0.128
    1UNL     C4    4  -0.200  -0.184   0.076
    1UNL     N1    5  -0.158  -0.183  -0.063
    1UNL     C5    6  -0.246  -0.275  -0.145
    1UNL     C6    7  -0.008  -0.209  -0.079
    1UNL     C7    8   0.067  -0.117   0.010
    1UNL     C8    9   0.081   0.028  -0.027
    1UNL     C9   10   0.233   0.064  -0.024
    1UNL    C10   11   0.323   0.061   0.086
    1UNL    C11   12   0.459   0.059   0.056
    1UNL    C12   13   0.503   0.068  -0.075
    1UNL    C13   14   0.417   0.069  -0.180
    1UNL    C14   15   0.281   0.057  -0.156
    1UNL     N2   16   0.169   0.059  -0.245
    1UNL    C15   17   0.039   0.074  -0.171
    1UNL     O1   18   0.009   0.215  -0.161
    1UNL    C16   19  -0.017   0.252  -0.025
    1UNL    C17   20  -0.023   0.115   0.050
    1UNL    C18   21   0.008   0.131   0.197
    1UNL     O2   22  -0.034   0.235   0.244
    1UNL     O3   23   0.073   0.047   0.259
    1UNL    C19   24  -0.168   0.044   0.021
    1UNL    C20   25  -0.178  -0.037  -0.113
    1UNL    C21   26  -0.078  -0.005  -0.221
    1UNL     O4   27  -0.091  -0.051  -0.328
    1UNL     H1   28  -0.306   0.190   0.226
    1UNL     H2   29  -0.189   0.159   0.344
    1UNL     H3   30  -0.363   0.115   0.383
    1UNL     H4   31  -0.270  -0.106   0.310
    1UNL     H5   32  -0.121  -0.240   0.136
    1UNL     H6   33  -0.299  -0.230   0.098
    1UNL     H7   34  -0.350  -0.259  -0.119
    1UNL     H8   35  -0.230  -0.272  -0.253
    1UNL     H9   36  -0.225  -0.379  -0.116
    1UNL    H10   37   0.004  -0.317  -0.051
    1UNL    H11   38   0.018  -0.205  -0.184
    1UNL    H12   39   0.167  -0.156   0.021
    1UNL    H13   40   0.044  -0.128   0.123
    1UNL    H14   41   0.284   0.077   0.184
    1UNL    H15   42   0.528   0.041   0.132
    1UNL    H16   43   0.610   0.091  -0.094
    1UNL    H17   44   0.461   0.077  -0.274
    1UNL    H18   45   0.173   0.038  -0.347
    1UNL    H19   46  -0.104   0.315  -0.020
    1UNL    H20   47   0.069   0.308   0.005
    1UNL    H21   48  -0.238   0.133   0.020
    1UNL    H22   49  -0.280  -0.033  -0.158
   0.00000   0.00000   0.00000   0.00000   0.00000   0.00000   0.00000   0.00000   0.00000
Generated with MDTraj, t= 70.0
 49
    1UNL     C1    1  -0.303   0.148   0.294
    1UNL     C2    2  -0.297   0.001   0.242
    1UNL     C3    3  -0.228  -0.038   0.129
    1UNL     C4    4  -0.219  -0.181   0.078
    1UNL     N1    5  -0.160  -0.181  -0.055
    1UNL     C5    6  -0.238  -0.276  -0.154
    1UNL     C6    7  -0.017  -0.224  -0.062
    1UNL     C7    8   0.089  -0.135   0.004
    1UNL     C8    9   0.094   0.014  -0.031
    1UNL     C9   10   0.236   0.052  -0.027
    1UNL    C10   11   0.320   0.086   0.078
    1UNL    C11   12   0.453   0.098   0.044
    1UNL    C12   13   0.500   0.096  -0.083
    1UNL    C13   14   0.416   0.074  -0.186
    1UNL    C14   15   0.281   0.061  -0.162
    1UNL     N2   16   0.176   0.047  -0.249
    1UNL    C15   17   0.047   0.075  -0.177
    1UNL     O1   18   0.018   0.218  -0.154
    1UNL    C16   19  -0.003   0.242  -0.015
    1UNL    C17   20  -0.010   0.100   0.051
    1UNL    C18   21   0.022   0.109   0.202
    1UNL     O2   22  -0.027   0.208   0.258
    1UNL     O3   23   0.085   0.016   0.251
    1UNL    C19   24  -0.160   0.054   0.033
    1UNL    C20   25  -0.172  -0.029  -0.102
    1UNL    C21   26  -0.077  -0.006  -0.214
    1UNL     O4   27  -0.101  -0.054  -0.321
    1UNL     H1   28  -0.276   0.222   0.215
    1UNL     H2   29  -0.219   0.174   0.361
    1UNL     H3   30  -0.394   0.183   0.345
    1UNL     H4   31  -0.339  -0.088   0.294
    1UNL     H5   32  -0.168  -0.236   0.164
    1UNL     H6   33  -0.321  -0.225   0.070
    1UNL     H7   34  -0.341  -0.257  -0.161
    1UNL     H8   35  -0.207  -0.274  -0.258
    1UNL     H9   36  -0.228  -0.374  -0.100
    1UNL    H10   37  -0.006  -0.327  -0.018
    1UNL    H11   38  -0.002  -0.237  -0.167
    1UNL    H12   39   0.187  -0.174  -0.015
    1UNL    H13   40   0.096  -0.151   0.117
    1UNL    H14   41   0.272   0.083   0.176
    1UNL    H15   42   0.528   0.112   0.125
    1UNL    H16   43   0.606   0.100  -0.110
    1UNL    H17   44   0.450   0.064  -0.290
    1UNL    H18   45   0.186   0.067  -0.350
    1UNL    H19   46  -0.091   0.301  -0.002
    1UNL    H20   47   0.074   0.310   0.019
    1UNL    H21   48  -0.221   0.147   0.019
    1UNL    H22   49  -0.272  -0.015  -0.148
   0.00000   0.00000   0.00000   0.00000   0.00000   0.00000   0.00000   0.00000   0.00000
Generated with MDTraj, t= 71.0
 49
    1UNL     C1    1  -0.309   0.158   0.268
    1UNL     C2    2  -0.282   0.013   0.242
    1UNL     C3    3  -0.213  -0.032   0.133
    1UNL     C4    4  -0.219  -0.173   0.092
    1UNL     N1    5  -0.169  -0.184  -0.051
    1UNL     C5    6  -0.277  -0.252  -0.133
    1UNL     C6    7  -0.039  -0.245  -0.075
    1UNL     C7    8   0.080  -0.160  -0.011
    1UNL     C8    9   0.087  -0.006  -0.027
    1UNL     C9   10   0.243   0.031  -0.022
    1UNL    C10   11   0.331   0.066   0.079
    1UNL    C11   12   0.451   0.129   0.056
    1UNL    C12   13   0.487   0.159  -0.076
    1UNL    C13   14   0.403   0.120  -0.183
    1UNL    C14   15   0.280   0.061  -0.155
    1UNL     N2   16   0.177   0.024  -0.245
    1UNL    C15   17   0.051   0.054  -0.171
    1UNL     O1   18   0.040   0.199  -0.156
    1UNL    C16   19   0.010   0.228  -0.017
    1UNL    C17   20  -0.010   0.092   0.052
    1UNL    C18   21   0.032   0.102   0.199
    1UNL     O2   22  -0.013   0.204   0.250
    1UNL     O3   23   0.086   0.005   0.251
    1UNL    C19   24  -0.161   0.059   0.025
    1UNL    C20   25  -0.175  -0.035  -0.106
    1UNL    C21   26  -0.075  -0.010  -0.212
    1UNL     O4   27  -0.084  -0.040  -0.329
    1UNL     H1   28  -0.392   0.190   0.204
    1UNL     H2   29  -0.223   0.221   0.236
    1UNL     H3   30  -0.329   0.173   0.374
    1UNL     H4   31  -0.323  -0.068   0.297
    1UNL     H5   32  -0.155  -0.228   0.163
    1UNL     H6   33  -0.322  -0.216   0.119
    1UNL     H7   34  -0.371  -0.207  -0.124
    1UNL     H8   35  -0.270  -0.231  -0.240
    1UNL     H9   36  -0.286  -0.359  -0.095
    1UNL    H10   37  -0.044  -0.340  -0.017
    1UNL    H11   38  -0.015  -0.266  -0.178
    1UNL    H12   39   0.169  -0.205  -0.052
    1UNL    H13   40   0.097  -0.190   0.094
    1UNL    H14   41   0.314   0.047   0.184
    1UNL    H15   42   0.513   0.159   0.136
    1UNL    H16   43   0.577   0.211  -0.086
    1UNL    H17   44   0.429   0.137  -0.286
    1UNL    H18   45   0.176   0.058  -0.340
    1UNL    H19   46  -0.079   0.291  -0.023
    1UNL    H20   47   0.081   0.296   0.028
    1UNL    H21   48  -0.227   0.151   0.029
    1UNL    H22   49  -0.275  -0.005  -0.144
   0.00000   0.00000   0.00000   0.00000   0.00000   0.00000   0.00000   0.00000   0.00000
Generated with MDTraj, t= 72.0
 49
    1UNL     C1    1  -0.273   0.156   0.286
    1UNL     C2    2  -0.269   0.022   0.242
    1UNL     C3    3  -0.212  -0.025   0.128
    1UNL     C4    4  -0.212  -0.170   0.086
    1UNL     N1    5  -0.172  -0.178  -0.059
    1UNL     C5    6  -0.275  -0.262  -0.136
    1UNL     C6    7  -0.035  -0.234  -0.066
    1UNL     C7    8   0.078  -0.149   0.003
    1UNL     C8    9   0.094   0.002  -0.027
    1UNL     C9   10   0.236   0.043  -0.018
    1UNL    C10   11   0.307   0.078   0.091
    1UNL    C11   12   0.428   0.140   0.070
    1UNL    C12   13   0.473   0.149  -0.062
    1UNL    C13   14   0.407   0.104  -0.174
    1UNL    C14   15   0.278   0.056  -0.151
    1UNL     N2   16   0.177   0.037  -0.248
    1UNL    C15   17   0.051   0.049  -0.175
    1UNL     O1   18   0.016   0.194  -0.166
    1UNL    C16   19   0.020   0.230  -0.027
    1UNL    C17   20  -0.008   0.096   0.049
    1UNL    C18   21   0.027   0.095   0.199
    1UNL     O2   22   0.009   0.202   0.259
    1UNL     O3   23   0.077  -0.010   0.240
    1UNL    C19   24  -0.151   0.058   0.019
    1UNL    C20   25  -0.175  -0.031  -0.116
    1UNL    C21   26  -0.076  -0.020  -0.228
    1UNL     O4   27  -0.097  -0.059  -0.338
    1UNL     H1   28  -0.372   0.193   0.264
    1UNL     H2   29  -0.199   0.221   0.235
    1UNL     H3   30  -0.253   0.152   0.394
    1UNL     H4   31  -0.315  -0.063   0.294
    1UNL     H5   32  -0.149  -0.233   0.149
    1UNL     H6   33  -0.312  -0.218   0.109
    1UNL     H7   34  -0.381  -0.246  -0.146
    1UNL     H8   35  -0.253  -0.240  -0.241
    1UNL     H9   36  -0.255  -0.366  -0.101
    1UNL    H10   37  -0.021  -0.342  -0.044
    1UNL    H11   38  -0.016  -0.230  -0.174
    1UNL    H12   39   0.170  -0.203  -0.014
    1UNL    H13   40   0.077  -0.163   0.111
    1UNL    H14   41   0.267   0.070   0.190
    1UNL    H15   42   0.491   0.162   0.157
    1UNL    H16   43   0.563   0.217  -0.079
    1UNL    H17   44   0.445   0.122  -0.272
    1UNL    H18   45   0.175   0.084  -0.335
    1UNL    H19   46  -0.039   0.324  -0.022
    1UNL    H20   47   0.122   0.261   0.006
    1UNL    H21   48  -0.210   0.152   0.002
    1UNL    H22   49  -0.276  -0.010  -0.157
   0.00000   0.00000   0.00000   0.00000   0.00000   0.00000   0.00000   0.00000   0.00000
Generated with MDTraj, t= 73.0
 49
    1UNL     C1    1  -0.264   0.131   0.297
    1UNL     C2    2  -0.270   0.002   0.253
    1UNL     C3    3  -0.216  -0.050   0.139
    1UNL     C4    4  -0.228  -0.185   0.080
    1UNL     N1    5  -0.173  -0.180  -0.072
    1UNL     C5    6  -0.265  -0.272  -0.150
    1UNL     C6    7  -0.026  -0.217  -0.068
    1UNL     C7    8   0.078  -0.138   0.007
    1UNL     C8    9   0.088   0.012  -0.023
    1UNL     C9   10   0.238   0.058  -0.015
    1UNL    C10   11   0.322   0.089   0.091
    1UNL    C11   12   0.456   0.114   0.059
    1UNL    C12   13   0.500   0.114  -0.072
    1UNL    C13   14   0.421   0.087  -0.181
    1UNL    C14   15   0.283   0.063  -0.155
    1UNL     N2   16   0.178   0.053  -0.246
    1UNL    C15   17   0.049   0.063  -0.173
    1UNL     O1   18   0.016   0.205  -0.171
    1UNL    C16   19  -0.004   0.233  -0.032
    1UNL    C17   20  -0.020   0.100   0.047
    1UNL    C18   21   0.016   0.118   0.199
    1UNL     O2   22   0.030   0.235   0.240
    1UNL     O3   23   0.031   0.010   0.262
    1UNL    C19   24  -0.158   0.043   0.029
    1UNL    C20   25  -0.180  -0.033  -0.113
    1UNL    C21   26  -0.079  -0.015  -0.224
    1UNL     O4   27  -0.089  -0.069  -0.330
    1UNL     H1   28  -0.354   0.185   0.273
    1UNL     H2   29  -0.181   0.193   0.262
    1UNL     H3   30  -0.254   0.129   0.406
    1UNL     H4   31  -0.320  -0.076   0.308
    1UNL     H5   32  -0.176  -0.252   0.146
    1UNL     H6   33  -0.332  -0.234   0.092
    1UNL     H7   34  -0.372  -0.249  -0.140
    1UNL     H8   35  -0.256  -0.252  -0.256
    1UNL     H9   36  -0.250  -0.374  -0.120
    1UNL    H10   37  -0.030  -0.322  -0.036
    1UNL    H11   38   0.020  -0.232  -0.167
    1UNL    H12   39   0.179  -0.174  -0.002
    1UNL    H13   40   0.065  -0.148   0.112
    1UNL    H14   41   0.279   0.077   0.192
    1UNL    H15   42   0.526   0.127   0.141
    1UNL    H16   43   0.601   0.122  -0.087
    1UNL    H17   44   0.445   0.110  -0.287
    1UNL    H18   45   0.169   0.119  -0.321
    1UNL    H19   46  -0.093   0.301  -0.033
    1UNL    H20   47   0.077   0.293   0.022
    1UNL    H21   48  -0.229   0.133   0.024
    1UNL    H22   49  -0.284  -0.019  -0.152
   0.00000   0.00000   0.00000   0.00000   0.00000   0.00000   0.00000   0.00000   0.00000
Generated with MDTraj, t= 74.0
 49
    1UNL     C1    1  -0.300   0.107   0.309
    1UNL     C2    2  -0.271  -0.027   0.260
    1UNL     C3    3  -0.210  -0.050   0.139
    1UNL     C4    4  -0.210  -0.188   0.083
    1UNL     N1    5  -0.156  -0.180  -0.062
    1UNL     C5    6  -0.225  -0.269  -0.152
    1UNL     C6    7  -0.017  -0.219  -0.078
    1UNL     C7    8   0.075  -0.128   0.007
    1UNL     C8    9   0.079   0.023  -0.027
    1UNL     C9   10   0.230   0.063  -0.023
    1UNL    C10   11   0.316   0.063   0.086
    1UNL    C11   12   0.452   0.078   0.056
    1UNL    C12   13   0.499   0.086  -0.077
    1UNL    C13   14   0.408   0.081  -0.180
    1UNL    C14   15   0.274   0.059  -0.154
    1UNL     N2   16   0.172   0.036  -0.247
    1UNL    C15   17   0.049   0.067  -0.170
    1UNL     O1   18   0.038   0.215  -0.168
    1UNL    C16   19  -0.028   0.233  -0.040
    1UNL    C17   20  -0.028   0.111   0.053
    1UNL    C18   21   0.021   0.138   0.196
    1UNL     O2   22   0.040   0.258   0.216
    1UNL     O3   23   0.031   0.041   0.274
    1UNL    C19   24  -0.170   0.049   0.033
    1UNL    C20   25  -0.177  -0.034  -0.101
    1UNL    C21   26  -0.078  -0.003  -0.216
    1UNL     O4   27  -0.091  -0.047  -0.330
    1UNL     H1   28  -0.388   0.146   0.259
    1UNL     H2   29  -0.216   0.172   0.287
    1UNL     H3   30  -0.315   0.104   0.417
    1UNL     H4   31  -0.311  -0.116   0.305
    1UNL     H5   32  -0.170  -0.270   0.142
    1UNL     H6   33  -0.318  -0.223   0.081
    1UNL     H7   34  -0.331  -0.243  -0.178
    1UNL     H8   35  -0.177  -0.252  -0.249
    1UNL     H9   36  -0.209  -0.372  -0.138
    1UNL    H10   37   0.007  -0.323  -0.062
    1UNL    H11   38   0.012  -0.204  -0.184
    1UNL    H12   39   0.174  -0.171   0.011
    1UNL    H13   40   0.041  -0.138   0.106
    1UNL    H14   41   0.287   0.042   0.185
    1UNL    H15   42   0.522   0.058   0.132
    1UNL    H16   43   0.610   0.094  -0.094
    1UNL    H17   44   0.440   0.093  -0.277
    1UNL    H18   45   0.173   0.098  -0.329
    1UNL    H19   46  -0.130   0.273  -0.062
    1UNL    H20   47   0.020   0.322   0.013
    1UNL    H21   48  -0.246   0.135   0.038
    1UNL    H22   49  -0.283  -0.024  -0.134
   0.00000   0.00000   0.00000   0.00000   0.00000   0.00000   0.00000   0.00000   0.00000
Generated with MDTraj, t= 75.0
 49
    1UNL     C1    1  -0.265   0.128   0.310
    1UNL     C2    2  -0.259  -0.018   0.256
    1UNL     C3    3  -0.212  -0.052   0.132
    1UNL     C4    4  -0.204  -0.191   0.083
    1UNL     N1    5  -0.155  -0.181  -0.069
    1UNL     C5    6  -0.232  -0.279  -0.147
    1UNL     C6    7  -0.012  -0.224  -0.079
    1UNL     C7    8   0.081  -0.138   0.009
    1UNL     C8    9   0.082   0.015  -0.028
    1UNL     C9   10   0.226   0.058  -0.024
    1UNL    C10   11   0.303   0.082   0.088
    1UNL    C11   12   0.442   0.095   0.064
    1UNL    C12   13   0.492   0.070  -0.067
    1UNL    C13   14   0.412   0.060  -0.174
    1UNL    C14   15   0.279   0.054  -0.153
    1UNL     N2   16   0.176   0.047  -0.245
    1UNL    C15   17   0.049   0.067  -0.179
    1UNL     O1   18   0.016   0.212  -0.172
    1UNL    C16   19  -0.014   0.231  -0.037
    1UNL    C17   20  -0.018   0.104   0.052
    1UNL    C18   21   0.017   0.133   0.198
    1UNL     O2   22  -0.003   0.252   0.230
    1UNL     O3   23   0.050   0.038   0.271
    1UNL    C19   24  -0.168   0.048   0.029
    1UNL    C20   25  -0.171  -0.035  -0.105
    1UNL    C21   26  -0.080  -0.000  -0.222
    1UNL     O4   27  -0.107  -0.021  -0.338
    1UNL     H1   28  -0.276   0.197   0.227
    1UNL     H2   29  -0.171   0.152   0.354
    1UNL     H3   30  -0.343   0.146   0.384
    1UNL     H4   31  -0.279  -0.106   0.318
    1UNL     H5   32  -0.142  -0.254   0.147
    1UNL     H6   33  -0.301  -0.248   0.095
    1UNL     H7   34  -0.340  -0.249  -0.141
    1UNL     H8   35  -0.211  -0.289  -0.254
    1UNL     H9   36  -0.221  -0.380  -0.120
    1UNL    H10   37   0.001  -0.330  -0.065
    1UNL    H11   38   0.035  -0.206  -0.179
    1UNL    H12   39   0.181  -0.178  -0.007
    1UNL    H13   40   0.059  -0.152   0.110
    1UNL    H14   41   0.256   0.084   0.188
    1UNL    H15   42   0.519   0.119   0.141
    1UNL    H16   43   0.594   0.076  -0.093
    1UNL    H17   44   0.458   0.053  -0.275
    1UNL    H18   45   0.172   0.098  -0.336
    1UNL    H19   46  -0.115   0.271  -0.036
    1UNL    H20   47   0.041   0.321  -0.000
    1UNL    H21   48  -0.236   0.138   0.015
    1UNL    H22   49  -0.272  -0.022  -0.151
   0.00000   0.00000   0.00000   0.00000   0.00000   0.00000   0.00000   0.00000   0.00000
Generated with MDTraj, t= 76.0
 49
    1UNL     C1    1  -0.272   0.121   0.320
    1UNL     C2    2  -0.259  -0.016   0.257
    1UNL     C3    3  -0.208  -0.043   0.131
    1UNL     C4    4  -0.218  -0.173   0.077
    1UNL     N1    5  -0.178  -0.173  -0.070
    1UNL     C5    6  -0.278  -0.258  -0.146
    1UNL     C6    7  -0.030  -0.219  -0.070
    1UNL     C7    8   0.064  -0.138   0.016
    1UNL     C8    9   0.088   0.013  -0.024
    1UNL     C9   10   0.238   0.052  -0.018
    1UNL    C10   11   0.327   0.087   0.090
    1UNL    C11   12   0.461   0.114   0.066
    1UNL    C12   13   0.505   0.118  -0.063
    1UNL    C13   14   0.421   0.088  -0.171
    1UNL    C14   15   0.287   0.060  -0.153
    1UNL     N2   16   0.183   0.037  -0.248
    1UNL    C15   17   0.053   0.051  -0.170
    1UNL     O1   18   0.019   0.189  -0.179
    1UNL    C16   19  -0.008   0.232  -0.050
    1UNL    C17   20  -0.018   0.109   0.044
    1UNL    C18   21   0.019   0.118   0.191
    1UNL     O2   22  -0.023   0.219   0.249
    1UNL     O3   23   0.084   0.024   0.242
    1UNL    C19   24  -0.167   0.052   0.025
    1UNL    C20   25  -0.184  -0.026  -0.109
    1UNL    C21   26  -0.078  -0.016  -0.222
    1UNL     O4   27  -0.090  -0.055  -0.333
    1UNL     H1   28  -0.268   0.205   0.249
    1UNL     H2   29  -0.185   0.145   0.377
    1UNL     H3   30  -0.358   0.142   0.383
    1UNL     H4   31  -0.301  -0.100   0.309
    1UNL     H5   32  -0.172  -0.254   0.139
    1UNL     H6   33  -0.325  -0.200   0.083
    1UNL     H7   34  -0.381  -0.224  -0.128
    1UNL     H8   35  -0.254  -0.246  -0.253
    1UNL     H9   36  -0.272  -0.365  -0.154
    1UNL    H10   37  -0.024  -0.323  -0.040
    1UNL    H11   38   0.016  -0.228  -0.172
    1UNL    H12   39   0.165  -0.178   0.020
    1UNL    H13   40   0.035  -0.134   0.116
    1UNL    H14   41   0.281   0.080   0.184
    1UNL    H15   42   0.516   0.157   0.141
    1UNL    H16   43   0.609   0.144  -0.086
    1UNL    H17   44   0.448   0.087  -0.271
    1UNL    H18   45   0.169   0.103  -0.328
    1UNL    H19   46  -0.089   0.301  -0.042
    1UNL    H20   47   0.079   0.292  -0.022
    1UNL    H21   48  -0.241   0.140   0.029
    1UNL    H22   49  -0.285  -0.018  -0.153
   0.00000   0.00000   0.00000   0.00000   0.00000   0.00000   0.00000   0.00000   0.00000
Generated with MDTraj, t= 77.0
 49
    1UNL     C1    1  -0.280   0.139   0.293
    1UNL     C2    2  -0.280   0.003   0.238
    1UNL     C3    3  -0.215  -0.038   0.125
    1UNL     C4    4  -0.233  -0.178   0.080
    1UNL     N1    5  -0.181  -0.170  -0.070
    1UNL     C5    6  -0.259  -0.256  -0.162
    1UNL     C6    7  -0.038  -0.229  -0.077
    1UNL     C7    8   0.077  -0.160   0.001
    1UNL     C8    9   0.092  -0.003  -0.020
    1UNL     C9   10   0.237   0.037  -0.021
    1UNL    C10   11   0.318   0.061   0.087
    1UNL    C11   12   0.440   0.116   0.055
    1UNL    C12   13   0.479   0.148  -0.078
    1UNL    C13   14   0.401   0.114  -0.189
    1UNL    C14   15   0.276   0.060  -0.153
    1UNL     N2   16   0.171   0.037  -0.246
    1UNL    C15   17   0.053   0.049  -0.166
    1UNL     O1   18   0.027   0.192  -0.154
    1UNL    C16   19   0.009   0.229  -0.017
    1UNL    C17   20  -0.006   0.096   0.057
    1UNL    C18   21   0.023   0.118   0.204
    1UNL     O2   22   0.010   0.236   0.244
    1UNL     O3   23   0.086   0.029   0.264
    1UNL    C19   24  -0.155   0.048   0.026
    1UNL    C20   25  -0.182  -0.027  -0.109
    1UNL    C21   26  -0.076  -0.017  -0.213
    1UNL     O4   27  -0.077  -0.071  -0.322
    1UNL     H1   28  -0.367   0.200   0.265
    1UNL     H2   29  -0.195   0.195   0.261
    1UNL     H3   30  -0.280   0.143   0.402
    1UNL     H4   31  -0.343  -0.073   0.291
    1UNL     H5   32  -0.174  -0.257   0.139
    1UNL     H6   33  -0.336  -0.212   0.097
    1UNL     H7   34  -0.360  -0.227  -0.157
    1UNL     H8   35  -0.224  -0.261  -0.268
    1UNL     H9   36  -0.257  -0.365  -0.148
    1UNL    H10   37  -0.029  -0.337  -0.073
    1UNL    H11   38  -0.008  -0.210  -0.183
    1UNL    H12   39   0.171  -0.201  -0.035
    1UNL    H13   40   0.073  -0.180   0.105
    1UNL    H14   41   0.276   0.069   0.189
    1UNL    H15   42   0.514   0.126   0.139
    1UNL    H16   43   0.572   0.203  -0.088
    1UNL    H17   44   0.452   0.109  -0.287
    1UNL    H18   45   0.177   0.083  -0.340
    1UNL    H19   46  -0.072   0.293   0.005
    1UNL    H20   47   0.097   0.283   0.018
    1UNL    H21   48  -0.212   0.148   0.027
    1UNL    H22   49  -0.279  -0.000  -0.153
   0.00000   0.00000   0.00000   0.00000   0.00000   0.00000   0.00000   0.00000   0.00000
Generated with MDTraj, t= 78.0
 49
    1UNL     C1    1  -0.276   0.159   0.281
    1UNL     C2    2  -0.272   0.018   0.260
    1UNL     C3    3  -0.221  -0.033   0.139
    1UNL     C4    4  -0.221  -0.172   0.087
    1UNL     N1    5  -0.162  -0.179  -0.058
    1UNL     C5    6  -0.252  -0.282  -0.123
    1UNL     C6    7  -0.020  -0.235  -0.062
    1UNL     C7    8   0.093  -0.144  -0.012
    1UNL     C8    9   0.089   0.007  -0.030
    1UNL     C9   10   0.232   0.053  -0.023
    1UNL    C10   11   0.314   0.081   0.080
    1UNL    C11   12   0.445   0.122   0.065
    1UNL    C12   13   0.494   0.121  -0.066
    1UNL    C13   14   0.413   0.102  -0.181
    1UNL    C14   15   0.281   0.068  -0.156
    1UNL     N2   16   0.181   0.040  -0.256
    1UNL    C15   17   0.054   0.060  -0.181
    1UNL     O1   18   0.038   0.203  -0.159
    1UNL    C16   19  -0.003   0.234  -0.026
    1UNL    C17   20  -0.012   0.098   0.048
    1UNL    C18   21   0.016   0.097   0.192
    1UNL     O2   22   0.007   0.205   0.250
    1UNL     O3   23   0.031  -0.017   0.237
    1UNL    C19   24  -0.168   0.049   0.029
    1UNL    C20   25  -0.179  -0.034  -0.104
    1UNL    C21   26  -0.077  -0.008  -0.219
    1UNL     O4   27  -0.100  -0.037  -0.333
    1UNL     H1   28  -0.380   0.194   0.281
    1UNL     H2   29  -0.214   0.212   0.210
    1UNL     H3   30  -0.244   0.182   0.381
    1UNL     H4   31  -0.325  -0.038   0.334
    1UNL     H5   32  -0.151  -0.230   0.159
    1UNL     H6   33  -0.318  -0.221   0.094
    1UNL     H7   34  -0.350  -0.259  -0.149
    1UNL     H8   35  -0.199  -0.294  -0.221
    1UNL     H9   36  -0.253  -0.383  -0.079
    1UNL    H10   37  -0.019  -0.326  -0.001
    1UNL    H11   38   0.003  -0.267  -0.166
    1UNL    H12   39   0.184  -0.182  -0.053
    1UNL    H13   40   0.091  -0.156   0.094
    1UNL    H14   41   0.272   0.090   0.177
    1UNL    H15   42   0.501   0.157   0.145
    1UNL    H16   43   0.601   0.119  -0.079
    1UNL    H17   44   0.455   0.102  -0.280
    1UNL    H18   45   0.179   0.087  -0.347
    1UNL    H19   46  -0.091   0.293  -0.023
    1UNL    H20   47   0.078   0.292   0.019
    1UNL    H21   48  -0.225   0.147   0.010
    1UNL    H22   49  -0.276  -0.012  -0.151
   0.00000   0.00000   0.00000   0.00000   0.00000   0.00000   0.00000   0.00000   0.00000
Generated with MDTraj, t= 79.0
 49
    1UNL     C1    1  -0.288   0.140   0.270
    1UNL     C2    2  -0.271   0.002   0.245
    1UNL     C3    3  -0.206  -0.041   0.133
    1UNL     C4    4  -0.201  -0.188   0.094
    1UNL     N1    5  -0.161  -0.179  -0.055
    1UNL     C5    6  -0.256  -0.267  -0.127
    1UNL     C6    7  -0.021  -0.224  -0.071
    1UNL     C7    8   0.082  -0.147   0.003
    1UNL     C8    9   0.086   0.015  -0.029
    1UNL     C9   10   0.223   0.059  -0.021
    1UNL    C10   11   0.315   0.087   0.080
    1UNL    C11   12   0.450   0.104   0.059
    1UNL    C12   13   0.501   0.106  -0.068
    1UNL    C13   14   0.415   0.084  -0.177
    1UNL    C14   15   0.278   0.059  -0.152
    1UNL     N2   16   0.175   0.057  -0.241
    1UNL    C15   17   0.042   0.066  -0.174
    1UNL     O1   18   0.012   0.209  -0.167
    1UNL    C16   19  -0.001   0.238  -0.030
    1UNL    C17   20  -0.016   0.102   0.048
    1UNL    C18   21   0.020   0.111   0.198
    1UNL     O2   22   0.025   0.221   0.254
    1UNL     O3   23   0.045  -0.002   0.246
    1UNL    C19   24  -0.166   0.050   0.021
    1UNL    C20   25  -0.182  -0.031  -0.111
    1UNL    C21   26  -0.081  -0.013  -0.221
    1UNL     O4   27  -0.090  -0.048  -0.333
    1UNL     H1   28  -0.382   0.178   0.231
    1UNL     H2   29  -0.204   0.204   0.236
    1UNL     H3   30  -0.300   0.163   0.375
    1UNL     H4   31  -0.340  -0.065   0.303
    1UNL     H5   32  -0.133  -0.249   0.165
    1UNL     H6   33  -0.297  -0.240   0.097
    1UNL     H7   34  -0.356  -0.266  -0.091
    1UNL     H8   35  -0.257  -0.249  -0.234
    1UNL     H9   36  -0.228  -0.372  -0.111
    1UNL    H10   37  -0.022  -0.332  -0.051
    1UNL    H11   38  -0.002  -0.222  -0.181
    1UNL    H12   39   0.176  -0.191  -0.013
    1UNL    H13   40   0.058  -0.151   0.108
    1UNL    H14   41   0.279   0.091   0.182
    1UNL    H15   42   0.505   0.136   0.150
    1UNL    H16   43   0.609   0.109  -0.080
    1UNL    H17   44   0.435   0.091  -0.281
    1UNL    H18   45   0.182   0.114  -0.322
    1UNL    H19   46  -0.091   0.298  -0.017
    1UNL    H20   47   0.087   0.304  -0.007
    1UNL    H21   48  -0.227   0.147   0.017
    1UNL    H22   49  -0.282  -0.020  -0.155
   0.00000   0.00000   0.00000   0.00000   0.00000   0.00000   0.00000   0.00000   0.00000
Generated with MDTraj, t= 80.0
 49
    1UNL     C1    1  -0.293   0.113   0.308
    1UNL     C2    2  -0.300  -0.017   0.243
    1UNL     C3    3  -0.231  -0.041   0.129
    1UNL     C4    4  -0.222  -0.178   0.081
    1UNL     N1    5  -0.172  -0.176  -0.065
    1UNL     C5    6  -0.254  -0.256  -0.157
    1UNL     C6    7  -0.025  -0.219  -0.070
    1UNL     C7    8   0.075  -0.138   0.015
    1UNL     C8    9   0.092   0.010  -0.018
    1UNL     C9   10   0.239   0.048  -0.018
    1UNL    C10   11   0.328   0.054   0.085
    1UNL    C11   12   0.459   0.089   0.051
    1UNL    C12   13   0.499   0.108  -0.084
    1UNL    C13   14   0.404   0.108  -0.181
    1UNL    C14   15   0.278   0.056  -0.152
    1UNL     N2   16   0.174   0.050  -0.250
    1UNL    C15   17   0.052   0.057  -0.170
    1UNL     O1   18   0.009   0.193  -0.165
    1UNL    C16   19  -0.001   0.233  -0.029
    1UNL    C17   20  -0.010   0.107   0.054
    1UNL    C18   21   0.029   0.131   0.199
    1UNL     O2   22  -0.000   0.245   0.235
    1UNL     O3   23   0.082   0.041   0.264
    1UNL    C19   24  -0.160   0.049   0.030
    1UNL    C20   25  -0.170  -0.029  -0.111
    1UNL    C21   26  -0.066  -0.017  -0.218
    1UNL     O4   27  -0.087  -0.063  -0.328
    1UNL     H1   28  -0.312   0.194   0.239
    1UNL     H2   29  -0.192   0.130   0.354
    1UNL     H3   30  -0.366   0.129   0.385
    1UNL     H4   31  -0.350  -0.099   0.287
    1UNL     H5   32  -0.146  -0.233   0.144
    1UNL     H6   33  -0.319  -0.232   0.085
    1UNL     H7   34  -0.365  -0.243  -0.148
    1UNL     H8   35  -0.222  -0.243  -0.257
    1UNL     H9   36  -0.238  -0.359  -0.124
    1UNL    H10   37  -0.031  -0.324  -0.041
    1UNL    H11   38  -0.001  -0.223  -0.177
    1UNL    H12   39   0.170  -0.181   0.010
    1UNL    H13   40   0.035  -0.142   0.116
    1UNL    H14   41   0.298   0.043   0.188
    1UNL    H15   42   0.529   0.099   0.132
    1UNL    H16   43   0.596   0.147  -0.105
    1UNL    H17   44   0.433   0.132  -0.285
    1UNL    H18   45   0.166   0.130  -0.308
    1UNL    H19   46  -0.087   0.302  -0.019
    1UNL    H20   47   0.093   0.295  -0.007
    1UNL    H21   48  -0.225   0.142   0.016
    1UNL    H22   49  -0.267  -0.007  -0.159
   0.00000   0.00000   0.00000   0.00000   0.00000   0.00000   0.00000   0.00000   0.00000
Generated with MDTraj, t= 81.0
 49
    1UNL     C1    1  -0.257   0.129   0.323
    1UNL     C2    2  -0.232  -0.015   0.270
    1UNL     C3    3  -0.217  -0.048   0.140
    1UNL     C4    4  -0.234  -0.174   0.075
    1UNL     N1    5  -0.174  -0.173  -0.068
    1UNL     C5    6  -0.245  -0.265  -0.161
    1UNL     C6    7  -0.019  -0.220  -0.069
    1UNL     C7    8   0.080  -0.139   0.012
    1UNL     C8    9   0.081   0.013  -0.029
    1UNL     C9   10   0.233   0.059  -0.020
    1UNL    C10   11   0.313   0.083   0.090
    1UNL    C11   12   0.451   0.098   0.062
    1UNL    C12   13   0.500   0.099  -0.070
    1UNL    C13   14   0.416   0.075  -0.175
    1UNL    C14   15   0.281   0.048  -0.152
    1UNL     N2   16   0.181   0.037  -0.246
    1UNL    C15   17   0.054   0.061  -0.175
    1UNL     O1   18   0.039   0.209  -0.177
    1UNL    C16   19  -0.023   0.230  -0.047
    1UNL    C17   20  -0.025   0.101   0.041
    1UNL    C18   21   0.010   0.119   0.194
    1UNL     O2   22  -0.040   0.218   0.243
    1UNL     O3   23   0.084   0.044   0.257
    1UNL    C19   24  -0.171   0.047   0.029
    1UNL    C20   25  -0.191  -0.024  -0.117
    1UNL    C21   26  -0.080  -0.002  -0.218
    1UNL     O4   27  -0.091  -0.048  -0.329
    1UNL     H1   28  -0.263   0.196   0.238
    1UNL     H2   29  -0.171   0.155   0.389
    1UNL     H3   30  -0.353   0.141   0.371
    1UNL     H4   31  -0.250  -0.102   0.337
    1UNL     H5   32  -0.180  -0.254   0.129
    1UNL     H6   33  -0.345  -0.192   0.062
    1UNL     H7   34  -0.344  -0.221  -0.195
    1UNL     H8   35  -0.184  -0.277  -0.246
    1UNL     H9   36  -0.272  -0.356  -0.109
    1UNL    H10   37  -0.019  -0.322  -0.026
    1UNL    H11   38   0.006  -0.225  -0.175
    1UNL    H12   39   0.174  -0.178  -0.007
    1UNL    H13   40   0.058  -0.148   0.118
    1UNL    H14   41   0.271   0.074   0.186
    1UNL    H15   42   0.527   0.128   0.132
    1UNL    H16   43   0.609   0.109  -0.087
    1UNL    H17   44   0.460   0.075  -0.269
    1UNL    H18   45   0.189   0.090  -0.330
    1UNL    H19   46  -0.119   0.284  -0.065
    1UNL    H20   47   0.045   0.304   0.008
    1UNL    H21   48  -0.236   0.140   0.041
    1UNL    H22   49  -0.292  -0.003  -0.158
   0.00000   0.00000   0.00000   0.00000   0.00000   0.00000   0.00000   0.00000   0.00000
Generated with MDTraj, t= 82.0
 49
    1UNL     C1    1  -0.258   0.099   0.318
    1UNL     C2    2  -0.269  -0.036   0.250
    1UNL     C3    3  -0.219  -0.051   0.129
    1UNL     C4    4  -0.210  -0.190   0.079
    1UNL     N1    5  -0.167  -0.177  -0.065
    1UNL     C5    6  -0.250  -0.273  -0.154
    1UNL     C6    7  -0.020  -0.215  -0.091
    1UNL     C7    8   0.072  -0.135  -0.000
    1UNL     C8    9   0.082   0.019  -0.027
    1UNL     C9   10   0.227   0.062  -0.025
    1UNL    C10   11   0.303   0.091   0.089
    1UNL    C11   12   0.438   0.114   0.065
    1UNL    C12   13   0.489   0.094  -0.060
    1UNL    C13   14   0.413   0.055  -0.163
    1UNL    C14   15   0.281   0.045  -0.154
    1UNL     N2   16   0.180   0.030  -0.245
    1UNL    C15   17   0.047   0.060  -0.172
    1UNL     O1   18   0.038   0.198  -0.168
    1UNL    C16   19  -0.006   0.239  -0.037
    1UNL    C17   20  -0.019   0.111   0.048
    1UNL    C18   21   0.020   0.138   0.198
    1UNL     O2   22   0.033   0.259   0.217
    1UNL     O3   23   0.045   0.048   0.278
    1UNL    C19   24  -0.162   0.051   0.030
    1UNL    C20   25  -0.177  -0.032  -0.109
    1UNL    C21   26  -0.085  -0.002  -0.221
    1UNL     O4   27  -0.105  -0.036  -0.332
    1UNL     H1   28  -0.294   0.180   0.255
    1UNL     H2   29  -0.154   0.112   0.350
    1UNL     H3   30  -0.319   0.107   0.408
    1UNL     H4   31  -0.308  -0.128   0.286
    1UNL     H5   32  -0.135  -0.247   0.134
    1UNL     H6   33  -0.314  -0.237   0.077
    1UNL     H7   34  -0.344  -0.296  -0.096
    1UNL     H8   35  -0.275  -0.240  -0.253
    1UNL     H9   36  -0.198  -0.367  -0.142
    1UNL    H10   37  -0.015  -0.324  -0.071
    1UNL    H11   38   0.001  -0.191  -0.195
    1UNL    H12   39   0.167  -0.176  -0.010
    1UNL    H13   40   0.048  -0.136   0.106
    1UNL    H14   41   0.244   0.105   0.183
    1UNL    H15   42   0.496   0.150   0.153
    1UNL    H16   43   0.594   0.091  -0.077
    1UNL    H17   44   0.453   0.029  -0.264
    1UNL    H18   45   0.171   0.085  -0.331
    1UNL    H19   46  -0.105   0.276  -0.064
    1UNL    H20   47   0.055   0.326   0.002
    1UNL    H21   48  -0.237   0.136   0.036
    1UNL    H22   49  -0.282  -0.026  -0.144
   0.00000   0.00000   0.00000   0.00000   0.00000   0.00000   0.00000   0.00000   0.00000
Generated with MDTraj, t= 83.0
 49
    1UNL     C1    1  -0.261   0.119   0.299
    1UNL     C2    2  -0.261  -0.021   0.251
    1UNL     C3    3  -0.215  -0.057   0.133
    1UNL     C4    4  -0.224  -0.192   0.068
    1UNL     N1    5  -0.170  -0.182  -0.062
    1UNL     C5    6  -0.252  -0.274  -0.158
    1UNL     C6    7  -0.018  -0.216  -0.058
    1UNL     C7    8   0.066  -0.132   0.034
    1UNL     C8    9   0.084   0.014  -0.022
    1UNL     C9   10   0.232   0.057  -0.021
    1UNL    C10   11   0.320   0.060   0.090
    1UNL    C11   12   0.451   0.104   0.061
    1UNL    C12   13   0.500   0.113  -0.069
    1UNL    C13   14   0.412   0.097  -0.175
    1UNL    C14   15   0.276   0.071  -0.153
    1UNL     N2   16   0.179   0.041  -0.245
    1UNL    C15   17   0.050   0.054  -0.176
    1UNL     O1   18   0.020   0.202  -0.171
    1UNL    C16   19  -0.016   0.233  -0.037
    1UNL    C17   20  -0.020   0.103   0.048
    1UNL    C18   21   0.030   0.129   0.192
    1UNL     O2   22   0.064   0.242   0.225
    1UNL     O3   23   0.008   0.033   0.263
    1UNL    C19   24  -0.162   0.048   0.031
    1UNL    C20   25  -0.183  -0.034  -0.111
    1UNL    C21   26  -0.078  -0.011  -0.220
    1UNL     O4   27  -0.107  -0.037  -0.333
    1UNL     H1   28  -0.311   0.188   0.230
    1UNL     H2   29  -0.163   0.148   0.333
    1UNL     H3   30  -0.323   0.132   0.391
    1UNL     H4   31  -0.314  -0.102   0.304
    1UNL     H5   32  -0.163  -0.266   0.119
    1UNL     H6   33  -0.334  -0.220   0.056
    1UNL     H7   34  -0.342  -0.221  -0.184
    1UNL     H8   35  -0.192  -0.272  -0.251
    1UNL     H9   36  -0.277  -0.371  -0.114
    1UNL    H10   37  -0.021  -0.318  -0.013
    1UNL    H11   38   0.016  -0.212  -0.162
    1UNL    H12   39   0.166  -0.166   0.041
    1UNL    H13   40   0.031  -0.133   0.136
    1UNL    H14   41   0.283   0.062   0.188
    1UNL    H15   42   0.518   0.117   0.138
    1UNL    H16   43   0.608   0.129  -0.091
    1UNL    H17   44   0.454   0.093  -0.271
    1UNL    H18   45   0.184   0.050  -0.348
    1UNL    H19   46  -0.103   0.294  -0.051
    1UNL    H20   47   0.064   0.298   0.000
    1UNL    H21   48  -0.235   0.135   0.025
    1UNL    H22   49  -0.285  -0.020  -0.149
   0.00000   0.00000   0.00000   0.00000   0.00000   0.00000   0.00000   0.00000   0.00000
Generated with MDTraj, t= 84.0
 49
    1UNL     C1    1  -0.282   0.148   0.295
    1UNL     C2    2  -0.281   0.010   0.250
    1UNL     C3    3  -0.216  -0.031   0.142
    1UNL     C4    4  -0.214  -0.176   0.086
    1UNL     N1    5  -0.166  -0.172  -0.063
    1UNL     C5    6  -0.264  -0.255  -0.150
    1UNL     C6    7  -0.024  -0.234  -0.069
    1UNL     C7    8   0.085  -0.147  -0.001
    1UNL     C8    9   0.086   0.007  -0.029
    1UNL     C9   10   0.233   0.054  -0.027
    1UNL    C10   11   0.317   0.079   0.076
    1UNL    C11   12   0.449   0.110   0.063
    1UNL    C12   13   0.500   0.125  -0.068
    1UNL    C13   14   0.415   0.096  -0.179
    1UNL    C14   15   0.280   0.069  -0.157
    1UNL     N2   16   0.170   0.052  -0.247
    1UNL    C15   17   0.041   0.064  -0.175
    1UNL     O1   18   0.003   0.196  -0.157
    1UNL    C16   19  -0.007   0.233  -0.016
    1UNL    C17   20  -0.021   0.094   0.055
    1UNL    C18   21   0.023   0.108   0.198
    1UNL     O2   22   0.034   0.222   0.241
    1UNL     O3   23   0.049   0.000   0.251
    1UNL    C19   24  -0.168   0.054   0.024
    1UNL    C20   25  -0.178  -0.034  -0.112
    1UNL    C21   26  -0.070  -0.022  -0.219
    1UNL     O4   27  -0.070  -0.074  -0.330
    1UNL     H1   28  -0.296   0.219   0.210
    1UNL     H2   29  -0.198   0.155   0.363
    1UNL     H3   30  -0.375   0.160   0.355
    1UNL     H4   31  -0.339  -0.064   0.298
    1UNL     H5   32  -0.137  -0.231   0.137
    1UNL     H6   33  -0.316  -0.223   0.094
    1UNL     H7   34  -0.358  -0.219  -0.130
    1UNL     H8   35  -0.252  -0.251  -0.261
    1UNL     H9   36  -0.255  -0.355  -0.105
    1UNL    H10   37  -0.031  -0.336  -0.025
    1UNL    H11   38  -0.011  -0.237  -0.178
    1UNL    H12   39   0.177  -0.179  -0.046
    1UNL    H13   40   0.098  -0.166   0.103
    1UNL    H14   41   0.280   0.059   0.179
    1UNL    H15   42   0.518   0.146   0.146
    1UNL    H16   43   0.603   0.140  -0.082
    1UNL    H17   44   0.458   0.104  -0.279
    1UNL    H18   45   0.169   0.102  -0.339
    1UNL    H19   46  -0.095   0.291  -0.014
    1UNL    H20   47   0.079   0.291   0.016
    1UNL    H21   48  -0.244   0.138   0.013
    1UNL    H22   49  -0.278  -0.014  -0.155
   0.00000   0.00000   0.00000   0.00000   0.00000   0.00000   0.00000   0.00000   0.00000
Generated with MDTraj, t= 85.0
 49
    1UNL     C1    1  -0.304   0.163   0.284
    1UNL     C2    2  -0.276   0.023   0.245
    1UNL     C3    3  -0.231  -0.020   0.126
    1UNL     C4    4  -0.207  -0.165   0.097
    1UNL     N1    5  -0.169  -0.176  -0.045
    1UNL     C5    6  -0.255  -0.273  -0.121
    1UNL     C6    7  -0.030  -0.226  -0.074
    1UNL     C7    8   0.081  -0.150  -0.013
    1UNL     C8    9   0.092   0.006  -0.027
    1UNL     C9   10   0.236   0.040  -0.024
    1UNL    C10   11   0.315   0.077   0.083
    1UNL    C11   12   0.443   0.115   0.058
    1UNL    C12   13   0.486   0.135  -0.072
    1UNL    C13   14   0.410   0.112  -0.186
    1UNL    C14   15   0.286   0.050  -0.162
    1UNL     N2   16   0.177   0.036  -0.248
    1UNL    C15   17   0.053   0.063  -0.173
    1UNL     O1   18   0.020   0.201  -0.155
    1UNL    C16   19   0.008   0.235  -0.015
    1UNL    C17   20  -0.009   0.083   0.051
    1UNL    C18   21   0.021   0.094   0.198
    1UNL     O2   22  -0.013   0.196   0.258
    1UNL     O3   23   0.086  -0.003   0.239
    1UNL    C19   24  -0.157   0.055   0.015
    1UNL    C20   25  -0.177  -0.032  -0.109
    1UNL    C21   26  -0.072  -0.012  -0.223
    1UNL     O4   27  -0.088  -0.051  -0.335
    1UNL     H1   28  -0.377   0.206   0.212
    1UNL     H2   29  -0.210   0.211   0.307
    1UNL     H3   30  -0.359   0.168   0.380
    1UNL     H4   31  -0.311  -0.054   0.314
    1UNL     H5   32  -0.130  -0.206   0.164
    1UNL     H6   33  -0.303  -0.216   0.108
    1UNL     H7   34  -0.359  -0.262  -0.105
    1UNL     H8   35  -0.243  -0.244  -0.227
    1UNL     H9   36  -0.222  -0.375  -0.104
    1UNL    H10   37  -0.038  -0.331  -0.038
    1UNL    H11   38  -0.020  -0.231  -0.183
    1UNL    H12   39   0.171  -0.202  -0.045
    1UNL    H13   40   0.079  -0.169   0.090
    1UNL    H14   41   0.275   0.061   0.179
    1UNL    H15   42   0.498   0.118   0.145
    1UNL    H16   43   0.584   0.189  -0.078
    1UNL    H17   44   0.441   0.133  -0.288
    1UNL    H18   45   0.191   0.077  -0.343
    1UNL    H19   46  -0.066   0.309  -0.003
    1UNL    H20   47   0.108   0.266   0.013
    1UNL    H21   48  -0.205   0.154  -0.005
    1UNL    H22   49  -0.277  -0.016  -0.151
   0.00000   0.00000   0.00000   0.00000   0.00000   0.00000   0.00000   0.00000   0.00000
Generated with MDTraj, t= 86.0
 49
    1UNL     C1    1  -0.321   0.145   0.240
    1UNL     C2    2  -0.295  -0.000   0.237
    1UNL     C3    3  -0.217  -0.043   0.140
    1UNL     C4    4  -0.219  -0.186   0.093
    1UNL     N1    5  -0.176  -0.184  -0.060
    1UNL     C5    6  -0.273  -0.263  -0.140
    1UNL     C6    7  -0.025  -0.230  -0.072
    1UNL     C7    8   0.075  -0.144   0.008
    1UNL     C8    9   0.095   0.003  -0.024
    1UNL     C9   10   0.249   0.042  -0.027
    1UNL    C10   11   0.332   0.083   0.077
    1UNL    C11   12   0.460   0.117   0.046
    1UNL    C12   13   0.503   0.129  -0.084
    1UNL    C13   14   0.415   0.114  -0.191
    1UNL    C14   15   0.292   0.046  -0.160
    1UNL     N2   16   0.177   0.024  -0.246
    1UNL    C15   17   0.054   0.064  -0.175
    1UNL     O1   18   0.035   0.206  -0.165
    1UNL    C16   19   0.018   0.235  -0.024
    1UNL    C17   20  -0.005   0.095   0.059
    1UNL    C18   21   0.033   0.107   0.206
    1UNL     O2   22  -0.014   0.207   0.260
    1UNL     O3   23   0.091   0.013   0.261
    1UNL    C19   24  -0.157   0.045   0.037
    1UNL    C20   25  -0.183  -0.035  -0.094
    1UNL    C21   26  -0.083  -0.002  -0.207
    1UNL     O4   27  -0.115  -0.027  -0.318
    1UNL     H1   28  -0.395   0.172   0.161
    1UNL     H2   29  -0.227   0.200   0.244
    1UNL     H3   30  -0.370   0.184   0.331
    1UNL     H4   31  -0.357  -0.066   0.291
    1UNL     H5   32  -0.146  -0.242   0.156
    1UNL     H6   33  -0.312  -0.234   0.109
    1UNL     H7   34  -0.374  -0.219  -0.122
    1UNL     H8   35  -0.267  -0.258  -0.249
    1UNL     H9   36  -0.272  -0.363  -0.105
    1UNL    H10   37  -0.015  -0.335  -0.038
    1UNL    H11   38  -0.005  -0.233  -0.179
    1UNL    H12   39   0.168  -0.199  -0.001
    1UNL    H13   40   0.054  -0.150   0.110
    1UNL    H14   41   0.294   0.081   0.179
    1UNL    H15   42   0.535   0.126   0.130
    1UNL    H16   43   0.599   0.166  -0.101
    1UNL    H17   44   0.429   0.158  -0.286
    1UNL    H18   45   0.180   0.073  -0.336
    1UNL    H19   46  -0.071   0.293  -0.014
    1UNL    H20   47   0.113   0.285   0.009
    1UNL    H21   48  -0.221   0.137   0.024
    1UNL    H22   49  -0.285  -0.016  -0.131
   0.00000   0.00000   0.00000   0.00000   0.00000   0.00000   0.00000   0.00000   0.00000
Generated with MDTraj, t= 87.0
 49
    1UNL     C1    1  -0.305   0.131   0.305
    1UNL     C2    2  -0.296  -0.010   0.239
    1UNL     C3    3  -0.232  -0.035   0.126
    1UNL     C4    4  -0.202  -0.180   0.088
    1UNL     N1    5  -0.164  -0.177  -0.057
    1UNL     C5    6  -0.249  -0.267  -0.139
    1UNL     C6    7  -0.015  -0.228  -0.069
    1UNL     C7    8   0.082  -0.135   0.003
    1UNL     C8    9   0.088   0.021  -0.032
    1UNL     C9   10   0.233   0.060  -0.032
    1UNL    C10   11   0.316   0.083   0.069
    1UNL    C11   12   0.449   0.095   0.046
    1UNL    C12   13   0.499   0.100  -0.083
    1UNL    C13   14   0.414   0.064  -0.186
    1UNL    C14   15   0.278   0.051  -0.163
    1UNL     N2   16   0.171   0.036  -0.253
    1UNL    C15   17   0.051   0.070  -0.173
    1UNL     O1   18   0.019   0.215  -0.162
    1UNL    C16   19   0.013   0.245  -0.021
    1UNL    C17   20  -0.011   0.106   0.057
    1UNL    C18   21   0.021   0.113   0.210
    1UNL     O2   22  -0.033   0.213   0.261
    1UNL     O3   23   0.086   0.022   0.260
    1UNL    C19   24  -0.165   0.060   0.026
    1UNL    C20   25  -0.172  -0.027  -0.107
    1UNL    C21   26  -0.073  -0.002  -0.215
    1UNL     O4   27  -0.085  -0.049  -0.327
    1UNL     H1   28  -0.351   0.199   0.231
    1UNL     H2   29  -0.203   0.162   0.334
    1UNL     H3   30  -0.362   0.147   0.396
    1UNL     H4   31  -0.343  -0.089   0.297
    1UNL     H5   32  -0.129  -0.239   0.148
    1UNL     H6   33  -0.286  -0.241   0.095
    1UNL     H7   34  -0.356  -0.231  -0.153
    1UNL     H8   35  -0.215  -0.274  -0.238
    1UNL     H9   36  -0.251  -0.365  -0.093
    1UNL    H10   37  -0.014  -0.337  -0.043
    1UNL    H11   38   0.015  -0.226  -0.174
    1UNL    H12   39   0.184  -0.168  -0.011
    1UNL    H13   40   0.065  -0.149   0.105
    1UNL    H14   41   0.288   0.075   0.174
    1UNL    H15   42   0.525   0.112   0.117
    1UNL    H16   43   0.609   0.105  -0.100
    1UNL    H17   44   0.449   0.082  -0.290
    1UNL    H18   45   0.180   0.074  -0.345
    1UNL    H19   46  -0.066   0.316   0.004
    1UNL    H20   47   0.117   0.278   0.011
    1UNL    H21   48  -0.222   0.155   0.013
    1UNL    H22   49  -0.271  -0.011  -0.153
   0.00000   0.00000   0.00000   0.00000   0.00000   0.00000   0.00000   0.00000   0.00000
Generated with MDTraj, t= 88.0
 49
    1UNL     C1    1  -0.263   0.124   0.313
    1UNL     C2    2  -0.237  -0.014   0.259
    1UNL     C3    3  -0.212  -0.053   0.137
    1UNL     C4    4  -0.215  -0.189   0.092
    1UNL     N1    5  -0.170  -0.183  -0.061
    1UNL     C5    6  -0.244  -0.263  -0.165
    1UNL     C6    7  -0.020  -0.211  -0.072
    1UNL     C7    8   0.078  -0.128   0.003
    1UNL     C8    9   0.080   0.020  -0.025
    1UNL     C9   10   0.228   0.062  -0.020
    1UNL    C10   11   0.318   0.046   0.088
    1UNL    C11   12   0.453   0.074   0.062
    1UNL    C12   13   0.498   0.085  -0.067
    1UNL    C13   14   0.420   0.069  -0.173
    1UNL    C14   15   0.282   0.074  -0.155
    1UNL     N2   16   0.174   0.052  -0.246
    1UNL    C15   17   0.045   0.067  -0.172
    1UNL     O1   18   0.010   0.205  -0.168
    1UNL    C16   19  -0.028   0.242  -0.034
    1UNL    C17   20  -0.030   0.113   0.046
    1UNL    C18   21   0.013   0.135   0.195
    1UNL     O2   22  -0.021   0.245   0.239
    1UNL     O3   23   0.077   0.042   0.244
    1UNL    C19   24  -0.174   0.042   0.023
    1UNL    C20   25  -0.181  -0.039  -0.108
    1UNL    C21   26  -0.077  -0.009  -0.220
    1UNL     O4   27  -0.081  -0.044  -0.334
    1UNL     H1   28  -0.219   0.195   0.243
    1UNL     H2   29  -0.215   0.135   0.414
    1UNL     H3   30  -0.365   0.157   0.320
    1UNL     H4   31  -0.276  -0.080   0.334
    1UNL     H5   32  -0.145  -0.254   0.145
    1UNL     H6   33  -0.308  -0.238   0.110
    1UNL     H7   34  -0.354  -0.238  -0.156
    1UNL     H8   35  -0.225  -0.224  -0.260
    1UNL     H9   36  -0.235  -0.373  -0.165
    1UNL    H10   37   0.001  -0.311  -0.027
    1UNL    H11   38   0.011  -0.224  -0.176
    1UNL    H12   39   0.180  -0.155  -0.023
    1UNL    H13   40   0.067  -0.141   0.109
    1UNL    H14   41   0.287   0.037   0.189
    1UNL    H15   42   0.519   0.059   0.148
    1UNL    H16   43   0.598   0.110  -0.085
    1UNL    H17   44   0.453   0.065  -0.272
    1UNL    H18   45   0.170   0.065  -0.345
    1UNL    H19   46  -0.132   0.282  -0.037
    1UNL    H20   47   0.044   0.319   0.012
    1UNL    H21   48  -0.244   0.127   0.026
    1UNL    H22   49  -0.282  -0.029  -0.149
   0.00000   0.00000   0.00000   0.00000   0.00000   0.00000   0.00000   0.00000   0.00000
Generated with MDTraj, t= 89.0
 49
    1UNL     C1    1  -0.256   0.097   0.337
    1UNL     C2    2  -0.246  -0.034   0.269
    1UNL     C3    3  -0.215  -0.050   0.143
    1UNL     C4    4  -0.221  -0.189   0.074
    1UNL     N1    5  -0.176  -0.180  -0.073
    1UNL     C5    6  -0.252  -0.270  -0.168
    1UNL     C6    7  -0.028  -0.225  -0.073
    1UNL     C7    8   0.078  -0.131   0.003
    1UNL     C8    9   0.083   0.020  -0.028
    1UNL     C9   10   0.233   0.055  -0.022
    1UNL    C10   11   0.319   0.056   0.088
    1UNL    C11   12   0.451   0.095   0.070
    1UNL    C12   13   0.503   0.100  -0.053
    1UNL    C13   14   0.422   0.076  -0.160
    1UNL    C14   15   0.281   0.074  -0.152
    1UNL     N2   16   0.182   0.040  -0.244
    1UNL    C15   17   0.049   0.054  -0.179
    1UNL     O1   18   0.015   0.204  -0.173
    1UNL    C16   19  -0.017   0.234  -0.038
    1UNL    C17   20  -0.025   0.111   0.046
    1UNL    C18   21   0.019   0.149   0.191
    1UNL     O2   22   0.029   0.268   0.213
    1UNL     O3   23   0.047   0.053   0.261
    1UNL    C19   24  -0.171   0.039   0.032
    1UNL    C20   25  -0.193  -0.031  -0.109
    1UNL    C21   26  -0.091  -0.011  -0.227
    1UNL     O4   27  -0.103  -0.041  -0.342
    1UNL     H1   28  -0.238   0.179   0.268
    1UNL     H2   29  -0.180   0.106   0.420
    1UNL     H3   30  -0.351   0.126   0.379
    1UNL     H4   31  -0.291  -0.118   0.320
    1UNL     H5   32  -0.159  -0.263   0.118
    1UNL     H6   33  -0.317  -0.238   0.069
    1UNL     H7   34  -0.358  -0.252  -0.171
    1UNL     H8   35  -0.220  -0.256  -0.269
    1UNL     H9   36  -0.237  -0.376  -0.135
    1UNL    H10   37  -0.003  -0.331  -0.052
    1UNL    H11   38   0.013  -0.213  -0.174
    1UNL    H12   39   0.175  -0.168  -0.022
    1UNL    H13   40   0.058  -0.135   0.111
    1UNL    H14   41   0.277   0.031   0.189
    1UNL    H15   42   0.521   0.101   0.151
    1UNL    H16   43   0.610   0.121  -0.069
    1UNL    H17   44   0.466   0.055  -0.260
    1UNL    H18   45   0.183   0.083  -0.333
    1UNL    H19   46  -0.103   0.303  -0.028
    1UNL    H20   47   0.077   0.292  -0.001
    1UNL    H21   48  -0.235   0.129   0.029
    1UNL    H22   49  -0.293  -0.020  -0.153
   0.00000   0.00000   0.00000   0.00000   0.00000   0.00000   0.00000   0.00000   0.00000
Generated with MDTraj, t= 90.0
 49
    1UNL     C1    1  -0.238   0.108   0.323
    1UNL     C2    2  -0.240  -0.022   0.257
    1UNL     C3    3  -0.221  -0.046   0.130
    1UNL     C4    4  -0.231  -0.183   0.073
    1UNL     N1    5  -0.176  -0.175  -0.075
    1UNL     C5    6  -0.252  -0.267  -0.163
    1UNL     C6    7  -0.038  -0.215  -0.079
    1UNL     C7    8   0.061  -0.143   0.012
    1UNL     C8    9   0.072   0.011  -0.029
    1UNL     C9   10   0.228   0.057  -0.019
    1UNL    C10   11   0.304   0.104   0.081
    1UNL    C11   12   0.435   0.137   0.059
    1UNL    C12   13   0.491   0.123  -0.070
    1UNL    C13   14   0.418   0.066  -0.172
    1UNL    C14   15   0.284   0.052  -0.147
    1UNL     N2   16   0.184   0.008  -0.238
    1UNL    C15   17   0.050   0.058  -0.172
    1UNL     O1   18   0.031   0.204  -0.163
    1UNL    C16   19   0.004   0.239  -0.027
    1UNL    C17   20  -0.023   0.110   0.050
    1UNL    C18   21   0.022   0.125   0.200
    1UNL     O2   22   0.038   0.238   0.242
    1UNL     O3   23   0.036   0.019   0.262
    1UNL    C19   24  -0.168   0.047   0.019
    1UNL    C20   25  -0.185  -0.025  -0.116
    1UNL    C21   26  -0.080  -0.006  -0.224
    1UNL     O4   27  -0.095  -0.052  -0.337
    1UNL     H1   28  -0.296   0.177   0.261
    1UNL     H2   29  -0.133   0.137   0.340
    1UNL     H3   30  -0.286   0.113   0.421
    1UNL     H4   31  -0.284  -0.098   0.321
    1UNL     H5   32  -0.169  -0.245   0.131
    1UNL     H6   33  -0.331  -0.229   0.077
    1UNL     H7   34  -0.348  -0.233  -0.186
    1UNL     H8   35  -0.201  -0.273  -0.262
    1UNL     H9   36  -0.253  -0.367  -0.115
    1UNL    H10   37  -0.030  -0.321  -0.046
    1UNL    H11   38   0.009  -0.221  -0.179
    1UNL    H12   39   0.158  -0.185   0.006
    1UNL    H13   40   0.021  -0.141   0.116
    1UNL    H14   41   0.275   0.098   0.180
    1UNL    H15   42   0.496   0.192   0.128
    1UNL    H16   43   0.591   0.159  -0.088
    1UNL    H17   44   0.468   0.042  -0.263
    1UNL    H18   45   0.184   0.052  -0.329
    1UNL    H19   46  -0.083   0.303  -0.026
    1UNL    H20   47   0.094   0.303   0.001
    1UNL    H21   48  -0.225   0.144   0.015
    1UNL    H22   49  -0.282  -0.004  -0.163
   0.00000   0.00000   0.00000   0.00000   0.00000   0.00000   0.00000   0.00000   0.00000
Generated with MDTraj, t= 91.0
 49
    1UNL     C1    1  -0.261   0.140   0.294
    1UNL     C2    2  -0.286   0.001   0.249
    1UNL     C3    3  -0.234  -0.038   0.134
    1UNL     C4    4  -0.222  -0.183   0.090
    1UNL     N1    5  -0.176  -0.183  -0.060
    1UNL     C5    6  -0.274  -0.246  -0.155
    1UNL     C6    7  -0.041  -0.230  -0.065
    1UNL     C7    8   0.069  -0.147   0.006
    1UNL     C8    9   0.093   0.006  -0.028
    1UNL     C9   10   0.239   0.038  -0.030
    1UNL    C10   11   0.313   0.086   0.080
    1UNL    C11   12   0.442   0.134   0.055
    1UNL    C12   13   0.496   0.143  -0.072
    1UNL    C13   14   0.416   0.112  -0.178
    1UNL    C14   15   0.290   0.049  -0.164
    1UNL     N2   16   0.180   0.021  -0.252
    1UNL    C15   17   0.061   0.053  -0.176
    1UNL     O1   18   0.047   0.201  -0.162
    1UNL    C16   19  -0.002   0.226  -0.029
    1UNL    C17   20  -0.011   0.097   0.049
    1UNL    C18   21   0.028   0.104   0.199
    1UNL     O2   22  -0.002   0.211   0.251
    1UNL     O3   23   0.077   0.007   0.256
    1UNL    C19   24  -0.166   0.047   0.027
    1UNL    C20   25  -0.182  -0.032  -0.106
    1UNL    C21   26  -0.075  -0.013  -0.212
    1UNL     O4   27  -0.096  -0.046  -0.325
    1UNL     H1   28  -0.244   0.199   0.203
    1UNL     H2   29  -0.174   0.134   0.360
    1UNL     H3   30  -0.345   0.191   0.344
    1UNL     H4   31  -0.351  -0.059   0.311
    1UNL     H5   32  -0.157  -0.226   0.160
    1UNL     H6   33  -0.316  -0.236   0.100
    1UNL     H7   34  -0.372  -0.206  -0.150
    1UNL     H8   35  -0.236  -0.215  -0.257
    1UNL     H9   36  -0.267  -0.353  -0.153
    1UNL    H10   37  -0.037  -0.334  -0.029
    1UNL    H11   38  -0.009  -0.249  -0.170
    1UNL    H12   39   0.166  -0.186  -0.010
    1UNL    H13   40   0.052  -0.146   0.117
    1UNL    H14   41   0.263   0.094   0.180
    1UNL    H15   42   0.497   0.178   0.140
    1UNL    H16   43   0.576   0.213  -0.090
    1UNL    H17   44   0.452   0.146  -0.276
    1UNL    H18   45   0.167   0.066  -0.344
    1UNL    H19   46  -0.091   0.281  -0.047
    1UNL    H20   47   0.064   0.297   0.025
    1UNL    H21   48  -0.223   0.143   0.024
    1UNL    H22   49  -0.275  -0.010  -0.162
   0.00000   0.00000   0.00000   0.00000   0.00000   0.00000   0.00000   0.00000   0.00000
Generated with MDTraj, t= 92.0
 49
    1UNL     C1    1  -0.312   0.158   0.277
    1UNL     C2    2  -0.273   0.015   0.243
    1UNL     C3    3  -0.226  -0.025   0.128
    1UNL     C4    4  -0.201  -0.173   0.092
    1UNL     N1    5  -0.167  -0.179  -0.058
    1UNL     C5    6  -0.268  -0.268  -0.129
    1UNL     C6    7  -0.030  -0.235  -0.062
    1UNL     C7    8   0.080  -0.148   0.005
    1UNL     C8    9   0.094   0.003  -0.039
    1UNL     C9   10   0.235   0.033  -0.039
    1UNL    C10   11   0.312   0.056   0.076
    1UNL    C11   12   0.443   0.088   0.053
    1UNL    C12   13   0.491   0.129  -0.067
    1UNL    C13   14   0.413   0.120  -0.182
    1UNL    C14   15   0.284   0.062  -0.170
    1UNL     N2   16   0.176   0.059  -0.259
    1UNL    C15   17   0.048   0.067  -0.179
    1UNL     O1   18   0.013   0.208  -0.158
    1UNL    C16   19   0.013   0.226  -0.019
    1UNL    C17   20  -0.010   0.095   0.050
    1UNL    C18   21   0.027   0.099   0.204
    1UNL     O2   22  -0.025   0.196   0.265
    1UNL     O3   23   0.099   0.014   0.258
    1UNL    C19   24  -0.159   0.055   0.023
    1UNL    C20   25  -0.177  -0.035  -0.108
    1UNL    C21   26  -0.071  -0.006  -0.218
    1UNL     O4   27  -0.083  -0.052  -0.326
    1UNL     H1   28  -0.365   0.201   0.190
    1UNL     H2   29  -0.224   0.215   0.300
    1UNL     H3   30  -0.381   0.182   0.362
    1UNL     H4   31  -0.299  -0.060   0.318
    1UNL     H5   32  -0.115  -0.189   0.151
    1UNL     H6   33  -0.273  -0.242   0.135
    1UNL     H7   34  -0.374  -0.238  -0.130
    1UNL     H8   35  -0.239  -0.273  -0.236
    1UNL     H9   36  -0.251  -0.360  -0.081
    1UNL    H10   37  -0.023  -0.340  -0.029
    1UNL    H11   38  -0.001  -0.240  -0.170
    1UNL    H12   39   0.171  -0.199  -0.016
    1UNL    H13   40   0.070  -0.143   0.118
    1UNL    H14   41   0.262   0.046   0.168
    1UNL    H15   42   0.508   0.087   0.135
    1UNL    H16   43   0.592   0.171  -0.077
    1UNL    H17   44   0.436   0.164  -0.279
    1UNL    H18   45   0.174   0.116  -0.346
    1UNL    H19   46  -0.065   0.293  -0.000
    1UNL    H20   47   0.099   0.276   0.022
    1UNL    H21   48  -0.219   0.149   0.012
    1UNL    H22   49  -0.276  -0.028  -0.155
   0.00000   0.00000   0.00000   0.00000   0.00000   0.00000   0.00000   0.00000   0.00000
Generated with MDTraj, t= 93.0
 49
    1UNL     C1    1  -0.338   0.149   0.261
    1UNL     C2    2  -0.292   0.008   0.233
    1UNL     C3    3  -0.229  -0.031   0.126
    1UNL     C4    4  -0.197  -0.172   0.091
    1UNL     N1    5  -0.160  -0.179  -0.057
    1UNL     C5    6  -0.252  -0.283  -0.132
    1UNL     C6    7  -0.020  -0.216  -0.074
    1UNL     C7    8   0.085  -0.133  -0.004
    1UNL     C8    9   0.085   0.019  -0.024
    1UNL     C9   10   0.241   0.068  -0.029
    1UNL    C10   11   0.338   0.079   0.064
    1UNL    C11   12   0.473   0.076   0.046
    1UNL    C12   13   0.515   0.084  -0.090
    1UNL    C13   14   0.418   0.087  -0.196
    1UNL    C14   15   0.286   0.078  -0.161
    1UNL     N2   16   0.174   0.062  -0.241
    1UNL    C15   17   0.048   0.067  -0.163
    1UNL     O1   18   0.002   0.206  -0.151
    1UNL    C16   19  -0.011   0.242  -0.014
    1UNL    C17   20  -0.020   0.104   0.060
    1UNL    C18   21   0.020   0.101   0.210
    1UNL     O2   22  -0.007   0.206   0.273
    1UNL     O3   23   0.084   0.003   0.253
    1UNL    C19   24  -0.164   0.059   0.028
    1UNL    C20   25  -0.181  -0.036  -0.105
    1UNL    C21   26  -0.077  -0.013  -0.211
    1UNL     O4   27  -0.088  -0.055  -0.325
    1UNL     H1   28  -0.425   0.167   0.195
    1UNL     H2   29  -0.254   0.212   0.239
    1UNL     H3   30  -0.371   0.178   0.363
    1UNL     H4   31  -0.341  -0.064   0.295
    1UNL     H5   32  -0.117  -0.193   0.160
    1UNL     H6   33  -0.280  -0.230   0.120
    1UNL     H7   34  -0.361  -0.252  -0.134
    1UNL     H8   35  -0.229  -0.275  -0.237
    1UNL     H9   36  -0.237  -0.380  -0.094
    1UNL    H10   37  -0.017  -0.317  -0.031
    1UNL    H11   38   0.003  -0.226  -0.184
    1UNL    H12   39   0.177  -0.175  -0.036
    1UNL    H13   40   0.075  -0.158   0.106
    1UNL    H14   41   0.315   0.071   0.169
    1UNL    H15   42   0.545   0.053   0.127
    1UNL    H16   43   0.616   0.060  -0.109
    1UNL    H17   44   0.450   0.100  -0.295
    1UNL    H18   45   0.169   0.106  -0.336
    1UNL    H19   46  -0.090   0.310  -0.007
    1UNL    H20   47   0.071   0.291   0.035
    1UNL    H21   48  -0.227   0.152   0.021
    1UNL    H22   49  -0.280  -0.021  -0.151
   0.00000   0.00000   0.00000   0.00000   0.00000   0.00000   0.00000   0.00000   0.00000
Generated with MDTraj, t= 94.0
 49
    1UNL     C1    1  -0.308   0.133   0.287
    1UNL     C2    2  -0.283  -0.008   0.241
    1UNL     C3    3  -0.214  -0.039   0.135
    1UNL     C4    4  -0.201  -0.186   0.088
    1UNL     N1    5  -0.163  -0.178  -0.061
    1UNL     C5    6  -0.239  -0.271  -0.152
    1UNL     C6    7  -0.016  -0.221  -0.073
    1UNL     C7    8   0.083  -0.137   0.008
    1UNL     C8    9   0.097   0.018  -0.024
    1UNL     C9   10   0.245   0.054  -0.024
    1UNL    C10   11   0.333   0.069   0.078
    1UNL    C11   12   0.472   0.097   0.046
    1UNL    C12   13   0.513   0.085  -0.087
    1UNL    C13   14   0.421   0.079  -0.187
    1UNL    C14   15   0.282   0.066  -0.159
    1UNL     N2   16   0.169   0.041  -0.249
    1UNL    C15   17   0.047   0.062  -0.176
    1UNL     O1   18   0.025   0.203  -0.155
    1UNL    C16   19  -0.003   0.234  -0.018
    1UNL    C17   20  -0.018   0.104   0.057
    1UNL    C18   21   0.009   0.127   0.204
    1UNL     O2   22  -0.020   0.232   0.264
    1UNL     O3   23   0.053   0.023   0.259
    1UNL    C19   24  -0.164   0.053   0.029
    1UNL    C20   25  -0.180  -0.033  -0.105
    1UNL    C21   26  -0.086  -0.002  -0.219
    1UNL     O4   27  -0.117  -0.031  -0.331
    1UNL     H1   28  -0.322   0.198   0.199
    1UNL     H2   29  -0.220   0.159   0.345
    1UNL     H3   30  -0.399   0.148   0.347
    1UNL     H4   31  -0.337  -0.087   0.295
    1UNL     H5   32  -0.119  -0.227   0.147
    1UNL     H6   33  -0.287  -0.241   0.106
    1UNL     H7   34  -0.350  -0.258  -0.153
    1UNL     H8   35  -0.212  -0.252  -0.251
    1UNL     H9   36  -0.209  -0.370  -0.117
    1UNL    H10   37  -0.015  -0.329  -0.057
    1UNL    H11   38   0.005  -0.211  -0.183
    1UNL    H12   39   0.180  -0.180  -0.003
    1UNL    H13   40   0.072  -0.141   0.122
    1UNL    H14   41   0.288   0.057   0.177
    1UNL    H15   42   0.544   0.088   0.121
    1UNL    H16   43   0.622   0.092  -0.112
    1UNL    H17   44   0.456   0.076  -0.292
    1UNL    H18   45   0.160   0.020  -0.352
    1UNL    H19   46  -0.087   0.299  -0.016
    1UNL    H20   47   0.077   0.290   0.032
    1UNL    H21   48  -0.234   0.140   0.025
    1UNL    H22   49  -0.288  -0.029  -0.132
   0.00000   0.00000   0.00000   0.00000   0.00000   0.00000   0.00000   0.00000   0.00000
Generated with MDTraj, t= 95.0
 49
    1UNL     C1    1  -0.244   0.108   0.333
    1UNL     C2    2  -0.247  -0.022   0.263
    1UNL     C3    3  -0.212  -0.047   0.140
    1UNL     C4    4  -0.219  -0.189   0.078
    1UNL     N1    5  -0.172  -0.179  -0.069
    1UNL     C5    6  -0.258  -0.267  -0.159
    1UNL     C6    7  -0.030  -0.232  -0.069
    1UNL     C7    8   0.066  -0.145   0.009
    1UNL     C8    9   0.074   0.009  -0.032
    1UNL     C9   10   0.223   0.046  -0.025
    1UNL    C10   11   0.296   0.077   0.092
    1UNL    C11   12   0.428   0.109   0.063
    1UNL    C12   13   0.494   0.105  -0.061
    1UNL    C13   14   0.425   0.064  -0.176
    1UNL    C14   15   0.284   0.047  -0.158
    1UNL     N2   16   0.179   0.047  -0.245
    1UNL    C15   17   0.051   0.069  -0.177
    1UNL     O1   18   0.032   0.211  -0.158
    1UNL    C16   19  -0.007   0.244  -0.029
    1UNL    C17   20  -0.023   0.106   0.049
    1UNL    C18   21   0.018   0.138   0.187
    1UNL     O2   22  -0.010   0.247   0.241
    1UNL     O3   23   0.076   0.043   0.246
    1UNL    C19   24  -0.171   0.051   0.026
    1UNL    C20   25  -0.180  -0.026  -0.119
    1UNL    C21   26  -0.072  -0.008  -0.230
    1UNL     O4   27  -0.081  -0.043  -0.343
    1UNL     H1   28  -0.270   0.188   0.264
    1UNL     H2   29  -0.143   0.124   0.373
    1UNL     H3   30  -0.316   0.122   0.412
    1UNL     H4   31  -0.292  -0.101   0.316
    1UNL     H5   32  -0.151  -0.256   0.130
    1UNL     H6   33  -0.316  -0.228   0.077
    1UNL     H7   34  -0.358  -0.228  -0.168
    1UNL     H8   35  -0.225  -0.253  -0.258
    1UNL     H9   36  -0.256  -0.375  -0.126
    1UNL    H10   37  -0.040  -0.332  -0.025
    1UNL    H11   38  -0.001  -0.238  -0.176
    1UNL    H12   39   0.165  -0.186   0.007
    1UNL    H13   40   0.048  -0.144   0.122
    1UNL    H14   41   0.262   0.055   0.190
    1UNL    H15   42   0.482   0.142   0.155
    1UNL    H16   43   0.589   0.143  -0.076
    1UNL    H17   44   0.449   0.072  -0.277
    1UNL    H18   45   0.159   0.039  -0.348
    1UNL    H19   46  -0.098   0.304  -0.038
    1UNL    H20   47   0.070   0.314   0.014
    1UNL    H21   48  -0.244   0.135   0.024
    1UNL    H22   49  -0.285  -0.011  -0.150
   0.00000   0.00000   0.00000   0.00000   0.00000   0.00000   0.00000   0.00000   0.00000
Generated with MDTraj, t= 96.0
 49
    1UNL     C1    1  -0.197   0.090   0.342
    1UNL     C2    2  -0.227  -0.031   0.265
    1UNL     C3    3  -0.218  -0.052   0.138
    1UNL     C4    4  -0.250  -0.188   0.071
    1UNL     N1    5  -0.186  -0.177  -0.070
    1UNL     C5    6  -0.264  -0.243  -0.184
    1UNL     C6    7  -0.042  -0.230  -0.063
    1UNL     C7    8   0.061  -0.131   0.007
    1UNL     C8    9   0.082   0.020  -0.030
    1UNL     C9   10   0.230   0.062  -0.019
    1UNL    C10   11   0.311   0.082   0.089
    1UNL    C11   12   0.447   0.110   0.082
    1UNL    C12   13   0.493   0.114  -0.053
    1UNL    C13   14   0.413   0.086  -0.160
    1UNL    C14   15   0.282   0.059  -0.145
    1UNL     N2   16   0.185   0.029  -0.244
    1UNL    C15   17   0.056   0.057  -0.176
    1UNL     O1   18   0.031   0.200  -0.175
    1UNL    C16   19  -0.013   0.239  -0.046
    1UNL    C17   20  -0.026   0.108   0.038
    1UNL    C18   21   0.013   0.135   0.179
    1UNL     O2   22   0.004   0.252   0.226
    1UNL     O3   23   0.051   0.038   0.249
    1UNL    C19   24  -0.173   0.049   0.025
    1UNL    C20   25  -0.182  -0.033  -0.112
    1UNL    C21   26  -0.071  -0.016  -0.221
    1UNL     O4   27  -0.090  -0.067  -0.329
    1UNL     H1   28  -0.208   0.174   0.276
    1UNL     H2   29  -0.091   0.084   0.374
    1UNL     H3   30  -0.266   0.111   0.422
    1UNL     H4   31  -0.269  -0.111   0.328
    1UNL     H5   32  -0.201  -0.272   0.116
    1UNL     H6   33  -0.353  -0.203   0.051
    1UNL     H7   34  -0.359  -0.202  -0.186
    1UNL     H8   35  -0.228  -0.218  -0.284
    1UNL     H9   36  -0.267  -0.354  -0.165
    1UNL    H10   37  -0.060  -0.318   0.002
    1UNL    H11   38  -0.007  -0.246  -0.169
    1UNL    H12   39   0.155  -0.181   0.018
    1UNL    H13   40   0.025  -0.132   0.114
    1UNL    H14   41   0.267   0.057   0.187
    1UNL    H15   42   0.511   0.128   0.162
    1UNL    H16   43   0.600   0.145  -0.069
    1UNL    H17   44   0.455   0.119  -0.258
    1UNL    H18   45   0.195   0.090  -0.328
    1UNL    H19   46  -0.106   0.301  -0.051
    1UNL    H20   47   0.068   0.313  -0.014
    1UNL    H21   48  -0.238   0.139   0.010
    1UNL    H22   49  -0.286  -0.006  -0.140
   0.00000   0.00000   0.00000   0.00000   0.00000   0.00000   0.00000   0.00000   0.00000
Generated with MDTraj, t= 97.0
 49
    1UNL     C1    1  -0.239   0.100   0.326
    1UNL     C2    2  -0.249  -0.025   0.252
    1UNL     C3    3  -0.224  -0.045   0.128
    1UNL     C4    4  -0.232  -0.189   0.074
    1UNL     N1    5  -0.185  -0.185  -0.073
    1UNL     C5    6  -0.268  -0.269  -0.176
    1UNL     C6    7  -0.025  -0.219  -0.087
    1UNL     C7    8   0.064  -0.139   0.008
    1UNL     C8    9   0.081   0.009  -0.027
    1UNL     C9   10   0.226   0.050  -0.009
    1UNL    C10   11   0.311   0.075   0.097
    1UNL    C11   12   0.447   0.112   0.067
    1UNL    C12   13   0.497   0.119  -0.062
    1UNL    C13   14   0.411   0.093  -0.168
    1UNL    C14   15   0.281   0.047  -0.139
    1UNL     N2   16   0.177   0.028  -0.235
    1UNL    C15   17   0.048   0.059  -0.177
    1UNL     O1   18   0.029   0.202  -0.180
    1UNL    C16   19   0.010   0.240  -0.042
    1UNL    C17   20  -0.014   0.110   0.044
    1UNL    C18   21   0.026   0.137   0.192
    1UNL     O2   22   0.009   0.254   0.234
    1UNL     O3   23   0.073   0.051   0.268
    1UNL    C19   24  -0.169   0.043   0.021
    1UNL    C20   25  -0.189  -0.037  -0.110
    1UNL    C21   26  -0.081  -0.013  -0.215
    1UNL     O4   27  -0.104  -0.048  -0.327
    1UNL     H1   28  -0.256   0.180   0.256
    1UNL     H2   29  -0.132   0.110   0.358
    1UNL     H3   30  -0.313   0.115   0.402
    1UNL     H4   31  -0.283  -0.107   0.309
    1UNL     H5   32  -0.157  -0.251   0.116
    1UNL     H6   33  -0.333  -0.227   0.075
    1UNL     H7   34  -0.364  -0.227  -0.182
    1UNL     H8   35  -0.229  -0.260  -0.282
    1UNL     H9   36  -0.267  -0.373  -0.150
    1UNL    H10   37  -0.011  -0.328  -0.076
    1UNL    H11   38  -0.010  -0.188  -0.192
    1UNL    H12   39   0.167  -0.175   0.007
    1UNL    H13   40   0.044  -0.151   0.118
    1UNL    H14   41   0.269   0.071   0.193
    1UNL    H15   42   0.525   0.099   0.147
    1UNL    H16   43   0.597   0.146  -0.077
    1UNL    H17   44   0.443   0.110  -0.266
    1UNL    H18   45   0.192   0.070  -0.326
    1UNL    H19   46  -0.064   0.325  -0.040
    1UNL    H20   47   0.110   0.284  -0.008
    1UNL    H21   48  -0.239   0.129   0.012
    1UNL    H22   49  -0.291  -0.013  -0.148
   0.00000   0.00000   0.00000   0.00000   0.00000   0.00000   0.00000   0.00000   0.00000
Generated with MDTraj, t= 98.0
 49
    1UNL     C1    1  -0.295   0.137   0.309
    1UNL     C2    2  -0.257  -0.002   0.261
    1UNL     C3    3  -0.232  -0.041   0.136
    1UNL     C4    4  -0.211  -0.183   0.085
    1UNL     N1    5  -0.166  -0.185  -0.060
    1UNL     C5    6  -0.247  -0.284  -0.142
    1UNL     C6    7  -0.016  -0.225  -0.082
    1UNL     C7    8   0.068  -0.132  -0.006
    1UNL     C8    9   0.085   0.022  -0.027
    1UNL     C9   10   0.233   0.049  -0.021
    1UNL    C10   11   0.319   0.079   0.082
    1UNL    C11   12   0.448   0.106   0.051
    1UNL    C12   13   0.504   0.112  -0.073
    1UNL    C13   14   0.418   0.067  -0.176
    1UNL    C14   15   0.280   0.042  -0.155
    1UNL     N2   16   0.177   0.037  -0.252
    1UNL    C15   17   0.058   0.066  -0.176
    1UNL     O1   18   0.035   0.210  -0.171
    1UNL    C16   19  -0.007   0.242  -0.034
    1UNL    C17   20  -0.020   0.107   0.047
    1UNL    C18   21   0.013   0.111   0.196
    1UNL     O2   22  -0.014   0.218   0.253
    1UNL     O3   23   0.066   0.016   0.255
    1UNL    C19   24  -0.166   0.046   0.025
    1UNL    C20   25  -0.174  -0.037  -0.103
    1UNL    C21   26  -0.076   0.000  -0.215
    1UNL     O4   27  -0.097  -0.015  -0.330
    1UNL     H1   28  -0.313   0.197   0.222
    1UNL     H2   29  -0.208   0.190   0.352
    1UNL     H3   30  -0.386   0.152   0.365
    1UNL     H4   31  -0.268  -0.072   0.344
    1UNL     H5   32  -0.133  -0.228   0.138
    1UNL     H6   33  -0.307  -0.234   0.091
    1UNL     H7   34  -0.344  -0.237  -0.136
    1UNL     H8   35  -0.220  -0.291  -0.250
    1UNL     H9   36  -0.246  -0.381  -0.105
    1UNL    H10   37  -0.020  -0.323  -0.033
    1UNL    H11   38   0.003  -0.236  -0.191
    1UNL    H12   39   0.170  -0.173  -0.004
    1UNL    H13   40   0.051  -0.140   0.104
    1UNL    H14   41   0.282   0.071   0.187
    1UNL    H15   42   0.500   0.125   0.140
    1UNL    H16   43   0.613   0.116  -0.093
    1UNL    H17   44   0.441   0.066  -0.284
    1UNL    H18   45   0.178   0.092  -0.335
    1UNL    H19   46  -0.104   0.299  -0.042
    1UNL    H20   47   0.069   0.317   0.001
    1UNL    H21   48  -0.229   0.137   0.017
    1UNL    H22   49  -0.276  -0.035  -0.148
   0.00000   0.00000   0.00000   0.00000   0.00000   0.00000   0.00000   0.00000   0.00000
Generated with MDTraj, t= 99.0
 49
    1UNL     C1    1  -0.329   0.154   0.272
    1UNL     C2    2  -0.299   0.007   0.242
    1UNL     C3    3  -0.224  -0.032   0.142
    1UNL     C4    4  -0.203  -0.180   0.100
    1UNL     N1    5  -0.158  -0.181  -0.049
    1UNL     C5    6  -0.247  -0.248  -0.152
    1UNL     C6    7  -0.010  -0.229  -0.071
    1UNL     C7    8   0.092  -0.142  -0.005
    1UNL     C8    9   0.092   0.013  -0.034
    1UNL     C9   10   0.235   0.054  -0.038
    1UNL    C10   11   0.320   0.065   0.066
    1UNL    C11   12   0.453   0.094   0.049
    1UNL    C12   13   0.500   0.099  -0.084
    1UNL    C13   14   0.419   0.082  -0.194
    1UNL    C14   15   0.285   0.068  -0.167
    1UNL     N2   16   0.173   0.061  -0.255
    1UNL    C15   17   0.050   0.069  -0.174
    1UNL     O1   18   0.021   0.206  -0.155
    1UNL    C16   19  -0.007   0.234  -0.018
    1UNL    C17   20  -0.013   0.099   0.056
    1UNL    C18   21   0.021   0.108   0.208
    1UNL     O2   22  -0.017   0.206   0.268
    1UNL     O3   23   0.076   0.012   0.267
    1UNL    C19   24  -0.162   0.042   0.030
    1UNL    C20   25  -0.170  -0.041  -0.095
    1UNL    C21   26  -0.071  -0.010  -0.210
    1UNL     O4   27  -0.092  -0.045  -0.323
    1UNL     H1   28  -0.375   0.199   0.185
    1UNL     H2   29  -0.234   0.204   0.283
    1UNL     H3   30  -0.403   0.176   0.349
    1UNL     H4   31  -0.357  -0.065   0.296
    1UNL     H5   32  -0.132  -0.223   0.164
    1UNL     H6   33  -0.299  -0.232   0.102
    1UNL     H7   34  -0.353  -0.228  -0.127
    1UNL     H8   35  -0.233  -0.222  -0.257
    1UNL     H9   36  -0.226  -0.350  -0.139
    1UNL    H10   37  -0.014  -0.336  -0.039
    1UNL    H11   38  -0.002  -0.215  -0.180
    1UNL    H12   39   0.188  -0.190  -0.038
    1UNL    H13   40   0.091  -0.163   0.102
    1UNL    H14   41   0.282   0.063   0.163
    1UNL    H15   42   0.527   0.109   0.131
    1UNL    H16   43   0.601   0.128  -0.096
    1UNL    H17   44   0.460   0.076  -0.294
    1UNL    H18   45   0.167   0.080  -0.353
    1UNL    H19   46  -0.103   0.291  -0.020
    1UNL    H20   47   0.069   0.304   0.017
    1UNL    H21   48  -0.227   0.131   0.014
    1UNL    H22   49  -0.265  -0.028  -0.151
   0.00000   0.00000   0.00000   0.00000   0.00000   0.00000   0.00000   0.00000   0.00000
