[ moleculetype ]
; name        nrexcl
res           1

[ atoms ]
;    nr  type  resnr resid  atom  cgnr     charge       mass
      1 TC3       1 res   C1        1      0.000     36.000
      2 TC3       1 res   C2        2      0.000     36.000
      3 TN1       1 res   C3        3      0.000     36.000
      4 TC3       1 res   C4        4      0.000     36.000
      5 TC3       1 res   C5        5      0.000     36.000
      6 TC5       1 res   C6        6      0.000     36.000
      7 TC5       1 res   C7        7      0.000     36.000
      8 TC5       1 res   C8        8      0.000     36.000
      9 TN6d      1 res   C9        9      0.000     36.000
     10 TN2a      1 res   C10      10      0.000     36.000
     11 TC3       1 res   C11      11      0.000     36.000
     12 SN4a      1 res   C12      12      0.000     54.000
     13 TC3       1 res   C13      13      0.000     36.000
     14 TN4a      1 res   C14      14      0.000     36.000

[ constraints ]
;  ai    aj   funct      b0(nm)
    4     5     1      0.25622
    5    10     1      0.18547
   13    14     1      0.26305
    6     8     1      0.24862
   11    13     1      0.29073
    2    13     1      0.26666
    5     6     1      0.19085
    6     7     1      0.24830
    5     9     1      0.22205
    1     2     1      0.33228
   10    11     1      0.17221
    2     3     1      0.27687
   11    12     1      0.25980
    7     8     1      0.28988
    5    11     1      0.23501
    5    14     1      0.24158
    6     9     1      0.21862
    3     4     1      0.32350
    3    13     1      0.31384

[ bonds ]
;  ai    aj   funct      b0(nm)          k(kJ/mol/nm^2)

[ angles ]
;  ai    aj    ak  funct     th0(deg)        k(kJ/mol/rad^2)
    1     2     3     1    140.49768           216.14
    1     2    13     1     74.91669           888.44
    2     3     4     1     60.98322          2095.67
    2     3    13     1     53.21256          3605.50
    2    13     3     1     56.26102          2590.20
    2    13    11     1    116.29831           502.05
    2    13    14     1    111.04080          1226.01
    3     2    13     1     70.52639          1669.70
    3     4     5     1     98.37078          1590.63
    3    13    11     1    142.24804          1500.86
    3    13    14     1     65.41976           907.34
    4     3    13     1     67.70775          2723.94
    4     5     6     1     99.99912          1472.20
    4     5     9     1    112.81078           467.37
    4     5    10     1    159.96659          1072.15
    4     5    11     1    130.88215          1781.78
    4     5    14     1     82.94407          1177.19
    5     6     7     1    126.31083          1424.91
    5     6     8     1    159.31175           986.17
    5     6     9     1     65.26053          4819.77
    5     9     6     1     51.32785          4266.55
    5    10    11     1     82.08571          1824.43
    5    11    10     1     51.40044          3414.13
    5    11    12     1     89.01366          1107.93
    5    11    13     1     64.70462          2314.27
    5    14    13     1     68.69172          3987.49
    6     5     9     1     63.41153          3507.37
    6     5    10     1     99.57720           776.55
    6     5    11     1    102.42806           849.10
    6     5    14     1    134.46794          1636.72
    6     7     8     1     54.36618          6679.06
    6     8     7     1     54.25987          7042.72
    7     6     8     1     71.37393          5157.81
    7     6     9     1    163.84595           790.40
    8     6     9     1     95.49512          1784.08
    9     5    10     1     73.62197           559.80
    9     5    11     1    116.13588           457.37
    9     5    14     1     73.76012          1169.94
   10     5    11     1     46.51385          4920.55
   10     5    14     1     81.01667          1220.76
   10    11    12     1    139.29407           499.89
   10    11    13     1     80.37766           323.03
   11     5    14     1    109.33819           559.89
   11    13    14     1     88.98444          2053.61
   12    11    13     1     88.84621          1175.41

[ dihedrals ]
;  ai    aj    ak    al  funct   phi0(deg)        k(kJ/mol)   mult
    1     2     3     4     1    -72.51611       16.291      1
    1     2     3    13     1   -156.17385       16.289      1
    1     2    13     3     1     17.56110       13.602      1
    1     2    13    11     1   -117.37482       10.027      1
    1     2    13    14     1    -20.16271       10.741      1
    2     3     4     5     1     89.08236        8.471      1
    2     3    13    11     1    -89.92186       13.618      1
    2     3    13    14     1    -38.96801        7.076      1
    2    13     3     4     1    110.02399        4.794      1
    2    13    11     5     1   -102.95715        7.050      1
    2    13    11    10     1    -51.96352       10.749      1
    2    13    11    12     1    166.86676        8.514      1
    2    13    14     5     1     95.06021        7.032      1
    3     2    13    11     1     42.99183        7.062      1
    3     2    13    14     1    142.96233        7.098      1
    3     4     5     6     1     18.02032        6.323      1
    3     4     5     9     1     83.04391        7.064      1
    3     4     5    10     1   -171.06717       15.705      1
    3     4     5    11     1    -98.94334        8.550      1
    3     4     5    14     1    152.02407        7.781      1
    3    13    11     5     1   -169.28050       14.301      1
    3    13    11    10     1   -116.59869       16.362      1
    3    13    11    12     1    101.03405       12.868      1
    3    13    14     5     1     61.06533        7.014      1
    4     3     2    13     1    -96.99458        4.018      1
    4     3    13    11     1   -159.97242       13.560      1
    4     3    13    14     1   -108.00939        6.311      1
    4     5     6     7     1     99.99430       12.296      1
    4     5     6     8     1    -56.17175       23.911      1
    4     5     6     9     1    -70.07383        9.272      1
    4     5     9     6     1     89.98755        6.324      1
    4     5    10    11     1    -90.16220       13.572      1
    4     5    11    10     1     28.09536        7.810      1
    4     5    11    12     1   -145.99516       10.816      1
    4     5    11    13     1    125.94013        7.857      1
    4     5    14    13     1    -95.04632        5.517      1
    5     4     3    13     1    148.06177        7.758      1
    5     6     7     8     1      8.45699       12.905      1
    5     6     8     7     1    -19.09997       25.030      1
    5     9     6     7     1     27.82980       26.690      1
    5     9     6     8     1      5.96951       12.200      1
    5    10    11    12     1   -169.59815       17.708      1
    5    10    11    13     1    115.92716        6.283      1
    5    11    13    14     1    144.95439        5.570      1
    5    14    13    11     1   -146.97177        5.562      1
    6     5    10    11     1     81.05224       11.432      1
    6     5    11    10     1    -89.88876       10.761      1
    6     5    11    12     1     99.00641        9.933      1
    6     5    11    13     1      9.93502        6.298      1
    6     5    14    13     1      1.03824        8.534      1
    6     9     5    10     1    -68.90819        8.539      1
    6     9     5    11     1    -88.95143        8.501      1
    6     9     5    14     1     15.02699        8.602      1
    7     6     5     9     1     -7.47917       12.914      1
    7     6     5    10     1    -75.95072       12.264      1
    7     6     5    11     1   -122.11047       12.263      1
    7     6     5    14     1     10.66198       14.372      1
    7     8     6     9     1     -6.20781       10.773      1
    8     6     5     9     1   -165.44818       22.039      1
    8     6     5    10     1    126.23455       25.354      1
    8     6     5    11     1     79.24924       25.918      1
    8     6     5    14     1   -141.71223       24.593      1
    8     7     6     9     1    155.89250       25.087      1
    9     5    10    11     1     22.91360       11.526      1
    9     5    11    10     1   -156.06504       12.209      1
    9     5    11    12     1     32.02441        7.813      1
    9     5    11    13     1    -56.99268        7.019      1
    9     5    14    13     1     19.96760       10.733      1
    9     6     5    10     1    112.88676        9.952      1
    9     6     5    11     1     64.97905        9.932      1
    9     6     5    14     1   -158.06126       12.232      1
   10     5    11    12     1      8.07348       13.603      1
   10     5    11    13     1    -80.91037       11.476      1
   10     5    14    13     1     96.01570        7.786      1
   10    11     5    14     1    124.01180       10.730      1
   10    11    13    14     1   -164.94244       10.007      1
   11     5    14    13     1    133.07884        5.522      1
   11    10     5    14     1    -52.97096       11.448      1
   12    11     5    14     1    -48.92247        8.533      1
   12    11    13    14     1     54.94849        7.060      1
   13    11     5    14     1   -137.97553        4.804      1
