1TPCN00320
14
    1res  C1    1    0.064   0.587  -0.102
    1res  C2    2   -0.013   0.241  -0.100
    1res  C3    3    0.040   0.186   0.210
    1res  C4    4   -0.238   0.154   0.076
    1res  C5    5   -0.040   0.048  -0.020
    1res  C6    6   -0.272  -0.020  -0.159
    1res  C7    7   -0.293  -0.316  -0.035
    1res  C8    8   -0.359  -0.530   0.093
    1res  C9    9   -0.552  -0.314   0.120
    1res  C10   10    0.199  -0.098  -0.020
    1res  C11   11    0.453   0.045   0.093
    1res  C12   12    0.409  -0.275   0.089
    1res  C13   13    0.280  -0.363  -0.138
    1res  C14   14    0.057  -0.303   0.001
  10.00000  10.00000  10.00000
