[ moleculetype ]
; name        nrexcl
res           1

[ atoms ]
;    nr  type resnr resid  atom  cgnr     charge       mass
      1 TC3       1 res   C1        1      0.000     36.000
      2 TN6d      1 res   C2        2      0.000     36.000
      3 TC5       1 res   C3        3      0.000     36.000
      4 SC3       1 res   C4        4      0.000     54.000
      5 TN3r      1 res   C5        5      0.000     36.000
      6 TC5       1 res   C6        6      0.000     36.000
      7 SN6       1 res   C7        7      0.000     54.000
      8 SN5a      1 res   C8        8      0.000     54.000
      9 SC3       1 res   C9        9      0.000     54.000
     10 TN3r      1 res   C10      10      0.000     36.000
     11 SN6       1 res   C11      11      0.000     54.000
     12 TN6a      1 res   C12      12      0.000     36.000

[ bonds ]
;  ai    aj   funct      b0(nm)        k
    1     2     1      0.25006    20000
    2     3     1      0.26000    20000
    2     6     1      0.29041    20000
    3     4     1      0.26470    20000
    3     6     1      0.30104    20000
    3     7     1      0.25509    20000
    4     5     1      0.31160    20000
    4     6     1      0.31735    20000
    6     7     1      0.28242    20000
    6    11     1      0.23002    20000
    7     8     1      0.32688    20000
    7     9     1      0.28435    20000
    7    11     1      0.38561    20000
    9    10     1      0.30457    20000
    9    11     1      0.31146    20000
    9    12     1      0.24977    20000
   11    12     1      0.25034    20000
