[ moleculetype ]
; name        nrexcl
res           1

[ atoms ]
;    nr  type  resnr resid  atom  cgnr     charge       mass
      1 TC3       1 res   C1        1      0.000     36.000
      2 TC3       1 res   C2        2      0.000     36.000
      3 TN4a      1 res   C3        3      0.000     36.000
      4 SP4       1 res   C4        4      0.000     54.000
      5 TN4a      1 res   C5        5      0.000     36.000
      6 TP1       1 res   C6        6      0.000     36.000
      7 SP4       1 res   C7        7      0.000     54.000
      8 TC5       1 res   C8        8      0.000     36.000
      9 N4a       1 res   C9        9      0.000     72.000
     10 SN4a      1 res   C10      10      0.000     54.000
     11 TC3       1 res   C11      11      0.000     36.000
     12 SC3       1 res   C12      12      0.000     54.000
     13 N4a       1 res   C13      13      0.000     72.000
     14 TC3       1 res   C14      14      0.000     36.000
     15 TC5       1 res   C15      15      0.000     36.000
     16 TN4a      1 res   C16      16      0.000     36.000
     17 SP4       1 res   C17      17      0.000     54.000
     18 TN4a      1 res   C18      18      0.000     36.000
     19 TP1       1 res   C19      19      0.000     36.000
     20 SP4       1 res   C20      20      0.000     54.000
     21 TC3       1 res   C21      21      0.000     36.000
     22 SN4a      1 res   C22      22      0.000     54.000
     23 SC2       1 res   C23      23      0.000     54.000

[ constraints ]
;  ai    aj   funct      b0(nm)
    4     5     1      0.31633
    5     7     1      0.27901
   13    14     1      0.33611
    2    10     1      0.23346
   14    15     1      0.26826
   14    21     1      0.31036
    5     6     1      0.22600
    4     7     1      0.31357
   15    16     1      0.25961
   15    22     1      0.24276
    1     2     1      0.31036
    2     3     1      0.27626
   11    12     1      0.22922
    3     8     1      0.26462
    3     4     1      0.35157
   12    13     1      0.39857
    2     8     1      0.26745
   14    16     1      0.27665
    8     9     1      0.36355

[ bonds ]
;  ai    aj   funct      b0(nm)          k(kJ/mol/nm^2)
   17    18     1      0.25673           5896.3
   22    23     1      0.24623           8300.1
   18    19     1      0.21874          18545.7
   17    20     1      0.28350          19117.1
   10    11     1      0.34141           5040.8
   12    23     1      0.36131           7469.4
   16    17     1      0.30971           7664.1
   18    20     1      0.24902           7801.5

[ angles ]
;  ai    aj    ak  funct     th0(deg)        k(kJ/mol/rad^2)
    1     2     3     1     64.69882          1720.19
    1     2     8     1    116.31902           426.79
    1     2    10     1    110.18755           191.91
    2     3     4     1     79.64196          1202.39
    2     3     8     1     59.22136          6653.47
    2     8     3     1     62.55776          6252.76
    2     8     9     1     78.36663          1278.12
    2    10    11     1    101.08375           162.95
    3     2     8     1     58.22089          7107.52
    3     2    10     1    111.57116           784.53
    3     4     5     1     66.79798          1113.71
    3     4     7     1    111.90054           233.01
    3     8     9     1    139.80297          1210.91
    4     3     8     1    110.02515           340.42
    4     5     6     1     95.20831           149.94
    4     5     7     1     63.20051          3901.03
    4     7     5     1     64.22596          3486.02
    5     4     7     1     52.57352          5312.55
    6     5     7     1    100.71723           685.13
    8     2    10     1    114.24356           641.24
   10    11    12     1    122.06670            22.63
   11    12    13     1    133.27096           168.33
   11    12    23     1     82.81191           152.39
   12    13    14     1    133.24060           666.99
   12    23    22     1    153.69915           195.70
   13    12    23     1     53.70423           994.31
   13    14    15     1     85.44129           457.39
   13    14    16     1    110.97479           405.49
   13    14    21     1    144.62863           150.47
   14    15    16     1     63.18763          3922.53
   14    15    22     1     78.58143          1145.16
   14    16    15     1     59.93222          3710.04
   14    16    17     1    110.59075           133.44
   15    14    16     1     56.88029          2893.34
   15    14    21     1    115.45693           354.72
   15    16    17     1    107.43426           131.34
   15    22    23     1    126.43920            86.46
   16    14    21     1     66.42738          1465.17
   16    15    22     1    138.63755           663.33
   16    17    18     1     74.48294           813.78
   16    17    20     1     83.46928            48.14
   17    18    19     1    162.38354           120.37
   17    18    20     1     67.75484           550.33
   17    20    18     1     57.74431           122.70
   18    17    20     1     54.49307           329.66
   19    18    20     1    107.78646            98.29

[ dihedrals ]
;  ai    aj    ak    al  funct   phi0(deg)        k(kJ/mol)   mult
    1     2     3     4     1     93.90708       12.198      1
    1     2     3     8     1    -29.00490       12.928      1
    1     2     8     3     1    153.00525       11.498      1
    1     2     8     9     1    -23.68419       17.681      1
    1     2    10    11     1    127.09084       11.481      1
    2     3     4     5     1    -31.54774       16.469      1
    2     3     4     7     1     -6.31155       21.404      1
    2     3     8     9     1   -171.82222       17.678      1
    2     8     3     4     1    115.23570        8.532      1
    2    10    11    12     1    106.93451       27.364      1
    3     2     8     9     1      5.73456       13.601      1
    3     2    10    11     1     58.71996       11.479      1
    3     4     5     6     1   -130.96738       15.811      1
    3     4     5     7     1    -32.98315       17.185      1
    3     4     7     5     1    148.08664       16.504      1
    3     8     2    10     1    -77.79757        6.322      1
    4     3     2     8     1    -58.74907       10.081      1
    4     3     2    10     1   -166.02574       12.219      1
    4     3     8     9     1    124.35804       16.356      1
    4     7     5     6     1    -89.03329       13.010      1
    5     4     3     8     1     21.77787       16.375      1
    6     5     4     7     1     82.07668        7.825      1
    7     4     3     8     1     44.88542       22.342      1
    8     2    10    11     1     -5.25432       11.465      1
    8     3     2    10     1     73.09174        8.496      1
    9     8     2    10     1    104.13266       13.620      1
   10    11    12    13     1    140.53193       24.687      1
   10    11    12    23     1    158.59660       24.638      1
   11    12    13    14     1    162.14997       26.372      1
   11    12    23    22     1     -3.58515       20.254      1
   12    13    14    15     1    -83.13933       15.754      1
   12    13    14    16     1    -32.11368       15.065      1
   12    13    14    21     1     45.85820       19.176      1
   12    23    22    15     1    170.18337       23.105      1
   13    12    23    22     1    170.01095       20.170      1
   13    14    15    16     1    -61.21684        7.074      1
   13    14    15    22     1    102.99404       11.537      1
   13    14    16    15     1    108.76870        8.488      1
   13    14    16    17     1   -150.22855       15.016      1
   14    13    12    23     1    148.16724       13.674      1
   14    15    16    17     1     76.09877       12.235      1
   14    15    22    23     1   -106.93669       14.874      1
   14    16    15    22     1    155.95709       14.977      1
   14    16    17    18     1     -8.06303       16.373      1
   14    16    17    20     1     46.34938       17.769      1
   15    14    16    17     1    -80.28041       12.244      1
   15    16    14    21     1    -31.07363       15.742      1
   15    16    17    18     1     53.26800       15.627      1
   15    16    17    20     1    109.76245       17.723      1
   16    14    15    22     1    -17.84569       10.765      1
   16    15    14    21     1    149.47597       12.927      1
   16    15    22    23     1    -86.00916       18.171      1
   16    17    18    19     1   -104.61642       20.300      1
   16    17    18    20     1    -80.40445       18.810      1
   16    17    20    18     1    110.83256       15.716      1
   17    16    14    21     1     64.56768       18.340      1
   17    16    15    22     1     52.09755       17.750      1
   17    20    18    19     1    -10.60042       21.460      1
   19    18    17    20     1    174.73712       10.013      1
   21    14    15    22     1    -45.88376       15.059      1
