1TPCN05989
29
    1res  C1    1   -0.708   0.198  -0.142
    1res  C2    2   -0.788   0.356  -0.320
    1res  C3    3   -0.710  -0.024  -0.337
    1res  C4    4   -0.538   0.029  -0.108
    1res  C5    5   -0.677  -0.151  -0.036
    1res  C6    6   -0.819  -0.154   0.201
    1res  C7    7   -0.951   0.074   0.332
    1res  C8    8   -0.911  -0.207   0.457
    1res  C9    9   -0.669  -0.134   0.457
    1res  C10   10   -0.599  -0.287   0.291
    1res  C11   11   -0.371  -0.180  -0.231
    1res  C12   12   -0.309   0.104  -0.325
    1res  C13   13   -0.217   0.112   0.053
    1res  C14   14   -0.059  -0.055  -0.248
    1res  C15   15    0.123   0.049   0.024
    1res  C16   16    0.211  -0.193  -0.066
    1res  C17   17    0.420  -0.052  -0.037
    1res  C18   18    0.540   0.029   0.234
    1res  C19   19    0.695  -0.033   0.446
    1res  C20   20    0.759  -0.155   0.250
    1res  C21   21    0.990  -0.162   0.076
    1res  C22   22    0.868  -0.030  -0.126
    1res  C23   23    1.180   0.028  -0.032
    1res  C24   24    1.083   0.135   0.168
    1res  C25   25    1.107  -0.104   0.284
    1res  C26   26    0.587  -0.226   0.101
    1res  C27   27    0.386   0.119  -0.249
    1res  C28   28    0.369   0.275  -0.011
    1res  C29   29    0.013   0.233  -0.215
  10.00000  10.00000  10.00000
