[ moleculetype ]
; name        nrexcl
res           1

[ atoms ]
;    nr  type resnr resid  atom  cgnr     charge       mass
      1 SC4       1 res   C1        1      0.000     54.000
      2 SC5       1 res   C2        2      0.000     54.000
      3 SC4       1 res   C3        3      0.000     54.000
      4 TC3       1 res   C4        4      0.000     36.000
      5 SC4       1 res   C5        5      0.000     54.000
      6 SC4       1 res   C6        6      0.000     54.000
      7 TC3       1 res   C7        7      0.000     36.000
      8 TN6       1 res   C8        8      0.000     36.000
      9 SN4a      1 res   C9        9      0.000     54.000
     10 SP2       1 res   C10      10      0.000     54.000
     11 TN6       1 res   C11      11      0.000     36.000
     12 TN6       1 res   C12      12      0.000     36.000
     13 SN4a      1 res   C13      13      0.000     54.000
     14 TP1       1 res   C14      14      0.000     36.000
     15 TN6       1 res   C15      15      0.000     36.000
     16 TN6       1 res   C16      16      0.000     36.000
     17 TN6       1 res   C17      17      0.000     36.000
     18 TN6       1 res   C18      18      0.000     36.000
     19 SN4a      1 res   C19      19      0.000     54.000
     20 TP1       1 res   C20      20      0.000     36.000
     21 TN6       1 res   C21      21      0.000     36.000
     22 TN6       1 res   C22      22      0.000     36.000
     23 TN6       1 res   C23      23      0.000     36.000
     24 SC4       1 res   C24      24      0.000     54.000
     25 TC3       1 res   C25      25      0.000     36.000
     26 TC3       1 res   C26      26      0.000     36.000
     27 SN4a      1 res   C27      27      0.000     54.000
     28 SN4a      1 res   C28      28      0.000     54.000
     29 TP1       1 res   C29      29      0.000     36.000
     30 TN6       1 res   C30      30      0.000     36.000
     31 TN6       1 res   C31      31      0.000     36.000
     32 TN6       1 res   C32      32      0.000     36.000
     33 TC3       1 res   C33      33      0.000     36.000

[ bonds ]
;  ai    aj   funct      b0(nm)        k
    1     2     1      0.28110    20000
    1    33     1      0.29229    20000
    2     3     1      0.25747    20000
    2    26     1      0.34942    20000
    2    27     1      0.30641    20000
    2    33     1      0.27454    20000
    3     4     1      0.37476    20000
    3     5     1      0.30164    20000
    3    26     1      0.31057    20000
    4     5     1      0.33924    20000
    5     6     1      0.26732    20000
    5    25     1      0.25498    20000
    6     7     1      0.31224    20000
    6    24     1      0.33742    20000
    6    25     1      0.37770    20000
    7     8     1      0.25067    20000
    8     9     1      0.26293    20000
    8    24     1      0.24827    20000
    9    10     1      0.33643    20000
    9    11     1      0.29545    20000
    9    18     1      0.24676    20000
   11    12     1      0.22774    20000
   12    13     1      0.28806    20000
   12    18     1      0.21094    20000
   13    14     1      0.30847    20000
   13    15     1      0.27621    20000
   13    17     1      0.29638    20000
   15    16     1      0.26867    20000
   16    17     1      0.23522    20000
   18    19     1      0.29552    20000
   19    20     1      0.22136    20000
   19    21     1      0.27016    20000
   19    23     1      0.30221    20000
   21    22     1      0.24517    20000
   22    23     1      0.24777    20000
   27    28     1      0.31581    20000
   28    29     1      0.30820    20000
   28    30     1      0.26547    20000
   28    32     1      0.25125    20000
   30    31     1      0.24765    20000
   31    32     1      0.21931    20000
