[ moleculetype ]
; name        nrexcl
res           1

[ atoms ]
;    nr  type resnr resid  atom  cgnr     charge       mass
      1 TC4       1 res   C1        1      0.000     36.000
      2 TN4a      1 res   C2        2      0.000     36.000
      3 SN4a      1 res   C3        3      0.000     54.000
      4 SC5       1 res   C4        4      0.000     54.000
      5 TC3       1 res   C5        5      0.000     36.000
      6 SC4       1 res   C6        6      0.000     54.000
      7 SC4       1 res   C7        7      0.000     54.000
      8 TC3       1 res   C8        8      0.000     36.000
      9 SC4       1 res   C9        9      0.000     54.000
     10 SC4       1 res   C10      10      0.000     54.000
     11 TC3       1 res   C11      11      0.000     36.000
     12 TN6       1 res   C12      12      0.000     36.000
     13 SN4a      1 res   C13      13      0.000     54.000
     14 SP2       1 res   C14      14      0.000     54.000
     15 TN6       1 res   C15      15      0.000     36.000
     16 TN6       1 res   C16      16      0.000     36.000
     17 TN6       1 res   C17      17      0.000     36.000
     18 SN4a      1 res   C18      18      0.000     54.000
     19 TP1       1 res   C19      19      0.000     36.000
     20 TN6       1 res   C20      20      0.000     36.000
     21 TN6       1 res   C21      21      0.000     36.000
     22 TN6       1 res   C22      22      0.000     36.000
     23 TC4       1 res   C23      23      0.000     36.000
     24 TN4a      1 res   C24      24      0.000     36.000
     25 TC3       1 res   C25      25      0.000     36.000
     26 TC3       1 res   C26      26      0.000     36.000
     27 TN6       1 res   C27      27      0.000     36.000
     28 TN4a      1 res   C28      28      0.000     36.000
     29 TC4       1 res   C29      29      0.000     36.000
     30 TN6       1 res   C30      30      0.000     36.000
     31 SN4a      1 res   C31      31      0.000     54.000
     32 TN6       1 res   C32      32      0.000     36.000
     33 TN6       1 res   C33      33      0.000     36.000
     34 SN4a      1 res   C34      34      0.000     54.000
     35 TN6       1 res   C35      35      0.000     36.000
     36 TN6       1 res   C36      36      0.000     36.000
     37 TN6       1 res   C37      37      0.000     36.000
     38 TN6       1 res   C38      38      0.000     36.000
     39 TN6       1 res   C39      39      0.000     36.000
     40 TN6       1 res   C40      40      0.000     36.000
     41 TN6       1 res   C41      41      0.000     36.000
     42 TN6       1 res   C42      42      0.000     36.000

[ bonds ]
;  ai    aj   funct      b0(nm)        k
    1     2     1      0.32209    20000
    1    42     1      0.24408    20000
    2     3     1      0.23830    20000
    2    27     1      0.21372    20000
    3     4     1      0.34253    20000
    4     5     1      0.30337    20000
    4     6     1      0.29360    20000
    4     7     1      0.29402    20000
    4    26     1      0.36669    20000
    5     6     1      0.29090    20000
    7     8     1      0.38922    20000
    7     9     1      0.30680    20000
    7    26     1      0.30677    20000
    8     9     1      0.37758    20000
    9    10     1      0.27427    20000
    9    25     1      0.29197    20000
   10    11     1      0.28504    20000
   10    23     1      0.28507    20000
   10    25     1      0.37686    20000
   11    12     1      0.24796    20000
   12    13     1      0.25100    20000
   12    23     1      0.28123    20000
   13    14     1      0.32996    20000
   13    15     1      0.28533    20000
   13    17     1      0.24562    20000
   15    16     1      0.26470    20000
   16    17     1      0.24719    20000
   17    18     1      0.28831    20000
   18    19     1      0.25834    20000
   18    20     1      0.29308    20000
   18    22     1      0.30079    20000
   20    21     1      0.23409    20000
   21    22     1      0.24754    20000
   23    24     1      0.27193    20000
   27    28     1      0.21075    20000
   27    41     1      0.21080    20000
   28    29     1      0.32309    20000
   28    40     1      0.24405    20000
   29    30     1      0.24129    20000
   30    31     1      0.33050    20000
   30    39     1      0.24216    20000
   31    32     1      0.26984    20000
   31    38     1      0.29577    20000
   32    33     1      0.24139    20000
   33    34     1      0.27179    20000
   33    38     1      0.21201    20000
   34    35     1      0.27520    20000
   34    37     1      0.28727    20000
   35    36     1      0.24099    20000
   36    37     1      0.26904    20000
   39    40     1      0.22821    20000
   41    42     1      0.26378    20000
