[ moleculetype ]
; name        nrexcl
res           1

[ atoms ]
;    nr  type  resnr resid  atom  cgnr     charge       mass
      1 TC3       1 res   C1        1      0.000     36.000
      2 TC3       1 res   C2        2      0.000     36.000
      3 TN1       1 res   C3        3      0.000     36.000
      4 TC4       1 res   C4        4      0.000     36.000
      5 SC4       1 res   C5        5      0.000     54.000
      6 TN6d      1 res   C6        6      0.000     36.000
      7 TC5       1 res   C7        7      0.000     36.000
      8 TC5       1 res   C8        8      0.000     36.000
      9 TC5       1 res   C9        9      0.000     36.000
     10 TC3       1 res   C10      10      0.000     36.000
     11 TC5       1 res   C11      11      0.000     36.000
     12 TC5       1 res   C12      12      0.000     36.000
     13 TC5       1 res   C13      13      0.000     36.000
     14 TC5       1 res   C14      14      0.000     36.000
     15 TN6d      1 res   C15      15      0.000     36.000
     16 TC5       1 res   C16      16      0.000     36.000
     17 N4a       1 res   C17      17      0.000     72.000
     18 TC3       1 res   C18      18      0.000     36.000
     19 TC3       1 res   C19      19      0.000     36.000
     20 TC3       1 res   C20      20      0.000     36.000
     21 TN6d      1 res   C21      21      0.000     36.000
     22 TC3       1 res   C22      22      0.000     36.000
     23 SN5a      1 res   C23      23      0.000     54.000
     24 TC3       1 res   C24      24      0.000     36.000
     25 N4a       1 res   C25      25      0.000     72.000

[ constraints ]
;  ai    aj   funct      b0(nm)
    4     5     1      0.19660
    5    10     1      0.37596
    5     7     1      0.25508
   13    14     1      0.18429
   18    19     1      0.25710
   11    13     1      0.22251
   14    15     1      0.21709
   10    24     1      0.20098
    7     9     1      0.25020
   16    18     1      0.29086
   16    21     1      0.24628
   19    20     1      0.27157
    5     6     1      0.35941
    6     7     1      0.21553
   21    23     1      0.29743
   24    25     1      0.36700
    1     2     1      0.26223
    2     3     1      0.31539
   11    12     1      0.30168
   18    21     1      0.24545
    2    24     1      0.28371
    7     8     1      0.25053
   16    17     1      0.32859
   13    15     1      0.21760
   21    22     1      0.27139
    4    24     1      0.17677
   12    13     1      0.24959
   14    16     1      0.23855
   14    22     1      0.25715
   16    19     1      0.26679
    8     9     1      0.29113

[ bonds ]
;  ai    aj   funct      b0(nm)          k(kJ/mol/nm^2)
   10    11     1      0.27637          19930.0
    3     4     1      0.25449          19022.0

[ angles ]
;  ai    aj    ak  funct     th0(deg)        k(kJ/mol/rad^2)
    1     2     3     1    135.49031            72.39
    1     2    24     1     97.84585          1131.78
    2     3     4     1     55.48556          1204.10
    2    24     4     1     67.39052          1322.79
    2    24    10     1    124.91281           736.84
    2    24    25     1     88.82563           477.42
    3     2    24     1     83.74484          2132.00
    3     4     5     1    122.04509           542.33
    3     4    24     1    136.00054           414.87
    4     5     6     1    103.36232           485.62
    4     5     7     1    115.46861           262.22
    4     5    10     1     71.44394          1869.68
    4    24    10     1    150.11981           336.77
    4    24    25     1    111.18538           795.72
    5     4    24     1     86.28249           823.62
    5     6     7     1     44.45974          4679.28
    5     7     6     1     99.26286          2534.95
    5     7     8     1    163.81937          1712.27
    5     7     9     1     93.47919          1855.31
    5    10    11     1     91.06753           239.52
    5    10    24     1     39.58929          2216.04
    6     5     7     1     36.27745         12524.45
    6     5    10     1     55.63915          2572.58
    6     7     8     1     96.05706          1451.57
    6     7     9     1    166.27382          1298.69
    7     5    10     1     91.37353          2120.94
    7     8     9     1     54.39715          8541.40
    7     9     8     1     54.50006          8727.20
    8     7     9     1     71.10279          7587.12
   10    11    12     1     75.77348          1037.46
   10    11    13     1    126.73439          1140.61
   10    24    25     1     96.51163           352.69
   11    10    24     1    129.42340           251.55
   11    12    13     1     46.42693         10183.34
   11    13    12     1     79.21828          4553.46
   11    13    14     1    152.89168          2473.13
   11    13    15     1     88.44697          2370.01
   12    11    13     1     54.35478          9874.30
   12    13    14     1    127.22116          1936.77
   12    13    15     1    166.42558          1705.79
   13    14    15     1     65.05903          3877.39
   13    14    16     1    168.15917           659.68
   13    14    22     1    117.97875          1645.68
   13    15    14     1     50.16933          6005.46
   14    13    15     1     64.77164          4306.16
   14    16    17     1     94.48731           379.40
   14    16    18     1     84.22348          1937.91
   14    16    19     1    137.57356          1259.21
   14    16    21     1     72.50811          1243.31
   14    22    21     1     65.65396          1414.45
   15    14    16     1    106.35560          1462.41
   15    14    22     1    170.25086           454.24
   16    14    22     1     71.44072          2793.98
   16    18    19     1     57.87886          4119.60
   16    18    21     1     53.86581          4174.53
   16    19    18     1     67.41955          4305.66
   16    19    20     1     78.57124          1271.25
   16    21    18     1     72.53164          3277.14
   16    21    22     1     67.90715          1541.86
   16    21    23     1    127.52556           670.33
   17    16    18     1     97.50057           890.33
   17    16    19     1    100.12152           334.16
   17    16    21     1    148.13129           809.15
   18    16    19     1     54.70150          3481.00
   18    16    21     1     53.60253          3579.39
   18    19    20     1    138.05603           594.36
   18    21    22     1    134.64344          1266.98
   18    21    23     1    123.42017           532.88
   19    16    21     1     74.46009          3253.36
   19    18    21     1     76.38606          2017.12
   22    21    23     1     98.19759           528.18

[ dihedrals ]
;  ai    aj    ak    al  funct   phi0(deg)        k(kJ/mol)   mult
    1     2     3     4     1    -66.85168       10.044      1
    1     2    24     4     1     17.04239       12.886      1
    1     2    24    10     1   -130.65458       17.621      1
    1     2    24    25     1    132.11406       12.170      1
    2     3     4     5     1      9.20017       11.462      1
    2     3     4    24     1    135.24141       12.970      1
    2    24     4     3     1   -136.21732       12.251      1
    2    24     4     5     1      1.01192       10.005      1
    2    24    10     5     1    -29.13966       14.378      1
    2    24    10    11     1    -15.10781       12.956      1
    3     2    24     4     1    156.17355        9.299      1
    3     2    24    10     1      5.91678       13.589      1
    3     2    24    25     1    -89.17039       11.441      1
    3     4     5     6     1     23.34019       12.843      1
    3     4     5     7     1     60.21944       12.206      1
    3     4     5    10     1    -23.28248       12.869      1
    3     4    24    10     1    -10.59808       14.894      1
    3     4    24    25     1    145.10115       13.010      1
    4     3     2    24     1   -162.90488        7.060      1
    4     5     6     7     1    -63.94341       13.610      1
    4     5     7     6     1    104.17204       12.183      1
    4     5     7     8     1    -74.20694       23.319      1
    4     5     7     9     1    -74.82596       12.954      1
    4     5    10    11     1     -8.08734       10.794      1
    4     5    10    24     1    160.08842        7.803      1
    4    24    10     5     1   -138.09131       10.723      1
    4    24    10    11     1   -124.86327       20.138      1
    5     4    24    10     1    125.77469       13.603      1
    5     4    24    25     1    -78.00780        9.365      1
    5     6     7     8     1     -0.99201       10.031      1
    5     6     7     9     1     -5.46095       26.130      1
    5     7     8     9     1    177.15818       25.559      1
    5     7     9     8     1      0.88129       10.014      1
    5    10    11    12     1     59.06360       14.440      1
    5    10    11    13     1     40.28604       12.158      1
    5    10    24    25     1     62.99376       10.063      1
    6     5     4    24     1   -120.03700        7.803      1
    6     5     7     8     1      3.97882       26.728      1
    6     5     7     9     1      2.11340        9.316      1
    6     5    10    11     1   -129.17947       11.511      1
    6     5    10    24     1     40.21580       12.174      1
    6     7     5    10     1    172.99621       11.406      1
    6     7     8     9     1      2.10015        9.309      1
    6     7     9     8     1   -174.46991       27.290      1
    7     5     4    24     1    -84.00199        7.794      1
    7     5    10    11     1   -125.16721       12.989      1
    7     5    10    24     1     45.08781       12.884      1
    7     6     5    10     1     -9.09389       12.864      1
    8     7     5    10     1     -3.13212       23.072      1
    9     7     5    10     1     -5.91193       12.240      1
   10     5     4    24     1   -165.09319        6.980      1
   10    11    12    13     1     19.08905       11.512      1
   10    11    13    12     1   -157.86343       13.669      1
   10    11    13    14     1     20.50975       21.573      1
   10    11    13    15     1     19.07347       15.801      1
   11    10    24    25     1     79.11670       14.307      1
   11    12    13    14     1      1.97248       12.217      1
   11    12    13    15     1    170.59166       26.818      1
   11    13    14    15     1   -179.65345       16.409      1
   11    13    14    16     1    145.25396       26.759      1
   11    13    14    22     1     -5.40424       18.355      1
   11    13    15    14     1      0.17344        9.276      1
   12    11    10    24     1     53.84462       16.482      1
   12    11    13    14     1     -2.95521       19.679      1
   12    11    13    15     1     -3.09073       10.032      1
   12    13    14    15     1     -3.11761       12.915      1
   12    13    14    16     1    -37.45018       25.344      1
   12    13    14    22     1    168.99888       14.304      1
   12    13    15    14     1     10.59658       28.822      1
   13    11    10    24     1     33.76816       16.368      1
   13    14    16    17     1    164.55418       26.435      1
   13    14    16    18     1    -99.87314       25.544      1
   13    14    16    19     1    -86.63817       24.884      1
   13    14    16    21     1    -44.52230       27.473      1
   13    14    22    21     1     53.93699       10.774      1
   13    15    14    16     1     -7.04686       10.028      1
   13    15    14    22     1     45.18683       23.385      1
   14    16    18    19     1    -10.10739        6.270      1
   14    16    18    21     1   -107.00282        5.545      1
   14    16    19    18     1    164.14042        9.229      1
   14    16    19    20     1    -41.00040        8.535      1
   14    16    21    18     1     84.01186        4.791      1
   14    16    21    22     1   -118.01871        4.768      1
   14    16    21    23     1    -35.96530       10.756      1
   14    22    21    16     1    121.96641        4.768      1
   14    22    21    18     1    152.02609       10.721      1
   14    22    21    23     1     -4.73127        8.512      1
   15    13    14    16     1    146.14632       26.712      1
   15    13    14    22     1     -8.04062       10.782      1
   15    14    16    17     1    134.86522       11.543      1
   15    14    16    18     1   -128.88696       10.039      1
   15    14    16    19     1   -115.80785       12.183      1
   15    14    16    21     1    -73.85533       10.763      1
   15    14    22    21     1   -174.01358       21.043      1
   16    14    22    21     1   -120.94637        4.011      1
   16    18    19    20     1    143.85149       10.773      1
   16    18    21    22     1    150.91470        8.533      1
   16    18    21    23     1    -57.06605        8.547      1
   16    19    18    21     1   -124.03212        3.238      1
   16    21    18    19     1    120.92709        3.978      1
   17    16    14    22     1    -36.00627        9.256      1
   17    16    18    19     1     82.94533       10.043      1
   17    16    18    21     1    -13.05765       10.028      1
   17    16    19    18     1    -88.94608        7.062      1
   17    16    19    20     1     65.92084        9.288      1
   17    16    21    18     1    154.02079       16.417      1
   17    16    21    22     1    -48.80251       15.748      1
   17    16    21    23     1     32.28491       17.705      1
   18    16    14    22     1     61.94764        6.283      1
   18    16    19    20     1    -25.01212        8.580      1
   18    16    21    22     1    -22.05991        6.306      1
   18    16    21    23     1     60.02062        9.310      1
   18    19    16    21     1    123.99703        4.751      1
   18    21    16    19     1   -122.04542        4.725      1
   19    16    14    22     1     74.96443        8.458      1
   19    16    18    21     1     83.02021        4.044      1
   19    16    21    22     1     34.99005        6.947      1
   19    16    21    23     1    116.90995        8.586      1
   19    18    16    21     1    -83.02021        4.044      1
   19    18    21    22     1     90.92092        8.567      1
   19    18    21    23     1   -116.91911        8.563      1
   20    19    16    21     1    -80.99534        7.107      1
   20    19    18    21     1   -161.08495       11.494      1
   21    16    14    22     1    114.99227        4.056      1
