1TPCN04182
31
    1res  C1    1    1.253   0.444   0.131
    1res  C2    2    1.133   0.263  -0.004
    1res  C3    3    0.932   0.246  -0.059
    1res  C4    4    0.742   0.333  -0.142
    1res  C5    5    0.781   0.151  -0.314
    1res  C6    6    0.748  -0.031  -0.128
    1res  C7    7    0.551  -0.158  -0.012
    1res  C8    8    0.495  -0.076  -0.343
    1res  C9    9    0.312  -0.247  -0.351
    1res  C10   10    0.345  -0.225  -0.098
    1res  C11   11    0.215  -0.319   0.017
    1res  C12   12    0.051  -0.198   0.079
    1res  C13   13   -0.229  -0.065   0.155
    1res  C14   14   -0.305   0.062  -0.056
    1res  C15   15   -0.519  -0.088  -0.228
    1res  C16   16   -0.531   0.153  -0.153
    1res  C17   17   -0.578   0.224   0.145
    1res  C18   18   -0.769   0.271  -0.094
    1res  C19   19   -0.928   0.093   0.187
    1res  C20   20   -1.055   0.012   0.420
    1res  C21   21   -1.136  -0.093   0.156
    1res  C22   22   -1.166   0.156  -0.054
    1res  C23   23   -0.899   0.002  -0.165
    1res  C24   24   -0.189  -0.236  -0.155
    1res  C25   25    0.168  -0.267   0.325
    1res  C26   26    0.065  -0.471   0.323
    1res  C27   27    0.207  -0.508   0.114
    1res  C28   28    0.813   0.060   0.055
    1res  C29   29    1.194   0.032  -0.091
    1res  C30   30    1.414   0.074  -0.039
    1res  C31   31    1.363   0.223   0.153
  10.00000  10.00000  10.00000
