[ moleculetype ]
; name        nrexcl
res           1

[ atoms ]
;    nr  type  resnr resid  atom  cgnr     charge       mass
      1 TC3       1 res   C1        1      0.000     36.000
      2 TC3       1 res   C2        2      0.000     36.000
      3 SC4       1 res   C3        3      0.000     54.000
      4 SC3       1 res   C4        4      0.000     54.000
      5 TP1       1 res   C5        5      0.000     36.000
      6 TC3       1 res   C6        6      0.000     36.000
      7 TC5       1 res   C7        7      0.000     36.000
      8 TN6d      1 res   C8        8      0.000     36.000
      9 TC5       1 res   C9        9      0.000     36.000
     10 TC5       1 res   C10      10      0.000     36.000
     11 TC5       1 res   C11      11      0.000     36.000

[ bonds ]
;  ai    aj   funct      b0(nm)          k(kJ/mol/nm^2)
    1     2     1      0.32973          61812.7
    2     3     1      0.25085          56708.7
    2     4     1      0.28295          94337.1
    3     4     1      0.35233         192939.3
    3     6     1      0.28268          38996.0
    3     7     1      0.25839          26404.7
    4     5     1      0.25968          13373.3
    4     6     1      0.34029          39570.9
    6     7     1      0.24641         194391.8
    7     8     1      0.21886         262651.9
    7     9     1      0.18354         332746.9
    8     9     1      0.21869         164056.0
    9    10     1      0.25039         237151.9
    9    11     1      0.25055         266927.9
   10    11     1      0.29128         219460.1

[ angles ]
;  ai    aj    ak  funct     th0(deg)        k(kJ/mol/rad^2)
    1     2     3     1    149.39128           455.68
    1     2     4     1     68.83491          1086.76
    2     3     4     1     52.74092          5176.84
    2     3     6     1     90.33309           862.68
    2     3     7     1    116.10584          1005.03
    2     4     3     1     44.87855          4408.02
    2     4     5     1    132.63729           367.03
    2     4     6     1     74.24951          1359.03
    3     2     4     1     82.38059          3491.57
    3     4     5     1    114.76992           760.67
    3     4     6     1     48.13196          3090.85
    3     6     4     1     68.15491          3534.14
    3     6     7     1     57.98836          1112.63
    3     7     6     1     68.08028          1108.23
    3     7     8     1    103.36753           326.96
    3     7     9     1    143.72125           156.22
    4     3     6     1     63.71315          2035.78
    4     3     7     1     63.85530          1962.83
    4     6     7     1     66.88107          1361.59
    5     4     6     1     68.16574          1199.65
    6     3     7     1     53.93117          3416.43
    6     7     8     1    168.05725           877.50
    6     7     9     1    124.23687          1396.70
    7     8     9     1     49.60404          6265.10
    7     9     8     1     65.24632          4762.92
    7     9    10     1    160.65850           951.84
    7     9    11     1    126.76617          1115.48
    8     7     9     1     65.14963          4104.08
    8     9    10     1     96.34164          1210.51
    8     9    11     1    166.34657           999.89
    9    10    11     1     54.47150          9767.62
    9    11    10     1     54.41901          9798.15
   10     9    11     1     71.10950          7154.79
