[ moleculetype ]
; name        nrexcl
res           1

[ atoms ]
;    nr  type  resnr resid  atom  cgnr     charge       mass
      1 TC5       1 res   C1        1      0.000     36.000
      2 SN6       1 res   C2        2      0.000     54.000
      3 SN4a      1 res   C3        3      0.000     54.000
      4 TP1       1 res   C4        4      0.000     36.000
      5 TN6       1 res   C5        5      0.000     36.000
      6 TN6       1 res   C6        6      0.000     36.000
      7 TN6       1 res   C7        7      0.000     36.000
      8 TN4a      1 res   C8        8      0.000     36.000
      9 TC5       1 res   C9        9      0.000     36.000
     10 TN6a      1 res   C10      10      0.000     36.000
     11 SN6d      1 res   C11      11      0.000     54.000
     12 TC3       1 res   C12      12      0.000     36.000
     13 TC5       1 res   C13      13      0.000     36.000
     14 SN6       1 res   C14      14      0.000     54.000
     15 SN6       1 res   C15      15      0.000     54.000

[ bonds ]
;  ai    aj   funct      b0(nm)          k(kJ/mol/nm^2)
    1     2     1      0.26735           8872.0
    2     3     1      0.34373          27706.9
    2     8     1      0.25803          74836.2
    2     9     1      0.23593          56557.3
    3     4     1      0.29184          11700.4
    3     5     1      0.27628          21097.0
    3     7     1      0.28989          22418.9
    5     6     1      0.21786           9717.7
    6     7     1      0.26380          20357.1
    8     9     1      0.25854          96509.1
    9    10     1      0.27554          60375.3
    9    11     1      0.21113          62787.7
   10    11     1      0.31312          68043.9
   11    12     1      0.35219          25074.2
   11    13     1      0.24971          40876.2
   12    13     1      0.24368          61173.7
   13    14     1      0.28868         180589.0
   13    15     1      0.29109         209284.5
   14    15     1      0.29597          99372.6

[ angles ]
;  ai    aj    ak  funct     th0(deg)        k(kJ/mol/rad^2)
    1     2     3     1    123.96378            39.44
    1     2     8     1    151.80301           122.78
    1     2     9     1     93.51624           141.93
    2     3     4     1    120.81016           118.36
    2     3     5     1    158.81953           206.63
    2     3     7     1     80.95167           312.88
    2     8     9     1     54.32807          3920.25
    2     9     8     1     62.70162          2824.66
    2     9    10     1    126.71912           902.28
    2     9    11     1    134.52557           752.31
    3     2     8     1     78.60533           114.01
    3     2     9     1    118.10236           147.50
    3     5     6     1     75.58898           224.30
    3     7     6     1     67.05747           269.84
    4     3     5     1     62.83011           229.91
    4     3     7     1    119.80372            61.12
    5     3     7     1     84.38039           724.07
    5     6     7     1    104.17061           195.77
    8     2     9     1     62.97027          1715.63
    8     9    10     1     65.42977          2033.87
    8     9    11     1    133.25301           451.90
    9    10    11     1     41.39681          6056.60
    9    11    10     1     59.71449          1820.00
    9    11    12     1    113.32516           503.58
    9    11    13     1    155.32399           359.87
   10     9    11     1     78.88850          1645.94
   10    11    12     1     55.86645          1051.88
   10    11    13     1     98.15263           509.07
   11    12    13     1     45.14408          3528.51
   11    13    12     1     91.08374          1998.68
   11    13    14     1    148.53281           762.08
   11    13    15     1     90.12772           936.44
   12    11    13     1     43.77212          4597.22
   12    13    14     1    118.12331          1473.14
   12    13    15     1    169.03242           248.13
   13    14    15     1     59.70602          8564.66
   13    15    14     1     58.90364          8562.20
   14    13    15     1     61.39033          6668.12
