[ moleculetype ]
; name        nrexcl
res           1

[ atoms ]
;    nr  type  resnr resid  atom  cgnr     charge       mass
      1 SC2       1 res   C1        1      0.000     54.000
      2 P1        1 res   C2        2      0.000     72.000
      3 SC2       1 res   C3        3      0.000     54.000
      4 TN3r      1 res   C4        4      0.000     36.000
      5 SN4a      1 res   C5        5      0.000     54.000
      6 TP1       1 res   C6        6      0.000     36.000
      7 TN6       1 res   C7        7      0.000     36.000
      8 TN6       1 res   C8        8      0.000     36.000
      9 TN6       1 res   C9        9      0.000     36.000

[ bonds ]
;  ai    aj   funct      b0(nm)          k(kJ/mol/nm^2)
    4     5     1      0.26925          13704.0
    5     6     1      0.25978          33191.7
    5     7     1      0.29628          25855.5
    5     9     1      0.28276          58765.9
    7     8     1      0.21168          26172.6
    8     9     1      0.22088          18973.3

[ angles ]
;  ai    aj    ak  funct     th0(deg)        k(kJ/mol/rad^2)
    4     5     6     1     81.96410           413.86
    4     5     7     1    131.47046           213.72
    4     5     9     1     81.10986           568.63
    5     7     8     1     70.18083           921.06
    5     9     8     1     71.92118          1186.79
    6     5     7     1     65.85737           665.08
    6     5     9     1    112.12159           336.73
    7     5     9     1     79.57984          1465.66
    7     8     9     1    118.04959           476.06
