[ moleculetype ]
; name        nrexcl
res           1

[ atoms ]
;    nr  type  resnr resid  atom  cgnr     charge       mass
      1 TN6d      1 res   C1        1      0.000     36.000
      2 TN1a      1 res   C2        2      0.000     36.000
      3 TC5       1 res   C3        3      0.000     36.000
      4 TN1a      1 res   C4        4      0.000     36.000
      5 TN6d      1 res   C5        5      0.000     36.000
      6 TN6a      1 res   C6        6      0.000     36.000

[ bonds ]
;  ai    aj   funct      b0(nm)          k(kJ/mol/nm^2)
    1     2     1      0.19019          81557.3
    2     3     1      0.22380         235753.3
    2     6     1      0.22050         124247.3
    3     4     1      0.17684         369724.6
    3     5     1      0.21301         244491.5
    3     6     1      0.23969         238783.5
    4     5     1      0.21023         186814.6

[ angles ]
;  ai    aj    ak  funct     th0(deg)        k(kJ/mol/rad^2)
    1     2     3     1    124.60866          1299.45
    1     2     6     1    166.96922           680.07
    2     3     4     1    160.89637          1071.46
    2     3     5     1    132.53637           948.44
    2     3     6     1     56.68936          5252.28
    2     6     3     1     58.01790          6748.52
    3     2     6     1     65.29276          5587.55
    3     4     5     1     66.12817          3706.90
    3     5     4     1     49.38224          7142.63
    4     3     5     1     64.48960          3460.57
    4     3     6     1    140.73130          1400.86
    5     3     6     1     76.52992          1011.62

[ dihedrals ]
;  ai    aj    ak    al  funct   phi0(deg)        k(kJ/mol)   mult
    1     2     3     4     1   -179.48140       25.803      1
    1     2     3     4     1   -177.46306       18.585      2
    1     2     3     4     1   -169.78090        9.923      3
    1     2     3     5     1      2.24355       22.883      1
    1     2     3     5     1   -175.62544       19.215      2
    1     2     3     5     1      6.17063       13.915      3
    1     2     3     6     1      1.91117       16.449      1
    1     2     3     6     1   -176.18656       15.270      2
    1     2     3     6     1      5.69480       13.419      3
    1     2     6     3     1     -2.21562       31.505      1
    1     2     6     3     1    175.61590       12.523      2
    1     2     6     3     1    166.02518        2.512      3
    2     3     4     5     1      1.29622       28.365      1
    2     3     4     5     1   -178.55683       20.051      2
    2     3     4     5     1     -2.73547        9.845      3
    2     3     5     4     1      0.75096       17.151      1
    2     3     5     4     1   -178.43782       15.756      2
    2     3     5     4     1      2.50812       13.593      3
    2     6     3     4     1      1.96901       17.796      1
    2     6     3     4     1   -176.10221       16.259      2
    2     6     3     4     1      5.73366       13.880      3
    2     6     3     5     1      0.01303       15.056      1
    2     6     3     5     1   -179.97389       14.171      2
    2     6     3     5     1      0.03932       12.765      3
    4     3     2     6     1     -1.42838       25.795      1
    4     3     2     6     1    177.71924       20.116      2
    4     3     2     6     1     -1.38052       12.548      3
    4     5     3     6     1      0.00577        9.344      1
    4     5     3     6     1   -179.98831        9.145      2
    4     5     3     6     1      0.01794        8.820      3
    5     3     2     6     1    178.98722       17.106      1
    5     3     2     6     1    177.99805       15.683      2
    5     3     2     6     1    177.06436       13.479      3
    5     4     3     6     1   -179.04516       12.979      1
    5     4     3     6     1   -178.09240       12.423      2
    5     4     3     6     1   -177.14415       11.530      3
