[ moleculetype ]
; name        nrexcl
res           1

[ atoms ]
;    nr  type  resnr resid  atom  cgnr     charge       mass
      1 TC5       1 res   C1        1      0.000     36.000
      2 TC5       1 res   C2        2      0.000     36.000
      3 TC5       1 res   C3        3      0.000     36.000
      4 TN6d      1 res   C4        4      0.000     36.000
      5 TC3       1 res   C5        5      0.000     36.000
      6 TC5       1 res   C6        6      0.000     36.000
      7 TC5       1 res   C7        7      0.000     36.000
      8 SN6       1 res   C8        8      0.000     54.000
      9 TC5       1 res   C9        9      0.000     36.000
     10 TN6d      1 res   C10      10      0.000     36.000
     11 TN6a      1 res   C11      11      0.000     36.000
     12 N4a       1 res   C12      12      0.000     72.000
     13 SC3       1 res   C13      13      0.000     54.000

[ constraints ]
;  ai    aj   funct      b0(nm)
    1     2     1      0.33210
    2    13     1      0.24377
   10    11     1      0.18443
    2     3     1      0.24719
    6    12     1      0.34661
    4     5     1      0.31629
    2     6     1      0.20507
    7    10     1      0.22488
    7     9     1      0.25065
    3     4     1      0.26193
    7     8     1      0.29043
    5     6     1      0.27841
    6     7     1      0.22482
    6    10     1      0.26658
    2     4     1      0.26167
    6    13     1      0.23307
    8     9     1      0.30982

[ bonds ]
;  ai    aj   funct      b0(nm)          k(kJ/mol/nm^2)

[ angles ]
;  ai    aj    ak  funct     th0(deg)        k(kJ/mol/rad^2)
    1     2     3     1     68.89539           432.96
    1     2     4     1     73.23184           255.15
    1     2     6     1     91.03894           457.20
    1     2    13     1     69.39422           228.89
    2     3     4     1     61.78372          3488.71
    2     4     3     1     56.33430          3903.99
    2     4     5     1     62.84923          3445.73
    2     6     5     1     76.53782          3515.09
    2     6     7     1    100.73244          1149.16
    2     6    10     1    121.14208           427.76
    2     6    12     1    130.74333            90.76
    2     6    13     1     67.25992          2141.23
    2    13     6     1     50.88109          4305.58
    3     2     4     1     61.88192          4131.96
    3     2     6     1    153.55740           867.82
    3     2    13     1     94.33698          1575.86
    3     4     5     1    113.73658           957.19
    4     2     6     1    129.77157          1575.14
    4     2    13     1    140.92899           585.97
    4     5     6     1     90.51289          3792.93
    5     6     7     1     95.91376          1524.90
    5     6    10     1    144.94403           806.16
    5     6    12     1     91.27122           187.31
    5     6    13     1    123.54684           686.09
    6     2    13     1     61.85893          3186.01
    6     7     8     1    117.41898          1416.46
    6     7     9     1    170.97667          1420.55
    6     7    10     1     72.71260          4119.94
    6    10     7     1     53.63823          4890.64
    6    10    11     1     82.52135          2009.45
    7     6    10     1     53.64916          6656.16
    7     6    12     1    127.48612            82.61
    7     6    13     1    131.27662           445.60
    7     8     9     1     49.22946          9403.44
    7     9     8     1     61.35023          6774.04
    7    10    11     1    134.94500          1039.28
    8     7     9     1     69.42032          4442.06
    8     7    10     1    167.30255           837.75
    9     7    10     1    100.31156          2021.15
   10     6    12     1     95.72434           152.01
   10     6    13     1     91.19265          1137.39
   12     6    13     1     82.66807           119.90

[ dihedrals ]
;  ai    aj    ak    al  funct   phi0(deg)        k(kJ/mol)   mult
    1     2     3     4     1     97.02470       10.052      1
    1     2     4     3     1   -102.15512        8.453      1
    1     2     4     5     1    103.77690       10.728      1
    1     2     6     5     1   -109.98781       10.807      1
    1     2     6     7     1    -15.68749       10.758      1
    1     2     6    10     1     37.36415       11.479      1
    1     2     6    12     1    170.99977       19.712      1
    1     2     6    13     1    113.06382       11.495      1
    1     2    13     6     1    -77.32997        8.579      1
    2     3     4     5     1   -154.11389        9.296      1
    2     4     5     6     1   -179.94244        6.317      1
    2     6     5     4     1    178.99953        7.092      1
    2     6     7     8     1    127.07316       14.299      1
    2     6     7     9     1    -45.06924       32.628      1
    2     6     7    10     1    -58.98714        8.598      1
    2     6    10     7     1    100.61980        8.500      1
    2     6    10    11     1    -89.93181       12.239      1
    2    13     6     5     1    127.24569        8.533      1
    2    13     6     7     1    -95.05728        7.092      1
    2    13     6    10     1    -55.09544        8.582      1
    2    13     6    12     1     39.01197       14.400      1
    3     2     4     5     1     26.90129       10.058      1
    3     2     6     5     1    -70.07407       12.228      1
    3     2     6     7     1     22.07348       10.826      1
    3     2     6    10     1     75.91575       10.818      1
    3     2     6    12     1   -150.10054       19.032      1
    3     2     6    13     1    151.89892       13.651      1
    3     2    13     6     1    -12.90514        7.083      1
    3     4     2     6     1    -29.28372        8.566      1
    3     4     2    13     1   -122.69639       11.482      1
    3     4     5     6     1    155.27274       12.920      1
    4     2     6     5     1   -179.91418       10.787      1
    4     2     6     7     1    -86.05007       10.764      1
    4     2     6    10     1    -32.08304       10.776      1
    4     2     6    12     1    100.99765       18.348      1
    4     2     6    13     1     45.97251       10.728      1
    4     2    13     6     1    -58.92484        8.527      1
    4     3     2     6     1     54.09309       10.815      1
    4     3     2    13     1     33.13530        9.994      1
    4     5     6     7     1     79.03920        8.590      1
    4     5     6    10     1     53.42990       14.358      1
    4     5     6    12     1    -44.28095       17.062      1
    4     5     6    13     1   -131.22004       11.480      1
    5     4     2     6     1    178.99563       10.056      1
    5     4     2    13     1     85.79442        9.284      1
    5     6     2    13     1    -43.70040        9.271      1
    5     6     7     8     1   -157.13261       14.337      1
    5     6     7     9     1     30.90278       31.499      1
    5     6     7    10     1     18.03056       10.759      1
    5     6    10     7     1   -148.54648       13.636      1
    5     6    10    11     1     22.52751       17.028      1
    6     7     8     9     1      0.75719       11.505      1
    6     7     9     8     1     -6.04359       29.994      1
    6     7    10    11     1    166.72228       15.732      1
    6    10     7     8     1    -20.69084       28.667      1
    6    10     7     9     1      0.12995       10.766      1
    7     6     2    13     1     50.91285        8.582      1
    7     6    10    11     1     -9.91266       12.239      1
    7    10     6    12     1    -49.00663       17.073      1
    7    10     6    13     1     38.84662       11.417      1
    8     7     6    10     1      7.15252       12.864      1
    8     7     6    12     1    -61.56858       19.011      1
    8     7     6    13     1     56.93063       14.325      1
    8     7    10    11     1    -36.24412       29.064      1
    8     9     7    10     1      7.17816       11.428      1
    9     7     6    10     1   -170.51803       30.783      1
    9     7     6    12     1    127.92961       29.636      1
    9     7     6    13     1   -115.83118       30.125      1
    9     7    10    11     1    -10.42746       17.715      1
    9     8     7    10     1   -152.60313       25.872      1
   10     6     2    13     1    103.94062        7.842      1
   10     7     6    12     1    113.95865       16.446      1
   10     7     6    13     1   -127.86549       10.728      1
   11    10     6    12     1    123.09927       19.795      1
   11    10     6    13     1   -152.03236       13.726      1
   12     6     2    13     1   -121.96228       16.418      1
