1TPCN03593
19
    1res  C1    1   -0.444  -0.206  -0.183
    1res  C2    2   -0.508  -0.419   0.001
    1res  C3    3   -0.707  -0.142  -0.064
    1res  C4    4   -0.627   0.124  -0.106
    1res  C5    5   -0.506   0.123   0.185
    1res  C6    6   -0.368   0.303   0.036
    1res  C7    7   -0.180   0.202  -0.192
    1res  C8    8   -0.114   0.237   0.110
    1res  C9    9    0.120   0.145   0.037
    1res  C10   10    0.167  -0.034  -0.169
    1res  C11   11    0.363  -0.060  -0.005
    1res  C12   12    0.638  -0.036  -0.011
    1res  C13   13    0.744   0.173  -0.144
    1res  C14   14    0.904  -0.106  -0.034
    1res  C15   15    0.782  -0.182  -0.239
    1res  C16   16    0.588  -0.307  -0.148
    1res  C17   17    0.219  -0.208   0.174
    1res  C18   18    0.323   0.001   0.295
    1res  C19   19   -0.073   0.035   0.256
  10.00000  10.00000  10.00000
