1TPCN03722
33
    1res  C1    1   -0.440  -0.211   0.508
    1res  C2    2   -0.516   0.123   0.341
    1res  C3    3   -0.549   0.104   0.075
    1res  C4    4   -0.355   0.062   0.012
    1res  C5    5   -0.192   0.091  -0.145
    1res  C6    6    0.091  -0.123  -0.138
    1res  C7    7    0.039   0.144  -0.034
    1res  C8    8    0.032   0.172   0.201
    1res  C9    9    0.364   0.149   0.185
    1res  C10   10    0.356  -0.158   0.256
    1res  C11   11    0.428  -0.486   0.151
    1res  C12   12    0.519   0.075  -0.012
    1res  C13   13    0.788   0.098   0.108
    1res  C14   14    1.036   0.193   0.041
    1res  C15   15    1.117   0.294  -0.223
    1res  C16   16    1.287   0.249   0.057
    1res  C17   17    1.272  -0.021  -0.026
    1res  C18   18    1.124  -0.088   0.131
    1res  C19   19    0.764  -0.020  -0.158
    1res  C20   20    0.598   0.114  -0.300
    1res  C21   21    0.418  -0.059  -0.213
    1res  C22   22   -0.321  -0.107  -0.249
    1res  C23   23   -0.273  -0.376  -0.202
    1res  C24   24   -0.530  -0.355  -0.311
    1res  C25   25   -0.626  -0.193  -0.137
    1res  C26   26   -0.758   0.138   0.099
    1res  C27   27   -0.805   0.217  -0.081
    1res  C28   28   -0.641   0.387  -0.261
    1res  C29   29   -0.898   0.391  -0.329
    1res  C30   30   -0.948   0.160  -0.368
    1res  C31   31   -0.968   0.051  -0.157
    1res  C32   32   -0.844  -0.003   0.236
    1res  C33   33   -0.720   0.041   0.428
  10.00000  10.00000  10.00000
