[ moleculetype ]
; name        nrexcl
res           1

[ atoms ]
;    nr  type resnr resid  atom  cgnr     charge       mass
      1 TC4       1 res   C1        1      0.000     36.000
      2 SC3       1 res   C2        2      0.000     54.000
      3 SC3       1 res   C3        3      0.000     54.000
      4 TN6a      1 res   C4        4      0.000     36.000
      5 TN4a      1 res   C5        5      0.000     36.000
      6 TN4a      1 res   C6        6      0.000     36.000
      7 TC5       1 res   C7        7      0.000     36.000
      8 SC2       1 res   C8        8      0.000     54.000
      9 SP1       1 res   C9        9      0.000     54.000
     10 TN6       1 res   C10      10      0.000     36.000

[ bonds ]
;  ai    aj   funct      b0(nm)        k
    1     2     1      0.32366    20000
    1    10     1      0.25288    20000
    2     3     1      0.25890    20000
    2     4     1      0.29618    20000
    2    10     1      0.30492    20000
    3     5     1      0.41461    20000
    3     6     1      0.32777    20000
    3     9     1      0.43969    20000
    4     5     1      0.29108    20000
    6     7     1      0.26509    20000
    7     8     1      0.29609    20000
    8     9     1      0.31728    20000
