[ moleculetype ]
; name        nrexcl
res           1

[ atoms ]
;    nr  type  resnr resid  atom  cgnr     charge       mass
      1 TC5       1 res   C1        1      0.000     36.000
      2 SX2       1 res   C2        2      0.000     54.000
      3 TC6       1 res   C3        3      0.000     36.000

[ bonds ]
;  ai    aj   funct      b0(nm)          k(kJ/mol/nm^2)
    1     2     1      0.29977         112276.4
    1     3     1      0.24306         116711.0
    2     3     1      0.25342         218551.5

[ angles ]
;  ai    aj    ak  funct     th0(deg)        k(kJ/mol/rad^2)
    1     2     3     1     51.29772          5365.71
    1     3     2     1     74.25703          4042.83
    2     1     3     1     54.44520         10776.13

[ dihedrals ]
;  ai    aj    ak    al  funct   phi0(deg)        k(kJ/mol)   mult
