1TPCN01590
17
    1res  C1    1    0.199  -0.134   0.314
    1res  C2    2    0.425  -0.172   0.037
    1res  C3    3    0.211   0.071  -0.119
    1res  C4    4    0.397  -0.056  -0.212
    1res  C5    5    0.300  -0.143  -0.378
    1res  C6    6    0.038  -0.109  -0.436
    1res  C7    7    0.049  -0.265  -0.128
    1res  C8    8   -0.107  -0.115  -0.110
    1res  C9    9   -0.300  -0.024  -0.220
    1res  C10   10   -0.296  -0.020   0.022
    1res  C11   11   -0.001   0.090   0.205
    1res  C12   12   -0.173  -0.056   0.333
    1res  C13   13   -0.308   0.193   0.199
    1res  C14   14   -0.499  -0.049   0.160
    1res  C15   15    0.015   0.280  -0.050
    1res  C16   16    0.250   0.343   0.215
    1res  C17   17    0.049   0.102  -0.289
  10.00000  10.00000  10.00000
