[ moleculetype ]
; name        nrexcl
res           1

[ atoms ]
;    nr  type resnr resid  atom  cgnr     charge       mass
      1 TC4       1 res   C1        1      0.000     36.000
      2 TC3       1 res   C2        2      0.000     36.000
      3 TC5       1 res   C3        3      0.000     36.000
      4 SN4a      1 res   C4        4      0.000     54.000
      5 SN4a      1 res   C5        5      0.000     54.000
      6 TP1       1 res   C6        6      0.000     36.000
      7 TN6       1 res   C7        7      0.000     36.000
      8 TN6       1 res   C8        8      0.000     36.000
      9 TN6       1 res   C9        9      0.000     36.000
     10 TC3       1 res   C10      10      0.000     36.000
     11 SC4       1 res   C11      11      0.000     54.000
     12 TC3       1 res   C12      12      0.000     36.000
     13 SC4       1 res   C13      13      0.000     54.000
     14 SC4       1 res   C14      14      0.000     54.000
     15 SN6       1 res   C15      15      0.000     54.000
     16 TN6       1 res   C16      16      0.000     36.000
     17 TC4       1 res   C17      17      0.000     36.000
     18 TP1       1 res   C18      18      0.000     36.000
     19 SN6       1 res   C19      19      0.000     54.000
     20 SN6       1 res   C20      20      0.000     54.000

[ bonds ]
;  ai    aj   funct      b0(nm)        k
    1     2     1      0.30720    20000
    1    20     1      0.29902    20000
    2     3     1      0.28307    20000
    3     4     1      0.24107    20000
    3    10     1      0.29489    20000
    3    11     1      0.35672    20000
    3    20     1      0.27128    20000
    4     5     1      0.32292    20000
    5     6     1      0.29297    20000
    5     7     1      0.30272    20000
    5     9     1      0.28960    20000
    7     8     1      0.24718    20000
    8     9     1      0.25068    20000
   10    11     1      0.30598    20000
   11    12     1      0.30593    20000
   11    13     1      0.34673    20000
   12    13     1      0.36300    20000
   13    14     1      0.37861    20000
   13    19     1      0.31249    20000
   14    15     1      0.31361    20000
   14    17     1      0.27138    20000
   14    19     1      0.37752    20000
   15    16     1      0.25993    20000
   16    17     1      0.30209    20000
   17    18     1      0.28277    20000
