1TPCN05621
32
    1res  C1    1   -0.901   0.591  -0.110
    1res  C2    2   -0.747   0.363   0.004
    1res  C3    3   -0.719   0.153   0.050
    1res  C4    4   -0.638  -0.028  -0.006
    1res  C5    5   -0.429  -0.176   0.090
    1res  C6    6   -0.371  -0.056  -0.163
    1res  C7    7   -0.153  -0.182  -0.098
    1res  C8    8    0.119  -0.103   0.056
    1res  C9    9    0.296  -0.143  -0.132
    1res  C10   10    0.364   0.213  -0.193
    1res  C11   11    0.506  -0.014  -0.186
    1res  C12   12    0.586  -0.063   0.120
    1res  C13   13    0.720   0.208  -0.135
    1res  C14   14    0.894   0.117   0.105
    1res  C15   15    0.940   0.431   0.149
    1res  C16   16    1.081   0.272  -0.075
    1res  C17   17    1.100   0.119   0.193
    1res  C18   18    0.868  -0.066  -0.105
    1res  C19   19    0.009   0.113  -0.170
    1res  C20   20   -0.256  -0.305   0.040
    1res  C21   21   -0.384  -0.567   0.152
    1res  C22   22   -0.388  -0.593   0.379
    1res  C23   23   -0.380  -0.840   0.094
    1res  C24   24   -0.137  -0.742   0.083
    1res  C25   25   -0.231  -0.610  -0.098
    1res  C26   26   -0.829  -0.161   0.117
    1res  C27   27   -0.899  -0.110   0.334
    1res  C28   28   -0.992  -0.064  -0.040
    1res  C29   29   -0.942   0.174   0.036
    1res  C30   30   -0.508   0.374  -0.011
    1res  C31   31   -0.549   0.448  -0.212
    1res  C32   32   -0.660   0.652  -0.161
  10.00000  10.00000  10.00000
