1TPCN01846
10
    1res  C1    1   -0.325   0.258  -0.137
    1res  C2    2   -0.562   0.090   0.126
    1res  C3    3   -0.446  -0.086  -0.046
    1res  C4    4   -0.136   0.016   0.031
    1res  C5    5    0.049  -0.199  -0.128
    1res  C6    6    0.298   0.006   0.118
    1res  C7    7    0.425   0.285   0.078
    1res  C8    8    0.521   0.043  -0.086
    1res  C9    9    0.530  -0.152   0.016
    1res  C10   10    0.347  -0.217   0.160
  10.00000  10.00000  10.00000
