[ moleculetype ]
; name        nrexcl
res           1

[ atoms ]
;    nr  type  resnr resid  atom  cgnr     charge       mass
      1 P1        1 res   C1        1      0.000     72.000
      2 TC3       1 res   C2        2      0.000     36.000
      3 TC5       1 res   C3        3      0.000     36.000
      4 TN2a      1 res   C4        4      0.000     36.000
      5 SN4a      1 res   C5        5      0.000     54.000
      6 TN3r      1 res   C6        6      0.000     36.000
      7 SN4a      1 res   C7        7      0.000     54.000
      8 SP4       1 res   C8        8      0.000     54.000
      9 TN6       1 res   C9        9      0.000     36.000
     10 SP4       1 res   C10      10      0.000     54.000
     11 TN6       1 res   C11      11      0.000     36.000
     12 TC3       1 res   C12      12      0.000     36.000

[ constraints ]
;  ai    aj   funct      b0(nm)
    1     2     1      0.26695
   10    11     1      0.28197
    2     3     1      0.23163
    2    12     1      0.28188
    3     4     1      0.23245
    7     8     1      0.27601
    3    12     1      0.29476
    8     9     1      0.29421

[ bonds ]
;  ai    aj   funct      b0(nm)          k(kJ/mol/nm^2)
    5    11     1      0.24221           6266.0
    4     5     1      0.25938           1136.7
    5    10     1      0.24956           6429.8
    7     9     1      0.28773           2333.0
    5     6     1      0.29163           4257.4
    6     7     1      0.26800           2114.1

[ angles ]
;  ai    aj    ak  funct     th0(deg)        k(kJ/mol/rad^2)
    1     2     3     1    160.18447           262.08
    1     2    12     1     93.58458          1099.37
    2     3     4     1    147.59709           570.28
    2     3    12     1     63.39993          2335.99
    2    12     3     1     47.28767          2826.60
    3     2    12     1     69.31207          1223.77
    3     4     5     1    132.32325            14.25
    4     3    12     1     87.31551          1403.95
    4     5     6     1    116.27315            65.89
    4     5    10     1    146.55224            13.65
    4     5    11     1     82.08165            23.60
    5     6     7     1    132.77686            10.56
    5    10    11     1     54.01182           168.61
    5    11    10     1     56.12229           303.66
    6     5    10     1     86.68808           123.17
    6     5    11     1    137.39031            56.29
    6     7     8     1    123.07934            11.96
    6     7     9     1     94.22682           121.11
    7     8     9     1     60.56824           153.28
    7     9     8     1     56.37439          1059.01
    8     7     9     1     63.06136           249.37
   10     5    11     1     69.84487           324.71

[ dihedrals ]
;  ai    aj    ak    al  funct   phi0(deg)        k(kJ/mol)   mult
    1     2     3     4     1   -155.46911       30.446      1
    1     2     3    12     1   -175.58874       30.923      1
    1     2    12     3     1      4.59419       17.668      1
    2     3     4     5     1    -39.49081       22.353      1
    2    12     3     4     1     12.04688       12.260      1
    3     4     5     6     1    -93.95779       21.172      1
    3     4     5    10     1     79.33945       13.061      1
    3     4     5    11     1    106.09630       15.663      1
    4     3     2    12     1   -158.18571       19.123      1
    4     5     6     7     1    140.46752       15.322      1
    4     5    10    11     1   -168.42501       31.532      1
    4     5    11    10     1     15.61182       25.133      1
    5     4     3    12     1     -9.87880       20.803      1
    5     6     7     8     1     30.54851       11.851      1
    5     6     7     9     1    -26.84070       17.451      1
    6     5    10    11     1     18.73683       21.249      1
    6     5    11    10     1   -157.54936       16.187      1
    6     7     8     9     1    126.09771       30.298      1
    6     7     9     8     1    -47.09773       26.088      1
    7     6     5    10     1    -69.49885        6.222      1
    7     6     5    11     1   -144.07239       16.475      1
