[ moleculetype ]
; name        nrexcl
res           1

[ atoms ]
;    nr  type  resnr resid  atom  cgnr     charge       mass
      1 TP1       1 res   C1        1      0.000     36.000
      2 TN4a      1 res   C2        2      0.000     36.000
      3 SP4       1 res   C3        3      0.000     54.000
      4 SP4       1 res   C4        4      0.000     54.000

[ constraints ]
;  ai    aj   funct      b0(nm)
    2     4     1      0.30443

[ bonds ]
;  ai    aj   funct      b0(nm)          k(kJ/mol/nm^2)
    1     2     1      0.23584          15482.9
    3     4     1      0.30587          16456.6
    2     3     1      0.24253          11723.0

[ angles ]
;  ai    aj    ak  funct     th0(deg)        k(kJ/mol/rad^2)
    1     2     3     1    106.66685           334.70
    1     2     4     1    100.90085           100.25
    2     3     4     1     66.22481           658.07
    2     4     3     1     46.80756           632.23
    3     2     4     1     66.96934           414.91

[ dihedrals ]
;  ai    aj    ak    al  funct   phi0(deg)        k(kJ/mol)   mult
    1     2     3     4     1     84.58430       14.890      1
    1     2     4     3     1    -77.87416       12.171      1
