[ moleculetype ]
; name        nrexcl
res           1

[ atoms ]
;    nr  type resnr resid  atom  cgnr     charge       mass
      1 TC4       1 res   C1        1      0.000     36.000
      2 TC3       1 res   C2        2      0.000     36.000
      3 SC4       1 res   C3        3      0.000     54.000
      4 TC3       1 res   C4        4      0.000     36.000
      5 SC4       1 res   C5        5      0.000     54.000
      6 SN6       1 res   C6        6      0.000     54.000
      7 SC4       1 res   C7        7      0.000     54.000
      8 SC4       1 res   C8        8      0.000     54.000
      9 TC3       1 res   C9        9      0.000     36.000
     10 TN6       1 res   C10      10      0.000     36.000
     11 SC4       1 res   C11      11      0.000     54.000
     12 TC3       1 res   C12      12      0.000     36.000
     13 TC4       1 res   C13      13      0.000     36.000

[ bonds ]
;  ai    aj   funct      b0(nm)        k
    1     2     1      0.30804    20000
    1    13     1      0.26852    20000
    2     3     1      0.27919    20000
    3     4     1      0.28748    20000
    3     5     1      0.30794    20000
    3    13     1      0.38717    20000
    4     5     1      0.29851    20000
    5     6     1      0.41565    20000
    5     7     1      0.28590    20000
    6     7     1      0.36504    20000
    7     8     1      0.30146    20000
    7    12     1      0.31279    20000
    8     9     1      0.28518    20000
    8    11     1      0.39300    20000
    8    12     1      0.32862    20000
    9    10     1      0.29355    20000
   10    11     1      0.26602    20000
