1TPCN00640
12
    1res  C1    1   -0.137   0.409   0.080
    1res  C2    2   -0.134   0.022   0.081
    1res  C3    3    0.102   0.042  -0.044
    1res  C4    4    0.161   0.224   0.082
    1res  C5    5    0.269   0.031   0.042
    1res  C6    6    0.441   0.139   0.197
    1res  C7    7    0.422  -0.167   0.054
    1res  C8    8    0.127  -0.079  -0.288
    1res  C9    9   -0.065  -0.034  -0.202
    1res  C10   10   -0.228  -0.126  -0.149
    1res  C11   11   -0.388  -0.192   0.069
    1res  C12   12    0.003  -0.169   0.032
  10.00000  10.00000  10.00000
