[ moleculetype ]
; name        nrexcl
res           1

[ atoms ]
;    nr  type resnr resid  atom  cgnr     charge       mass
      1 SC4       1 res   C1        1      0.000     54.000
      2 P1        1 res   C2        2      0.000     72.000
      3 SN3r      1 res   C3        3      0.000     54.000
      4 SN4a      1 res   C4        4      0.000     54.000
      5 TP1       1 res   C5        5      0.000     36.000
      6 TN6       1 res   C6        6      0.000     36.000
      7 TN6       1 res   C7        7      0.000     36.000
      8 TN6       1 res   C8        8      0.000     36.000
      9 SC3       1 res   C9        9      0.000     54.000
     10 SC3       1 res   C10      10      0.000     54.000
     11 SN6       1 res   C11      11      0.000     54.000
     12 SC4       1 res   C12      12      0.000     54.000
     13 SC4       1 res   C13      13      0.000     54.000
     14 TC3       1 res   C14      14      0.000     36.000
     15 TN6       1 res   C15      15      0.000     36.000
     16 SC4       1 res   C16      16      0.000     54.000
     17 SN6       1 res   C17      17      0.000     54.000

[ bonds ]
;  ai    aj   funct      b0(nm)        k
    1     2     1      0.29156    20000
    2     3     1      0.36185    20000
    3     4     1      0.37213    20000
    3     9     1      0.28705    20000
    4     5     1      0.30553    20000
    4     6     1      0.28238    20000
    4     8     1      0.21803    20000
    6     7     1      0.21472    20000
    7     8     1      0.21719    20000
    9    10     1      0.21562    20000
    9    11     1      0.33801    20000
   10    12     1      0.27046    20000
   11    12     1      0.39601    20000
   12    13     1      0.26546    20000
   12    17     1      0.29715    20000
   13    14     1      0.25683    20000
   13    16     1      0.33153    20000
   13    17     1      0.31494    20000
   14    15     1      0.27112    20000
   15    16     1      0.26353    20000
