[ moleculetype ]
; name        nrexcl
res           1

[ atoms ]
;    nr  type resnr resid  atom  cgnr     charge       mass
      1 SN2a      1 res   C1        1      0.000     54.000
      2 TC5       1 res   C2        2      0.000     36.000
      3 TC5       1 res   C3        3      0.000     36.000
      4 N4a       1 res   C4        4      0.000     72.000
      5 SN6       1 res   C5        5      0.000     54.000
      6 TN6       1 res   C6        6      0.000     36.000
      7 SN6       1 res   C7        7      0.000     54.000
      8 TN4a      1 res   C8        8      0.000     36.000
      9 TP1       1 res   C9        9      0.000     36.000
     10 TN6       1 res   C10      10      0.000     36.000
     11 SN6       1 res   C11      11      0.000     54.000
     12 TN4a      1 res   C12      12      0.000     36.000
     13 TN6       1 res   C13      13      0.000     36.000
     14 SN6       1 res   C14      14      0.000     54.000
     15 TN6       1 res   C15      15      0.000     36.000
     16 TC4       1 res   C16      16      0.000     36.000
     17 TN4a      1 res   C17      17      0.000     36.000
     18 TN6       1 res   C18      18      0.000     36.000
     19 TN6       1 res   C19      19      0.000     36.000
     20 SC3       1 res   C20      20      0.000     54.000
     21 SC4       1 res   C21      21      0.000     54.000
     22 TC3       1 res   C22      22      0.000     36.000
     23 SC4       1 res   C23      23      0.000     54.000
     24 TC3       1 res   C24      24      0.000     36.000
     25 SC4       1 res   C25      25      0.000     54.000
     26 SC5       1 res   C26      26      0.000     54.000
     27 SC4       1 res   C27      27      0.000     54.000
     28 TC3       1 res   C28      28      0.000     36.000
     29 SN4a      1 res   C29      29      0.000     54.000
     30 SN4a      1 res   C30      30      0.000     54.000
     31 TN3r      1 res   C31      31      0.000     36.000
     32 SN4a      1 res   C32      32      0.000     54.000
     33 TP1       1 res   C33      33      0.000     36.000
     34 TN6       1 res   C34      34      0.000     36.000
     35 TN4a      1 res   C35      35      0.000     36.000
     36 TC4       1 res   C36      36      0.000     36.000
     37 TN6       1 res   C37      37      0.000     36.000
     38 TN6       1 res   C38      38      0.000     36.000
     39 TN6       1 res   C39      39      0.000     36.000
     40 TN6       1 res   C40      40      0.000     36.000
     41 TN6       1 res   C41      41      0.000     36.000
     42 TN6       1 res   C42      42      0.000     36.000
     43 TN6       1 res   C43      43      0.000     36.000
     44 TN6       1 res   C44      44      0.000     36.000
     45 TC3       1 res   C45      45      0.000     36.000
     46 SC4       1 res   C46      46      0.000     54.000
     47 TN4a      1 res   C47      47      0.000     36.000
     48 TN6       1 res   C48      48      0.000     36.000
     49 TN6       1 res   C49      49      0.000     36.000
     50 TN6       1 res   C50      50      0.000     36.000
     51 TN6       1 res   C51      51      0.000     36.000
     52 TN4a      1 res   C52      52      0.000     36.000
     53 TP1       1 res   C53      53      0.000     36.000
     54 TN6       1 res   C54      54      0.000     36.000
     55 SN4a      1 res   C55      55      0.000     54.000
     56 TN3r      1 res   C56      56      0.000     36.000
     57 TN4a      1 res   C57      57      0.000     36.000
     58 TC4       1 res   C58      58      0.000     36.000
     59 TN6       1 res   C59      59      0.000     36.000
     60 TN6       1 res   C60      60      0.000     36.000
     61 TN6       1 res   C61      61      0.000     36.000
     62 SN4a      1 res   C62      62      0.000     54.000
     63 TP1       1 res   C63      63      0.000     36.000
     64 TN6       1 res   C64      64      0.000     36.000
     65 TN6       1 res   C65      65      0.000     36.000
     66 TN6       1 res   C66      66      0.000     36.000
     67 TN6       1 res   C67      67      0.000     36.000
     68 TN6       1 res   C68      68      0.000     36.000
     69 TN6       1 res   C69      69      0.000     36.000
     70 TN6       1 res   C70      70      0.000     36.000

[ bonds ]
;  ai    aj   funct      b0(nm)        k
    1     2     1      0.33590    20000
    1    70     1      0.34350    20000
    2     3     1      0.30137    20000
    3     4     1      0.25691    20000
    3    70     1      0.27581    20000
    4     5     1      0.39499    20000
    5     6     1      0.27791    20000
    5    54     1      0.27878    20000
    5    55     1      0.31325    20000
    6     7     1      0.21548    20000
    6    52     1      0.26612    20000
    7     8     1      0.30383    20000
    7    51     1      0.24687    20000
    8     9     1      0.22201    20000
    8    10     1      0.27225    20000
   10    11     1      0.30572    20000
   10    51     1      0.23594    20000
   11    12     1      0.29966    20000
   11    50     1      0.27482    20000
   12    13     1      0.28104    20000
   13    14     1      0.27913    20000
   13    50     1      0.21603    20000
   14    15     1      0.28118    20000
   14    17     1      0.23458    20000
   15    16     1      0.26967    20000
   16    17     1      0.30729    20000
   17    18     1      0.22446    20000
   18    19     1      0.21497    20000
   18    49     1      0.22056    20000
   19    20     1      0.29515    20000
   19    47     1      0.26782    20000
   20    21     1      0.26480    20000
   20    46     1      0.32850    20000
   21    22     1      0.28189    20000
   21    23     1      0.28657    20000
   21    46     1      0.37552    20000
   22    23     1      0.31534    20000
   23    24     1      0.34124    20000
   23    25     1      0.34323    20000
   24    25     1      0.29567    20000
   25    26     1      0.39046    20000
   25    45     1      0.30819    20000
   26    27     1      0.28158    20000
   26    28     1      0.27141    20000
   26    29     1      0.35270    20000
   26    45     1      0.33209    20000
   27    28     1      0.29436    20000
   29    30     1      0.23766    20000
   30    31     1      0.30107    20000
   30    42     1      0.31319    20000
   30    44     1      0.25806    20000
   31    32     1      0.29123    20000
   32    33     1      0.29633    20000
   32    34     1      0.27375    20000
   32    41     1      0.26628    20000
   34    35     1      0.20955    20000
   34    40     1      0.24344    20000
   35    36     1      0.29630    20000
   35    39     1      0.22938    20000
   36    37     1      0.24910    20000
   37    38     1      0.26693    20000
   38    39     1      0.21525    20000
   40    41     1      0.26289    20000
   42    43     1      0.23864    20000
   43    44     1      0.21301    20000
   47    48     1      0.25231    20000
   48    49     1      0.24535    20000
   52    53     1      0.22258    20000
   52    54     1      0.24991    20000
   55    56     1      0.28605    20000
   55    67     1      0.30222    20000
   55    69     1      0.26921    20000
   56    57     1      0.23780    20000
   57    58     1      0.29400    20000
   57    61     1      0.22543    20000
   58    59     1      0.24660    20000
   59    60     1      0.23335    20000
   60    61     1      0.23845    20000
   61    62     1      0.30124    20000
   62    63     1      0.26198    20000
   62    64     1      0.30271    20000
   62    66     1      0.24562    20000
   64    65     1      0.21237    20000
   65    66     1      0.22080    20000
   67    68     1      0.24830    20000
   68    69     1      0.22988    20000
