[ moleculetype ]
; name        nrexcl
res           1

[ atoms ]
;    nr  type resnr resid  atom  cgnr     charge       mass
      1 TC4       1 res   C1        1      0.000     36.000
      2 TN6       1 res   C2        2      0.000     36.000
      3 SN6       1 res   C3        3      0.000     54.000
      4 SC4       1 res   C4        4      0.000     54.000
      5 TC3       1 res   C5        5      0.000     36.000
      6 SC4       1 res   C6        6      0.000     54.000
      7 TC5       1 res   C7        7      0.000     36.000
      8 SC4       1 res   C8        8      0.000     54.000
      9 SC5       1 res   C9        9      0.000     54.000
     10 SC4       1 res   C10      10      0.000     54.000
     11 TC3       1 res   C11      11      0.000     36.000
     12 SP2       1 res   C12      12      0.000     54.000
     13 TC3       1 res   C13      13      0.000     36.000

[ bonds ]
;  ai    aj   funct      b0(nm)        k
    1     2     1      0.25432    20000
    1     4     1      0.34221    20000
    2     3     1      0.28961    20000
    3     4     1      0.31970    20000
    4     5     1      0.37590    20000
    4     6     1      0.34292    20000
    5     6     1      0.27856    20000
    6     7     1      0.35539    20000
    6     8     1      0.34678    20000
    7     8     1      0.30386    20000
    8     9     1      0.36512    20000
    8    13     1      0.27258    20000
    9    10     1      0.27043    20000
    9    11     1      0.28549    20000
    9    12     1      0.38108    20000
    9    13     1      0.37869    20000
   10    11     1      0.29007    20000
