[ moleculetype ]
; name        nrexcl
res           1

[ atoms ]
;    nr  type resnr resid  atom  cgnr     charge       mass
      1 TC4       1 res   C1        1      0.000     36.000
      2 SC4       1 res   C2        2      0.000     54.000
      3 TC5       1 res   C3        3      0.000     36.000
      4 TN2a      1 res   C4        4      0.000     36.000
      5 SN6       1 res   C5        5      0.000     54.000
      6 TC3       1 res   C6        6      0.000     36.000
      7 TN6       1 res   C7        7      0.000     36.000
      8 TC3       1 res   C8        8      0.000     36.000

[ bonds ]
;  ai    aj   funct      b0(nm)        k
    1     2     1      0.44130    20000
    1     8     1      0.32337    20000
    2     3     1      0.29648    20000
    2     6     1      0.28017    20000
    2     7     1      0.25558    20000
    3     4     1      0.17924    20000
    3     5     1      0.26618    20000
    3     6     1      0.24173    20000
    4     5     1      0.28565    20000
    7     8     1      0.28063    20000
