[ moleculetype ]
; name        nrexcl
res           1

[ atoms ]
;    nr  type  resnr resid  atom  cgnr     charge       mass
      1 TC4       1 res   C1        1      0.000     36.000
      2 SN6       1 res   C2        2      0.000     54.000
      3 SN5a      1 res   C3        3      0.000     54.000
      4 SC5       1 res   C4        4      0.000     54.000
      5 N4a       1 res   C5        5      0.000     72.000
      6 TC5       1 res   C6        6      0.000     36.000
      7 TC5       1 res   C7        7      0.000     36.000
      8 TC5       1 res   C8        8      0.000     36.000
      9 TN6       1 res   C9        9      0.000     36.000
     10 SN4a      1 res   C10      10      0.000     54.000
     11 N4a       1 res   C11      11      0.000     72.000
     12 TC5       1 res   C12      12      0.000     36.000
     13 SP4       1 res   C13      13      0.000     54.000
     14 SN6       1 res   C14      14      0.000     54.000
     15 SP4       1 res   C15      15      0.000     54.000
     16 TN6       1 res   C16      16      0.000     36.000

[ constraints ]
;  ai    aj   funct      b0(nm)
    4     5     1      0.26895
   13    14     1      0.33145
    6     8     1      0.29778
    1     3     1      0.35839
    9    10     1      0.28540
   10    15     1      0.23196
    1     9     1      0.26267
    2     4     1      0.27974
    5     6     1      0.35084
    6     7     1      0.25598
   15    16     1      0.28737
    1     2     1      0.36505
    2     3     1      0.28657
   11    12     1      0.35235
   12    14     1      0.33389
    7     8     1      0.28760
    4     9     1      0.22462
   10    16     1      0.27011
    3     4     1      0.31885
   12    13     1      0.28181

[ bonds ]
;  ai    aj   funct      b0(nm)          k(kJ/mol/nm^2)
   10    11     1      0.29959          11722.2

[ angles ]
;  ai    aj    ak  funct     th0(deg)        k(kJ/mol/rad^2)
    1     2     3     1     65.42819          3305.14
    1     2     4     1     73.77037          3117.88
    1     3     2     1     67.91803          1571.26
    1     3     4     1     70.67461          4061.08
    1     9     4     1    107.28823          1390.34
    1     9    10     1     83.23724           351.28
    2     1     3     1     46.65368          3178.57
    2     1     9     1     74.36668          2487.95
    2     3     4     1     54.72112          2084.69
    2     4     3     1     56.75998          2062.54
    2     4     5     1    131.45001           981.26
    2     4     9     1    100.04981          1988.16
    3     1     9     1     58.06374          4884.99
    3     2     4     1     68.51874          2831.80
    3     4     5     1     78.53487          2237.76
    3     4     9     1     67.75073          3666.58
    4     5     6     1     85.81469           138.12
    4     9    10     1    107.81829           316.55
    5     4     9     1     76.57856          1287.06
    5     6     7     1    145.09722          1144.34
    5     6     8     1     83.65859          1242.96
    6     7     8     1     66.13923          6632.97
    6     8     7     1     51.82358         10249.54
    7     6     8     1     62.03719          7444.73
    9    10    11     1    139.25648           376.43
    9    10    15     1    126.49881           468.33
    9    10    16     1     64.97549           999.46
   10    11    12     1    130.95911           195.94
   10    15    16     1     61.66162           657.93
   10    16    15     1     48.99880          2458.63
   11    10    15     1     87.29483           577.89
   11    10    16     1    152.41124           473.99
   11    12    13     1    153.71538          1076.96
   11    12    14     1     89.89768          1131.87
   12    13    14     1     65.39453          8374.83
   12    14    13     1     50.11628         10464.05
   13    12    14     1     64.48915          9058.47
   15    10    16     1     69.33904           963.31

[ dihedrals ]
;  ai    aj    ak    al  funct   phi0(deg)        k(kJ/mol)   mult
    1     2     3     4     1    -97.09428        4.001      1
    1     2     4     3     1    109.10346        3.990      1
    1     2     4     5     1     85.90075        7.807      1
    1     2     4     9     1    165.05589        5.532      1
    1     3     2     4     1     97.09428        4.001      1
    1     3     4     2     1   -104.00305        4.823      1
    1     3     4     5     1     57.86692        6.243      1
    1     3     4     9     1    136.02557        4.771      1
    1     9     4     2     1   -159.96344        7.770      1
    1     9     4     3     1   -111.05451        5.515      1
    1     9     4     5     1    -28.99061        7.026      1
    1     9    10    11     1   -119.13398       21.511      1
    1     9    10    15     1     21.12455       21.027      1
    1     9    10    16     1     58.12417       17.732      1
    2     1     3     4     1    121.27261        5.486      1
    2     1     9     4     1    164.02186        6.279      1
    2     1     9    10     1     56.65006       11.420      1
    2     3     1     9     1    -81.00873        5.563      1
    2     3     4     5     1    -20.90858        7.021      1
    2     3     4     9     1     60.03256        6.284      1
    2     4     5     6     1     29.03362       15.642      1
    2     4     9    10     1    -71.00826       10.067      1
    3     1     2     4     1   -106.98578        4.038      1
    3     1     9     4     1    115.99287        4.727      1
    3     1     9    10     1      8.06989       10.690      1
    3     2     1     9     1    119.96566        4.798      1
    3     2     4     5     1    153.97529        7.811      1
    3     2     4     9     1   -125.94143        4.795      1
    3     4     5     6     1      5.10146       14.318      1
    3     4     9    10     1    -23.02158        8.619      1
    4     2     1     9     1   -167.03341        5.495      1
    4     3     1     9     1   -139.99322        3.260      1
    4     5     6     7     1     76.75003       25.898      1
    4     5     6     8     1     79.23834       25.165      1
    4     9    10    11     1    135.63430       20.426      1
    4     9    10    15     1    -85.12653       18.391      1
    4     9    10    16     1    -48.85588       15.719      1
    5     4     9    10     1     59.96059        9.361      1
    5     6     7     8     1   -178.46256       18.419      1
    5     6     8     7     1      1.94204       12.213      1
    6     5     4     9     1    -62.87732       15.691      1
    9    10    11    12     1     13.64435       22.657      1
    9    10    15    16     1   -148.99572       14.325      1
    9    10    16    15     1     27.24051       12.918      1
   10    11    12    13     1     69.25286       23.105      1
   10    11    12    14     1     73.35783       22.786      1
   11    10    15    16     1      6.07251       20.427      1
   11    10    16    15     1   -167.29050       28.423      1
   11    12    13    14     1   -176.42072       20.234      1
   11    12    14    13     1      0.60348       11.440      1
   12    11    10    15     1   -136.94411       17.664      1
   12    11    10    16     1   -151.32306       23.148      1
