Generated with MDTraj, t= 0.0
 50
    1UNL     C1    1   0.262  -0.255   0.208
    1UNL     C2    2   0.118  -0.250   0.177
    1UNL     C3    3   0.064  -0.180   0.078
    1UNL     C4    4  -0.085  -0.181   0.057
    1UNL     N1    5  -0.126  -0.195  -0.091
    1UNL     C5    6  -0.099  -0.336  -0.136
    1UNL     C6    7  -0.277  -0.165  -0.109
    1UNL     C7    8  -0.319  -0.017  -0.123
    1UNL     C8    9  -0.206   0.077  -0.094
    1UNL     C9   10  -0.076   0.039  -0.117
    1UNL     N2   11   0.010   0.114  -0.037
    1UNL    C10   12  -0.067   0.212   0.026
    1UNL    C11   13  -0.031   0.312   0.118
    1UNL    C12   14  -0.130   0.388   0.174
    1UNL    C13   15  -0.265   0.367   0.141
    1UNL    C14   16  -0.302   0.269   0.053
    1UNL    C15   17  -0.202   0.191  -0.007
    1UNL    C16   18   0.135   0.058   0.019
    1UNL    C17   19   0.253   0.139  -0.029
    1UNL     O1   20   0.305   0.112  -0.135
    1UNL     O2   21   0.292   0.240   0.053
    1UNL    C18   22   0.399   0.308  -0.004
    1UNL    C19   23   0.149  -0.093  -0.014
    1UNL    C20   24   0.108  -0.119  -0.160
    1UNL    C21   25  -0.043  -0.094  -0.174
    1UNL     H1   26   0.283  -0.313   0.298
    1UNL     H2   27   0.319  -0.300   0.127
    1UNL     H3   28   0.302  -0.154   0.224
    1UNL     H4   29   0.051  -0.309   0.239
    1UNL     H5   30  -0.128  -0.089   0.097
    1UNL     H6   31  -0.130  -0.263   0.113
    1UNL     H7   32  -0.167  -0.405  -0.086
    1UNL     H8   33   0.002  -0.366  -0.112
    1UNL     H9   34  -0.114  -0.345  -0.244
    1UNL    H10   35  -0.312  -0.222  -0.196
    1UNL    H11   36  -0.328  -0.211  -0.024
    1UNL    H12   37  -0.355   0.004  -0.224
    1UNL    H13   38  -0.403   0.006  -0.057
    1UNL    H14   39   0.073   0.327   0.141
    1UNL    H15   40  -0.104   0.466   0.244
    1UNL    H16   41  -0.340   0.428   0.188
    1UNL    H17   42  -0.405   0.251   0.029
    1UNL    H18   43   0.128   0.070   0.128
    1UNL    H19   44   0.432   0.387   0.063
    1UNL    H20   45   0.481   0.237  -0.021
    1UNL    H21   46   0.368   0.350  -0.100
    1UNL    H22   47   0.255  -0.120  -0.002
    1UNL    H23   48   0.163  -0.050  -0.226
    1UNL    H24   49   0.135  -0.220  -0.192
    1UNL    H25   50  -0.075  -0.100  -0.278
   0.00000   0.00000   0.00000   0.00000   0.00000   0.00000   0.00000   0.00000   0.00000
Generated with MDTraj, t= 1.0
 50
    1UNL     C1    1   0.242  -0.245   0.242
    1UNL     C2    2   0.099  -0.254   0.181
    1UNL     C3    3   0.059  -0.174   0.078
    1UNL     C4    4  -0.089  -0.179   0.044
    1UNL     N1    5  -0.120  -0.197  -0.102
    1UNL     C5    6  -0.085  -0.332  -0.150
    1UNL     C6    7  -0.264  -0.172  -0.144
    1UNL     C7    8  -0.320  -0.042  -0.080
    1UNL     C8    9  -0.217   0.067  -0.080
    1UNL     C9   10  -0.081   0.041  -0.118
    1UNL     N2   11  -0.001   0.122  -0.049
    1UNL    C10   12  -0.079   0.218   0.014
    1UNL    C11   13  -0.034   0.333   0.085
    1UNL    C12   14  -0.132   0.401   0.158
    1UNL    C13   15  -0.265   0.367   0.153
    1UNL    C14   16  -0.311   0.259   0.085
    1UNL    C15   17  -0.215   0.181   0.011
    1UNL    C16   18   0.132   0.073   0.008
    1UNL    C17   19   0.259   0.136  -0.042
    1UNL     O1   20   0.292   0.130  -0.159
    1UNL     O2   21   0.319   0.214   0.054
    1UNL    C18   22   0.431   0.284   0.002
    1UNL    C19   23   0.151  -0.083   0.001
    1UNL    C20   24   0.121  -0.113  -0.154
    1UNL    C21   25  -0.033  -0.089  -0.170
    1UNL     H1   26   0.251  -0.310   0.332
    1UNL     H2   27   0.309  -0.308   0.179
    1UNL     H3   28   0.264  -0.143   0.264
    1UNL     H4   29   0.031  -0.321   0.233
    1UNL     H5   30  -0.144  -0.099   0.088
    1UNL     H6   31  -0.119  -0.270   0.098
    1UNL     H7   32  -0.148  -0.405  -0.101
    1UNL     H8   33   0.020  -0.362  -0.123
    1UNL     H9   34  -0.093  -0.339  -0.255
    1UNL    H10   35  -0.275  -0.151  -0.251
    1UNL    H11   36  -0.330  -0.253  -0.117
    1UNL    H12   37  -0.401  -0.005  -0.139
    1UNL    H13   38  -0.366  -0.064   0.017
    1UNL    H14   39   0.071   0.344   0.097
    1UNL    H15   40  -0.110   0.475   0.227
    1UNL    H16   41  -0.336   0.425   0.210
    1UNL    H17   42  -0.413   0.217   0.101
    1UNL    H18   43   0.127   0.109   0.109
    1UNL    H19   44   0.529   0.250   0.042
    1UNL    H20   45   0.435   0.271  -0.108
    1UNL    H21   46   0.417   0.385   0.037
    1UNL    H22   47   0.249  -0.109   0.040
    1UNL    H23   48   0.184  -0.031  -0.212
    1UNL    H24   49   0.149  -0.208  -0.188
    1UNL    H25   50  -0.070  -0.087  -0.273
   0.00000   0.00000   0.00000   0.00000   0.00000   0.00000   0.00000   0.00000   0.00000
Generated with MDTraj, t= 2.0
 50
    1UNL     C1    1   0.254  -0.193   0.236
    1UNL     C2    2   0.112  -0.219   0.194
    1UNL     C3    3   0.063  -0.174   0.078
    1UNL     C4    4  -0.080  -0.203   0.043
    1UNL     N1    5  -0.120  -0.205  -0.105
    1UNL     C5    6  -0.098  -0.329  -0.167
    1UNL     C6    7  -0.270  -0.174  -0.109
    1UNL     C7    8  -0.327  -0.023  -0.116
    1UNL     C8    9  -0.213   0.070  -0.080
    1UNL     C9   10  -0.082   0.032  -0.105
    1UNL     N2   11   0.003   0.109  -0.032
    1UNL    C10   12  -0.076   0.207   0.032
    1UNL    C11   13  -0.037   0.314   0.108
    1UNL    C12   14  -0.134   0.396   0.155
    1UNL    C13   15  -0.272   0.362   0.142
    1UNL    C14   16  -0.316   0.262   0.062
    1UNL    C15   17  -0.215   0.188  -0.002
    1UNL    C16   18   0.135   0.056   0.022
    1UNL    C17   19   0.253   0.148  -0.028
    1UNL     O1   20   0.270   0.153  -0.149
    1UNL     O2   21   0.339   0.196   0.064
    1UNL    C18   22   0.446   0.259  -0.002
    1UNL    C19   23   0.150  -0.091  -0.017
    1UNL    C20   24   0.108  -0.115  -0.162
    1UNL    C21   25  -0.037  -0.095  -0.184
    1UNL     H1   26   0.309  -0.288   0.267
    1UNL     H2   27   0.314  -0.180   0.145
    1UNL     H3   28   0.254  -0.112   0.303
    1UNL     H4   29   0.040  -0.253   0.266
    1UNL     H5   30  -0.127  -0.124   0.096
    1UNL     H6   31  -0.109  -0.295   0.097
    1UNL     H7   32  -0.166  -0.398  -0.117
    1UNL     H8   33   0.005  -0.367  -0.137
    1UNL     H9   34  -0.104  -0.328  -0.272
    1UNL    H10   35  -0.307  -0.211  -0.206
    1UNL    H11   36  -0.331  -0.218  -0.034
    1UNL    H12   37  -0.374  -0.008  -0.206
    1UNL    H13   38  -0.409   0.004  -0.046
    1UNL    H14   39   0.065   0.347   0.135
    1UNL    H15   40  -0.098   0.493   0.211
    1UNL    H16   41  -0.346   0.420   0.198
    1UNL    H17   42  -0.414   0.242   0.042
    1UNL    H18   43   0.128   0.072   0.127
    1UNL    H19   44   0.467   0.223  -0.110
    1UNL    H20   45   0.409   0.362  -0.026
    1UNL    H21   46   0.531   0.256   0.064
    1UNL    H22   47   0.254  -0.117  -0.004
    1UNL    H23   48   0.168  -0.028  -0.219
    1UNL    H24   49   0.140  -0.209  -0.191
    1UNL    H25   50  -0.071  -0.070  -0.284
   0.00000   0.00000   0.00000   0.00000   0.00000   0.00000   0.00000   0.00000   0.00000
Generated with MDTraj, t= 3.0
 50
    1UNL     C1    1   0.254  -0.162   0.229
    1UNL     C2    2   0.124  -0.212   0.185
    1UNL     C3    3   0.074  -0.184   0.063
    1UNL     C4    4  -0.077  -0.196   0.047
    1UNL     N1    5  -0.121  -0.201  -0.099
    1UNL     C5    6  -0.090  -0.343  -0.142
    1UNL     C6    7  -0.273  -0.164  -0.096
    1UNL     C7    8  -0.314  -0.021  -0.120
    1UNL     C8    9  -0.207   0.082  -0.105
    1UNL     C9   10  -0.076   0.036  -0.111
    1UNL     N2   11  -0.001   0.102  -0.015
    1UNL    C10   12  -0.075   0.204   0.041
    1UNL    C11   13  -0.047   0.294   0.139
    1UNL    C12   14  -0.149   0.379   0.188
    1UNL    C13   15  -0.275   0.375   0.129
    1UNL    C14   16  -0.311   0.284   0.035
    1UNL    C15   17  -0.203   0.195  -0.012
    1UNL    C16   18   0.138   0.047   0.020
    1UNL    C17   19   0.247   0.139  -0.042
    1UNL     O1   20   0.245   0.182  -0.156
    1UNL     O2   21   0.338   0.167   0.059
    1UNL    C18   22   0.438   0.244   0.009
    1UNL    C19   23   0.157  -0.097  -0.027
    1UNL    C20   24   0.109  -0.119  -0.175
    1UNL    C21   25  -0.039  -0.096  -0.178
    1UNL     H1   26   0.278  -0.196   0.335
    1UNL     H2   27   0.330  -0.220   0.176
    1UNL     H3   28   0.267  -0.060   0.212
    1UNL     H4   29   0.056  -0.255   0.256
    1UNL     H5   30  -0.136  -0.131   0.107
    1UNL     H6   31  -0.096  -0.293   0.098
    1UNL     H7   32  -0.163  -0.405  -0.091
    1UNL     H8   33   0.010  -0.386  -0.119
    1UNL     H9   34  -0.101  -0.351  -0.249
    1UNL    H10   35  -0.336  -0.222  -0.167
    1UNL    H11   36  -0.317  -0.187  -0.003
    1UNL    H12   37  -0.357  -0.001  -0.211
    1UNL    H13   38  -0.404   0.004  -0.060
    1UNL    H14   39   0.054   0.302   0.169
    1UNL    H15   40  -0.135   0.444   0.264
    1UNL    H16   41  -0.337   0.456   0.155
    1UNL    H17   42  -0.406   0.302  -0.025
    1UNL    H18   43   0.143   0.062   0.125
    1UNL    H19   44   0.423   0.272  -0.103
    1UNL    H20   45   0.448   0.340   0.064
    1UNL    H21   46   0.524   0.184   0.025
    1UNL    H22   47   0.261  -0.125  -0.018
    1UNL    H23   48   0.163  -0.037  -0.237
    1UNL    H24   49   0.136  -0.217  -0.215
    1UNL    H25   50  -0.077  -0.089  -0.279
   0.00000   0.00000   0.00000   0.00000   0.00000   0.00000   0.00000   0.00000   0.00000
Generated with MDTraj, t= 4.0
 50
    1UNL     C1    1   0.257  -0.230   0.229
    1UNL     C2    2   0.117  -0.234   0.193
    1UNL     C3    3   0.065  -0.170   0.089
    1UNL     C4    4  -0.080  -0.186   0.061
    1UNL     N1    5  -0.124  -0.195  -0.090
    1UNL     C5    6  -0.101  -0.344  -0.130
    1UNL     C6    7  -0.276  -0.158  -0.105
    1UNL     C7    8  -0.320  -0.022  -0.154
    1UNL     C8    9  -0.209   0.076  -0.107
    1UNL     C9   10  -0.074   0.038  -0.126
    1UNL     N2   11   0.002   0.115  -0.041
    1UNL    C10   12  -0.079   0.213   0.021
    1UNL    C11   13  -0.047   0.312   0.117
    1UNL    C12   14  -0.146   0.376   0.182
    1UNL    C13   15  -0.282   0.343   0.156
    1UNL    C14   16  -0.316   0.259   0.048
    1UNL    C15   17  -0.212   0.191  -0.019
    1UNL    C16   18   0.132   0.077   0.009
    1UNL    C17   19   0.252   0.155  -0.041
    1UNL     O1   20   0.255   0.201  -0.152
    1UNL     O2   21   0.355   0.169   0.047
    1UNL    C18   22   0.455   0.254  -0.005
    1UNL    C19   23   0.148  -0.077   0.001
    1UNL    C20   24   0.119  -0.116  -0.145
    1UNL    C21   25  -0.037  -0.099  -0.170
    1UNL     H1   26   0.262  -0.239   0.341
    1UNL     H2   27   0.322  -0.310   0.188
    1UNL     H3   28   0.312  -0.148   0.191
    1UNL     H4   29   0.050  -0.290   0.261
    1UNL     H5   30  -0.138  -0.119   0.121
    1UNL     H6   31  -0.116  -0.285   0.097
    1UNL     H7   32  -0.169  -0.415  -0.081
    1UNL     H8   33  -0.002  -0.373  -0.115
    1UNL     H9   34  -0.114  -0.346  -0.240
    1UNL    H10   35  -0.335  -0.234  -0.160
    1UNL    H11   36  -0.315  -0.162  -0.008
    1UNL    H12   37  -0.348  -0.016  -0.253
    1UNL    H13   38  -0.417   0.018  -0.116
    1UNL    H14   39   0.054   0.337   0.152
    1UNL    H15   40  -0.119   0.443   0.265
    1UNL    H16   41  -0.362   0.388   0.219
    1UNL    H17   42  -0.413   0.235   0.016
    1UNL    H18   43   0.121   0.107   0.110
    1UNL    H19   44   0.412   0.342  -0.067
    1UNL    H20   45   0.528   0.286   0.068
    1UNL    H21   46   0.504   0.190  -0.072
    1UNL    H22   47   0.252  -0.101   0.012
    1UNL    H23   48   0.187  -0.056  -0.210
    1UNL    H24   49   0.153  -0.224  -0.170
    1UNL    H25   50  -0.053  -0.122  -0.273
   0.00000   0.00000   0.00000   0.00000   0.00000   0.00000   0.00000   0.00000   0.00000
Generated with MDTraj, t= 5.0
 50
    1UNL     C1    1   0.248  -0.274   0.207
    1UNL     C2    2   0.109  -0.238   0.185
    1UNL     C3    3   0.058  -0.152   0.094
    1UNL     C4    4  -0.085  -0.149   0.067
    1UNL     N1    5  -0.111  -0.183  -0.089
    1UNL     C5    6  -0.075  -0.328  -0.096
    1UNL     C6    7  -0.261  -0.171  -0.126
    1UNL     C7    8  -0.320  -0.020  -0.128
    1UNL     C8    9  -0.204   0.076  -0.113
    1UNL     C9   10  -0.074   0.053  -0.132
    1UNL     N2   11   0.000   0.126  -0.037
    1UNL    C10   12  -0.084   0.208   0.027
    1UNL    C11   13  -0.053   0.316   0.105
    1UNL    C12   14  -0.159   0.379   0.167
    1UNL    C13   15  -0.296   0.339   0.146
    1UNL    C14   16  -0.324   0.244   0.057
    1UNL    C15   17  -0.216   0.182  -0.014
    1UNL    C16   18   0.131   0.079   0.023
    1UNL    C17   19   0.251   0.146  -0.035
    1UNL     O1   20   0.256   0.170  -0.153
    1UNL     O2   21   0.357   0.176   0.049
    1UNL    C18   22   0.459   0.240  -0.022
    1UNL    C19   23   0.155  -0.080   0.002
    1UNL    C20   24   0.120  -0.100  -0.147
    1UNL    C21   25  -0.032  -0.085  -0.175
    1UNL     H1   26   0.255  -0.383   0.231
    1UNL     H2   27   0.329  -0.239   0.140
    1UNL     H3   28   0.289  -0.221   0.292
    1UNL     H4   29   0.047  -0.281   0.262
    1UNL     H5   30  -0.128  -0.052   0.070
    1UNL     H6   31  -0.148  -0.199   0.143
    1UNL     H7   32  -0.136  -0.377  -0.021
    1UNL     H8   33   0.026  -0.336  -0.076
    1UNL     H9   34  -0.091  -0.370  -0.200
    1UNL    H10   35  -0.293  -0.217  -0.223
    1UNL    H11   36  -0.314  -0.221  -0.052
    1UNL    H12   37  -0.395   0.015  -0.194
    1UNL    H13   38  -0.379  -0.002  -0.037
    1UNL    H14   39   0.051   0.331   0.125
    1UNL    H15   40  -0.140   0.467   0.237
    1UNL    H16   41  -0.378   0.382   0.194
    1UNL    H17   42  -0.427   0.209   0.050
    1UNL    H18   43   0.136   0.096   0.127
    1UNL    H19   44   0.485   0.346   0.016
    1UNL    H20   45   0.538   0.169  -0.032
    1UNL    H21   46   0.419   0.259  -0.116
    1UNL    H22   47   0.257  -0.107   0.014
    1UNL    H23   48   0.178  -0.049  -0.225
    1UNL    H24   49   0.154  -0.216  -0.160
    1UNL    H25   50  -0.040  -0.109  -0.278
   0.00000   0.00000   0.00000   0.00000   0.00000   0.00000   0.00000   0.00000   0.00000
Generated with MDTraj, t= 6.0
 50
    1UNL     C1    1   0.259  -0.278   0.206
    1UNL     C2    2   0.112  -0.264   0.175
    1UNL     C3    3   0.063  -0.166   0.096
    1UNL     C4    4  -0.082  -0.171   0.065
    1UNL     N1    5  -0.113  -0.189  -0.089
    1UNL     C5    6  -0.073  -0.339  -0.131
    1UNL     C6    7  -0.261  -0.172  -0.114
    1UNL     C7    8  -0.314  -0.027  -0.107
    1UNL     C8    9  -0.211   0.079  -0.102
    1UNL     C9   10  -0.075   0.045  -0.113
    1UNL     N2   11   0.003   0.116  -0.026
    1UNL    C10   12  -0.083   0.217   0.028
    1UNL    C11   13  -0.061   0.318   0.132
    1UNL    C12   14  -0.166   0.393   0.177
    1UNL    C13   15  -0.295   0.369   0.126
    1UNL    C14   16  -0.320   0.270   0.028
    1UNL    C15   17  -0.214   0.198  -0.021
    1UNL    C16   18   0.135   0.081   0.028
    1UNL    C17   19   0.247   0.150  -0.041
    1UNL     O1   20   0.263   0.151  -0.160
    1UNL     O2   21   0.338   0.209   0.040
    1UNL    C18   22   0.455   0.240  -0.024
    1UNL    C19   23   0.147  -0.077   0.008
    1UNL    C20   24   0.126  -0.108  -0.138
    1UNL    C21   25  -0.032  -0.086  -0.163
    1UNL     H1   26   0.288  -0.341   0.289
    1UNL     H2   27   0.327  -0.296   0.120
    1UNL     H3   28   0.296  -0.179   0.235
    1UNL     H4   29   0.043  -0.325   0.234
    1UNL     H5   30  -0.135  -0.096   0.120
    1UNL     H6   31  -0.132  -0.265   0.096
    1UNL     H7   32  -0.155  -0.406  -0.109
    1UNL     H8   33   0.017  -0.374  -0.083
    1UNL     H9   34  -0.042  -0.340  -0.238
    1UNL    H10   35  -0.297  -0.217  -0.211
    1UNL    H11   36  -0.317  -0.230  -0.047
    1UNL    H12   37  -0.387   0.003  -0.180
    1UNL    H13   38  -0.380  -0.014  -0.021
    1UNL    H14   39   0.037   0.338   0.172
    1UNL    H15   40  -0.151   0.471   0.236
    1UNL    H16   41  -0.375   0.441   0.152
    1UNL    H17   42  -0.413   0.233  -0.017
    1UNL    H18   43   0.143   0.106   0.130
    1UNL    H19   44   0.545   0.210   0.041
    1UNL    H20   45   0.448   0.186  -0.114
    1UNL    H21   46   0.456   0.345  -0.028
    1UNL    H22   47   0.248  -0.098   0.031
    1UNL    H23   48   0.191  -0.044  -0.201
    1UNL    H24   49   0.150  -0.218  -0.170
    1UNL    H25   50  -0.048  -0.093  -0.267
   0.00000   0.00000   0.00000   0.00000   0.00000   0.00000   0.00000   0.00000   0.00000
Generated with MDTraj, t= 7.0
 50
    1UNL     C1    1   0.266  -0.243   0.214
    1UNL     C2    2   0.124  -0.253   0.180
    1UNL     C3    3   0.072  -0.188   0.073
    1UNL     C4    4  -0.082  -0.202   0.059
    1UNL     N1    5  -0.125  -0.205  -0.088
    1UNL     C5    6  -0.098  -0.350  -0.144
    1UNL     C6    7  -0.273  -0.169  -0.108
    1UNL     C7    8  -0.304  -0.021  -0.143
    1UNL     C8    9  -0.203   0.071  -0.090
    1UNL     C9   10  -0.074   0.028  -0.094
    1UNL     N2   11   0.003   0.109  -0.009
    1UNL    C10   12  -0.072   0.214   0.043
    1UNL    C11   13  -0.044   0.323   0.124
    1UNL    C12   14  -0.144   0.415   0.151
    1UNL    C13   15  -0.277   0.390   0.117
    1UNL    C14   16  -0.306   0.280   0.043
    1UNL    C15   17  -0.204   0.193  -0.005
    1UNL    C16   18   0.136   0.056   0.031
    1UNL    C17   19   0.245   0.141  -0.035
    1UNL     O1   20   0.257   0.152  -0.155
    1UNL     O2   21   0.327   0.201   0.055
    1UNL    C18   22   0.417   0.299   0.001
    1UNL    C19   23   0.159  -0.091  -0.011
    1UNL    C20   24   0.112  -0.118  -0.156
    1UNL    C21   25  -0.042  -0.097  -0.169
    1UNL     H1   26   0.286  -0.262   0.317
    1UNL     H2   27   0.335  -0.301   0.151
    1UNL     H3   28   0.287  -0.134   0.201
    1UNL     H4   29   0.055  -0.276   0.260
    1UNL     H5   30  -0.136  -0.119   0.104
    1UNL     H6   31  -0.112  -0.288   0.118
    1UNL     H7   32  -0.168  -0.416  -0.097
    1UNL     H8   33   0.002  -0.401  -0.134
    1UNL     H9   34  -0.114  -0.349  -0.250
    1UNL    H10   35  -0.319  -0.230  -0.190
    1UNL    H11   36  -0.330  -0.204  -0.026
    1UNL    H12   37  -0.301  -0.015  -0.253
    1UNL    H13   38  -0.400   0.024  -0.126
    1UNL    H14   39   0.062   0.328   0.141
    1UNL    H15   40  -0.112   0.511   0.206
    1UNL    H16   41  -0.361   0.448   0.140
    1UNL    H17   42  -0.407   0.272   0.009
    1UNL    H18   43   0.139   0.066   0.136
    1UNL    H19   44   0.504   0.250  -0.056
    1UNL    H20   45   0.354   0.335  -0.076
    1UNL    H21   46   0.451   0.376   0.067
    1UNL    H22   47   0.261  -0.110   0.001
    1UNL    H23   48   0.150  -0.031  -0.218
    1UNL    H24   49   0.146  -0.206  -0.203
    1UNL    H25   50  -0.082  -0.090  -0.267
   0.00000   0.00000   0.00000   0.00000   0.00000   0.00000   0.00000   0.00000   0.00000
Generated with MDTraj, t= 8.0
 50
    1UNL     C1    1   0.266  -0.220   0.240
    1UNL     C2    2   0.129  -0.234   0.189
    1UNL     C3    3   0.071  -0.181   0.078
    1UNL     C4    4  -0.073  -0.198   0.052
    1UNL     N1    5  -0.124  -0.211  -0.091
    1UNL     C5    6  -0.119  -0.348  -0.158
    1UNL     C6    7  -0.273  -0.177  -0.093
    1UNL     C7    8  -0.323  -0.022  -0.097
    1UNL     C8    9  -0.208   0.077  -0.103
    1UNL     C9   10  -0.081   0.030  -0.120
    1UNL     N2   11   0.014   0.099  -0.044
    1UNL    C10   12  -0.064   0.207   0.013
    1UNL    C11   13  -0.020   0.300   0.110
    1UNL    C12   14  -0.107   0.392   0.155
    1UNL    C13   15  -0.243   0.385   0.117
    1UNL    C14   16  -0.292   0.284   0.038
    1UNL    C15   17  -0.200   0.196  -0.021
    1UNL    C16   18   0.136   0.040   0.017
    1UNL    C17   19   0.240   0.142  -0.021
    1UNL     O1   20   0.269   0.147  -0.138
    1UNL     O2   21   0.292   0.229   0.076
    1UNL    C18   22   0.380   0.315   0.023
    1UNL    C19   23   0.151  -0.101  -0.026
    1UNL    C20   24   0.109  -0.120  -0.170
    1UNL    C21   25  -0.043  -0.104  -0.177
    1UNL     H1   26   0.292  -0.292   0.313
    1UNL     H2   27   0.341  -0.211   0.162
    1UNL     H3   28   0.252  -0.124   0.300
    1UNL     H4   29   0.050  -0.256   0.262
    1UNL     H5   30  -0.114  -0.114   0.111
    1UNL     H6   31  -0.109  -0.287   0.101
    1UNL     H7   32  -0.171  -0.420  -0.096
    1UNL     H8   33  -0.016  -0.393  -0.175
    1UNL     H9   34  -0.158  -0.344  -0.255
    1UNL    H10   35  -0.304  -0.224  -0.189
    1UNL    H11   36  -0.336  -0.225  -0.022
    1UNL    H12   37  -0.388   0.002  -0.185
    1UNL    H13   38  -0.394  -0.009  -0.021
    1UNL    H14   39   0.083   0.306   0.144
    1UNL    H15   40  -0.076   0.460   0.235
    1UNL    H16   41  -0.312   0.451   0.175
    1UNL    H17   42  -0.396   0.271   0.004
    1UNL    H18   43   0.139   0.049   0.122
    1UNL    H19   44   0.341   0.358  -0.078
    1UNL    H20   45   0.368   0.394   0.095
    1UNL    H21   46   0.485   0.285   0.019
    1UNL    H22   47   0.252  -0.122  -0.020
    1UNL    H23   48   0.152  -0.040  -0.242
    1UNL    H24   49   0.133  -0.214  -0.199
    1UNL    H25   50  -0.091  -0.100  -0.272
   0.00000   0.00000   0.00000   0.00000   0.00000   0.00000   0.00000   0.00000   0.00000
Generated with MDTraj, t= 9.0
 50
    1UNL     C1    1   0.267  -0.212   0.211
    1UNL     C2    2   0.124  -0.235   0.184
    1UNL     C3    3   0.065  -0.176   0.076
    1UNL     C4    4  -0.091  -0.176   0.057
    1UNL     N1    5  -0.133  -0.199  -0.092
    1UNL     C5    6  -0.103  -0.345  -0.136
    1UNL     C6    7  -0.277  -0.179  -0.122
    1UNL     C7    8  -0.323  -0.034  -0.086
    1UNL     C8    9  -0.213   0.063  -0.082
    1UNL     C9   10  -0.085   0.031  -0.129
    1UNL     N2   11   0.005   0.122  -0.065
    1UNL    C10   12  -0.065   0.215   0.009
    1UNL    C11   13  -0.017   0.319   0.084
    1UNL    C12   14  -0.114   0.397   0.144
    1UNL    C13   15  -0.249   0.367   0.133
    1UNL    C14   16  -0.292   0.260   0.063
    1UNL    C15   17  -0.200   0.179  -0.004
    1UNL    C16   18   0.124   0.055   0.009
    1UNL    C17   19   0.263   0.136  -0.021
    1UNL     O1   20   0.340   0.102  -0.110
    1UNL     O2   21   0.274   0.238   0.067
    1UNL    C18   22   0.384   0.326   0.037
    1UNL    C19   23   0.141  -0.093  -0.023
    1UNL    C20   24   0.099  -0.128  -0.173
    1UNL    C21   25  -0.055  -0.102  -0.182
    1UNL     H1   26   0.278  -0.202   0.317
    1UNL     H2   27   0.335  -0.287   0.170
    1UNL     H3   28   0.290  -0.102   0.189
    1UNL     H4   29   0.059  -0.264   0.263
    1UNL     H5   30  -0.139  -0.084   0.098
    1UNL     H6   31  -0.119  -0.258   0.118
    1UNL     H7   32  -0.182  -0.415  -0.107
    1UNL     H8   33  -0.017  -0.388  -0.082
    1UNL     H9   34  -0.075  -0.357  -0.238
    1UNL    H10   35  -0.298  -0.187  -0.230
    1UNL    H11   36  -0.328  -0.261  -0.074
    1UNL    H12   37  -0.405  -0.005  -0.157
    1UNL    H13   38  -0.373  -0.028   0.004
    1UNL    H14   39   0.088   0.318   0.102
    1UNL    H15   40  -0.092   0.471   0.210
    1UNL    H16   41  -0.317   0.428   0.185
    1UNL    H17   42  -0.393   0.236   0.071
    1UNL    H18   43   0.102   0.058   0.113
    1UNL    H19   44   0.374   0.431   0.082
    1UNL    H20   45   0.474   0.281   0.078
    1UNL    H21   46   0.401   0.342  -0.073
    1UNL    H22   47   0.241  -0.115  -0.011
    1UNL    H23   48   0.151  -0.060  -0.247
    1UNL    H24   49   0.117  -0.227  -0.201
    1UNL    H25   50  -0.100  -0.106  -0.279
   0.00000   0.00000   0.00000   0.00000   0.00000   0.00000   0.00000   0.00000   0.00000
Generated with MDTraj, t= 10.0
 50
    1UNL     C1    1   0.263  -0.234   0.217
    1UNL     C2    2   0.123  -0.251   0.177
    1UNL     C3    3   0.063  -0.178   0.079
    1UNL     C4    4  -0.084  -0.190   0.052
    1UNL     N1    5  -0.127  -0.199  -0.096
    1UNL     C5    6  -0.092  -0.337  -0.143
    1UNL     C6    7  -0.284  -0.186  -0.102
    1UNL     C7    8  -0.328  -0.034  -0.103
    1UNL     C8    9  -0.211   0.070  -0.082
    1UNL     C9   10  -0.081   0.040  -0.123
    1UNL     N2   11   0.014   0.122  -0.065
    1UNL    C10   12  -0.066   0.223   0.004
    1UNL    C11   13  -0.032   0.342   0.078
    1UNL    C12   14  -0.131   0.403   0.151
    1UNL    C13   15  -0.265   0.361   0.148
    1UNL    C14   16  -0.306   0.256   0.070
    1UNL    C15   17  -0.201   0.185  -0.001
    1UNL    C16   18   0.132   0.067   0.007
    1UNL    C17   19   0.261   0.130  -0.017
    1UNL     O1   20   0.347   0.066  -0.073
    1UNL     O2   21   0.272   0.263   0.013
    1UNL    C18   22   0.403   0.313   0.022
    1UNL    C19   23   0.143  -0.085  -0.016
    1UNL    C20   24   0.102  -0.112  -0.161
    1UNL    C21   25  -0.054  -0.097  -0.178
    1UNL     H1   26   0.287  -0.265   0.319
    1UNL     H2   27   0.330  -0.286   0.149
    1UNL     H3   28   0.286  -0.123   0.235
    1UNL     H4   29   0.062  -0.303   0.253
    1UNL     H5   30  -0.123  -0.100   0.104
    1UNL     H6   31  -0.128  -0.272   0.101
    1UNL     H7   32  -0.140  -0.414  -0.079
    1UNL     H8   33   0.011  -0.362  -0.154
    1UNL     H9   34  -0.124  -0.343  -0.248
    1UNL    H10   35  -0.329  -0.247  -0.181
    1UNL    H11   36  -0.321  -0.224  -0.006
    1UNL    H12   37  -0.385  -0.017  -0.198
    1UNL    H13   38  -0.405  -0.026  -0.035
    1UNL    H14   39   0.067   0.384   0.090
    1UNL    H15   40  -0.097   0.499   0.208
    1UNL    H16   41  -0.339   0.427   0.193
    1UNL    H17   42  -0.415   0.234   0.062
    1UNL    H18   43   0.113   0.089   0.112
    1UNL    H19   44   0.441   0.307   0.127
    1UNL    H20   45   0.480   0.277  -0.049
    1UNL    H21   46   0.388   0.424   0.009
    1UNL    H22   47   0.245  -0.109  -0.010
    1UNL    H23   48   0.153  -0.041  -0.226
    1UNL    H24   49   0.139  -0.213  -0.202
    1UNL    H25   50  -0.080  -0.103  -0.281
   0.00000   0.00000   0.00000   0.00000   0.00000   0.00000   0.00000   0.00000   0.00000
Generated with MDTraj, t= 11.0
 50
    1UNL     C1    1   0.275  -0.261   0.210
    1UNL     C2    2   0.126  -0.245   0.180
    1UNL     C3    3   0.066  -0.179   0.080
    1UNL     C4    4  -0.085  -0.189   0.058
    1UNL     N1    5  -0.125  -0.201  -0.098
    1UNL     C5    6  -0.100  -0.345  -0.132
    1UNL     C6    7  -0.275  -0.167  -0.125
    1UNL     C7    8  -0.316  -0.021  -0.114
    1UNL     C8    9  -0.203   0.076  -0.084
    1UNL     C9   10  -0.080   0.033  -0.108
    1UNL     N2   11   0.006   0.112  -0.033
    1UNL    C10   12  -0.062   0.213   0.036
    1UNL    C11   13  -0.030   0.311   0.125
    1UNL    C12   14  -0.138   0.389   0.168
    1UNL    C13   15  -0.267   0.383   0.120
    1UNL    C14   16  -0.301   0.282   0.032
    1UNL    C15   17  -0.197   0.196  -0.012
    1UNL    C16   18   0.131   0.055   0.030
    1UNL    C17   19   0.258   0.137  -0.016
    1UNL     O1   20   0.350   0.072  -0.061
    1UNL     O2   21   0.260   0.270   0.018
    1UNL    C18   22   0.367   0.340  -0.048
    1UNL    C19   23   0.143  -0.102  -0.013
    1UNL    C20   24   0.107  -0.121  -0.162
    1UNL    C21   25  -0.045  -0.098  -0.174
    1UNL     H1   26   0.296  -0.334   0.290
    1UNL     H2   27   0.329  -0.293   0.122
    1UNL     H3   28   0.321  -0.171   0.256
    1UNL     H4   29   0.064  -0.279   0.261
    1UNL     H5   30  -0.137  -0.097   0.090
    1UNL     H6   31  -0.124  -0.266   0.121
    1UNL     H7   32  -0.169  -0.410  -0.075
    1UNL     H8   33   0.000  -0.370  -0.117
    1UNL     H9   34  -0.107  -0.354  -0.244
    1UNL    H10   35  -0.296  -0.205  -0.224
    1UNL    H11   36  -0.333  -0.227  -0.052
    1UNL    H12   37  -0.376   0.013  -0.202
    1UNL    H13   38  -0.381  -0.013  -0.033
    1UNL    H14   39   0.072   0.329   0.160
    1UNL    H15   40  -0.118   0.463   0.237
    1UNL    H16   41  -0.335   0.463   0.150
    1UNL    H17   42  -0.397   0.285  -0.011
    1UNL    H18   43   0.121   0.067   0.139
    1UNL    H19   44   0.456   0.280  -0.050
    1UNL    H20   45   0.344   0.356  -0.157
    1UNL    H21   46   0.396   0.431   0.004
    1UNL    H22   47   0.247  -0.128  -0.011
    1UNL    H23   48   0.160  -0.060  -0.231
    1UNL    H24   49   0.146  -0.229  -0.197
    1UNL    H25   50  -0.067  -0.106  -0.278
   0.00000   0.00000   0.00000   0.00000   0.00000   0.00000   0.00000   0.00000   0.00000
Generated with MDTraj, t= 12.0
 50
    1UNL     C1    1   0.243  -0.302   0.231
    1UNL     C2    2   0.102  -0.278   0.181
    1UNL     C3    3   0.071  -0.194   0.082
    1UNL     C4    4  -0.074  -0.181   0.062
    1UNL     N1    5  -0.118  -0.189  -0.091
    1UNL     C5    6  -0.089  -0.333  -0.132
    1UNL     C6    7  -0.270  -0.153  -0.118
    1UNL     C7    8  -0.307  -0.003  -0.137
    1UNL     C8    9  -0.188   0.083  -0.098
    1UNL     C9   10  -0.056   0.039  -0.108
    1UNL     N2   11   0.020   0.105  -0.015
    1UNL    C10   12  -0.055   0.210   0.036
    1UNL    C11   13  -0.025   0.308   0.130
    1UNL    C12   14  -0.126   0.392   0.171
    1UNL    C13   15  -0.257   0.378   0.123
    1UNL    C14   16  -0.289   0.280   0.034
    1UNL    C15   17  -0.184   0.197  -0.012
    1UNL    C16   18   0.141   0.053   0.042
    1UNL    C17   19   0.246   0.139  -0.018
    1UNL     O1   20   0.321   0.088  -0.100
    1UNL     O2   21   0.226   0.273   0.007
    1UNL    C18   22   0.310   0.350  -0.074
    1UNL    C19   23   0.161  -0.102  -0.001
    1UNL    C20   24   0.122  -0.128  -0.144
    1UNL    C21   25  -0.030  -0.095  -0.168
    1UNL     H1   26   0.254  -0.358   0.328
    1UNL     H2   27   0.298  -0.347   0.148
    1UNL     H3   28   0.294  -0.209   0.251
    1UNL     H4   29   0.025  -0.330   0.239
    1UNL     H5   30  -0.113  -0.098   0.121
    1UNL     H6   31  -0.125  -0.267   0.102
    1UNL     H7   32  -0.177  -0.392  -0.111
    1UNL     H8   33  -0.004  -0.367  -0.077
    1UNL     H9   34  -0.056  -0.334  -0.239
    1UNL    H10   35  -0.301  -0.210  -0.201
    1UNL    H11   36  -0.308  -0.206  -0.026
    1UNL    H12   37  -0.331   0.019  -0.243
    1UNL    H13   38  -0.388   0.029  -0.078
    1UNL    H14   39   0.073   0.317   0.169
    1UNL    H15   40  -0.105   0.455   0.259
    1UNL    H16   41  -0.327   0.445   0.163
    1UNL    H17   42  -0.393   0.271   0.000
    1UNL    H18   43   0.128   0.066   0.152
    1UNL    H19   44   0.411   0.329  -0.059
    1UNL    H20   45   0.284   0.331  -0.182
    1UNL    H21   46   0.299   0.452  -0.048
    1UNL    H22   47   0.268  -0.121  -0.003
    1UNL    H23   48   0.187  -0.074  -0.211
    1UNL    H24   49   0.138  -0.238  -0.186
    1UNL    H25   50  -0.055  -0.103  -0.272
   0.00000   0.00000   0.00000   0.00000   0.00000   0.00000   0.00000   0.00000   0.00000
Generated with MDTraj, t= 13.0
 50
    1UNL     C1    1   0.240  -0.291   0.216
    1UNL     C2    2   0.094  -0.271   0.178
    1UNL     C3    3   0.053  -0.177   0.097
    1UNL     C4    4  -0.098  -0.182   0.064
    1UNL     N1    5  -0.122  -0.194  -0.088
    1UNL     C5    6  -0.093  -0.333  -0.138
    1UNL     C6    7  -0.272  -0.150  -0.126
    1UNL     C7    8  -0.294  -0.003  -0.157
    1UNL     C8    9  -0.184   0.075  -0.089
    1UNL     C9   10  -0.050   0.035  -0.098
    1UNL     N2   11   0.022   0.106  -0.006
    1UNL    C10   12  -0.059   0.200   0.053
    1UNL    C11   13  -0.034   0.301   0.152
    1UNL    C12   14  -0.133   0.387   0.181
    1UNL    C13   15  -0.261   0.373   0.119
    1UNL    C14   16  -0.298   0.271   0.035
    1UNL    C15   17  -0.192   0.183  -0.001
    1UNL    C16   18   0.148   0.061   0.039
    1UNL    C17   19   0.250   0.143  -0.032
    1UNL     O1   20   0.313   0.088  -0.120
    1UNL     O2   21   0.250   0.280  -0.005
    1UNL    C18   22   0.335   0.351  -0.092
    1UNL    C19   23   0.158  -0.099   0.014
    1UNL    C20   24   0.138  -0.127  -0.135
    1UNL    C21   25  -0.018  -0.096  -0.163
    1UNL     H1   26   0.259  -0.379   0.285
    1UNL     H2   27   0.299  -0.307   0.125
    1UNL     H3   28   0.285  -0.215   0.273
    1UNL     H4   29   0.019  -0.324   0.232
    1UNL     H5   30  -0.148  -0.093   0.098
    1UNL     H6   31  -0.148  -0.263   0.118
    1UNL     H7   32  -0.155  -0.397  -0.079
    1UNL     H8   33   0.014  -0.359  -0.133
    1UNL     H9   34  -0.120  -0.331  -0.244
    1UNL    H10   35  -0.295  -0.223  -0.196
    1UNL    H11   36  -0.332  -0.171  -0.031
    1UNL    H12   37  -0.289   0.027  -0.262
    1UNL    H13   38  -0.388   0.030  -0.113
    1UNL    H14   39   0.057   0.307   0.212
    1UNL    H15   40  -0.117   0.463   0.260
    1UNL    H16   41  -0.345   0.444   0.149
    1UNL    H17   42  -0.395   0.253  -0.006
    1UNL    H18   43   0.145   0.081   0.149
    1UNL    H19   44   0.436   0.339  -0.076
    1UNL    H20   45   0.307   0.317  -0.195
    1UNL    H21   46   0.310   0.454  -0.081
    1UNL    H22   47   0.254  -0.140   0.047
    1UNL    H23   48   0.197  -0.070  -0.206
    1UNL    H24   49   0.156  -0.232  -0.156
    1UNL    H25   50  -0.044  -0.087  -0.266
   0.00000   0.00000   0.00000   0.00000   0.00000   0.00000   0.00000   0.00000   0.00000
Generated with MDTraj, t= 14.0
 50
    1UNL     C1    1   0.258  -0.268   0.227
    1UNL     C2    2   0.114  -0.254   0.190
    1UNL     C3    3   0.063  -0.178   0.096
    1UNL     C4    4  -0.085  -0.172   0.066
    1UNL     N1    5  -0.121  -0.190  -0.084
    1UNL     C5    6  -0.070  -0.327  -0.135
    1UNL     C6    7  -0.268  -0.157  -0.130
    1UNL     C7    8  -0.310  -0.011  -0.129
    1UNL     C8    9  -0.201   0.086  -0.101
    1UNL     C9   10  -0.072   0.053  -0.120
    1UNL     N2   11   0.011   0.122  -0.029
    1UNL    C10   12  -0.066   0.218   0.035
    1UNL    C11   13  -0.049   0.299   0.148
    1UNL    C12   14  -0.159   0.364   0.203
    1UNL    C13   15  -0.288   0.359   0.141
    1UNL    C14   16  -0.307   0.278   0.035
    1UNL    C15   17  -0.198   0.203  -0.014
    1UNL    C16   18   0.139   0.062   0.028
    1UNL    C17   19   0.257   0.127  -0.038
    1UNL     O1   20   0.332   0.059  -0.107
    1UNL     O2   21   0.270   0.259  -0.005
    1UNL    C18   22   0.383   0.313  -0.071
    1UNL    C19   23   0.150  -0.095  -0.002
    1UNL    C20   24   0.114  -0.111  -0.147
    1UNL    C21   25  -0.034  -0.087  -0.172
    1UNL     H1   26   0.267  -0.281   0.339
    1UNL     H2   27   0.292  -0.357   0.170
    1UNL     H3   28   0.322  -0.188   0.206
    1UNL     H4   29   0.043  -0.311   0.252
    1UNL     H5   30  -0.130  -0.080   0.095
    1UNL     H6   31  -0.128  -0.256   0.124
    1UNL     H7   32  -0.132  -0.392  -0.075
    1UNL     H8   33   0.035  -0.348  -0.100
    1UNL     H9   34  -0.075  -0.349  -0.240
    1UNL    H10   35  -0.283  -0.196  -0.226
    1UNL    H11   36  -0.321  -0.225  -0.053
    1UNL    H12   37  -0.336   0.008  -0.233
    1UNL    H13   38  -0.393   0.004  -0.056
    1UNL    H14   39   0.047   0.302   0.192
    1UNL    H15   40  -0.159   0.434   0.279
    1UNL    H16   41  -0.361   0.425   0.169
    1UNL    H17   42  -0.402   0.264  -0.016
    1UNL    H18   43   0.145   0.075   0.140
    1UNL    H19   44   0.466   0.250  -0.082
    1UNL    H20   45   0.340   0.339  -0.174
    1UNL    H21   46   0.410   0.407  -0.026
    1UNL    H22   47   0.255  -0.125   0.016
    1UNL    H23   48   0.174  -0.045  -0.215
    1UNL    H24   49   0.131  -0.204  -0.178
    1UNL    H25   50  -0.065  -0.101  -0.273
   0.00000   0.00000   0.00000   0.00000   0.00000   0.00000   0.00000   0.00000   0.00000
Generated with MDTraj, t= 15.0
 50
    1UNL     C1    1   0.249  -0.220   0.244
    1UNL     C2    2   0.111  -0.225   0.193
    1UNL     C3    3   0.060  -0.171   0.084
    1UNL     C4    4  -0.095  -0.167   0.051
    1UNL     N1    5  -0.134  -0.193  -0.092
    1UNL     C5    6  -0.109  -0.340  -0.133
    1UNL     C6    7  -0.280  -0.170  -0.127
    1UNL     C7    8  -0.319  -0.018  -0.138
    1UNL     C8    9  -0.207   0.071  -0.094
    1UNL     C9   10  -0.075   0.042  -0.129
    1UNL     N2   11   0.015   0.125  -0.055
    1UNL    C10   12  -0.068   0.208   0.021
    1UNL    C11   13  -0.037   0.310   0.113
    1UNL    C12   14  -0.135   0.370   0.183
    1UNL    C13   15  -0.267   0.330   0.169
    1UNL    C14   16  -0.301   0.234   0.075
    1UNL    C15   17  -0.201   0.178   0.001
    1UNL    C16   18   0.142   0.071   0.004
    1UNL    C17   19   0.272   0.143  -0.033
    1UNL     O1   20   0.353   0.083  -0.099
    1UNL     O2   21   0.287   0.266   0.014
    1UNL    C18   22   0.414   0.313  -0.024
    1UNL    C19   23   0.137  -0.084  -0.018
    1UNL    C20   24   0.097  -0.127  -0.156
    1UNL    C21   25  -0.045  -0.093  -0.178
    1UNL     H1   26   0.261  -0.313   0.304
    1UNL     H2   27   0.308  -0.220   0.151
    1UNL     H3   28   0.272  -0.139   0.312
    1UNL     H4   29   0.035  -0.266   0.256
    1UNL     H5   30  -0.137  -0.079   0.088
    1UNL     H6   31  -0.145  -0.254   0.099
    1UNL     H7   32  -0.186  -0.406  -0.089
    1UNL     H8   33  -0.012  -0.379  -0.094
    1UNL     H9   34  -0.101  -0.350  -0.240
    1UNL    H10   35  -0.295  -0.243  -0.202
    1UNL    H11   36  -0.350  -0.204  -0.042
    1UNL    H12   37  -0.335  -0.000  -0.244
    1UNL    H13   38  -0.404  -0.003  -0.065
    1UNL    H14   39   0.064   0.353   0.111
    1UNL    H15   40  -0.099   0.463   0.239
    1UNL    H16   41  -0.352   0.387   0.216
    1UNL    H17   42  -0.402   0.204   0.049
    1UNL    H18   43   0.129   0.099   0.114
    1UNL    H19   44   0.495   0.260   0.022
    1UNL    H20   45   0.424   0.304  -0.141
    1UNL    H21   46   0.419   0.421  -0.007
    1UNL    H22   47   0.247  -0.110  -0.008
    1UNL    H23   48   0.153  -0.060  -0.227
    1UNL    H24   49   0.116  -0.223  -0.187
    1UNL    H25   50  -0.074  -0.095  -0.281
   0.00000   0.00000   0.00000   0.00000   0.00000   0.00000   0.00000   0.00000   0.00000
Generated with MDTraj, t= 16.0
 50
    1UNL     C1    1   0.238  -0.174   0.256
    1UNL     C2    2   0.110  -0.208   0.195
    1UNL     C3    3   0.058  -0.170   0.079
    1UNL     C4    4  -0.095  -0.184   0.046
    1UNL     N1    5  -0.124  -0.199  -0.097
    1UNL     C5    6  -0.101  -0.339  -0.147
    1UNL     C6    7  -0.272  -0.175  -0.120
    1UNL     C7    8  -0.321  -0.027  -0.106
    1UNL     C8    9  -0.202   0.065  -0.098
    1UNL     C9   10  -0.074   0.032  -0.134
    1UNL     N2   11   0.013   0.113  -0.061
    1UNL    C10   12  -0.056   0.212   0.010
    1UNL    C11   13  -0.011   0.304   0.102
    1UNL    C12   14  -0.102   0.372   0.185
    1UNL    C13   15  -0.240   0.352   0.163
    1UNL    C14   16  -0.285   0.253   0.071
    1UNL    C15   17  -0.190   0.184  -0.010
    1UNL    C16   18   0.129   0.050   0.006
    1UNL    C17   19   0.243   0.134  -0.031
    1UNL     O1   20   0.319   0.100  -0.119
    1UNL     O2   21   0.262   0.247   0.048
    1UNL    C18   22   0.381   0.314   0.010
    1UNL    C19   23   0.145  -0.099  -0.027
    1UNL    C20   24   0.102  -0.126  -0.175
    1UNL    C21   25  -0.044  -0.095  -0.188
    1UNL     H1   26   0.282  -0.269   0.288
    1UNL     H2   27   0.306  -0.129   0.182
    1UNL     H3   28   0.240  -0.110   0.346
    1UNL     H4   29   0.040  -0.259   0.264
    1UNL     H5   30  -0.151  -0.095   0.063
    1UNL     H6   31  -0.136  -0.266   0.108
    1UNL     H7   32  -0.174  -0.405  -0.094
    1UNL     H8   33  -0.005  -0.382  -0.125
    1UNL     H9   34  -0.114  -0.352  -0.255
    1UNL    H10   35  -0.308  -0.221  -0.209
    1UNL    H11   36  -0.322  -0.249  -0.047
    1UNL    H12   37  -0.374  -0.008  -0.197
    1UNL    H13   38  -0.385  -0.021  -0.013
    1UNL    H14   39   0.094   0.326   0.106
    1UNL    H15   40  -0.072   0.433   0.262
    1UNL    H16   41  -0.317   0.390   0.226
    1UNL    H17   42  -0.390   0.234   0.080
    1UNL    H18   43   0.111   0.063   0.118
    1UNL    H19   44   0.466   0.277   0.067
    1UNL    H20   45   0.403   0.287  -0.103
    1UNL    H21   46   0.370   0.425   0.008
    1UNL    H22   47   0.253  -0.143  -0.015
    1UNL    H23   48   0.152  -0.054  -0.238
    1UNL    H24   49   0.124  -0.224  -0.220
    1UNL    H25   50  -0.077  -0.093  -0.291
   0.00000   0.00000   0.00000   0.00000   0.00000   0.00000   0.00000   0.00000   0.00000
Generated with MDTraj, t= 17.0
 50
    1UNL     C1    1   0.232  -0.168   0.249
    1UNL     C2    2   0.099  -0.204   0.194
    1UNL     C3    3   0.063  -0.181   0.068
    1UNL     C4    4  -0.079  -0.210   0.041
    1UNL     N1    5  -0.130  -0.213  -0.103
    1UNL     C5    6  -0.115  -0.344  -0.182
    1UNL     C6    7  -0.274  -0.180  -0.115
    1UNL     C7    8  -0.315  -0.035  -0.081
    1UNL     C8    9  -0.199   0.067  -0.073
    1UNL     C9   10  -0.077   0.031  -0.111
    1UNL     N2   11   0.014   0.110  -0.041
    1UNL    C10   12  -0.060   0.208   0.026
    1UNL    C11   13  -0.022   0.312   0.116
    1UNL    C12   14  -0.120   0.392   0.166
    1UNL    C13   15  -0.253   0.375   0.128
    1UNL    C14   16  -0.291   0.271   0.043
    1UNL    C15   17  -0.194   0.184  -0.001
    1UNL    C16   18   0.141   0.051   0.009
    1UNL    C17   19   0.254   0.137  -0.030
    1UNL     O1   20   0.309   0.123  -0.135
    1UNL     O2   21   0.297   0.226   0.059
    1UNL    C18   22   0.390   0.313   0.009
    1UNL    C19   23   0.151  -0.102  -0.026
    1UNL    C20   24   0.108  -0.123  -0.169
    1UNL    C21   25  -0.052  -0.101  -0.175
    1UNL     H1   26   0.295  -0.250   0.222
    1UNL     H2   27   0.276  -0.084   0.196
    1UNL     H3   28   0.247  -0.142   0.358
    1UNL     H4   29   0.042  -0.270   0.253
    1UNL     H5   30  -0.131  -0.131   0.092
    1UNL     H6   31  -0.113  -0.309   0.075
    1UNL     H7   32  -0.177  -0.418  -0.126
    1UNL     H8   33  -0.018  -0.387  -0.174
    1UNL     H9   34  -0.145  -0.345  -0.290
    1UNL    H10   35  -0.304  -0.206  -0.214
    1UNL    H11   36  -0.338  -0.261  -0.063
    1UNL    H12   37  -0.384  -0.016  -0.159
    1UNL    H13   38  -0.368  -0.042   0.019
    1UNL    H14   39   0.078   0.330   0.145
    1UNL    H15   40  -0.098   0.473   0.243
    1UNL    H16   41  -0.324   0.433   0.185
    1UNL    H17   42  -0.393   0.236   0.022
    1UNL    H18   43   0.136   0.053   0.123
    1UNL    H19   44   0.448   0.257  -0.064
    1UNL    H20   45   0.343   0.407  -0.039
    1UNL    H21   46   0.448   0.355   0.092
    1UNL    H22   47   0.262  -0.137  -0.015
    1UNL    H23   48   0.169  -0.064  -0.230
    1UNL    H24   49   0.130  -0.234  -0.197
    1UNL    H25   50  -0.086  -0.103  -0.277
   0.00000   0.00000   0.00000   0.00000   0.00000   0.00000   0.00000   0.00000   0.00000
Generated with MDTraj, t= 18.0
 50
    1UNL     C1    1   0.252  -0.206   0.247
    1UNL     C2    2   0.116  -0.239   0.187
    1UNL     C3    3   0.065  -0.187   0.075
    1UNL     C4    4  -0.085  -0.208   0.049
    1UNL     N1    5  -0.122  -0.207  -0.105
    1UNL     C5    6  -0.079  -0.339  -0.174
    1UNL     C6    7  -0.270  -0.181  -0.134
    1UNL     C7    8  -0.317  -0.032  -0.115
    1UNL     C8    9  -0.212   0.061  -0.066
    1UNL     C9   10  -0.082   0.027  -0.086
    1UNL     N2   11  -0.002   0.118  -0.029
    1UNL    C10   12  -0.075   0.217   0.027
    1UNL    C11   13  -0.037   0.335   0.092
    1UNL    C12   14  -0.128   0.423   0.138
    1UNL    C13   15  -0.268   0.384   0.129
    1UNL    C14   16  -0.309   0.273   0.068
    1UNL    C15   17  -0.211   0.180   0.016
    1UNL    C16   18   0.127   0.058   0.025
    1UNL    C17   19   0.248   0.135  -0.032
    1UNL     O1   20   0.279   0.131  -0.149
    1UNL     O2   21   0.325   0.208   0.057
    1UNL    C18   22   0.424   0.287  -0.007
    1UNL    C19   23   0.148  -0.098  -0.006
    1UNL    C20   24   0.113  -0.107  -0.153
    1UNL    C21   25  -0.046  -0.093  -0.163
    1UNL     H1   26   0.316  -0.209   0.163
    1UNL     H2   27   0.254  -0.105   0.288
    1UNL     H3   28   0.298  -0.273   0.327
    1UNL     H4   29   0.059  -0.320   0.236
    1UNL     H5   30  -0.148  -0.129   0.087
    1UNL     H6   31  -0.117  -0.303   0.089
    1UNL     H7   32  -0.158  -0.415  -0.157
    1UNL     H8   33   0.012  -0.386  -0.138
    1UNL     H9   34  -0.067  -0.319  -0.284
    1UNL    H10   35  -0.275  -0.215  -0.236
    1UNL    H11   36  -0.339  -0.255  -0.082
    1UNL    H12   37  -0.349   0.005  -0.209
    1UNL    H13   38  -0.407  -0.042  -0.047
    1UNL    H14   39   0.072   0.349   0.097
    1UNL    H15   40  -0.102   0.523   0.165
    1UNL    H16   41  -0.341   0.455   0.166
    1UNL    H17   42  -0.414   0.261   0.068
    1UNL    H18   43   0.117   0.069   0.139
    1UNL    H19   44   0.449   0.219  -0.084
    1UNL    H20   45   0.404   0.390  -0.048
    1UNL    H21   46   0.508   0.297   0.057
    1UNL    H22   47   0.262  -0.118   0.005
    1UNL    H23   48   0.160  -0.036  -0.212
    1UNL    H24   49   0.157  -0.213  -0.184
    1UNL    H25   50  -0.072  -0.088  -0.267
   0.00000   0.00000   0.00000   0.00000   0.00000   0.00000   0.00000   0.00000   0.00000
Generated with MDTraj, t= 19.0
 50
    1UNL     C1    1   0.257  -0.277   0.217
    1UNL     C2    2   0.121  -0.247   0.189
    1UNL     C3    3   0.069  -0.168   0.095
    1UNL     C4    4  -0.075  -0.168   0.061
    1UNL     N1    5  -0.112  -0.190  -0.091
    1UNL     C5    6  -0.084  -0.331  -0.134
    1UNL     C6    7  -0.264  -0.168  -0.113
    1UNL     C7    8  -0.318  -0.027  -0.089
    1UNL     C8    9  -0.207   0.071  -0.100
    1UNL     C9   10  -0.073   0.036  -0.117
    1UNL     N2   11   0.003   0.110  -0.032
    1UNL    C10   12  -0.078   0.219   0.012
    1UNL    C11   13  -0.057   0.318   0.116
    1UNL    C12   14  -0.158   0.395   0.158
    1UNL    C13   15  -0.290   0.373   0.117
    1UNL    C14   16  -0.319   0.266   0.033
    1UNL    C15   17  -0.211   0.189  -0.020
    1UNL    C16   18   0.134   0.069   0.026
    1UNL    C17   19   0.242   0.149  -0.034
    1UNL     O1   20   0.250   0.171  -0.153
    1UNL     O2   21   0.338   0.197   0.057
    1UNL    C18   22   0.446   0.249  -0.015
    1UNL    C19   23   0.153  -0.084   0.001
    1UNL    C20   24   0.118  -0.111  -0.143
    1UNL    C21   25  -0.030  -0.091  -0.171
    1UNL     H1   26   0.290  -0.334   0.134
    1UNL     H2   27   0.314  -0.185   0.221
    1UNL     H3   28   0.289  -0.329   0.314
    1UNL     H4   29   0.052  -0.310   0.238
    1UNL     H5   30  -0.096  -0.063   0.083
    1UNL     H6   31  -0.140  -0.235   0.114
    1UNL     H7   32  -0.144  -0.407  -0.085
    1UNL     H8   33   0.024  -0.357  -0.124
    1UNL     H9   34  -0.107  -0.325  -0.243
    1UNL    H10   35  -0.287  -0.191  -0.217
    1UNL    H11   36  -0.306  -0.255  -0.053
    1UNL    H12   37  -0.396  -0.008  -0.158
    1UNL    H13   38  -0.356  -0.009   0.016
    1UNL    H14   39   0.038   0.333   0.160
    1UNL    H15   40  -0.139   0.483   0.221
    1UNL    H16   41  -0.368   0.434   0.154
    1UNL    H17   42  -0.417   0.234  -0.005
    1UNL    H18   43   0.114   0.097   0.135
    1UNL    H19   44   0.509   0.166  -0.011
    1UNL    H20   45   0.430   0.284  -0.119
    1UNL    H21   46   0.491   0.322   0.048
    1UNL    H22   47   0.267  -0.112   0.006
    1UNL    H23   48   0.175  -0.039  -0.197
    1UNL    H24   49   0.151  -0.213  -0.182
    1UNL    H25   50  -0.049  -0.100  -0.278
   0.00000   0.00000   0.00000   0.00000   0.00000   0.00000   0.00000   0.00000   0.00000
Generated with MDTraj, t= 20.0
 50
    1UNL     C1    1   0.264  -0.279   0.177
    1UNL     C2    2   0.124  -0.247   0.174
    1UNL     C3    3   0.070  -0.160   0.089
    1UNL     C4    4  -0.084  -0.148   0.075
    1UNL     N1    5  -0.121  -0.185  -0.070
    1UNL     C5    6  -0.084  -0.334  -0.081
    1UNL     C6    7  -0.270  -0.167  -0.100
    1UNL     C7    8  -0.315  -0.024  -0.147
    1UNL     C8    9  -0.210   0.073  -0.112
    1UNL     C9   10  -0.078   0.045  -0.121
    1UNL     N2   11   0.001   0.128  -0.035
    1UNL    C10   12  -0.085   0.216   0.024
    1UNL    C11   13  -0.060   0.302   0.123
    1UNL    C12   14  -0.168   0.378   0.172
    1UNL    C13   15  -0.293   0.356   0.118
    1UNL    C14   16  -0.324   0.269   0.017
    1UNL    C15   17  -0.216   0.191  -0.025
    1UNL    C16   18   0.137   0.081   0.024
    1UNL    C17   19   0.260   0.149  -0.039
    1UNL     O1   20   0.252   0.190  -0.153
    1UNL     O2   21   0.352   0.168   0.055
    1UNL    C18   22   0.459   0.250  -0.007
    1UNL    C19   23   0.152  -0.076   0.001
    1UNL    C20   24   0.120  -0.124  -0.142
    1UNL    C21   25  -0.032  -0.099  -0.155
    1UNL     H1   26   0.281  -0.328   0.082
    1UNL     H2   27   0.321  -0.189   0.192
    1UNL     H3   28   0.297  -0.342   0.264
    1UNL     H4   29   0.051  -0.308   0.231
    1UNL     H5   30  -0.121  -0.045   0.081
    1UNL     H6   31  -0.129  -0.211   0.148
    1UNL     H7   32  -0.145  -0.396  -0.015
    1UNL     H8   33   0.026  -0.349  -0.055
    1UNL     H9   34  -0.100  -0.360  -0.185
    1UNL    H10   35  -0.288  -0.244  -0.179
    1UNL    H11   36  -0.320  -0.200  -0.006
    1UNL    H12   37  -0.324  -0.010  -0.253
    1UNL    H13   38  -0.413   0.003  -0.099
    1UNL    H14   39   0.040   0.318   0.160
    1UNL    H15   40  -0.159   0.445   0.254
    1UNL    H16   41  -0.380   0.402   0.168
    1UNL    H17   42  -0.422   0.258  -0.015
    1UNL    H18   43   0.128   0.102   0.135
    1UNL    H19   44   0.546   0.201  -0.041
    1UNL    H20   45   0.423   0.310  -0.093
    1UNL    H21   46   0.491   0.318   0.069
    1UNL    H22   47   0.263  -0.102   0.027
    1UNL    H23   48   0.173  -0.065  -0.216
    1UNL    H24   49   0.141  -0.223  -0.155
    1UNL    H25   50  -0.068  -0.124  -0.255
   0.00000   0.00000   0.00000   0.00000   0.00000   0.00000   0.00000   0.00000   0.00000
Generated with MDTraj, t= 21.0
 50
    1UNL     C1    1   0.278  -0.276   0.219
    1UNL     C2    2   0.138  -0.258   0.175
    1UNL     C3    3   0.077  -0.171   0.093
    1UNL     C4    4  -0.069  -0.172   0.074
    1UNL     N1    5  -0.123  -0.185  -0.069
    1UNL     C5    6  -0.110  -0.329  -0.109
    1UNL     C6    7  -0.274  -0.145  -0.069
    1UNL     C7    8  -0.310  -0.020  -0.151
    1UNL     C8    9  -0.204   0.079  -0.118
    1UNL     C9   10  -0.070   0.040  -0.132
    1UNL     N2   11   0.001   0.117  -0.040
    1UNL    C10   12  -0.079   0.227   0.005
    1UNL    C11   13  -0.058   0.329   0.105
    1UNL    C12   14  -0.169   0.378   0.171
    1UNL    C13   15  -0.299   0.345   0.132
    1UNL    C14   16  -0.322   0.259   0.025
    1UNL    C15   17  -0.212   0.199  -0.034
    1UNL    C16   18   0.135   0.072   0.021
    1UNL    C17   19   0.246   0.161  -0.029
    1UNL     O1   20   0.242   0.188  -0.148
    1UNL     O2   21   0.349   0.182   0.066
    1UNL    C18   22   0.452   0.239  -0.016
    1UNL    C19   23   0.157  -0.081  -0.002
    1UNL    C20   24   0.119  -0.120  -0.149
    1UNL    C21   25  -0.033  -0.102  -0.170
    1UNL     H1   26   0.338  -0.235   0.136
    1UNL     H2   27   0.288  -0.226   0.314
    1UNL     H3   28   0.302  -0.380   0.244
    1UNL     H4   29   0.072  -0.331   0.214
    1UNL     H5   30  -0.105  -0.083   0.128
    1UNL     H6   31  -0.110  -0.259   0.116
    1UNL     H7   32  -0.180  -0.379  -0.040
    1UNL     H8   33  -0.008  -0.374  -0.093
    1UNL     H9   34  -0.147  -0.345  -0.210
    1UNL    H10   35  -0.327  -0.237  -0.115
    1UNL    H11   36  -0.305  -0.130   0.035
    1UNL    H12   37  -0.309  -0.045  -0.255
    1UNL    H13   38  -0.407   0.035  -0.133
    1UNL    H14   39   0.031   0.380   0.143
    1UNL    H15   40  -0.152   0.444   0.259
    1UNL    H16   41  -0.384   0.373   0.189
    1UNL    H17   42  -0.424   0.218   0.002
    1UNL    H18   43   0.141   0.092   0.132
    1UNL    H19   44   0.484   0.205  -0.115
    1UNL    H20   45   0.429   0.349  -0.017
    1UNL    H21   46   0.537   0.231   0.056
    1UNL    H22   47   0.270  -0.098   0.017
    1UNL    H23   48   0.175  -0.064  -0.223
    1UNL    H24   49   0.138  -0.218  -0.163
    1UNL    H25   50  -0.075  -0.130  -0.267
   0.00000   0.00000   0.00000   0.00000   0.00000   0.00000   0.00000   0.00000   0.00000
Generated with MDTraj, t= 22.0
 50
    1UNL     C1    1   0.269  -0.232   0.205
    1UNL     C2    2   0.126  -0.219   0.191
    1UNL     C3    3   0.071  -0.172   0.080
    1UNL     C4    4  -0.083  -0.181   0.066
    1UNL     N1    5  -0.122  -0.201  -0.083
    1UNL     C5    6  -0.080  -0.340  -0.126
    1UNL     C6    7  -0.269  -0.177  -0.106
    1UNL     C7    8  -0.323  -0.033  -0.117
    1UNL     C8    9  -0.211   0.073  -0.098
    1UNL     C9   10  -0.076   0.038  -0.113
    1UNL     N2   11  -0.002   0.118  -0.028
    1UNL    C10   12  -0.084   0.205   0.039
    1UNL    C11   13  -0.051   0.307   0.127
    1UNL    C12   14  -0.151   0.392   0.167
    1UNL    C13   15  -0.278   0.382   0.109
    1UNL    C14   16  -0.313   0.286   0.022
    1UNL    C15   17  -0.212   0.185  -0.009
    1UNL    C16   18   0.133   0.065   0.019
    1UNL    C17   19   0.255   0.152  -0.033
    1UNL     O1   20   0.250   0.175  -0.154
    1UNL     O2   21   0.348   0.169   0.065
    1UNL    C18   22   0.441   0.253   0.001
    1UNL    C19   23   0.151  -0.086  -0.012
    1UNL    C20   24   0.110  -0.120  -0.160
    1UNL    C21   25  -0.042  -0.095  -0.176
    1UNL     H1   26   0.306  -0.285   0.113
    1UNL     H2   27   0.313  -0.133   0.211
    1UNL     H3   28   0.310  -0.279   0.293
    1UNL     H4   29   0.057  -0.268   0.261
    1UNL     H5   30  -0.137  -0.089   0.093
    1UNL     H6   31  -0.122  -0.255   0.129
    1UNL     H7   32  -0.154  -0.412  -0.082
    1UNL     H8   33   0.018  -0.367  -0.087
    1UNL     H9   34  -0.082  -0.357  -0.235
    1UNL    H10   35  -0.299  -0.231  -0.207
    1UNL    H11   36  -0.314  -0.228  -0.019
    1UNL    H12   37  -0.363  -0.008  -0.213
    1UNL    H13   38  -0.408  -0.015  -0.049
    1UNL    H14   39   0.053   0.325   0.136
    1UNL    H15   40  -0.134   0.485   0.214
    1UNL    H16   41  -0.349   0.464   0.129
    1UNL    H17   42  -0.405   0.279  -0.024
    1UNL    H18   43   0.119   0.067   0.130
    1UNL    H19   44   0.489   0.223  -0.096
    1UNL    H20   45   0.385   0.348  -0.018
    1UNL    H21   46   0.523   0.274   0.079
    1UNL    H22   47   0.263  -0.105   0.009
    1UNL    H23   48   0.157  -0.053  -0.226
    1UNL    H24   49   0.143  -0.223  -0.186
    1UNL    H25   50  -0.079  -0.087  -0.280
   0.00000   0.00000   0.00000   0.00000   0.00000   0.00000   0.00000   0.00000   0.00000
Generated with MDTraj, t= 23.0
 50
    1UNL     C1    1   0.246  -0.199   0.257
    1UNL     C2    2   0.120  -0.241   0.188
    1UNL     C3    3   0.069  -0.190   0.074
    1UNL     C4    4  -0.078  -0.205   0.045
    1UNL     N1    5  -0.114  -0.209  -0.102
    1UNL     C5    6  -0.089  -0.344  -0.164
    1UNL     C6    7  -0.267  -0.177  -0.117
    1UNL     C7    8  -0.326  -0.033  -0.097
    1UNL     C8    9  -0.211   0.069  -0.074
    1UNL     C9   10  -0.082   0.035  -0.111
    1UNL     N2   11   0.004   0.107  -0.037
    1UNL    C10   12  -0.073   0.211   0.025
    1UNL    C11   13  -0.035   0.325   0.098
    1UNL    C12   14  -0.128   0.413   0.144
    1UNL    C13   15  -0.268   0.377   0.128
    1UNL    C14   16  -0.305   0.274   0.055
    1UNL    C15   17  -0.210   0.188   0.004
    1UNL    C16   18   0.132   0.058   0.024
    1UNL    C17   19   0.247   0.141  -0.031
    1UNL     O1   20   0.250   0.162  -0.153
    1UNL     O2   21   0.332   0.205   0.068
    1UNL    C18   22   0.435   0.260  -0.003
    1UNL    C19   23   0.146  -0.087  -0.014
    1UNL    C20   24   0.114  -0.111  -0.161
    1UNL    C21   25  -0.041  -0.093  -0.170
    1UNL     H1   26   0.328  -0.273   0.245
    1UNL     H2   27   0.284  -0.110   0.207
    1UNL     H3   28   0.241  -0.161   0.356
    1UNL     H4   29   0.061  -0.309   0.244
    1UNL     H5   30  -0.138  -0.124   0.086
    1UNL     H6   31  -0.118  -0.293   0.090
    1UNL     H7   32  -0.155  -0.418  -0.112
    1UNL     H8   33   0.013  -0.380  -0.162
    1UNL     H9   34  -0.125  -0.349  -0.270
    1UNL    H10   35  -0.287  -0.214  -0.228
    1UNL    H11   36  -0.326  -0.236  -0.045
    1UNL    H12   37  -0.388  -0.005  -0.179
    1UNL    H13   38  -0.403  -0.030  -0.017
    1UNL    H14   39   0.070   0.351   0.104
    1UNL    H15   40  -0.099   0.511   0.183
    1UNL    H16   41  -0.336   0.444   0.174
    1UNL    H17   42  -0.412   0.245   0.042
    1UNL    H18   43   0.116   0.073   0.131
    1UNL    H19   44   0.510   0.185  -0.039
    1UNL    H20   45   0.402   0.327  -0.085
    1UNL    H21   46   0.483   0.320   0.082
    1UNL    H22   47   0.258  -0.105  -0.001
    1UNL    H23   48   0.172  -0.043  -0.211
    1UNL    H24   49   0.136  -0.216  -0.211
    1UNL    H25   50  -0.073  -0.089  -0.276
   0.00000   0.00000   0.00000   0.00000   0.00000   0.00000   0.00000   0.00000   0.00000
Generated with MDTraj, t= 24.0
 50
    1UNL     C1    1   0.233  -0.180   0.258
    1UNL     C2    2   0.094  -0.204   0.208
    1UNL     C3    3   0.053  -0.168   0.086
    1UNL     C4    4  -0.077  -0.233   0.039
    1UNL     N1    5  -0.125  -0.213  -0.111
    1UNL     C5    6  -0.104  -0.334  -0.187
    1UNL     C6    7  -0.277  -0.174  -0.127
    1UNL     C7    8  -0.318  -0.042  -0.074
    1UNL     C8    9  -0.205   0.062  -0.076
    1UNL     C9   10  -0.077   0.033  -0.115
    1UNL     N2   11   0.007   0.117  -0.044
    1UNL    C10   12  -0.068   0.222   0.008
    1UNL    C11   13  -0.030   0.330   0.089
    1UNL    C12   14  -0.131   0.404   0.154
    1UNL    C13   15  -0.265   0.373   0.142
    1UNL    C14   16  -0.300   0.253   0.080
    1UNL    C15   17  -0.200   0.178   0.006
    1UNL    C16   18   0.138   0.062   0.017
    1UNL    C17   19   0.262   0.135  -0.037
    1UNL     O1   20   0.299   0.123  -0.152
    1UNL     O2   21   0.316   0.216   0.056
    1UNL    C18   22   0.426   0.296  -0.001
    1UNL    C19   23   0.143  -0.097  -0.011
    1UNL    C20   24   0.111  -0.116  -0.159
    1UNL    C21   25  -0.041  -0.095  -0.177
    1UNL     H1   26   0.300  -0.222   0.180
    1UNL     H2   27   0.242  -0.071   0.264
    1UNL     H3   28   0.251  -0.217   0.355
    1UNL     H4   29   0.025  -0.259   0.273
    1UNL     H5   30  -0.162  -0.200   0.094
    1UNL     H6   31  -0.072  -0.339   0.059
    1UNL     H7   32  -0.177  -0.410  -0.154
    1UNL     H8   33  -0.002  -0.372  -0.173
    1UNL     H9   34  -0.124  -0.325  -0.298
    1UNL    H10   35  -0.314  -0.170  -0.238
    1UNL    H11   36  -0.329  -0.258  -0.077
    1UNL    H12   37  -0.411  -0.010  -0.118
    1UNL    H13   38  -0.356  -0.051   0.029
    1UNL    H14   39   0.076   0.337   0.104
    1UNL    H15   40  -0.093   0.477   0.224
    1UNL    H16   41  -0.342   0.424   0.201
    1UNL    H17   42  -0.404   0.226   0.092
    1UNL    H18   43   0.129   0.085   0.122
    1UNL    H19   44   0.496   0.232  -0.055
    1UNL    H20   45   0.409   0.386  -0.057
    1UNL    H21   46   0.474   0.326   0.094
    1UNL    H22   47   0.246  -0.137   0.005
    1UNL    H23   48   0.159  -0.053  -0.225
    1UNL    H24   49   0.146  -0.225  -0.188
    1UNL    H25   50  -0.059  -0.087  -0.286
   0.00000   0.00000   0.00000   0.00000   0.00000   0.00000   0.00000   0.00000   0.00000
Generated with MDTraj, t= 25.0
 50
    1UNL     C1    1   0.214  -0.143   0.263
    1UNL     C2    2   0.094  -0.191   0.199
    1UNL     C3    3   0.057  -0.179   0.072
    1UNL     C4    4  -0.085  -0.197   0.044
    1UNL     N1    5  -0.124  -0.204  -0.112
    1UNL     C5    6  -0.083  -0.339  -0.154
    1UNL     C6    7  -0.275  -0.178  -0.135
    1UNL     C7    8  -0.327  -0.033  -0.104
    1UNL     C8    9  -0.211   0.072  -0.083
    1UNL     C9   10  -0.081   0.035  -0.110
    1UNL     N2   11   0.013   0.114  -0.047
    1UNL    C10   12  -0.062   0.201   0.034
    1UNL    C11   13  -0.015   0.298   0.120
    1UNL    C12   14  -0.106   0.388   0.167
    1UNL    C13   15  -0.244   0.357   0.158
    1UNL    C14   16  -0.299   0.249   0.074
    1UNL    C15   17  -0.199   0.178   0.010
    1UNL    C16   18   0.132   0.055   0.011
    1UNL    C17   19   0.255   0.125  -0.041
    1UNL     O1   20   0.328   0.086  -0.129
    1UNL     O2   21   0.278   0.236   0.032
    1UNL    C18   22   0.406   0.309  -0.008
    1UNL    C19   23   0.145  -0.103  -0.031
    1UNL    C20   24   0.108  -0.113  -0.177
    1UNL    C21   25  -0.049  -0.093  -0.184
    1UNL     H1   26   0.292  -0.137   0.189
    1UNL     H2   27   0.193  -0.044   0.311
    1UNL     H3   28   0.251  -0.197   0.348
    1UNL     H4   29   0.019  -0.233   0.263
    1UNL     H5   30  -0.144  -0.132   0.103
    1UNL     H6   31  -0.114  -0.295   0.083
    1UNL     H7   32  -0.156  -0.415  -0.123
    1UNL     H8   33   0.020  -0.365  -0.120
    1UNL     H9   34  -0.088  -0.344  -0.266
    1UNL    H10   35  -0.297  -0.208  -0.240
    1UNL    H11   36  -0.338  -0.243  -0.068
    1UNL    H12   37  -0.408  -0.002  -0.167
    1UNL    H13   38  -0.386  -0.044  -0.013
    1UNL    H14   39   0.091   0.316   0.134
    1UNL    H15   40  -0.072   0.473   0.223
    1UNL    H16   41  -0.306   0.414   0.223
    1UNL    H17   42  -0.401   0.230   0.066
    1UNL    H18   43   0.131   0.068   0.117
    1UNL    H19   44   0.481   0.238  -0.037
    1UNL    H20   45   0.410   0.391  -0.073
    1UNL    H21   46   0.440   0.344   0.090
    1UNL    H22   47   0.250  -0.137  -0.019
    1UNL    H23   48   0.166  -0.043  -0.233
    1UNL    H24   49   0.127  -0.214  -0.222
    1UNL    H25   50  -0.086  -0.088  -0.290
   0.00000   0.00000   0.00000   0.00000   0.00000   0.00000   0.00000   0.00000   0.00000
Generated with MDTraj, t= 26.0
 50
    1UNL     C1    1   0.229  -0.179   0.263
    1UNL     C2    2   0.103  -0.205   0.205
    1UNL     C3    3   0.062  -0.171   0.083
    1UNL     C4    4  -0.090  -0.192   0.052
    1UNL     N1    5  -0.134  -0.198  -0.098
    1UNL     C5    6  -0.125  -0.343  -0.150
    1UNL     C6    7  -0.280  -0.155  -0.119
    1UNL     C7    8  -0.310  -0.006  -0.137
    1UNL     C8    9  -0.192   0.082  -0.108
    1UNL     C9   10  -0.070   0.031  -0.129
    1UNL     N2   11   0.019   0.108  -0.044
    1UNL    C10   12  -0.050   0.208   0.019
    1UNL    C11   13  -0.023   0.293   0.127
    1UNL    C12   14  -0.122   0.350   0.199
    1UNL    C13   15  -0.262   0.325   0.168
    1UNL    C14   16  -0.294   0.247   0.064
    1UNL    C15   17  -0.186   0.190  -0.013
    1UNL    C16   18   0.137   0.059   0.020
    1UNL    C17   19   0.265   0.133  -0.026
    1UNL     O1   20   0.337   0.089  -0.114
    1UNL     O2   21   0.276   0.264   0.013
    1UNL    C18   22   0.389   0.329  -0.050
    1UNL    C19   23   0.148  -0.096  -0.016
    1UNL    C20   24   0.106  -0.128  -0.159
    1UNL    C21   25  -0.045  -0.104  -0.177
    1UNL     H1   26   0.283  -0.112   0.203
    1UNL     H2   27   0.218  -0.143   0.368
    1UNL     H3   28   0.294  -0.265   0.277
    1UNL     H4   29   0.025  -0.251   0.265
    1UNL     H5   30  -0.160  -0.134   0.105
    1UNL     H6   31  -0.105  -0.292   0.093
    1UNL     H7   32  -0.202  -0.408  -0.106
    1UNL     H8   33  -0.024  -0.390  -0.135
    1UNL     H9   34  -0.152  -0.341  -0.257
    1UNL    H10   35  -0.322  -0.201  -0.208
    1UNL    H11   36  -0.338  -0.200  -0.031
    1UNL    H12   37  -0.356   0.017  -0.232
    1UNL    H13   38  -0.392   0.022  -0.071
    1UNL    H14   39   0.081   0.314   0.140
    1UNL    H15   40  -0.084   0.421   0.274
    1UNL    H16   41  -0.337   0.373   0.231
    1UNL    H17   42  -0.404   0.220   0.045
    1UNL    H18   43   0.118   0.071   0.124
    1UNL    H19   44   0.479   0.309   0.008
    1UNL    H20   45   0.409   0.311  -0.152
    1UNL    H21   46   0.364   0.434  -0.028
    1UNL    H22   47   0.248  -0.137   0.001
    1UNL    H23   48   0.159  -0.066  -0.233
    1UNL    H24   49   0.122  -0.227  -0.184
    1UNL    H25   50  -0.079  -0.106  -0.284
   0.00000   0.00000   0.00000   0.00000   0.00000   0.00000   0.00000   0.00000   0.00000
Generated with MDTraj, t= 27.0
 50
    1UNL     C1    1   0.242  -0.248   0.244
    1UNL     C2    2   0.102  -0.227   0.199
    1UNL     C3    3   0.052  -0.160   0.094
    1UNL     C4    4  -0.096  -0.158   0.061
    1UNL     N1    5  -0.126  -0.188  -0.088
    1UNL     C5    6  -0.093  -0.328  -0.122
    1UNL     C6    7  -0.270  -0.151  -0.117
    1UNL     C7    8  -0.297  -0.006  -0.160
    1UNL     C8    9  -0.193   0.092  -0.116
    1UNL     C9   10  -0.060   0.044  -0.125
    1UNL     N2   11   0.017   0.106  -0.027
    1UNL    C10   12  -0.065   0.200   0.044
    1UNL    C11   13  -0.037   0.289   0.152
    1UNL    C12   14  -0.138   0.352   0.210
    1UNL    C13   15  -0.272   0.343   0.156
    1UNL    C14   16  -0.298   0.258   0.052
    1UNL    C15   17  -0.192   0.189  -0.009
    1UNL    C16   18   0.141   0.055   0.024
    1UNL    C17   19   0.260   0.131  -0.047
    1UNL     O1   20   0.345   0.065  -0.106
    1UNL     O2   21   0.253   0.267  -0.021
    1UNL    C18   22   0.369   0.324  -0.076
    1UNL    C19   23   0.148  -0.098  -0.009
    1UNL    C20   24   0.120  -0.122  -0.155
    1UNL    C21   25  -0.032  -0.095  -0.174
    1UNL     H1   26   0.268  -0.162   0.300
    1UNL     H2   27   0.254  -0.345   0.295
    1UNL     H3   28   0.310  -0.246   0.159
    1UNL     H4   29   0.029  -0.251   0.277
    1UNL     H5   30  -0.135  -0.064   0.086
    1UNL     H6   31  -0.157  -0.227   0.119
    1UNL     H7   32  -0.175  -0.392  -0.084
    1UNL     H8   33   0.002  -0.361  -0.071
    1UNL     H9   34  -0.095  -0.340  -0.231
    1UNL    H10   35  -0.308  -0.218  -0.189
    1UNL    H11   36  -0.332  -0.173  -0.021
    1UNL    H12   37  -0.311  -0.006  -0.267
    1UNL    H13   38  -0.394   0.030  -0.131
    1UNL    H14   39   0.068   0.309   0.169
    1UNL    H15   40  -0.125   0.425   0.285
    1UNL    H16   41  -0.346   0.402   0.206
    1UNL    H17   42  -0.390   0.227   0.020
    1UNL    H18   43   0.140   0.064   0.130
    1UNL    H19   44   0.466   0.301  -0.022
    1UNL    H20   45   0.376   0.300  -0.180
    1UNL    H21   46   0.344   0.434  -0.067
    1UNL    H22   47   0.250  -0.126   0.014
    1UNL    H23   48   0.177  -0.049  -0.219
    1UNL    H24   49   0.144  -0.214  -0.184
    1UNL    H25   50  -0.063  -0.099  -0.282
   0.00000   0.00000   0.00000   0.00000   0.00000   0.00000   0.00000   0.00000   0.00000
Generated with MDTraj, t= 28.0
 50
    1UNL     C1    1   0.235  -0.304   0.215
    1UNL     C2    2   0.094  -0.286   0.168
    1UNL     C3    3   0.057  -0.175   0.101
    1UNL     C4    4  -0.088  -0.166   0.062
    1UNL     N1    5  -0.117  -0.187  -0.087
    1UNL     C5    6  -0.087  -0.333  -0.124
    1UNL     C6    7  -0.262  -0.160  -0.124
    1UNL     C7    8  -0.308  -0.008  -0.130
    1UNL     C8    9  -0.192   0.086  -0.100
    1UNL     C9   10  -0.058   0.048  -0.106
    1UNL     N2   11   0.022   0.124  -0.018
    1UNL    C10   12  -0.067   0.211   0.049
    1UNL    C11   13  -0.047   0.298   0.156
    1UNL    C12   14  -0.160   0.374   0.195
    1UNL    C13   15  -0.282   0.355   0.139
    1UNL    C14   16  -0.302   0.278   0.029
    1UNL    C15   17  -0.196   0.199  -0.014
    1UNL    C16   18   0.151   0.074   0.035
    1UNL    C17   19   0.266   0.141  -0.040
    1UNL     O1   20   0.346   0.063  -0.087
    1UNL     O2   21   0.258   0.276  -0.035
    1UNL    C18   22   0.359   0.325  -0.123
    1UNL    C19   23   0.155  -0.084   0.024
    1UNL    C20   24   0.128  -0.117  -0.124
    1UNL    C21   25  -0.022  -0.085  -0.163
    1UNL     H1   26   0.266  -0.210   0.254
    1UNL     H2   27   0.254  -0.384   0.284
    1UNL     H3   28   0.299  -0.324   0.128
    1UNL     H4   29   0.019  -0.340   0.222
    1UNL     H5   30  -0.130  -0.073   0.086
    1UNL     H6   31  -0.143  -0.239   0.120
    1UNL     H7   32  -0.171  -0.387  -0.072
    1UNL     H8   33   0.005  -0.376  -0.079
    1UNL     H9   34  -0.103  -0.348  -0.232
    1UNL    H10   35  -0.271  -0.203  -0.219
    1UNL    H11   36  -0.335  -0.217  -0.055
    1UNL    H12   37  -0.348   0.028  -0.223
    1UNL    H13   38  -0.396   0.009  -0.071
    1UNL    H14   39   0.052   0.303   0.198
    1UNL    H15   40  -0.149   0.447   0.277
    1UNL    H16   41  -0.375   0.391   0.182
    1UNL    H17   42  -0.404   0.263  -0.013
    1UNL    H18   43   0.167   0.101   0.136
    1UNL    H19   44   0.468   0.290  -0.113
    1UNL    H20   45   0.324   0.314  -0.224
    1UNL    H21   46   0.347   0.436  -0.103
    1UNL    H22   47   0.256  -0.106   0.049
    1UNL    H23   48   0.189  -0.054  -0.189
    1UNL    H24   49   0.156  -0.222  -0.148
    1UNL    H25   50  -0.055  -0.088  -0.270
   0.00000   0.00000   0.00000   0.00000   0.00000   0.00000   0.00000   0.00000   0.00000
Generated with MDTraj, t= 29.0
 50
    1UNL     C1    1   0.248  -0.328   0.195
    1UNL     C2    2   0.108  -0.276   0.175
    1UNL     C3    3   0.064  -0.178   0.093
    1UNL     C4    4  -0.088  -0.169   0.063
    1UNL     N1    5  -0.116  -0.183  -0.090
    1UNL     C5    6  -0.078  -0.334  -0.131
    1UNL     C6    7  -0.257  -0.159  -0.135
    1UNL     C7    8  -0.303  -0.010  -0.137
    1UNL     C8    9  -0.193   0.074  -0.089
    1UNL     C9   10  -0.061   0.045  -0.105
    1UNL     N2   11   0.009   0.111  -0.007
    1UNL    C10   12  -0.073   0.222   0.039
    1UNL    C11   13  -0.034   0.324   0.125
    1UNL    C12   14  -0.139   0.406   0.169
    1UNL    C13   15  -0.270   0.385   0.130
    1UNL    C14   16  -0.306   0.276   0.055
    1UNL    C15   17  -0.208   0.186   0.009
    1UNL    C16   18   0.139   0.060   0.054
    1UNL    C17   19   0.256   0.131  -0.020
    1UNL     O1   20   0.351   0.066  -0.062
    1UNL     O2   21   0.230   0.267  -0.033
    1UNL    C18   22   0.336   0.326  -0.114
    1UNL    C19   23   0.152  -0.091   0.020
    1UNL    C20   24   0.129  -0.115  -0.137
    1UNL    C21   25  -0.021  -0.083  -0.163
    1UNL     H1   26   0.322  -0.251   0.211
    1UNL     H2   27   0.265  -0.403   0.268
    1UNL     H3   28   0.279  -0.385   0.105
    1UNL     H4   29   0.033  -0.313   0.246
    1UNL     H5   30  -0.135  -0.082   0.102
    1UNL     H6   31  -0.129  -0.259   0.106
    1UNL     H7   32  -0.150  -0.406  -0.083
    1UNL     H8   33   0.015  -0.363  -0.081
    1UNL     H9   34  -0.077  -0.352  -0.241
    1UNL    H10   35  -0.263  -0.198  -0.235
    1UNL    H11   36  -0.321  -0.224  -0.069
    1UNL    H12   37  -0.325   0.014  -0.240
    1UNL    H13   38  -0.397   0.021  -0.098
    1UNL    H14   39   0.063   0.346   0.169
    1UNL    H15   40  -0.114   0.481   0.241
    1UNL    H16   41  -0.345   0.455   0.163
    1UNL    H17   42  -0.408   0.269   0.022
    1UNL    H18   43   0.144   0.082   0.157
    1UNL    H19   44   0.442   0.322  -0.071
    1UNL    H20   45   0.338   0.287  -0.212
    1UNL    H21   46   0.296   0.430  -0.133
    1UNL    H22   47   0.253  -0.122   0.040
    1UNL    H23   48   0.190  -0.049  -0.194
    1UNL    H24   49   0.154  -0.226  -0.180
    1UNL    H25   50  -0.043  -0.070  -0.274
   0.00000   0.00000   0.00000   0.00000   0.00000   0.00000   0.00000   0.00000   0.00000
Generated with MDTraj, t= 30.0
 50
    1UNL     C1    1   0.261  -0.287   0.211
    1UNL     C2    2   0.120  -0.274   0.173
    1UNL     C3    3   0.068  -0.186   0.081
    1UNL     C4    4  -0.078  -0.194   0.055
    1UNL     N1    5  -0.125  -0.199  -0.093
    1UNL     C5    6  -0.111  -0.337  -0.148
    1UNL     C6    7  -0.279  -0.167  -0.103
    1UNL     C7    8  -0.321  -0.011  -0.111
    1UNL     C8    9  -0.206   0.075  -0.078
    1UNL     C9   10  -0.078   0.027  -0.103
    1UNL     N2   11   0.009   0.108  -0.030
    1UNL    C10   12  -0.061   0.213   0.029
    1UNL    C11   13  -0.028   0.312   0.125
    1UNL    C12   14  -0.121   0.400   0.162
    1UNL    C13   15  -0.251   0.385   0.120
    1UNL    C14   16  -0.294   0.289   0.031
    1UNL    C15   17  -0.195   0.195  -0.007
    1UNL    C16   18   0.141   0.046   0.029
    1UNL    C17   19   0.257   0.141  -0.009
    1UNL     O1   20   0.368   0.093  -0.012
    1UNL     O2   21   0.224   0.271  -0.037
    1UNL    C18   22   0.341   0.346  -0.072
    1UNL    C19   23   0.157  -0.099  -0.010
    1UNL    C20   24   0.119  -0.122  -0.154
    1UNL    C21   25  -0.035  -0.094  -0.170
    1UNL     H1   26   0.288  -0.201   0.274
    1UNL     H2   27   0.290  -0.375   0.259
    1UNL     H3   28   0.313  -0.287   0.115
    1UNL     H4   29   0.059  -0.322   0.245
    1UNL     H5   30  -0.118  -0.105   0.101
    1UNL     H6   31  -0.116  -0.282   0.100
    1UNL     H7   32  -0.190  -0.402  -0.103
    1UNL     H8   33  -0.019  -0.388  -0.119
    1UNL     H9   34  -0.126  -0.329  -0.259
    1UNL    H10   35  -0.324  -0.226  -0.183
    1UNL    H11   36  -0.324  -0.204  -0.010
    1UNL    H12   37  -0.364   0.023  -0.204
    1UNL    H13   38  -0.403   0.017  -0.052
    1UNL    H14   39   0.075   0.324   0.156
    1UNL    H15   40  -0.102   0.493   0.219
    1UNL    H16   41  -0.321   0.457   0.157
    1UNL    H17   42  -0.389   0.289  -0.015
    1UNL    H18   43   0.139   0.041   0.135
    1UNL    H19   44   0.414   0.352   0.012
    1UNL    H20   45   0.391   0.316  -0.158
    1UNL    H21   46   0.286   0.438  -0.099
    1UNL    H22   47   0.260  -0.128  -0.002
    1UNL    H23   48   0.178  -0.051  -0.214
    1UNL    H24   49   0.144  -0.229  -0.195
    1UNL    H25   50  -0.046  -0.086  -0.283
   0.00000   0.00000   0.00000   0.00000   0.00000   0.00000   0.00000   0.00000   0.00000
Generated with MDTraj, t= 31.0
 50
    1UNL     C1    1   0.281  -0.213   0.189
    1UNL     C2    2   0.142  -0.261   0.162
    1UNL     C3    3   0.082  -0.198   0.059
    1UNL     C4    4  -0.078  -0.199   0.053
    1UNL     N1    5  -0.139  -0.197  -0.090
    1UNL     C5    6  -0.114  -0.341  -0.139
    1UNL     C6    7  -0.286  -0.164  -0.085
    1UNL     C7    8  -0.320  -0.017  -0.114
    1UNL     C8    9  -0.206   0.076  -0.088
    1UNL     C9   10  -0.080   0.033  -0.110
    1UNL     N2   11   0.010   0.114  -0.048
    1UNL    C10   12  -0.064   0.211   0.015
    1UNL    C11   13  -0.021   0.315   0.099
    1UNL    C12   14  -0.113   0.388   0.159
    1UNL    C13   15  -0.250   0.382   0.124
    1UNL    C14   16  -0.293   0.289   0.042
    1UNL    C15   17  -0.198   0.196  -0.012
    1UNL    C16   18   0.126   0.042   0.025
    1UNL    C17   19   0.250   0.130   0.007
    1UNL     O1   20   0.355   0.076   0.032
    1UNL     O2   21   0.235   0.258  -0.037
    1UNL    C18   22   0.361   0.324  -0.030
    1UNL    C19   23   0.153  -0.100  -0.024
    1UNL    C20   24   0.102  -0.120  -0.167
    1UNL    C21   25  -0.056  -0.097  -0.167
    1UNL     H1   26   0.291  -0.102   0.173
    1UNL     H2   27   0.319  -0.225   0.286
    1UNL     H3   28   0.341  -0.272   0.122
    1UNL     H4   29   0.077  -0.299   0.243
    1UNL     H5   30  -0.110  -0.103   0.094
    1UNL     H6   31  -0.120  -0.273   0.114
    1UNL     H7   32  -0.169  -0.414  -0.078
    1UNL     H8   33  -0.010  -0.374  -0.127
    1UNL     H9   34  -0.147  -0.352  -0.245
    1UNL    H10   35  -0.340  -0.229  -0.155
    1UNL    H11   36  -0.318  -0.176   0.015
    1UNL    H12   37  -0.364  -0.005  -0.212
    1UNL    H13   38  -0.403   0.009  -0.057
    1UNL    H14   39   0.081   0.337   0.108
    1UNL    H15   40  -0.086   0.464   0.227
    1UNL    H16   41  -0.319   0.450   0.174
    1UNL    H17   42  -0.405   0.274   0.028
    1UNL    H18   43   0.107   0.038   0.131
    1UNL    H19   44   0.397   0.320   0.074
    1UNL    H20   45   0.437   0.285  -0.088
    1UNL    H21   46   0.331   0.423  -0.060
    1UNL    H22   47   0.259  -0.119  -0.028
    1UNL    H23   48   0.147  -0.040  -0.239
    1UNL    H24   49   0.137  -0.218  -0.202
    1UNL    H25   50  -0.085  -0.107  -0.277
   0.00000   0.00000   0.00000   0.00000   0.00000   0.00000   0.00000   0.00000   0.00000
Generated with MDTraj, t= 32.0
 50
    1UNL     C1    1   0.289  -0.216   0.192
    1UNL     C2    2   0.143  -0.228   0.169
    1UNL     C3    3   0.068  -0.183   0.066
    1UNL     C4    4  -0.078  -0.192   0.054
    1UNL     N1    5  -0.130  -0.192  -0.089
    1UNL     C5    6  -0.116  -0.335  -0.145
    1UNL     C6    7  -0.282  -0.166  -0.078
    1UNL     C7    8  -0.332  -0.023  -0.100
    1UNL     C8    9  -0.208   0.067  -0.083
    1UNL     C9   10  -0.086   0.028  -0.124
    1UNL     N2   11   0.000   0.113  -0.060
    1UNL    C10   12  -0.067   0.218   0.004
    1UNL    C11   13  -0.026   0.332   0.075
    1UNL    C12   14  -0.123   0.397   0.150
    1UNL    C13   15  -0.259   0.369   0.133
    1UNL    C14   16  -0.299   0.262   0.061
    1UNL    C15   17  -0.205   0.185  -0.001
    1UNL    C16   18   0.118   0.052   0.003
    1UNL    C17   19   0.254   0.132   0.008
    1UNL     O1   20   0.351   0.072   0.054
    1UNL     O2   21   0.267   0.261  -0.032
    1UNL    C18   22   0.403   0.303  -0.013
    1UNL    C19   23   0.142  -0.096  -0.036
    1UNL    C20   24   0.099  -0.120  -0.182
    1UNL    C21   25  -0.060  -0.104  -0.180
    1UNL     H1   26   0.334  -0.113   0.188
    1UNL     H2   27   0.332  -0.261   0.279
    1UNL     H3   28   0.332  -0.273   0.114
    1UNL     H4   29   0.092  -0.247   0.259
    1UNL     H5   30  -0.115  -0.109   0.114
    1UNL     H6   31  -0.106  -0.288   0.089
    1UNL     H7   32  -0.176  -0.408  -0.091
    1UNL     H8   33  -0.013  -0.378  -0.152
    1UNL     H9   34  -0.160  -0.333  -0.246
    1UNL    H10   35  -0.349  -0.230  -0.139
    1UNL    H11   36  -0.294  -0.188   0.023
    1UNL    H12   37  -0.374  -0.011  -0.199
    1UNL    H13   38  -0.414   0.004  -0.040
    1UNL    H14   39   0.082   0.365   0.081
    1UNL    H15   40  -0.096   0.476   0.225
    1UNL    H16   41  -0.331   0.427   0.190
    1UNL    H17   42  -0.391   0.220   0.077
    1UNL    H18   43   0.084   0.059   0.107
    1UNL    H19   44   0.425   0.304   0.096
    1UNL    H20   45   0.475   0.240  -0.057
    1UNL    H21   46   0.401   0.407  -0.043
    1UNL    H22   47   0.249  -0.104  -0.037
    1UNL    H23   48   0.153  -0.040  -0.255
    1UNL    H24   49   0.124  -0.216  -0.216
    1UNL    H25   50  -0.106  -0.116  -0.283
   0.00000   0.00000   0.00000   0.00000   0.00000   0.00000   0.00000   0.00000   0.00000
Generated with MDTraj, t= 33.0
 50
    1UNL     C1    1   0.276  -0.244   0.197
    1UNL     C2    2   0.133  -0.255   0.166
    1UNL     C3    3   0.076  -0.184   0.069
    1UNL     C4    4  -0.075  -0.194   0.057
    1UNL     N1    5  -0.134  -0.199  -0.095
    1UNL     C5    6  -0.096  -0.340  -0.131
    1UNL     C6    7  -0.281  -0.174  -0.119
    1UNL     C7    8  -0.328  -0.030  -0.080
    1UNL     C8    9  -0.214   0.074  -0.080
    1UNL     C9   10  -0.083   0.039  -0.117
    1UNL     N2   11   0.011   0.120  -0.058
    1UNL    C10   12  -0.065   0.220   0.007
    1UNL    C11   13  -0.022   0.329   0.077
    1UNL    C12   14  -0.119   0.404   0.145
    1UNL    C13   15  -0.252   0.371   0.145
    1UNL    C14   16  -0.301   0.275   0.057
    1UNL    C15   17  -0.201   0.199  -0.008
    1UNL    C16   18   0.124   0.053   0.010
    1UNL    C17   19   0.251   0.136   0.004
    1UNL     O1   20   0.347   0.079   0.054
    1UNL     O2   21   0.252   0.266  -0.041
    1UNL    C18   22   0.385   0.309  -0.038
    1UNL    C19   23   0.148  -0.101  -0.025
    1UNL    C20   24   0.097  -0.115  -0.169
    1UNL    C21   25  -0.059  -0.098  -0.174
    1UNL     H1   26   0.312  -0.140   0.210
    1UNL     H2   27   0.308  -0.306   0.281
    1UNL     H3   28   0.320  -0.284   0.109
    1UNL     H4   29   0.065  -0.287   0.248
    1UNL     H5   30  -0.118  -0.102   0.095
    1UNL     H6   31  -0.109  -0.271   0.119
    1UNL     H7   32  -0.158  -0.419  -0.089
    1UNL     H8   33   0.010  -0.355  -0.096
    1UNL     H9   34  -0.092  -0.355  -0.239
    1UNL    H10   35  -0.294  -0.195  -0.228
    1UNL    H11   36  -0.341  -0.243  -0.071
    1UNL    H12   37  -0.415   0.011  -0.127
    1UNL    H13   38  -0.362  -0.030   0.019
    1UNL    H14   39   0.078   0.355   0.073
    1UNL    H15   40  -0.092   0.495   0.186
    1UNL    H16   41  -0.327   0.415   0.206
    1UNL    H17   42  -0.411   0.253   0.047
    1UNL    H18   43   0.081   0.057   0.113
    1UNL    H19   44   0.423   0.314   0.069
    1UNL    H20   45   0.448   0.242  -0.094
    1UNL    H21   46   0.379   0.416  -0.064
    1UNL    H22   47   0.249  -0.135  -0.029
    1UNL    H23   48   0.144  -0.035  -0.240
    1UNL    H24   49   0.123  -0.211  -0.205
    1UNL    H25   50  -0.105  -0.093  -0.278
   0.00000   0.00000   0.00000   0.00000   0.00000   0.00000   0.00000   0.00000   0.00000
Generated with MDTraj, t= 34.0
 50
    1UNL     C1    1   0.258  -0.284   0.207
    1UNL     C2    2   0.115  -0.283   0.164
    1UNL     C3    3   0.061  -0.195   0.077
    1UNL     C4    4  -0.088  -0.200   0.061
    1UNL     N1    5  -0.125  -0.203  -0.093
    1UNL     C5    6  -0.089  -0.335  -0.159
    1UNL     C6    7  -0.277  -0.168  -0.116
    1UNL     C7    8  -0.322  -0.023  -0.096
    1UNL     C8    9  -0.205   0.074  -0.082
    1UNL     C9   10  -0.075   0.033  -0.103
    1UNL     N2   11   0.010   0.109  -0.023
    1UNL    C10   12  -0.056   0.224   0.022
    1UNL    C11   13  -0.018   0.333   0.103
    1UNL    C12   14  -0.114   0.415   0.153
    1UNL    C13   15  -0.250   0.384   0.124
    1UNL    C14   16  -0.297   0.277   0.048
    1UNL    C15   17  -0.195   0.194   0.001
    1UNL    C16   18   0.135   0.051   0.043
    1UNL    C17   19   0.254   0.141  -0.000
    1UNL     O1   20   0.366   0.107   0.033
    1UNL     O2   21   0.231   0.260  -0.062
    1UNL    C18   22   0.349   0.337  -0.082
    1UNL    C19   23   0.147  -0.102  -0.008
    1UNL    C20   24   0.108  -0.115  -0.158
    1UNL    C21   25  -0.040  -0.095  -0.172
    1UNL     H1   26   0.297  -0.184   0.221
    1UNL     H2   27   0.288  -0.350   0.292
    1UNL     H3   28   0.302  -0.326   0.118
    1UNL     H4   29   0.049  -0.332   0.229
    1UNL     H5   30  -0.138  -0.123   0.117
    1UNL     H6   31  -0.124  -0.293   0.097
    1UNL     H7   32  -0.153  -0.410  -0.110
    1UNL     H8   33   0.018  -0.363  -0.152
    1UNL     H9   34  -0.121  -0.342  -0.263
    1UNL    H10   35  -0.301  -0.189  -0.222
    1UNL    H11   36  -0.336  -0.238  -0.065
    1UNL    H12   37  -0.390   0.020  -0.167
    1UNL    H13   38  -0.382  -0.010  -0.010
    1UNL    H14   39   0.088   0.363   0.121
    1UNL    H15   40  -0.081   0.507   0.210
    1UNL    H16   41  -0.325   0.462   0.154
    1UNL    H17   42  -0.396   0.259   0.008
    1UNL    H18   43   0.116   0.051   0.154
    1UNL    H19   44   0.398   0.377   0.015
    1UNL    H20   45   0.417   0.279  -0.144
    1UNL    H21   46   0.313   0.433  -0.125
    1UNL    H22   47   0.247  -0.133  -0.007
    1UNL    H23   48   0.161  -0.038  -0.207
    1UNL    H24   49   0.125  -0.211  -0.206
    1UNL    H25   50  -0.083  -0.102  -0.277
   0.00000   0.00000   0.00000   0.00000   0.00000   0.00000   0.00000   0.00000   0.00000
Generated with MDTraj, t= 35.0
 50
    1UNL     C1    1   0.258  -0.292   0.201
    1UNL     C2    2   0.114  -0.280   0.171
    1UNL     C3    3   0.060  -0.187   0.090
    1UNL     C4    4  -0.090  -0.184   0.060
    1UNL     N1    5  -0.121  -0.193  -0.091
    1UNL     C5    6  -0.086  -0.328  -0.157
    1UNL     C6    7  -0.266  -0.155  -0.112
    1UNL     C7    8  -0.303  -0.013  -0.137
    1UNL     C8    9  -0.193   0.081  -0.091
    1UNL     C9   10  -0.064   0.047  -0.096
    1UNL     N2   11   0.012   0.109   0.003
    1UNL    C10   12  -0.062   0.208   0.056
    1UNL    C11   13  -0.036   0.311   0.146
    1UNL    C12   14  -0.129   0.410   0.167
    1UNL    C13   15  -0.265   0.393   0.112
    1UNL    C14   16  -0.297   0.284   0.038
    1UNL    C15   17  -0.195   0.190   0.006
    1UNL    C16   18   0.142   0.052   0.047
    1UNL    C17   19   0.254   0.135  -0.009
    1UNL     O1   20   0.365   0.087   0.006
    1UNL     O2   21   0.212   0.248  -0.078
    1UNL    C18   22   0.329   0.317  -0.121
    1UNL    C19   23   0.152  -0.105   0.003
    1UNL    C20   24   0.120  -0.109  -0.147
    1UNL    C21   25  -0.028  -0.084  -0.165
    1UNL     H1   26   0.304  -0.205   0.240
    1UNL     H2   27   0.298  -0.379   0.263
    1UNL     H3   28   0.301  -0.308   0.101
    1UNL     H4   29   0.040  -0.328   0.239
    1UNL     H5   30  -0.150  -0.105   0.099
    1UNL     H6   31  -0.130  -0.277   0.097
    1UNL     H7   32  -0.153  -0.408  -0.119
    1UNL     H8   33   0.019  -0.355  -0.145
    1UNL     H9   34  -0.108  -0.326  -0.264
    1UNL    H10   35  -0.306  -0.209  -0.198
    1UNL    H11   36  -0.323  -0.187  -0.028
    1UNL    H12   37  -0.326   0.002  -0.239
    1UNL    H13   38  -0.394   0.020  -0.091
    1UNL    H14   39   0.062   0.311   0.190
    1UNL    H15   40  -0.110   0.493   0.228
    1UNL    H16   41  -0.336   0.462   0.140
    1UNL    H17   42  -0.392   0.268  -0.003
    1UNL    H18   43   0.153   0.066   0.160
    1UNL    H19   44   0.385   0.370  -0.035
    1UNL    H20   45   0.386   0.245  -0.179
    1UNL    H21   46   0.302   0.406  -0.181
    1UNL    H22   47   0.249  -0.131   0.031
    1UNL    H23   48   0.166  -0.034  -0.192
    1UNL    H24   49   0.155  -0.203  -0.192
    1UNL    H25   50  -0.051  -0.069  -0.275
   0.00000   0.00000   0.00000   0.00000   0.00000   0.00000   0.00000   0.00000   0.00000
Generated with MDTraj, t= 36.0
 50
    1UNL     C1    1   0.255  -0.292   0.220
    1UNL     C2    2   0.118  -0.283   0.171
    1UNL     C3    3   0.070  -0.190   0.089
    1UNL     C4    4  -0.078  -0.177   0.062
    1UNL     N1    5  -0.118  -0.189  -0.087
    1UNL     C5    6  -0.103  -0.326  -0.134
    1UNL     C6    7  -0.263  -0.147  -0.121
    1UNL     C7    8  -0.296   0.008  -0.154
    1UNL     C8    9  -0.185   0.103  -0.108
    1UNL     C9   10  -0.053   0.054  -0.112
    1UNL     N2   11   0.016   0.116  -0.010
    1UNL    C10   12  -0.071   0.207   0.054
    1UNL    C11   13  -0.056   0.287   0.173
    1UNL    C12   14  -0.153   0.378   0.206
    1UNL    C13   15  -0.278   0.372   0.138
    1UNL    C14   16  -0.296   0.285   0.030
    1UNL    C15   17  -0.189   0.208  -0.015
    1UNL    C16   18   0.141   0.065   0.045
    1UNL    C17   19   0.255   0.142  -0.014
    1UNL     O1   20   0.361   0.083  -0.002
    1UNL     O2   21   0.221   0.251  -0.087
    1UNL    C18   22   0.337   0.293  -0.161
    1UNL    C19   23   0.159  -0.089   0.012
    1UNL    C20   24   0.123  -0.118  -0.139
    1UNL    C21   25  -0.027  -0.088  -0.158
    1UNL     H1   26   0.303  -0.196   0.221
    1UNL     H2   27   0.268  -0.337   0.323
    1UNL     H3   28   0.310  -0.353   0.145
    1UNL     H4   29   0.046  -0.322   0.237
    1UNL     H5   30  -0.119  -0.085   0.092
    1UNL     H6   31  -0.135  -0.254   0.113
    1UNL     H7   32  -0.198  -0.371  -0.101
    1UNL     H8   33  -0.023  -0.374  -0.083
    1UNL     H9   34  -0.095  -0.342  -0.243
    1UNL    H10   35  -0.292  -0.206  -0.206
    1UNL    H11   36  -0.332  -0.166  -0.039
    1UNL    H12   37  -0.304   0.023  -0.257
    1UNL    H13   38  -0.397   0.033  -0.123
    1UNL    H14   39   0.035   0.276   0.228
    1UNL    H15   40  -0.138   0.450   0.289
    1UNL    H16   41  -0.372   0.413   0.185
    1UNL    H17   42  -0.398   0.253  -0.009
    1UNL    H18   43   0.121   0.077   0.157
    1UNL    H19   44   0.427   0.308  -0.094
    1UNL    H20   45   0.346   0.223  -0.240
    1UNL    H21   46   0.321   0.390  -0.207
    1UNL    H22   47   0.259  -0.108   0.035
    1UNL    H23   48   0.189  -0.065  -0.201
    1UNL    H24   49   0.142  -0.219  -0.173
    1UNL    H25   50  -0.050  -0.089  -0.267
   0.00000   0.00000   0.00000   0.00000   0.00000   0.00000   0.00000   0.00000   0.00000
Generated with MDTraj, t= 37.0
 50
    1UNL     C1    1   0.231  -0.282   0.238
    1UNL     C2    2   0.098  -0.240   0.193
    1UNL     C3    3   0.053  -0.160   0.097
    1UNL     C4    4  -0.097  -0.152   0.058
    1UNL     N1    5  -0.119  -0.184  -0.090
    1UNL     C5    6  -0.105  -0.326  -0.132
    1UNL     C6    7  -0.260  -0.140  -0.118
    1UNL     C7    8  -0.288   0.008  -0.167
    1UNL     C8    9  -0.183   0.097  -0.110
    1UNL     C9   10  -0.054   0.050  -0.120
    1UNL     N2   11   0.016   0.121  -0.022
    1UNL    C10   12  -0.063   0.214   0.049
    1UNL    C11   13  -0.044   0.285   0.168
    1UNL    C12   14  -0.159   0.347   0.228
    1UNL    C13   15  -0.286   0.338   0.163
    1UNL    C14   16  -0.303   0.246   0.058
    1UNL    C15   17  -0.191   0.196  -0.006
    1UNL    C16   18   0.146   0.063   0.031
    1UNL    C17   19   0.267   0.132  -0.027
    1UNL     O1   20   0.377   0.088   0.001
    1UNL     O2   21   0.239   0.235  -0.115
    1UNL    C18   22   0.352   0.300  -0.159
    1UNL    C19   23   0.150  -0.087   0.008
    1UNL    C20   24   0.128  -0.114  -0.148
    1UNL    C21   25  -0.022  -0.088  -0.173
    1UNL     H1   26   0.282  -0.196   0.283
    1UNL     H2   27   0.225  -0.371   0.304
    1UNL     H3   28   0.285  -0.306   0.145
    1UNL     H4   29   0.018  -0.279   0.259
    1UNL     H5   30  -0.151  -0.063   0.076
    1UNL     H6   31  -0.146  -0.236   0.106
    1UNL     H7   32  -0.185  -0.384  -0.086
    1UNL     H8   33  -0.009  -0.362  -0.102
    1UNL     H9   34  -0.117  -0.341  -0.241
    1UNL    H10   35  -0.308  -0.195  -0.196
    1UNL    H11   36  -0.316  -0.162  -0.026
    1UNL    H12   37  -0.294   0.006  -0.270
    1UNL    H13   38  -0.387   0.040  -0.139
    1UNL    H14   39   0.060   0.313   0.199
    1UNL    H15   40  -0.148   0.413   0.311
    1UNL    H16   41  -0.369   0.394   0.193
    1UNL    H17   42  -0.401   0.222   0.038
    1UNL    H18   43   0.149   0.085   0.143
    1UNL    H19   44   0.417   0.331  -0.074
    1UNL    H20   45   0.392   0.248  -0.242
    1UNL    H21   46   0.319   0.390  -0.205
    1UNL    H22   47   0.249  -0.119   0.022
    1UNL    H23   48   0.198  -0.060  -0.220
    1UNL    H24   49   0.153  -0.212  -0.174
    1UNL    H25   50  -0.053  -0.098  -0.280
   0.00000   0.00000   0.00000   0.00000   0.00000   0.00000   0.00000   0.00000   0.00000
Generated with MDTraj, t= 38.0
 50
    1UNL     C1    1   0.212  -0.228   0.246
    1UNL     C2    2   0.082  -0.222   0.196
    1UNL     C3    3   0.050  -0.159   0.089
    1UNL     C4    4  -0.099  -0.162   0.049
    1UNL     N1    5  -0.122  -0.183  -0.107
    1UNL     C5    6  -0.092  -0.332  -0.137
    1UNL     C6    7  -0.271  -0.154  -0.147
    1UNL     C7    8  -0.301  -0.003  -0.144
    1UNL     C8    9  -0.189   0.092  -0.101
    1UNL     C9   10  -0.060   0.056  -0.120
    1UNL     N2   11   0.025   0.133  -0.037
    1UNL    C10   12  -0.061   0.208   0.043
    1UNL    C11   13  -0.031   0.279   0.160
    1UNL    C12   14  -0.139   0.336   0.227
    1UNL    C13   15  -0.275   0.315   0.189
    1UNL    C14   16  -0.304   0.246   0.072
    1UNL    C15   17  -0.194   0.191  -0.001
    1UNL    C16   18   0.145   0.071   0.030
    1UNL    C17   19   0.271   0.135  -0.026
    1UNL     O1   20   0.373   0.091   0.020
    1UNL     O2   21   0.251   0.227  -0.119
    1UNL    C18   22   0.369   0.289  -0.159
    1UNL    C19   23   0.148  -0.085   0.003
    1UNL    C20   24   0.117  -0.114  -0.145
    1UNL    C21   25  -0.029  -0.082  -0.177
    1UNL     H1   26   0.258  -0.126   0.234
    1UNL     H2   27   0.226  -0.253   0.350
    1UNL     H3   28   0.272  -0.298   0.184
    1UNL     H4   29   0.008  -0.276   0.247
    1UNL     H5   30  -0.152  -0.076   0.081
    1UNL     H6   31  -0.141  -0.253   0.092
    1UNL     H7   32  -0.167  -0.394  -0.093
    1UNL     H8   33   0.011  -0.360  -0.110
    1UNL     H9   34  -0.096  -0.349  -0.244
    1UNL    H10   35  -0.289  -0.207  -0.236
    1UNL    H11   36  -0.350  -0.195  -0.080
    1UNL    H12   37  -0.336   0.019  -0.240
    1UNL    H13   38  -0.394   0.015  -0.091
    1UNL    H14   39   0.064   0.308   0.190
    1UNL    H15   40  -0.111   0.409   0.302
    1UNL    H16   41  -0.350   0.364   0.253
    1UNL    H17   42  -0.408   0.235   0.033
    1UNL    H18   43   0.142   0.086   0.143
    1UNL    H19   44   0.393   0.366  -0.082
    1UNL    H20   45   0.449   0.221  -0.177
    1UNL    H21   46   0.359   0.327  -0.258
    1UNL    H22   47   0.247  -0.117   0.018
    1UNL    H23   48   0.183  -0.044  -0.213
    1UNL    H24   49   0.148  -0.208  -0.176
    1UNL    H25   50  -0.050  -0.077  -0.288
   0.00000   0.00000   0.00000   0.00000   0.00000   0.00000   0.00000   0.00000   0.00000
Generated with MDTraj, t= 39.0
 50
    1UNL     C1    1   0.215  -0.175   0.269
    1UNL     C2    2   0.093  -0.215   0.196
    1UNL     C3    3   0.053  -0.177   0.075
    1UNL     C4    4  -0.091  -0.198   0.033
    1UNL     N1    5  -0.118  -0.183  -0.119
    1UNL     C5    6  -0.090  -0.322  -0.180
    1UNL     C6    7  -0.270  -0.149  -0.157
    1UNL     C7    8  -0.319  -0.010  -0.119
    1UNL     C8    9  -0.204   0.080  -0.085
    1UNL     C9   10  -0.069   0.048  -0.117
    1UNL     N2   11   0.012   0.117  -0.028
    1UNL    C10   12  -0.060   0.205   0.054
    1UNL    C11   13  -0.032   0.294   0.158
    1UNL    C12   14  -0.129   0.360   0.219
    1UNL    C13   15  -0.265   0.339   0.180
    1UNL    C14   16  -0.303   0.252   0.083
    1UNL    C15   17  -0.196   0.178   0.017
    1UNL    C16   18   0.134   0.059   0.030
    1UNL    C17   19   0.262   0.123  -0.013
    1UNL     O1   20   0.370   0.113   0.044
    1UNL     O2   21   0.257   0.211  -0.126
    1UNL    C18   22   0.387   0.266  -0.157
    1UNL    C19   23   0.141  -0.091  -0.012
    1UNL    C20   24   0.120  -0.114  -0.159
    1UNL    C21   25  -0.031  -0.077  -0.186
    1UNL     H1   26   0.222  -0.063   0.250
    1UNL     H2   27   0.218  -0.176   0.377
    1UNL     H3   28   0.309  -0.224   0.234
    1UNL     H4   29   0.027  -0.273   0.261
    1UNL     H5   30  -0.154  -0.125   0.080
    1UNL     H6   31  -0.122  -0.298   0.060
    1UNL     H7   32  -0.175  -0.386  -0.170
    1UNL     H8   33   0.004  -0.366  -0.140
    1UNL     H9   34  -0.070  -0.311  -0.285
    1UNL    H10   35  -0.298  -0.157  -0.258
    1UNL    H11   36  -0.320  -0.237  -0.111
    1UNL    H12   37  -0.399   0.036  -0.171
    1UNL    H13   38  -0.368  -0.024  -0.023
    1UNL    H14   39   0.074   0.296   0.195
    1UNL    H15   40  -0.114   0.418   0.309
    1UNL    H16   41  -0.339   0.386   0.242
    1UNL    H17   42  -0.404   0.244   0.050
    1UNL    H18   43   0.128   0.065   0.143
    1UNL    H19   44   0.427   0.304  -0.059
    1UNL    H20   45   0.456   0.197  -0.203
    1UNL    H21   46   0.384   0.341  -0.236
    1UNL    H22   47   0.239  -0.120   0.014
    1UNL    H23   48   0.190  -0.036  -0.211
    1UNL    H24   49   0.145  -0.211  -0.199
    1UNL    H25   50  -0.049  -0.070  -0.297
   0.00000   0.00000   0.00000   0.00000   0.00000   0.00000   0.00000   0.00000   0.00000
Generated with MDTraj, t= 40.0
 50
    1UNL     C1    1   0.221  -0.196   0.268
    1UNL     C2    2   0.081  -0.211   0.199
    1UNL     C3    3   0.054  -0.175   0.073
    1UNL     C4    4  -0.087  -0.218   0.019
    1UNL     N1    5  -0.116  -0.187  -0.134
    1UNL     C5    6  -0.082  -0.308  -0.212
    1UNL     C6    7  -0.270  -0.158  -0.150
    1UNL     C7    8  -0.320  -0.018  -0.098
    1UNL     C8    9  -0.204   0.074  -0.071
    1UNL     C9   10  -0.071   0.046  -0.099
    1UNL     N2   11   0.017   0.110  -0.013
    1UNL    C10   12  -0.069   0.202   0.051
    1UNL    C11   13  -0.030   0.311   0.133
    1UNL    C12   14  -0.127   0.383   0.192
    1UNL    C13   15  -0.261   0.354   0.177
    1UNL    C14   16  -0.298   0.260   0.095
    1UNL    C15   17  -0.204   0.175   0.031
    1UNL    C16   18   0.146   0.049   0.032
    1UNL    C17   19   0.265   0.131  -0.014
    1UNL     O1   20   0.350   0.147   0.068
    1UNL     O2   21   0.261   0.190  -0.131
    1UNL    C18   22   0.382   0.249  -0.156
    1UNL    C19   23   0.150  -0.104  -0.016
    1UNL    C20   24   0.117  -0.096  -0.162
    1UNL    C21   25  -0.036  -0.070  -0.179
    1UNL     H1   26   0.207  -0.088   0.304
    1UNL     H2   27   0.246  -0.257   0.353
    1UNL     H3   28   0.305  -0.205   0.195
    1UNL     H4   29   0.006  -0.261   0.256
    1UNL     H5   30  -0.161  -0.169   0.082
    1UNL     H6   31  -0.098  -0.324   0.026
    1UNL     H7   32  -0.144  -0.392  -0.184
    1UNL     H8   33   0.025  -0.327  -0.195
    1UNL     H9   34  -0.086  -0.294  -0.318
    1UNL    H10   35  -0.302  -0.194  -0.243
    1UNL    H11   36  -0.319  -0.229  -0.080
    1UNL    H12   37  -0.387   0.024  -0.169
    1UNL    H13   38  -0.382  -0.017  -0.009
    1UNL    H14   39   0.072   0.321   0.155
    1UNL    H15   40  -0.096   0.451   0.268
    1UNL    H16   41  -0.331   0.412   0.234
    1UNL    H17   42  -0.400   0.235   0.080
    1UNL    H18   43   0.141   0.052   0.145
    1UNL    H19   44   0.427   0.289  -0.057
    1UNL    H20   45   0.460   0.180  -0.192
    1UNL    H21   46   0.365   0.324  -0.236
    1UNL    H22   47   0.242  -0.149   0.006
    1UNL    H23   48   0.172  -0.012  -0.215
    1UNL    H24   49   0.148  -0.200  -0.206
    1UNL    H25   50  -0.070  -0.057  -0.286
   0.00000   0.00000   0.00000   0.00000   0.00000   0.00000   0.00000   0.00000   0.00000
Generated with MDTraj, t= 41.0
 50
    1UNL     C1    1   0.227  -0.228   0.241
    1UNL     C2    2   0.097  -0.250   0.176
    1UNL     C3    3   0.055  -0.197   0.062
    1UNL     C4    4  -0.086  -0.212   0.023
    1UNL     N1    5  -0.113  -0.189  -0.122
    1UNL     C5    6  -0.084  -0.320  -0.192
    1UNL     C6    7  -0.260  -0.147  -0.154
    1UNL     C7    8  -0.313  -0.018  -0.090
    1UNL     C8    9  -0.203   0.074  -0.067
    1UNL     C9   10  -0.075   0.044  -0.098
    1UNL     N2   11   0.009   0.112  -0.011
    1UNL    C10   12  -0.066   0.219   0.050
    1UNL    C11   13  -0.029   0.322   0.135
    1UNL    C12   14  -0.129   0.388   0.203
    1UNL    C13   15  -0.258   0.354   0.177
    1UNL    C14   16  -0.298   0.269   0.078
    1UNL    C15   17  -0.204   0.197   0.013
    1UNL    C16   18   0.133   0.056   0.040
    1UNL    C17   19   0.253   0.144   0.002
    1UNL     O1   20   0.338   0.184   0.081
    1UNL     O2   21   0.271   0.160  -0.139
    1UNL    C18   22   0.376   0.243  -0.160
    1UNL    C19   23   0.150  -0.096  -0.011
    1UNL    C20   24   0.115  -0.100  -0.159
    1UNL    C21   25  -0.034  -0.069  -0.178
    1UNL     H1   26   0.212  -0.119   0.269
    1UNL     H2   27   0.254  -0.274   0.337
    1UNL     H3   28   0.311  -0.235   0.170
    1UNL     H4   29   0.025  -0.304   0.238
    1UNL     H5   30  -0.142  -0.134   0.078
    1UNL     H6   31  -0.111  -0.311   0.054
    1UNL     H7   32  -0.146  -0.399  -0.146
    1UNL     H8   33   0.017  -0.348  -0.176
    1UNL     H9   34  -0.093  -0.324  -0.299
    1UNL    H10   35  -0.262  -0.131  -0.257
    1UNL    H11   36  -0.322  -0.237  -0.129
    1UNL    H12   37  -0.384   0.045  -0.143
    1UNL    H13   38  -0.361  -0.048   0.001
    1UNL    H14   39   0.076   0.347   0.149
    1UNL    H15   40  -0.112   0.481   0.259
    1UNL    H16   41  -0.339   0.402   0.231
    1UNL    H17   42  -0.407   0.255   0.063
    1UNL    H18   43   0.123   0.064   0.153
    1UNL    H19   44   0.336   0.351  -0.156
    1UNL    H20   45   0.446   0.248  -0.075
    1UNL    H21   46   0.420   0.216  -0.256
    1UNL    H22   47   0.252  -0.119   0.006
    1UNL    H23   48   0.179  -0.030  -0.222
    1UNL    H24   49   0.127  -0.213  -0.197
    1UNL    H25   50  -0.071  -0.056  -0.283
   0.00000   0.00000   0.00000   0.00000   0.00000   0.00000   0.00000   0.00000   0.00000
Generated with MDTraj, t= 42.0
 50
    1UNL     C1    1   0.248  -0.276   0.198
    1UNL     C2    2   0.111  -0.259   0.160
    1UNL     C3    3   0.066  -0.180   0.067
    1UNL     C4    4  -0.096  -0.180   0.045
    1UNL     N1    5  -0.124  -0.182  -0.102
    1UNL     C5    6  -0.089  -0.324  -0.156
    1UNL     C6    7  -0.274  -0.156  -0.126
    1UNL     C7    8  -0.314  -0.006  -0.128
    1UNL     C8    9  -0.207   0.089  -0.089
    1UNL     C9   10  -0.075   0.055  -0.108
    1UNL     N2   11   0.012   0.116  -0.016
    1UNL    C10   12  -0.073   0.206   0.054
    1UNL    C11   13  -0.040   0.297   0.154
    1UNL    C12   14  -0.136   0.371   0.214
    1UNL    C13   15  -0.261   0.366   0.169
    1UNL    C14   16  -0.305   0.270   0.072
    1UNL    C15   17  -0.205   0.191   0.015
    1UNL    C16   18   0.141   0.059   0.025
    1UNL    C17   19   0.253   0.155  -0.003
    1UNL     O1   20   0.296   0.231   0.080
    1UNL     O2   21   0.300   0.136  -0.128
    1UNL    C18   22   0.393   0.234  -0.149
    1UNL    C19   23   0.162  -0.090  -0.011
    1UNL    C20   24   0.118  -0.106  -0.159
    1UNL    C21   25  -0.033  -0.076  -0.173
    1UNL     H1   26   0.293  -0.175   0.178
    1UNL     H2   27   0.267  -0.289   0.306
    1UNL     H3   28   0.311  -0.346   0.139
    1UNL     H4   29   0.030  -0.316   0.201
    1UNL     H5   30  -0.143  -0.094   0.098
    1UNL     H6   31  -0.142  -0.270   0.078
    1UNL     H7   32  -0.169  -0.397  -0.137
    1UNL     H8   33  -0.004  -0.363  -0.112
    1UNL     H9   34  -0.060  -0.327  -0.261
    1UNL    H10   35  -0.297  -0.200  -0.219
    1UNL    H11   36  -0.326  -0.203  -0.040
    1UNL    H12   37  -0.330   0.004  -0.237
    1UNL    H13   38  -0.400   0.022  -0.071
    1UNL    H14   39   0.064   0.330   0.166
    1UNL    H15   40  -0.104   0.451   0.277
    1UNL    H16   41  -0.331   0.443   0.193
    1UNL    H17   42  -0.405   0.264   0.042
    1UNL    H18   43   0.132   0.061   0.137
    1UNL    H19   44   0.342   0.336  -0.143
    1UNL    H20   45   0.463   0.248  -0.067
    1UNL    H21   46   0.439   0.221  -0.244
    1UNL    H22   47   0.263  -0.119  -0.006
    1UNL    H23   48   0.168  -0.018  -0.216
    1UNL    H24   49   0.144  -0.205  -0.207
    1UNL    H25   50  -0.070  -0.069  -0.279
   0.00000   0.00000   0.00000   0.00000   0.00000   0.00000   0.00000   0.00000   0.00000
Generated with MDTraj, t= 43.0
 50
    1UNL     C1    1   0.276  -0.303   0.155
    1UNL     C2    2   0.138  -0.270   0.152
    1UNL     C3    3   0.076  -0.180   0.077
    1UNL     C4    4  -0.070  -0.171   0.053
    1UNL     N1    5  -0.121  -0.175  -0.086
    1UNL     C5    6  -0.121  -0.315  -0.144
    1UNL     C6    7  -0.276  -0.129  -0.082
    1UNL     C7    8  -0.303   0.009  -0.137
    1UNL     C8    9  -0.195   0.091  -0.098
    1UNL     C9   10  -0.066   0.054  -0.124
    1UNL     N2   11   0.004   0.121  -0.024
    1UNL    C10   12  -0.072   0.212   0.043
    1UNL    C11   13  -0.051   0.289   0.159
    1UNL    C12   14  -0.151   0.361   0.214
    1UNL    C13   15  -0.283   0.351   0.163
    1UNL    C14   16  -0.311   0.268   0.061
    1UNL    C15   17  -0.203   0.198  -0.006
    1UNL    C16   18   0.126   0.063   0.032
    1UNL    C17   19   0.242   0.159  -0.002
    1UNL     O1   20   0.253   0.265   0.049
    1UNL     O2   21   0.322   0.114  -0.100
    1UNL    C18   22   0.423   0.209  -0.130
    1UNL    C19   23   0.153  -0.082  -0.007
    1UNL    C20   24   0.114  -0.107  -0.154
    1UNL    C21   25  -0.031  -0.081  -0.174
    1UNL     H1   26   0.315  -0.233   0.231
    1UNL     H2   27   0.297  -0.410   0.187
    1UNL     H3   28   0.325  -0.278   0.059
    1UNL     H4   29   0.074  -0.335   0.210
    1UNL     H5   30  -0.118  -0.081   0.099
    1UNL     H6   31  -0.115  -0.254   0.103
    1UNL     H7   32  -0.184  -0.379  -0.084
    1UNL     H8   33  -0.026  -0.361  -0.150
    1UNL     H9   34  -0.151  -0.313  -0.250
    1UNL    H10   35  -0.325  -0.200  -0.146
    1UNL    H11   36  -0.313  -0.131   0.022
    1UNL    H12   37  -0.303   0.012  -0.249
    1UNL    H13   38  -0.396   0.042  -0.101
    1UNL    H14   39   0.047   0.302   0.193
    1UNL    H15   40  -0.129   0.422   0.303
    1UNL    H16   41  -0.360   0.395   0.228
    1UNL    H17   42  -0.417   0.248   0.038
    1UNL    H18   43   0.121   0.057   0.143
    1UNL    H19   44   0.397   0.311  -0.095
    1UNL    H20   45   0.512   0.189  -0.077
    1UNL    H21   46   0.438   0.211  -0.233
    1UNL    H22   47   0.255  -0.103   0.005
    1UNL    H23   48   0.179  -0.037  -0.225
    1UNL    H24   49   0.129  -0.209  -0.185
    1UNL    H25   50  -0.063  -0.096  -0.280
   0.00000   0.00000   0.00000   0.00000   0.00000   0.00000   0.00000   0.00000   0.00000
Generated with MDTraj, t= 44.0
 50
    1UNL     C1    1   0.285  -0.309   0.124
    1UNL     C2    2   0.144  -0.285   0.120
    1UNL     C3    3   0.081  -0.180   0.066
    1UNL     C4    4  -0.067  -0.168   0.062
    1UNL     N1    5  -0.120  -0.183  -0.084
    1UNL     C5    6  -0.101  -0.329  -0.122
    1UNL     C6    7  -0.277  -0.149  -0.092
    1UNL     C7    8  -0.324  -0.002  -0.134
    1UNL     C8    9  -0.213   0.097  -0.095
    1UNL     C9   10  -0.078   0.065  -0.105
    1UNL     N2   11   0.004   0.140  -0.025
    1UNL    C10   12  -0.084   0.227   0.043
    1UNL    C11   13  -0.060   0.316   0.155
    1UNL    C12   14  -0.160   0.380   0.216
    1UNL    C13   15  -0.292   0.357   0.162
    1UNL    C14   16  -0.314   0.272   0.059
    1UNL    C15   17  -0.215   0.199  -0.004
    1UNL    C16   18   0.131   0.069   0.027
    1UNL    C17   19   0.248   0.152  -0.005
    1UNL     O1   20   0.257   0.265   0.033
    1UNL     O2   21   0.349   0.096  -0.081
    1UNL    C18   22   0.451   0.190  -0.098
    1UNL    C19   23   0.154  -0.084  -0.017
    1UNL    C20   24   0.101  -0.099  -0.159
    1UNL    C21   25  -0.046  -0.071  -0.161
    1UNL     H1   26   0.328  -0.212   0.150
    1UNL     H2   27   0.314  -0.389   0.203
    1UNL     H3   28   0.325  -0.331   0.024
    1UNL     H4   29   0.078  -0.360   0.163
    1UNL     H5   30  -0.103  -0.071   0.099
    1UNL     H6   31  -0.122  -0.239   0.122
    1UNL     H7   32  -0.130  -0.381  -0.035
    1UNL     H8   33   0.006  -0.348  -0.132
    1UNL     H9   34  -0.144  -0.365  -0.215
    1UNL    H10   35  -0.319  -0.223  -0.159
    1UNL    H11   36  -0.310  -0.177   0.008
    1UNL    H12   37  -0.351  -0.006  -0.243
    1UNL    H13   38  -0.412   0.024  -0.088
    1UNL    H14   39   0.046   0.325   0.192
    1UNL    H15   40  -0.153   0.442   0.303
    1UNL    H16   41  -0.371   0.395   0.221
    1UNL    H17   42  -0.411   0.250   0.027
    1UNL    H18   43   0.127   0.068   0.137
    1UNL    H19   44   0.420   0.265  -0.175
    1UNL    H20   45   0.465   0.237  -0.003
    1UNL    H21   46   0.540   0.146  -0.130
    1UNL    H22   47   0.255  -0.107  -0.008
    1UNL    H23   48   0.155  -0.028  -0.234
    1UNL    H24   49   0.123  -0.197  -0.196
    1UNL    H25   50  -0.076  -0.075  -0.268
   0.00000   0.00000   0.00000   0.00000   0.00000   0.00000   0.00000   0.00000   0.00000
Generated with MDTraj, t= 45.0
 50
    1UNL     C1    1   0.284  -0.310   0.129
    1UNL     C2    2   0.138  -0.271   0.126
    1UNL     C3    3   0.067  -0.174   0.064
    1UNL     C4    4  -0.085  -0.176   0.053
    1UNL     N1    5  -0.124  -0.193  -0.099
    1UNL     C5    6  -0.081  -0.324  -0.161
    1UNL     C6    7  -0.277  -0.170  -0.107
    1UNL     C7    8  -0.327  -0.027  -0.091
    1UNL     C8    9  -0.217   0.074  -0.061
    1UNL     C9   10  -0.092   0.054  -0.109
    1UNL     N2   11  -0.001   0.127  -0.033
    1UNL    C10   12  -0.084   0.219   0.039
    1UNL    C11   13  -0.038   0.324   0.125
    1UNL    C12   14  -0.133   0.409   0.185
    1UNL    C13   15  -0.268   0.377   0.164
    1UNL    C14   16  -0.312   0.273   0.085
    1UNL    C15   17  -0.217   0.186   0.024
    1UNL    C16   18   0.125   0.072   0.022
    1UNL    C17   19   0.245   0.160  -0.008
    1UNL     O1   20   0.245   0.276   0.026
    1UNL     O2   21   0.356   0.102  -0.053
    1UNL    C18   22   0.463   0.192  -0.067
    1UNL    C19   23   0.145  -0.077  -0.018
    1UNL    C20   24   0.095  -0.091  -0.167
    1UNL    C21   25  -0.059  -0.076  -0.175
    1UNL     H1   26   0.341  -0.227   0.168
    1UNL     H2   27   0.320  -0.403   0.188
    1UNL     H3   28   0.328  -0.316   0.028
    1UNL     H4   29   0.076  -0.349   0.165
    1UNL     H5   30  -0.133  -0.091   0.101
    1UNL     H6   31  -0.130  -0.265   0.099
    1UNL     H7   32  -0.144  -0.403  -0.133
    1UNL     H8   33   0.023  -0.351  -0.128
    1UNL     H9   34  -0.076  -0.300  -0.265
    1UNL    H10   35  -0.311  -0.225  -0.196
    1UNL    H11   36  -0.311  -0.223  -0.017
    1UNL    H12   37  -0.383   0.010  -0.180
    1UNL    H13   38  -0.399  -0.023  -0.015
    1UNL    H14   39   0.065   0.324   0.128
    1UNL    H15   40  -0.096   0.495   0.241
    1UNL    H16   41  -0.349   0.445   0.201
    1UNL    H17   42  -0.421   0.259   0.082
    1UNL    H18   43   0.094   0.080   0.126
    1UNL    H19   44   0.465   0.232  -0.173
    1UNL    H20   45   0.446   0.267   0.012
    1UNL    H21   46   0.558   0.150  -0.051
    1UNL    H22   47   0.248  -0.095  -0.009
    1UNL    H23   48   0.151  -0.016  -0.227
    1UNL    H24   49   0.131  -0.182  -0.217
    1UNL    H25   50  -0.092  -0.080  -0.280
   0.00000   0.00000   0.00000   0.00000   0.00000   0.00000   0.00000   0.00000   0.00000
Generated with MDTraj, t= 46.0
 50
    1UNL     C1    1   0.286  -0.264   0.165
    1UNL     C2    2   0.146  -0.270   0.132
    1UNL     C3    3   0.082  -0.189   0.043
    1UNL     C4    4  -0.066  -0.201   0.036
    1UNL     N1    5  -0.129  -0.190  -0.111
    1UNL     C5    6  -0.118  -0.318  -0.188
    1UNL     C6    7  -0.286  -0.153  -0.116
    1UNL     C7    8  -0.325  -0.027  -0.052
    1UNL     C8    9  -0.218   0.073  -0.057
    1UNL     C9   10  -0.095   0.048  -0.108
    1UNL     N2   11  -0.003   0.121  -0.038
    1UNL    C10   12  -0.068   0.226   0.034
    1UNL    C11   13  -0.028   0.338   0.105
    1UNL    C12   14  -0.128   0.415   0.166
    1UNL    C13   15  -0.265   0.373   0.168
    1UNL    C14   16  -0.301   0.255   0.097
    1UNL    C15   17  -0.205   0.188   0.030
    1UNL    C16   18   0.122   0.059   0.014
    1UNL    C17   19   0.236   0.150   0.005
    1UNL     O1   20   0.223   0.273   0.013
    1UNL     O2   21   0.363   0.097  -0.023
    1UNL    C18   22   0.449   0.196  -0.049
    1UNL    C19   23   0.153  -0.084  -0.034
    1UNL    C20   24   0.094  -0.093  -0.171
    1UNL    C21   25  -0.055  -0.078  -0.176
    1UNL     H1   26   0.305  -0.167   0.212
    1UNL     H2   27   0.332  -0.347   0.227
    1UNL     H3   28   0.345  -0.249   0.071
    1UNL     H4   29   0.088  -0.347   0.185
    1UNL     H5   30  -0.115  -0.122   0.088
    1UNL     H6   31  -0.095  -0.294   0.090
    1UNL     H7   32  -0.186  -0.386  -0.137
    1UNL     H8   33  -0.018  -0.363  -0.181
    1UNL     H9   34  -0.143  -0.291  -0.287
    1UNL    H10   35  -0.322  -0.151  -0.221
    1UNL    H11   36  -0.328  -0.237  -0.062
    1UNL    H12   37  -0.417   0.017  -0.093
    1UNL    H13   38  -0.349  -0.052   0.050
    1UNL    H14   39   0.076   0.375   0.105
    1UNL    H15   40  -0.091   0.512   0.192
    1UNL    H16   41  -0.335   0.440   0.211
    1UNL    H17   42  -0.404   0.235   0.079
    1UNL    H18   43   0.099   0.054   0.119
    1UNL    H19   44   0.397   0.288  -0.097
    1UNL    H20   45   0.499   0.207   0.052
    1UNL    H21   46   0.517   0.165  -0.127
    1UNL    H22   47   0.258  -0.094  -0.036
    1UNL    H23   48   0.142  -0.025  -0.235
    1UNL    H24   49   0.127  -0.189  -0.219
    1UNL    H25   50  -0.090  -0.076  -0.280
   0.00000   0.00000   0.00000   0.00000   0.00000   0.00000   0.00000   0.00000   0.00000
Generated with MDTraj, t= 47.0
 50
    1UNL     C1    1   0.281  -0.206   0.180
    1UNL     C2    2   0.142  -0.235   0.139
    1UNL     C3    3   0.075  -0.183   0.032
    1UNL     C4    4  -0.076  -0.209   0.033
    1UNL     N1    5  -0.131  -0.196  -0.110
    1UNL     C5    6  -0.098  -0.317  -0.188
    1UNL     C6    7  -0.283  -0.173  -0.115
    1UNL     C7    8  -0.331  -0.035  -0.069
    1UNL     C8    9  -0.227   0.069  -0.047
    1UNL     C9   10  -0.100   0.041  -0.088
    1UNL     N2   11  -0.005   0.126  -0.031
    1UNL    C10   12  -0.081   0.219   0.033
    1UNL    C11   13  -0.037   0.317   0.117
    1UNL    C12   14  -0.120   0.398   0.186
    1UNL    C13   15  -0.259   0.376   0.169
    1UNL    C14   16  -0.313   0.269   0.096
    1UNL    C15   17  -0.216   0.189   0.027
    1UNL    C16   18   0.124   0.065   0.015
    1UNL    C17   19   0.253   0.152  -0.015
    1UNL     O1   20   0.251   0.272   0.014
    1UNL     O2   21   0.363   0.085  -0.047
    1UNL    C18   22   0.477   0.165  -0.027
    1UNL    C19   23   0.143  -0.084  -0.052
    1UNL    C20   24   0.083  -0.079  -0.196
    1UNL    C21   25  -0.065  -0.077  -0.179
    1UNL     H1   26   0.309  -0.105   0.141
    1UNL     H2   27   0.299  -0.206   0.288
    1UNL     H3   28   0.350  -0.276   0.124
    1UNL     H4   29   0.087  -0.299   0.203
    1UNL     H5   30  -0.115  -0.140   0.104
    1UNL     H6   31  -0.110  -0.309   0.072
    1UNL     H7   32  -0.137  -0.404  -0.132
    1UNL     H8   33   0.006  -0.327  -0.177
    1UNL     H9   34  -0.129  -0.302  -0.290
    1UNL    H10   35  -0.319  -0.205  -0.216
    1UNL    H11   36  -0.326  -0.246  -0.049
    1UNL    H12   37  -0.419  -0.001  -0.123
    1UNL    H13   38  -0.365  -0.042   0.037
    1UNL    H14   39   0.074   0.327   0.108
    1UNL    H15   40  -0.078   0.480   0.247
    1UNL    H16   41  -0.328   0.445   0.222
    1UNL    H17   42  -0.419   0.250   0.082
    1UNL    H18   43   0.117   0.049   0.119
    1UNL    H19   44   0.464   0.257  -0.094
    1UNL    H20   45   0.469   0.183   0.084
    1UNL    H21   46   0.571   0.121  -0.058
    1UNL    H22   47   0.245  -0.113  -0.052
    1UNL    H23   48   0.112   0.006  -0.246
    1UNL    H24   49   0.120  -0.164  -0.259
    1UNL    H25   50  -0.124  -0.060  -0.268
   0.00000   0.00000   0.00000   0.00000   0.00000   0.00000   0.00000   0.00000   0.00000
Generated with MDTraj, t= 48.0
 50
    1UNL     C1    1   0.272  -0.186   0.174
    1UNL     C2    2   0.134  -0.219   0.163
    1UNL     C3    3   0.069  -0.177   0.050
    1UNL     C4    4  -0.080  -0.195   0.037
    1UNL     N1    5  -0.130  -0.186  -0.103
    1UNL     C5    6  -0.111  -0.322  -0.174
    1UNL     C6    7  -0.285  -0.160  -0.106
    1UNL     C7    8  -0.339  -0.017  -0.094
    1UNL     C8    9  -0.220   0.076  -0.067
    1UNL     C9   10  -0.088   0.045  -0.108
    1UNL     N2   11   0.005   0.126  -0.043
    1UNL    C10   12  -0.071   0.223   0.025
    1UNL    C11   13  -0.033   0.317   0.125
    1UNL    C12   14  -0.126   0.376   0.204
    1UNL    C13   15  -0.269   0.338   0.193
    1UNL    C14   16  -0.306   0.249   0.096
    1UNL    C15   17  -0.208   0.191   0.015
    1UNL    C16   18   0.130   0.066   0.010
    1UNL    C17   19   0.252   0.148  -0.004
    1UNL     O1   20   0.251   0.270   0.014
    1UNL     O2   21   0.361   0.079  -0.044
    1UNL    C18   22   0.472   0.165  -0.056
    1UNL    C19   23   0.144  -0.083  -0.047
    1UNL    C20   24   0.089  -0.089  -0.194
    1UNL    C21   25  -0.060  -0.077  -0.186
    1UNL     H1   26   0.294  -0.075   0.160
    1UNL     H2   27   0.322  -0.214   0.266
    1UNL     H3   28   0.327  -0.240   0.092
    1UNL     H4   29   0.090  -0.280   0.245
    1UNL     H5   30  -0.134  -0.129   0.100
    1UNL     H6   31  -0.091  -0.299   0.078
    1UNL     H7   32  -0.168  -0.403  -0.126
    1UNL     H8   33  -0.013  -0.349  -0.162
    1UNL     H9   34  -0.133  -0.306  -0.279
    1UNL    H10   35  -0.328  -0.215  -0.194
    1UNL    H11   36  -0.320  -0.219  -0.024
    1UNL    H12   37  -0.374   0.018  -0.189
    1UNL    H13   38  -0.433  -0.013  -0.030
    1UNL    H14   39   0.066   0.340   0.138
    1UNL    H15   40  -0.098   0.434   0.286
    1UNL    H16   41  -0.331   0.360   0.274
    1UNL    H17   42  -0.394   0.186   0.101
    1UNL    H18   43   0.124   0.053   0.114
    1UNL    H19   44   0.462   0.217  -0.155
    1UNL    H20   45   0.467   0.227   0.036
    1UNL    H21   46   0.562   0.108  -0.065
    1UNL    H22   47   0.247  -0.113  -0.049
    1UNL    H23   48   0.132  -0.012  -0.248
    1UNL    H24   49   0.105  -0.189  -0.240
    1UNL    H25   50  -0.114  -0.073  -0.280
   0.00000   0.00000   0.00000   0.00000   0.00000   0.00000   0.00000   0.00000   0.00000
Generated with MDTraj, t= 49.0
 50
    1UNL     C1    1   0.258  -0.242   0.212
    1UNL     C2    2   0.122  -0.242   0.159
    1UNL     C3    3   0.072  -0.171   0.057
    1UNL     C4    4  -0.084  -0.171   0.043
    1UNL     N1    5  -0.132  -0.179  -0.095
    1UNL     C5    6  -0.106  -0.324  -0.147
    1UNL     C6    7  -0.289  -0.152  -0.107
    1UNL     C7    8  -0.330  -0.002  -0.116
    1UNL     C8    9  -0.210   0.085  -0.090
    1UNL     C9   10  -0.081   0.057  -0.129
    1UNL     N2   11   0.008   0.128  -0.043
    1UNL    C10   12  -0.068   0.211   0.041
    1UNL    C11   13  -0.023   0.299   0.138
    1UNL    C12   14  -0.123   0.349   0.221
    1UNL    C13   15  -0.262   0.324   0.193
    1UNL    C14   16  -0.303   0.248   0.092
    1UNL    C15   17  -0.204   0.185   0.018
    1UNL    C16   18   0.131   0.070   0.016
    1UNL    C17   19   0.245   0.162  -0.018
    1UNL     O1   20   0.227   0.282  -0.003
    1UNL     O2   21   0.349   0.099  -0.076
    1UNL    C18   22   0.460   0.186  -0.082
    1UNL    C19   23   0.153  -0.084  -0.030
    1UNL    C20   24   0.110  -0.100  -0.183
    1UNL    C21   25  -0.049  -0.074  -0.186
    1UNL     H1   26   0.299  -0.140   0.247
    1UNL     H2   27   0.265  -0.311   0.294
    1UNL     H3   28   0.329  -0.278   0.135
    1UNL     H4   29   0.047  -0.284   0.220
    1UNL     H5   30  -0.107  -0.076   0.085
    1UNL     H6   31  -0.139  -0.246   0.103
    1UNL     H7   32  -0.177  -0.390  -0.099
    1UNL     H8   33  -0.011  -0.359  -0.113
    1UNL     H9   34  -0.106  -0.334  -0.254
    1UNL    H10   35  -0.317  -0.198  -0.207
    1UNL    H11   36  -0.352  -0.197  -0.034
    1UNL    H12   37  -0.375   0.013  -0.210
    1UNL    H13   38  -0.410   0.026  -0.037
    1UNL    H14   39   0.089   0.320   0.141
    1UNL    H15   40  -0.099   0.429   0.296
    1UNL    H16   41  -0.346   0.353   0.261
    1UNL    H17   42  -0.404   0.213   0.078
    1UNL    H18   43   0.123   0.079   0.122
    1UNL    H19   44   0.426   0.269  -0.145
    1UNL    H20   45   0.471   0.222   0.019
    1UNL    H21   46   0.544   0.139  -0.124
    1UNL    H22   47   0.259  -0.110  -0.026
    1UNL    H23   48   0.163  -0.031  -0.242
    1UNL    H24   49   0.137  -0.200  -0.213
    1UNL    H25   50  -0.083  -0.074  -0.288
   0.00000   0.00000   0.00000   0.00000   0.00000   0.00000   0.00000   0.00000   0.00000
Generated with MDTraj, t= 50.0
 50
    1UNL     C1    1   0.258  -0.289   0.193
    1UNL     C2    2   0.112  -0.259   0.168
    1UNL     C3    3   0.057  -0.163   0.085
    1UNL     C4    4  -0.093  -0.169   0.051
    1UNL     N1    5  -0.126  -0.178  -0.099
    1UNL     C5    6  -0.095  -0.323  -0.149
    1UNL     C6    7  -0.279  -0.149  -0.135
    1UNL     C7    8  -0.316   0.005  -0.136
    1UNL     C8    9  -0.205   0.088  -0.082
    1UNL     C9   10  -0.077   0.049  -0.108
    1UNL     N2   11   0.008   0.119  -0.018
    1UNL    C10   12  -0.074   0.207   0.062
    1UNL    C11   13  -0.046   0.287   0.167
    1UNL    C12   14  -0.149   0.355   0.233
    1UNL    C13   15  -0.277   0.347   0.184
    1UNL    C14   16  -0.308   0.264   0.075
    1UNL    C15   17  -0.205   0.186   0.025
    1UNL    C16   18   0.144   0.077   0.031
    1UNL    C17   19   0.255   0.160  -0.029
    1UNL     O1   20   0.245   0.279  -0.007
    1UNL     O2   21   0.361   0.104  -0.099
    1UNL    C18   22   0.447   0.200  -0.151
    1UNL    C19   23   0.143  -0.073  -0.004
    1UNL    C20   24   0.118  -0.100  -0.155
    1UNL    C21   25  -0.039  -0.075  -0.178
    1UNL     H1   26   0.323  -0.198   0.202
    1UNL     H2   27   0.273  -0.355   0.279
    1UNL     H3   28   0.295  -0.339   0.102
    1UNL     H4   29   0.048  -0.333   0.222
    1UNL     H5   30  -0.147  -0.086   0.096
    1UNL     H6   31  -0.124  -0.259   0.106
    1UNL     H7   32  -0.162  -0.391  -0.107
    1UNL     H8   33   0.004  -0.356  -0.108
    1UNL     H9   34  -0.086  -0.337  -0.254
    1UNL    H10   35  -0.304  -0.192  -0.237
    1UNL    H11   36  -0.344  -0.203  -0.069
    1UNL    H12   37  -0.323   0.038  -0.237
    1UNL    H13   38  -0.420   0.021  -0.089
    1UNL    H14   39   0.051   0.325   0.176
    1UNL    H15   40  -0.123   0.435   0.295
    1UNL    H16   41  -0.348   0.418   0.209
    1UNL    H17   42  -0.405   0.250   0.027
    1UNL    H18   43   0.153   0.089   0.137
    1UNL    H19   44   0.376   0.274  -0.195
    1UNL    H20   45   0.495   0.250  -0.070
    1UNL    H21   46   0.506   0.155  -0.225
    1UNL    H22   47   0.252  -0.102  -0.004
    1UNL    H23   48   0.175  -0.025  -0.208
    1UNL    H24   49   0.153  -0.196  -0.181
    1UNL    H25   50  -0.052  -0.084  -0.284
   0.00000   0.00000   0.00000   0.00000   0.00000   0.00000   0.00000   0.00000   0.00000
Generated with MDTraj, t= 51.0
 50
    1UNL     C1    1   0.267  -0.289   0.194
    1UNL     C2    2   0.121  -0.283   0.161
    1UNL     C3    3   0.075  -0.189   0.075
    1UNL     C4    4  -0.078  -0.183   0.047
    1UNL     N1    5  -0.111  -0.169  -0.098
    1UNL     C5    6  -0.069  -0.303  -0.160
    1UNL     C6    7  -0.262  -0.141  -0.122
    1UNL     C7    8  -0.305   0.007  -0.141
    1UNL     C8    9  -0.198   0.100  -0.092
    1UNL     C9   10  -0.066   0.062  -0.098
    1UNL     N2   11   0.006   0.127   0.004
    1UNL    C10   12  -0.072   0.223   0.066
    1UNL    C11   13  -0.053   0.305   0.176
    1UNL    C12   14  -0.165   0.369   0.222
    1UNL    C13   15  -0.295   0.354   0.172
    1UNL    C14   16  -0.315   0.273   0.064
    1UNL    C15   17  -0.203   0.203   0.013
    1UNL    C16   18   0.134   0.068   0.053
    1UNL    C17   19   0.246   0.141  -0.019
    1UNL     O1   20   0.249   0.256   0.014
    1UNL     O2   21   0.325   0.075  -0.117
    1UNL    C18   22   0.391   0.173  -0.188
    1UNL    C19   23   0.154  -0.080   0.009
    1UNL    C20   24   0.123  -0.089  -0.146
    1UNL    C21   25  -0.032  -0.055  -0.166
    1UNL     H1   26   0.310  -0.201   0.245
    1UNL     H2   27   0.300  -0.377   0.257
    1UNL     H3   28   0.322  -0.293   0.100
    1UNL     H4   29   0.048  -0.334   0.216
    1UNL     H5   30  -0.107  -0.090   0.101
    1UNL     H6   31  -0.141  -0.260   0.091
    1UNL     H7   32  -0.102  -0.388  -0.111
    1UNL     H8   33   0.042  -0.318  -0.165
    1UNL     H9   34  -0.095  -0.309  -0.262
    1UNL    H10   35  -0.289  -0.214  -0.206
    1UNL    H11   36  -0.323  -0.183  -0.046
    1UNL    H12   37  -0.322   0.032  -0.244
    1UNL    H13   38  -0.405   0.036  -0.093
    1UNL    H14   39   0.046   0.338   0.210
    1UNL    H15   40  -0.148   0.446   0.302
    1UNL    H16   41  -0.382   0.404   0.221
    1UNL    H17   42  -0.407   0.272   0.011
    1UNL    H18   43   0.143   0.073   0.161
    1UNL    H19   44   0.305   0.215  -0.248
    1UNL    H20   45   0.410   0.256  -0.119
    1UNL    H21   46   0.474   0.136  -0.247
    1UNL    H22   47   0.266  -0.106   0.015
    1UNL    H23   48   0.183  -0.016  -0.200
    1UNL    H24   49   0.150  -0.181  -0.181
    1UNL    H25   50  -0.046  -0.042  -0.271
   0.00000   0.00000   0.00000   0.00000   0.00000   0.00000   0.00000   0.00000   0.00000
Generated with MDTraj, t= 52.0
 50
    1UNL     C1    1   0.262  -0.273   0.191
    1UNL     C2    2   0.115  -0.266   0.162
    1UNL     C3    3   0.055  -0.180   0.077
    1UNL     C4    4  -0.089  -0.185   0.047
    1UNL     N1    5  -0.120  -0.178  -0.102
    1UNL     C5    6  -0.106  -0.319  -0.163
    1UNL     C6    7  -0.274  -0.152  -0.121
    1UNL     C7    8  -0.308  -0.001  -0.133
    1UNL     C8    9  -0.196   0.086  -0.081
    1UNL     C9   10  -0.064   0.051  -0.098
    1UNL     N2   11   0.016   0.114  -0.006
    1UNL    C10   12  -0.068   0.201   0.064
    1UNL    C11   13  -0.045   0.292   0.173
    1UNL    C12   14  -0.146   0.375   0.205
    1UNL    C13   15  -0.277   0.371   0.150
    1UNL    C14   16  -0.309   0.273   0.069
    1UNL    C15   17  -0.202   0.183   0.024
    1UNL    C16   18   0.145   0.065   0.042
    1UNL    C17   19   0.252   0.159  -0.014
    1UNL     O1   20   0.266   0.263   0.041
    1UNL     O2   21   0.312   0.121  -0.128
    1UNL    C18   22   0.408   0.213  -0.163
    1UNL    C19   23   0.150  -0.086  -0.004
    1UNL    C20   24   0.125  -0.104  -0.155
    1UNL    C21   25  -0.030  -0.074  -0.171
    1UNL     H1   26   0.312  -0.181   0.212
    1UNL     H2   27   0.291  -0.344   0.276
    1UNL     H3   28   0.307  -0.311   0.099
    1UNL     H4   29   0.053  -0.333   0.224
    1UNL     H5   30  -0.140  -0.095   0.092
    1UNL     H6   31  -0.133  -0.267   0.102
    1UNL     H7   32  -0.191  -0.375  -0.131
    1UNL     H8   33  -0.021  -0.374  -0.122
    1UNL     H9   34  -0.097  -0.327  -0.268
    1UNL    H10   35  -0.325  -0.219  -0.198
    1UNL    H11   36  -0.316  -0.203  -0.036
    1UNL    H12   37  -0.327   0.023  -0.239
    1UNL    H13   38  -0.404   0.032  -0.083
    1UNL    H14   39   0.047   0.288   0.229
    1UNL    H15   40  -0.144   0.438   0.288
    1UNL    H16   41  -0.355   0.416   0.203
    1UNL    H17   42  -0.410   0.251   0.033
    1UNL    H18   43   0.161   0.071   0.150
    1UNL    H19   44   0.348   0.304  -0.189
    1UNL    H20   45   0.474   0.247  -0.080
    1UNL    H21   46   0.466   0.168  -0.247
    1UNL    H22   47   0.259  -0.121   0.020
    1UNL    H23   48   0.181  -0.025  -0.207
    1UNL    H24   49   0.148  -0.201  -0.181
    1UNL    H25   50  -0.056  -0.070  -0.274
   0.00000   0.00000   0.00000   0.00000   0.00000   0.00000   0.00000   0.00000   0.00000
Generated with MDTraj, t= 53.0
 50
    1UNL     C1    1   0.252  -0.257   0.210
    1UNL     C2    2   0.112  -0.255   0.165
    1UNL     C3    3   0.075  -0.181   0.063
    1UNL     C4    4  -0.073  -0.183   0.048
    1UNL     N1    5  -0.125  -0.191  -0.098
    1UNL     C5    6  -0.103  -0.334  -0.145
    1UNL     C6    7  -0.273  -0.168  -0.119
    1UNL     C7    8  -0.324  -0.018  -0.108
    1UNL     C8    9  -0.212   0.082  -0.085
    1UNL     C9   10  -0.082   0.048  -0.117
    1UNL     N2   11   0.009   0.130  -0.049
    1UNL    C10   12  -0.064   0.224   0.024
    1UNL    C11   13  -0.020   0.302   0.131
    1UNL    C12   14  -0.117   0.367   0.198
    1UNL    C13   15  -0.252   0.360   0.172
    1UNL    C14   16  -0.295   0.272   0.080
    1UNL    C15   17  -0.206   0.193   0.007
    1UNL    C16   18   0.124   0.062   0.023
    1UNL    C17   19   0.243   0.154   0.010
    1UNL     O1   20   0.280   0.230   0.095
    1UNL     O2   21   0.310   0.140  -0.115
    1UNL    C18   22   0.408   0.240  -0.129
    1UNL    C19   23   0.147  -0.084  -0.028
    1UNL    C20   24   0.109  -0.100  -0.178
    1UNL    C21   25  -0.048  -0.086  -0.183
    1UNL     H1   26   0.300  -0.162   0.207
    1UNL     H2   27   0.262  -0.301   0.313
    1UNL     H3   28   0.300  -0.318   0.131
    1UNL     H4   29   0.036  -0.307   0.217
    1UNL     H5   30  -0.114  -0.091   0.102
    1UNL     H6   31  -0.127  -0.256   0.107
    1UNL     H7   32  -0.183  -0.401  -0.109
    1UNL     H8   33  -0.010  -0.370  -0.113
    1UNL     H9   34  -0.096  -0.336  -0.251
    1UNL    H10   35  -0.308  -0.218  -0.215
    1UNL    H11   36  -0.326  -0.220  -0.041
    1UNL    H12   37  -0.385   0.017  -0.196
    1UNL    H13   38  -0.392  -0.022  -0.020
    1UNL    H14   39   0.082   0.301   0.161
    1UNL    H15   40  -0.094   0.430   0.287
    1UNL    H16   41  -0.325   0.419   0.235
    1UNL    H17   42  -0.397   0.242   0.078
    1UNL    H18   43   0.095   0.066   0.131
    1UNL    H19   44   0.371   0.333  -0.080
    1UNL    H20   45   0.496   0.218  -0.064
    1UNL    H21   46   0.439   0.256  -0.235
    1UNL    H22   47   0.262  -0.109  -0.018
    1UNL    H23   48   0.158  -0.018  -0.233
    1UNL    H24   49   0.137  -0.197  -0.207
    1UNL    H25   50  -0.089  -0.092  -0.281
   0.00000   0.00000   0.00000   0.00000   0.00000   0.00000   0.00000   0.00000   0.00000
Generated with MDTraj, t= 54.0
 50
    1UNL     C1    1   0.272  -0.234   0.204
    1UNL     C2    2   0.130  -0.238   0.168
    1UNL     C3    3   0.066  -0.184   0.064
    1UNL     C4    4  -0.081  -0.197   0.052
    1UNL     N1    5  -0.129  -0.196  -0.096
    1UNL     C5    6  -0.110  -0.340  -0.153
    1UNL     C6    7  -0.277  -0.164  -0.129
    1UNL     C7    8  -0.324  -0.020  -0.088
    1UNL     C8    9  -0.216   0.079  -0.079
    1UNL     C9   10  -0.087   0.046  -0.114
    1UNL     N2   11   0.011   0.132  -0.059
    1UNL    C10   12  -0.064   0.232   0.008
    1UNL    C11   13  -0.024   0.335   0.097
    1UNL    C12   14  -0.121   0.391   0.181
    1UNL    C13   15  -0.252   0.351   0.182
    1UNL    C14   16  -0.299   0.256   0.093
    1UNL    C15   17  -0.202   0.199   0.005
    1UNL    C16   18   0.121   0.057   0.014
    1UNL    C17   19   0.246   0.142   0.008
    1UNL     O1   20   0.292   0.181   0.110
    1UNL     O2   21   0.309   0.163  -0.111
    1UNL    C18   22   0.418   0.243  -0.089
    1UNL    C19   23   0.141  -0.087  -0.035
    1UNL    C20   24   0.098  -0.106  -0.183
    1UNL    C21   25  -0.051  -0.090  -0.175
    1UNL     H1   26   0.312  -0.136   0.223
    1UNL     H2   27   0.307  -0.301   0.283
    1UNL     H3   28   0.317  -0.268   0.109
    1UNL     H4   29   0.071  -0.301   0.235
    1UNL     H5   30  -0.144  -0.130   0.119
    1UNL     H6   31  -0.109  -0.292   0.095
    1UNL     H7   32  -0.178  -0.406  -0.098
    1UNL     H8   33  -0.015  -0.382  -0.157
    1UNL     H9   34  -0.143  -0.334  -0.255
    1UNL    H10   35  -0.292  -0.177  -0.240
    1UNL    H11   36  -0.342  -0.236  -0.083
    1UNL    H12   37  -0.407   0.017  -0.160
    1UNL    H13   38  -0.363  -0.023   0.015
    1UNL    H14   39   0.076   0.383   0.091
    1UNL    H15   40  -0.094   0.484   0.217
    1UNL    H16   41  -0.318   0.406   0.241
    1UNL    H17   42  -0.405   0.233   0.104
    1UNL    H18   43   0.075   0.064   0.118
    1UNL    H19   44   0.397   0.342  -0.048
    1UNL    H20   45   0.480   0.190  -0.016
    1UNL    H21   46   0.479   0.249  -0.180
    1UNL    H22   47   0.256  -0.113  -0.033
    1UNL    H23   48   0.141  -0.024  -0.240
    1UNL    H24   49   0.126  -0.204  -0.219
    1UNL    H25   50  -0.097  -0.097  -0.271
   0.00000   0.00000   0.00000   0.00000   0.00000   0.00000   0.00000   0.00000   0.00000
Generated with MDTraj, t= 55.0
 50
    1UNL     C1    1   0.268  -0.220   0.189
    1UNL     C2    2   0.130  -0.243   0.155
    1UNL     C3    3   0.065  -0.184   0.060
    1UNL     C4    4  -0.087  -0.204   0.046
    1UNL     N1    5  -0.133  -0.197  -0.102
    1UNL     C5    6  -0.089  -0.324  -0.174
    1UNL     C6    7  -0.280  -0.174  -0.102
    1UNL     C7    8  -0.327  -0.032  -0.069
    1UNL     C8    9  -0.216   0.071  -0.065
    1UNL     C9   10  -0.091   0.048  -0.110
    1UNL     N2   11   0.004   0.112  -0.030
    1UNL    C10   12  -0.064   0.213   0.035
    1UNL    C11   13  -0.023   0.324   0.110
    1UNL    C12   14  -0.121   0.404   0.160
    1UNL    C13   15  -0.258   0.381   0.142
    1UNL    C14   16  -0.298   0.270   0.065
    1UNL    C15   17  -0.202   0.188   0.010
    1UNL    C16   18   0.130   0.051   0.024
    1UNL    C17   19   0.253   0.137   0.012
    1UNL     O1   20   0.307   0.164   0.116
    1UNL     O2   21   0.298   0.180  -0.109
    1UNL    C18   22   0.423   0.238  -0.090
    1UNL    C19   23   0.142  -0.089  -0.034
    1UNL    C20   24   0.089  -0.092  -0.183
    1UNL    C21   25  -0.061  -0.082  -0.181
    1UNL     H1   26   0.303  -0.116   0.177
    1UNL     H2   27   0.298  -0.253   0.286
    1UNL     H3   28   0.322  -0.283   0.117
    1UNL     H4   29   0.075  -0.310   0.217
    1UNL     H5   30  -0.137  -0.119   0.102
    1UNL     H6   31  -0.131  -0.289   0.099
    1UNL     H7   32  -0.136  -0.411  -0.133
    1UNL     H8   33   0.017  -0.337  -0.163
    1UNL     H9   34  -0.109  -0.313  -0.278
    1UNL    H10   35  -0.316  -0.195  -0.205
    1UNL    H11   36  -0.318  -0.258  -0.043
    1UNL    H12   37  -0.406   0.010  -0.144
    1UNL    H13   38  -0.373  -0.024   0.029
    1UNL    H14   39   0.071   0.371   0.102
    1UNL    H15   40  -0.096   0.504   0.207
    1UNL    H16   41  -0.331   0.449   0.193
    1UNL    H17   42  -0.405   0.249   0.057
    1UNL    H18   43   0.107   0.046   0.136
    1UNL    H19   44   0.432   0.324  -0.025
    1UNL    H20   45   0.480   0.156  -0.054
    1UNL    H21   46   0.472   0.269  -0.182
    1UNL    H22   47   0.253  -0.121  -0.027
    1UNL    H23   48   0.130  -0.006  -0.231
    1UNL    H24   49   0.129  -0.181  -0.236
    1UNL    H25   50  -0.097  -0.070  -0.281
   0.00000   0.00000   0.00000   0.00000   0.00000   0.00000   0.00000   0.00000   0.00000
Generated with MDTraj, t= 56.0
 50
    1UNL     C1    1   0.285  -0.239   0.195
    1UNL     C2    2   0.142  -0.277   0.150
    1UNL     C3    3   0.072  -0.204   0.065
    1UNL     C4    4  -0.080  -0.211   0.040
    1UNL     N1    5  -0.129  -0.193  -0.107
    1UNL     C5    6  -0.100  -0.322  -0.173
    1UNL     C6    7  -0.286  -0.164  -0.110
    1UNL     C7    8  -0.329  -0.012  -0.085
    1UNL     C8    9  -0.209   0.083  -0.082
    1UNL     C9   10  -0.078   0.048  -0.103
    1UNL     N2   11   0.004   0.113  -0.014
    1UNL    C10   12  -0.067   0.212   0.042
    1UNL    C11   13  -0.028   0.327   0.122
    1UNL    C12   14  -0.124   0.414   0.165
    1UNL    C13   15  -0.259   0.381   0.128
    1UNL    C14   16  -0.296   0.278   0.052
    1UNL    C15   17  -0.200   0.190   0.007
    1UNL    C16   18   0.132   0.053   0.041
    1UNL    C17   19   0.250   0.140   0.017
    1UNL     O1   20   0.315   0.174   0.115
    1UNL     O2   21   0.272   0.164  -0.116
    1UNL    C18   22   0.385   0.247  -0.126
    1UNL    C19   23   0.145  -0.091  -0.010
    1UNL    C20   24   0.102  -0.091  -0.159
    1UNL    C21   25  -0.048  -0.078  -0.170
    1UNL     H1   26   0.296  -0.135   0.229
    1UNL     H2   27   0.321  -0.303   0.270
    1UNL     H3   28   0.344  -0.257   0.105
    1UNL     H4   29   0.092  -0.354   0.205
    1UNL     H5   30  -0.133  -0.129   0.096
    1UNL     H6   31  -0.125  -0.301   0.087
    1UNL     H7   32  -0.171  -0.390  -0.139
    1UNL     H8   33   0.002  -0.361  -0.159
    1UNL     H9   34  -0.111  -0.301  -0.277
    1UNL    H10   35  -0.308  -0.197  -0.214
    1UNL    H11   36  -0.339  -0.228  -0.040
    1UNL    H12   37  -0.402   0.031  -0.166
    1UNL    H13   38  -0.382  -0.002   0.010
    1UNL    H14   39   0.082   0.346   0.127
    1UNL    H15   40  -0.106   0.491   0.234
    1UNL    H16   41  -0.335   0.429   0.184
    1UNL    H17   42  -0.399   0.259   0.036
    1UNL    H18   43   0.120   0.046   0.155
    1UNL    H19   44   0.389   0.335  -0.060
    1UNL    H20   45   0.467   0.183  -0.105
    1UNL    H21   46   0.404   0.297  -0.222
    1UNL    H22   47   0.257  -0.107   0.003
    1UNL    H23   48   0.160  -0.020  -0.210
    1UNL    H24   49   0.128  -0.195  -0.197
    1UNL    H25   50  -0.070  -0.064  -0.273
   0.00000   0.00000   0.00000   0.00000   0.00000   0.00000   0.00000   0.00000   0.00000
Generated with MDTraj, t= 57.0
 50
    1UNL     C1    1   0.263  -0.326   0.200
    1UNL     C2    2   0.120  -0.277   0.168
    1UNL     C3    3   0.068  -0.190   0.081
    1UNL     C4    4  -0.080  -0.185   0.052
    1UNL     N1    5  -0.124  -0.190  -0.097
    1UNL     C5    6  -0.093  -0.331  -0.148
    1UNL     C6    7  -0.270  -0.151  -0.120
    1UNL     C7    8  -0.313  -0.007  -0.138
    1UNL     C8    9  -0.206   0.084  -0.088
    1UNL     C9   10  -0.075   0.042  -0.101
    1UNL     N2   11   0.003   0.115  -0.017
    1UNL    C10   12  -0.073   0.211   0.047
    1UNL    C11   13  -0.033   0.312   0.143
    1UNL    C12   14  -0.128   0.401   0.187
    1UNL    C13   15  -0.264   0.384   0.148
    1UNL    C14   16  -0.296   0.285   0.061
    1UNL    C15   17  -0.206   0.189   0.011
    1UNL    C16   18   0.138   0.064   0.037
    1UNL    C17   19   0.249   0.154  -0.004
    1UNL     O1   20   0.316   0.196   0.090
    1UNL     O2   21   0.274   0.173  -0.136
    1UNL    C18   22   0.369   0.271  -0.155
    1UNL    C19   23   0.153  -0.088  -0.001
    1UNL    C20   24   0.118  -0.101  -0.153
    1UNL    C21   25  -0.038  -0.082  -0.168
    1UNL     H1   26   0.342  -0.251   0.215
    1UNL     H2   27   0.268  -0.390   0.284
    1UNL     H3   28   0.289  -0.389   0.117
    1UNL     H4   29   0.045  -0.337   0.220
    1UNL     H5   30  -0.122  -0.097   0.103
    1UNL     H6   31  -0.123  -0.277   0.103
    1UNL     H7   32  -0.156  -0.393  -0.093
    1UNL     H8   33   0.009  -0.364  -0.120
    1UNL     H9   34  -0.101  -0.346  -0.253
    1UNL    H10   35  -0.299  -0.196  -0.218
    1UNL    H11   36  -0.321  -0.200  -0.033
    1UNL    H12   37  -0.327   0.013  -0.251
    1UNL    H13   38  -0.412   0.008  -0.092
    1UNL    H14   39   0.065   0.306   0.178
    1UNL    H15   40  -0.102   0.486   0.252
    1UNL    H16   41  -0.344   0.440   0.194
    1UNL    H17   42  -0.400   0.268   0.028
    1UNL    H18   43   0.124   0.068   0.150
    1UNL    H19   44   0.326   0.372  -0.135
    1UNL    H20   45   0.459   0.259  -0.095
    1UNL    H21   46   0.403   0.281  -0.260
    1UNL    H22   47   0.256  -0.117   0.023
    1UNL    H23   48   0.171  -0.027  -0.203
    1UNL    H24   49   0.160  -0.201  -0.193
    1UNL    H25   50  -0.063  -0.077  -0.271
   0.00000   0.00000   0.00000   0.00000   0.00000   0.00000   0.00000   0.00000   0.00000
Generated with MDTraj, t= 58.0
 50
    1UNL     C1    1   0.241  -0.315   0.175
    1UNL     C2    2   0.100  -0.268   0.165
    1UNL     C3    3   0.069  -0.175   0.081
    1UNL     C4    4  -0.080  -0.166   0.057
    1UNL     N1    5  -0.115  -0.181  -0.086
    1UNL     C5    6  -0.100  -0.328  -0.116
    1UNL     C6    7  -0.264  -0.141  -0.115
    1UNL     C7    8  -0.296   0.011  -0.145
    1UNL     C8    9  -0.185   0.101  -0.101
    1UNL     C9   10  -0.058   0.055  -0.116
    1UNL     N2   11   0.017   0.122  -0.021
    1UNL    C10   12  -0.060   0.224   0.041
    1UNL    C11   13  -0.044   0.290   0.158
    1UNL    C12   14  -0.151   0.359   0.214
    1UNL    C13   15  -0.284   0.351   0.161
    1UNL    C14   16  -0.307   0.272   0.046
    1UNL    C15   17  -0.193   0.204  -0.000
    1UNL    C16   18   0.138   0.061   0.046
    1UNL    C17   19   0.250   0.149  -0.001
    1UNL     O1   20   0.319   0.212   0.080
    1UNL     O2   21   0.268   0.150  -0.138
    1UNL    C18   22   0.349   0.250  -0.183
    1UNL    C19   23   0.163  -0.088   0.004
    1UNL    C20   24   0.130  -0.112  -0.141
    1UNL    C21   25  -0.021  -0.083  -0.163
    1UNL     H1   26   0.302  -0.275   0.254
    1UNL     H2   27   0.245  -0.423   0.186
    1UNL     H3   28   0.284  -0.301   0.079
    1UNL     H4   29   0.021  -0.319   0.215
    1UNL     H5   30  -0.116  -0.071   0.096
    1UNL     H6   31  -0.132  -0.252   0.114
    1UNL     H7   32  -0.173  -0.381  -0.057
    1UNL     H8   33  -0.006  -0.375  -0.099
    1UNL     H9   34  -0.123  -0.340  -0.220
    1UNL    H10   35  -0.286  -0.208  -0.199
    1UNL    H11   36  -0.328  -0.174  -0.029
    1UNL    H12   37  -0.311   0.019  -0.257
    1UNL    H13   38  -0.393   0.050  -0.106
    1UNL    H14   39   0.052   0.288   0.210
    1UNL    H15   40  -0.135   0.431   0.293
    1UNL    H16   41  -0.365   0.420   0.197
    1UNL    H17   42  -0.399   0.264  -0.003
    1UNL    H18   43   0.127   0.062   0.159
    1UNL    H19   44   0.305   0.342  -0.134
    1UNL    H20   45   0.455   0.246  -0.155
    1UNL    H21   46   0.348   0.262  -0.294
    1UNL    H22   47   0.264  -0.114   0.022
    1UNL    H23   48   0.181  -0.043  -0.203
    1UNL    H24   49   0.167  -0.214  -0.175
    1UNL    H25   50  -0.047  -0.085  -0.265
   0.00000   0.00000   0.00000   0.00000   0.00000   0.00000   0.00000   0.00000   0.00000
Generated with MDTraj, t= 59.0
 50
    1UNL     C1    1   0.246  -0.289   0.206
    1UNL     C2    2   0.103  -0.273   0.160
    1UNL     C3    3   0.060  -0.173   0.086
    1UNL     C4    4  -0.088  -0.168   0.056
    1UNL     N1    5  -0.118  -0.171  -0.092
    1UNL     C5    6  -0.103  -0.317  -0.135
    1UNL     C6    7  -0.264  -0.131  -0.100
    1UNL     C7    8  -0.288   0.011  -0.153
    1UNL     C8    9  -0.183   0.102  -0.105
    1UNL     C9   10  -0.053   0.055  -0.109
    1UNL     N2   11   0.015   0.127  -0.008
    1UNL    C10   12  -0.073   0.213   0.058
    1UNL    C11   13  -0.058   0.283   0.176
    1UNL    C12   14  -0.167   0.353   0.229
    1UNL    C13   15  -0.293   0.346   0.164
    1UNL    C14   16  -0.318   0.262   0.054
    1UNL    C15   17  -0.198   0.202   0.002
    1UNL    C16   18   0.140   0.064   0.035
    1UNL    C17   19   0.256   0.145  -0.021
    1UNL     O1   20   0.319   0.216   0.057
    1UNL     O2   21   0.272   0.156  -0.153
    1UNL    C18   22   0.390   0.218  -0.183
    1UNL    C19   23   0.157  -0.089  -0.002
    1UNL    C20   24   0.134  -0.112  -0.150
    1UNL    C21   25  -0.017  -0.077  -0.165
    1UNL     H1   26   0.256  -0.270   0.309
    1UNL     H2   27   0.274  -0.394   0.191
    1UNL     H3   28   0.311  -0.231   0.147
    1UNL     H4   29   0.036  -0.354   0.196
    1UNL     H5   30  -0.127  -0.070   0.086
    1UNL     H6   31  -0.144  -0.254   0.112
    1UNL     H7   32  -0.189  -0.380  -0.108
    1UNL     H8   33  -0.018  -0.359  -0.095
    1UNL     H9   34  -0.092  -0.320  -0.241
    1UNL    H10   35  -0.310  -0.209  -0.158
    1UNL    H11   36  -0.300  -0.144   0.008
    1UNL    H12   37  -0.296   0.013  -0.265
    1UNL    H13   38  -0.396   0.040  -0.127
    1UNL    H14   39   0.040   0.294   0.219
    1UNL    H15   40  -0.136   0.416   0.310
    1UNL    H16   41  -0.370   0.402   0.203
    1UNL    H17   42  -0.418   0.240   0.013
    1UNL    H18   43   0.152   0.067   0.147
    1UNL    H19   44   0.385   0.320  -0.139
    1UNL    H20   45   0.483   0.172  -0.148
    1UNL    H21   46   0.404   0.220  -0.294
    1UNL    H22   47   0.258  -0.108   0.011
    1UNL    H23   48   0.189  -0.038  -0.204
    1UNL    H24   49   0.155  -0.208  -0.204
    1UNL    H25   50  -0.049  -0.073  -0.266
   0.00000   0.00000   0.00000   0.00000   0.00000   0.00000   0.00000   0.00000   0.00000
Generated with MDTraj, t= 60.0
 50
    1UNL     C1    1   0.250  -0.232   0.221
    1UNL     C2    2   0.107  -0.237   0.193
    1UNL     C3    3   0.062  -0.179   0.081
    1UNL     C4    4  -0.083  -0.180   0.041
    1UNL     N1    5  -0.116  -0.173  -0.110
    1UNL     C5    6  -0.079  -0.309  -0.163
    1UNL     C6    7  -0.268  -0.150  -0.138
    1UNL     C7    8  -0.309  -0.001  -0.138
    1UNL     C8    9  -0.203   0.095  -0.096
    1UNL     C9   10  -0.071   0.056  -0.113
    1UNL     N2   11   0.007   0.126  -0.019
    1UNL    C10   12  -0.076   0.209   0.065
    1UNL    C11   13  -0.046   0.291   0.171
    1UNL    C12   14  -0.146   0.361   0.230
    1UNL    C13   15  -0.280   0.349   0.179
    1UNL    C14   16  -0.307   0.263   0.075
    1UNL    C15   17  -0.206   0.195   0.008
    1UNL    C16   18   0.133   0.065   0.034
    1UNL    C17   19   0.257   0.135  -0.018
    1UNL     O1   20   0.320   0.199   0.066
    1UNL     O2   21   0.291   0.123  -0.151
    1UNL    C18   22   0.403   0.203  -0.175
    1UNL    C19   23   0.145  -0.088  -0.005
    1UNL    C20   24   0.114  -0.096  -0.153
    1UNL    C21   25  -0.035  -0.068  -0.178
    1UNL     H1   26   0.270  -0.254   0.320
    1UNL     H2   27   0.295  -0.313   0.164
    1UNL     H3   28   0.305  -0.141   0.196
    1UNL     H4   29   0.048  -0.302   0.251
    1UNL     H5   30  -0.123  -0.088   0.089
    1UNL     H6   31  -0.142  -0.271   0.076
    1UNL     H7   32  -0.155  -0.378  -0.127
    1UNL     H8   33   0.018  -0.339  -0.135
    1UNL     H9   34  -0.085  -0.307  -0.269
    1UNL    H10   35  -0.300  -0.200  -0.227
    1UNL    H11   36  -0.310  -0.202  -0.044
    1UNL    H12   37  -0.357   0.014  -0.237
    1UNL    H13   38  -0.402   0.014  -0.070
    1UNL    H14   39   0.059   0.311   0.189
    1UNL    H15   40  -0.134   0.417   0.324
    1UNL    H16   41  -0.366   0.384   0.247
    1UNL    H17   42  -0.405   0.229   0.051
    1UNL    H18   43   0.126   0.079   0.144
    1UNL    H19   44   0.373   0.305  -0.150
    1UNL    H20   45   0.490   0.181  -0.117
    1UNL    H21   46   0.437   0.189  -0.278
    1UNL    H22   47   0.240  -0.129   0.006
    1UNL    H23   48   0.170  -0.033  -0.224
    1UNL    H24   49   0.139  -0.196  -0.189
    1UNL    H25   50  -0.064  -0.066  -0.281
   0.00000   0.00000   0.00000   0.00000   0.00000   0.00000   0.00000   0.00000   0.00000
Generated with MDTraj, t= 61.0
 50
    1UNL     C1    1   0.218  -0.187   0.271
    1UNL     C2    2   0.101  -0.215   0.183
    1UNL     C3    3   0.056  -0.177   0.060
    1UNL     C4    4  -0.089  -0.200   0.024
    1UNL     N1    5  -0.125  -0.186  -0.130
    1UNL     C5    6  -0.109  -0.327  -0.192
    1UNL     C6    7  -0.270  -0.153  -0.158
    1UNL     C7    8  -0.321  -0.020  -0.094
    1UNL     C8    9  -0.210   0.080  -0.074
    1UNL     C9   10  -0.082   0.048  -0.113
    1UNL     N2   11   0.015   0.117  -0.033
    1UNL    C10   12  -0.064   0.205   0.046
    1UNL    C11   13  -0.021   0.307   0.136
    1UNL    C12   14  -0.116   0.371   0.208
    1UNL    C13   15  -0.254   0.337   0.194
    1UNL    C14   16  -0.296   0.252   0.104
    1UNL    C15   17  -0.199   0.179   0.024
    1UNL    C16   18   0.137   0.062   0.025
    1UNL    C17   19   0.258   0.150  -0.007
    1UNL     O1   20   0.304   0.221   0.080
    1UNL     O2   21   0.305   0.138  -0.136
    1UNL    C18   22   0.426   0.215  -0.155
    1UNL    C19   23   0.145  -0.090  -0.018
    1UNL    C20   24   0.107  -0.101  -0.160
    1UNL    C21   25  -0.046  -0.077  -0.190
    1UNL     H1   26   0.266  -0.277   0.290
    1UNL     H2   27   0.293  -0.132   0.217
    1UNL     H3   28   0.201  -0.135   0.365
    1UNL     H4   29   0.036  -0.284   0.242
    1UNL     H5   30  -0.150  -0.122   0.075
    1UNL     H6   31  -0.118  -0.301   0.062
    1UNL     H7   32  -0.168  -0.396  -0.138
    1UNL     H8   33  -0.003  -0.351  -0.195
    1UNL     H9   34  -0.148  -0.330  -0.290
    1UNL    H10   35  -0.274  -0.152  -0.265
    1UNL    H11   36  -0.329  -0.241  -0.113
    1UNL    H12   37  -0.417   0.017  -0.138
    1UNL    H13   38  -0.365  -0.067   0.004
    1UNL    H14   39   0.085   0.324   0.132
    1UNL    H15   40  -0.090   0.435   0.286
    1UNL    H16   41  -0.321   0.372   0.265
    1UNL    H17   42  -0.401   0.220   0.098
    1UNL    H18   43   0.128   0.071   0.135
    1UNL    H19   44   0.409   0.319  -0.133
    1UNL    H20   45   0.506   0.181  -0.094
    1UNL    H21   46   0.459   0.198  -0.256
    1UNL    H22   47   0.243  -0.122   0.000
    1UNL    H23   48   0.166  -0.024  -0.221
    1UNL    H24   49   0.140  -0.192  -0.206
    1UNL    H25   50  -0.071  -0.083  -0.293
   0.00000   0.00000   0.00000   0.00000   0.00000   0.00000   0.00000   0.00000   0.00000
Generated with MDTraj, t= 62.0
 50
    1UNL     C1    1   0.206  -0.164   0.262
    1UNL     C2    2   0.080  -0.197   0.192
    1UNL     C3    3   0.047  -0.163   0.062
    1UNL     C4    4  -0.088  -0.230   0.013
    1UNL     N1    5  -0.129  -0.200  -0.133
    1UNL     C5    6  -0.100  -0.322  -0.221
    1UNL     C6    7  -0.281  -0.163  -0.139
    1UNL     C7    8  -0.317  -0.030  -0.073
    1UNL     C8    9  -0.207   0.065  -0.056
    1UNL     C9   10  -0.080   0.036  -0.106
    1UNL     N2   11   0.012   0.115  -0.035
    1UNL    C10   12  -0.060   0.214   0.035
    1UNL    C11   13  -0.010   0.316   0.118
    1UNL    C12   14  -0.101   0.377   0.200
    1UNL    C13   15  -0.236   0.341   0.200
    1UNL    C14   16  -0.286   0.248   0.109
    1UNL    C15   17  -0.199   0.176   0.031
    1UNL    C16   18   0.136   0.054   0.017
    1UNL    C17   19   0.263   0.150  -0.001
    1UNL     O1   20   0.279   0.238   0.080
    1UNL     O2   21   0.332   0.124  -0.117
    1UNL    C18   22   0.425   0.227  -0.135
    1UNL    C19   23   0.142  -0.096  -0.032
    1UNL    C20   24   0.100  -0.100  -0.181
    1UNL    C21   25  -0.054  -0.081  -0.189
    1UNL     H1   26   0.287  -0.190   0.197
    1UNL     H2   27   0.213  -0.060   0.273
    1UNL     H3   28   0.224  -0.213   0.356
    1UNL     H4   29   0.016  -0.264   0.239
    1UNL     H5   30  -0.166  -0.191   0.086
    1UNL     H6   31  -0.086  -0.339   0.025
    1UNL     H7   32  -0.184  -0.381  -0.232
    1UNL     H8   33  -0.014  -0.378  -0.179
    1UNL     H9   34  -0.079  -0.296  -0.322
    1UNL    H10   35  -0.312  -0.160  -0.241
    1UNL    H11   36  -0.325  -0.259  -0.095
    1UNL    H12   37  -0.404   0.012  -0.130
    1UNL    H13   38  -0.374  -0.042   0.029
    1UNL    H14   39   0.095   0.336   0.133
    1UNL    H15   40  -0.068   0.470   0.252
    1UNL    H16   41  -0.302   0.400   0.267
    1UNL    H17   42  -0.392   0.235   0.104
    1UNL    H18   43   0.120   0.053   0.124
    1UNL    H19   44   0.386   0.329  -0.126
    1UNL    H20   45   0.493   0.216  -0.052
    1UNL    H21   46   0.472   0.207  -0.233
    1UNL    H22   47   0.237  -0.133  -0.012
    1UNL    H23   48   0.152  -0.012  -0.235
    1UNL    H24   49   0.134  -0.179  -0.243
    1UNL    H25   50  -0.086  -0.058  -0.288
   0.00000   0.00000   0.00000   0.00000   0.00000   0.00000   0.00000   0.00000   0.00000
Generated with MDTraj, t= 63.0
 50
    1UNL     C1    1   0.224  -0.161   0.247
    1UNL     C2    2   0.106  -0.220   0.180
    1UNL     C3    3   0.062  -0.184   0.053
    1UNL     C4    4  -0.079  -0.219   0.014
    1UNL     N1    5  -0.125  -0.196  -0.124
    1UNL     C5    6  -0.092  -0.311  -0.210
    1UNL     C6    7  -0.277  -0.159  -0.137
    1UNL     C7    8  -0.316  -0.023  -0.071
    1UNL     C8    9  -0.205   0.071  -0.061
    1UNL     C9   10  -0.081   0.048  -0.101
    1UNL     N2   11   0.010   0.122  -0.022
    1UNL    C10   12  -0.062   0.222   0.045
    1UNL    C11   13  -0.021   0.317   0.140
    1UNL    C12   14  -0.121   0.384   0.210
    1UNL    C13   15  -0.250   0.345   0.189
    1UNL    C14   16  -0.299   0.253   0.092
    1UNL    C15   17  -0.196   0.182   0.027
    1UNL    C16   18   0.132   0.054   0.024
    1UNL    C17   19   0.248   0.142  -0.011
    1UNL     O1   20   0.261   0.238   0.058
    1UNL     O2   21   0.330   0.100  -0.117
    1UNL    C18   22   0.432   0.191  -0.125
    1UNL    C19   23   0.142  -0.090  -0.032
    1UNL    C20   24   0.100  -0.095  -0.180
    1UNL    C21   25  -0.049  -0.073  -0.184
    1UNL     H1   26   0.255  -0.078   0.183
    1UNL     H2   27   0.197  -0.119   0.338
    1UNL     H3   28   0.310  -0.224   0.254
    1UNL     H4   29   0.044  -0.293   0.238
    1UNL     H5   30  -0.150  -0.163   0.084
    1UNL     H6   31  -0.087  -0.324   0.040
    1UNL     H7   32  -0.130  -0.399  -0.169
    1UNL     H8   33   0.014  -0.321  -0.232
    1UNL     H9   34  -0.147  -0.304  -0.301
    1UNL    H10   35  -0.291  -0.155  -0.244
    1UNL    H11   36  -0.345  -0.243  -0.103
    1UNL    H12   37  -0.400   0.028  -0.125
    1UNL    H13   38  -0.364  -0.035   0.034
    1UNL    H14   39   0.084   0.342   0.158
    1UNL    H15   40  -0.097   0.470   0.264
    1UNL    H16   41  -0.324   0.405   0.236
    1UNL    H17   42  -0.405   0.251   0.077
    1UNL    H18   43   0.132   0.044   0.131
    1UNL    H19   44   0.408   0.284  -0.177
    1UNL    H20   45   0.462   0.210  -0.020
    1UNL    H21   46   0.505   0.125  -0.185
    1UNL    H22   47   0.243  -0.120  -0.024
    1UNL    H23   48   0.151  -0.017  -0.251
    1UNL    H24   49   0.129  -0.183  -0.232
    1UNL    H25   50  -0.087  -0.047  -0.280
   0.00000   0.00000   0.00000   0.00000   0.00000   0.00000   0.00000   0.00000   0.00000
Generated with MDTraj, t= 64.0
 50
    1UNL     C1    1   0.260  -0.245   0.209
    1UNL     C2    2   0.119  -0.241   0.166
    1UNL     C3    3   0.061  -0.170   0.065
    1UNL     C4    4  -0.094  -0.182   0.042
    1UNL     N1    5  -0.129  -0.183  -0.108
    1UNL     C5    6  -0.080  -0.311  -0.178
    1UNL     C6    7  -0.274  -0.159  -0.132
    1UNL     C7    8  -0.332  -0.016  -0.107
    1UNL     C8    9  -0.217   0.077  -0.067
    1UNL     C9   10  -0.085   0.058  -0.104
    1UNL     N2   11   0.009   0.136  -0.033
    1UNL    C10   12  -0.071   0.217   0.049
    1UNL    C11   13  -0.044   0.306   0.157
    1UNL    C12   14  -0.146   0.374   0.212
    1UNL    C13   15  -0.279   0.356   0.175
    1UNL    C14   16  -0.308   0.253   0.090
    1UNL    C15   17  -0.208   0.179   0.028
    1UNL    C16   18   0.135   0.072   0.021
    1UNL    C17   19   0.258   0.155  -0.021
    1UNL     O1   20   0.277   0.262   0.028
    1UNL     O2   21   0.338   0.088  -0.110
    1UNL    C18   22   0.457   0.175  -0.129
    1UNL    C19   23   0.150  -0.080  -0.015
    1UNL    C20   24   0.104  -0.100  -0.158
    1UNL    C21   25  -0.046  -0.069  -0.175
    1UNL     H1   26   0.305  -0.144   0.204
    1UNL     H2   27   0.269  -0.272   0.309
    1UNL     H3   28   0.325  -0.305   0.151
    1UNL     H4   29   0.052  -0.299   0.222
    1UNL     H5   30  -0.144  -0.097   0.099
    1UNL     H6   31  -0.133  -0.269   0.092
    1UNL     H7   32  -0.166  -0.376  -0.176
    1UNL     H8   33  -0.007  -0.351  -0.115
    1UNL     H9   34  -0.046  -0.309  -0.280
    1UNL    H10   35  -0.281  -0.180  -0.238
    1UNL    H11   36  -0.339  -0.228  -0.072
    1UNL    H12   37  -0.373   0.030  -0.202
    1UNL    H13   38  -0.419  -0.018  -0.034
    1UNL    H14   39   0.056   0.329   0.185
    1UNL    H15   40  -0.120   0.444   0.297
    1UNL    H16   41  -0.353   0.404   0.239
    1UNL    H17   42  -0.415   0.225   0.075
    1UNL    H18   43   0.123   0.082   0.128
    1UNL    H19   44   0.432   0.279  -0.149
    1UNL    H20   45   0.510   0.166  -0.032
    1UNL    H21   46   0.515   0.137  -0.218
    1UNL    H22   47   0.253  -0.103  -0.011
    1UNL    H23   48   0.156  -0.021  -0.223
    1UNL    H24   49   0.128  -0.195  -0.209
    1UNL    H25   50  -0.077  -0.055  -0.275
   0.00000   0.00000   0.00000   0.00000   0.00000   0.00000   0.00000   0.00000   0.00000
Generated with MDTraj, t= 65.0
 50
    1UNL     C1    1   0.264  -0.315   0.162
    1UNL     C2    2   0.121  -0.276   0.154
    1UNL     C3    3   0.074  -0.174   0.076
    1UNL     C4    4  -0.073  -0.154   0.055
    1UNL     N1    5  -0.121  -0.175  -0.085
    1UNL     C5    6  -0.094  -0.318  -0.128
    1UNL     C6    7  -0.273  -0.148  -0.120
    1UNL     C7    8  -0.309   0.002  -0.134
    1UNL     C8    9  -0.202   0.087  -0.083
    1UNL     C9   10  -0.070   0.055  -0.114
    1UNL     N2   11   0.009   0.132  -0.034
    1UNL    C10   12  -0.073   0.220   0.038
    1UNL    C11   13  -0.049   0.300   0.154
    1UNL    C12   14  -0.150   0.362   0.221
    1UNL    C13   15  -0.283   0.352   0.169
    1UNL    C14   16  -0.315   0.259   0.079
    1UNL    C15   17  -0.208   0.194   0.009
    1UNL    C16   18   0.131   0.079   0.029
    1UNL    C17   19   0.245   0.165  -0.011
    1UNL     O1   20   0.252   0.284   0.014
    1UNL     O2   21   0.332   0.093  -0.087
    1UNL    C18   22   0.430   0.186  -0.141
    1UNL    C19   23   0.149  -0.076  -0.002
    1UNL    C20   24   0.117  -0.096  -0.150
    1UNL    C21   25  -0.036  -0.079  -0.171
    1UNL     H1   26   0.321  -0.253   0.232
    1UNL     H2   27   0.275  -0.412   0.204
    1UNL     H3   28   0.317  -0.308   0.071
    1UNL     H4   29   0.049  -0.342   0.206
    1UNL     H5   30  -0.115  -0.057   0.096
    1UNL     H6   31  -0.123  -0.228   0.117
    1UNL     H7   32  -0.145  -0.388  -0.061
    1UNL     H8   33   0.005  -0.340  -0.145
    1UNL     H9   34  -0.151  -0.330  -0.218
    1UNL    H10   35  -0.307  -0.188  -0.217
    1UNL    H11   36  -0.336  -0.191  -0.041
    1UNL    H12   37  -0.326   0.020  -0.245
    1UNL    H13   38  -0.400   0.039  -0.080
    1UNL    H14   39   0.057   0.316   0.175
    1UNL    H15   40  -0.142   0.413   0.312
    1UNL    H16   41  -0.358   0.389   0.237
    1UNL    H17   42  -0.413   0.227   0.070
    1UNL    H18   43   0.113   0.099   0.132
    1UNL    H19   44   0.392   0.268  -0.200
    1UNL    H20   45   0.494   0.213  -0.056
    1UNL    H21   46   0.483   0.120  -0.215
    1UNL    H22   47   0.253  -0.088   0.016
    1UNL    H23   48   0.170  -0.020  -0.213
    1UNL    H24   49   0.145  -0.204  -0.183
    1UNL    H25   50  -0.068  -0.088  -0.272
   0.00000   0.00000   0.00000   0.00000   0.00000   0.00000   0.00000   0.00000   0.00000
Generated with MDTraj, t= 66.0
 50
    1UNL     C1    1   0.265  -0.325   0.130
    1UNL     C2    2   0.124  -0.287   0.143
    1UNL     C3    3   0.072  -0.178   0.084
    1UNL     C4    4  -0.077  -0.165   0.072
    1UNL     N1    5  -0.125  -0.178  -0.079
    1UNL     C5    6  -0.107  -0.315  -0.124
    1UNL     C6    7  -0.276  -0.142  -0.092
    1UNL     C7    8  -0.305   0.000  -0.134
    1UNL     C8    9  -0.192   0.098  -0.095
    1UNL     C9   10  -0.066   0.052  -0.099
    1UNL     N2   11   0.012   0.129  -0.016
    1UNL    C10   12  -0.072   0.217   0.050
    1UNL    C11   13  -0.047   0.307   0.157
    1UNL    C12   14  -0.157   0.369   0.209
    1UNL    C13   15  -0.287   0.357   0.155
    1UNL    C14   16  -0.309   0.271   0.051
    1UNL    C15   17  -0.199   0.199   0.000
    1UNL    C16   18   0.139   0.061   0.034
    1UNL    C17   19   0.245   0.157  -0.017
    1UNL     O1   20   0.235   0.271   0.028
    1UNL     O2   21   0.343   0.110  -0.100
    1UNL    C18   22   0.418   0.227  -0.130
    1UNL    C19   23   0.163  -0.094  -0.011
    1UNL    C20   24   0.114  -0.114  -0.153
    1UNL    C21   25  -0.037  -0.082  -0.159
    1UNL     H1   26   0.329  -0.247   0.163
    1UNL     H2   27   0.284  -0.409   0.197
    1UNL     H3   28   0.292  -0.345   0.030
    1UNL     H4   29   0.066  -0.366   0.185
    1UNL     H5   30  -0.097  -0.062   0.106
    1UNL     H6   31  -0.138  -0.223   0.145
    1UNL     H7   32  -0.185  -0.377  -0.078
    1UNL     H8   33  -0.009  -0.336  -0.090
    1UNL     H9   34  -0.118  -0.333  -0.228
    1UNL    H10   35  -0.325  -0.209  -0.167
    1UNL    H11   36  -0.330  -0.157   0.000
    1UNL    H12   37  -0.311   0.017  -0.249
    1UNL    H13   38  -0.404   0.030  -0.097
    1UNL    H14   39   0.051   0.338   0.187
    1UNL    H15   40  -0.140   0.447   0.286
    1UNL    H16   41  -0.368   0.425   0.180
    1UNL    H17   42  -0.410   0.250   0.004
    1UNL    H18   43   0.122   0.067   0.139
    1UNL    H19   44   0.386   0.257  -0.227
    1UNL    H20   45   0.412   0.298  -0.049
    1UNL    H21   46   0.522   0.188  -0.140
    1UNL    H22   47   0.267  -0.118  -0.002
    1UNL    H23   48   0.168  -0.046  -0.222
    1UNL    H24   49   0.125  -0.227  -0.188
    1UNL    H25   50  -0.073  -0.073  -0.259
   0.00000   0.00000   0.00000   0.00000   0.00000   0.00000   0.00000   0.00000   0.00000
Generated with MDTraj, t= 67.0
 50
    1UNL     C1    1   0.285  -0.296   0.144
    1UNL     C2    2   0.134  -0.283   0.128
    1UNL     C3    3   0.073  -0.181   0.069
    1UNL     C4    4  -0.079  -0.182   0.062
    1UNL     N1    5  -0.122  -0.183  -0.082
    1UNL     C5    6  -0.095  -0.314  -0.146
    1UNL     C6    7  -0.277  -0.167  -0.077
    1UNL     C7    8  -0.316  -0.026  -0.128
    1UNL     C8    9  -0.214   0.085  -0.082
    1UNL     C9   10  -0.083   0.049  -0.103
    1UNL     N2   11  -0.001   0.116  -0.020
    1UNL    C10   12  -0.070   0.212   0.048
    1UNL    C11   13  -0.036   0.308   0.139
    1UNL    C12   14  -0.133   0.397   0.197
    1UNL    C13   15  -0.266   0.386   0.145
    1UNL    C14   16  -0.305   0.295   0.042
    1UNL    C15   17  -0.207   0.202   0.011
    1UNL    C16   18   0.123   0.059   0.041
    1UNL    C17   19   0.241   0.150   0.004
    1UNL     O1   20   0.258   0.257   0.058
    1UNL     O2   21   0.324   0.115  -0.095
    1UNL    C18   22   0.421   0.216  -0.114
    1UNL    C19   23   0.148  -0.081  -0.013
    1UNL    C20   24   0.109  -0.096  -0.159
    1UNL    C21   25  -0.048  -0.080  -0.167
    1UNL     H1   26   0.332  -0.214   0.183
    1UNL     H2   27   0.311  -0.378   0.212
    1UNL     H3   28   0.337  -0.311   0.052
    1UNL     H4   29   0.072  -0.367   0.159
    1UNL     H5   30  -0.126  -0.107   0.123
    1UNL     H6   31  -0.116  -0.282   0.099
    1UNL     H7   32  -0.171  -0.388  -0.128
    1UNL     H8   33   0.008  -0.344  -0.124
    1UNL     H9   34  -0.103  -0.303  -0.251
    1UNL    H10   35  -0.329  -0.249  -0.135
    1UNL    H11   36  -0.312  -0.181   0.022
    1UNL    H12   37  -0.332  -0.025  -0.243
    1UNL    H13   38  -0.412   0.008  -0.087
    1UNL    H14   39   0.062   0.318   0.180
    1UNL    H15   40  -0.107   0.476   0.261
    1UNL    H16   41  -0.341   0.460   0.173
    1UNL    H17   42  -0.396   0.301  -0.007
    1UNL    H18   43   0.105   0.058   0.145
    1UNL    H19   44   0.362   0.297  -0.148
    1UNL    H20   45   0.493   0.225  -0.034
    1UNL    H21   46   0.469   0.177  -0.207
    1UNL    H22   47   0.253  -0.102  -0.011
    1UNL    H23   48   0.161  -0.027  -0.232
    1UNL    H24   49   0.136  -0.206  -0.187
    1UNL    H25   50  -0.086  -0.086  -0.266
   0.00000   0.00000   0.00000   0.00000   0.00000   0.00000   0.00000   0.00000   0.00000
Generated with MDTraj, t= 68.0
 50
    1UNL     C1    1   0.296  -0.261   0.173
    1UNL     C2    2   0.149  -0.268   0.142
    1UNL     C3    3   0.085  -0.191   0.057
    1UNL     C4    4  -0.066  -0.199   0.047
    1UNL     N1    5  -0.129  -0.191  -0.100
    1UNL     C5    6  -0.122  -0.329  -0.165
    1UNL     C6    7  -0.278  -0.160  -0.124
    1UNL     C7    8  -0.326  -0.031  -0.073
    1UNL     C8    9  -0.214   0.076  -0.065
    1UNL     C9   10  -0.085   0.047  -0.098
    1UNL     N2   11  -0.001   0.125  -0.019
    1UNL    C10   12  -0.070   0.226   0.036
    1UNL    C11   13  -0.031   0.344   0.097
    1UNL    C12   14  -0.132   0.423   0.155
    1UNL    C13   15  -0.272   0.389   0.148
    1UNL    C14   16  -0.310   0.279   0.068
    1UNL    C15   17  -0.204   0.192   0.020
    1UNL    C16   18   0.122   0.057   0.034
    1UNL    C17   19   0.244   0.142   0.017
    1UNL     O1   20   0.281   0.220   0.105
    1UNL     O2   21   0.308   0.126  -0.105
    1UNL    C18   22   0.429   0.206  -0.097
    1UNL    C19   23   0.153  -0.082  -0.029
    1UNL    C20   24   0.096  -0.100  -0.169
    1UNL    C21   25  -0.057  -0.079  -0.171
    1UNL     H1   26   0.331  -0.166   0.191
    1UNL     H2   27   0.316  -0.318   0.263
    1UNL     H3   28   0.354  -0.297   0.090
    1UNL     H4   29   0.090  -0.340   0.197
    1UNL     H5   30  -0.102  -0.112   0.096
    1UNL     H6   31  -0.099  -0.291   0.103
    1UNL     H7   32  -0.183  -0.398  -0.116
    1UNL     H8   33  -0.016  -0.360  -0.167
    1UNL     H9   34  -0.157  -0.336  -0.266
    1UNL    H10   35  -0.308  -0.167  -0.233
    1UNL    H11   36  -0.331  -0.237  -0.075
    1UNL    H12   37  -0.415   0.012  -0.132
    1UNL    H13   38  -0.367  -0.044   0.028
    1UNL    H14   39   0.074   0.362   0.119
    1UNL    H15   40  -0.097   0.504   0.224
    1UNL    H16   41  -0.348   0.436   0.208
    1UNL    H17   42  -0.411   0.248   0.035
    1UNL    H18   43   0.100   0.045   0.136
    1UNL    H19   44   0.394   0.302  -0.065
    1UNL    H20   45   0.514   0.158  -0.047
    1UNL    H21   46   0.466   0.217  -0.202
    1UNL    H22   47   0.259  -0.097  -0.034
    1UNL    H23   48   0.148  -0.016  -0.231
    1UNL    H24   49   0.124  -0.192  -0.229
    1UNL    H25   50  -0.094  -0.071  -0.271
   0.00000   0.00000   0.00000   0.00000   0.00000   0.00000   0.00000   0.00000   0.00000
Generated with MDTraj, t= 69.0
 50
    1UNL     C1    1   0.272  -0.241   0.200
    1UNL     C2    2   0.118  -0.241   0.171
    1UNL     C3    3   0.064  -0.188   0.061
    1UNL     C4    4  -0.082  -0.199   0.038
    1UNL     N1    5  -0.122  -0.204  -0.110
    1UNL     C5    6  -0.092  -0.332  -0.190
    1UNL     C6    7  -0.279  -0.177  -0.114
    1UNL     C7    8  -0.328  -0.041  -0.050
    1UNL     C8    9  -0.221   0.067  -0.051
    1UNL     C9   10  -0.095   0.041  -0.104
    1UNL     N2   11   0.001   0.123  -0.048
    1UNL    C10   12  -0.074   0.224   0.018
    1UNL    C11   13  -0.026   0.336   0.083
    1UNL    C12   14  -0.104   0.422   0.153
    1UNL    C13   15  -0.248   0.381   0.158
    1UNL    C14   16  -0.298   0.272   0.095
    1UNL    C15   17  -0.211   0.189   0.022
    1UNL    C16   18   0.127   0.063   0.013
    1UNL    C17   19   0.254   0.148   0.008
    1UNL     O1   20   0.296   0.187   0.119
    1UNL     O2   21   0.313   0.154  -0.110
    1UNL    C18   22   0.428   0.230  -0.084
    1UNL    C19   23   0.136  -0.088  -0.035
    1UNL    C20   24   0.092  -0.092  -0.184
    1UNL    C21   25  -0.063  -0.083  -0.179
    1UNL     H1   26   0.309  -0.146   0.226
    1UNL     H2   27   0.284  -0.309   0.282
    1UNL     H3   28   0.323  -0.270   0.111
    1UNL     H4   29   0.051  -0.281   0.244
    1UNL     H5   30  -0.127  -0.111   0.076
    1UNL     H6   31  -0.120  -0.290   0.092
    1UNL     H7   32  -0.163  -0.406  -0.166
    1UNL     H8   33   0.010  -0.368  -0.182
    1UNL     H9   34  -0.112  -0.317  -0.295
    1UNL    H10   35  -0.317  -0.190  -0.220
    1UNL    H11   36  -0.329  -0.252  -0.060
    1UNL    H12   37  -0.421   0.000  -0.098
    1UNL    H13   38  -0.361  -0.057   0.055
    1UNL    H14   39   0.080   0.350   0.078
    1UNL    H15   40  -0.068   0.494   0.219
    1UNL    H16   41  -0.314   0.438   0.221
    1UNL    H17   42  -0.399   0.237   0.087
    1UNL    H18   43   0.092   0.069   0.112
    1UNL    H19   44   0.397   0.332  -0.067
    1UNL    H20   45   0.498   0.187  -0.008
    1UNL    H21   46   0.491   0.216  -0.179
    1UNL    H22   47   0.238  -0.117  -0.028
    1UNL    H23   48   0.133   0.001  -0.249
    1UNL    H24   49   0.136  -0.175  -0.241
    1UNL    H25   50  -0.098  -0.071  -0.279
   0.00000   0.00000   0.00000   0.00000   0.00000   0.00000   0.00000   0.00000   0.00000
Generated with MDTraj, t= 70.0
 50
    1UNL     C1    1   0.261  -0.195   0.206
    1UNL     C2    2   0.126  -0.246   0.161
    1UNL     C3    3   0.063  -0.198   0.056
    1UNL     C4    4  -0.088  -0.199   0.045
    1UNL     N1    5  -0.137  -0.201  -0.102
    1UNL     C5    6  -0.120  -0.337  -0.169
    1UNL     C6    7  -0.279  -0.159  -0.104
    1UNL     C7    8  -0.322  -0.009  -0.092
    1UNL     C8    9  -0.204   0.078  -0.080
    1UNL     C9   10  -0.078   0.040  -0.121
    1UNL     N2   11   0.013   0.120  -0.050
    1UNL    C10   12  -0.053   0.224   0.015
    1UNL    C11   13  -0.016   0.316   0.115
    1UNL    C12   14  -0.113   0.389   0.189
    1UNL    C13   15  -0.253   0.361   0.173
    1UNL    C14   16  -0.285   0.260   0.091
    1UNL    C15   17  -0.190   0.198  -0.001
    1UNL    C16   18   0.128   0.047   0.028
    1UNL    C17   19   0.251   0.136   0.013
    1UNL     O1   20   0.289   0.198   0.114
    1UNL     O2   21   0.297   0.159  -0.121
    1UNL    C18   22   0.400   0.252  -0.106
    1UNL    C19   23   0.146  -0.096  -0.029
    1UNL    C20   24   0.098  -0.112  -0.170
    1UNL    C21   25  -0.054  -0.091  -0.183
    1UNL     H1   26   0.270  -0.088   0.219
    1UNL     H2   27   0.290  -0.239   0.296
    1UNL     H3   28   0.336  -0.220   0.135
    1UNL     H4   29   0.069  -0.302   0.237
    1UNL     H5   30  -0.123  -0.110   0.093
    1UNL     H6   31  -0.129  -0.290   0.095
    1UNL     H7   32  -0.194  -0.408  -0.138
    1UNL     H8   33  -0.025  -0.371  -0.140
    1UNL     H9   34  -0.129  -0.332  -0.278
    1UNL    H10   35  -0.320  -0.188  -0.205
    1UNL    H11   36  -0.333  -0.224  -0.039
    1UNL    H12   37  -0.380   0.021  -0.179
    1UNL    H13   38  -0.395   0.013  -0.009
    1UNL    H14   39   0.092   0.335   0.124
    1UNL    H15   40  -0.078   0.475   0.254
    1UNL    H16   41  -0.331   0.423   0.218
    1UNL    H17   42  -0.385   0.224   0.078
    1UNL    H18   43   0.102   0.043   0.129
    1UNL    H19   44   0.369   0.339  -0.049
    1UNL    H20   45   0.488   0.199  -0.065
    1UNL    H21   46   0.433   0.275  -0.213
    1UNL    H22   47   0.250  -0.117  -0.016
    1UNL    H23   48   0.159  -0.044  -0.248
    1UNL    H24   49   0.114  -0.212  -0.209
    1UNL    H25   50  -0.080  -0.093  -0.287
   0.00000   0.00000   0.00000   0.00000   0.00000   0.00000   0.00000   0.00000   0.00000
Generated with MDTraj, t= 71.0
 50
    1UNL     C1    1   0.252  -0.231   0.223
    1UNL     C2    2   0.112  -0.239   0.178
    1UNL     C3    3   0.067  -0.179   0.070
    1UNL     C4    4  -0.084  -0.179   0.051
    1UNL     N1    5  -0.129  -0.187  -0.099
    1UNL     C5    6  -0.103  -0.330  -0.151
    1UNL     C6    7  -0.282  -0.157  -0.105
    1UNL     C7    8  -0.320  -0.004  -0.133
    1UNL     C8    9  -0.209   0.090  -0.093
    1UNL     C9   10  -0.077   0.052  -0.117
    1UNL     N2   11   0.012   0.116  -0.031
    1UNL    C10   12  -0.067   0.201   0.052
    1UNL    C11   13  -0.028   0.276   0.165
    1UNL    C12   14  -0.121   0.361   0.220
    1UNL    C13   15  -0.249   0.360   0.165
    1UNL    C14   16  -0.298   0.271   0.064
    1UNL    C15   17  -0.200   0.196   0.003
    1UNL    C16   18   0.135   0.053   0.020
    1UNL    C17   19   0.256   0.144  -0.014
    1UNL     O1   20   0.304   0.199   0.083
    1UNL     O2   21   0.294   0.158  -0.142
    1UNL    C18   22   0.396   0.256  -0.141
    1UNL    C19   23   0.149  -0.093  -0.024
    1UNL    C20   24   0.109  -0.115  -0.169
    1UNL    C21   25  -0.043  -0.081  -0.181
    1UNL     H1   26   0.312  -0.145   0.191
    1UNL     H2   27   0.259  -0.235   0.326
    1UNL     H3   28   0.306  -0.315   0.188
    1UNL     H4   29   0.049  -0.290   0.245
    1UNL     H5   30  -0.128  -0.087   0.087
    1UNL     H6   31  -0.131  -0.261   0.106
    1UNL     H7   32  -0.162  -0.399  -0.090
    1UNL     H8   33  -0.004  -0.364  -0.148
    1UNL     H9   34  -0.148  -0.333  -0.250
    1UNL    H10   35  -0.318  -0.218  -0.191
    1UNL    H11   36  -0.342  -0.195  -0.026
    1UNL    H12   37  -0.339   0.014  -0.237
    1UNL    H13   38  -0.422   0.025  -0.089
    1UNL    H14   39   0.069   0.289   0.206
    1UNL    H15   40  -0.091   0.440   0.283
    1UNL    H16   41  -0.318   0.436   0.191
    1UNL    H17   42  -0.403   0.254   0.037
    1UNL    H18   43   0.129   0.055   0.125
    1UNL    H19   44   0.376   0.358  -0.116
    1UNL    H20   45   0.471   0.224  -0.068
    1UNL    H21   46   0.430   0.243  -0.249
    1UNL    H22   47   0.250  -0.113   0.002
    1UNL    H23   48   0.161  -0.051  -0.248
    1UNL    H24   49   0.130  -0.220  -0.201
    1UNL    H25   50  -0.082  -0.084  -0.281
   0.00000   0.00000   0.00000   0.00000   0.00000   0.00000   0.00000   0.00000   0.00000
Generated with MDTraj, t= 72.0
 50
    1UNL     C1    1   0.253  -0.286   0.218
    1UNL     C2    2   0.111  -0.252   0.187
    1UNL     C3    3   0.063  -0.164   0.098
    1UNL     C4    4  -0.083  -0.177   0.055
    1UNL     N1    5  -0.120  -0.172  -0.099
    1UNL     C5    6  -0.093  -0.317  -0.154
    1UNL     C6    7  -0.268  -0.134  -0.128
    1UNL     C7    8  -0.298   0.014  -0.153
    1UNL     C8    9  -0.194   0.095  -0.095
    1UNL     C9   10  -0.060   0.061  -0.108
    1UNL     N2   11   0.017   0.131  -0.007
    1UNL    C10   12  -0.072   0.215   0.059
    1UNL    C11   13  -0.048   0.299   0.163
    1UNL    C12   14  -0.157   0.358   0.224
    1UNL    C13   15  -0.284   0.338   0.178
    1UNL    C14   16  -0.311   0.261   0.070
    1UNL    C15   17  -0.202   0.199   0.003
    1UNL    C16   18   0.139   0.066   0.042
    1UNL    C17   19   0.258   0.143  -0.015
    1UNL     O1   20   0.328   0.211   0.057
    1UNL     O2   21   0.275   0.121  -0.155
    1UNL    C18   22   0.373   0.218  -0.201
    1UNL    C19   23   0.150  -0.081   0.002
    1UNL    C20   24   0.124  -0.107  -0.148
    1UNL    C21   25  -0.026  -0.073  -0.173
    1UNL     H1   26   0.310  -0.208   0.269
    1UNL     H2   27   0.255  -0.375   0.273
    1UNL     H3   28   0.303  -0.303   0.126
    1UNL     H4   29   0.045  -0.321   0.244
    1UNL     H5   30  -0.144  -0.100   0.103
    1UNL     H6   31  -0.126  -0.271   0.084
    1UNL     H7   32  -0.170  -0.383  -0.114
    1UNL     H8   33   0.002  -0.361  -0.130
    1UNL     H9   34  -0.112  -0.309  -0.259
    1UNL    H10   35  -0.298  -0.183  -0.222
    1UNL    H11   36  -0.336  -0.183  -0.059
    1UNL    H12   37  -0.300   0.034  -0.257
    1UNL    H13   38  -0.400   0.050  -0.116
    1UNL    H14   39   0.055   0.308   0.202
    1UNL    H15   40  -0.143   0.415   0.317
    1UNL    H16   41  -0.369   0.383   0.232
    1UNL    H17   42  -0.414   0.241   0.056
    1UNL    H18   43   0.132   0.076   0.147
    1UNL    H19   44   0.363   0.321  -0.178
    1UNL    H20   45   0.469   0.194  -0.159
    1UNL    H21   46   0.366   0.208  -0.313
    1UNL    H22   47   0.250  -0.104   0.027
    1UNL    H23   48   0.183  -0.052  -0.218
    1UNL    H24   49   0.135  -0.216  -0.179
    1UNL    H25   50  -0.054  -0.061  -0.275
   0.00000   0.00000   0.00000   0.00000   0.00000   0.00000   0.00000   0.00000   0.00000
Generated with MDTraj, t= 73.0
 50
    1UNL     C1    1   0.225  -0.303   0.220
    1UNL     C2    2   0.094  -0.276   0.161
    1UNL     C3    3   0.061  -0.173   0.083
    1UNL     C4    4  -0.089  -0.162   0.056
    1UNL     N1    5  -0.118  -0.172  -0.098
    1UNL     C5    6  -0.081  -0.320  -0.130
    1UNL     C6    7  -0.261  -0.138  -0.143
    1UNL     C7    8  -0.300   0.015  -0.145
    1UNL     C8    9  -0.189   0.096  -0.092
    1UNL     C9   10  -0.055   0.060  -0.102
    1UNL     N2   11   0.022   0.124  -0.005
    1UNL    C10   12  -0.068   0.205   0.070
    1UNL    C11   13  -0.054   0.307   0.176
    1UNL    C12   14  -0.168   0.356   0.225
    1UNL    C13   15  -0.294   0.337   0.174
    1UNL    C14   16  -0.303   0.261   0.066
    1UNL    C15   17  -0.196   0.188   0.015
    1UNL    C16   18   0.150   0.075   0.044
    1UNL    C17   19   0.255   0.161  -0.026
    1UNL     O1   20   0.337   0.219   0.039
    1UNL     O2   21   0.253   0.156  -0.162
    1UNL    C18   22   0.381   0.195  -0.217
    1UNL    C19   23   0.159  -0.075   0.012
    1UNL    C20   24   0.135  -0.103  -0.137
    1UNL    C21   25  -0.016  -0.074  -0.161
    1UNL     H1   26   0.284  -0.222   0.256
    1UNL     H2   27   0.219  -0.377   0.298
    1UNL     H3   28   0.284  -0.353   0.147
    1UNL     H4   29   0.017  -0.339   0.194
    1UNL     H5   30  -0.128  -0.067   0.097
    1UNL     H6   31  -0.141  -0.243   0.101
    1UNL     H7   32  -0.166  -0.383  -0.110
    1UNL     H8   33  -0.002  -0.364  -0.066
    1UNL     H9   34  -0.060  -0.326  -0.234
    1UNL    H10   35  -0.274  -0.182  -0.241
    1UNL    H11   36  -0.333  -0.200  -0.089
    1UNL    H12   37  -0.324   0.045  -0.244
    1UNL    H13   38  -0.399   0.033  -0.091
    1UNL    H14   39   0.038   0.336   0.216
    1UNL    H15   40  -0.167   0.403   0.321
    1UNL    H16   41  -0.373   0.386   0.223
    1UNL    H17   42  -0.395   0.263   0.001
    1UNL    H18   43   0.145   0.100   0.146
    1UNL    H19   44   0.403   0.297  -0.229
    1UNL    H20   45   0.464   0.151  -0.165
    1UNL    H21   46   0.364   0.161  -0.323
    1UNL    H22   47   0.257  -0.109   0.032
    1UNL    H23   48   0.184  -0.040  -0.200
    1UNL    H24   49   0.144  -0.216  -0.160
    1UNL    H25   50  -0.045  -0.071  -0.263
   0.00000   0.00000   0.00000   0.00000   0.00000   0.00000   0.00000   0.00000   0.00000
Generated with MDTraj, t= 74.0
 50
    1UNL     C1    1   0.246  -0.276   0.210
    1UNL     C2    2   0.102  -0.244   0.190
    1UNL     C3    3   0.050  -0.168   0.092
    1UNL     C4    4  -0.096  -0.168   0.056
    1UNL     N1    5  -0.119  -0.178  -0.102
    1UNL     C5    6  -0.072  -0.314  -0.143
    1UNL     C6    7  -0.266  -0.153  -0.133
    1UNL     C7    8  -0.309   0.006  -0.134
    1UNL     C8    9  -0.198   0.093  -0.092
    1UNL     C9   10  -0.068   0.056  -0.111
    1UNL     N2   11   0.013   0.122  -0.026
    1UNL    C10   12  -0.063   0.202   0.054
    1UNL    C11   13  -0.043   0.286   0.166
    1UNL    C12   14  -0.148   0.351   0.219
    1UNL    C13   15  -0.276   0.347   0.171
    1UNL    C14   16  -0.300   0.274   0.062
    1UNL    C15   17  -0.196   0.194   0.003
    1UNL    C16   18   0.134   0.067   0.040
    1UNL    C17   19   0.262   0.140  -0.016
    1UNL     O1   20   0.347   0.180   0.062
    1UNL     O2   21   0.269   0.143  -0.154
    1UNL    C18   22   0.360   0.247  -0.189
    1UNL    C19   23   0.148  -0.082   0.007
    1UNL    C20   24   0.124  -0.103  -0.147
    1UNL    C21   25  -0.028  -0.074  -0.173
    1UNL     H1   26   0.314  -0.203   0.185
    1UNL     H2   27   0.262  -0.311   0.313
    1UNL     H3   28   0.262  -0.360   0.147
    1UNL     H4   29   0.027  -0.293   0.255
    1UNL     H5   30  -0.138  -0.069   0.081
    1UNL     H6   31  -0.147  -0.245   0.106
    1UNL     H7   32  -0.134  -0.393  -0.108
    1UNL     H8   33   0.027  -0.343  -0.104
    1UNL     H9   34  -0.073  -0.315  -0.251
    1UNL    H10   35  -0.294  -0.204  -0.224
    1UNL    H11   36  -0.317  -0.210  -0.055
    1UNL    H12   37  -0.348   0.040  -0.228
    1UNL    H13   38  -0.399   0.019  -0.068
    1UNL    H14   39   0.060   0.297   0.209
    1UNL    H15   40  -0.146   0.413   0.309
    1UNL    H16   41  -0.355   0.414   0.208
    1UNL    H17   42  -0.390   0.299   0.016
    1UNL    H18   43   0.134   0.082   0.145
    1UNL    H19   44   0.351   0.333  -0.129
    1UNL    H20   45   0.466   0.223  -0.198
    1UNL    H21   46   0.325   0.278  -0.292
    1UNL    H22   47   0.244  -0.117   0.028
    1UNL    H23   48   0.175  -0.027  -0.204
    1UNL    H24   49   0.143  -0.210  -0.179
    1UNL    H25   50  -0.050  -0.070  -0.278
   0.00000   0.00000   0.00000   0.00000   0.00000   0.00000   0.00000   0.00000   0.00000
Generated with MDTraj, t= 75.0
 50
    1UNL     C1    1   0.251  -0.222   0.252
    1UNL     C2    2   0.116  -0.255   0.188
    1UNL     C3    3   0.069  -0.192   0.075
    1UNL     C4    4  -0.081  -0.198   0.045
    1UNL     N1    5  -0.133  -0.184  -0.109
    1UNL     C5    6  -0.125  -0.327  -0.157
    1UNL     C6    7  -0.281  -0.152  -0.117
    1UNL     C7    8  -0.311   0.001  -0.134
    1UNL     C8    9  -0.195   0.089  -0.091
    1UNL     C9   10  -0.070   0.046  -0.113
    1UNL     N2   11   0.014   0.110  -0.025
    1UNL    C10   12  -0.059   0.208   0.041
    1UNL    C11   13  -0.017   0.306   0.136
    1UNL    C12   14  -0.123   0.373   0.192
    1UNL    C13   15  -0.256   0.356   0.167
    1UNL    C14   16  -0.296   0.254   0.083
    1UNL    C15   17  -0.194   0.192   0.007
    1UNL    C16   18   0.138   0.049   0.023
    1UNL    C17   19   0.249   0.147  -0.010
    1UNL     O1   20   0.329   0.166   0.079
    1UNL     O2   21   0.254   0.199  -0.137
    1UNL    C18   22   0.375   0.269  -0.138
    1UNL    C19   23   0.153  -0.095  -0.022
    1UNL    C20   24   0.114  -0.121  -0.168
    1UNL    C21   25  -0.040  -0.083  -0.180
    1UNL     H1   26   0.246  -0.152   0.331
    1UNL     H2   27   0.301  -0.313   0.283
    1UNL     H3   28   0.308  -0.180   0.174
    1UNL     H4   29   0.046  -0.316   0.237
    1UNL     H5   30  -0.131  -0.117   0.100
    1UNL     H6   31  -0.122  -0.290   0.075
    1UNL     H7   32  -0.168  -0.398  -0.090
    1UNL     H8   33  -0.024  -0.368  -0.163
    1UNL     H9   34  -0.170  -0.340  -0.256
    1UNL    H10   35  -0.328  -0.209  -0.193
    1UNL    H11   36  -0.318  -0.185  -0.020
    1UNL    H12   37  -0.343   0.013  -0.237
    1UNL    H13   38  -0.398   0.035  -0.079
    1UNL    H14   39   0.077   0.318   0.182
    1UNL    H15   40  -0.088   0.443   0.268
    1UNL    H16   41  -0.321   0.431   0.207
    1UNL    H17   42  -0.405   0.234   0.069
    1UNL    H18   43   0.134   0.050   0.130
    1UNL    H19   44   0.372   0.357  -0.078
    1UNL    H20   45   0.471   0.215  -0.119
    1UNL    H21   46   0.383   0.312  -0.244
    1UNL    H22   47   0.255  -0.119  -0.010
    1UNL    H23   48   0.178  -0.047  -0.230
    1UNL    H24   49   0.124  -0.227  -0.197
    1UNL    H25   50  -0.052  -0.071  -0.286
   0.00000   0.00000   0.00000   0.00000   0.00000   0.00000   0.00000   0.00000   0.00000
Generated with MDTraj, t= 76.0
 50
    1UNL     C1    1   0.253  -0.187   0.220
    1UNL     C2    2   0.115  -0.226   0.182
    1UNL     C3    3   0.066  -0.193   0.063
    1UNL     C4    4  -0.079  -0.218   0.043
    1UNL     N1    5  -0.127  -0.199  -0.101
    1UNL     C5    6  -0.103  -0.330  -0.172
    1UNL     C6    7  -0.280  -0.168  -0.113
    1UNL     C7    8  -0.325  -0.023  -0.095
    1UNL     C8    9  -0.210   0.075  -0.072
    1UNL     C9   10  -0.085   0.039  -0.106
    1UNL     N2   11   0.007   0.115  -0.037
    1UNL    C10   12  -0.060   0.216   0.037
    1UNL    C11   13  -0.015   0.308   0.125
    1UNL    C12   14  -0.114   0.388   0.178
    1UNL    C13   15  -0.252   0.377   0.155
    1UNL    C14   16  -0.295   0.277   0.066
    1UNL    C15   17  -0.195   0.200   0.003
    1UNL    C16   18   0.131   0.047   0.021
    1UNL    C17   19   0.257   0.129  -0.001
    1UNL     O1   20   0.341   0.130   0.088
    1UNL     O2   21   0.274   0.191  -0.117
    1UNL    C18   22   0.379   0.281  -0.100
    1UNL    C19   23   0.146  -0.095  -0.031
    1UNL    C20   24   0.104  -0.111  -0.177
    1UNL    C21   25  -0.055  -0.083  -0.175
    1UNL     H1   26   0.293  -0.232   0.308
    1UNL     H2   27   0.322  -0.218   0.145
    1UNL     H3   28   0.268  -0.082   0.231
    1UNL     H4   29   0.041  -0.265   0.254
    1UNL     H5   30  -0.139  -0.145   0.098
    1UNL     H6   31  -0.109  -0.317   0.069
    1UNL     H7   32  -0.189  -0.394  -0.156
    1UNL     H8   33  -0.027  -0.398  -0.141
    1UNL     H9   34  -0.098  -0.314  -0.282
    1UNL    H10   35  -0.313  -0.204  -0.206
    1UNL    H11   36  -0.332  -0.227  -0.036
    1UNL    H12   37  -0.381   0.018  -0.180
    1UNL    H13   38  -0.400  -0.022  -0.020
    1UNL    H14   39   0.088   0.300   0.166
    1UNL    H15   40  -0.087   0.454   0.256
    1UNL    H16   41  -0.317   0.451   0.207
    1UNL    H17   42  -0.399   0.261   0.068
    1UNL    H18   43   0.105   0.047   0.126
    1UNL    H19   44   0.355   0.358  -0.032
    1UNL    H20   45   0.483   0.246  -0.080
    1UNL    H21   46   0.392   0.335  -0.201
    1UNL    H22   47   0.248  -0.124  -0.024
    1UNL    H23   48   0.154  -0.027  -0.248
    1UNL    H24   49   0.128  -0.212  -0.206
    1UNL    H25   50  -0.090  -0.081  -0.277
   0.00000   0.00000   0.00000   0.00000   0.00000   0.00000   0.00000   0.00000   0.00000
Generated with MDTraj, t= 77.0
 50
    1UNL     C1    1   0.252  -0.218   0.220
    1UNL     C2    2   0.119  -0.234   0.165
    1UNL     C3    3   0.066  -0.182   0.055
    1UNL     C4    4  -0.080  -0.200   0.041
    1UNL     N1    5  -0.130  -0.205  -0.105
    1UNL     C5    6  -0.110  -0.338  -0.170
    1UNL     C6    7  -0.279  -0.175  -0.109
    1UNL     C7    8  -0.325  -0.035  -0.059
    1UNL     C8    9  -0.211   0.075  -0.068
    1UNL     C9   10  -0.084   0.038  -0.110
    1UNL     N2   11   0.013   0.118  -0.050
    1UNL    C10   12  -0.068   0.213   0.020
    1UNL    C11   13  -0.029   0.327   0.094
    1UNL    C12   14  -0.117   0.402   0.163
    1UNL    C13   15  -0.256   0.379   0.147
    1UNL    C14   16  -0.298   0.271   0.079
    1UNL    C15   17  -0.202   0.190   0.010
    1UNL    C16   18   0.130   0.054   0.024
    1UNL    C17   19   0.257   0.136   0.015
    1UNL     O1   20   0.352   0.114   0.091
    1UNL     O2   21   0.265   0.222  -0.092
    1UNL    C18   22   0.397   0.260  -0.101
    1UNL    C19   23   0.148  -0.086  -0.032
    1UNL    C20   24   0.109  -0.094  -0.174
    1UNL    C21   25  -0.051  -0.087  -0.178
    1UNL     H1   26   0.291  -0.318   0.237
    1UNL     H2   27   0.317  -0.168   0.156
    1UNL     H3   28   0.246  -0.171   0.317
    1UNL     H4   29   0.049  -0.285   0.228
    1UNL     H5   30  -0.137  -0.121   0.084
    1UNL     H6   31  -0.112  -0.296   0.082
    1UNL     H7   32  -0.163  -0.419  -0.117
    1UNL     H8   33  -0.010  -0.371  -0.154
    1UNL     H9   34  -0.139  -0.335  -0.276
    1UNL    H10   35  -0.300  -0.182  -0.211
    1UNL    H11   36  -0.337  -0.250  -0.055
    1UNL    H12   37  -0.410  -0.003  -0.122
    1UNL    H13   38  -0.364  -0.029   0.037
    1UNL    H14   39   0.076   0.341   0.093
    1UNL    H15   40  -0.078   0.481   0.234
    1UNL    H16   41  -0.332   0.442   0.185
    1UNL    H17   42  -0.401   0.251   0.052
    1UNL    H18   43   0.099   0.051   0.130
    1UNL    H19   44   0.428   0.319  -0.021
    1UNL    H20   45   0.469   0.180  -0.121
    1UNL    H21   46   0.416   0.327  -0.191
    1UNL    H22   47   0.252  -0.108  -0.027
    1UNL    H23   48   0.148   0.009  -0.222
    1UNL    H24   49   0.142  -0.184  -0.223
    1UNL    H25   50  -0.093  -0.085  -0.279
   0.00000   0.00000   0.00000   0.00000   0.00000   0.00000   0.00000   0.00000   0.00000
Generated with MDTraj, t= 78.0
 50
    1UNL     C1    1   0.268  -0.254   0.201
    1UNL     C2    2   0.127  -0.264   0.166
    1UNL     C3    3   0.068  -0.182   0.080
    1UNL     C4    4  -0.085  -0.189   0.053
    1UNL     N1    5  -0.124  -0.197  -0.096
    1UNL     C5    6  -0.104  -0.341  -0.149
    1UNL     C6    7  -0.277  -0.163  -0.118
    1UNL     C7    8  -0.328  -0.017  -0.101
    1UNL     C8    9  -0.211   0.068  -0.073
    1UNL     C9   10  -0.077   0.039  -0.110
    1UNL     N2   11   0.005   0.125  -0.041
    1UNL    C10   12  -0.072   0.223   0.022
    1UNL    C11   13  -0.030   0.342   0.083
    1UNL    C12   14  -0.117   0.423   0.154
    1UNL    C13   15  -0.257   0.370   0.154
    1UNL    C14   16  -0.299   0.260   0.087
    1UNL    C15   17  -0.207   0.191   0.007
    1UNL    C16   18   0.124   0.066   0.034
    1UNL    C17   19   0.257   0.130  -0.001
    1UNL     O1   20   0.356   0.104   0.070
    1UNL     O2   21   0.261   0.220  -0.100
    1UNL    C18   22   0.386   0.278  -0.093
    1UNL    C19   23   0.145  -0.087  -0.007
    1UNL    C20   24   0.108  -0.105  -0.156
    1UNL    C21   25  -0.046  -0.091  -0.177
    1UNL     H1   26   0.322  -0.276   0.110
    1UNL     H2   27   0.296  -0.159   0.238
    1UNL     H3   28   0.292  -0.333   0.270
    1UNL     H4   29   0.059  -0.333   0.218
    1UNL     H5   30  -0.144  -0.110   0.090
    1UNL     H6   31  -0.129  -0.285   0.083
    1UNL     H7   32  -0.184  -0.408  -0.109
    1UNL     H8   33  -0.017  -0.390  -0.106
    1UNL     H9   34  -0.107  -0.339  -0.257
    1UNL    H10   35  -0.287  -0.176  -0.221
    1UNL    H11   36  -0.331  -0.238  -0.058
    1UNL    H12   37  -0.382   0.020  -0.192
    1UNL    H13   38  -0.400  -0.008  -0.028
    1UNL    H14   39   0.073   0.369   0.069
    1UNL    H15   40  -0.088   0.504   0.208
    1UNL    H16   41  -0.327   0.440   0.202
    1UNL    H17   42  -0.403   0.234   0.064
    1UNL    H18   43   0.105   0.072   0.144
    1UNL    H19   44   0.419   0.301   0.004
    1UNL    H20   45   0.461   0.225  -0.150
    1UNL    H21   46   0.390   0.375  -0.148
    1UNL    H22   47   0.249  -0.113   0.001
    1UNL    H23   48   0.151  -0.019  -0.217
    1UNL    H24   49   0.127  -0.208  -0.193
    1UNL    H25   50  -0.085  -0.078  -0.280
   0.00000   0.00000   0.00000   0.00000   0.00000   0.00000   0.00000   0.00000   0.00000
Generated with MDTraj, t= 79.0
 50
    1UNL     C1    1   0.256  -0.314   0.202
    1UNL     C2    2   0.121  -0.271   0.167
    1UNL     C3    3   0.071  -0.182   0.080
    1UNL     C4    4  -0.073  -0.168   0.057
    1UNL     N1    5  -0.127  -0.190  -0.090
    1UNL     C5    6  -0.097  -0.337  -0.123
    1UNL     C6    7  -0.278  -0.163  -0.099
    1UNL     C7    8  -0.322  -0.021  -0.090
    1UNL     C8    9  -0.205   0.082  -0.097
    1UNL     C9   10  -0.074   0.051  -0.117
    1UNL     N2   11   0.012   0.119  -0.028
    1UNL    C10   12  -0.066   0.214   0.032
    1UNL    C11   13  -0.028   0.303   0.130
    1UNL    C12   14  -0.124   0.391   0.181
    1UNL    C13   15  -0.257   0.380   0.129
    1UNL    C14   16  -0.303   0.289   0.030
    1UNL    C15   17  -0.199   0.202  -0.022
    1UNL    C16   18   0.135   0.057   0.028
    1UNL    C17   19   0.253   0.142  -0.006
    1UNL     O1   20   0.360   0.116   0.047
    1UNL     O2   21   0.238   0.247  -0.091
    1UNL    C18   22   0.364   0.305  -0.104
    1UNL    C19   23   0.153  -0.098  -0.015
    1UNL    C20   24   0.108  -0.115  -0.156
    1UNL    C21   25  -0.042  -0.086  -0.171
    1UNL     H1   26   0.310  -0.326   0.110
    1UNL     H2   27   0.317  -0.247   0.261
    1UNL     H3   28   0.258  -0.413   0.243
    1UNL     H4   29   0.044  -0.312   0.231
    1UNL     H5   30  -0.104  -0.072   0.083
    1UNL     H6   31  -0.124  -0.247   0.115
    1UNL     H7   32  -0.175  -0.396  -0.071
    1UNL     H8   33  -0.002  -0.370  -0.077
    1UNL     H9   34  -0.101  -0.344  -0.229
    1UNL    H10   35  -0.295  -0.214  -0.188
    1UNL    H11   36  -0.327  -0.210  -0.013
    1UNL    H12   37  -0.387   0.002  -0.177
    1UNL    H13   38  -0.387   0.004  -0.012
    1UNL    H14   39   0.072   0.295   0.171
    1UNL    H15   40  -0.095   0.463   0.265
    1UNL    H16   41  -0.326   0.457   0.150
    1UNL    H17   42  -0.396   0.279  -0.021
    1UNL    H18   43   0.127   0.056   0.141
    1UNL    H19   44   0.390   0.382  -0.038
    1UNL    H20   45   0.445   0.233  -0.105
    1UNL    H21   46   0.371   0.349  -0.207
    1UNL    H22   47   0.259  -0.129  -0.011
    1UNL    H23   48   0.158  -0.043  -0.216
    1UNL    H24   49   0.116  -0.223  -0.193
    1UNL    H25   50  -0.075  -0.092  -0.277
   0.00000   0.00000   0.00000   0.00000   0.00000   0.00000   0.00000   0.00000   0.00000
Generated with MDTraj, t= 80.0
 50
    1UNL     C1    1   0.266  -0.307   0.172
    1UNL     C2    2   0.117  -0.279   0.163
    1UNL     C3    3   0.064  -0.182   0.088
    1UNL     C4    4  -0.087  -0.175   0.069
    1UNL     N1    5  -0.129  -0.191  -0.079
    1UNL     C5    6  -0.110  -0.334  -0.113
    1UNL     C6    7  -0.277  -0.148  -0.109
    1UNL     C7    8  -0.300  -0.001  -0.152
    1UNL     C8    9  -0.193   0.086  -0.094
    1UNL     C9   10  -0.062   0.043  -0.108
    1UNL     N2   11   0.015   0.107  -0.012
    1UNL    C10   12  -0.061   0.219   0.042
    1UNL    C11   13  -0.033   0.313   0.135
    1UNL    C12   14  -0.134   0.399   0.183
    1UNL    C13   15  -0.264   0.384   0.127
    1UNL    C14   16  -0.289   0.282   0.034
    1UNL    C15   17  -0.185   0.204  -0.010
    1UNL    C16   18   0.141   0.049   0.045
    1UNL    C17   19   0.258   0.132  -0.008
    1UNL     O1   20   0.376   0.116   0.021
    1UNL     O2   21   0.218   0.231  -0.094
    1UNL    C18   22   0.327   0.320  -0.115
    1UNL    C19   23   0.151  -0.102   0.008
    1UNL    C20   24   0.115  -0.121  -0.139
    1UNL    C21   25  -0.039  -0.095  -0.162
    1UNL     H1   26   0.283  -0.368   0.087
    1UNL     H2   27   0.336  -0.221   0.165
    1UNL     H3   28   0.291  -0.369   0.253
    1UNL     H4   29   0.046  -0.335   0.220
    1UNL     H5   30  -0.131  -0.083   0.094
    1UNL     H6   31  -0.131  -0.261   0.123
    1UNL     H7   32  -0.179  -0.380  -0.042
    1UNL     H8   33  -0.009  -0.375  -0.088
    1UNL     H9   34  -0.143  -0.349  -0.215
    1UNL    H10   35  -0.313  -0.205  -0.188
    1UNL    H11   36  -0.326  -0.176  -0.014
    1UNL    H12   37  -0.300   0.013  -0.261
    1UNL    H13   38  -0.397   0.038  -0.129
    1UNL    H14   39   0.050   0.302   0.202
    1UNL    H15   40  -0.110   0.465   0.260
    1UNL    H16   41  -0.348   0.449   0.146
    1UNL    H17   42  -0.387   0.270  -0.012
    1UNL    H18   43   0.124   0.075   0.156
    1UNL    H19   44   0.388   0.348  -0.033
    1UNL    H20   45   0.396   0.272  -0.186
    1UNL    H21   46   0.295   0.416  -0.165
    1UNL    H22   47   0.257  -0.134   0.023
    1UNL    H23   48   0.168  -0.057  -0.198
    1UNL    H24   49   0.142  -0.230  -0.170
    1UNL    H25   50  -0.056  -0.117  -0.270
   0.00000   0.00000   0.00000   0.00000   0.00000   0.00000   0.00000   0.00000   0.00000
Generated with MDTraj, t= 81.0
 50
    1UNL     C1    1   0.252  -0.312   0.214
    1UNL     C2    2   0.112  -0.294   0.166
    1UNL     C3    3   0.066  -0.192   0.088
    1UNL     C4    4  -0.082  -0.184   0.067
    1UNL     N1    5  -0.124  -0.187  -0.083
    1UNL     C5    6  -0.098  -0.321  -0.150
    1UNL     C6    7  -0.268  -0.142  -0.092
    1UNL     C7    8  -0.304   0.002  -0.141
    1UNL     C8    9  -0.191   0.093  -0.099
    1UNL     C9   10  -0.061   0.042  -0.104
    1UNL     N2   11   0.019   0.119  -0.019
    1UNL    C10   12  -0.067   0.206   0.046
    1UNL    C11   13  -0.036   0.308   0.141
    1UNL    C12   14  -0.137   0.398   0.182
    1UNL    C13   15  -0.266   0.382   0.127
    1UNL    C14   16  -0.304   0.281   0.042
    1UNL    C15   17  -0.199   0.200  -0.008
    1UNL    C16   18   0.139   0.058   0.035
    1UNL    C17   19   0.258   0.139  -0.015
    1UNL     O1   20   0.371   0.101   0.001
    1UNL     O2   21   0.220   0.250  -0.081
    1UNL    C18   22   0.332   0.300  -0.142
    1UNL    C19   23   0.158  -0.098   0.011
    1UNL    C20   24   0.122  -0.114  -0.136
    1UNL    C21   25  -0.031  -0.090  -0.153
    1UNL     H1   26   0.308  -0.290   0.126
    1UNL     H2   27   0.286  -0.243   0.296
    1UNL     H3   28   0.276  -0.414   0.233
    1UNL     H4   29   0.038  -0.362   0.211
    1UNL     H5   30  -0.114  -0.092   0.111
    1UNL     H6   31  -0.135  -0.267   0.113
    1UNL     H7   32  -0.143  -0.396  -0.086
    1UNL     H8   33   0.008  -0.347  -0.144
    1UNL     H9   34  -0.139  -0.326  -0.254
    1UNL    H10   35  -0.306  -0.213  -0.160
    1UNL    H11   36  -0.312  -0.147   0.008
    1UNL    H12   37  -0.317   0.015  -0.247
    1UNL    H13   38  -0.399   0.030  -0.096
    1UNL    H14   39   0.063   0.309   0.185
    1UNL    H15   40  -0.122   0.477   0.259
    1UNL    H16   41  -0.336   0.463   0.148
    1UNL    H17   42  -0.401   0.280   0.000
    1UNL    H18   43   0.128   0.086   0.146
    1UNL    H19   44   0.414   0.323  -0.075
    1UNL    H20   45   0.371   0.219  -0.211
    1UNL    H21   46   0.303   0.394  -0.197
    1UNL    H22   47   0.266  -0.126   0.034
    1UNL    H23   48   0.179  -0.048  -0.192
    1UNL    H24   49   0.150  -0.215  -0.183
    1UNL    H25   50  -0.046  -0.096  -0.263
   0.00000   0.00000   0.00000   0.00000   0.00000   0.00000   0.00000   0.00000   0.00000
Generated with MDTraj, t= 82.0
 50
    1UNL     C1    1   0.252  -0.261   0.214
    1UNL     C2    2   0.110  -0.258   0.189
    1UNL     C3    3   0.059  -0.182   0.089
    1UNL     C4    4  -0.090  -0.184   0.062
    1UNL     N1    5  -0.123  -0.187  -0.088
    1UNL     C5    6  -0.083  -0.324  -0.136
    1UNL     C6    7  -0.262  -0.149  -0.142
    1UNL     C7    8  -0.309  -0.003  -0.113
    1UNL     C8    9  -0.194   0.088  -0.089
    1UNL     C9   10  -0.068   0.046  -0.106
    1UNL     N2   11   0.011   0.115  -0.021
    1UNL    C10   12  -0.072   0.204   0.053
    1UNL    C11   13  -0.044   0.305   0.153
    1UNL    C12   14  -0.139   0.391   0.185
    1UNL    C13   15  -0.272   0.384   0.137
    1UNL    C14   16  -0.302   0.280   0.056
    1UNL    C15   17  -0.198   0.198   0.001
    1UNL    C16   18   0.138   0.052   0.031
    1UNL    C17   19   0.262   0.125  -0.025
    1UNL     O1   20   0.371   0.077  -0.014
    1UNL     O2   21   0.237   0.247  -0.082
    1UNL    C18   22   0.357   0.293  -0.130
    1UNL    C19   23   0.150  -0.100  -0.001
    1UNL    C20   24   0.111  -0.118  -0.150
    1UNL    C21   25  -0.032  -0.088  -0.168
    1UNL     H1   26   0.290  -0.316   0.128
    1UNL     H2   27   0.306  -0.164   0.214
    1UNL     H3   28   0.291  -0.322   0.294
    1UNL     H4   29   0.050  -0.323   0.246
    1UNL     H5   30  -0.144  -0.099   0.102
    1UNL     H6   31  -0.138  -0.269   0.107
    1UNL     H7   32  -0.168  -0.391  -0.129
    1UNL     H8   33  -0.005  -0.377  -0.084
    1UNL     H9   34  -0.065  -0.314  -0.248
    1UNL    H10   35  -0.262  -0.157  -0.247
    1UNL    H11   36  -0.336  -0.218  -0.099
    1UNL    H12   37  -0.363   0.027  -0.199
    1UNL    H13   38  -0.377  -0.002  -0.026
    1UNL    H14   39   0.050   0.319   0.199
    1UNL    H15   40  -0.133   0.457   0.268
    1UNL    H16   41  -0.343   0.460   0.155
    1UNL    H17   42  -0.401   0.270   0.012
    1UNL    H18   43   0.143   0.068   0.145
    1UNL    H19   44   0.428   0.305  -0.049
    1UNL    H20   45   0.398   0.210  -0.195
    1UNL    H21   46   0.341   0.391  -0.181
    1UNL    H22   47   0.254  -0.148   0.011
    1UNL    H23   48   0.173  -0.063  -0.218
    1UNL    H24   49   0.130  -0.217  -0.187
    1UNL    H25   50  -0.057  -0.086  -0.277
   0.00000   0.00000   0.00000   0.00000   0.00000   0.00000   0.00000   0.00000   0.00000
Generated with MDTraj, t= 83.0
 50
    1UNL     C1    1   0.221  -0.218   0.266
    1UNL     C2    2   0.093  -0.225   0.199
    1UNL     C3    3   0.051  -0.181   0.078
    1UNL     C4    4  -0.094  -0.204   0.045
    1UNL     N1    5  -0.128  -0.193  -0.104
    1UNL     C5    6  -0.096  -0.331  -0.161
    1UNL     C6    7  -0.274  -0.169  -0.119
    1UNL     C7    8  -0.314  -0.019  -0.124
    1UNL     C8    9  -0.206   0.080  -0.081
    1UNL     C9   10  -0.074   0.048  -0.118
    1UNL     N2   11   0.015   0.123  -0.040
    1UNL    C10   12  -0.053   0.216   0.034
    1UNL    C11   13  -0.024   0.318   0.125
    1UNL    C12   14  -0.121   0.381   0.190
    1UNL    C13   15  -0.253   0.352   0.167
    1UNL    C14   16  -0.293   0.250   0.088
    1UNL    C15   17  -0.194   0.193   0.009
    1UNL    C16   18   0.138   0.051   0.015
    1UNL    C17   19   0.266   0.132  -0.023
    1UNL     O1   20   0.374   0.085  -0.012
    1UNL     O2   21   0.253   0.255  -0.077
    1UNL    C18   22   0.380   0.306  -0.113
    1UNL    C19   23   0.136  -0.096  -0.014
    1UNL    C20   24   0.110  -0.123  -0.163
    1UNL    C21   25  -0.038  -0.086  -0.178
    1UNL     H1   26   0.286  -0.276   0.199
    1UNL     H2   27   0.264  -0.119   0.269
    1UNL     H3   28   0.228  -0.275   0.361
    1UNL     H4   29   0.019  -0.280   0.263
    1UNL     H5   30  -0.151  -0.124   0.093
    1UNL     H6   31  -0.135  -0.295   0.083
    1UNL     H7   32  -0.141  -0.405  -0.093
    1UNL     H8   33   0.007  -0.362  -0.157
    1UNL     H9   34  -0.139  -0.350  -0.263
    1UNL    H10   35  -0.310  -0.216  -0.207
    1UNL    H11   36  -0.328  -0.221  -0.040
    1UNL    H12   37  -0.342   0.005  -0.222
    1UNL    H13   38  -0.404  -0.003  -0.062
    1UNL    H14   39   0.083   0.328   0.153
    1UNL    H15   40  -0.090   0.454   0.267
    1UNL    H16   41  -0.329   0.411   0.226
    1UNL    H17   42  -0.398   0.241   0.074
    1UNL    H18   43   0.136   0.070   0.129
    1UNL    H19   44   0.442   0.295  -0.026
    1UNL    H20   45   0.425   0.240  -0.190
    1UNL    H21   46   0.367   0.411  -0.138
    1UNL    H22   47   0.241  -0.139   0.004
    1UNL    H23   48   0.173  -0.056  -0.222
    1UNL    H24   49   0.135  -0.212  -0.203
    1UNL    H25   50  -0.068  -0.081  -0.286
   0.00000   0.00000   0.00000   0.00000   0.00000   0.00000   0.00000   0.00000   0.00000
Generated with MDTraj, t= 84.0
 50
    1UNL     C1    1   0.219  -0.151   0.263
    1UNL     C2    2   0.093  -0.201   0.210
    1UNL     C3    3   0.053  -0.180   0.082
    1UNL     C4    4  -0.090  -0.208   0.039
    1UNL     N1    5  -0.131  -0.199  -0.110
    1UNL     C5    6  -0.112  -0.341  -0.170
    1UNL     C6    7  -0.280  -0.164  -0.134
    1UNL     C7    8  -0.319  -0.012  -0.110
    1UNL     C8    9  -0.196   0.078  -0.091
    1UNL     C9   10  -0.070   0.045  -0.126
    1UNL     N2   11   0.024   0.121  -0.053
    1UNL    C10   12  -0.050   0.215   0.024
    1UNL    C11   13  -0.010   0.311   0.118
    1UNL    C12   14  -0.112   0.365   0.193
    1UNL    C13   15  -0.241   0.330   0.190
    1UNL    C14   16  -0.283   0.249   0.087
    1UNL    C15   17  -0.184   0.193   0.002
    1UNL    C16   18   0.136   0.049   0.016
    1UNL    C17   19   0.264   0.126  -0.021
    1UNL     O1   20   0.369   0.071  -0.011
    1UNL     O2   21   0.243   0.255  -0.059
    1UNL    C18   22   0.370   0.310  -0.093
    1UNL    C19   23   0.138  -0.100  -0.014
    1UNL    C20   24   0.100  -0.130  -0.164
    1UNL    C21   25  -0.047  -0.092  -0.183
    1UNL     H1   26   0.290  -0.163   0.178
    1UNL     H2   27   0.221  -0.048   0.286
    1UNL     H3   28   0.265  -0.218   0.340
    1UNL     H4   29   0.035  -0.257   0.278
    1UNL     H5   30  -0.160  -0.141   0.091
    1UNL     H6   31  -0.115  -0.305   0.072
    1UNL     H7   32  -0.196  -0.406  -0.141
    1UNL     H8   33  -0.021  -0.397  -0.137
    1UNL     H9   34  -0.118  -0.329  -0.278
    1UNL    H10   35  -0.299  -0.208  -0.232
    1UNL    H11   36  -0.348  -0.228  -0.079
    1UNL    H12   37  -0.370   0.027  -0.193
    1UNL    H13   38  -0.392  -0.000  -0.028
    1UNL    H14   39   0.091   0.325   0.137
    1UNL    H15   40  -0.079   0.429   0.273
    1UNL    H16   41  -0.305   0.386   0.251
    1UNL    H17   42  -0.389   0.229   0.073
    1UNL    H18   43   0.130   0.080   0.128
    1UNL    H19   44   0.421   0.306   0.001
    1UNL    H20   45   0.420   0.236  -0.155
    1UNL    H21   46   0.364   0.410  -0.133
    1UNL    H22   47   0.249  -0.131  -0.005
    1UNL    H23   48   0.163  -0.079  -0.235
    1UNL    H24   49   0.107  -0.233  -0.184
    1UNL    H25   50  -0.086  -0.085  -0.288
   0.00000   0.00000   0.00000   0.00000   0.00000   0.00000   0.00000   0.00000   0.00000
Generated with MDTraj, t= 85.0
 50
    1UNL     C1    1   0.216  -0.161   0.270
    1UNL     C2    2   0.090  -0.194   0.202
    1UNL     C3    3   0.050  -0.166   0.075
    1UNL     C4    4  -0.100  -0.187   0.044
    1UNL     N1    5  -0.131  -0.199  -0.107
    1UNL     C5    6  -0.098  -0.340  -0.160
    1UNL     C6    7  -0.278  -0.171  -0.134
    1UNL     C7    8  -0.329  -0.026  -0.095
    1UNL     C8    9  -0.205   0.069  -0.087
    1UNL     C9   10  -0.077   0.037  -0.124
    1UNL     N2   11   0.013   0.108  -0.044
    1UNL    C10   12  -0.058   0.193   0.045
    1UNL    C11   13  -0.015   0.291   0.133
    1UNL    C12   14  -0.106   0.366   0.197
    1UNL    C13   15  -0.242   0.358   0.164
    1UNL    C14   16  -0.289   0.262   0.077
    1UNL    C15   17  -0.198   0.172   0.014
    1UNL    C16   18   0.141   0.056   0.004
    1UNL    C17   19   0.269   0.129  -0.035
    1UNL     O1   20   0.373   0.067  -0.034
    1UNL     O2   21   0.261   0.259  -0.055
    1UNL    C18   22   0.387   0.310  -0.072
    1UNL    C19   23   0.140  -0.093  -0.029
    1UNL    C20   24   0.108  -0.120  -0.179
    1UNL    C21   25  -0.048  -0.091  -0.190
    1UNL     H1   26   0.301  -0.191   0.204
    1UNL     H2   27   0.231  -0.057   0.285
    1UNL     H3   28   0.237  -0.226   0.361
    1UNL     H4   29   0.016  -0.247   0.266
    1UNL     H5   30  -0.146  -0.092   0.080
    1UNL     H6   31  -0.144  -0.265   0.099
    1UNL     H7   32  -0.177  -0.415  -0.134
    1UNL     H8   33  -0.006  -0.373  -0.102
    1UNL     H9   34  -0.086  -0.337  -0.265
    1UNL    H10   35  -0.306  -0.181  -0.239
    1UNL    H11   36  -0.330  -0.259  -0.098
    1UNL    H12   37  -0.392   0.009  -0.170
    1UNL    H13   38  -0.385  -0.013  -0.001
    1UNL    H14   39   0.090   0.301   0.162
    1UNL    H15   40  -0.084   0.434   0.278
    1UNL    H16   41  -0.315   0.442   0.184
    1UNL    H17   42  -0.392   0.267   0.049
    1UNL    H18   43   0.147   0.078   0.119
    1UNL    H19   44   0.433   0.280   0.023
    1UNL    H20   45   0.433   0.258  -0.157
    1UNL    H21   46   0.379   0.417  -0.083
    1UNL    H22   47   0.238  -0.152  -0.008
    1UNL    H23   48   0.159  -0.052  -0.241
    1UNL    H24   49   0.129  -0.229  -0.206
    1UNL    H25   50  -0.083  -0.080  -0.297
   0.00000   0.00000   0.00000   0.00000   0.00000   0.00000   0.00000   0.00000   0.00000
Generated with MDTraj, t= 86.0
 50
    1UNL     C1    1   0.239  -0.221   0.256
    1UNL     C2    2   0.101  -0.237   0.199
    1UNL     C3    3   0.054  -0.174   0.090
    1UNL     C4    4  -0.092  -0.198   0.052
    1UNL     N1    5  -0.122  -0.197  -0.102
    1UNL     C5    6  -0.114  -0.331  -0.175
    1UNL     C6    7  -0.274  -0.164  -0.118
    1UNL     C7    8  -0.312  -0.007  -0.118
    1UNL     C8    9  -0.199   0.079  -0.082
    1UNL     C9   10  -0.068   0.040  -0.108
    1UNL     N2   11   0.019   0.119  -0.033
    1UNL    C10   12  -0.059   0.215   0.026
    1UNL    C11   13  -0.029   0.328   0.111
    1UNL    C12   14  -0.133   0.387   0.180
    1UNL    C13   15  -0.266   0.348   0.162
    1UNL    C14   16  -0.296   0.258   0.071
    1UNL    C15   17  -0.192   0.199  -0.005
    1UNL    C16   18   0.139   0.063   0.031
    1UNL    C17   19   0.262   0.124  -0.034
    1UNL     O1   20   0.348   0.052  -0.086
    1UNL     O2   21   0.260   0.257  -0.023
    1UNL    C18   22   0.372   0.308  -0.089
    1UNL    C19   23   0.148  -0.089  -0.002
    1UNL    C20   24   0.125  -0.119  -0.142
    1UNL    C21   25  -0.037  -0.091  -0.168
    1UNL     H1   26   0.306  -0.283   0.193
    1UNL     H2   27   0.275  -0.120   0.236
    1UNL     H3   28   0.254  -0.263   0.360
    1UNL     H4   29   0.039  -0.309   0.244
    1UNL     H5   30  -0.146  -0.112   0.094
    1UNL     H6   31  -0.125  -0.283   0.104
    1UNL     H7   32  -0.179  -0.405  -0.124
    1UNL     H8   33  -0.008  -0.371  -0.177
    1UNL     H9   34  -0.152  -0.317  -0.275
    1UNL    H10   35  -0.295  -0.196  -0.222
    1UNL    H11   36  -0.348  -0.217  -0.062
    1UNL    H12   37  -0.346   0.022  -0.213
    1UNL    H13   38  -0.395   0.007  -0.048
    1UNL    H14   39   0.071   0.355   0.138
    1UNL    H15   40  -0.108   0.472   0.248
    1UNL    H16   41  -0.338   0.391   0.222
    1UNL    H17   42  -0.395   0.235   0.035
    1UNL    H18   43   0.155   0.087   0.145
    1UNL    H19   44   0.450   0.274  -0.015
    1UNL    H20   45   0.379   0.251  -0.185
    1UNL    H21   46   0.364   0.414  -0.109
    1UNL    H22   47   0.253  -0.127   0.030
    1UNL    H23   48   0.189  -0.058  -0.198
    1UNL    H24   49   0.141  -0.234  -0.163
    1UNL    H25   50  -0.053  -0.098  -0.279
   0.00000   0.00000   0.00000   0.00000   0.00000   0.00000   0.00000   0.00000   0.00000
Generated with MDTraj, t= 87.0
 50
    1UNL     C1    1   0.237  -0.280   0.224
    1UNL     C2    2   0.097  -0.257   0.183
    1UNL     C3    3   0.060  -0.172   0.088
    1UNL     C4    4  -0.092  -0.166   0.062
    1UNL     N1    5  -0.125  -0.195  -0.087
    1UNL     C5    6  -0.089  -0.344  -0.117
    1UNL     C6    7  -0.272  -0.167  -0.120
    1UNL     C7    8  -0.302  -0.019  -0.144
    1UNL     C8    9  -0.201   0.075  -0.085
    1UNL     C9   10  -0.073   0.034  -0.094
    1UNL     N2   11   0.013   0.106  -0.010
    1UNL    C10   12  -0.062   0.208   0.046
    1UNL    C11   13  -0.029   0.307   0.135
    1UNL    C12   14  -0.126   0.397   0.171
    1UNL    C13   15  -0.262   0.385   0.128
    1UNL    C14   16  -0.299   0.284   0.045
    1UNL    C15   17  -0.195   0.194  -0.004
    1UNL    C16   18   0.146   0.059   0.031
    1UNL    C17   19   0.261   0.129  -0.037
    1UNL     O1   20   0.333   0.076  -0.124
    1UNL     O2   21   0.268   0.257   0.001
    1UNL    C18   22   0.352   0.336  -0.082
    1UNL    C19   23   0.155  -0.092  -0.005
    1UNL    C20   24   0.119  -0.119  -0.144
    1UNL    C21   25  -0.037  -0.089  -0.159
    1UNL     H1   26   0.289  -0.319   0.134
    1UNL     H2   27   0.292  -0.182   0.231
    1UNL     H3   28   0.252  -0.360   0.302
    1UNL     H4   29   0.020  -0.325   0.224
    1UNL     H5   30  -0.128  -0.067   0.090
    1UNL     H6   31  -0.149  -0.233   0.123
    1UNL     H7   32  -0.167  -0.416  -0.087
    1UNL     H8   33   0.006  -0.379  -0.073
    1UNL     H9   34  -0.087  -0.350  -0.228
    1UNL    H10   35  -0.300  -0.220  -0.217
    1UNL    H11   36  -0.335  -0.206  -0.045
    1UNL    H12   37  -0.288   0.001  -0.248
    1UNL    H13   38  -0.404   0.010  -0.116
    1UNL    H14   39   0.074   0.316   0.162
    1UNL    H15   40  -0.113   0.464   0.249
    1UNL    H16   41  -0.335   0.468   0.148
    1UNL    H17   42  -0.400   0.266   0.006
    1UNL    H18   43   0.156   0.079   0.146
    1UNL    H19   44   0.441   0.265  -0.094
    1UNL    H20   45   0.290   0.361  -0.173
    1UNL    H21   46   0.381   0.430  -0.036
    1UNL    H22   47   0.262  -0.135   0.010
    1UNL    H23   48   0.171  -0.059  -0.214
    1UNL    H24   49   0.143  -0.231  -0.163
    1UNL    H25   50  -0.058  -0.085  -0.270
   0.00000   0.00000   0.00000   0.00000   0.00000   0.00000   0.00000   0.00000   0.00000
Generated with MDTraj, t= 88.0
 50
    1UNL     C1    1   0.258  -0.320   0.197
    1UNL     C2    2   0.119  -0.279   0.175
    1UNL     C3    3   0.071  -0.181   0.099
    1UNL     C4    4  -0.076  -0.162   0.078
    1UNL     N1    5  -0.125  -0.188  -0.067
    1UNL     C5    6  -0.114  -0.333  -0.106
    1UNL     C6    7  -0.273  -0.157  -0.094
    1UNL     C7    8  -0.315  -0.008  -0.111
    1UNL     C8    9  -0.191   0.082  -0.116
    1UNL     C9   10  -0.064   0.028  -0.109
    1UNL     N2   11   0.012   0.098  -0.018
    1UNL    C10   12  -0.062   0.214   0.021
    1UNL    C11   13  -0.035   0.300   0.124
    1UNL    C12   14  -0.130   0.385   0.172
    1UNL    C13   15  -0.256   0.388   0.106
    1UNL    C14   16  -0.286   0.295   0.005
    1UNL    C15   17  -0.187   0.210  -0.043
    1UNL    C16   18   0.139   0.056   0.036
    1UNL    C17   19   0.238   0.142  -0.033
    1UNL     O1   20   0.292   0.105  -0.137
    1UNL     O2   21   0.261   0.259   0.021
    1UNL    C18   22   0.354   0.342  -0.043
    1UNL    C19   23   0.159  -0.096   0.011
    1UNL    C20   24   0.131  -0.131  -0.138
    1UNL    C21   25  -0.029  -0.102  -0.158
    1UNL     H1   26   0.316  -0.341   0.105
    1UNL     H2   27   0.327  -0.237   0.237
    1UNL     H3   28   0.260  -0.414   0.253
    1UNL     H4   29   0.052  -0.347   0.219
    1UNL     H5   30  -0.104  -0.061   0.100
    1UNL     H6   31  -0.137  -0.221   0.146
    1UNL     H7   32  -0.202  -0.391  -0.073
    1UNL     H8   33  -0.028  -0.381  -0.065
    1UNL     H9   34  -0.113  -0.345  -0.219
    1UNL    H10   35  -0.301  -0.212  -0.191
    1UNL    H11   36  -0.324  -0.207  -0.018
    1UNL    H12   37  -0.377   0.014  -0.196
    1UNL    H13   38  -0.367   0.033  -0.025
    1UNL    H14   39   0.054   0.286   0.187
    1UNL    H15   40  -0.107   0.440   0.269
    1UNL    H16   41  -0.334   0.453   0.131
    1UNL    H17   42  -0.378   0.284  -0.047
    1UNL    H18   43   0.127   0.088   0.147
    1UNL    H19   44   0.439   0.270  -0.069
    1UNL    H20   45   0.292   0.386  -0.124
    1UNL    H21   46   0.388   0.419   0.022
    1UNL    H22   47   0.271  -0.123   0.029
    1UNL    H23   48   0.191  -0.071  -0.206
    1UNL    H24   49   0.147  -0.236  -0.165
    1UNL    H25   50  -0.060  -0.113  -0.267
   0.00000   0.00000   0.00000   0.00000   0.00000   0.00000   0.00000   0.00000   0.00000
Generated with MDTraj, t= 89.0
 50
    1UNL     C1    1   0.269  -0.298   0.166
    1UNL     C2    2   0.129  -0.269   0.171
    1UNL     C3    3   0.077  -0.179   0.090
    1UNL     C4    4  -0.071  -0.164   0.077
    1UNL     N1    5  -0.131  -0.197  -0.064
    1UNL     C5    6  -0.117  -0.338  -0.105
    1UNL     C6    7  -0.284  -0.165  -0.077
    1UNL     C7    8  -0.317  -0.025  -0.140
    1UNL     C8    9  -0.211   0.071  -0.094
    1UNL     C9   10  -0.076   0.031  -0.105
    1UNL     N2   11   0.008   0.112  -0.033
    1UNL    C10   12  -0.071   0.207   0.021
    1UNL    C11   13  -0.028   0.324   0.080
    1UNL    C12   14  -0.128   0.419   0.125
    1UNL    C13   15  -0.263   0.393   0.101
    1UNL    C14   16  -0.302   0.284   0.033
    1UNL    C15   17  -0.203   0.193  -0.011
    1UNL    C16   18   0.134   0.057   0.027
    1UNL    C17   19   0.254   0.131  -0.023
    1UNL     O1   20   0.307   0.107  -0.130
    1UNL     O2   21   0.298   0.233   0.059
    1UNL    C18   22   0.377   0.339   0.004
    1UNL    C19   23   0.155  -0.094  -0.002
    1UNL    C20   24   0.111  -0.119  -0.146
    1UNL    C21   25  -0.046  -0.107  -0.155
    1UNL     H1   26   0.310  -0.344   0.072
    1UNL     H2   27   0.337  -0.205   0.177
    1UNL     H3   28   0.296  -0.373   0.241
    1UNL     H4   29   0.068  -0.343   0.226
    1UNL     H5   30  -0.100  -0.066   0.102
    1UNL     H6   31  -0.124  -0.232   0.146
    1UNL     H7   32  -0.177  -0.395  -0.033
    1UNL     H8   33  -0.015  -0.372  -0.094
    1UNL     H9   34  -0.156  -0.369  -0.208
    1UNL    H10   35  -0.322  -0.260  -0.128
    1UNL    H11   36  -0.325  -0.165   0.019
    1UNL    H12   37  -0.303  -0.019  -0.248
    1UNL    H13   38  -0.418   0.006  -0.125
    1UNL    H14   39   0.075   0.326   0.107
    1UNL    H15   40  -0.100   0.502   0.179
    1UNL    H16   41  -0.342   0.461   0.139
    1UNL    H17   42  -0.405   0.268   0.000
    1UNL    H18   43   0.146   0.072   0.142
    1UNL    H19   44   0.482   0.301  -0.000
    1UNL    H20   45   0.328   0.360  -0.092
    1UNL    H21   46   0.370   0.425   0.061
    1UNL    H22   47   0.269  -0.116   0.010
    1UNL    H23   48   0.157  -0.057  -0.224
    1UNL    H24   49   0.125  -0.218  -0.167
    1UNL    H25   50  -0.077  -0.118  -0.263
   0.00000   0.00000   0.00000   0.00000   0.00000   0.00000   0.00000   0.00000   0.00000
Generated with MDTraj, t= 90.0
 50
    1UNL     C1    1   0.292  -0.267   0.185
    1UNL     C2    2   0.145  -0.266   0.161
    1UNL     C3    3   0.076  -0.184   0.078
    1UNL     C4    4  -0.077  -0.186   0.074
    1UNL     N1    5  -0.130  -0.208  -0.064
    1UNL     C5    6  -0.107  -0.350  -0.117
    1UNL     C6    7  -0.279  -0.177  -0.071
    1UNL     C7    8  -0.326  -0.035  -0.077
    1UNL     C8    9  -0.216   0.071  -0.075
    1UNL     C9   10  -0.089   0.031  -0.109
    1UNL     N2   11  -0.000   0.117  -0.055
    1UNL    C10   12  -0.068   0.231  -0.008
    1UNL    C11   13  -0.026   0.347   0.056
    1UNL    C12   14  -0.121   0.418   0.118
    1UNL    C13   15  -0.263   0.397   0.104
    1UNL    C14   16  -0.306   0.293   0.020
    1UNL    C15   17  -0.209   0.202  -0.024
    1UNL    C16   18   0.124   0.062   0.010
    1UNL    C17   19   0.248   0.140  -0.025
    1UNL     O1   20   0.309   0.114  -0.125
    1UNL     O2   21   0.283   0.234   0.066
    1UNL    C18   22   0.414   0.287   0.065
    1UNL    C19   23   0.142  -0.090  -0.018
    1UNL    C20   24   0.098  -0.121  -0.162
    1UNL    C21   25  -0.051  -0.105  -0.162
    1UNL     H1   26   0.356  -0.284   0.094
    1UNL     H2   27   0.322  -0.164   0.226
    1UNL     H3   28   0.320  -0.344   0.258
    1UNL     H4   29   0.100  -0.340   0.224
    1UNL     H5   30  -0.112  -0.092   0.107
    1UNL     H6   31  -0.120  -0.267   0.135
    1UNL     H7   32  -0.175  -0.417  -0.060
    1UNL     H8   33  -0.003  -0.391  -0.112
    1UNL     H9   34  -0.142  -0.360  -0.221
    1UNL    H10   35  -0.323  -0.233  -0.161
    1UNL    H11   36  -0.310  -0.225   0.017
    1UNL    H12   37  -0.391  -0.030  -0.164
    1UNL    H13   38  -0.386  -0.013   0.008
    1UNL    H14   39   0.079   0.375   0.070
    1UNL    H15   40  -0.093   0.486   0.203
    1UNL    H16   41  -0.335   0.471   0.133
    1UNL    H17   42  -0.404   0.266  -0.015
    1UNL    H18   43   0.109   0.078   0.124
    1UNL    H19   44   0.488   0.204   0.072
    1UNL    H20   45   0.416   0.342  -0.028
    1UNL    H21   46   0.429   0.352   0.143
    1UNL    H22   47   0.255  -0.115  -0.009
    1UNL    H23   48   0.143  -0.055  -0.237
    1UNL    H24   49   0.117  -0.214  -0.194
    1UNL    H25   50  -0.090  -0.118  -0.268
   0.00000   0.00000   0.00000   0.00000   0.00000   0.00000   0.00000   0.00000   0.00000
Generated with MDTraj, t= 91.0
 50
    1UNL     C1    1   0.287  -0.214   0.176
    1UNL     C2    2   0.140  -0.226   0.174
    1UNL     C3    3   0.076  -0.177   0.067
    1UNL     C4    4  -0.079  -0.182   0.066
    1UNL     N1    5  -0.134  -0.205  -0.078
    1UNL     C5    6  -0.105  -0.348  -0.109
    1UNL     C6    7  -0.285  -0.185  -0.082
    1UNL     C7    8  -0.326  -0.040  -0.050
    1UNL     C8    9  -0.216   0.061  -0.073
    1UNL     C9   10  -0.092   0.029  -0.120
    1UNL     N2   11   0.009   0.113  -0.064
    1UNL    C10   12  -0.060   0.217  -0.002
    1UNL    C11   13  -0.024   0.343   0.053
    1UNL    C12   14  -0.114   0.429   0.109
    1UNL    C13   15  -0.253   0.396   0.093
    1UNL    C14   16  -0.296   0.281   0.039
    1UNL    C15   17  -0.195   0.192  -0.013
    1UNL    C16   18   0.127   0.049   0.005
    1UNL    C17   19   0.249   0.136  -0.011
    1UNL     O1   20   0.295   0.129  -0.121
    1UNL     O2   21   0.287   0.211   0.100
    1UNL    C18   22   0.409   0.269   0.077
    1UNL    C19   23   0.148  -0.095  -0.039
    1UNL    C20   24   0.083  -0.134  -0.178
    1UNL    C21   25  -0.063  -0.106  -0.177
    1UNL     H1   26   0.338  -0.269   0.093
    1UNL     H2   27   0.309  -0.105   0.160
    1UNL     H3   28   0.338  -0.244   0.272
    1UNL     H4   29   0.096  -0.279   0.258
    1UNL     H5   30  -0.109  -0.086   0.100
    1UNL     H6   31  -0.116  -0.261   0.134
    1UNL     H7   32  -0.184  -0.405  -0.055
    1UNL     H8   33   0.001  -0.387  -0.086
    1UNL     H9   34  -0.125  -0.365  -0.212
    1UNL    H10   35  -0.305  -0.214  -0.191
    1UNL    H11   36  -0.335  -0.250  -0.012
    1UNL    H12   37  -0.411  -0.016  -0.114
    1UNL    H13   38  -0.361  -0.044   0.050
    1UNL    H14   39   0.081   0.354   0.056
    1UNL    H15   40  -0.081   0.520   0.148
    1UNL    H16   41  -0.323   0.472   0.126
    1UNL    H17   42  -0.401   0.278   0.013
    1UNL    H18   43   0.095   0.069   0.115
    1UNL    H19   44   0.482   0.185   0.068
    1UNL    H20   45   0.396   0.324  -0.017
    1UNL    H21   46   0.440   0.339   0.148
    1UNL    H22   47   0.262  -0.121  -0.041
    1UNL    H23   48   0.126  -0.070  -0.254
    1UNL    H24   49   0.101  -0.228  -0.222
    1UNL    H25   50  -0.104  -0.111  -0.283
   0.00000   0.00000   0.00000   0.00000   0.00000   0.00000   0.00000   0.00000   0.00000
Generated with MDTraj, t= 92.0
 50
    1UNL     C1    1   0.283  -0.203   0.225
    1UNL     C2    2   0.137  -0.221   0.185
    1UNL     C3    3   0.075  -0.188   0.070
    1UNL     C4    4  -0.075  -0.215   0.066
    1UNL     N1    5  -0.137  -0.212  -0.078
    1UNL     C5    6  -0.120  -0.343  -0.143
    1UNL     C6    7  -0.288  -0.180  -0.062
    1UNL     C7    8  -0.335  -0.032  -0.084
    1UNL     C8    9  -0.216   0.062  -0.073
    1UNL     C9   10  -0.093   0.026  -0.127
    1UNL     N2   11   0.002   0.114  -0.070
    1UNL    C10   12  -0.067   0.221  -0.012
    1UNL    C11   13  -0.015   0.336   0.050
    1UNL    C12   14  -0.100   0.421   0.109
    1UNL    C13   15  -0.236   0.391   0.114
    1UNL    C14   16  -0.290   0.273   0.055
    1UNL    C15   17  -0.207   0.189  -0.014
    1UNL    C16   18   0.123   0.058  -0.007
    1UNL    C17   19   0.251   0.147  -0.022
    1UNL     O1   20   0.297   0.153  -0.131
    1UNL     O2   21   0.301   0.206   0.097
    1UNL    C18   22   0.410   0.279   0.062
    1UNL    C19   23   0.141  -0.097  -0.030
    1UNL    C20   24   0.087  -0.134  -0.168
    1UNL    C21   25  -0.063  -0.111  -0.171
    1UNL     H1   26   0.359  -0.247   0.154
    1UNL     H2   27   0.306  -0.095   0.224
    1UNL     H3   28   0.311  -0.238   0.331
    1UNL     H4   29   0.077  -0.270   0.261
    1UNL     H5   30  -0.119  -0.138   0.130
    1UNL     H6   31  -0.091  -0.314   0.108
    1UNL     H7   32  -0.187  -0.419  -0.097
    1UNL     H8   33  -0.010  -0.371  -0.139
    1UNL     H9   34  -0.145  -0.331  -0.247
    1UNL    H10   35  -0.327  -0.243  -0.146
    1UNL    H11   36  -0.315  -0.227   0.035
    1UNL    H12   37  -0.383  -0.024  -0.183
    1UNL    H13   38  -0.412  -0.011  -0.016
    1UNL    H14   39   0.093   0.349   0.063
    1UNL    H15   40  -0.063   0.514   0.158
    1UNL    H16   41  -0.299   0.470   0.155
    1UNL    H17   42  -0.397   0.259   0.064
    1UNL    H18   43   0.098   0.095   0.098
    1UNL    H19   44   0.457   0.228  -0.029
    1UNL    H20   45   0.371   0.379   0.035
    1UNL    H21   46   0.486   0.296   0.135
    1UNL    H22   47   0.253  -0.121  -0.015
    1UNL    H23   48   0.139  -0.088  -0.248
    1UNL    H24   49   0.113  -0.240  -0.196
    1UNL    H25   50  -0.102  -0.120  -0.277
   0.00000   0.00000   0.00000   0.00000   0.00000   0.00000   0.00000   0.00000   0.00000
Generated with MDTraj, t= 93.0
 50
    1UNL     C1    1   0.277  -0.195   0.234
    1UNL     C2    2   0.138  -0.232   0.190
    1UNL     C3    3   0.072  -0.185   0.083
    1UNL     C4    4  -0.078  -0.200   0.075
    1UNL     N1    5  -0.132  -0.206  -0.077
    1UNL     C5    6  -0.104  -0.347  -0.119
    1UNL     C6    7  -0.283  -0.161  -0.105
    1UNL     C7    8  -0.329  -0.013  -0.111
    1UNL     C8    9  -0.212   0.079  -0.096
    1UNL     C9   10  -0.087   0.036  -0.121
    1UNL     N2   11   0.004   0.108  -0.053
    1UNL    C10   12  -0.067   0.212   0.010
    1UNL    C11   13  -0.025   0.317   0.097
    1UNL    C12   14  -0.122   0.405   0.142
    1UNL    C13   15  -0.254   0.391   0.116
    1UNL    C14   16  -0.298   0.281   0.044
    1UNL    C15   17  -0.203   0.194  -0.014
    1UNL    C16   18   0.131   0.052   0.000
    1UNL    C17   19   0.258   0.136  -0.035
    1UNL     O1   20   0.277   0.144  -0.152
    1UNL     O2   21   0.316   0.199   0.070
    1UNL    C18   22   0.411   0.282   0.020
    1UNL    C19   23   0.148  -0.106  -0.020
    1UNL    C20   24   0.091  -0.136  -0.157
    1UNL    C21   25  -0.059  -0.112  -0.163
    1UNL     H1   26   0.357  -0.239   0.167
    1UNL     H2   27   0.284  -0.086   0.221
    1UNL     H3   28   0.297  -0.217   0.346
    1UNL     H4   29   0.089  -0.304   0.252
    1UNL     H5   30  -0.124  -0.119   0.136
    1UNL     H6   31  -0.097  -0.295   0.120
    1UNL     H7   32  -0.156  -0.406  -0.040
    1UNL     H8   33   0.002  -0.369  -0.128
    1UNL     H9   34  -0.154  -0.369  -0.218
    1UNL    H10   35  -0.306  -0.202  -0.204
    1UNL    H11   36  -0.336  -0.234  -0.033
    1UNL    H12   37  -0.382  -0.004  -0.207
    1UNL    H13   38  -0.402   0.007  -0.037
    1UNL    H14   39   0.078   0.325   0.128
    1UNL    H15   40  -0.099   0.484   0.209
    1UNL    H16   41  -0.328   0.467   0.131
    1UNL    H17   42  -0.405   0.280   0.034
    1UNL    H18   43   0.123   0.069   0.110
    1UNL    H19   44   0.492   0.215  -0.028
    1UNL    H20   45   0.363   0.341  -0.062
    1UNL    H21   46   0.455   0.358   0.085
    1UNL    H22   47   0.255  -0.145  -0.002
    1UNL    H23   48   0.144  -0.090  -0.234
    1UNL    H24   49   0.109  -0.245  -0.191
    1UNL    H25   50  -0.109  -0.127  -0.264
   0.00000   0.00000   0.00000   0.00000   0.00000   0.00000   0.00000   0.00000   0.00000
Generated with MDTraj, t= 94.0
 50
    1UNL     C1    1   0.242  -0.248   0.232
    1UNL     C2    2   0.103  -0.222   0.204
    1UNL     C3    3   0.055  -0.167   0.093
    1UNL     C4    4  -0.090  -0.169   0.068
    1UNL     N1    5  -0.126  -0.197  -0.083
    1UNL     C5    6  -0.075  -0.335  -0.109
    1UNL     C6    7  -0.275  -0.161  -0.100
    1UNL     C7    8  -0.311  -0.016  -0.124
    1UNL     C8    9  -0.200   0.079  -0.101
    1UNL     C9   10  -0.070   0.037  -0.118
    1UNL     N2   11   0.011   0.117  -0.037
    1UNL    C10   12  -0.068   0.203   0.035
    1UNL    C11   13  -0.043   0.302   0.134
    1UNL    C12   14  -0.143   0.387   0.169
    1UNL    C13   15  -0.269   0.370   0.115
    1UNL    C14   16  -0.307   0.268   0.035
    1UNL    C15   17  -0.204   0.192  -0.016
    1UNL    C16   18   0.133   0.063   0.016
    1UNL    C17   19   0.251   0.141  -0.042
    1UNL     O1   20   0.278   0.119  -0.158
    1UNL     O2   21   0.328   0.233   0.031
    1UNL    C18   22   0.439   0.271  -0.044
    1UNL    C19   23   0.141  -0.092  -0.006
    1UNL    C20   24   0.103  -0.129  -0.147
    1UNL    C21   25  -0.043  -0.105  -0.169
    1UNL     H1   26   0.290  -0.307   0.149
    1UNL     H2   27   0.292  -0.149   0.228
    1UNL     H3   28   0.262  -0.293   0.336
    1UNL     H4   29   0.031  -0.269   0.273
    1UNL     H5   30  -0.129  -0.067   0.095
    1UNL     H6   31  -0.140  -0.238   0.132
    1UNL     H7   32  -0.143  -0.413  -0.067
    1UNL     H8   33   0.027  -0.345  -0.085
    1UNL     H9   34  -0.086  -0.341  -0.224
    1UNL    H10   35  -0.300  -0.230  -0.180
    1UNL    H11   36  -0.332  -0.196  -0.003
    1UNL    H12   37  -0.356   0.001  -0.223
    1UNL    H13   38  -0.386   0.004  -0.052
    1UNL    H14   39   0.054   0.310   0.181
    1UNL    H15   40  -0.117   0.468   0.238
    1UNL    H16   41  -0.340   0.444   0.157
    1UNL    H17   42  -0.407   0.269  -0.008
    1UNL    H18   43   0.137   0.095   0.122
    1UNL    H19   44   0.502   0.178  -0.059
    1UNL    H20   45   0.406   0.310  -0.143
    1UNL    H21   46   0.499   0.350  -0.001
    1UNL    H22   47   0.248  -0.124   0.017
    1UNL    H23   48   0.153  -0.071  -0.216
    1UNL    H24   49   0.137  -0.234  -0.182
    1UNL    H25   50  -0.088  -0.113  -0.274
   0.00000   0.00000   0.00000   0.00000   0.00000   0.00000   0.00000   0.00000   0.00000
Generated with MDTraj, t= 95.0
 50
    1UNL     C1    1   0.231  -0.266   0.240
    1UNL     C2    2   0.095  -0.240   0.205
    1UNL     C3    3   0.049  -0.158   0.111
    1UNL     C4    4  -0.102  -0.160   0.069
    1UNL     N1    5  -0.127  -0.189  -0.083
    1UNL     C5    6  -0.095  -0.333  -0.100
    1UNL     C6    7  -0.273  -0.153  -0.120
    1UNL     C7    8  -0.295  -0.006  -0.158
    1UNL     C8    9  -0.187   0.086  -0.115
    1UNL     C9   10  -0.055   0.043  -0.121
    1UNL     N2   11   0.022   0.128  -0.038
    1UNL    C10   12  -0.063   0.229   0.031
    1UNL    C11   13  -0.053   0.328   0.131
    1UNL    C12   14  -0.161   0.385   0.182
    1UNL    C13   15  -0.290   0.339   0.150
    1UNL    C14   16  -0.306   0.244   0.054
    1UNL    C15   17  -0.190   0.194  -0.017
    1UNL    C16   18   0.145   0.066   0.030
    1UNL    C17   19   0.259   0.129  -0.048
    1UNL     O1   20   0.274   0.101  -0.166
    1UNL     O2   21   0.331   0.233   0.004
    1UNL    C18   22   0.423   0.286  -0.086
    1UNL    C19   23   0.148  -0.091   0.019
    1UNL    C20   24   0.116  -0.139  -0.120
    1UNL    C21   25  -0.024  -0.102  -0.157
    1UNL     H1   26   0.301  -0.275   0.152
    1UNL     H2   27   0.277  -0.177   0.294
    1UNL     H3   28   0.242  -0.353   0.312
    1UNL     H4   29   0.026  -0.310   0.241
    1UNL     H5   30  -0.158  -0.066   0.096
    1UNL     H6   31  -0.157  -0.238   0.115
    1UNL     H7   32  -0.181  -0.395  -0.067
    1UNL     H8   33  -0.005  -0.364  -0.051
    1UNL     H9   34  -0.085  -0.353  -0.212
    1UNL    H10   35  -0.313  -0.214  -0.201
    1UNL    H11   36  -0.322  -0.191  -0.018
    1UNL    H12   37  -0.297   0.001  -0.268
    1UNL    H13   38  -0.385   0.032  -0.116
    1UNL    H14   39   0.048   0.355   0.162
    1UNL    H15   40  -0.154   0.451   0.269
    1UNL    H16   41  -0.369   0.384   0.200
    1UNL    H17   42  -0.402   0.209   0.025
    1UNL    H18   43   0.140   0.103   0.131
    1UNL    H19   44   0.476   0.202  -0.132
    1UNL    H20   45   0.375   0.342  -0.165
    1UNL    H21   46   0.497   0.352  -0.041
    1UNL    H22   47   0.252  -0.121   0.050
    1UNL    H23   48   0.172  -0.078  -0.189
    1UNL    H24   49   0.145  -0.246  -0.146
    1UNL    H25   50  -0.048  -0.110  -0.268
   0.00000   0.00000   0.00000   0.00000   0.00000   0.00000   0.00000   0.00000   0.00000
Generated with MDTraj, t= 96.0
 50
    1UNL     C1    1   0.222  -0.263   0.266
    1UNL     C2    2   0.093  -0.229   0.211
    1UNL     C3    3   0.055  -0.163   0.103
    1UNL     C4    4  -0.085  -0.152   0.061
    1UNL     N1    5  -0.121  -0.189  -0.082
    1UNL     C5    6  -0.097  -0.334  -0.088
    1UNL     C6    7  -0.263  -0.160  -0.118
    1UNL     C7    8  -0.298  -0.009  -0.157
    1UNL     C8    9  -0.192   0.086  -0.118
    1UNL     C9   10  -0.065   0.039  -0.130
    1UNL     N2   11   0.010   0.119  -0.038
    1UNL    C10   12  -0.070   0.206   0.041
    1UNL    C11   13  -0.040   0.289   0.155
    1UNL    C12   14  -0.145   0.363   0.204
    1UNL    C13   15  -0.270   0.358   0.139
    1UNL    C14   16  -0.302   0.275   0.033
    1UNL    C15   17  -0.198   0.193  -0.019
    1UNL    C16   18   0.140   0.068   0.012
    1UNL    C17   19   0.252   0.136  -0.060
    1UNL     O1   20   0.285   0.103  -0.173
    1UNL     O2   21   0.319   0.232   0.006
    1UNL    C18   22   0.409   0.304  -0.071
    1UNL    C19   23   0.147  -0.088   0.007
    1UNL    C20   24   0.118  -0.133  -0.135
    1UNL    C21   25  -0.032  -0.101  -0.167
    1UNL     H1   26   0.269  -0.358   0.223
    1UNL     H2   27   0.302  -0.186   0.231
    1UNL     H3   28   0.217  -0.263   0.377
    1UNL     H4   29   0.011  -0.281   0.266
    1UNL     H5   30  -0.132  -0.052   0.075
    1UNL     H6   31  -0.145  -0.222   0.117
    1UNL     H7   32  -0.169  -0.386  -0.022
    1UNL     H8   33   0.008  -0.361  -0.053
    1UNL     H9   34  -0.109  -0.375  -0.187
    1UNL    H10   35  -0.281  -0.238  -0.194
    1UNL    H11   36  -0.328  -0.181  -0.024
    1UNL    H12   37  -0.310  -0.003  -0.266
    1UNL    H13   38  -0.385   0.030  -0.107
    1UNL    H14   39   0.054   0.275   0.202
    1UNL    H15   40  -0.138   0.414   0.296
    1UNL    H16   41  -0.352   0.426   0.177
    1UNL    H17   42  -0.402   0.268  -0.013
    1UNL    H18   43   0.152   0.091   0.116
    1UNL    H19   44   0.490   0.239  -0.103
    1UNL    H20   45   0.366   0.338  -0.161
    1UNL    H21   46   0.448   0.387  -0.014
    1UNL    H22   47   0.251  -0.114   0.036
    1UNL    H23   48   0.182  -0.082  -0.210
    1UNL    H24   49   0.136  -0.241  -0.147
    1UNL    H25   50  -0.067  -0.119  -0.274
   0.00000   0.00000   0.00000   0.00000   0.00000   0.00000   0.00000   0.00000   0.00000
Generated with MDTraj, t= 97.0
 50
    1UNL     C1    1   0.253  -0.208   0.258
    1UNL     C2    2   0.112  -0.210   0.213
    1UNL     C3    3   0.064  -0.170   0.097
    1UNL     C4    4  -0.086  -0.182   0.060
    1UNL     N1    5  -0.127  -0.194  -0.087
    1UNL     C5    6  -0.127  -0.339  -0.133
    1UNL     C6    7  -0.271  -0.153  -0.104
    1UNL     C7    8  -0.310  -0.002  -0.124
    1UNL     C8    9  -0.192   0.085  -0.117
    1UNL     C9   10  -0.063   0.036  -0.125
    1UNL     N2   11   0.017   0.110  -0.041
    1UNL    C10   12  -0.066   0.201   0.029
    1UNL    C11   13  -0.032   0.293   0.129
    1UNL    C12   14  -0.136   0.372   0.183
    1UNL    C13   15  -0.269   0.365   0.133
    1UNL    C14   16  -0.294   0.276   0.031
    1UNL    C15   17  -0.197   0.197  -0.022
    1UNL    C16   18   0.143   0.053   0.021
    1UNL    C17   19   0.255   0.126  -0.036
    1UNL     O1   20   0.291   0.090  -0.150
    1UNL     O2   21   0.301   0.239   0.032
    1UNL    C18   22   0.393   0.303  -0.048
    1UNL    C19   23   0.151  -0.100  -0.001
    1UNL    C20   24   0.112  -0.141  -0.145
    1UNL    C21   25  -0.043  -0.103  -0.176
    1UNL     H1   26   0.310  -0.302   0.228
    1UNL     H2   27   0.312  -0.130   0.199
    1UNL     H3   28   0.252  -0.188   0.367
    1UNL     H4   29   0.039  -0.253   0.274
    1UNL     H5   30  -0.139  -0.088   0.081
    1UNL     H6   31  -0.142  -0.265   0.108
    1UNL     H7   32  -0.205  -0.388  -0.072
    1UNL     H8   33  -0.030  -0.396  -0.106
    1UNL     H9   34  -0.146  -0.362  -0.235
    1UNL    H10   35  -0.311  -0.214  -0.188
    1UNL    H11   36  -0.319  -0.198  -0.012
    1UNL    H12   37  -0.346   0.019  -0.227
    1UNL    H13   38  -0.391   0.015  -0.056
    1UNL    H14   39   0.066   0.299   0.177
    1UNL    H15   40  -0.103   0.449   0.258
    1UNL    H16   41  -0.343   0.426   0.171
    1UNL    H17   42  -0.390   0.274  -0.012
    1UNL    H18   43   0.158   0.062   0.126
    1UNL    H19   44   0.475   0.236  -0.067
    1UNL    H20   45   0.355   0.315  -0.146
    1UNL    H21   46   0.428   0.397  -0.002
    1UNL    H22   47   0.251  -0.138   0.016
    1UNL    H23   48   0.166  -0.070  -0.214
    1UNL    H24   49   0.145  -0.240  -0.172
    1UNL    H25   50  -0.071  -0.110  -0.286
   0.00000   0.00000   0.00000   0.00000   0.00000   0.00000   0.00000   0.00000   0.00000
Generated with MDTraj, t= 98.0
 50
    1UNL     C1    1   0.237  -0.171   0.252
    1UNL     C2    2   0.108  -0.218   0.195
    1UNL     C3    3   0.058  -0.194   0.075
    1UNL     C4    4  -0.089  -0.204   0.053
    1UNL     N1    5  -0.134  -0.208  -0.088
    1UNL     C5    6  -0.109  -0.348  -0.153
    1UNL     C6    7  -0.282  -0.173  -0.101
    1UNL     C7    8  -0.321  -0.023  -0.114
    1UNL     C8    9  -0.207   0.067  -0.074
    1UNL     C9   10  -0.084   0.027  -0.109
    1UNL     N2   11   0.008   0.101  -0.038
    1UNL    C10   12  -0.062   0.216   0.017
    1UNL    C11   13  -0.013   0.329   0.088
    1UNL    C12   14  -0.108   0.414   0.144
    1UNL    C13   15  -0.243   0.382   0.131
    1UNL    C14   16  -0.296   0.272   0.062
    1UNL    C15   17  -0.199   0.187   0.001
    1UNL    C16   18   0.140   0.046   0.017
    1UNL    C17   19   0.262   0.133  -0.029
    1UNL     O1   20   0.325   0.085  -0.125
    1UNL     O2   21   0.286   0.250   0.039
    1UNL    C18   22   0.401   0.305  -0.008
    1UNL    C19   23   0.144  -0.105  -0.024
    1UNL    C20   24   0.105  -0.132  -0.164
    1UNL    C21   25  -0.052  -0.102  -0.170
    1UNL     H1   26   0.307  -0.135   0.168
    1UNL     H2   27   0.229  -0.072   0.305
    1UNL     H3   28   0.288  -0.242   0.321
    1UNL     H4   29   0.035  -0.270   0.261
    1UNL     H5   30  -0.136  -0.115   0.095
    1UNL     H6   31  -0.126  -0.299   0.098
    1UNL     H7   32  -0.196  -0.416  -0.133
    1UNL     H8   33  -0.015  -0.401  -0.126
    1UNL     H9   34  -0.105  -0.338  -0.261
    1UNL    H10   35  -0.322  -0.241  -0.181
    1UNL    H11   36  -0.330  -0.210  -0.011
    1UNL    H12   37  -0.342  -0.013  -0.223
    1UNL    H13   38  -0.407   0.009  -0.056
    1UNL    H14   39   0.094   0.340   0.086
    1UNL    H15   40  -0.081   0.496   0.203
    1UNL    H16   41  -0.331   0.447   0.161
    1UNL    H17   42  -0.401   0.243   0.049
    1UNL    H18   43   0.133   0.047   0.122
    1UNL    H19   44   0.469   0.222  -0.033
    1UNL    H20   45   0.383   0.343  -0.107
    1UNL    H21   46   0.446   0.377   0.067
    1UNL    H22   47   0.245  -0.136  -0.019
    1UNL    H23   48   0.160  -0.049  -0.222
    1UNL    H24   49   0.131  -0.225  -0.203
    1UNL    H25   50  -0.074  -0.109  -0.282
   0.00000   0.00000   0.00000   0.00000   0.00000   0.00000   0.00000   0.00000   0.00000
Generated with MDTraj, t= 99.0
 50
    1UNL     C1    1   0.240  -0.189   0.238
    1UNL     C2    2   0.100  -0.217   0.200
    1UNL     C3    3   0.059  -0.190   0.077
    1UNL     C4    4  -0.090  -0.212   0.052
    1UNL     N1    5  -0.133  -0.210  -0.098
    1UNL     C5    6  -0.106  -0.345  -0.168
    1UNL     C6    7  -0.281  -0.181  -0.105
    1UNL     C7    8  -0.323  -0.049  -0.037
    1UNL     C8    9  -0.214   0.057  -0.062
    1UNL     C9   10  -0.086   0.029  -0.112
    1UNL     N2   11   0.010   0.118  -0.059
    1UNL    C10   12  -0.063   0.228  -0.009
    1UNL    C11   13  -0.015   0.336   0.063
    1UNL    C12   14  -0.101   0.419   0.127
    1UNL    C13   15  -0.244   0.392   0.123
    1UNL    C14   16  -0.289   0.280   0.057
    1UNL    C15   17  -0.201   0.194  -0.013
    1UNL    C16   18   0.139   0.055   0.010
    1UNL    C17   19   0.265   0.128  -0.026
    1UNL     O1   20   0.339   0.086  -0.112
    1UNL     O2   21   0.280   0.243   0.053
    1UNL    C18   22   0.396   0.307   0.020
    1UNL    C19   23   0.147  -0.104  -0.024
    1UNL    C20   24   0.097  -0.130  -0.161
    1UNL    C21   25  -0.054  -0.103  -0.175
    1UNL     H1   26   0.282  -0.111   0.168
    1UNL     H2   27   0.247  -0.141   0.338
    1UNL     H3   28   0.298  -0.288   0.244
    1UNL     H4   29   0.027  -0.262   0.261
    1UNL     H5   30  -0.141  -0.128   0.097
    1UNL     H6   31  -0.124  -0.308   0.099
    1UNL     H7   32  -0.163  -0.424  -0.115
    1UNL     H8   33  -0.004  -0.374  -0.177
    1UNL     H9   34  -0.147  -0.341  -0.274
    1UNL    H10   35  -0.304  -0.179  -0.217
    1UNL    H11   36  -0.335  -0.266  -0.074
    1UNL    H12   37  -0.424  -0.013  -0.066
    1UNL    H13   38  -0.330  -0.079   0.068
    1UNL    H14   39   0.091   0.350   0.061
    1UNL    H15   40  -0.063   0.512   0.176
    1UNL    H16   41  -0.304   0.456   0.180
    1UNL    H17   42  -0.394   0.256   0.049
    1UNL    H18   43   0.121   0.076   0.110
    1UNL    H19   44   0.484   0.254   0.063
    1UNL    H20   45   0.410   0.297  -0.088
    1UNL    H21   46   0.385   0.414   0.064
    1UNL    H22   47   0.244  -0.144  -0.028
    1UNL    H23   48   0.147  -0.052  -0.230
    1UNL    H24   49   0.125  -0.225  -0.192
    1UNL    H25   50  -0.073  -0.106  -0.288
   0.00000   0.00000   0.00000   0.00000   0.00000   0.00000   0.00000   0.00000   0.00000
