[ moleculetype ]
; name        nrexcl
res           1

[ atoms ]
;    nr  type  resnr resid  atom  cgnr     charge       mass
      1 TC3       1 res   C1        1      0.000     36.000
      2 TC3       1 res   C2        2      0.000     36.000
      3 TN1       1 res   C3        3      0.000     36.000
      4 TC4       1 res   C4        4      0.000     36.000
      5 SC4       1 res   C5        5      0.000     54.000
      6 TN6d      1 res   C6        6      0.000     36.000
      7 TC5       1 res   C7        7      0.000     36.000
      8 TC5       1 res   C8        8      0.000     36.000
      9 TC5       1 res   C9        9      0.000     36.000
     10 SN4a      1 res   C10      10      0.000     54.000
     11 TC3       1 res   C11      11      0.000     36.000
     12 N4a       1 res   C12      12      0.000     72.000

[ constraints ]
;  ai    aj   funct      b0(nm)
    1     2     1      0.29194
   10    11     1      0.28717
    2     3     1      0.29694
   11    12     1      0.34004
    4     5     1      0.23443
    7     9     1      0.25042
    5     7     1      0.25791
    4    11     1      0.25996
    3     4     1      0.24485
    7     8     1      0.25050
    5     6     1      0.35435
    6     7     1      0.21776
    2    11     1      0.25470
    8     9     1      0.29172

[ bonds ]
;  ai    aj   funct      b0(nm)          k(kJ/mol/nm^2)
    5    10     1      0.31559          15796.9

[ angles ]
;  ai    aj    ak  funct     th0(deg)        k(kJ/mol/rad^2)
    1     2     3     1    169.41142           243.78
    1     2    11     1     76.76619           246.75
    2     3     4     1     70.40249          1110.74
    2    11     4     1     75.51933          1517.91
    2    11    10     1     81.23665           202.55
    2    11    12     1    156.82982           238.03
    3     2    11     1     98.32159           674.42
    3     4     5     1     91.09255            83.92
    3     4    11     1    111.83249           642.57
    4     5     6     1    129.77957           295.94
    4     5     7     1    132.81877            58.07
    4     5    10     1     95.37402           250.61
    4    11    10     1     96.98213           554.53
    4    11    12     1     82.34375           280.90
    5     4    11     1     90.89874           773.28
    5     6     7     1     46.36720          3104.75
    5     7     6     1     95.97732          1569.99
    5     7     8     1    166.28829           980.82
    5     7     9     1     96.26131          1281.73
    5    10    11     1     71.40999          1784.10
    6     5     7     1     37.65545          8174.70
    6     5    10     1     61.58508           870.58
    6     7     8     1     96.32423          1828.34
    6     7     9     1    166.74669          1507.03
    7     5    10     1     98.79614           607.10
    7     8     9     1     54.36631          9987.23
    7     9     8     1     54.39418          9765.26
    8     7     9     1     71.23951          5246.18
   10    11    12     1    105.53124           173.14

[ dihedrals ]
;  ai    aj    ak    al  funct   phi0(deg)        k(kJ/mol)   mult
    1     2     3     4     1   -176.11960       18.320      1
    1     2    11     4     1     -1.94160       18.937      1
    1     2    11    10     1     96.94195       20.794      1
    1     2    11    12     1    -13.42078       25.143      1
    2     3     4     5     1     87.96617       19.168      1
    2     3     4    11     1    179.03725       21.081      1
    2    11     4     3     1    179.26852       22.290      1
    2    11     4     5     1    -86.12053       13.701      1
    2    11    10     5     1     95.98490       12.241      1
    3     2    11     4     1    179.86048       17.871      1
    3     2    11    10     1    -81.05127       19.864      1
    3     2    11    12     1    171.15967       25.136      1
    3     4     5     6     1   -138.17882       13.689      1
    3     4     5     7     1    175.31387       14.337      1
    3     4     5    10     1    -78.90007       15.088      1
    3     4    11    10     1    102.03489       25.743      1
    3     4    11    12     1     -1.14411       23.925      1
    4     3     2    11     1    179.08860       21.134      1
    4     5     6     7     1     62.18317       24.232      1
    4     5     7     6     1    -83.55668       23.391      1
    4     5     7     8     1     92.17936       28.752      1
    4     5     7     9     1     97.38418       22.810      1
    4     5    10    11     1   -169.06026       15.773      1
    4    11    10     5     1    170.90773       14.401      1
    5     4    11    10     1   -167.01827       18.515      1
    5     4    11    12     1     91.73699       16.428      1
    5     6     7     8     1      3.18949       11.421      1
    5     6     7     9     1      3.69530       27.239      1
    5     7     8     9     1   -170.86336       25.578      1
    5     7     9     8     1      3.24357       10.002      1
    5    10    11    12     1   -106.01621       17.119      1
    6     5     4    11     1    110.05868       15.052      1
    6     5     7     8     1     -8.81530       26.971      1
    6     5     7     9     1     -1.93205       10.670      1
    6     5    10    11     1    -30.01011       20.404      1
    6     7     5    10     1    177.03838       14.390      1
    6     7     8     9     1     -0.80040        9.983      1
    6     7     9     8     1   -176.18641       25.448      1
    7     5     4    11     1     62.01706       13.706      1
    7     5    10    11     1    -27.83012       24.515      1
    7     6     5    10     1     -4.01661       15.087      1
    8     7     5    10     1    -12.93184       26.589      1
    9     7     5    10     1     -2.97092       14.385      1
   10     5     4    11     1    169.31766       15.063      1
