[ moleculetype ]
; name        nrexcl
res           1

[ atoms ]
;    nr  type  resnr resid  atom  cgnr     charge       mass
      1 TC5       1 res   C1        1      0.000     36.000
      2 SC4       1 res   C2        2      0.000     54.000
      3 TC5       1 res   C3        3      0.000     36.000
      4 SC2       1 res   C4        4      0.000     54.000

[ bonds ]
;  ai    aj   funct      b0(nm)          k(kJ/mol/nm^2)
    1     2     1      0.34576         143435.6
    1     3     1      0.29780         239009.5
    1     4     1      0.24871          23258.1
    2     3     1      0.31263          74754.4

[ angles ]
;  ai    aj    ak  funct     th0(deg)        k(kJ/mol/rad^2)
    1     2     3     1     53.49410          9281.51
    1     3     2     1     68.96037          4388.90
    2     1     3     1     57.54549          5297.64
    2     1     4     1    153.97850           612.07
    3     1     4     1     97.04531           715.22

[ dihedrals ]
;  ai    aj    ak    al  funct   phi0(deg)        k(kJ/mol)   mult
    2     3     1     4     1      0.07978       10.767      1
    2     3     1     4     1   -179.83975       10.456      2
    2     3     1     4     1      0.24212        9.949      3
    3     2     1     4     1   -178.05682       19.722      1
    3     2     1     4     1   -176.17095       17.267      2
    3     2     1     4     1   -174.43637       13.587      3
