[ moleculetype ]
; name        nrexcl
res           1

[ atoms ]
;    nr  type  resnr resid  atom  cgnr     charge       mass
      1 TN6a      1 res   C1        1      0.000     36.000
      2 TC5       1 res   C2        2      0.000     36.000
      3 TN1       1 res   C3        3      0.000     36.000
      4 TC5       1 res   C4        4      0.000     36.000

[ constraints ]
;  ai    aj   funct      b0(nm)
    1     2     1      0.26375
    2     3     1      0.32174
    1     4     1      0.26380
    3     4     1      0.32142

[ bonds ]
;  ai    aj   funct      b0(nm)          k(kJ/mol/nm^2)

[ angles ]
;  ai    aj    ak  funct     th0(deg)        k(kJ/mol/rad^2)
    1     2     3     1    109.31788          1519.43
    1     4     3     1    109.39255          1811.77
    2     1     4     1     78.38832          4735.43
    2     3     4     1     62.43636          4414.43

[ dihedrals ]
;  ai    aj    ak    al  funct   phi0(deg)        k(kJ/mol)   mult
    1     2     3     4     1   -179.98280        7.880      1
    1     4     3     2     1   -179.09554        8.592      1
    2     1     4     3     1   -179.99708        9.348      1
    3     2     1     4     1   -179.97717        9.340      1
