[ moleculetype ]
; name        nrexcl
res           1

[ atoms ]
;    nr  type  resnr resid  atom  cgnr     charge       mass
      1 TC5       1 res   C1        1      0.000     36.000
      2 TN6a      1 res   C2        2      0.000     36.000
      3 TN6a      1 res   C3        3      0.000     36.000
      4 TN6d      1 res   C4        4      0.000     36.000

[ constraints ]
;  ai    aj   funct      b0(nm)
    1     2     1      0.25653
    2     3     1      0.27585
    1     4     1      0.24739
    3     4     1      0.19158

[ bonds ]
;  ai    aj   funct      b0(nm)          k(kJ/mol/nm^2)

[ angles ]
;  ai    aj    ak  funct     th0(deg)        k(kJ/mol/rad^2)
    1     2     3     1     82.19359          9384.32
    1     4     3     1    105.14923          4611.46
    2     1     4     1     83.08237          5370.61
    2     3     4     1     89.41750          5035.40

[ dihedrals ]
;  ai    aj    ak    al  funct   phi0(deg)        k(kJ/mol)   mult
    1     2     3     4     1   -179.08538        7.010      1
    1     4     3     2     1    179.75801        6.302      1
    2     1     4     3     1    179.99117        7.763      1
    3     2     1     4     1    179.08363        5.502      1
