Generated with MDTraj, t= 0.0
 47
    1UNL     C1    1  -0.354   0.098   0.200
    1UNL     C2    2  -0.319   0.102   0.052
    1UNL     C3    3  -0.168   0.081   0.019
    1UNL     C4    4  -0.150   0.089  -0.131
    1UNL     C5    5  -0.161  -0.016  -0.210
    1UNL     C6    6  -0.194  -0.153  -0.160
    1UNL     N1    7  -0.185  -0.170  -0.012
    1UNL     C7    8  -0.128  -0.303   0.028
    1UNL     C8    9   0.023  -0.316   0.003
    1UNL     C9   10   0.094  -0.186   0.022
    1UNL    C10   11   0.028  -0.070   0.052
    1UNL     N2   12   0.114   0.037   0.049
    1UNL    C11   13   0.241  -0.010   0.016
    1UNL    C12   14   0.363   0.055  -0.005
    1UNL    C13   15   0.472  -0.020  -0.039
    1UNL    C14   16   0.463  -0.159  -0.054
    1UNL    C15   17   0.344  -0.225  -0.036
    1UNL    C16   18   0.231  -0.150   0.000
    1UNL    C17   19   0.070   0.179   0.053
    1UNL     O1   20   0.100   0.244  -0.071
    1UNL    C18   21   0.111   0.384  -0.059
    1UNL    C19   22  -0.080   0.190   0.089
    1UNL    C20   23  -0.120  -0.060   0.065
    1UNL     H1   24  -0.461   0.113   0.216
    1UNL     H2   25  -0.302   0.176   0.256
    1UNL     H3   26  -0.328   0.003   0.246
    1UNL     H4   27  -0.350   0.197   0.008
    1UNL     H5   28  -0.375   0.025  -0.001
    1UNL     H6   29  -0.123   0.185  -0.172
    1UNL     H7   30  -0.143  -0.005  -0.315
    1UNL     H8   31  -0.129  -0.227  -0.208
    1UNL     H9   32  -0.297  -0.179  -0.189
    1UNL    H10   33  -0.184  -0.381  -0.025
    1UNL    H11   34  -0.150  -0.317   0.134
    1UNL    H12   35   0.042  -0.352  -0.099
    1UNL    H13   36   0.067  -0.391   0.069
    1UNL    H14   37   0.368   0.162   0.006
    1UNL    H15   38   0.567   0.029  -0.055
    1UNL    H16   39   0.551  -0.215  -0.082
    1UNL    H17   40   0.336  -0.331  -0.049
    1UNL    H18   41   0.131   0.228   0.130
    1UNL    H19   42   0.016   0.427  -0.026
    1UNL    H20   43   0.190   0.409   0.012
    1UNL    H21   44   0.137   0.425  -0.156
    1UNL    H22   45  -0.118   0.289   0.062
    1UNL    H23   46  -0.092   0.181   0.197
    1UNL    H24   47  -0.146  -0.074   0.171
   0.00000   0.00000   0.00000   0.00000   0.00000   0.00000   0.00000   0.00000   0.00000
Generated with MDTraj, t= 1.0
 47
    1UNL     C1    1  -0.365   0.112   0.179
    1UNL     C2    2  -0.317   0.101   0.039
    1UNL     C3    3  -0.160   0.077   0.018
    1UNL     C4    4  -0.143   0.074  -0.131
    1UNL     C5    5  -0.176  -0.032  -0.205
    1UNL     C6    6  -0.221  -0.157  -0.142
    1UNL     N1    7  -0.187  -0.182   0.005
    1UNL     C7    8  -0.124  -0.315   0.021
    1UNL     C8    9   0.034  -0.322   0.003
    1UNL     C9   10   0.095  -0.185   0.013
    1UNL    C10   11   0.031  -0.069   0.050
    1UNL     N2   12   0.112   0.044   0.042
    1UNL    C11   13   0.238  -0.003   0.002
    1UNL    C12   14   0.368   0.056  -0.000
    1UNL    C13   15   0.474  -0.022  -0.034
    1UNL    C14   16   0.465  -0.158  -0.056
    1UNL    C15   17   0.345  -0.224  -0.041
    1UNL    C16   18   0.228  -0.150  -0.014
    1UNL    C17   19   0.073   0.184   0.059
    1UNL     O1   20   0.106   0.260  -0.063
    1UNL    C18   21   0.125   0.396  -0.043
    1UNL    C19   22  -0.079   0.196   0.086
    1UNL    C20   23  -0.122  -0.063   0.074
    1UNL     H1   24  -0.469   0.140   0.187
    1UNL     H2   25  -0.313   0.182   0.248
    1UNL     H3   26  -0.345   0.020   0.238
    1UNL     H4   27  -0.368   0.185  -0.017
    1UNL     H5   28  -0.364   0.008   0.001
    1UNL     H6   29  -0.076   0.146  -0.174
    1UNL     H7   30  -0.160  -0.015  -0.312
    1UNL     H8   31  -0.190  -0.245  -0.199
    1UNL     H9   32  -0.331  -0.155  -0.147
    1UNL    H10   33  -0.177  -0.388  -0.038
    1UNL    H11   34  -0.155  -0.355   0.119
    1UNL    H12   35   0.051  -0.366  -0.096
    1UNL    H13   36   0.062  -0.383   0.096
    1UNL    H14   37   0.372   0.159   0.015
    1UNL    H15   38   0.568   0.026  -0.048
    1UNL    H16   39   0.546  -0.203  -0.114
    1UNL    H17   40   0.336  -0.331  -0.041
    1UNL    H18   41   0.114   0.232   0.151
    1UNL    H19   42   0.021   0.426  -0.020
    1UNL    H20   43   0.209   0.411   0.032
    1UNL    H21   44   0.181   0.446  -0.124
    1UNL    H22   45  -0.119   0.289   0.055
    1UNL    H23   46  -0.102   0.199   0.197
    1UNL    H24   47  -0.139  -0.074   0.182
   0.00000   0.00000   0.00000   0.00000   0.00000   0.00000   0.00000   0.00000   0.00000
Generated with MDTraj, t= 2.0
 47
    1UNL     C1    1  -0.350   0.108   0.188
    1UNL     C2    2  -0.319   0.094   0.041
    1UNL     C3    3  -0.171   0.074   0.008
    1UNL     C4    4  -0.153   0.068  -0.140
    1UNL     C5    5  -0.171  -0.044  -0.215
    1UNL     C6    6  -0.211  -0.167  -0.148
    1UNL     N1    7  -0.188  -0.176  -0.002
    1UNL     C7    8  -0.131  -0.306   0.033
    1UNL     C8    9   0.026  -0.320  -0.003
    1UNL     C9   10   0.092  -0.188   0.018
    1UNL    C10   11   0.024  -0.070   0.046
    1UNL     N2   12   0.114   0.042   0.048
    1UNL    C11   13   0.242  -0.008   0.019
    1UNL    C12   14   0.361   0.062  -0.011
    1UNL    C13   15   0.463  -0.012  -0.057
    1UNL    C14   16   0.457  -0.151  -0.063
    1UNL    C15   17   0.349  -0.223  -0.030
    1UNL    C16   18   0.231  -0.148  -0.001
    1UNL    C17   19   0.069   0.181   0.062
    1UNL     O1   20   0.125   0.252  -0.045
    1UNL    C18   21   0.137   0.392  -0.023
    1UNL    C19   22  -0.085   0.207   0.064
    1UNL    C20   23  -0.121  -0.055   0.069
    1UNL     H1   24  -0.448   0.130   0.212
    1UNL     H2   25  -0.295   0.193   0.239
    1UNL     H3   26  -0.307   0.027   0.257
    1UNL     H4   27  -0.348   0.199   0.002
    1UNL     H5   28  -0.395   0.022   0.004
    1UNL     H6   29  -0.120   0.164  -0.186
    1UNL     H7   30  -0.170  -0.034  -0.321
    1UNL     H8   31  -0.161  -0.251  -0.196
    1UNL     H9   32  -0.318  -0.181  -0.167
    1UNL    H10   33  -0.198  -0.386   0.003
    1UNL    H11   34  -0.144  -0.316   0.139
    1UNL    H12   35   0.014  -0.345  -0.110
    1UNL    H13   36   0.066  -0.397   0.080
    1UNL    H14   37   0.364   0.174   0.017
    1UNL    H15   38   0.545   0.054  -0.097
    1UNL    H16   39   0.551  -0.199  -0.085
    1UNL    H17   40   0.359  -0.333  -0.032
    1UNL    H18   41   0.113   0.221   0.159
    1UNL    H19   42   0.071   0.423   0.061
    1UNL    H20   43   0.246   0.413  -0.008
    1UNL    H21   44   0.122   0.439  -0.121
    1UNL    H22   45  -0.096   0.294   0.009
    1UNL    H23   46  -0.138   0.233   0.163
    1UNL    H24   47  -0.136  -0.075   0.176
   0.00000   0.00000   0.00000   0.00000   0.00000   0.00000   0.00000   0.00000   0.00000
Generated with MDTraj, t= 3.0
 47
    1UNL     C1    1  -0.373   0.102   0.183
    1UNL     C2    2  -0.319   0.104   0.034
    1UNL     C3    3  -0.174   0.075   0.012
    1UNL     C4    4  -0.141   0.079  -0.134
    1UNL     C5    5  -0.166  -0.029  -0.209
    1UNL     C6    6  -0.208  -0.161  -0.150
    1UNL     N1    7  -0.180  -0.179  -0.003
    1UNL     C7    8  -0.124  -0.310   0.032
    1UNL     C8    9   0.033  -0.315   0.031
    1UNL     C9   10   0.095  -0.182   0.022
    1UNL    C10   11   0.023  -0.069   0.052
    1UNL     N2   12   0.108   0.043   0.038
    1UNL    C11   13   0.247  -0.010   0.004
    1UNL    C12   14   0.369   0.057  -0.018
    1UNL    C13   15   0.472  -0.020  -0.057
    1UNL    C14   16   0.462  -0.159  -0.072
    1UNL    C15   17   0.341  -0.223  -0.042
    1UNL    C16   18   0.231  -0.149  -0.004
    1UNL    C17   19   0.059   0.181   0.058
    1UNL     O1   20   0.092   0.264  -0.057
    1UNL    C18   21   0.156   0.387  -0.016
    1UNL    C19   22  -0.093   0.192   0.078
    1UNL    C20   23  -0.120  -0.054   0.071
    1UNL     H1   24  -0.475   0.115   0.184
    1UNL     H2   25  -0.325   0.173   0.258
    1UNL     H3   26  -0.341   0.005   0.236
    1UNL     H4   27  -0.362   0.203  -0.006
    1UNL     H5   28  -0.375   0.021  -0.016
    1UNL     H6   29  -0.109   0.164  -0.184
    1UNL     H7   30  -0.128  -0.028  -0.315
    1UNL     H8   31  -0.155  -0.233  -0.211
    1UNL     H9   32  -0.315  -0.183  -0.158
    1UNL    H10   33  -0.166  -0.390  -0.024
    1UNL    H11   34  -0.160  -0.334   0.130
    1UNL    H12   35   0.068  -0.379  -0.054
    1UNL    H13   36   0.048  -0.358   0.141
    1UNL    H14   37   0.370   0.156  -0.001
    1UNL    H15   38   0.569   0.016  -0.050
    1UNL    H16   39   0.552  -0.213  -0.097
    1UNL    H17   40   0.337  -0.326  -0.051
    1UNL    H18   41   0.120   0.207   0.152
    1UNL    H19   42   0.088   0.460   0.032
    1UNL    H20   43   0.232   0.370   0.064
    1UNL    H21   44   0.209   0.411  -0.110
    1UNL    H22   45  -0.130   0.279   0.033
    1UNL    H23   46  -0.120   0.207   0.189
    1UNL    H24   47  -0.150  -0.063   0.176
   0.00000   0.00000   0.00000   0.00000   0.00000   0.00000   0.00000   0.00000   0.00000
Generated with MDTraj, t= 4.0
 47
    1UNL     C1    1  -0.369   0.087   0.186
    1UNL     C2    2  -0.316   0.104   0.045
    1UNL     C3    3  -0.165   0.085   0.021
    1UNL     C4    4  -0.133   0.089  -0.127
    1UNL     C5    5  -0.145  -0.024  -0.201
    1UNL     C6    6  -0.182  -0.161  -0.156
    1UNL     N1    7  -0.186  -0.173  -0.009
    1UNL     C7    8  -0.134  -0.304   0.034
    1UNL     C8    9   0.023  -0.319   0.010
    1UNL     C9   10   0.091  -0.188   0.034
    1UNL    C10   11   0.023  -0.073   0.062
    1UNL     N2   12   0.105   0.037   0.051
    1UNL    C11   13   0.227  -0.012   0.000
    1UNL    C12   14   0.344   0.061  -0.036
    1UNL    C13   15   0.457  -0.013  -0.061
    1UNL    C14   16   0.458  -0.152  -0.055
    1UNL    C15   17   0.344  -0.219  -0.033
    1UNL    C16   18   0.225  -0.152  -0.001
    1UNL    C17   19   0.068   0.177   0.052
    1UNL     O1   20   0.110   0.251  -0.065
    1UNL    C18   21   0.149   0.385  -0.033
    1UNL    C19   22  -0.087   0.198   0.078
    1UNL    C20   23  -0.118  -0.058   0.074
    1UNL     H1   24  -0.477   0.085   0.186
    1UNL     H2   25  -0.338   0.158   0.266
    1UNL     H3   26  -0.331  -0.007   0.236
    1UNL     H4   27  -0.347   0.204  -0.004
    1UNL     H5   28  -0.373   0.025  -0.015
    1UNL     H6   29  -0.093   0.179  -0.183
    1UNL     H7   30  -0.112  -0.027  -0.300
    1UNL     H8   31  -0.110  -0.237  -0.180
    1UNL     H9   32  -0.275  -0.184  -0.210
    1UNL    H10   33  -0.181  -0.380  -0.025
    1UNL    H11   34  -0.164  -0.331   0.133
    1UNL    H12   35   0.026  -0.348  -0.097
    1UNL    H13   36   0.067  -0.407   0.077
    1UNL    H14   37   0.323   0.171  -0.043
    1UNL    H15   38   0.552   0.047  -0.077
    1UNL    H16   39   0.549  -0.208  -0.071
    1UNL    H17   40   0.350  -0.330  -0.045
    1UNL    H18   41   0.106   0.236   0.141
    1UNL    H19   42   0.086   0.422   0.049
    1UNL    H20   43   0.251   0.391   0.010
    1UNL    H21   44   0.136   0.435  -0.128
    1UNL    H22   45  -0.119   0.289   0.028
    1UNL    H23   46  -0.113   0.215   0.186
    1UNL    H24   47  -0.162  -0.073   0.172
   0.00000   0.00000   0.00000   0.00000   0.00000   0.00000   0.00000   0.00000   0.00000
Generated with MDTraj, t= 5.0
 47
    1UNL     C1    1  -0.364   0.096   0.187
    1UNL     C2    2  -0.319   0.100   0.044
    1UNL     C3    3  -0.166   0.086   0.018
    1UNL     C4    4  -0.140   0.084  -0.128
    1UNL     C5    5  -0.163  -0.018  -0.213
    1UNL     C6    6  -0.199  -0.151  -0.171
    1UNL     N1    7  -0.174  -0.170  -0.022
    1UNL     C7    8  -0.128  -0.305   0.022
    1UNL     C8    9   0.025  -0.316   0.035
    1UNL     C9   10   0.097  -0.183   0.039
    1UNL    C10   11   0.030  -0.066   0.061
    1UNL     N2   12   0.116   0.038   0.056
    1UNL    C11   13   0.247  -0.010   0.031
    1UNL    C12   14   0.369   0.051  -0.010
    1UNL    C13   15   0.471  -0.028  -0.056
    1UNL    C14   16   0.457  -0.167  -0.076
    1UNL    C15   17   0.337  -0.225  -0.043
    1UNL    C16   18   0.235  -0.152   0.012
    1UNL    C17   19   0.073   0.176   0.055
    1UNL     O1   20   0.090   0.253  -0.067
    1UNL    C18   21   0.108   0.394  -0.047
    1UNL    C19   22  -0.079   0.190   0.085
    1UNL    C20   23  -0.115  -0.062   0.065
    1UNL     H1   24  -0.474   0.131   0.191
    1UNL     H2   25  -0.303   0.160   0.252
    1UNL     H3   26  -0.348  -0.002   0.235
    1UNL     H4   27  -0.342   0.212   0.017
    1UNL     H5   28  -0.379   0.044  -0.037
    1UNL     H6   29  -0.115   0.174  -0.172
    1UNL     H7   30  -0.167   0.013  -0.321
    1UNL     H8   31  -0.146  -0.227  -0.228
    1UNL     H9   32  -0.306  -0.177  -0.162
    1UNL    H10   33  -0.159  -0.371  -0.056
    1UNL    H11   34  -0.178  -0.343   0.109
    1UNL    H12   35   0.072  -0.376  -0.047
    1UNL    H13   36   0.046  -0.381   0.131
    1UNL    H14   37   0.369   0.159  -0.010
    1UNL    H15   38   0.542   0.032  -0.100
    1UNL    H16   39   0.539  -0.218  -0.124
    1UNL    H17   40   0.310  -0.321  -0.073
    1UNL    H18   41   0.121   0.231   0.139
    1UNL    H19   42   0.011   0.428  -0.015
    1UNL    H20   43   0.176   0.410   0.038
    1UNL    H21   44   0.132   0.435  -0.143
    1UNL    H22   45  -0.115   0.294   0.061
    1UNL    H23   46  -0.080   0.173   0.192
    1UNL    H24   47  -0.148  -0.065   0.169
   0.00000   0.00000   0.00000   0.00000   0.00000   0.00000   0.00000   0.00000   0.00000
Generated with MDTraj, t= 6.0
 47
    1UNL     C1    1  -0.359   0.107   0.208
    1UNL     C2    2  -0.318   0.105   0.056
    1UNL     C3    3  -0.167   0.084   0.028
    1UNL     C4    4  -0.143   0.087  -0.125
    1UNL     C5    5  -0.140  -0.019  -0.210
    1UNL     C6    6  -0.181  -0.150  -0.159
    1UNL     N1    7  -0.185  -0.169  -0.012
    1UNL     C7    8  -0.134  -0.299   0.031
    1UNL     C8    9   0.007  -0.315  -0.013
    1UNL     C9   10   0.091  -0.185   0.003
    1UNL    C10   11   0.029  -0.072   0.045
    1UNL     N2   12   0.114   0.037   0.057
    1UNL    C11   13   0.242  -0.007   0.012
    1UNL    C12   14   0.361   0.053  -0.014
    1UNL    C13   15   0.470  -0.021  -0.042
    1UNL    C14   16   0.466  -0.163  -0.041
    1UNL    C15   17   0.343  -0.230  -0.033
    1UNL    C16   18   0.230  -0.144  -0.008
    1UNL    C17   19   0.073   0.179   0.065
    1UNL     O1   20   0.119   0.245  -0.059
    1UNL    C18   21   0.076   0.376  -0.078
    1UNL    C19   22  -0.076   0.188   0.096
    1UNL    C20   23  -0.119  -0.062   0.066
    1UNL     H1   24  -0.473   0.139   0.206
    1UNL     H2   25  -0.300   0.178   0.265
    1UNL     H3   26  -0.336   0.012   0.252
    1UNL     H4   27  -0.355   0.194  -0.010
    1UNL     H5   28  -0.375   0.017   0.004
    1UNL     H6   29  -0.110   0.186  -0.162
    1UNL     H7   30  -0.113  -0.009  -0.309
    1UNL     H8   31  -0.122  -0.237  -0.187
    1UNL     H9   32  -0.284  -0.162  -0.195
    1UNL    H10   33  -0.189  -0.380  -0.014
    1UNL    H11   34  -0.156  -0.311   0.135
    1UNL    H12   35   0.016  -0.344  -0.121
    1UNL    H13   36   0.073  -0.394   0.038
    1UNL    H14   37   0.351   0.157  -0.013
    1UNL    H15   38   0.570   0.026  -0.064
    1UNL    H16   39   0.552  -0.218  -0.073
    1UNL    H17   40   0.336  -0.340  -0.027
    1UNL    H18   41   0.134   0.226   0.139
    1UNL    H19   42  -0.025   0.363  -0.114
    1UNL    H20   43   0.071   0.431   0.017
    1UNL    H21   44   0.130   0.419  -0.160
    1UNL    H22   45  -0.101   0.296   0.062
    1UNL    H23   46  -0.084   0.174   0.200
    1UNL    H24   47  -0.149  -0.078   0.169
   0.00000   0.00000   0.00000   0.00000   0.00000   0.00000   0.00000   0.00000   0.00000
Generated with MDTraj, t= 7.0
 47
    1UNL     C1    1  -0.349   0.115   0.207
    1UNL     C2    2  -0.312   0.107   0.057
    1UNL     C3    3  -0.162   0.080   0.018
    1UNL     C4    4  -0.151   0.092  -0.134
    1UNL     C5    5  -0.182  -0.012  -0.216
    1UNL     C6    6  -0.228  -0.151  -0.160
    1UNL     N1    7  -0.182  -0.175  -0.022
    1UNL     C7    8  -0.128  -0.310   0.008
    1UNL     C8    9   0.024  -0.319   0.004
    1UNL     C9   10   0.099  -0.188   0.023
    1UNL    C10   11   0.034  -0.071   0.049
    1UNL     N2   12   0.124   0.035   0.050
    1UNL    C11   13   0.249  -0.017   0.030
    1UNL    C12   14   0.371   0.050   0.017
    1UNL    C13   15   0.481  -0.023  -0.025
    1UNL    C14   16   0.466  -0.164  -0.057
    1UNL    C15   17   0.346  -0.228  -0.036
    1UNL    C16   18   0.238  -0.153   0.003
    1UNL    C17   19   0.079   0.180   0.050
    1UNL     O1   20   0.087   0.251  -0.084
    1UNL    C18   21   0.079   0.393  -0.070
    1UNL    C19   22  -0.068   0.184   0.099
    1UNL    C20   23  -0.114  -0.060   0.064
    1UNL     H1   24  -0.464   0.142   0.212
    1UNL     H2   25  -0.296   0.196   0.260
    1UNL     H3   26  -0.316   0.031   0.265
    1UNL     H4   27  -0.347   0.198  -0.007
    1UNL     H5   28  -0.375   0.028  -0.005
    1UNL     H6   29  -0.098   0.177  -0.171
    1UNL     H7   30  -0.153  -0.004  -0.325
    1UNL     H8   31  -0.187  -0.227  -0.226
    1UNL     H9   32  -0.338  -0.162  -0.144
    1UNL    H10   33  -0.177  -0.388  -0.048
    1UNL    H11   34  -0.154  -0.339   0.108
    1UNL    H12   35   0.074  -0.360  -0.089
    1UNL    H13   36   0.070  -0.385   0.080
    1UNL    H14   37   0.396   0.155   0.058
    1UNL    H15   38   0.572   0.028  -0.023
    1UNL    H16   39   0.557  -0.220  -0.076
    1UNL    H17   40   0.334  -0.334  -0.043
    1UNL    H18   41   0.152   0.228   0.112
    1UNL    H19   42  -0.026   0.419  -0.067
    1UNL    H20   43   0.125   0.430   0.023
    1UNL    H21   44   0.115   0.442  -0.159
    1UNL    H22   45  -0.112   0.289   0.072
    1UNL    H23   46  -0.068   0.162   0.203
    1UNL    H24   47  -0.138  -0.085   0.166
   0.00000   0.00000   0.00000   0.00000   0.00000   0.00000   0.00000   0.00000   0.00000
Generated with MDTraj, t= 8.0
 47
    1UNL     C1    1  -0.350   0.099   0.216
    1UNL     C2    2  -0.316   0.097   0.070
    1UNL     C3    3  -0.168   0.078   0.021
    1UNL     C4    4  -0.163   0.087  -0.130
    1UNL     C5    5  -0.179  -0.017  -0.214
    1UNL     C6    6  -0.205  -0.156  -0.160
    1UNL     N1    7  -0.183  -0.171  -0.017
    1UNL     C7    8  -0.125  -0.302   0.019
    1UNL     C8    9   0.022  -0.308  -0.032
    1UNL     C9   10   0.089  -0.184   0.011
    1UNL    C10   11   0.030  -0.066   0.057
    1UNL     N2   12   0.118   0.037   0.052
    1UNL    C11   13   0.237  -0.009   0.010
    1UNL    C12   14   0.360   0.060  -0.003
    1UNL    C13   15   0.478  -0.017  -0.023
    1UNL    C14   16   0.469  -0.159  -0.025
    1UNL    C15   17   0.349  -0.225  -0.021
    1UNL    C16   18   0.227  -0.153  -0.011
    1UNL    C17   19   0.073   0.179   0.044
    1UNL     O1   20   0.099   0.238  -0.078
    1UNL    C18   21   0.128   0.376  -0.074
    1UNL    C19   22  -0.076   0.196   0.092
    1UNL    C20   23  -0.123  -0.060   0.067
    1UNL     H1   24  -0.459   0.078   0.228
    1UNL     H2   25  -0.337   0.204   0.258
    1UNL     H3   26  -0.277   0.043   0.274
    1UNL     H4   27  -0.360   0.196   0.025
    1UNL     H5   28  -0.382   0.023   0.004
    1UNL     H6   29  -0.163   0.186  -0.169
    1UNL     H7   30  -0.183   0.003  -0.316
    1UNL     H8   31  -0.136  -0.227  -0.206
    1UNL     H9   32  -0.311  -0.175  -0.187
    1UNL    H10   33  -0.172  -0.393  -0.019
    1UNL    H11   34  -0.127  -0.308   0.125
    1UNL    H12   35   0.034  -0.328  -0.144
    1UNL    H13   36   0.077  -0.388   0.012
    1UNL    H14   37   0.365   0.159   0.016
    1UNL    H15   38   0.585   0.019  -0.012
    1UNL    H16   39   0.555  -0.223  -0.023
    1UNL    H17   40   0.338  -0.331  -0.032
    1UNL    H18   41   0.136   0.232   0.112
    1UNL    H19   42   0.068   0.434  -0.005
    1UNL    H20   43   0.233   0.402  -0.046
    1UNL    H21   44   0.094   0.417  -0.169
    1UNL    H22   45  -0.116   0.299   0.067
    1UNL    H23   46  -0.090   0.178   0.196
    1UNL    H24   47  -0.144  -0.080   0.172
   0.00000   0.00000   0.00000   0.00000   0.00000   0.00000   0.00000   0.00000   0.00000
Generated with MDTraj, t= 9.0
 47
    1UNL     C1    1  -0.348   0.086   0.226
    1UNL     C2    2  -0.320   0.103   0.076
    1UNL     C3    3  -0.177   0.078   0.020
    1UNL     C4    4  -0.170   0.086  -0.129
    1UNL     C5    5  -0.179  -0.013  -0.213
    1UNL     C6    6  -0.201  -0.148  -0.173
    1UNL     N1    7  -0.181  -0.171  -0.028
    1UNL     C7    8  -0.131  -0.302   0.017
    1UNL     C8    9   0.029  -0.316   0.022
    1UNL     C9   10   0.098  -0.187   0.018
    1UNL    C10   11   0.032  -0.067   0.044
    1UNL     N2   12   0.115   0.042   0.037
    1UNL    C11   13   0.238  -0.009   0.011
    1UNL    C12   14   0.363   0.059   0.015
    1UNL    C13   15   0.475  -0.014  -0.014
    1UNL    C14   16   0.464  -0.151  -0.039
    1UNL    C15   17   0.349  -0.225  -0.038
    1UNL    C16   18   0.228  -0.150  -0.010
    1UNL    C17   19   0.065   0.182   0.040
    1UNL     O1   20   0.085   0.251  -0.086
    1UNL    C18   21   0.162   0.367  -0.070
    1UNL    C19   22  -0.085   0.185   0.086
    1UNL    C20   23  -0.126  -0.058   0.060
    1UNL     H1   24  -0.436   0.142   0.246
    1UNL     H2   25  -0.263   0.124   0.292
    1UNL     H3   26  -0.356  -0.021   0.251
    1UNL     H4   27  -0.361   0.204   0.034
    1UNL     H5   28  -0.397   0.028   0.029
    1UNL     H6   29  -0.146   0.187  -0.166
    1UNL     H7   30  -0.162   0.017  -0.319
    1UNL     H8   31  -0.131  -0.212  -0.229
    1UNL     H9   32  -0.307  -0.170  -0.197
    1UNL    H10   33  -0.166  -0.381  -0.052
    1UNL    H11   34  -0.161  -0.325   0.117
    1UNL    H12   35   0.062  -0.382  -0.066
    1UNL    H13   36   0.057  -0.370   0.107
    1UNL    H14   37   0.373   0.170   0.031
    1UNL    H15   38   0.573   0.024  -0.015
    1UNL    H16   39   0.543  -0.213  -0.085
    1UNL    H17   40   0.333  -0.329  -0.069
    1UNL    H18   41   0.130   0.220   0.119
    1UNL    H19   42   0.108   0.451  -0.029
    1UNL    H20   43   0.244   0.348   0.003
    1UNL    H21   44   0.191   0.412  -0.167
    1UNL    H22   45  -0.139   0.276   0.062
    1UNL    H23   46  -0.103   0.158   0.189
    1UNL    H24   47  -0.139  -0.071   0.167
   0.00000   0.00000   0.00000   0.00000   0.00000   0.00000   0.00000   0.00000   0.00000
Generated with MDTraj, t= 10.0
 47
    1UNL     C1    1  -0.367   0.068   0.213
    1UNL     C2    2  -0.323   0.088   0.068
    1UNL     C3    3  -0.178   0.087   0.021
    1UNL     C4    4  -0.173   0.105  -0.132
    1UNL     C5    5  -0.176  -0.003  -0.209
    1UNL     C6    6  -0.168  -0.148  -0.170
    1UNL     N1    7  -0.183  -0.168  -0.021
    1UNL     C7    8  -0.129  -0.292   0.028
    1UNL     C8    9   0.023  -0.314  -0.001
    1UNL     C9   10   0.090  -0.185   0.024
    1UNL    C10   11   0.026  -0.064   0.049
    1UNL     N2   12   0.116   0.044   0.049
    1UNL    C11   13   0.241  -0.005   0.028
    1UNL    C12   14   0.362   0.052  -0.013
    1UNL    C13   15   0.474  -0.023  -0.045
    1UNL    C14   16   0.468  -0.167  -0.049
    1UNL    C15   17   0.350  -0.227  -0.014
    1UNL    C16   18   0.231  -0.150   0.013
    1UNL    C17   19   0.062   0.184   0.044
    1UNL     O1   20   0.090   0.241  -0.081
    1UNL    C18   21   0.150   0.366  -0.069
    1UNL    C19   22  -0.082   0.196   0.087
    1UNL    C20   23  -0.121  -0.055   0.063
    1UNL     H1   24  -0.466   0.084   0.235
    1UNL     H2   25  -0.311   0.137   0.283
    1UNL     H3   26  -0.345  -0.033   0.253
    1UNL     H4   27  -0.377   0.185   0.028
    1UNL     H5   28  -0.371   0.009  -0.001
    1UNL     H6   29  -0.158   0.204  -0.165
    1UNL     H7   30  -0.173   0.015  -0.313
    1UNL     H8   31  -0.074  -0.189  -0.206
    1UNL     H9   32  -0.252  -0.208  -0.214
    1UNL    H10   33  -0.180  -0.376  -0.024
    1UNL    H11   34  -0.145  -0.300   0.135
    1UNL    H12   35   0.029  -0.343  -0.113
    1UNL    H13   36   0.061  -0.401   0.042
    1UNL    H14   37   0.387   0.159  -0.017
    1UNL    H15   38   0.562   0.026  -0.095
    1UNL    H16   39   0.553  -0.216  -0.090
    1UNL    H17   40   0.342  -0.331  -0.027
    1UNL    H18   41   0.136   0.225   0.116
    1UNL    H19   42   0.110   0.440  -0.001
    1UNL    H20   43   0.256   0.350  -0.038
    1UNL    H21   44   0.138   0.417  -0.167
    1UNL    H22   45  -0.122   0.286   0.053
    1UNL    H23   46  -0.101   0.180   0.193
    1UNL    H24   47  -0.137  -0.070   0.170
   0.00000   0.00000   0.00000   0.00000   0.00000   0.00000   0.00000   0.00000   0.00000
Generated with MDTraj, t= 11.0
 47
    1UNL     C1    1  -0.349   0.096   0.207
    1UNL     C2    2  -0.309   0.113   0.061
    1UNL     C3    3  -0.169   0.082   0.030
    1UNL     C4    4  -0.141   0.094  -0.118
    1UNL     C5    5  -0.148  -0.002  -0.209
    1UNL     C6    6  -0.170  -0.146  -0.169
    1UNL     N1    7  -0.177  -0.177  -0.025
    1UNL     C7    8  -0.131  -0.314   0.002
    1UNL     C8    9   0.026  -0.320   0.036
    1UNL     C9   10   0.092  -0.186   0.033
    1UNL    C10   11   0.022  -0.075   0.050
    1UNL     N2   12   0.107   0.031   0.047
    1UNL    C11   13   0.232  -0.009   0.013
    1UNL    C12   14   0.348   0.058  -0.018
    1UNL    C13   15   0.460  -0.018  -0.038
    1UNL    C14   16   0.456  -0.155  -0.047
    1UNL    C15   17   0.336  -0.227  -0.042
    1UNL    C16   18   0.223  -0.146  -0.004
    1UNL    C17   19   0.076   0.179   0.053
    1UNL     O1   20   0.093   0.240  -0.076
    1UNL    C18   21   0.103   0.380  -0.069
    1UNL    C19   22  -0.072   0.192   0.091
    1UNL    C20   23  -0.121  -0.063   0.063
    1UNL     H1   24  -0.447   0.122   0.231
    1UNL     H2   25  -0.285   0.160   0.268
    1UNL     H3   26  -0.340  -0.009   0.243
    1UNL     H4   27  -0.320   0.227   0.035
    1UNL     H5   28  -0.380   0.054  -0.008
    1UNL     H6   29  -0.127   0.197  -0.157
    1UNL     H7   30  -0.138   0.009  -0.317
    1UNL     H8   31  -0.086  -0.209  -0.200
    1UNL     H9   32  -0.263  -0.179  -0.222
    1UNL    H10   33  -0.160  -0.386  -0.079
    1UNL    H11   34  -0.194  -0.348   0.085
    1UNL    H12   35   0.088  -0.400  -0.016
    1UNL    H13   36   0.040  -0.362   0.132
    1UNL    H14   37   0.357   0.159  -0.003
    1UNL    H15   38   0.560   0.016  -0.035
    1UNL    H16   39   0.547  -0.211  -0.074
    1UNL    H17   40   0.334  -0.337  -0.037
    1UNL    H18   41   0.146   0.230   0.125
    1UNL    H19   42   0.014   0.436  -0.045
    1UNL    H20   43   0.181   0.398   0.006
    1UNL    H21   44   0.132   0.423  -0.169
    1UNL    H22   45  -0.102   0.284   0.059
    1UNL    H23   46  -0.089   0.175   0.198
    1UNL    H24   47  -0.157  -0.088   0.161
   0.00000   0.00000   0.00000   0.00000   0.00000   0.00000   0.00000   0.00000   0.00000
Generated with MDTraj, t= 12.0
 47
    1UNL     C1    1  -0.355   0.117   0.195
    1UNL     C2    2  -0.317   0.099   0.047
    1UNL     C3    3  -0.165   0.089   0.022
    1UNL     C4    4  -0.150   0.097  -0.134
    1UNL     C5    5  -0.163  -0.004  -0.216
    1UNL     C6    6  -0.161  -0.147  -0.164
    1UNL     N1    7  -0.173  -0.170  -0.019
    1UNL     C7    8  -0.124  -0.299   0.023
    1UNL     C8    9   0.023  -0.314  -0.000
    1UNL     C9   10   0.097  -0.183   0.028
    1UNL    C10   11   0.034  -0.066   0.054
    1UNL     N2   12   0.118   0.039   0.055
    1UNL    C11   13   0.247  -0.013   0.031
    1UNL    C12   14   0.369   0.045  -0.017
    1UNL    C13   15   0.466  -0.042  -0.056
    1UNL    C14   16   0.457  -0.180  -0.063
    1UNL    C15   17   0.340  -0.235  -0.025
    1UNL    C16   18   0.234  -0.154   0.015
    1UNL    C17   19   0.069   0.181   0.059
    1UNL     O1   20   0.095   0.248  -0.062
    1UNL    C18   21   0.055   0.385  -0.056
    1UNL    C19   22  -0.079   0.191   0.098
    1UNL    C20   23  -0.113  -0.060   0.060
    1UNL     H1   24  -0.454   0.088   0.222
    1UNL     H2   25  -0.337   0.215   0.221
    1UNL     H3   26  -0.298   0.046   0.261
    1UNL     H4   27  -0.366   0.186  -0.013
    1UNL     H5   28  -0.359  -0.003   0.015
    1UNL     H6   29  -0.144   0.189  -0.186
    1UNL     H7   30  -0.169   0.005  -0.326
    1UNL     H8   31  -0.071  -0.196  -0.201
    1UNL     H9   32  -0.250  -0.213  -0.188
    1UNL    H10   33  -0.193  -0.379  -0.015
    1UNL    H11   34  -0.143  -0.304   0.131
    1UNL    H12   35   0.052  -0.363  -0.098
    1UNL    H13   36   0.065  -0.391   0.059
    1UNL    H14   37   0.392   0.158  -0.014
    1UNL    H15   38   0.564   0.006  -0.072
    1UNL    H16   39   0.530  -0.244  -0.102
    1UNL    H17   40   0.320  -0.337  -0.042
    1UNL    H18   41   0.129   0.230   0.142
    1UNL    H19   42  -0.043   0.401  -0.099
    1UNL    H20   43   0.068   0.420   0.047
    1UNL    H21   44   0.130   0.440  -0.118
    1UNL    H22   45  -0.125   0.278   0.063
    1UNL    H23   46  -0.075   0.179   0.207
    1UNL    H24   47  -0.141  -0.073   0.164
   0.00000   0.00000   0.00000   0.00000   0.00000   0.00000   0.00000   0.00000   0.00000
Generated with MDTraj, t= 13.0
 47
    1UNL     C1    1  -0.352   0.114   0.211
    1UNL     C2    2  -0.320   0.104   0.060
    1UNL     C3    3  -0.166   0.086   0.025
    1UNL     C4    4  -0.148   0.097  -0.130
    1UNL     C5    5  -0.143  -0.011  -0.208
    1UNL     C6    6  -0.189  -0.149  -0.173
    1UNL     N1    7  -0.181  -0.171  -0.019
    1UNL     C7    8  -0.133  -0.311   0.018
    1UNL     C8    9   0.021  -0.321   0.028
    1UNL     C9   10   0.092  -0.192   0.021
    1UNL    C10   11   0.024  -0.075   0.047
    1UNL     N2   12   0.110   0.031   0.038
    1UNL    C11   13   0.235  -0.015   0.007
    1UNL    C12   14   0.354   0.057  -0.004
    1UNL    C13   15   0.467  -0.014  -0.037
    1UNL    C14   16   0.462  -0.153  -0.049
    1UNL    C15   17   0.352  -0.225  -0.031
    1UNL    C16   18   0.233  -0.158  -0.011
    1UNL    C17   19   0.076   0.175   0.052
    1UNL     O1   20   0.114   0.241  -0.071
    1UNL    C18   21   0.088   0.384  -0.062
    1UNL    C19   22  -0.079   0.186   0.093
    1UNL    C20   23  -0.122  -0.061   0.064
    1UNL     H1   24  -0.446   0.157   0.240
    1UNL     H2   25  -0.284   0.174   0.257
    1UNL     H3   26  -0.375   0.016   0.263
    1UNL     H4   27  -0.342   0.207   0.013
    1UNL     H5   28  -0.379   0.023   0.007
    1UNL     H6   29  -0.093   0.187  -0.162
    1UNL     H7   30  -0.110  -0.012  -0.307
    1UNL     H8   31  -0.139  -0.238  -0.209
    1UNL     H9   32  -0.293  -0.165  -0.210
    1UNL    H10   33  -0.170  -0.388  -0.056
    1UNL    H11   34  -0.183  -0.337   0.113
    1UNL    H12   35   0.062  -0.382  -0.055
    1UNL    H13   36   0.054  -0.381   0.108
    1UNL    H14   37   0.341   0.158   0.019
    1UNL    H15   38   0.561   0.035  -0.054
    1UNL    H16   39   0.558  -0.196  -0.083
    1UNL    H17   40   0.355  -0.330  -0.066
    1UNL    H18   41   0.135   0.226   0.134
    1UNL    H19   42  -0.013   0.400  -0.095
    1UNL    H20   43   0.109   0.407   0.041
    1UNL    H21   44   0.158   0.446  -0.125
    1UNL    H22   45  -0.104   0.287   0.068
    1UNL    H23   46  -0.094   0.185   0.202
    1UNL    H24   47  -0.145  -0.066   0.170
   0.00000   0.00000   0.00000   0.00000   0.00000   0.00000   0.00000   0.00000   0.00000
Generated with MDTraj, t= 14.0
 47
    1UNL     C1    1  -0.366   0.087   0.203
    1UNL     C2    2  -0.324   0.093   0.055
    1UNL     C3    3  -0.172   0.082   0.015
    1UNL     C4    4  -0.161   0.084  -0.131
    1UNL     C5    5  -0.175  -0.015  -0.214
    1UNL     C6    6  -0.199  -0.149  -0.161
    1UNL     N1    7  -0.182  -0.166  -0.010
    1UNL     C7    8  -0.117  -0.295   0.030
    1UNL     C8    9   0.030  -0.309  -0.012
    1UNL     C9   10   0.097  -0.180   0.022
    1UNL    C10   11   0.026  -0.068   0.053
    1UNL     N2   12   0.117   0.041   0.053
    1UNL    C11   13   0.249  -0.014   0.018
    1UNL    C12   14   0.373   0.052  -0.001
    1UNL    C13   15   0.473  -0.026  -0.040
    1UNL    C14   16   0.465  -0.165  -0.047
    1UNL    C15   17   0.344  -0.231  -0.022
    1UNL    C16   18   0.232  -0.149   0.003
    1UNL    C17   19   0.064   0.181   0.046
    1UNL     O1   20   0.088   0.249  -0.076
    1UNL    C18   21   0.142   0.383  -0.057
    1UNL    C19   22  -0.087   0.192   0.082
    1UNL    C20   23  -0.120  -0.055   0.068
    1UNL     H1   24  -0.472   0.098   0.219
    1UNL     H2   25  -0.317   0.167   0.251
    1UNL     H3   26  -0.351  -0.012   0.240
    1UNL     H4   27  -0.368   0.190   0.013
    1UNL     H5   28  -0.375   0.006   0.003
    1UNL     H6   29  -0.167   0.184  -0.169
    1UNL     H7   30  -0.171   0.001  -0.327
    1UNL     H8   31  -0.140  -0.224  -0.213
    1UNL     H9   32  -0.301  -0.192  -0.177
    1UNL    H10   33  -0.165  -0.372  -0.036
    1UNL    H11   34  -0.126  -0.331   0.137
    1UNL    H12   35   0.036  -0.321  -0.118
    1UNL    H13   36   0.084  -0.390   0.032
    1UNL    H14   37   0.383   0.160   0.015
    1UNL    H15   38   0.569   0.020  -0.054
    1UNL    H16   39   0.543  -0.220  -0.093
    1UNL    H17   40   0.322  -0.334  -0.032
    1UNL    H18   41   0.126   0.235   0.122
    1UNL    H19   42   0.096   0.433   0.026
    1UNL    H20   43   0.249   0.376  -0.062
    1UNL    H21   44   0.109   0.438  -0.148
    1UNL    H22   45  -0.131   0.294   0.064
    1UNL    H23   46  -0.084   0.205   0.192
    1UNL    H24   47  -0.155  -0.086   0.166
   0.00000   0.00000   0.00000   0.00000   0.00000   0.00000   0.00000   0.00000   0.00000
Generated with MDTraj, t= 15.0
 47
    1UNL     C1    1  -0.344   0.081   0.201
    1UNL     C2    2  -0.318   0.107   0.057
    1UNL     C3    3  -0.165   0.076   0.019
    1UNL     C4    4  -0.152   0.079  -0.131
    1UNL     C5    5  -0.177  -0.020  -0.212
    1UNL     C6    6  -0.220  -0.155  -0.157
    1UNL     N1    7  -0.184  -0.174  -0.009
    1UNL     C7    8  -0.135  -0.311   0.024
    1UNL     C8    9   0.024  -0.317   0.003
    1UNL     C9   10   0.090  -0.187   0.013
    1UNL    C10   11   0.024  -0.070   0.047
    1UNL     N2   12   0.111   0.039   0.045
    1UNL    C11   13   0.240  -0.005   0.011
    1UNL    C12   14   0.356   0.063   0.003
    1UNL    C13   15   0.475  -0.003  -0.016
    1UNL    C14   16   0.461  -0.146  -0.039
    1UNL    C15   17   0.345  -0.218  -0.039
    1UNL    C16   18   0.229  -0.143  -0.019
    1UNL    C17   19   0.064   0.177   0.047
    1UNL     O1   20   0.092   0.251  -0.076
    1UNL    C18   21   0.168   0.367  -0.060
    1UNL    C19   22  -0.084   0.193   0.086
    1UNL    C20   23  -0.117  -0.057   0.067
    1UNL     H1   24  -0.449   0.076   0.220
    1UNL     H2   25  -0.302   0.166   0.257
    1UNL     H3   26  -0.316  -0.015   0.225
    1UNL     H4   27  -0.350   0.208   0.012
    1UNL     H5   28  -0.374   0.025   0.000
    1UNL     H6   29  -0.108   0.168  -0.175
    1UNL     H7   30  -0.167  -0.016  -0.313
    1UNL     H8   31  -0.183  -0.233  -0.222
    1UNL     H9   32  -0.330  -0.166  -0.174
    1UNL    H10   33  -0.183  -0.400  -0.025
    1UNL    H11   34  -0.142  -0.327   0.135
    1UNL    H12   35   0.045  -0.354  -0.092
    1UNL    H13   36   0.070  -0.384   0.076
    1UNL    H14   37   0.350   0.169   0.039
    1UNL    H15   38   0.571   0.052  -0.012
    1UNL    H16   39   0.554  -0.205  -0.053
    1UNL    H17   40   0.356  -0.325  -0.051
    1UNL    H18   41   0.127   0.225   0.123
    1UNL    H19   42   0.098   0.444  -0.029
    1UNL    H20   43   0.258   0.353  -0.004
    1UNL    H21   44   0.197   0.395  -0.164
    1UNL    H22   45  -0.105   0.308   0.087
    1UNL    H23   46  -0.096   0.185   0.195
    1UNL    H24   47  -0.137  -0.076   0.171
   0.00000   0.00000   0.00000   0.00000   0.00000   0.00000   0.00000   0.00000   0.00000
Generated with MDTraj, t= 16.0
 47
    1UNL     C1    1  -0.363   0.098   0.206
    1UNL     C2    2  -0.319   0.108   0.061
    1UNL     C3    3  -0.172   0.078   0.013
    1UNL     C4    4  -0.170   0.086  -0.135
    1UNL     C5    5  -0.178  -0.021  -0.205
    1UNL     C6    6  -0.205  -0.165  -0.155
    1UNL     N1    7  -0.187  -0.182  -0.007
    1UNL     C7    8  -0.121  -0.310   0.021
    1UNL     C8    9   0.029  -0.313  -0.019
    1UNL     C9   10   0.095  -0.180   0.013
    1UNL    C10   11   0.025  -0.067   0.049
    1UNL     N2   12   0.115   0.042   0.055
    1UNL    C11   13   0.245  -0.009   0.026
    1UNL    C12   14   0.366   0.060   0.000
    1UNL    C13   15   0.475  -0.020  -0.030
    1UNL    C14   16   0.470  -0.159  -0.048
    1UNL    C15   17   0.345  -0.222  -0.034
    1UNL    C16   18   0.232  -0.146  -0.001
    1UNL    C17   19   0.067   0.180   0.052
    1UNL     O1   20   0.107   0.246  -0.077
    1UNL    C18   21   0.143   0.380  -0.058
    1UNL    C19   22  -0.085   0.198   0.082
    1UNL    C20   23  -0.127  -0.065   0.067
    1UNL     H1   24  -0.466   0.107   0.217
    1UNL     H2   25  -0.320   0.182   0.264
    1UNL     H3   26  -0.346   0.004   0.242
    1UNL     H4   27  -0.344   0.209   0.017
    1UNL     H5   28  -0.379   0.040  -0.010
    1UNL     H6   29  -0.133   0.178  -0.179
    1UNL     H7   30  -0.157  -0.012  -0.318
    1UNL     H8   31  -0.146  -0.236  -0.209
    1UNL     H9   32  -0.306  -0.192  -0.193
    1UNL    H10   33  -0.175  -0.398  -0.022
    1UNL    H11   34  -0.119  -0.329   0.131
    1UNL    H12   35   0.029  -0.330  -0.120
    1UNL    H13   36   0.076  -0.399   0.032
    1UNL    H14   37   0.368   0.161   0.015
    1UNL    H15   38   0.565   0.033  -0.035
    1UNL    H16   39   0.561  -0.202  -0.079
    1UNL    H17   40   0.317  -0.327  -0.039
    1UNL    H18   41   0.131   0.221   0.130
    1UNL    H19   42   0.052   0.428  -0.021
    1UNL    H20   43   0.228   0.396   0.006
    1UNL    H21   44   0.168   0.432  -0.154
    1UNL    H22   45  -0.121   0.303   0.043
    1UNL    H23   46  -0.099   0.225   0.187
    1UNL    H24   47  -0.130  -0.080   0.173
   0.00000   0.00000   0.00000   0.00000   0.00000   0.00000   0.00000   0.00000   0.00000
Generated with MDTraj, t= 17.0
 47
    1UNL     C1    1  -0.352   0.107   0.203
    1UNL     C2    2  -0.321   0.091   0.051
    1UNL     C3    3  -0.166   0.080   0.016
    1UNL     C4    4  -0.144   0.086  -0.133
    1UNL     C5    5  -0.162  -0.016  -0.214
    1UNL     C6    6  -0.204  -0.144  -0.162
    1UNL     N1    7  -0.183  -0.167  -0.016
    1UNL     C7    8  -0.136  -0.303   0.022
    1UNL     C8    9   0.019  -0.323   0.017
    1UNL     C9   10   0.098  -0.188   0.024
    1UNL    C10   11   0.030  -0.069   0.043
    1UNL     N2   12   0.116   0.036   0.047
    1UNL    C11   13   0.249  -0.013   0.030
    1UNL    C12   14   0.368   0.053  -0.001
    1UNL    C13   15   0.478  -0.017  -0.044
    1UNL    C14   16   0.464  -0.161  -0.056
    1UNL    C15   17   0.348  -0.232  -0.036
    1UNL    C16   18   0.236  -0.153   0.009
    1UNL    C17   19   0.075   0.181   0.056
    1UNL     O1   20   0.103   0.252  -0.069
    1UNL    C18   21   0.092   0.391  -0.055
    1UNL    C19   22  -0.078   0.184   0.085
    1UNL    C20   23  -0.124  -0.062   0.057
    1UNL     H1   24  -0.451   0.106   0.223
    1UNL     H2   25  -0.316   0.205   0.233
    1UNL     H3   26  -0.311   0.022   0.254
    1UNL     H4   27  -0.350   0.182  -0.011
    1UNL     H5   28  -0.391   0.009   0.008
    1UNL     H6   29  -0.129   0.189  -0.163
    1UNL     H7   30  -0.139  -0.000  -0.313
    1UNL     H8   31  -0.163  -0.217  -0.229
    1UNL     H9   32  -0.311  -0.166  -0.181
    1UNL    H10   33  -0.189  -0.380  -0.037
    1UNL    H11   34  -0.173  -0.328   0.124
    1UNL    H12   35   0.044  -0.380  -0.065
    1UNL    H13   36   0.049  -0.387   0.101
    1UNL    H14   37   0.361   0.166   0.007
    1UNL    H15   38   0.578   0.029  -0.060
    1UNL    H16   39   0.544  -0.224  -0.098
    1UNL    H17   40   0.350  -0.335  -0.065
    1UNL    H18   41   0.136   0.238   0.124
    1UNL    H19   42   0.025   0.416   0.028
    1UNL    H20   43   0.180   0.453  -0.039
    1UNL    H21   44   0.036   0.430  -0.143
    1UNL    H22   45  -0.115   0.290   0.049
    1UNL    H23   46  -0.102   0.197   0.189
    1UNL    H24   47  -0.139  -0.086   0.161
   0.00000   0.00000   0.00000   0.00000   0.00000   0.00000   0.00000   0.00000   0.00000
Generated with MDTraj, t= 18.0
 47
    1UNL     C1    1  -0.360   0.118   0.195
    1UNL     C2    2  -0.319   0.109   0.050
    1UNL     C3    3  -0.166   0.083   0.030
    1UNL     C4    4  -0.141   0.089  -0.126
    1UNL     C5    5  -0.141  -0.020  -0.203
    1UNL     C6    6  -0.164  -0.157  -0.161
    1UNL     N1    7  -0.179  -0.169  -0.014
    1UNL     C7    8  -0.128  -0.306   0.021
    1UNL     C8    9   0.022  -0.321   0.004
    1UNL     C9   10   0.093  -0.188   0.019
    1UNL    C10   11   0.028  -0.071   0.056
    1UNL     N2   12   0.116   0.036   0.045
    1UNL    C11   13   0.233  -0.014  -0.001
    1UNL    C12   14   0.354   0.054  -0.027
    1UNL    C13   15   0.467  -0.026  -0.043
    1UNL    C14   16   0.463  -0.168  -0.040
    1UNL    C15   17   0.339  -0.223  -0.026
    1UNL    C16   18   0.223  -0.151  -0.010
    1UNL    C17   19   0.069   0.183   0.059
    1UNL     O1   20   0.091   0.249  -0.066
    1UNL    C18   21   0.092   0.388  -0.052
    1UNL    C19   22  -0.078   0.187   0.092
    1UNL    C20   23  -0.117  -0.064   0.069
    1UNL     H1   24  -0.451   0.167   0.208
    1UNL     H2   25  -0.291   0.171   0.251
    1UNL     H3   26  -0.380   0.016   0.230
    1UNL     H4   27  -0.349   0.208   0.006
    1UNL     H5   28  -0.374   0.033  -0.019
    1UNL     H6   29  -0.114   0.188  -0.157
    1UNL     H7   30  -0.135  -0.003  -0.314
    1UNL     H8   31  -0.092  -0.225  -0.202
    1UNL     H9   32  -0.251  -0.190  -0.222
    1UNL    H10   33  -0.194  -0.384  -0.024
    1UNL    H11   34  -0.155  -0.332   0.128
    1UNL    H12   35   0.048  -0.367  -0.087
    1UNL    H13   36   0.060  -0.398   0.072
    1UNL    H14   37   0.365   0.159  -0.032
    1UNL    H15   38   0.556   0.027  -0.059
    1UNL    H16   39   0.557  -0.219  -0.046
    1UNL    H17   40   0.331  -0.332  -0.043
    1UNL    H18   41   0.135   0.233   0.127
    1UNL    H19   42   0.097   0.430   0.050
    1UNL    H20   43   0.178   0.433  -0.099
    1UNL    H21   44  -0.000   0.426  -0.103
    1UNL    H22   45  -0.133   0.289   0.099
    1UNL    H23   46  -0.070   0.167   0.198
    1UNL    H24   47  -0.152  -0.086   0.170
   0.00000   0.00000   0.00000   0.00000   0.00000   0.00000   0.00000   0.00000   0.00000
Generated with MDTraj, t= 19.0
 47
    1UNL     C1    1  -0.353   0.087   0.199
    1UNL     C2    2  -0.314   0.094   0.050
    1UNL     C3    3  -0.165   0.087   0.013
    1UNL     C4    4  -0.156   0.097  -0.142
    1UNL     C5    5  -0.164  -0.009  -0.219
    1UNL     C6    6  -0.182  -0.156  -0.171
    1UNL     N1    7  -0.178  -0.164  -0.021
    1UNL     C7    8  -0.129  -0.306   0.012
    1UNL     C8    9   0.023  -0.315   0.036
    1UNL     C9   10   0.093  -0.182   0.040
    1UNL    C10   11   0.032  -0.068   0.066
    1UNL     N2   12   0.116   0.040   0.055
    1UNL    C11   13   0.240  -0.013   0.021
    1UNL    C12   14   0.361   0.046  -0.005
    1UNL    C13   15   0.466  -0.027  -0.056
    1UNL    C14   16   0.454  -0.165  -0.068
    1UNL    C15   17   0.339  -0.230  -0.031
    1UNL    C16   18   0.226  -0.150   0.012
    1UNL    C17   19   0.070   0.188   0.058
    1UNL     O1   20   0.098   0.250  -0.062
    1UNL    C18   21   0.107   0.390  -0.051
    1UNL    C19   22  -0.076   0.186   0.081
    1UNL    C20   23  -0.113  -0.055   0.059
    1UNL     H1   24  -0.453   0.054   0.216
    1UNL     H2   25  -0.348   0.176   0.245
    1UNL     H3   26  -0.304   0.009   0.255
    1UNL     H4   27  -0.354   0.184  -0.007
    1UNL     H5   28  -0.362   0.003  -0.003
    1UNL     H6   29  -0.115   0.186  -0.193
    1UNL     H7   30  -0.157   0.009  -0.324
    1UNL     H8   31  -0.104  -0.205  -0.223
    1UNL     H9   32  -0.270  -0.207  -0.213
    1UNL    H10   33  -0.172  -0.386  -0.051
    1UNL    H11   34  -0.175  -0.335   0.109
    1UNL    H12   35   0.064  -0.384  -0.037
    1UNL    H13   36   0.048  -0.366   0.129
    1UNL    H14   37   0.368   0.151   0.012
    1UNL    H15   38   0.567   0.013  -0.079
    1UNL    H16   39   0.539  -0.217  -0.111
    1UNL    H17   40   0.333  -0.334  -0.034
    1UNL    H18   41   0.130   0.242   0.130
    1UNL    H19   42   0.211   0.419  -0.026
    1UNL    H20   43   0.093   0.437  -0.148
    1UNL    H21   44   0.033   0.434   0.017
    1UNL    H22   45  -0.110   0.290   0.053
    1UNL    H23   46  -0.096   0.185   0.188
    1UNL    H24   47  -0.152  -0.065   0.160
   0.00000   0.00000   0.00000   0.00000   0.00000   0.00000   0.00000   0.00000   0.00000
Generated with MDTraj, t= 20.0
 47
    1UNL     C1    1  -0.368   0.101   0.208
    1UNL     C2    2  -0.323   0.113   0.055
    1UNL     C3    3  -0.178   0.083   0.020
    1UNL     C4    4  -0.154   0.089  -0.124
    1UNL     C5    5  -0.151  -0.014  -0.206
    1UNL     C6    6  -0.175  -0.153  -0.161
    1UNL     N1    7  -0.179  -0.169  -0.018
    1UNL     C7    8  -0.129  -0.305   0.015
    1UNL     C8    9   0.026  -0.323   0.008
    1UNL     C9   10   0.092  -0.189   0.028
    1UNL    C10   11   0.022  -0.074   0.056
    1UNL     N2   12   0.111   0.032   0.045
    1UNL    C11   13   0.237  -0.011   0.016
    1UNL    C12   14   0.354   0.056  -0.009
    1UNL    C13   15   0.464  -0.009  -0.049
    1UNL    C14   16   0.464  -0.149  -0.057
    1UNL    C15   17   0.350  -0.219  -0.026
    1UNL    C16   18   0.231  -0.152   0.005
    1UNL    C17   19   0.067   0.182   0.048
    1UNL     O1   20   0.095   0.238  -0.075
    1UNL    C18   21   0.142   0.372  -0.057
    1UNL    C19   22  -0.084   0.189   0.088
    1UNL    C20   23  -0.126  -0.066   0.061
    1UNL     H1   24  -0.466   0.137   0.227
    1UNL     H2   25  -0.309   0.163   0.271
    1UNL     H3   26  -0.378   0.001   0.239
    1UNL     H4   27  -0.345   0.221   0.023
    1UNL     H5   28  -0.390   0.040  -0.005
    1UNL     H6   29  -0.162   0.184  -0.169
    1UNL     H7   30  -0.116  -0.005  -0.308
    1UNL     H8   31  -0.104  -0.224  -0.196
    1UNL     H9   32  -0.268  -0.188  -0.209
    1UNL    H10   33  -0.173  -0.380  -0.050
    1UNL    H11   34  -0.161  -0.332   0.118
    1UNL    H12   35   0.054  -0.359  -0.092
    1UNL    H13   36   0.051  -0.399   0.078
    1UNL    H14   37   0.368   0.167   0.014
    1UNL    H15   38   0.553   0.045  -0.069
    1UNL    H16   39   0.550  -0.212  -0.077
    1UNL    H17   40   0.355  -0.329  -0.012
    1UNL    H18   41   0.138   0.221   0.124
    1UNL    H19   42   0.243   0.366  -0.011
    1UNL    H20   43   0.154   0.434  -0.144
    1UNL    H21   44   0.069   0.417   0.010
    1UNL    H22   45  -0.112   0.289   0.055
    1UNL    H23   46  -0.109   0.199   0.195
    1UNL    H24   47  -0.158  -0.075   0.164
   0.00000   0.00000   0.00000   0.00000   0.00000   0.00000   0.00000   0.00000   0.00000
Generated with MDTraj, t= 21.0
 47
    1UNL     C1    1  -0.357   0.095   0.202
    1UNL     C2    2  -0.328   0.086   0.053
    1UNL     C3    3  -0.172   0.075   0.022
    1UNL     C4    4  -0.149   0.090  -0.127
    1UNL     C5    5  -0.164  -0.013  -0.209
    1UNL     C6    6  -0.201  -0.147  -0.166
    1UNL     N1    7  -0.180  -0.171  -0.014
    1UNL     C7    8  -0.131  -0.304   0.017
    1UNL     C8    9   0.027  -0.315   0.013
    1UNL     C9   10   0.091  -0.181   0.015
    1UNL    C10   11   0.029  -0.062   0.049
    1UNL     N2   12   0.116   0.045   0.050
    1UNL    C11   13   0.236  -0.004   0.014
    1UNL    C12   14   0.367   0.059  -0.004
    1UNL    C13   15   0.480  -0.021  -0.027
    1UNL    C14   16   0.463  -0.158  -0.047
    1UNL    C15   17   0.343  -0.226  -0.038
    1UNL    C16   18   0.230  -0.145  -0.008
    1UNL    C17   19   0.063   0.182   0.055
    1UNL     O1   20   0.095   0.240  -0.072
    1UNL    C18   21   0.139   0.375  -0.066
    1UNL    C19   22  -0.086   0.193   0.091
    1UNL    C20   23  -0.118  -0.063   0.066
    1UNL     H1   24  -0.461   0.102   0.219
    1UNL     H2   25  -0.323   0.195   0.234
    1UNL     H3   26  -0.329   0.017   0.261
    1UNL     H4   27  -0.365   0.186   0.011
    1UNL     H5   28  -0.392  -0.003   0.014
    1UNL     H6   29  -0.125   0.193  -0.163
    1UNL     H7   30  -0.150  -0.011  -0.320
    1UNL     H8   31  -0.154  -0.226  -0.222
    1UNL     H9   32  -0.306  -0.172  -0.180
    1UNL    H10   33  -0.180  -0.375  -0.048
    1UNL    H11   34  -0.161  -0.331   0.120
    1UNL    H12   35   0.058  -0.383  -0.072
    1UNL    H13   36   0.064  -0.365   0.098
    1UNL    H14   37   0.388   0.158  -0.000
    1UNL    H15   38   0.583   0.014  -0.042
    1UNL    H16   39   0.549  -0.217  -0.070
    1UNL    H17   40   0.325  -0.330  -0.048
    1UNL    H18   41   0.122   0.224   0.142
    1UNL    H19   42   0.221   0.373   0.009
    1UNL    H20   43   0.180   0.409  -0.160
    1UNL    H21   44   0.053   0.432  -0.035
    1UNL    H22   45  -0.129   0.283   0.054
    1UNL    H23   46  -0.102   0.216   0.201
    1UNL    H24   47  -0.148  -0.074   0.170
   0.00000   0.00000   0.00000   0.00000   0.00000   0.00000   0.00000   0.00000   0.00000
Generated with MDTraj, t= 22.0
 47
    1UNL     C1    1  -0.337   0.097   0.197
    1UNL     C2    2  -0.310   0.114   0.053
    1UNL     C3    3  -0.160   0.080   0.011
    1UNL     C4    4  -0.161   0.086  -0.139
    1UNL     C5    5  -0.192  -0.020  -0.213
    1UNL     C6    6  -0.214  -0.154  -0.165
    1UNL     N1    7  -0.190  -0.182  -0.012
    1UNL     C7    8  -0.127  -0.310   0.024
    1UNL     C8    9   0.026  -0.318  -0.006
    1UNL     C9   10   0.095  -0.188   0.019
    1UNL    C10   11   0.031  -0.073   0.041
    1UNL     N2   12   0.118   0.036   0.049
    1UNL    C11   13   0.242  -0.009   0.029
    1UNL    C12   14   0.363   0.055   0.012
    1UNL    C13   15   0.474  -0.016  -0.028
    1UNL    C14   16   0.467  -0.156  -0.042
    1UNL    C15   17   0.348  -0.222  -0.030
    1UNL    C16   18   0.232  -0.149   0.008
    1UNL    C17   19   0.073   0.180   0.051
    1UNL     O1   20   0.102   0.252  -0.070
    1UNL    C18   21   0.109   0.390  -0.058
    1UNL    C19   22  -0.077   0.196   0.083
    1UNL    C20   23  -0.117  -0.065   0.062
    1UNL     H1   24  -0.433   0.131   0.219
    1UNL     H2   25  -0.278   0.166   0.262
    1UNL     H3   26  -0.336   0.000   0.236
    1UNL     H4   27  -0.343   0.215   0.007
    1UNL     H5   28  -0.369   0.028   0.004
    1UNL     H6   29  -0.109   0.160  -0.192
    1UNL     H7   30  -0.203  -0.007  -0.316
    1UNL     H8   31  -0.153  -0.227  -0.212
    1UNL     H9   32  -0.314  -0.190  -0.189
    1UNL    H10   33  -0.180  -0.395  -0.013
    1UNL    H11   34  -0.141  -0.315   0.133
    1UNL    H12   35   0.053  -0.340  -0.115
    1UNL    H13   36   0.077  -0.391   0.048
    1UNL    H14   37   0.375   0.166  -0.004
    1UNL    H15   38   0.573   0.017  -0.049
    1UNL    H16   39   0.548  -0.222  -0.076
    1UNL    H17   40   0.333  -0.328  -0.058
    1UNL    H18   41   0.138   0.225   0.134
    1UNL    H19   42   0.217   0.404  -0.035
    1UNL    H20   43   0.083   0.443  -0.148
    1UNL    H21   44   0.047   0.415   0.025
    1UNL    H22   45  -0.111   0.294   0.066
    1UNL    H23   46  -0.096   0.184   0.194
    1UNL    H24   47  -0.145  -0.080   0.166
   0.00000   0.00000   0.00000   0.00000   0.00000   0.00000   0.00000   0.00000   0.00000
Generated with MDTraj, t= 23.0
 47
    1UNL     C1    1  -0.363   0.094   0.204
    1UNL     C2    2  -0.320   0.097   0.055
    1UNL     C3    3  -0.171   0.082   0.022
    1UNL     C4    4  -0.145   0.084  -0.119
    1UNL     C5    5  -0.161  -0.013  -0.205
    1UNL     C6    6  -0.205  -0.146  -0.154
    1UNL     N1    7  -0.186  -0.178  -0.005
    1UNL     C7    8  -0.122  -0.312   0.021
    1UNL     C8    9   0.028  -0.317  -0.010
    1UNL     C9   10   0.090  -0.181   0.008
    1UNL    C10   11   0.024  -0.067   0.039
    1UNL     N2   12   0.111   0.036   0.044
    1UNL    C11   13   0.238  -0.010   0.011
    1UNL    C12   14   0.363   0.054  -0.006
    1UNL    C13   15   0.474  -0.022  -0.020
    1UNL    C14   16   0.464  -0.163  -0.033
    1UNL    C15   17   0.346  -0.229  -0.029
    1UNL    C16   18   0.233  -0.149  -0.004
    1UNL    C17   19   0.069   0.185   0.044
    1UNL     O1   20   0.100   0.251  -0.074
    1UNL    C18   21   0.117   0.391  -0.070
    1UNL    C19   22  -0.076   0.196   0.090
    1UNL    C20   23  -0.122  -0.061   0.066
    1UNL     H1   24  -0.466   0.087   0.209
    1UNL     H2   25  -0.329   0.185   0.256
    1UNL     H3   26  -0.321   0.009   0.257
    1UNL     H4   27  -0.368   0.191   0.006
    1UNL     H5   28  -0.354   0.004  -0.004
    1UNL     H6   29  -0.102   0.176  -0.164
    1UNL     H7   30  -0.130  -0.002  -0.313
    1UNL     H8   31  -0.170  -0.232  -0.207
    1UNL     H9   32  -0.315  -0.151  -0.165
    1UNL    H10   33  -0.179  -0.382  -0.034
    1UNL    H11   34  -0.141  -0.341   0.124
    1UNL    H12   35   0.052  -0.353  -0.116
    1UNL    H13   36   0.084  -0.385   0.046
    1UNL    H14   37   0.383   0.161  -0.001
    1UNL    H15   38   0.572   0.028  -0.026
    1UNL    H16   39   0.553  -0.222  -0.036
    1UNL    H17   40   0.328  -0.334  -0.047
    1UNL    H18   41   0.153   0.225   0.110
    1UNL    H19   42   0.205   0.424  -0.007
    1UNL    H20   43   0.147   0.419  -0.170
    1UNL    H21   44   0.030   0.445  -0.039
    1UNL    H22   45  -0.113   0.287   0.062
    1UNL    H23   46  -0.080   0.186   0.202
    1UNL    H24   47  -0.129  -0.070   0.175
   0.00000   0.00000   0.00000   0.00000   0.00000   0.00000   0.00000   0.00000   0.00000
Generated with MDTraj, t= 24.0
 47
    1UNL     C1    1  -0.360   0.096   0.205
    1UNL     C2    2  -0.326   0.107   0.053
    1UNL     C3    3  -0.176   0.083   0.021
    1UNL     C4    4  -0.161   0.094  -0.136
    1UNL     C5    5  -0.162  -0.017  -0.213
    1UNL     C6    6  -0.193  -0.158  -0.166
    1UNL     N1    7  -0.175  -0.168  -0.017
    1UNL     C7    8  -0.126  -0.299   0.033
    1UNL     C8    9   0.026  -0.317   0.015
    1UNL     C9   10   0.095  -0.183   0.014
    1UNL    C10   11   0.024  -0.068   0.044
    1UNL     N2   12   0.116   0.031   0.052
    1UNL    C11   13   0.242  -0.008   0.023
    1UNL    C12   14   0.362   0.059   0.004
    1UNL    C13   15   0.471  -0.021  -0.034
    1UNL    C14   16   0.464  -0.159  -0.053
    1UNL    C15   17   0.346  -0.228  -0.043
    1UNL    C16   18   0.237  -0.150   0.004
    1UNL    C17   19   0.067   0.178   0.051
    1UNL     O1   20   0.104   0.238  -0.077
    1UNL    C18   21   0.124   0.379  -0.056
    1UNL    C19   22  -0.091   0.189   0.088
    1UNL    C20   23  -0.122  -0.054   0.060
    1UNL     H1   24  -0.460   0.128   0.209
    1UNL     H2   25  -0.295   0.160   0.260
    1UNL     H3   26  -0.346  -0.006   0.247
    1UNL     H4   27  -0.332   0.213   0.003
    1UNL     H5   28  -0.395   0.036  -0.006
    1UNL     H6   29  -0.149   0.190  -0.183
    1UNL     H7   30  -0.145  -0.018  -0.315
    1UNL     H8   31  -0.118  -0.222  -0.209
    1UNL     H9   32  -0.292  -0.200  -0.193
    1UNL    H10   33  -0.176  -0.377  -0.019
    1UNL    H11   34  -0.158  -0.310   0.136
    1UNL    H12   35   0.043  -0.356  -0.091
    1UNL    H13   36   0.078  -0.384   0.077
    1UNL    H14   37   0.368   0.160   0.029
    1UNL    H15   38   0.568   0.019  -0.052
    1UNL    H16   39   0.556  -0.213  -0.080
    1UNL    H17   40   0.337  -0.335  -0.053
    1UNL    H18   41   0.132   0.237   0.122
    1UNL    H19   42   0.225   0.400  -0.012
    1UNL    H20   43   0.131   0.432  -0.151
    1UNL    H21   44   0.050   0.425   0.006
    1UNL    H22   45  -0.136   0.282   0.068
    1UNL    H23   46  -0.106   0.171   0.197
    1UNL    H24   47  -0.138  -0.067   0.168
   0.00000   0.00000   0.00000   0.00000   0.00000   0.00000   0.00000   0.00000   0.00000
Generated with MDTraj, t= 25.0
 47
    1UNL     C1    1  -0.350   0.097   0.204
    1UNL     C2    2  -0.320   0.099   0.058
    1UNL     C3    3  -0.169   0.088   0.012
    1UNL     C4    4  -0.167   0.098  -0.145
    1UNL     C5    5  -0.167  -0.013  -0.222
    1UNL     C6    6  -0.167  -0.159  -0.171
    1UNL     N1    7  -0.178  -0.171  -0.023
    1UNL     C7    8  -0.127  -0.305   0.024
    1UNL     C8    9   0.024  -0.317   0.016
    1UNL     C9   10   0.093  -0.184   0.037
    1UNL    C10   11   0.025  -0.069   0.065
    1UNL     N2   12   0.110   0.033   0.060
    1UNL    C11   13   0.235  -0.012   0.019
    1UNL    C12   14   0.352   0.058  -0.004
    1UNL    C13   15   0.458  -0.013  -0.050
    1UNL    C14   16   0.454  -0.157  -0.060
    1UNL    C15   17   0.339  -0.226  -0.030
    1UNL    C16   18   0.227  -0.152   0.009
    1UNL    C17   19   0.073   0.175   0.058
    1UNL     O1   20   0.119   0.241  -0.063
    1UNL    C18   21   0.121   0.384  -0.058
    1UNL    C19   22  -0.079   0.188   0.080
    1UNL    C20   23  -0.124  -0.058   0.061
    1UNL     H1   24  -0.455   0.121   0.225
    1UNL     H2   25  -0.281   0.154   0.257
    1UNL     H3   26  -0.326  -0.003   0.249
    1UNL     H4   27  -0.367   0.195   0.009
    1UNL     H5   28  -0.360   0.012  -0.007
    1UNL     H6   29  -0.158   0.197  -0.183
    1UNL     H7   30  -0.146   0.001  -0.332
    1UNL     H8   31  -0.090  -0.221  -0.214
    1UNL     H9   32  -0.265  -0.196  -0.207
    1UNL    H10   33  -0.176  -0.384  -0.025
    1UNL    H11   34  -0.151  -0.322   0.129
    1UNL    H12   35   0.056  -0.370  -0.077
    1UNL    H13   36   0.049  -0.388   0.094
    1UNL    H14   37   0.370   0.172   0.002
    1UNL    H15   38   0.549   0.039  -0.084
    1UNL    H16   39   0.537  -0.213  -0.095
    1UNL    H17   40   0.338  -0.337  -0.032
    1UNL    H18   41   0.133   0.222   0.136
    1UNL    H19   42   0.227   0.417  -0.076
    1UNL    H20   43   0.076   0.429  -0.146
    1UNL    H21   44   0.083   0.429   0.033
    1UNL    H22   45  -0.128   0.279   0.039
    1UNL    H23   46  -0.092   0.200   0.189
    1UNL    H24   47  -0.155  -0.075   0.166
   0.00000   0.00000   0.00000   0.00000   0.00000   0.00000   0.00000   0.00000   0.00000
Generated with MDTraj, t= 26.0
 47
    1UNL     C1    1  -0.367   0.099   0.191
    1UNL     C2    2  -0.314   0.098   0.051
    1UNL     C3    3  -0.161   0.087   0.026
    1UNL     C4    4  -0.148   0.093  -0.127
    1UNL     C5    5  -0.143  -0.007  -0.209
    1UNL     C6    6  -0.164  -0.140  -0.161
    1UNL     N1    7  -0.172  -0.171  -0.022
    1UNL     C7    8  -0.128  -0.310   0.015
    1UNL     C8    9   0.023  -0.320   0.027
    1UNL     C9   10   0.095  -0.188   0.039
    1UNL    C10   11   0.025  -0.072   0.055
    1UNL     N2   12   0.114   0.038   0.044
    1UNL    C11   13   0.232  -0.014   0.001
    1UNL    C12   14   0.356   0.047  -0.013
    1UNL    C13   15   0.470  -0.030  -0.047
    1UNL    C14   16   0.454  -0.169  -0.055
    1UNL    C15   17   0.338  -0.232  -0.023
    1UNL    C16   18   0.222  -0.151  -0.002
    1UNL    C17   19   0.073   0.182   0.048
    1UNL     O1   20   0.086   0.258  -0.073
    1UNL    C18   21   0.095   0.395  -0.057
    1UNL    C19   22  -0.073   0.188   0.099
    1UNL    C20   23  -0.119  -0.061   0.065
    1UNL     H1   24  -0.479   0.096   0.203
    1UNL     H2   25  -0.326   0.184   0.233
    1UNL     H3   26  -0.312   0.026   0.251
    1UNL     H4   27  -0.343   0.192  -0.014
    1UNL     H5   28  -0.356   0.007  -0.006
    1UNL     H6   29  -0.135   0.199  -0.159
    1UNL     H7   30  -0.142   0.024  -0.309
    1UNL     H8   31  -0.078  -0.194  -0.194
    1UNL     H9   32  -0.256  -0.179  -0.209
    1UNL    H10   33  -0.166  -0.391  -0.042
    1UNL    H11   34  -0.171  -0.335   0.112
    1UNL    H12   35   0.056  -0.385  -0.055
    1UNL    H13   36   0.043  -0.376   0.119
    1UNL    H14   37   0.356   0.149  -0.012
    1UNL    H15   38   0.558   0.022  -0.074
    1UNL    H16   39   0.549  -0.225  -0.072
    1UNL    H17   40   0.337  -0.335  -0.024
    1UNL    H18   41   0.146   0.230   0.111
    1UNL    H19   42   0.203   0.422  -0.057
    1UNL    H20   43   0.058   0.452  -0.143
    1UNL    H21   44   0.049   0.425   0.037
    1UNL    H22   45  -0.103   0.298   0.107
    1UNL    H23   46  -0.093   0.149   0.200
    1UNL    H24   47  -0.155  -0.092   0.165
   0.00000   0.00000   0.00000   0.00000   0.00000   0.00000   0.00000   0.00000   0.00000
Generated with MDTraj, t= 27.0
 47
    1UNL     C1    1  -0.358   0.099   0.202
    1UNL     C2    2  -0.319   0.112   0.052
    1UNL     C3    3  -0.171   0.081   0.020
    1UNL     C4    4  -0.149   0.095  -0.131
    1UNL     C5    5  -0.146  -0.012  -0.208
    1UNL     C6    6  -0.174  -0.157  -0.167
    1UNL     N1    7  -0.182  -0.168  -0.017
    1UNL     C7    8  -0.132  -0.299   0.028
    1UNL     C8    9   0.024  -0.322   0.008
    1UNL     C9   10   0.093  -0.190   0.019
    1UNL    C10   11   0.030  -0.068   0.048
    1UNL     N2   12   0.114   0.040   0.043
    1UNL    C11   13   0.245  -0.013   0.016
    1UNL    C12   14   0.365   0.050  -0.010
    1UNL    C13   15   0.471  -0.022  -0.050
    1UNL    C14   16   0.463  -0.166  -0.049
    1UNL    C15   17   0.341  -0.233  -0.022
    1UNL    C16   18   0.227  -0.155   0.007
    1UNL    C17   19   0.072   0.177   0.049
    1UNL     O1   20   0.098   0.249  -0.072
    1UNL    C18   21   0.083   0.389  -0.054
    1UNL    C19   22  -0.076   0.186   0.093
    1UNL    C20   23  -0.121  -0.058   0.066
    1UNL     H1   24  -0.462   0.130   0.231
    1UNL     H2   25  -0.282   0.160   0.244
    1UNL     H3   26  -0.323   0.006   0.239
    1UNL     H4   27  -0.335   0.225   0.027
    1UNL     H5   28  -0.383   0.047  -0.022
    1UNL     H6   29  -0.134   0.192  -0.161
    1UNL     H7   30  -0.121   0.015  -0.314
    1UNL     H8   31  -0.104  -0.224  -0.215
    1UNL     H9   32  -0.276  -0.178  -0.207
    1UNL    H10   33  -0.186  -0.373  -0.027
    1UNL    H11   34  -0.164  -0.328   0.130
    1UNL    H12   35   0.043  -0.367  -0.090
    1UNL    H13   36   0.056  -0.402   0.082
    1UNL    H14   37   0.360   0.161  -0.026
    1UNL    H15   38   0.563   0.028  -0.077
    1UNL    H16   39   0.555  -0.213  -0.070
    1UNL    H17   40   0.338  -0.345  -0.013
    1UNL    H18   41   0.139   0.208   0.128
    1UNL    H19   42   0.100   0.429   0.049
    1UNL    H20   43   0.158   0.436  -0.116
    1UNL    H21   44  -0.020   0.409  -0.083
    1UNL    H22   45  -0.123   0.293   0.073
    1UNL    H23   46  -0.079   0.185   0.201
    1UNL    H24   47  -0.147  -0.072   0.172
   0.00000   0.00000   0.00000   0.00000   0.00000   0.00000   0.00000   0.00000   0.00000
Generated with MDTraj, t= 28.0
 47
    1UNL     C1    1  -0.354   0.093   0.207
    1UNL     C2    2  -0.319   0.101   0.061
    1UNL     C3    3  -0.172   0.079   0.010
    1UNL     C4    4  -0.161   0.090  -0.139
    1UNL     C5    5  -0.177  -0.015  -0.218
    1UNL     C6    6  -0.221  -0.151  -0.163
    1UNL     N1    7  -0.185  -0.173  -0.017
    1UNL     C7    8  -0.126  -0.302   0.017
    1UNL     C8    9   0.031  -0.314   0.010
    1UNL     C9   10   0.097  -0.182   0.011
    1UNL    C10   11   0.031  -0.068   0.059
    1UNL     N2   12   0.120   0.041   0.064
    1UNL    C11   13   0.247  -0.008   0.034
    1UNL    C12   14   0.370   0.056   0.006
    1UNL    C13   15   0.478  -0.022  -0.035
    1UNL    C14   16   0.464  -0.161  -0.056
    1UNL    C15   17   0.345  -0.225  -0.043
    1UNL    C16   18   0.233  -0.149   0.008
    1UNL    C17   19   0.079   0.183   0.064
    1UNL     O1   20   0.129   0.237  -0.063
    1UNL    C18   21   0.102   0.376  -0.073
    1UNL    C19   22  -0.090   0.195   0.071
    1UNL    C20   23  -0.121  -0.054   0.059
    1UNL     H1   24  -0.461   0.112   0.226
    1UNL     H2   25  -0.300   0.158   0.277
    1UNL     H3   26  -0.331  -0.001   0.245
    1UNL     H4   27  -0.356   0.190  -0.004
    1UNL     H5   28  -0.367   0.001   0.018
    1UNL     H6   29  -0.136   0.196  -0.176
    1UNL     H7   30  -0.161  -0.011  -0.321
    1UNL     H8   31  -0.158  -0.219  -0.220
    1UNL     H9   32  -0.331  -0.167  -0.184
    1UNL    H10   33  -0.172  -0.379  -0.041
    1UNL    H11   34  -0.159  -0.331   0.118
    1UNL    H12   35   0.051  -0.359  -0.086
    1UNL    H13   36   0.078  -0.380   0.092
    1UNL    H14   37   0.371   0.164   0.019
    1UNL    H15   38   0.565   0.040  -0.053
    1UNL    H16   39   0.553  -0.226  -0.072
    1UNL    H17   40   0.340  -0.329  -0.056
    1UNL    H18   41   0.129   0.229   0.148
    1UNL    H19   42   0.074   0.418   0.025
    1UNL    H20   43   0.190   0.426  -0.112
    1UNL    H21   44   0.010   0.372  -0.131
    1UNL    H22   45  -0.118   0.297   0.024
    1UNL    H23   46  -0.124   0.219   0.173
    1UNL    H24   47  -0.150  -0.065   0.165
   0.00000   0.00000   0.00000   0.00000   0.00000   0.00000   0.00000   0.00000   0.00000
Generated with MDTraj, t= 29.0
 47
    1UNL     C1    1  -0.356   0.103   0.202
    1UNL     C2    2  -0.314   0.105   0.053
    1UNL     C3    3  -0.164   0.082   0.017
    1UNL     C4    4  -0.138   0.076  -0.126
    1UNL     C5    5  -0.172  -0.025  -0.201
    1UNL     C6    6  -0.219  -0.154  -0.148
    1UNL     N1    7  -0.195  -0.179  -0.003
    1UNL     C7    8  -0.126  -0.306   0.021
    1UNL     C8    9   0.021  -0.312  -0.033
    1UNL     C9   10   0.091  -0.187   0.010
    1UNL    C10   11   0.027  -0.069   0.049
    1UNL     N2   12   0.112   0.040   0.057
    1UNL    C11   13   0.241  -0.014   0.023
    1UNL    C12   14   0.362   0.056   0.018
    1UNL    C13   15   0.478  -0.014  -0.011
    1UNL    C14   16   0.470  -0.151  -0.040
    1UNL    C15   17   0.348  -0.214  -0.048
    1UNL    C16   18   0.232  -0.152  -0.005
    1UNL    C17   19   0.076   0.177   0.041
    1UNL     O1   20   0.090   0.244  -0.080
    1UNL    C18   21   0.122   0.377  -0.070
    1UNL    C19   22  -0.074   0.195   0.081
    1UNL    C20   23  -0.119  -0.059   0.067
    1UNL     H1   24  -0.459   0.138   0.210
    1UNL     H2   25  -0.290   0.166   0.267
    1UNL     H3   26  -0.340   0.008   0.239
    1UNL     H4   27  -0.336   0.214   0.019
    1UNL     H5   28  -0.379   0.028  -0.009
    1UNL     H6   29  -0.096   0.160  -0.169
    1UNL     H7   30  -0.145  -0.021  -0.310
    1UNL     H8   31  -0.173  -0.238  -0.198
    1UNL     H9   32  -0.332  -0.156  -0.153
    1UNL    H10   33  -0.181  -0.395  -0.006
    1UNL    H11   34  -0.125  -0.314   0.133
    1UNL    H12   35   0.025  -0.320  -0.140
    1UNL    H13   36   0.075  -0.404   0.015
    1UNL    H14   37   0.362   0.156   0.050
    1UNL    H15   38   0.576   0.030  -0.012
    1UNL    H16   39   0.562  -0.201  -0.045
    1UNL    H17   40   0.342  -0.323  -0.069
    1UNL    H18   41   0.142   0.236   0.106
    1UNL    H19   42   0.221   0.402  -0.031
    1UNL    H20   43   0.124   0.399  -0.177
    1UNL    H21   44   0.038   0.419  -0.013
    1UNL    H22   45  -0.108   0.298   0.054
    1UNL    H23   46  -0.081   0.209   0.191
    1UNL    H24   47  -0.135  -0.068   0.176
   0.00000   0.00000   0.00000   0.00000   0.00000   0.00000   0.00000   0.00000   0.00000
Generated with MDTraj, t= 30.0
 47
    1UNL     C1    1  -0.361   0.103   0.200
    1UNL     C2    2  -0.315   0.098   0.053
    1UNL     C3    3  -0.164   0.077   0.026
    1UNL     C4    4  -0.158   0.083  -0.126
    1UNL     C5    5  -0.190  -0.017  -0.203
    1UNL     C6    6  -0.214  -0.152  -0.159
    1UNL     N1    7  -0.177  -0.175  -0.019
    1UNL     C7    8  -0.125  -0.302   0.016
    1UNL     C8    9   0.024  -0.315  -0.009
    1UNL     C9   10   0.096  -0.187   0.017
    1UNL    C10   11   0.028  -0.072   0.044
    1UNL     N2   12   0.114   0.042   0.048
    1UNL    C11   13   0.243  -0.007   0.014
    1UNL    C12   14   0.368   0.055   0.008
    1UNL    C13   15   0.476  -0.023  -0.017
    1UNL    C14   16   0.470  -0.160  -0.038
    1UNL    C15   17   0.347  -0.219  -0.035
    1UNL    C16   18   0.233  -0.148  -0.000
    1UNL    C17   19   0.073   0.178   0.051
    1UNL     O1   20   0.093   0.245  -0.079
    1UNL    C18   21   0.129   0.382  -0.069
    1UNL    C19   22  -0.081   0.193   0.083
    1UNL    C20   23  -0.113  -0.061   0.071
    1UNL     H1   24  -0.465   0.086   0.199
    1UNL     H2   25  -0.346   0.199   0.254
    1UNL     H3   26  -0.310   0.029   0.260
    1UNL     H4   27  -0.345   0.201   0.007
    1UNL     H5   28  -0.369   0.014  -0.005
    1UNL     H6   29  -0.121   0.173  -0.175
    1UNL     H7   30  -0.204   0.001  -0.306
    1UNL     H8   31  -0.158  -0.229  -0.209
    1UNL     H9   32  -0.324  -0.178  -0.160
    1UNL    H10   33  -0.184  -0.376  -0.038
    1UNL    H11   34  -0.147  -0.326   0.124
    1UNL    H12   35   0.056  -0.353  -0.104
    1UNL    H13   36   0.066  -0.379   0.079
    1UNL    H14   37   0.369   0.169   0.004
    1UNL    H15   38   0.571   0.028  -0.029
    1UNL    H16   39   0.554  -0.223  -0.073
    1UNL    H17   40   0.333  -0.324  -0.055
    1UNL    H18   41   0.136   0.234   0.124
    1UNL    H19   42   0.235   0.389  -0.048
    1UNL    H20   43   0.110   0.433  -0.163
    1UNL    H21   44   0.073   0.420   0.017
    1UNL    H22   45  -0.114   0.292   0.058
    1UNL    H23   46  -0.092   0.195   0.195
    1UNL    H24   47  -0.135  -0.080   0.178
   0.00000   0.00000   0.00000   0.00000   0.00000   0.00000   0.00000   0.00000   0.00000
Generated with MDTraj, t= 31.0
 47
    1UNL     C1    1  -0.335   0.096   0.224
    1UNL     C2    2  -0.316   0.104   0.076
    1UNL     C3    3  -0.172   0.084   0.019
    1UNL     C4    4  -0.171   0.092  -0.138
    1UNL     C5    5  -0.170  -0.016  -0.219
    1UNL     C6    6  -0.160  -0.161  -0.174
    1UNL     N1    7  -0.182  -0.175  -0.033
    1UNL     C7    8  -0.135  -0.304   0.019
    1UNL     C8    9   0.022  -0.319   0.012
    1UNL     C9   10   0.089  -0.188   0.022
    1UNL    C10   11   0.025  -0.068   0.048
    1UNL     N2   12   0.106   0.044   0.046
    1UNL    C11   13   0.237  -0.003   0.013
    1UNL    C12   14   0.363   0.059  -0.010
    1UNL    C13   15   0.465  -0.021  -0.043
    1UNL    C14   16   0.455  -0.163  -0.043
    1UNL    C15   17   0.343  -0.232  -0.011
    1UNL    C16   18   0.232  -0.148   0.006
    1UNL    C17   19   0.067   0.179   0.056
    1UNL     O1   20   0.107   0.245  -0.070
    1UNL    C18   21   0.121   0.387  -0.058
    1UNL    C19   22  -0.081   0.191   0.075
    1UNL    C20   23  -0.122  -0.060   0.055
    1UNL     H1   24  -0.435   0.114   0.246
    1UNL     H2   25  -0.283   0.162   0.293
    1UNL     H3   26  -0.313  -0.005   0.269
    1UNL     H4   27  -0.353   0.203   0.030
    1UNL     H5   28  -0.376   0.020   0.028
    1UNL     H6   29  -0.158   0.189  -0.190
    1UNL     H7   30  -0.168  -0.016  -0.330
    1UNL     H8   31  -0.065  -0.209  -0.201
    1UNL     H9   32  -0.250  -0.218  -0.213
    1UNL    H10   33  -0.174  -0.389  -0.039
    1UNL    H11   34  -0.188  -0.318   0.118
    1UNL    H12   35   0.046  -0.363  -0.083
    1UNL    H13   36   0.065  -0.389   0.093
    1UNL    H14   37   0.361   0.160  -0.023
    1UNL    H15   38   0.547   0.029  -0.092
    1UNL    H16   39   0.543  -0.218  -0.061
    1UNL    H17   40   0.336  -0.339  -0.012
    1UNL    H18   41   0.122   0.232   0.140
    1UNL    H19   42   0.152   0.409   0.044
    1UNL    H20   43   0.197   0.424  -0.127
    1UNL    H21   44   0.026   0.442  -0.065
    1UNL    H22   45  -0.102   0.278   0.016
    1UNL    H23   46  -0.111   0.228   0.177
    1UNL    H24   47  -0.160  -0.086   0.157
   0.00000   0.00000   0.00000   0.00000   0.00000   0.00000   0.00000   0.00000   0.00000
Generated with MDTraj, t= 32.0
 47
    1UNL     C1    1  -0.364   0.099   0.225
    1UNL     C2    2  -0.323   0.094   0.068
    1UNL     C3    3  -0.177   0.087   0.021
    1UNL     C4    4  -0.164   0.097  -0.128
    1UNL     C5    5  -0.158  -0.001  -0.223
    1UNL     C6    6  -0.130  -0.144  -0.172
    1UNL     N1    7  -0.172  -0.169  -0.035
    1UNL     C7    8  -0.134  -0.300   0.019
    1UNL     C8    9   0.016  -0.316   0.037
    1UNL     C9   10   0.089  -0.187   0.032
    1UNL    C10   11   0.023  -0.071   0.050
    1UNL     N2   12   0.114   0.035   0.037
    1UNL    C11   13   0.241  -0.013   0.006
    1UNL    C12   14   0.367   0.048  -0.014
    1UNL    C13   15   0.466  -0.034  -0.056
    1UNL    C14   16   0.464  -0.171  -0.058
    1UNL    C15   17   0.346  -0.230  -0.019
    1UNL    C16   18   0.230  -0.158   0.007
    1UNL    C17   19   0.069   0.177   0.051
    1UNL     O1   20   0.107   0.248  -0.072
    1UNL    C18   21   0.089   0.385  -0.058
    1UNL    C19   22  -0.081   0.196   0.083
    1UNL    C20   23  -0.123  -0.056   0.060
    1UNL     H1   24  -0.462   0.137   0.227
    1UNL     H2   25  -0.305   0.166   0.281
    1UNL     H3   26  -0.358  -0.003   0.274
    1UNL     H4   27  -0.360   0.199   0.038
    1UNL     H5   28  -0.385   0.018   0.016
    1UNL     H6   29  -0.190   0.194  -0.158
    1UNL     H7   30  -0.161   0.018  -0.327
    1UNL     H8   31  -0.022  -0.157  -0.168
    1UNL     H9   32  -0.179  -0.223  -0.235
    1UNL    H10   33  -0.172  -0.373  -0.056
    1UNL    H11   34  -0.199  -0.330   0.107
    1UNL    H12   35   0.060  -0.384  -0.036
    1UNL    H13   36   0.033  -0.367   0.139
    1UNL    H14   37   0.367   0.160  -0.009
    1UNL    H15   38   0.564   0.010  -0.074
    1UNL    H16   39   0.556  -0.230  -0.072
    1UNL    H17   40   0.337  -0.336   0.011
    1UNL    H18   41   0.132   0.227   0.133
    1UNL    H19   42   0.124   0.425   0.037
    1UNL    H20   43   0.147   0.439  -0.135
    1UNL    H21   44  -0.016   0.420  -0.061
    1UNL    H22   45  -0.122   0.287   0.050
    1UNL    H23   46  -0.095   0.204   0.194
    1UNL    H24   47  -0.161  -0.076   0.163
   0.00000   0.00000   0.00000   0.00000   0.00000   0.00000   0.00000   0.00000   0.00000
Generated with MDTraj, t= 33.0
 47
    1UNL     C1    1  -0.353   0.103   0.205
    1UNL     C2    2  -0.313   0.101   0.054
    1UNL     C3    3  -0.162   0.083   0.031
    1UNL     C4    4  -0.136   0.093  -0.123
    1UNL     C5    5  -0.137  -0.000  -0.218
    1UNL     C6    6  -0.166  -0.140  -0.173
    1UNL     N1    7  -0.173  -0.161  -0.028
    1UNL     C7    8  -0.132  -0.303   0.007
    1UNL     C8    9   0.028  -0.313   0.007
    1UNL     C9   10   0.093  -0.190   0.042
    1UNL    C10   11   0.032  -0.073   0.064
    1UNL     N2   12   0.113   0.038   0.052
    1UNL    C11   13   0.237  -0.018   0.019
    1UNL    C12   14   0.358   0.050  -0.015
    1UNL    C13   15   0.461  -0.028  -0.056
    1UNL    C14   16   0.450  -0.169  -0.059
    1UNL    C15   17   0.339  -0.234  -0.018
    1UNL    C16   18   0.230  -0.156   0.021
    1UNL    C17   19   0.066   0.177   0.045
    1UNL     O1   20   0.087   0.244  -0.079
    1UNL    C18   21   0.066   0.381  -0.071
    1UNL    C19   22  -0.072   0.191   0.098
    1UNL    C20   23  -0.115  -0.058   0.072
    1UNL     H1   24  -0.459   0.118   0.219
    1UNL     H2   25  -0.313   0.179   0.263
    1UNL     H3   26  -0.328   0.012   0.261
    1UNL     H4   27  -0.344   0.194  -0.008
    1UNL     H5   28  -0.370   0.021   0.008
    1UNL     H6   29  -0.110   0.200  -0.146
    1UNL     H7   30  -0.116   0.028  -0.321
    1UNL     H8   31  -0.085  -0.208  -0.202
    1UNL     H9   32  -0.265  -0.175  -0.212
    1UNL    H10   33  -0.180  -0.381  -0.057
    1UNL    H11   34  -0.185  -0.326   0.104
    1UNL    H12   35   0.062  -0.353  -0.091
    1UNL    H13   36   0.063  -0.387   0.085
    1UNL    H14   37   0.368   0.157  -0.003
    1UNL    H15   38   0.556   0.012  -0.083
    1UNL    H16   39   0.534  -0.235  -0.073
    1UNL    H17   40   0.343  -0.338  -0.006
    1UNL    H18   41   0.125   0.247   0.113
    1UNL    H19   42   0.141   0.436  -0.018
    1UNL    H20   43   0.074   0.412  -0.177
    1UNL    H21   44  -0.032   0.417  -0.033
    1UNL    H22   45  -0.112   0.285   0.086
    1UNL    H23   46  -0.079   0.170   0.209
    1UNL    H24   47  -0.146  -0.069   0.178
   0.00000   0.00000   0.00000   0.00000   0.00000   0.00000   0.00000   0.00000   0.00000
Generated with MDTraj, t= 34.0
 47
    1UNL     C1    1  -0.355   0.109   0.192
    1UNL     C2    2  -0.313   0.113   0.050
    1UNL     C3    3  -0.163   0.087   0.021
    1UNL     C4    4  -0.155   0.093  -0.133
    1UNL     C5    5  -0.168  -0.014  -0.211
    1UNL     C6    6  -0.191  -0.155  -0.159
    1UNL     N1    7  -0.182  -0.175  -0.012
    1UNL     C7    8  -0.126  -0.301   0.027
    1UNL     C8    9   0.024  -0.314  -0.002
    1UNL     C9   10   0.092  -0.187   0.012
    1UNL    C10   11   0.029  -0.075   0.064
    1UNL     N2   12   0.121   0.033   0.068
    1UNL    C11   13   0.238  -0.011   0.019
    1UNL    C12   14   0.360   0.061   0.009
    1UNL    C13   15   0.470  -0.012  -0.025
    1UNL    C14   16   0.461  -0.151  -0.053
    1UNL    C15   17   0.338  -0.218  -0.055
    1UNL    C16   18   0.225  -0.154  -0.008
    1UNL    C17   19   0.073   0.176   0.060
    1UNL     O1   20   0.107   0.220  -0.076
    1UNL    C18   21   0.101   0.368  -0.073
    1UNL    C19   22  -0.073   0.195   0.093
    1UNL    C20   23  -0.118  -0.061   0.073
    1UNL     H1   24  -0.465   0.116   0.195
    1UNL     H2   25  -0.327   0.182   0.263
    1UNL     H3   26  -0.335   0.016   0.235
    1UNL     H4   27  -0.353   0.205  -0.003
    1UNL     H5   28  -0.351   0.025  -0.002
    1UNL     H6   29  -0.120   0.181  -0.175
    1UNL     H7   30  -0.152   0.009  -0.316
    1UNL     H8   31  -0.121  -0.224  -0.208
    1UNL     H9   32  -0.297  -0.179  -0.183
    1UNL    H10   33  -0.175  -0.382  -0.033
    1UNL    H11   34  -0.160  -0.326   0.132
    1UNL    H12   35   0.042  -0.346  -0.109
    1UNL    H13   36   0.064  -0.389   0.071
    1UNL    H14   37   0.369   0.164   0.020
    1UNL    H15   38   0.559   0.039  -0.056
    1UNL    H16   39   0.553  -0.203  -0.077
    1UNL    H17   40   0.336  -0.322  -0.093
    1UNL    H18   41   0.133   0.226   0.141
    1UNL    H19   42   0.134   0.409   0.019
    1UNL    H20   43   0.156   0.414  -0.157
    1UNL    H21   44  -0.004   0.400  -0.092
    1UNL    H22   45  -0.112   0.285   0.057
    1UNL    H23   46  -0.089   0.187   0.204
    1UNL    H24   47  -0.152  -0.062   0.178
   0.00000   0.00000   0.00000   0.00000   0.00000   0.00000   0.00000   0.00000   0.00000
Generated with MDTraj, t= 35.0
 47
    1UNL     C1    1  -0.354   0.099   0.203
    1UNL     C2    2  -0.323   0.094   0.051
    1UNL     C3    3  -0.171   0.085   0.009
    1UNL     C4    4  -0.154   0.077  -0.143
    1UNL     C5    5  -0.170  -0.038  -0.207
    1UNL     C6    6  -0.229  -0.154  -0.137
    1UNL     N1    7  -0.187  -0.180  -0.001
    1UNL     C7    8  -0.122  -0.308   0.028
    1UNL     C8    9   0.029  -0.311  -0.023
    1UNL     C9   10   0.094  -0.181   0.008
    1UNL    C10   11   0.031  -0.066   0.042
    1UNL     N2   12   0.116   0.034   0.073
    1UNL    C11   13   0.243  -0.009   0.033
    1UNL    C12   14   0.370   0.054   0.025
    1UNL    C13   15   0.479  -0.016  -0.024
    1UNL    C14   16   0.460  -0.155  -0.054
    1UNL    C15   17   0.339  -0.221  -0.058
    1UNL    C16   18   0.229  -0.144   0.000
    1UNL    C17   19   0.075   0.182   0.050
    1UNL     O1   20   0.117   0.241  -0.074
    1UNL    C18   21   0.122   0.387  -0.058
    1UNL    C19   22  -0.076   0.200   0.071
    1UNL    C20   23  -0.123  -0.052   0.064
    1UNL     H1   24  -0.463   0.118   0.207
    1UNL     H2   25  -0.310   0.185   0.248
    1UNL     H3   26  -0.325   0.012   0.245
    1UNL     H4   27  -0.342   0.199   0.015
    1UNL     H5   28  -0.388   0.020   0.005
    1UNL     H6   29  -0.120   0.168  -0.198
    1UNL     H7   30  -0.153  -0.046  -0.310
    1UNL     H8   31  -0.198  -0.240  -0.199
    1UNL     H9   32  -0.339  -0.139  -0.136
    1UNL    H10   33  -0.185  -0.389  -0.017
    1UNL    H11   34  -0.128  -0.330   0.138
    1UNL    H12   35   0.020  -0.325  -0.138
    1UNL    H13   36   0.088  -0.391   0.026
    1UNL    H14   37   0.374   0.168   0.028
    1UNL    H15   38   0.577   0.027  -0.047
    1UNL    H16   39   0.550  -0.208  -0.090
    1UNL    H17   40   0.330  -0.321  -0.087
    1UNL    H18   41   0.131   0.231   0.130
    1UNL    H19   42   0.147   0.409   0.043
    1UNL    H20   43   0.187   0.433  -0.132
    1UNL    H21   44   0.026   0.432  -0.095
    1UNL    H22   45  -0.087   0.289   0.007
    1UNL    H23   46  -0.110   0.211   0.177
    1UNL    H24   47  -0.150  -0.051   0.171
   0.00000   0.00000   0.00000   0.00000   0.00000   0.00000   0.00000   0.00000   0.00000
Generated with MDTraj, t= 36.0
 47
    1UNL     C1    1  -0.369   0.104   0.195
    1UNL     C2    2  -0.321   0.102   0.047
    1UNL     C3    3  -0.171   0.077   0.012
    1UNL     C4    4  -0.154   0.073  -0.136
    1UNL     C5    5  -0.178  -0.035  -0.209
    1UNL     C6    6  -0.232  -0.151  -0.137
    1UNL     N1    7  -0.184  -0.178   0.004
    1UNL     C7    8  -0.125  -0.305   0.031
    1UNL     C8    9   0.022  -0.318  -0.016
    1UNL     C9   10   0.094  -0.185  -0.000
    1UNL    C10   11   0.028  -0.069   0.036
    1UNL     N2   12   0.119   0.032   0.042
    1UNL    C11   13   0.241  -0.012   0.016
    1UNL    C12   14   0.357   0.063  -0.008
    1UNL    C13   15   0.473  -0.014  -0.031
    1UNL    C14   16   0.476  -0.158  -0.038
    1UNL    C15   17   0.355  -0.221  -0.030
    1UNL    C16   18   0.231  -0.154  -0.003
    1UNL    C17   19   0.073   0.179   0.044
    1UNL     O1   20   0.123   0.259  -0.065
    1UNL    C18   21   0.130   0.396  -0.036
    1UNL    C19   22  -0.079   0.190   0.078
    1UNL    C20   23  -0.115  -0.059   0.068
    1UNL     H1   24  -0.469   0.146   0.200
    1UNL     H2   25  -0.311   0.160   0.264
    1UNL     H3   26  -0.365   0.005   0.223
    1UNL     H4   27  -0.342   0.206   0.007
    1UNL     H5   28  -0.374   0.038  -0.021
    1UNL     H6   29  -0.129   0.168  -0.177
    1UNL     H7   30  -0.157  -0.042  -0.322
    1UNL     H8   31  -0.214  -0.243  -0.195
    1UNL     H9   32  -0.341  -0.135  -0.125
    1UNL    H10   33  -0.183  -0.390  -0.015
    1UNL    H11   34  -0.141  -0.316   0.140
    1UNL    H12   35   0.037  -0.350  -0.128
    1UNL    H13   36   0.066  -0.389   0.055
    1UNL    H14   37   0.361   0.164  -0.029
    1UNL    H15   38   0.561   0.042  -0.055
    1UNL    H16   39   0.566  -0.211  -0.024
    1UNL    H17   40   0.352  -0.330  -0.031
    1UNL    H18   41   0.127   0.208   0.132
    1UNL    H19   42   0.217   0.409   0.024
    1UNL    H20   43   0.121   0.445  -0.133
    1UNL    H21   44   0.031   0.421   0.009
    1UNL    H22   45  -0.110   0.293   0.043
    1UNL    H23   46  -0.078   0.180   0.188
    1UNL    H24   47  -0.131  -0.067   0.178
   0.00000   0.00000   0.00000   0.00000   0.00000   0.00000   0.00000   0.00000   0.00000
Generated with MDTraj, t= 37.0
 47
    1UNL     C1    1  -0.353   0.095   0.197
    1UNL     C2    2  -0.325   0.088   0.052
    1UNL     C3    3  -0.172   0.084   0.012
    1UNL     C4    4  -0.162   0.088  -0.139
    1UNL     C5    5  -0.161  -0.024  -0.213
    1UNL     C6    6  -0.182  -0.166  -0.166
    1UNL     N1    7  -0.186  -0.176  -0.016
    1UNL     C7    8  -0.131  -0.303   0.039
    1UNL     C8    9   0.028  -0.317   0.025
    1UNL     C9   10   0.095  -0.184   0.019
    1UNL    C10   11   0.033  -0.062   0.052
    1UNL     N2   12   0.113   0.047   0.040
    1UNL    C11   13   0.235  -0.010   0.006
    1UNL    C12   14   0.354   0.054  -0.017
    1UNL    C13   15   0.467  -0.026  -0.046
    1UNL    C14   16   0.456  -0.170  -0.049
    1UNL    C15   17   0.337  -0.234  -0.035
    1UNL    C16   18   0.227  -0.148  -0.003
    1UNL    C17   19   0.067   0.187   0.049
    1UNL     O1   20   0.094   0.272  -0.064
    1UNL    C18   21   0.152   0.400  -0.030
    1UNL    C19   22  -0.084   0.186   0.083
    1UNL    C20   23  -0.120  -0.056   0.060
    1UNL     H1   24  -0.456   0.103   0.212
    1UNL     H2   25  -0.313   0.169   0.260
    1UNL     H3   26  -0.326  -0.004   0.236
    1UNL     H4   27  -0.368   0.163  -0.018
    1UNL     H5   28  -0.354  -0.012   0.022
    1UNL     H6   29  -0.113   0.173  -0.185
    1UNL     H7   30  -0.138  -0.010  -0.310
    1UNL     H8   31  -0.098  -0.232  -0.192
    1UNL     H9   32  -0.276  -0.214  -0.197
    1UNL    H10   33  -0.202  -0.384   0.002
    1UNL    H11   34  -0.150  -0.301   0.147
    1UNL    H12   35   0.047  -0.370  -0.078
    1UNL    H13   36   0.080  -0.371   0.106
    1UNL    H14   37   0.366   0.164  -0.021
    1UNL    H15   38   0.568   0.011  -0.066
    1UNL    H16   39   0.550  -0.231  -0.043
    1UNL    H17   40   0.333  -0.341  -0.016
    1UNL    H18   41   0.117   0.223   0.135
    1UNL    H19   42   0.241   0.376   0.025
    1UNL    H20   43   0.161   0.463  -0.119
    1UNL    H21   44   0.070   0.448   0.029
    1UNL    H22   45  -0.119   0.295   0.063
    1UNL    H23   46  -0.080   0.161   0.190
    1UNL    H24   47  -0.137  -0.066   0.170
   0.00000   0.00000   0.00000   0.00000   0.00000   0.00000   0.00000   0.00000   0.00000
Generated with MDTraj, t= 38.0
 47
    1UNL     C1    1  -0.362   0.104   0.204
    1UNL     C2    2  -0.322   0.106   0.053
    1UNL     C3    3  -0.173   0.080   0.014
    1UNL     C4    4  -0.159   0.092  -0.135
    1UNL     C5    5  -0.154  -0.012  -0.218
    1UNL     C6    6  -0.136  -0.153  -0.172
    1UNL     N1    7  -0.171  -0.175  -0.024
    1UNL     C7    8  -0.125  -0.306   0.031
    1UNL     C8    9   0.022  -0.325   0.034
    1UNL     C9   10   0.090  -0.191   0.045
    1UNL    C10   11   0.020  -0.073   0.075
    1UNL     N2   12   0.109   0.038   0.054
    1UNL    C11   13   0.225  -0.014   0.005
    1UNL    C12   14   0.342   0.055  -0.024
    1UNL    C13   15   0.455  -0.015  -0.065
    1UNL    C14   16   0.454  -0.155  -0.069
    1UNL    C15   17   0.339  -0.224  -0.036
    1UNL    C16   18   0.222  -0.156   0.012
    1UNL    C17   19   0.071   0.180   0.053
    1UNL     O1   20   0.107   0.247  -0.066
    1UNL    C18   21   0.141   0.384  -0.038
    1UNL    C19   22  -0.082   0.192   0.077
    1UNL    C20   23  -0.131  -0.061   0.060
    1UNL     H1   24  -0.462   0.118   0.213
    1UNL     H2   25  -0.313   0.176   0.261
    1UNL     H3   26  -0.331   0.003   0.241
    1UNL     H4   27  -0.332   0.212   0.027
    1UNL     H5   28  -0.387   0.041  -0.007
    1UNL     H6   29  -0.187   0.188  -0.178
    1UNL     H7   30  -0.173   0.003  -0.331
    1UNL     H8   31  -0.031  -0.188  -0.180
    1UNL     H9   32  -0.202  -0.218  -0.231
    1UNL    H10   33  -0.159  -0.385  -0.041
    1UNL    H11   34  -0.184  -0.320   0.122
    1UNL    H12   35   0.065  -0.373  -0.065
    1UNL    H13   36   0.048  -0.387   0.122
    1UNL    H14   37   0.348   0.166  -0.024
    1UNL    H15   38   0.543   0.038  -0.098
    1UNL    H16   39   0.538  -0.207  -0.097
    1UNL    H17   40   0.332  -0.330  -0.020
    1UNL    H18   41   0.128   0.222   0.132
    1UNL    H19   42   0.219   0.377   0.036
    1UNL    H20   43   0.167   0.445  -0.126
    1UNL    H21   44   0.048   0.433   0.003
    1UNL    H22   45  -0.121   0.299   0.051
    1UNL    H23   46  -0.087   0.175   0.186
    1UNL    H24   47  -0.174  -0.078   0.162
   0.00000   0.00000   0.00000   0.00000   0.00000   0.00000   0.00000   0.00000   0.00000
Generated with MDTraj, t= 39.0
 47
    1UNL     C1    1  -0.371   0.096   0.199
    1UNL     C2    2  -0.326   0.103   0.047
    1UNL     C3    3  -0.174   0.082   0.023
    1UNL     C4    4  -0.145   0.098  -0.126
    1UNL     C5    5  -0.131  -0.003  -0.212
    1UNL     C6    6  -0.154  -0.143  -0.172
    1UNL     N1    7  -0.165  -0.160  -0.033
    1UNL     C7    8  -0.128  -0.301   0.018
    1UNL     C8    9   0.026  -0.321   0.029
    1UNL     C9   10   0.092  -0.192   0.051
    1UNL    C10   11   0.030  -0.071   0.070
    1UNL     N2   12   0.113   0.037   0.061
    1UNL    C11   13   0.238  -0.010   0.023
    1UNL    C12   14   0.356   0.050  -0.017
    1UNL    C13   15   0.457  -0.020  -0.077
    1UNL    C14   16   0.442  -0.161  -0.075
    1UNL    C15   17   0.335  -0.231  -0.029
    1UNL    C16   18   0.231  -0.153   0.024
    1UNL    C17   19   0.068   0.180   0.057
    1UNL     O1   20   0.101   0.236  -0.071
    1UNL    C18   21   0.105   0.372  -0.063
    1UNL    C19   22  -0.084   0.191   0.091
    1UNL    C20   23  -0.121  -0.057   0.068
    1UNL     H1   24  -0.469   0.075   0.219
    1UNL     H2   25  -0.346   0.179   0.260
    1UNL     H3   26  -0.312   0.016   0.246
    1UNL     H4   27  -0.338   0.207   0.018
    1UNL     H5   28  -0.386   0.038  -0.017
    1UNL     H6   29  -0.135   0.198  -0.163
    1UNL     H7   30  -0.089   0.009  -0.307
    1UNL     H8   31  -0.066  -0.201  -0.205
    1UNL     H9   32  -0.249  -0.175  -0.214
    1UNL    H10   33  -0.182  -0.373  -0.049
    1UNL    H11   34  -0.170  -0.319   0.116
    1UNL    H12   35   0.059  -0.366  -0.072
    1UNL    H13   36   0.053  -0.390   0.111
    1UNL    H14   37   0.365   0.151  -0.026
    1UNL    H15   38   0.528   0.028  -0.142
    1UNL    H16   39   0.529  -0.224  -0.106
    1UNL    H17   40   0.318  -0.337  -0.047
    1UNL    H18   41   0.130   0.238   0.124
    1UNL    H19   42   0.172   0.393   0.018
    1UNL    H20   43   0.143   0.422  -0.154
    1UNL    H21   44   0.006   0.417  -0.038
    1UNL    H22   45  -0.126   0.286   0.044
    1UNL    H23   46  -0.107   0.201   0.199
    1UNL    H24   47  -0.161  -0.094   0.166
   0.00000   0.00000   0.00000   0.00000   0.00000   0.00000   0.00000   0.00000   0.00000
Generated with MDTraj, t= 40.0
 47
    1UNL     C1    1  -0.365   0.101   0.189
    1UNL     C2    2  -0.313   0.114   0.052
    1UNL     C3    3  -0.163   0.087   0.026
    1UNL     C4    4  -0.141   0.098  -0.130
    1UNL     C5    5  -0.140  -0.010  -0.208
    1UNL     C6    6  -0.167  -0.152  -0.161
    1UNL     N1    7  -0.187  -0.168  -0.013
    1UNL     C7    8  -0.131  -0.303   0.027
    1UNL     C8    9   0.017  -0.313   0.006
    1UNL     C9   10   0.090  -0.184   0.018
    1UNL    C10   11   0.029  -0.070   0.061
    1UNL     N2   12   0.118   0.038   0.054
    1UNL    C11   13   0.240  -0.011   0.013
    1UNL    C12   14   0.367   0.049  -0.000
    1UNL    C13   15   0.471  -0.028  -0.041
    1UNL    C14   16   0.461  -0.162  -0.062
    1UNL    C15   17   0.340  -0.226  -0.043
    1UNL    C16   18   0.228  -0.151  -0.000
    1UNL    C17   19   0.074   0.178   0.060
    1UNL     O1   20   0.098   0.234  -0.069
    1UNL    C18   21   0.072   0.369  -0.072
    1UNL    C19   22  -0.080   0.195   0.096
    1UNL    C20   23  -0.116  -0.059   0.071
    1UNL     H1   24  -0.464   0.137   0.209
    1UNL     H2   25  -0.309   0.139   0.269
    1UNL     H3   26  -0.372  -0.002   0.212
    1UNL     H4   27  -0.341   0.208   0.008
    1UNL     H5   28  -0.359   0.029  -0.008
    1UNL     H6   29  -0.105   0.194  -0.164
    1UNL     H7   30  -0.117   0.006  -0.314
    1UNL     H8   31  -0.084  -0.216  -0.197
    1UNL     H9   32  -0.259  -0.189  -0.202
    1UNL    H10   33  -0.185  -0.392  -0.013
    1UNL    H11   34  -0.150  -0.305   0.132
    1UNL    H12   35   0.050  -0.371  -0.083
    1UNL    H13   36   0.052  -0.363   0.101
    1UNL    H14   37   0.368   0.163  -0.001
    1UNL    H15   38   0.570   0.013  -0.052
    1UNL    H16   39   0.539  -0.224  -0.092
    1UNL    H17   40   0.320  -0.329  -0.051
    1UNL    H18   41   0.148   0.231   0.121
    1UNL    H19   42   0.145   0.420  -0.010
    1UNL    H20   43   0.089   0.404  -0.173
    1UNL    H21   44  -0.021   0.416  -0.033
    1UNL    H22   45  -0.129   0.287   0.063
    1UNL    H23   46  -0.107   0.193   0.205
    1UNL    H24   47  -0.148  -0.084   0.176
   0.00000   0.00000   0.00000   0.00000   0.00000   0.00000   0.00000   0.00000   0.00000
Generated with MDTraj, t= 41.0
 47
    1UNL     C1    1  -0.344   0.094   0.211
    1UNL     C2    2  -0.313   0.094   0.059
    1UNL     C3    3  -0.166   0.086   0.020
    1UNL     C4    4  -0.147   0.085  -0.133
    1UNL     C5    5  -0.183  -0.016  -0.206
    1UNL     C6    6  -0.214  -0.150  -0.153
    1UNL     N1    7  -0.190  -0.169  -0.008
    1UNL     C7    8  -0.130  -0.310   0.014
    1UNL     C8    9   0.023  -0.318  -0.008
    1UNL     C9   10   0.094  -0.185   0.014
    1UNL    C10   11   0.030  -0.066   0.042
    1UNL     N2   12   0.115   0.042   0.047
    1UNL    C11   13   0.243  -0.012   0.017
    1UNL    C12   14   0.368   0.052   0.011
    1UNL    C13   15   0.476  -0.022  -0.018
    1UNL    C14   16   0.464  -0.162  -0.044
    1UNL    C15   17   0.347  -0.227  -0.031
    1UNL    C16   18   0.237  -0.151   0.000
    1UNL    C17   19   0.073   0.180   0.044
    1UNL     O1   20   0.106   0.242  -0.076
    1UNL    C18   21   0.096   0.383  -0.068
    1UNL    C19   22  -0.074   0.206   0.074
    1UNL    C20   23  -0.115  -0.054   0.059
    1UNL     H1   24  -0.451   0.114   0.229
    1UNL     H2   25  -0.290   0.173   0.254
    1UNL     H3   26  -0.317   0.008   0.255
    1UNL     H4   27  -0.356   0.184   0.020
    1UNL     H5   28  -0.368   0.006   0.014
    1UNL     H6   29  -0.113   0.179  -0.175
    1UNL     H7   30  -0.191   0.001  -0.315
    1UNL     H8   31  -0.149  -0.227  -0.198
    1UNL     H9   32  -0.315  -0.172  -0.183
    1UNL    H10   33  -0.194  -0.378  -0.046
    1UNL    H11   34  -0.159  -0.341   0.111
    1UNL    H12   35   0.045  -0.348  -0.109
    1UNL    H13   36   0.071  -0.400   0.055
    1UNL    H14   37   0.371   0.155   0.031
    1UNL    H15   38   0.575   0.017  -0.019
    1UNL    H16   39   0.559  -0.220  -0.044
    1UNL    H17   40   0.349  -0.336  -0.017
    1UNL    H18   41   0.143   0.229   0.118
    1UNL    H19   42   0.080   0.431   0.029
    1UNL    H20   43   0.186   0.425  -0.114
    1UNL    H21   44   0.012   0.430  -0.122
    1UNL    H22   45  -0.120   0.296   0.046
    1UNL    H23   46  -0.089   0.201   0.188
    1UNL    H24   47  -0.134  -0.062   0.170
   0.00000   0.00000   0.00000   0.00000   0.00000   0.00000   0.00000   0.00000   0.00000
Generated with MDTraj, t= 42.0
 47
    1UNL     C1    1  -0.336   0.103   0.220
    1UNL     C2    2  -0.311   0.104   0.065
    1UNL     C3    3  -0.169   0.079   0.014
    1UNL     C4    4  -0.168   0.076  -0.132
    1UNL     C5    5  -0.212  -0.022  -0.206
    1UNL     C6    6  -0.228  -0.159  -0.151
    1UNL     N1    7  -0.183  -0.169  -0.006
    1UNL     C7    8  -0.121  -0.303   0.007
    1UNL     C8    9   0.027  -0.317  -0.023
    1UNL     C9   10   0.094  -0.180  -0.002
    1UNL    C10   11   0.024  -0.069   0.032
    1UNL     N2   12   0.114   0.037   0.036
    1UNL    C11   13   0.245  -0.008   0.023
    1UNL    C12   14   0.371   0.057   0.011
    1UNL    C13   15   0.479  -0.022  -0.010
    1UNL    C14   16   0.473  -0.161  -0.025
    1UNL    C15   17   0.353  -0.227  -0.017
    1UNL    C16   18   0.236  -0.150   0.005
    1UNL    C17   19   0.076   0.177   0.041
    1UNL     O1   20   0.112   0.247  -0.079
    1UNL    C18   21   0.115   0.385  -0.059
    1UNL    C19   22  -0.077   0.195   0.064
    1UNL    C20   23  -0.120  -0.057   0.065
    1UNL     H1   24  -0.439   0.128   0.244
    1UNL     H2   25  -0.285   0.182   0.264
    1UNL     H3   26  -0.309   0.017   0.274
    1UNL     H4   27  -0.341   0.194   0.013
    1UNL     H5   28  -0.380   0.026   0.021
    1UNL     H6   29  -0.154   0.171  -0.182
    1UNL     H7   30  -0.214  -0.011  -0.308
    1UNL     H8   31  -0.166  -0.221  -0.219
    1UNL     H9   32  -0.329  -0.192  -0.152
    1UNL    H10   33  -0.179  -0.356  -0.071
    1UNL    H11   34  -0.157  -0.357   0.090
    1UNL    H12   35   0.037  -0.337  -0.126
    1UNL    H13   36   0.086  -0.400   0.031
    1UNL    H14   37   0.367   0.165   0.018
    1UNL    H15   38   0.568   0.037  -0.039
    1UNL    H16   39   0.562  -0.219  -0.026
    1UNL    H17   40   0.350  -0.333  -0.012
    1UNL    H18   41   0.133   0.225   0.128
    1UNL    H19   42   0.087   0.412   0.044
    1UNL    H20   43   0.211   0.430  -0.090
    1UNL    H21   44   0.038   0.437  -0.118
    1UNL    H22   45  -0.113   0.286   0.026
    1UNL    H23   46  -0.104   0.209   0.175
    1UNL    H24   47  -0.131  -0.064   0.177
   0.00000   0.00000   0.00000   0.00000   0.00000   0.00000   0.00000   0.00000   0.00000
Generated with MDTraj, t= 43.0
 47
    1UNL     C1    1  -0.340   0.100   0.217
    1UNL     C2    2  -0.317   0.102   0.070
    1UNL     C3    3  -0.166   0.084   0.015
    1UNL     C4    4  -0.165   0.088  -0.134
    1UNL     C5    5  -0.179  -0.021  -0.206
    1UNL     C6    6  -0.209  -0.161  -0.159
    1UNL     N1    7  -0.191  -0.171  -0.007
    1UNL     C7    8  -0.133  -0.301   0.021
    1UNL     C8    9   0.023  -0.311  -0.003
    1UNL     C9   10   0.093  -0.180  -0.004
    1UNL    C10   11   0.028  -0.067   0.024
    1UNL     N2   12   0.114   0.036   0.039
    1UNL    C11   13   0.244  -0.006   0.006
    1UNL    C12   14   0.371   0.053   0.018
    1UNL    C13   15   0.478  -0.026  -0.007
    1UNL    C14   16   0.469  -0.163  -0.024
    1UNL    C15   17   0.343  -0.225  -0.032
    1UNL    C16   18   0.233  -0.144  -0.012
    1UNL    C17   19   0.073   0.178   0.041
    1UNL     O1   20   0.106   0.247  -0.080
    1UNL    C18   21   0.110   0.383  -0.058
    1UNL    C19   22  -0.079   0.192   0.077
    1UNL    C20   23  -0.115  -0.060   0.063
    1UNL     H1   24  -0.442   0.105   0.241
    1UNL     H2   25  -0.303   0.188   0.257
    1UNL     H3   26  -0.290   0.013   0.270
    1UNL     H4   27  -0.380   0.180   0.024
    1UNL     H5   28  -0.360   0.008   0.023
    1UNL     H6   29  -0.128   0.182  -0.172
    1UNL     H7   30  -0.154  -0.026  -0.319
    1UNL     H8   31  -0.132  -0.227  -0.204
    1UNL     H9   32  -0.304  -0.199  -0.192
    1UNL    H10   33  -0.187  -0.383  -0.029
    1UNL    H11   34  -0.175  -0.330   0.116
    1UNL    H12   35   0.048  -0.360  -0.092
    1UNL    H13   36   0.068  -0.383   0.076
    1UNL    H14   37   0.370   0.165   0.017
    1UNL    H15   38   0.572   0.022  -0.022
    1UNL    H16   39   0.563  -0.210  -0.051
    1UNL    H17   40   0.333  -0.331  -0.052
    1UNL    H18   41   0.126   0.230   0.128
    1UNL    H19   42   0.152   0.401   0.042
    1UNL    H20   43   0.167   0.432  -0.139
    1UNL    H21   44   0.007   0.418  -0.066
    1UNL    H22   45  -0.110   0.286   0.045
    1UNL    H23   46  -0.092   0.211   0.190
    1UNL    H24   47  -0.131  -0.073   0.175
   0.00000   0.00000   0.00000   0.00000   0.00000   0.00000   0.00000   0.00000   0.00000
Generated with MDTraj, t= 44.0
 47
    1UNL     C1    1  -0.364   0.098   0.203
    1UNL     C2    2  -0.321   0.109   0.056
    1UNL     C3    3  -0.164   0.084   0.023
    1UNL     C4    4  -0.148   0.091  -0.131
    1UNL     C5    5  -0.152  -0.009  -0.212
    1UNL     C6    6  -0.174  -0.147  -0.167
    1UNL     N1    7  -0.183  -0.177  -0.021
    1UNL     C7    8  -0.135  -0.307   0.016
    1UNL     C8    9   0.021  -0.311   0.005
    1UNL     C9   10   0.093  -0.182   0.034
    1UNL    C10   11   0.025  -0.066   0.057
    1UNL     N2   12   0.121   0.039   0.051
    1UNL    C11   13   0.245  -0.011   0.013
    1UNL    C12   14   0.371   0.048  -0.008
    1UNL    C13   15   0.477  -0.029  -0.042
    1UNL    C14   16   0.461  -0.168  -0.053
    1UNL    C15   17   0.339  -0.226  -0.022
    1UNL    C16   18   0.229  -0.150   0.013
    1UNL    C17   19   0.074   0.177   0.043
    1UNL     O1   20   0.083   0.242  -0.081
    1UNL    C18   21   0.094   0.385  -0.058
    1UNL    C19   22  -0.073   0.191   0.093
    1UNL    C20   23  -0.116  -0.059   0.063
    1UNL     H1   24  -0.459   0.135   0.207
    1UNL     H2   25  -0.298   0.173   0.243
    1UNL     H3   26  -0.351  -0.003   0.251
    1UNL     H4   27  -0.353   0.203   0.008
    1UNL     H5   28  -0.387   0.035  -0.001
    1UNL     H6   29  -0.148   0.193  -0.169
    1UNL     H7   30  -0.158   0.010  -0.312
    1UNL     H8   31  -0.100  -0.219  -0.204
    1UNL     H9   32  -0.268  -0.182  -0.201
    1UNL    H10   33  -0.202  -0.384  -0.025
    1UNL    H11   34  -0.152  -0.323   0.119
    1UNL    H12   35   0.044  -0.355  -0.087
    1UNL    H13   36   0.062  -0.384   0.086
    1UNL    H14   37   0.375   0.150  -0.007
    1UNL    H15   38   0.570   0.025  -0.069
    1UNL    H16   39   0.546  -0.235  -0.079
    1UNL    H17   40   0.335  -0.330  -0.049
    1UNL    H18   41   0.146   0.237   0.110
    1UNL    H19   42   0.201   0.413  -0.064
    1UNL    H20   43   0.038   0.430  -0.140
    1UNL    H21   44   0.040   0.409   0.033
    1UNL    H22   45  -0.107   0.292   0.084
    1UNL    H23   46  -0.066   0.181   0.206
    1UNL    H24   47  -0.164  -0.079   0.164
   0.00000   0.00000   0.00000   0.00000   0.00000   0.00000   0.00000   0.00000   0.00000
Generated with MDTraj, t= 45.0
 47
    1UNL     C1    1  -0.365   0.089   0.194
    1UNL     C2    2  -0.314   0.102   0.049
    1UNL     C3    3  -0.164   0.079   0.025
    1UNL     C4    4  -0.144   0.092  -0.126
    1UNL     C5    5  -0.135  -0.001  -0.215
    1UNL     C6    6  -0.154  -0.143  -0.177
    1UNL     N1    7  -0.172  -0.162  -0.027
    1UNL     C7    8  -0.136  -0.296   0.017
    1UNL     C8    9   0.018  -0.320   0.031
    1UNL     C9   10   0.091  -0.188   0.052
    1UNL    C10   11   0.024  -0.073   0.082
    1UNL     N2   12   0.109   0.037   0.061
    1UNL    C11   13   0.237  -0.013   0.014
    1UNL    C12   14   0.351   0.060  -0.028
    1UNL    C13   15   0.454  -0.017  -0.068
    1UNL    C14   16   0.447  -0.159  -0.063
    1UNL    C15   17   0.331  -0.227  -0.036
    1UNL    C16   18   0.224  -0.150   0.014
    1UNL    C17   19   0.076   0.178   0.057
    1UNL     O1   20   0.119   0.234  -0.071
    1UNL    C18   21   0.093   0.379  -0.071
    1UNL    C19   22  -0.077   0.183   0.100
    1UNL    C20   23  -0.120  -0.062   0.064
    1UNL     H1   24  -0.467   0.108   0.200
    1UNL     H2   25  -0.319   0.174   0.248
    1UNL     H3   26  -0.341  -0.002   0.249
    1UNL     H4   27  -0.342   0.200   0.002
    1UNL     H5   28  -0.370   0.039  -0.028
    1UNL     H6   29  -0.122   0.189  -0.160
    1UNL     H7   30  -0.110   0.028  -0.323
    1UNL     H8   31  -0.067  -0.205  -0.209
    1UNL     H9   32  -0.248  -0.177  -0.216
    1UNL    H10   33  -0.176  -0.376  -0.048
    1UNL    H11   34  -0.187  -0.315   0.108
    1UNL    H12   35   0.049  -0.370  -0.056
    1UNL    H13   36   0.019  -0.394   0.120
    1UNL    H14   37   0.354   0.173  -0.014
    1UNL    H15   38   0.548   0.026  -0.088
    1UNL    H16   39   0.535  -0.215  -0.066
    1UNL    H17   40   0.327  -0.333  -0.031
    1UNL    H18   41   0.143   0.224   0.135
    1UNL    H19   42   0.193   0.428  -0.075
    1UNL    H20   43   0.044   0.409  -0.163
    1UNL    H21   44   0.024   0.399   0.009
    1UNL    H22   45  -0.112   0.283   0.070
    1UNL    H23   46  -0.077   0.186   0.209
    1UNL    H24   47  -0.164  -0.082   0.167
   0.00000   0.00000   0.00000   0.00000   0.00000   0.00000   0.00000   0.00000   0.00000
Generated with MDTraj, t= 46.0
 47
    1UNL     C1    1  -0.371   0.098   0.191
    1UNL     C2    2  -0.321   0.106   0.048
    1UNL     C3    3  -0.173   0.085   0.021
    1UNL     C4    4  -0.155   0.091  -0.134
    1UNL     C5    5  -0.139  -0.016  -0.215
    1UNL     C6    6  -0.139  -0.163  -0.172
    1UNL     N1    7  -0.175  -0.166  -0.026
    1UNL     C7    8  -0.130  -0.295   0.034
    1UNL     C8    9   0.027  -0.314   0.030
    1UNL     C9   10   0.092  -0.183   0.042
    1UNL    C10   11   0.021  -0.066   0.076
    1UNL     N2   12   0.114   0.040   0.055
    1UNL    C11   13   0.243  -0.008   0.026
    1UNL    C12   14   0.358   0.053  -0.009
    1UNL    C13   15   0.461  -0.026  -0.061
    1UNL    C14   16   0.440  -0.163  -0.085
    1UNL    C15   17   0.327  -0.228  -0.048
    1UNL    C16   18   0.229  -0.153   0.016
    1UNL    C17   19   0.070   0.183   0.052
    1UNL     O1   20   0.094   0.247  -0.076
    1UNL    C18   21   0.123   0.381  -0.048
    1UNL    C19   22  -0.083   0.181   0.097
    1UNL    C20   23  -0.127  -0.060   0.066
    1UNL     H1   24  -0.477   0.130   0.200
    1UNL     H2   25  -0.319   0.174   0.253
    1UNL     H3   26  -0.360   0.006   0.236
    1UNL     H4   27  -0.360   0.202   0.001
    1UNL     H5   28  -0.378   0.033  -0.020
    1UNL     H6   29  -0.137   0.195  -0.170
    1UNL     H7   30  -0.105  -0.004  -0.312
    1UNL     H8   31  -0.036  -0.204  -0.184
    1UNL     H9   32  -0.214  -0.209  -0.235
    1UNL    H10   33  -0.177  -0.380  -0.019
    1UNL    H11   34  -0.160  -0.309   0.134
    1UNL    H12   35   0.036  -0.349  -0.071
    1UNL    H13   36   0.063  -0.394   0.102
    1UNL    H14   37   0.359   0.157   0.003
    1UNL    H15   38   0.558   0.019  -0.089
    1UNL    H16   39   0.528  -0.214  -0.134
    1UNL    H17   40   0.320  -0.337  -0.045
    1UNL    H18   41   0.133   0.238   0.124
    1UNL    H19   42   0.228   0.373  -0.013
    1UNL    H20   43   0.136   0.436  -0.140
    1UNL    H21   44   0.040   0.425   0.010
    1UNL    H22   45  -0.114   0.290   0.100
    1UNL    H23   46  -0.093   0.155   0.199
    1UNL    H24   47  -0.164  -0.079   0.172
   0.00000   0.00000   0.00000   0.00000   0.00000   0.00000   0.00000   0.00000   0.00000
Generated with MDTraj, t= 47.0
 47
    1UNL     C1    1  -0.363   0.098   0.200
    1UNL     C2    2  -0.321   0.096   0.049
    1UNL     C3    3  -0.170   0.083   0.015
    1UNL     C4    4  -0.141   0.082  -0.137
    1UNL     C5    5  -0.154  -0.025  -0.215
    1UNL     C6    6  -0.197  -0.159  -0.164
    1UNL     N1    7  -0.192  -0.176  -0.010
    1UNL     C7    8  -0.131  -0.307   0.029
    1UNL     C8    9   0.023  -0.316   0.024
    1UNL     C9   10   0.088  -0.185   0.031
    1UNL    C10   11   0.023  -0.065   0.047
    1UNL     N2   12   0.112   0.039   0.048
    1UNL    C11   13   0.235  -0.009   0.003
    1UNL    C12   14   0.352   0.062  -0.026
    1UNL    C13   15   0.465  -0.008  -0.049
    1UNL    C14   16   0.458  -0.151  -0.051
    1UNL    C15   17   0.344  -0.223  -0.027
    1UNL    C16   18   0.222  -0.147  -0.004
    1UNL    C17   19   0.078   0.179   0.054
    1UNL     O1   20   0.119   0.246  -0.061
    1UNL    C18   21   0.140   0.382  -0.034
    1UNL    C19   22  -0.076   0.187   0.079
    1UNL    C20   23  -0.125  -0.056   0.061
    1UNL     H1   24  -0.477   0.102   0.213
    1UNL     H2   25  -0.327   0.190   0.245
    1UNL     H3   26  -0.324   0.016   0.251
    1UNL     H4   27  -0.374   0.185   0.003
    1UNL     H5   28  -0.384   0.011   0.006
    1UNL     H6   29  -0.131   0.178  -0.173
    1UNL     H7   30  -0.149  -0.006  -0.324
    1UNL     H8   31  -0.122  -0.227  -0.213
    1UNL     H9   32  -0.298  -0.179  -0.197
    1UNL    H10   33  -0.185  -0.393  -0.020
    1UNL    H11   34  -0.154  -0.327   0.131
    1UNL    H12   35   0.059  -0.375  -0.060
    1UNL    H13   36   0.055  -0.375   0.114
    1UNL    H14   37   0.361   0.170  -0.043
    1UNL    H15   38   0.545   0.047  -0.088
    1UNL    H16   39   0.544  -0.206  -0.066
    1UNL    H17   40   0.336  -0.328  -0.025
    1UNL    H18   41   0.132   0.223   0.136
    1UNL    H19   42   0.212   0.404   0.047
    1UNL    H20   43   0.193   0.409  -0.126
    1UNL    H21   44   0.045   0.434  -0.033
    1UNL    H22   45  -0.124   0.292   0.083
    1UNL    H23   46  -0.076   0.156   0.179
    1UNL    H24   47  -0.150  -0.086   0.168
   0.00000   0.00000   0.00000   0.00000   0.00000   0.00000   0.00000   0.00000   0.00000
Generated with MDTraj, t= 48.0
 47
    1UNL     C1    1  -0.357   0.104   0.191
    1UNL     C2    2  -0.313   0.103   0.045
    1UNL     C3    3  -0.170   0.078   0.010
    1UNL     C4    4  -0.159   0.069  -0.144
    1UNL     C5    5  -0.183  -0.044  -0.207
    1UNL     C6    6  -0.226  -0.163  -0.141
    1UNL     N1    7  -0.185  -0.174   0.004
    1UNL     C7    8  -0.122  -0.311   0.031
    1UNL     C8    9   0.027  -0.318  -0.011
    1UNL     C9   10   0.095  -0.182   0.009
    1UNL    C10   11   0.029  -0.063   0.037
    1UNL     N2   12   0.118   0.044   0.032
    1UNL    C11   13   0.245  -0.000   0.013
    1UNL    C12   14   0.368   0.055  -0.005
    1UNL    C13   15   0.477  -0.029  -0.035
    1UNL    C14   16   0.462  -0.168  -0.036
    1UNL    C15   17   0.341  -0.226  -0.027
    1UNL    C16   18   0.230  -0.143  -0.003
    1UNL    C17   19   0.073   0.180   0.047
    1UNL     O1   20   0.116   0.266  -0.063
    1UNL    C18   21   0.123   0.403  -0.019
    1UNL    C19   22  -0.080   0.192   0.069
    1UNL    C20   23  -0.116  -0.056   0.066
    1UNL     H1   24  -0.459   0.140   0.220
    1UNL     H2   25  -0.300   0.169   0.253
    1UNL     H3   26  -0.346   0.006   0.242
    1UNL     H4   27  -0.352   0.200  -0.002
    1UNL     H5   28  -0.373   0.025  -0.011
    1UNL     H6   29  -0.126   0.160  -0.203
    1UNL     H7   30  -0.170  -0.042  -0.313
    1UNL     H8   31  -0.182  -0.255  -0.190
    1UNL     H9   32  -0.336  -0.163  -0.145
    1UNL    H10   33  -0.182  -0.401  -0.001
    1UNL    H11   34  -0.129  -0.308   0.138
    1UNL    H12   35   0.045  -0.342  -0.118
    1UNL    H13   36   0.091  -0.392   0.040
    1UNL    H14   37   0.375   0.162  -0.029
    1UNL    H15   38   0.582   0.006  -0.051
    1UNL    H16   39   0.549  -0.233  -0.063
    1UNL    H17   40   0.322  -0.333  -0.043
    1UNL    H18   41   0.121   0.217   0.134
    1UNL    H19   42   0.212   0.434   0.041
    1UNL    H20   43   0.112   0.465  -0.109
    1UNL    H21   44   0.042   0.426   0.050
    1UNL    H22   45  -0.123   0.293   0.034
    1UNL    H23   46  -0.098   0.201   0.172
    1UNL    H24   47  -0.131  -0.080   0.176
   0.00000   0.00000   0.00000   0.00000   0.00000   0.00000   0.00000   0.00000   0.00000
Generated with MDTraj, t= 49.0
 47
    1UNL     C1    1  -0.349   0.095   0.190
    1UNL     C2    2  -0.313   0.096   0.045
    1UNL     C3    3  -0.172   0.082   0.010
    1UNL     C4    4  -0.163   0.081  -0.140
    1UNL     C5    5  -0.186  -0.037  -0.202
    1UNL     C6    6  -0.220  -0.171  -0.139
    1UNL     N1    7  -0.184  -0.175   0.010
    1UNL     C7    8  -0.122  -0.303   0.049
    1UNL     C8    9   0.011  -0.315  -0.009
    1UNL     C9   10   0.088  -0.182  -0.005
    1UNL    C10   11   0.028  -0.063   0.029
    1UNL     N2   12   0.112   0.040   0.033
    1UNL    C11   13   0.241  -0.011   0.013
    1UNL    C12   14   0.365   0.060   0.017
    1UNL    C13   15   0.475  -0.022  -0.010
    1UNL    C14   16   0.465  -0.158  -0.048
    1UNL    C15   17   0.348  -0.223  -0.049
    1UNL    C16   18   0.232  -0.151  -0.015
    1UNL    C17   19   0.078   0.179   0.047
    1UNL     O1   20   0.125   0.261  -0.068
    1UNL    C18   21   0.123   0.392  -0.028
    1UNL    C19   22  -0.078   0.198   0.065
    1UNL    C20   23  -0.120  -0.055   0.063
    1UNL     H1   24  -0.454   0.108   0.214
    1UNL     H2   25  -0.300   0.178   0.238
    1UNL     H3   26  -0.310  -0.001   0.241
    1UNL     H4   27  -0.352   0.195  -0.001
    1UNL     H5   28  -0.369   0.012  -0.004
    1UNL     H6   29  -0.126   0.162  -0.195
    1UNL     H7   30  -0.166  -0.040  -0.308
    1UNL     H8   31  -0.164  -0.257  -0.188
    1UNL     H9   32  -0.329  -0.186  -0.142
    1UNL    H10   33  -0.204  -0.371   0.012
    1UNL    H11   34  -0.118  -0.317   0.155
    1UNL    H12   35   0.019  -0.364  -0.111
    1UNL    H13   36   0.073  -0.383   0.049
    1UNL    H14   37   0.380   0.157   0.050
    1UNL    H15   38   0.571   0.017   0.006
    1UNL    H16   39   0.557  -0.208  -0.067
    1UNL    H17   40   0.331  -0.322  -0.081
    1UNL    H18   41   0.126   0.208   0.137
    1UNL    H19   42   0.205   0.424   0.041
    1UNL    H20   43   0.110   0.455  -0.117
    1UNL    H21   44   0.043   0.412   0.044
    1UNL    H22   45  -0.091   0.280  -0.012
    1UNL    H23   46  -0.115   0.238   0.156
    1UNL    H24   47  -0.119  -0.056   0.177
   0.00000   0.00000   0.00000   0.00000   0.00000   0.00000   0.00000   0.00000   0.00000
Generated with MDTraj, t= 50.0
 47
    1UNL     C1    1  -0.359   0.096   0.200
    1UNL     C2    2  -0.321   0.096   0.048
    1UNL     C3    3  -0.170   0.080   0.016
    1UNL     C4    4  -0.147   0.086  -0.131
    1UNL     C5    5  -0.177  -0.022  -0.206
    1UNL     C6    6  -0.210  -0.154  -0.149
    1UNL     N1    7  -0.185  -0.174  -0.006
    1UNL     C7    8  -0.121  -0.311   0.014
    1UNL     C8    9   0.032  -0.315   0.004
    1UNL     C9   10   0.098  -0.180   0.022
    1UNL    C10   11   0.025  -0.071   0.054
    1UNL     N2   12   0.108   0.038   0.050
    1UNL    C11   13   0.236  -0.000   0.013
    1UNL    C12   14   0.360   0.059  -0.014
    1UNL    C13   15   0.469  -0.017  -0.044
    1UNL    C14   16   0.460  -0.156  -0.047
    1UNL    C15   17   0.344  -0.222  -0.028
    1UNL    C16   18   0.231  -0.142   0.001
    1UNL    C17   19   0.062   0.179   0.053
    1UNL     O1   20   0.108   0.248  -0.074
    1UNL    C18   21   0.155   0.374  -0.048
    1UNL    C19   22  -0.086   0.200   0.076
    1UNL    C20   23  -0.126  -0.064   0.064
    1UNL     H1   24  -0.462   0.119   0.212
    1UNL     H2   25  -0.298   0.177   0.250
    1UNL     H3   26  -0.334  -0.005   0.243
    1UNL     H4   27  -0.352   0.199   0.001
    1UNL     H5   28  -0.381   0.013   0.000
    1UNL     H6   29  -0.129   0.178  -0.188
    1UNL     H7   30  -0.190  -0.017  -0.316
    1UNL     H8   31  -0.141  -0.229  -0.202
    1UNL     H9   32  -0.318  -0.177  -0.154
    1UNL    H10   33  -0.171  -0.391  -0.050
    1UNL    H11   34  -0.165  -0.329   0.112
    1UNL    H12   35   0.070  -0.339  -0.102
    1UNL    H13   36   0.086  -0.392   0.057
    1UNL    H14   37   0.369   0.166   0.021
    1UNL    H15   38   0.566   0.035  -0.054
    1UNL    H16   39   0.545  -0.221  -0.060
    1UNL    H17   40   0.343  -0.331  -0.028
    1UNL    H18   41   0.116   0.215   0.137
    1UNL    H19   42   0.221   0.376   0.042
    1UNL    H20   43   0.208   0.412  -0.137
    1UNL    H21   44   0.078   0.445  -0.019
    1UNL    H22   45  -0.118   0.292   0.027
    1UNL    H23   46  -0.105   0.210   0.185
    1UNL    H24   47  -0.159  -0.079   0.172
   0.00000   0.00000   0.00000   0.00000   0.00000   0.00000   0.00000   0.00000   0.00000
Generated with MDTraj, t= 51.0
 47
    1UNL     C1    1  -0.355   0.097   0.195
    1UNL     C2    2  -0.327   0.105   0.048
    1UNL     C3    3  -0.168   0.082   0.017
    1UNL     C4    4  -0.140   0.092  -0.125
    1UNL     C5    5  -0.156  -0.008  -0.217
    1UNL     C6    6  -0.174  -0.149  -0.171
    1UNL     N1    7  -0.178  -0.170  -0.018
    1UNL     C7    8  -0.126  -0.301   0.020
    1UNL     C8    9   0.022  -0.310   0.016
    1UNL     C9   10   0.094  -0.186   0.037
    1UNL    C10   11   0.027  -0.072   0.063
    1UNL     N2   12   0.108   0.033   0.052
    1UNL    C11   13   0.237  -0.009   0.024
    1UNL    C12   14   0.357   0.058  -0.013
    1UNL    C13   15   0.459  -0.014  -0.065
    1UNL    C14   16   0.460  -0.155  -0.064
    1UNL    C15   17   0.343  -0.224  -0.020
    1UNL    C16   18   0.231  -0.150   0.015
    1UNL    C17   19   0.058   0.176   0.057
    1UNL     O1   20   0.083   0.235  -0.070
    1UNL    C18   21   0.138   0.368  -0.060
    1UNL    C19   22  -0.087   0.191   0.092
    1UNL    C20   23  -0.119  -0.060   0.070
    1UNL     H1   24  -0.460   0.113   0.219
    1UNL     H2   25  -0.301   0.172   0.264
    1UNL     H3   26  -0.336  -0.002   0.236
    1UNL     H4   27  -0.353   0.207  -0.001
    1UNL     H5   28  -0.377   0.030  -0.019
    1UNL     H6   29  -0.096   0.187  -0.158
    1UNL     H7   30  -0.131   0.009  -0.318
    1UNL     H8   31  -0.089  -0.221  -0.196
    1UNL     H9   32  -0.272  -0.187  -0.205
    1UNL    H10   33  -0.178  -0.367  -0.057
    1UNL    H11   34  -0.156  -0.329   0.121
    1UNL    H12   35   0.055  -0.368  -0.079
    1UNL    H13   36   0.054  -0.377   0.093
    1UNL    H14   37   0.364   0.162  -0.018
    1UNL    H15   38   0.543   0.032  -0.113
    1UNL    H16   39   0.543  -0.197  -0.125
    1UNL    H17   40   0.342  -0.332  -0.025
    1UNL    H18   41   0.120   0.230   0.127
    1UNL    H19   42   0.247   0.362  -0.037
    1UNL    H20   43   0.131   0.412  -0.159
    1UNL    H21   44   0.092   0.438   0.009
    1UNL    H22   45  -0.121   0.289   0.071
    1UNL    H23   46  -0.094   0.165   0.202
    1UNL    H24   47  -0.161  -0.083   0.173
   0.00000   0.00000   0.00000   0.00000   0.00000   0.00000   0.00000   0.00000   0.00000
Generated with MDTraj, t= 52.0
 47
    1UNL     C1    1  -0.362   0.097   0.200
    1UNL     C2    2  -0.322   0.105   0.055
    1UNL     C3    3  -0.169   0.087   0.024
    1UNL     C4    4  -0.157   0.096  -0.127
    1UNL     C5    5  -0.135  -0.012  -0.208
    1UNL     C6    6  -0.134  -0.149  -0.169
    1UNL     N1    7  -0.178  -0.165  -0.025
    1UNL     C7    8  -0.141  -0.303   0.030
    1UNL     C8    9   0.024  -0.319   0.030
    1UNL     C9   10   0.094  -0.185   0.036
    1UNL    C10   11   0.026  -0.072   0.058
    1UNL     N2   12   0.115   0.036   0.048
    1UNL    C11   13   0.233  -0.016   0.011
    1UNL    C12   14   0.361   0.042   0.001
    1UNL    C13   15   0.469  -0.029  -0.043
    1UNL    C14   16   0.452  -0.162  -0.079
    1UNL    C15   17   0.337  -0.228  -0.042
    1UNL    C16   18   0.224  -0.151  -0.006
    1UNL    C17   19   0.064   0.182   0.055
    1UNL     O1   20   0.108   0.240  -0.067
    1UNL    C18   21   0.088   0.384  -0.065
    1UNL    C19   22  -0.083   0.198   0.091
    1UNL    C20   23  -0.121  -0.057   0.069
    1UNL     H1   24  -0.475   0.107   0.193
    1UNL     H2   25  -0.319   0.182   0.263
    1UNL     H3   26  -0.339   0.000   0.237
    1UNL     H4   27  -0.358   0.205   0.010
    1UNL     H5   28  -0.373   0.018  -0.000
    1UNL     H6   29  -0.154   0.192  -0.169
    1UNL     H7   30  -0.113   0.018  -0.313
    1UNL     H8   31  -0.025  -0.179  -0.160
    1UNL     H9   32  -0.194  -0.226  -0.220
    1UNL    H10   33  -0.179  -0.386  -0.039
    1UNL    H11   34  -0.179  -0.305   0.131
    1UNL    H12   35   0.046  -0.370  -0.072
    1UNL    H13   36   0.050  -0.387   0.108
    1UNL    H14   37   0.365   0.149   0.019
    1UNL    H15   38   0.559   0.027  -0.062
    1UNL    H16   39   0.528  -0.215  -0.125
    1UNL    H17   40   0.331  -0.332  -0.066
    1UNL    H18   41   0.126   0.238   0.127
    1UNL    H19   42   0.159   0.430   0.007
    1UNL    H20   43   0.122   0.421  -0.161
    1UNL    H21   44  -0.014   0.416  -0.058
    1UNL    H22   45  -0.113   0.286   0.047
    1UNL    H23   46  -0.107   0.205   0.202
    1UNL    H24   47  -0.154  -0.080   0.175
   0.00000   0.00000   0.00000   0.00000   0.00000   0.00000   0.00000   0.00000   0.00000
Generated with MDTraj, t= 53.0
 47
    1UNL     C1    1  -0.351   0.102   0.209
    1UNL     C2    2  -0.315   0.109   0.058
    1UNL     C3    3  -0.165   0.082   0.020
    1UNL     C4    4  -0.149   0.096  -0.131
    1UNL     C5    5  -0.155  -0.006  -0.219
    1UNL     C6    6  -0.180  -0.143  -0.175
    1UNL     N1    7  -0.174  -0.170  -0.025
    1UNL     C7    8  -0.125  -0.310   0.009
    1UNL     C8    9   0.026  -0.323   0.012
    1UNL     C9   10   0.090  -0.190   0.046
    1UNL    C10   11   0.028  -0.071   0.064
    1UNL     N2   12   0.118   0.031   0.047
    1UNL    C11   13   0.247  -0.014   0.017
    1UNL    C12   14   0.366   0.055  -0.019
    1UNL    C13   15   0.468  -0.026  -0.059
    1UNL    C14   16   0.459  -0.170  -0.057
    1UNL    C15   17   0.342  -0.229  -0.010
    1UNL    C16   18   0.229  -0.156   0.018
    1UNL    C17   19   0.071   0.181   0.059
    1UNL     O1   20   0.099   0.247  -0.064
    1UNL    C18   21   0.068   0.387  -0.073
    1UNL    C19   22  -0.075   0.192   0.095
    1UNL    C20   23  -0.120  -0.056   0.059
    1UNL     H1   24  -0.463   0.130   0.214
    1UNL     H2   25  -0.298   0.177   0.269
    1UNL     H3   26  -0.338   0.004   0.252
    1UNL     H4   27  -0.334   0.214   0.019
    1UNL     H5   28  -0.381   0.037  -0.004
    1UNL     H6   29  -0.155   0.198  -0.180
    1UNL     H7   30  -0.149   0.017  -0.320
    1UNL     H8   31  -0.109  -0.217  -0.224
    1UNL     H9   32  -0.285  -0.158  -0.207
    1UNL    H10   33  -0.163  -0.378  -0.076
    1UNL    H11   34  -0.159  -0.333   0.110
    1UNL    H12   35   0.056  -0.354  -0.095
    1UNL    H13   36   0.043  -0.405   0.080
    1UNL    H14   37   0.374   0.164  -0.018
    1UNL    H15   38   0.569   0.008  -0.073
    1UNL    H16   39   0.548  -0.238  -0.080
    1UNL    H17   40   0.345  -0.336  -0.001
    1UNL    H18   41   0.132   0.216   0.148
    1UNL    H19   42   0.038   0.424   0.028
    1UNL    H20   43   0.163   0.435  -0.093
    1UNL    H21   44   0.006   0.397  -0.159
    1UNL    H22   45  -0.114   0.282   0.055
    1UNL    H23   46  -0.086   0.200   0.207
    1UNL    H24   47  -0.147  -0.060   0.170
   0.00000   0.00000   0.00000   0.00000   0.00000   0.00000   0.00000   0.00000   0.00000
Generated with MDTraj, t= 54.0
 47
    1UNL     C1    1  -0.349   0.104   0.204
    1UNL     C2    2  -0.316   0.097   0.058
    1UNL     C3    3  -0.167   0.079   0.020
    1UNL     C4    4  -0.149   0.091  -0.129
    1UNL     C5    5  -0.169  -0.014  -0.213
    1UNL     C6    6  -0.211  -0.145  -0.157
    1UNL     N1    7  -0.186  -0.167  -0.016
    1UNL     C7    8  -0.138  -0.303   0.018
    1UNL     C8    9   0.018  -0.318  -0.004
    1UNL     C9   10   0.102  -0.186   0.014
    1UNL    C10   11   0.031  -0.071   0.048
    1UNL     N2   12   0.119   0.035   0.043
    1UNL    C11   13   0.240  -0.015   0.012
    1UNL    C12   14   0.363   0.060  -0.009
    1UNL    C13   15   0.478  -0.016  -0.027
    1UNL    C14   16   0.472  -0.157  -0.030
    1UNL    C15   17   0.353  -0.232  -0.023
    1UNL    C16   18   0.238  -0.154  -0.003
    1UNL    C17   19   0.066   0.182   0.050
    1UNL     O1   20   0.092   0.242  -0.074
    1UNL    C18   21   0.108   0.384  -0.074
    1UNL    C19   22  -0.078   0.185   0.098
    1UNL    C20   23  -0.117  -0.060   0.065
    1UNL     H1   24  -0.462   0.106   0.221
    1UNL     H2   25  -0.320   0.189   0.261
    1UNL     H3   26  -0.315   0.017   0.261
    1UNL     H4   27  -0.343   0.190   0.001
    1UNL     H5   28  -0.378   0.014   0.004
    1UNL     H6   29  -0.103   0.173  -0.168
    1UNL     H7   30  -0.156  -0.006  -0.326
    1UNL     H8   31  -0.149  -0.212  -0.223
    1UNL     H9   32  -0.316  -0.158  -0.182
    1UNL    H10   33  -0.207  -0.375  -0.038
    1UNL    H11   34  -0.158  -0.310   0.125
    1UNL    H12   35   0.026  -0.352  -0.113
    1UNL    H13   36   0.065  -0.395   0.053
    1UNL    H14   37   0.362   0.163   0.010
    1UNL    H15   38   0.575   0.030  -0.020
    1UNL    H16   39   0.563  -0.204  -0.040
    1UNL    H17   40   0.351  -0.340  -0.021
    1UNL    H18   41   0.131   0.231   0.132
    1UNL    H19   42   0.173   0.399   0.015
    1UNL    H20   43   0.163   0.424  -0.159
    1UNL    H21   44   0.008   0.419  -0.074
    1UNL    H22   45  -0.117   0.289   0.085
    1UNL    H23   46  -0.086   0.165   0.206
    1UNL    H24   47  -0.137  -0.078   0.176
   0.00000   0.00000   0.00000   0.00000   0.00000   0.00000   0.00000   0.00000   0.00000
Generated with MDTraj, t= 55.0
 47
    1UNL     C1    1  -0.348   0.101   0.213
    1UNL     C2    2  -0.324   0.108   0.060
    1UNL     C3    3  -0.177   0.080   0.015
    1UNL     C4    4  -0.173   0.079  -0.137
    1UNL     C5    5  -0.186  -0.035  -0.211
    1UNL     C6    6  -0.208  -0.173  -0.151
    1UNL     N1    7  -0.189  -0.180  -0.001
    1UNL     C7    8  -0.117  -0.302   0.026
    1UNL     C8    9   0.027  -0.309  -0.021
    1UNL     C9   10   0.093  -0.175   0.000
    1UNL    C10   11   0.027  -0.063   0.039
    1UNL     N2   12   0.114   0.041   0.054
    1UNL    C11   13   0.241  -0.012   0.028
    1UNL    C12   14   0.366   0.045   0.028
    1UNL    C13   15   0.480  -0.027   0.005
    1UNL    C14   16   0.472  -0.165  -0.042
    1UNL    C15   17   0.347  -0.222  -0.053
    1UNL    C16   18   0.232  -0.143  -0.016
    1UNL    C17   19   0.071   0.187   0.044
    1UNL     O1   20   0.108   0.252  -0.077
    1UNL    C18   21   0.137   0.396  -0.070
    1UNL    C19   22  -0.081   0.199   0.068
    1UNL    C20   23  -0.127  -0.062   0.069
    1UNL     H1   24  -0.454   0.128   0.235
    1UNL     H2   25  -0.284   0.159   0.272
    1UNL     H3   26  -0.335  -0.010   0.233
    1UNL     H4   27  -0.369   0.206   0.032
    1UNL     H5   28  -0.391   0.026   0.013
    1UNL     H6   29  -0.140   0.178  -0.176
    1UNL     H7   30  -0.162  -0.022  -0.312
    1UNL     H8   31  -0.150  -0.248  -0.213
    1UNL     H9   32  -0.310  -0.199  -0.177
    1UNL    H10   33  -0.186  -0.385  -0.011
    1UNL    H11   34  -0.130  -0.302   0.134
    1UNL    H12   35   0.058  -0.346  -0.123
    1UNL    H13   36   0.076  -0.380   0.045
    1UNL    H14   37   0.381   0.149   0.070
    1UNL    H15   38   0.576   0.026   0.002
    1UNL    H16   39   0.565  -0.215  -0.081
    1UNL    H17   40   0.343  -0.314  -0.106
    1UNL    H18   41   0.129   0.238   0.130
    1UNL    H19   42   0.239   0.402  -0.116
    1UNL    H20   43   0.068   0.467  -0.117
    1UNL    H21   44   0.142   0.414   0.035
    1UNL    H22   45  -0.121   0.301   0.030
    1UNL    H23   46  -0.097   0.202   0.174
    1UNL    H24   47  -0.148  -0.080   0.180
   0.00000   0.00000   0.00000   0.00000   0.00000   0.00000   0.00000   0.00000   0.00000
Generated with MDTraj, t= 56.0
 47
    1UNL     C1    1  -0.347   0.087   0.201
    1UNL     C2    2  -0.322   0.098   0.050
    1UNL     C3    3  -0.169   0.080   0.007
    1UNL     C4    4  -0.162   0.081  -0.145
    1UNL     C5    5  -0.190  -0.030  -0.209
    1UNL     C6    6  -0.240  -0.148  -0.145
    1UNL     N1    7  -0.193  -0.169  -0.008
    1UNL     C7    8  -0.129  -0.311   0.023
    1UNL     C8    9   0.018  -0.319  -0.011
    1UNL     C9   10   0.096  -0.188   0.011
    1UNL    C10   11   0.030  -0.071   0.039
    1UNL     N2   12   0.116   0.035   0.058
    1UNL    C11   13   0.245  -0.009   0.030
    1UNL    C12   14   0.364   0.060   0.007
    1UNL    C13   15   0.479  -0.010  -0.027
    1UNL    C14   16   0.481  -0.153  -0.028
    1UNL    C15   17   0.358  -0.219  -0.029
    1UNL    C16   18   0.234  -0.151  -0.001
    1UNL    C17   19   0.073   0.178   0.053
    1UNL     O1   20   0.120   0.247  -0.069
    1UNL    C18   21   0.134   0.387  -0.058
    1UNL    C19   22  -0.078   0.196   0.067
    1UNL    C20   23  -0.120  -0.053   0.058
    1UNL     H1   24  -0.450   0.085   0.238
    1UNL     H2   25  -0.301   0.164   0.262
    1UNL     H3   26  -0.307  -0.012   0.239
    1UNL     H4   27  -0.348   0.201   0.018
    1UNL     H5   28  -0.398   0.032  -0.001
    1UNL     H6   29  -0.148   0.174  -0.193
    1UNL     H7   30  -0.191  -0.013  -0.320
    1UNL     H8   31  -0.210  -0.239  -0.204
    1UNL     H9   32  -0.347  -0.165  -0.154
    1UNL    H10   33  -0.207  -0.384  -0.016
    1UNL    H11   34  -0.141  -0.317   0.129
    1UNL    H12   35   0.027  -0.339  -0.119
    1UNL    H13   36   0.081  -0.398   0.035
    1UNL    H14   37   0.366   0.163   0.008
    1UNL    H15   38   0.568   0.046  -0.049
    1UNL    H16   39   0.565  -0.201  -0.070
    1UNL    H17   40   0.345  -0.324  -0.057
    1UNL    H18   41   0.130   0.224   0.141
    1UNL    H19   42   0.097   0.438  -0.152
    1UNL    H20   43   0.080   0.431   0.028
    1UNL    H21   44   0.240   0.405  -0.048
    1UNL    H22   45  -0.110   0.295   0.014
    1UNL    H23   46  -0.106   0.207   0.170
    1UNL    H24   47  -0.140  -0.066   0.171
   0.00000   0.00000   0.00000   0.00000   0.00000   0.00000   0.00000   0.00000   0.00000
Generated with MDTraj, t= 57.0
 47
    1UNL     C1    1  -0.363   0.104   0.186
    1UNL     C2    2  -0.315   0.111   0.048
    1UNL     C3    3  -0.170   0.079   0.017
    1UNL     C4    4  -0.147   0.089  -0.131
    1UNL     C5    5  -0.154  -0.020  -0.202
    1UNL     C6    6  -0.201  -0.150  -0.153
    1UNL     N1    7  -0.177  -0.174  -0.010
    1UNL     C7    8  -0.128  -0.319   0.025
    1UNL     C8    9   0.022  -0.324  -0.002
    1UNL     C9   10   0.094  -0.194   0.020
    1UNL    C10   11   0.035  -0.070   0.058
    1UNL     N2   12   0.117   0.040   0.047
    1UNL    C11   13   0.241  -0.011   0.008
    1UNL    C12   14   0.358   0.057  -0.023
    1UNL    C13   15   0.472  -0.025  -0.037
    1UNL    C14   16   0.463  -0.164  -0.039
    1UNL    C15   17   0.348  -0.228  -0.021
    1UNL    C16   18   0.231  -0.149  -0.002
    1UNL    C17   19   0.064   0.181   0.055
    1UNL     O1   20   0.098   0.258  -0.072
    1UNL    C18   21   0.116   0.393  -0.050
    1UNL    C19   22  -0.083   0.187   0.085
    1UNL    C20   23  -0.120  -0.060   0.065
    1UNL     H1   24  -0.465   0.130   0.207
    1UNL     H2   25  -0.305   0.165   0.261
    1UNL     H3   26  -0.358  -0.002   0.220
    1UNL     H4   27  -0.332   0.214   0.008
    1UNL     H5   28  -0.374   0.051  -0.021
    1UNL     H6   29  -0.130   0.188  -0.173
    1UNL     H7   30  -0.124  -0.019  -0.301
    1UNL     H8   31  -0.167  -0.239  -0.214
    1UNL     H9   32  -0.305  -0.165  -0.178
    1UNL    H10   33  -0.178  -0.388  -0.049
    1UNL    H11   34  -0.160  -0.336   0.126
    1UNL    H12   35   0.041  -0.353  -0.103
    1UNL    H13   36   0.059  -0.405   0.065
    1UNL    H14   37   0.352   0.169  -0.023
    1UNL    H15   38   0.570   0.023  -0.038
    1UNL    H16   39   0.555  -0.222  -0.051
    1UNL    H17   40   0.332  -0.332  -0.032
    1UNL    H18   41   0.119   0.231   0.140
    1UNL    H19   42   0.019   0.438  -0.011
    1UNL    H20   43   0.185   0.420   0.030
    1UNL    H21   44   0.147   0.443  -0.143
    1UNL    H22   45  -0.112   0.290   0.046
    1UNL    H23   46  -0.104   0.183   0.193
    1UNL    H24   47  -0.144  -0.068   0.178
   0.00000   0.00000   0.00000   0.00000   0.00000   0.00000   0.00000   0.00000   0.00000
Generated with MDTraj, t= 58.0
 47
    1UNL     C1    1  -0.362   0.106   0.183
    1UNL     C2    2  -0.315   0.097   0.037
    1UNL     C3    3  -0.166   0.087   0.012
    1UNL     C4    4  -0.148   0.095  -0.137
    1UNL     C5    5  -0.132  -0.010  -0.212
    1UNL     C6    6  -0.149  -0.157  -0.161
    1UNL     N1    7  -0.178  -0.165  -0.018
    1UNL     C7    8  -0.137  -0.303   0.035
    1UNL     C8    9   0.017  -0.321   0.031
    1UNL     C9   10   0.094  -0.191   0.039
    1UNL    C10   11   0.026  -0.071   0.066
    1UNL     N2   12   0.115   0.037   0.053
    1UNL    C11   13   0.242  -0.021   0.020
    1UNL    C12   14   0.357   0.042  -0.009
    1UNL    C13   15   0.467  -0.026  -0.054
    1UNL    C14   16   0.454  -0.166  -0.075
    1UNL    C15   17   0.337  -0.230  -0.045
    1UNL    C16   18   0.224  -0.163  -0.002
    1UNL    C17   19   0.068   0.181   0.060
    1UNL     O1   20   0.099   0.257  -0.058
    1UNL    C18   21   0.081   0.399  -0.044
    1UNL    C19   22  -0.077   0.195   0.083
    1UNL    C20   23  -0.120  -0.058   0.065
    1UNL     H1   24  -0.466   0.099   0.187
    1UNL     H2   25  -0.318   0.201   0.232
    1UNL     H3   26  -0.320   0.012   0.221
    1UNL     H4   27  -0.354   0.187  -0.017
    1UNL     H5   28  -0.365   0.012  -0.004
    1UNL     H6   29  -0.131   0.193  -0.184
    1UNL     H7   30  -0.109  -0.012  -0.322
    1UNL     H8   31  -0.060  -0.216  -0.190
    1UNL     H9   32  -0.228  -0.211  -0.209
    1UNL    H10   33  -0.178  -0.372  -0.045
    1UNL    H11   34  -0.171  -0.315   0.136
    1UNL    H12   35   0.040  -0.377  -0.054
    1UNL    H13   36   0.045  -0.379   0.124
    1UNL    H14   37   0.374   0.145   0.015
    1UNL    H15   38   0.565   0.019  -0.051
    1UNL    H16   39   0.538  -0.230  -0.099
    1UNL    H17   40   0.326  -0.339  -0.056
    1UNL    H18   41   0.125   0.230   0.142
    1UNL    H19   42   0.143   0.447   0.037
    1UNL    H20   43   0.110   0.457  -0.131
    1UNL    H21   44  -0.025   0.425  -0.041
    1UNL    H22   45  -0.111   0.294   0.055
    1UNL    H23   46  -0.087   0.185   0.194
    1UNL    H24   47  -0.158  -0.079   0.172
   0.00000   0.00000   0.00000   0.00000   0.00000   0.00000   0.00000   0.00000   0.00000
Generated with MDTraj, t= 59.0
 47
    1UNL     C1    1  -0.368   0.111   0.190
    1UNL     C2    2  -0.329   0.103   0.037
    1UNL     C3    3  -0.170   0.085   0.016
    1UNL     C4    4  -0.143   0.094  -0.134
    1UNL     C5    5  -0.125  -0.005  -0.219
    1UNL     C6    6  -0.140  -0.150  -0.168
    1UNL     N1    7  -0.175  -0.163  -0.026
    1UNL     C7    8  -0.130  -0.303   0.013
    1UNL     C8    9   0.027  -0.318   0.031
    1UNL     C9   10   0.093  -0.191   0.050
    1UNL    C10   11   0.023  -0.077   0.073
    1UNL     N2   12   0.108   0.034   0.068
    1UNL    C11   13   0.233  -0.021   0.027
    1UNL    C12   14   0.342   0.050  -0.024
    1UNL    C13   15   0.450  -0.018  -0.080
    1UNL    C14   16   0.452  -0.157  -0.069
    1UNL    C15   17   0.347  -0.230  -0.027
    1UNL    C16   18   0.227  -0.156   0.014
    1UNL    C17   19   0.065   0.176   0.064
    1UNL     O1   20   0.098   0.238  -0.064
    1UNL    C18   21   0.114   0.380  -0.053
    1UNL    C19   22  -0.087   0.195   0.090
    1UNL    C20   23  -0.121  -0.058   0.068
    1UNL     H1   24  -0.473   0.120   0.208
    1UNL     H2   25  -0.313   0.188   0.255
    1UNL     H3   26  -0.352   0.011   0.228
    1UNL     H4   27  -0.348   0.202  -0.010
    1UNL     H5   28  -0.391   0.041  -0.023
    1UNL     H6   29  -0.118   0.191  -0.171
    1UNL     H7   30  -0.122  -0.000  -0.325
    1UNL     H8   31  -0.054  -0.216  -0.190
    1UNL     H9   32  -0.216  -0.204  -0.219
    1UNL    H10   33  -0.164  -0.375  -0.065
    1UNL    H11   34  -0.171  -0.315   0.111
    1UNL    H12   35   0.066  -0.360  -0.055
    1UNL    H13   36   0.045  -0.389   0.118
    1UNL    H14   37   0.338   0.156  -0.019
    1UNL    H15   38   0.537   0.033  -0.122
    1UNL    H16   39   0.532  -0.208  -0.118
    1UNL    H17   40   0.349  -0.335  -0.017
    1UNL    H18   41   0.117   0.233   0.139
    1UNL    H19   42   0.213   0.406  -0.093
    1UNL    H20   43   0.043   0.439  -0.107
    1UNL    H21   44   0.099   0.415   0.051
    1UNL    H22   45  -0.117   0.294   0.072
    1UNL    H23   46  -0.092   0.174   0.202
    1UNL    H24   47  -0.178  -0.078   0.166
   0.00000   0.00000   0.00000   0.00000   0.00000   0.00000   0.00000   0.00000   0.00000
Generated with MDTraj, t= 60.0
 47
    1UNL     C1    1  -0.365   0.103   0.195
    1UNL     C2    2  -0.332   0.103   0.047
    1UNL     C3    3  -0.176   0.080   0.017
    1UNL     C4    4  -0.145   0.088  -0.137
    1UNL     C5    5  -0.140  -0.009  -0.221
    1UNL     C6    6  -0.156  -0.150  -0.169
    1UNL     N1    7  -0.175  -0.172  -0.019
    1UNL     C7    8  -0.128  -0.308   0.017
    1UNL     C8    9   0.024  -0.320   0.021
    1UNL     C9   10   0.092  -0.186   0.028
    1UNL    C10   11   0.026  -0.066   0.066
    1UNL     N2   12   0.114   0.042   0.065
    1UNL    C11   13   0.238  -0.007   0.023
    1UNL    C12   14   0.354   0.056  -0.015
    1UNL    C13   15   0.458  -0.022  -0.049
    1UNL    C14   16   0.455  -0.161  -0.057
    1UNL    C15   17   0.338  -0.228  -0.025
    1UNL    C16   18   0.226  -0.152   0.004
    1UNL    C17   19   0.064   0.184   0.062
    1UNL     O1   20   0.102   0.241  -0.067
    1UNL    C18   21   0.134   0.376  -0.065
    1UNL    C19   22  -0.094   0.190   0.093
    1UNL    C20   23  -0.123  -0.060   0.065
    1UNL     H1   24  -0.472   0.111   0.209
    1UNL     H2   25  -0.325   0.179   0.268
    1UNL     H3   26  -0.354   0.004   0.237
    1UNL     H4   27  -0.359   0.199   0.008
    1UNL     H5   28  -0.387   0.039  -0.019
    1UNL     H6   29  -0.131   0.192  -0.171
    1UNL     H7   30  -0.100   0.009  -0.320
    1UNL     H8   31  -0.073  -0.216  -0.195
    1UNL     H9   32  -0.237  -0.202  -0.211
    1UNL    H10   33  -0.167  -0.376  -0.063
    1UNL    H11   34  -0.176  -0.328   0.109
    1UNL    H12   35   0.060  -0.369  -0.063
    1UNL    H13   36   0.052  -0.385   0.110
    1UNL    H14   37   0.364   0.166  -0.011
    1UNL    H15   38   0.540   0.030  -0.096
    1UNL    H16   39   0.539  -0.208  -0.112
    1UNL    H17   40   0.322  -0.334  -0.051
    1UNL    H18   41   0.113   0.240   0.138
    1UNL    H19   42   0.087   0.412  -0.156
    1UNL    H20   43   0.089   0.425   0.019
    1UNL    H21   44   0.242   0.395  -0.065
    1UNL    H22   45  -0.123   0.279   0.047
    1UNL    H23   46  -0.107   0.193   0.207
    1UNL    H24   47  -0.170  -0.064   0.170
   0.00000   0.00000   0.00000   0.00000   0.00000   0.00000   0.00000   0.00000   0.00000
Generated with MDTraj, t= 61.0
 47
    1UNL     C1    1  -0.349   0.085   0.196
    1UNL     C2    2  -0.311   0.103   0.049
    1UNL     C3    3  -0.164   0.088   0.013
    1UNL     C4    4  -0.162   0.086  -0.140
    1UNL     C5    5  -0.173  -0.022  -0.211
    1UNL     C6    6  -0.197  -0.158  -0.161
    1UNL     N1    7  -0.195  -0.172  -0.015
    1UNL     C7    8  -0.137  -0.307   0.037
    1UNL     C8    9   0.017  -0.322   0.005
    1UNL     C9   10   0.090  -0.188   0.010
    1UNL    C10   11   0.029  -0.069   0.031
    1UNL     N2   12   0.114   0.039   0.043
    1UNL    C11   13   0.242  -0.013   0.025
    1UNL    C12   14   0.368   0.053   0.019
    1UNL    C13   15   0.474  -0.022  -0.015
    1UNL    C14   16   0.466  -0.160  -0.036
    1UNL    C15   17   0.347  -0.225  -0.035
    1UNL    C16   18   0.230  -0.151  -0.004
    1UNL    C17   19   0.077   0.182   0.051
    1UNL     O1   20   0.112   0.254  -0.068
    1UNL    C18   21   0.107   0.397  -0.064
    1UNL    C19   22  -0.074   0.199   0.081
    1UNL    C20   23  -0.118  -0.056   0.058
    1UNL     H1   24  -0.459   0.094   0.196
    1UNL     H2   25  -0.306   0.163   0.254
    1UNL     H3   26  -0.326  -0.015   0.225
    1UNL     H4   27  -0.343   0.196   0.014
    1UNL     H5   28  -0.376   0.031   0.002
    1UNL     H6   29  -0.161   0.183  -0.182
    1UNL     H7   30  -0.161  -0.008  -0.319
    1UNL     H8   31  -0.106  -0.212  -0.195
    1UNL     H9   32  -0.284  -0.200  -0.205
    1UNL    H10   33  -0.204  -0.384  -0.004
    1UNL    H11   34  -0.158  -0.311   0.140
    1UNL    H12   35   0.040  -0.370  -0.088
    1UNL    H13   36   0.076  -0.390   0.073
    1UNL    H14   37   0.367   0.153   0.048
    1UNL    H15   38   0.569   0.026  -0.002
    1UNL    H16   39   0.551  -0.215  -0.064
    1UNL    H17   40   0.348  -0.328  -0.062
    1UNL    H18   41   0.127   0.224   0.134
    1UNL    H19   42   0.004   0.417  -0.041
    1UNL    H20   43   0.169   0.432   0.017
    1UNL    H21   44   0.126   0.443  -0.161
    1UNL    H22   45  -0.097   0.294   0.041
    1UNL    H23   46  -0.096   0.204   0.191
    1UNL    H24   47  -0.128  -0.056   0.174
   0.00000   0.00000   0.00000   0.00000   0.00000   0.00000   0.00000   0.00000   0.00000
Generated with MDTraj, t= 62.0
 47
    1UNL     C1    1  -0.347   0.089   0.202
    1UNL     C2    2  -0.314   0.106   0.053
    1UNL     C3    3  -0.168   0.078   0.016
    1UNL     C4    4  -0.158   0.083  -0.134
    1UNL     C5    5  -0.187  -0.023  -0.206
    1UNL     C6    6  -0.235  -0.155  -0.150
    1UNL     N1    7  -0.182  -0.179  -0.014
    1UNL     C7    8  -0.121  -0.309   0.012
    1UNL     C8    9   0.025  -0.311  -0.031
    1UNL     C9   10   0.090  -0.180   0.010
    1UNL    C10   11   0.029  -0.064   0.036
    1UNL     N2   12   0.118   0.046   0.034
    1UNL    C11   13   0.246  -0.013   0.019
    1UNL    C12   14   0.375   0.055   0.002
    1UNL    C13   15   0.484  -0.029  -0.004
    1UNL    C14   16   0.473  -0.168  -0.007
    1UNL    C15   17   0.348  -0.227  -0.005
    1UNL    C16   18   0.231  -0.154   0.006
    1UNL    C17   19   0.072   0.184   0.038
    1UNL     O1   20   0.098   0.255  -0.077
    1UNL    C18   21   0.111   0.400  -0.063
    1UNL    C19   22  -0.073   0.196   0.072
    1UNL    C20   23  -0.116  -0.060   0.063
    1UNL     H1   24  -0.451   0.121   0.230
    1UNL     H2   25  -0.285   0.142   0.264
    1UNL     H3   26  -0.349  -0.014   0.232
    1UNL     H4   27  -0.347   0.197   0.015
    1UNL     H5   28  -0.375   0.037  -0.004
    1UNL     H6   29  -0.122   0.180  -0.170
    1UNL     H7   30  -0.185  -0.017  -0.310
    1UNL     H8   31  -0.214  -0.230  -0.226
    1UNL     H9   32  -0.338  -0.137  -0.141
    1UNL    H10   33  -0.173  -0.392  -0.039
    1UNL    H11   34  -0.149  -0.331   0.111
    1UNL    H12   35   0.049  -0.325  -0.135
    1UNL    H13   36   0.080  -0.397   0.011
    1UNL    H14   37   0.380   0.167   0.014
    1UNL    H15   38   0.581   0.012   0.025
    1UNL    H16   39   0.570  -0.223   0.001
    1UNL    H17   40   0.343  -0.334  -0.018
    1UNL    H18   41   0.127   0.221   0.119
    1UNL    H19   42   0.122   0.425   0.041
    1UNL    H20   43   0.204   0.430  -0.113
    1UNL    H21   44   0.020   0.444  -0.104
    1UNL    H22   45  -0.112   0.295   0.046
    1UNL    H23   46  -0.075   0.178   0.181
    1UNL    H24   47  -0.127  -0.077   0.178
   0.00000   0.00000   0.00000   0.00000   0.00000   0.00000   0.00000   0.00000   0.00000
Generated with MDTraj, t= 63.0
 47
    1UNL     C1    1  -0.344   0.100   0.213
    1UNL     C2    2  -0.321   0.096   0.061
    1UNL     C3    3  -0.177   0.080   0.010
    1UNL     C4    4  -0.158   0.094  -0.138
    1UNL     C5    5  -0.185  -0.009  -0.216
    1UNL     C6    6  -0.218  -0.149  -0.160
    1UNL     N1    7  -0.187  -0.168  -0.022
    1UNL     C7    8  -0.131  -0.296   0.013
    1UNL     C8    9   0.028  -0.315  -0.007
    1UNL     C9   10   0.103  -0.191   0.007
    1UNL    C10   11   0.032  -0.076   0.041
    1UNL     N2   12   0.112   0.036   0.051
    1UNL    C11   13   0.243  -0.006   0.021
    1UNL    C12   14   0.370   0.058   0.015
    1UNL    C13   15   0.481  -0.018   0.008
    1UNL    C14   16   0.473  -0.159  -0.016
    1UNL    C15   17   0.350  -0.224  -0.023
    1UNL    C16   18   0.238  -0.146  -0.009
    1UNL    C17   19   0.066   0.179   0.045
    1UNL     O1   20   0.108   0.234  -0.081
    1UNL    C18   21   0.117   0.374  -0.076
    1UNL    C19   22  -0.086   0.188   0.077
    1UNL    C20   23  -0.120  -0.053   0.055
    1UNL     H1   24  -0.454   0.107   0.230
    1UNL     H2   25  -0.306   0.182   0.263
    1UNL     H3   26  -0.322   0.012   0.270
    1UNL     H4   27  -0.363   0.181   0.018
    1UNL     H5   28  -0.376   0.018   0.016
    1UNL     H6   29  -0.113   0.184  -0.172
    1UNL     H7   30  -0.173   0.014  -0.326
    1UNL     H8   31  -0.156  -0.217  -0.222
    1UNL     H9   32  -0.322  -0.166  -0.173
    1UNL    H10   33  -0.194  -0.378  -0.025
    1UNL    H11   34  -0.147  -0.315   0.115
    1UNL    H12   35   0.041  -0.362  -0.104
    1UNL    H13   36   0.073  -0.390   0.060
    1UNL    H14   37   0.373   0.162   0.030
    1UNL    H15   38   0.581   0.022   0.008
    1UNL    H16   39   0.560  -0.215  -0.031
    1UNL    H17   40   0.360  -0.330  -0.044
    1UNL    H18   41   0.119   0.228   0.124
    1UNL    H19   42   0.207   0.400  -0.131
    1UNL    H20   43   0.034   0.427  -0.126
    1UNL    H21   44   0.120   0.402   0.030
    1UNL    H22   45  -0.136   0.287   0.056
    1UNL    H23   46  -0.103   0.168   0.182
    1UNL    H24   47  -0.148  -0.072   0.165
   0.00000   0.00000   0.00000   0.00000   0.00000   0.00000   0.00000   0.00000   0.00000
Generated with MDTraj, t= 64.0
 47
    1UNL     C1    1  -0.348   0.112   0.215
    1UNL     C2    2  -0.326   0.107   0.057
    1UNL     C3    3  -0.175   0.083   0.017
    1UNL     C4    4  -0.163   0.100  -0.138
    1UNL     C5    5  -0.159  -0.004  -0.221
    1UNL     C6    6  -0.150  -0.146  -0.175
    1UNL     N1    7  -0.179  -0.173  -0.034
    1UNL     C7    8  -0.125  -0.299   0.015
    1UNL     C8    9   0.028  -0.310  -0.003
    1UNL     C9   10   0.089  -0.187   0.034
    1UNL    C10   11   0.020  -0.071   0.066
    1UNL     N2   12   0.113   0.036   0.057
    1UNL    C11   13   0.237  -0.018   0.044
    1UNL    C12   14   0.366   0.047   0.034
    1UNL    C13   15   0.470  -0.025  -0.018
    1UNL    C14   16   0.469  -0.159  -0.050
    1UNL    C15   17   0.347  -0.224  -0.036
    1UNL    C16   18   0.226  -0.155   0.012
    1UNL    C17   19   0.072   0.175   0.049
    1UNL     O1   20   0.090   0.230  -0.085
    1UNL    C18   21   0.102   0.371  -0.087
    1UNL    C19   22  -0.077   0.187   0.084
    1UNL    C20   23  -0.132  -0.060   0.055
    1UNL     H1   24  -0.454   0.128   0.233
    1UNL     H2   25  -0.291   0.196   0.255
    1UNL     H3   26  -0.324   0.019   0.256
    1UNL     H4   27  -0.356   0.202   0.024
    1UNL     H5   28  -0.386   0.033   0.014
    1UNL     H6   29  -0.169   0.202  -0.179
    1UNL     H7   30  -0.149   0.024  -0.319
    1UNL     H8   31  -0.049  -0.187  -0.192
    1UNL     H9   32  -0.223  -0.205  -0.226
    1UNL    H10   33  -0.161  -0.393  -0.027
    1UNL    H11   34  -0.147  -0.308   0.117
    1UNL    H12   35   0.048  -0.334  -0.109
    1UNL    H13   36   0.056  -0.395   0.059
    1UNL    H14   37   0.367   0.155   0.052
    1UNL    H15   38   0.553   0.040  -0.043
    1UNL    H16   39   0.542  -0.207  -0.121
    1UNL    H17   40   0.338  -0.326  -0.062
    1UNL    H18   41   0.132   0.237   0.116
    1UNL    H19   42   0.018   0.406  -0.146
    1UNL    H20   43   0.086   0.421   0.013
    1UNL    H21   44   0.202   0.405  -0.117
    1UNL    H22   45  -0.108   0.285   0.033
    1UNL    H23   46  -0.111   0.189   0.184
    1UNL    H24   47  -0.176  -0.096   0.156
   0.00000   0.00000   0.00000   0.00000   0.00000   0.00000   0.00000   0.00000   0.00000
Generated with MDTraj, t= 65.0
 47
    1UNL     C1    1  -0.358   0.100   0.203
    1UNL     C2    2  -0.325   0.102   0.055
    1UNL     C3    3  -0.171   0.088   0.024
    1UNL     C4    4  -0.158   0.110  -0.121
    1UNL     C5    5  -0.133   0.015  -0.215
    1UNL     C6    6  -0.129  -0.128  -0.188
    1UNL     N1    7  -0.166  -0.161  -0.049
    1UNL     C7    8  -0.135  -0.304  -0.010
    1UNL     C8    9   0.024  -0.323   0.033
    1UNL     C9   10   0.091  -0.193   0.053
    1UNL    C10   11   0.027  -0.073   0.067
    1UNL     N2   12   0.108   0.040   0.066
    1UNL    C11   13   0.231  -0.010   0.019
    1UNL    C12   14   0.349   0.048  -0.015
    1UNL    C13   15   0.462  -0.025  -0.044
    1UNL    C14   16   0.458  -0.167  -0.047
    1UNL    C15   17   0.340  -0.227  -0.007
    1UNL    C16   18   0.223  -0.156   0.020
    1UNL    C17   19   0.069   0.175   0.061
    1UNL     O1   20   0.105   0.225  -0.076
    1UNL    C18   21   0.078   0.365  -0.100
    1UNL    C19   22  -0.074   0.186   0.100
    1UNL    C20   23  -0.125  -0.061   0.057
    1UNL     H1   24  -0.458   0.081   0.229
    1UNL     H2   25  -0.328   0.197   0.251
    1UNL     H3   26  -0.309   0.024   0.257
    1UNL     H4   27  -0.351   0.196   0.017
    1UNL     H5   28  -0.367   0.031  -0.010
    1UNL     H6   29  -0.174   0.209  -0.154
    1UNL     H7   30  -0.127   0.043  -0.326
    1UNL     H8   31  -0.023  -0.165  -0.192
    1UNL     H9   32  -0.197  -0.184  -0.250
    1UNL    H10   33  -0.157  -0.376  -0.090
    1UNL    H11   34  -0.188  -0.341   0.073
    1UNL    H12   35   0.074  -0.387  -0.044
    1UNL    H13   36   0.019  -0.373   0.127
    1UNL    H14   37   0.353   0.155   0.007
    1UNL    H15   38   0.560   0.019  -0.055
    1UNL    H16   39   0.547  -0.216  -0.070
    1UNL    H17   40   0.334  -0.336  -0.006
    1UNL    H18   41   0.131   0.229   0.136
    1UNL    H19   42   0.035   0.409  -0.009
    1UNL    H20   43   0.171   0.423  -0.128
    1UNL    H21   44   0.019   0.378  -0.190
    1UNL    H22   45  -0.117   0.290   0.077
    1UNL    H23   46  -0.085   0.166   0.203
    1UNL    H24   47  -0.154  -0.103   0.161
   0.00000   0.00000   0.00000   0.00000   0.00000   0.00000   0.00000   0.00000   0.00000
Generated with MDTraj, t= 66.0
 47
    1UNL     C1    1  -0.348   0.091   0.203
    1UNL     C2    2  -0.318   0.114   0.055
    1UNL     C3    3  -0.173   0.082   0.016
    1UNL     C4    4  -0.163   0.104  -0.132
    1UNL     C5    5  -0.138   0.008  -0.227
    1UNL     C6    6  -0.111  -0.132  -0.182
    1UNL     N1    7  -0.163  -0.168  -0.044
    1UNL     C7    8  -0.134  -0.300   0.006
    1UNL     C8    9   0.016  -0.317   0.022
    1UNL     C9   10   0.094  -0.190   0.044
    1UNL    C10   11   0.027  -0.069   0.064
    1UNL     N2   12   0.114   0.040   0.042
    1UNL    C11   13   0.242  -0.012   0.032
    1UNL    C12   14   0.363   0.051  -0.012
    1UNL    C13   15   0.463  -0.039  -0.051
    1UNL    C14   16   0.446  -0.178  -0.042
    1UNL    C15   17   0.332  -0.233   0.003
    1UNL    C16   18   0.227  -0.150   0.036
    1UNL    C17   19   0.064   0.176   0.052
    1UNL     O1   20   0.076   0.243  -0.074
    1UNL    C18   21   0.076   0.385  -0.074
    1UNL    C19   22  -0.080   0.179   0.097
    1UNL    C20   23  -0.120  -0.059   0.054
    1UNL     H1   24  -0.442   0.121   0.229
    1UNL     H2   25  -0.269   0.147   0.261
    1UNL     H3   26  -0.345  -0.015   0.224
    1UNL     H4   27  -0.327   0.213   0.016
    1UNL     H5   28  -0.374   0.044   0.003
    1UNL     H6   29  -0.177   0.204  -0.174
    1UNL     H7   30  -0.131   0.022  -0.330
    1UNL     H8   31  -0.000  -0.148  -0.173
    1UNL     H9   32  -0.156  -0.203  -0.250
    1UNL    H10   33  -0.165  -0.371  -0.073
    1UNL    H11   34  -0.193  -0.334   0.088
    1UNL    H12   35   0.059  -0.369  -0.069
    1UNL    H13   36   0.041  -0.377   0.104
    1UNL    H14   37   0.376   0.155  -0.008
    1UNL    H15   38   0.558   0.006  -0.066
    1UNL    H16   39   0.531  -0.249  -0.062
    1UNL    H17   40   0.310  -0.337  -0.005
    1UNL    H18   41   0.129   0.235   0.123
    1UNL    H19   42   0.181   0.420  -0.069
    1UNL    H20   43   0.036   0.402  -0.178
    1UNL    H21   44   0.007   0.439  -0.013
    1UNL    H22   45  -0.120   0.284   0.095
    1UNL    H23   46  -0.084   0.142   0.196
    1UNL    H24   47  -0.166  -0.102   0.152
   0.00000   0.00000   0.00000   0.00000   0.00000   0.00000   0.00000   0.00000   0.00000
Generated with MDTraj, t= 67.0
 47
    1UNL     C1    1  -0.363   0.084   0.204
    1UNL     C2    2  -0.323   0.089   0.052
    1UNL     C3    3  -0.174   0.086   0.018
    1UNL     C4    4  -0.160   0.100  -0.126
    1UNL     C5    5  -0.155  -0.004  -0.212
    1UNL     C6    6  -0.165  -0.149  -0.178
    1UNL     N1    7  -0.190  -0.168  -0.030
    1UNL     C7    8  -0.135  -0.301   0.010
    1UNL     C8    9   0.019  -0.314   0.026
    1UNL     C9   10   0.092  -0.184   0.020
    1UNL    C10   11   0.023  -0.066   0.046
    1UNL     N2   12   0.106   0.036   0.037
    1UNL    C11   13   0.242  -0.013   0.011
    1UNL    C12   14   0.364   0.053   0.002
    1UNL    C13   15   0.479  -0.023  -0.018
    1UNL    C14   16   0.465  -0.165  -0.023
    1UNL    C15   17   0.345  -0.231  -0.017
    1UNL    C16   18   0.232  -0.151   0.003
    1UNL    C17   19   0.068   0.181   0.051
    1UNL     O1   20   0.114   0.242  -0.075
    1UNL    C18   21   0.113   0.381  -0.070
    1UNL    C19   22  -0.086   0.196   0.089
    1UNL    C20   23  -0.123  -0.056   0.055
    1UNL     H1   24  -0.465   0.095   0.215
    1UNL     H2   25  -0.306   0.167   0.250
    1UNL     H3   26  -0.335  -0.014   0.243
    1UNL     H4   27  -0.363   0.182   0.020
    1UNL     H5   28  -0.355   0.007  -0.005
    1UNL     H6   29  -0.158   0.200  -0.164
    1UNL     H7   30  -0.144   0.027  -0.319
    1UNL     H8   31  -0.076  -0.211  -0.207
    1UNL     H9   32  -0.256  -0.192  -0.222
    1UNL    H10   33  -0.168  -0.383  -0.057
    1UNL    H11   34  -0.192  -0.324   0.096
    1UNL    H12   35   0.071  -0.356  -0.067
    1UNL    H13   36   0.058  -0.376   0.101
    1UNL    H14   37   0.367   0.165   0.005
    1UNL    H15   38   0.580   0.023  -0.020
    1UNL    H16   39   0.550  -0.227  -0.041
    1UNL    H17   40   0.337  -0.339  -0.027
    1UNL    H18   41   0.132   0.226   0.134
    1UNL    H19   42   0.209   0.421  -0.104
    1UNL    H20   43   0.031   0.408  -0.141
    1UNL    H21   44   0.089   0.423   0.024
    1UNL    H22   45  -0.125   0.294   0.060
    1UNL    H23   46  -0.095   0.188   0.197
    1UNL    H24   47  -0.157  -0.068   0.166
   0.00000   0.00000   0.00000   0.00000   0.00000   0.00000   0.00000   0.00000   0.00000
Generated with MDTraj, t= 68.0
 47
    1UNL     C1    1  -0.349   0.102   0.191
    1UNL     C2    2  -0.324   0.111   0.045
    1UNL     C3    3  -0.171   0.082   0.005
    1UNL     C4    4  -0.152   0.080  -0.148
    1UNL     C5    5  -0.181  -0.031  -0.220
    1UNL     C6    6  -0.227  -0.159  -0.153
    1UNL     N1    7  -0.190  -0.178  -0.010
    1UNL     C7    8  -0.116  -0.302   0.018
    1UNL     C8    9   0.024  -0.311  -0.027
    1UNL     C9   10   0.089  -0.184   0.027
    1UNL    C10   11   0.022  -0.068   0.040
    1UNL     N2   12   0.114   0.033   0.046
    1UNL    C11   13   0.245  -0.012   0.024
    1UNL    C12   14   0.366   0.055   0.023
    1UNL    C13   15   0.484  -0.019   0.005
    1UNL    C14   16   0.472  -0.154  -0.031
    1UNL    C15   17   0.355  -0.227  -0.020
    1UNL    C16   18   0.231  -0.156   0.008
    1UNL    C17   19   0.074   0.175   0.041
    1UNL     O1   20   0.120   0.251  -0.070
    1UNL    C18   21   0.116   0.391  -0.043
    1UNL    C19   22  -0.084   0.193   0.067
    1UNL    C20   23  -0.127  -0.058   0.059
    1UNL     H1   24  -0.444   0.140   0.225
    1UNL     H2   25  -0.279   0.155   0.252
    1UNL     H3   26  -0.350   0.001   0.231
    1UNL     H4   27  -0.336   0.207   0.001
    1UNL     H5   28  -0.387   0.046  -0.006
    1UNL     H6   29  -0.100   0.164  -0.195
    1UNL     H7   30  -0.165  -0.019  -0.324
    1UNL     H8   31  -0.169  -0.242  -0.202
    1UNL     H9   32  -0.335  -0.177  -0.161
    1UNL    H10   33  -0.190  -0.373  -0.031
    1UNL    H11   34  -0.128  -0.340   0.117
    1UNL    H12   35   0.035  -0.310  -0.140
    1UNL    H13   36   0.092  -0.386  -0.002
    1UNL    H14   37   0.369   0.157   0.041
    1UNL    H15   38   0.572   0.038  -0.007
    1UNL    H16   39   0.563  -0.198  -0.067
    1UNL    H17   40   0.337  -0.330  -0.041
    1UNL    H18   41   0.125   0.230   0.127
    1UNL    H19   42   0.151   0.450  -0.128
    1UNL    H20   43   0.010   0.416  -0.031
    1UNL    H21   44   0.177   0.416   0.039
    1UNL    H22   45  -0.113   0.282   0.020
    1UNL    H23   46  -0.107   0.207   0.174
    1UNL    H24   47  -0.153  -0.055   0.173
   0.00000   0.00000   0.00000   0.00000   0.00000   0.00000   0.00000   0.00000   0.00000
Generated with MDTraj, t= 69.0
 47
    1UNL     C1    1  -0.361   0.110   0.174
    1UNL     C2    2  -0.319   0.102   0.029
    1UNL     C3    3  -0.166   0.077   0.008
    1UNL     C4    4  -0.152   0.072  -0.147
    1UNL     C5    5  -0.185  -0.037  -0.216
    1UNL     C6    6  -0.226  -0.151  -0.140
    1UNL     N1    7  -0.186  -0.174   0.001
    1UNL     C7    8  -0.120  -0.305   0.024
    1UNL     C8    9   0.029  -0.309  -0.032
    1UNL     C9   10   0.098  -0.180   0.006
    1UNL    C10   11   0.027  -0.068   0.047
    1UNL     N2   12   0.112   0.037   0.048
    1UNL    C11   13   0.244  -0.002   0.021
    1UNL    C12   14   0.370   0.054   0.025
    1UNL    C13   15   0.480  -0.020   0.007
    1UNL    C14   16   0.464  -0.158  -0.023
    1UNL    C15   17   0.346  -0.219  -0.041
    1UNL    C16   18   0.235  -0.136  -0.014
    1UNL    C17   19   0.065   0.174   0.051
    1UNL     O1   20   0.110   0.242  -0.066
    1UNL    C18   21   0.142   0.377  -0.038
    1UNL    C19   22  -0.091   0.194   0.072
    1UNL    C20   23  -0.120  -0.061   0.071
    1UNL     H1   24  -0.470   0.078   0.184
    1UNL     H2   25  -0.353   0.205   0.213
    1UNL     H3   26  -0.306   0.041   0.236
    1UNL     H4   27  -0.350   0.193  -0.022
    1UNL     H5   28  -0.371   0.020  -0.014
    1UNL     H6   29  -0.123   0.163  -0.194
    1UNL     H7   30  -0.168  -0.039  -0.322
    1UNL     H8   31  -0.195  -0.240  -0.201
    1UNL     H9   32  -0.337  -0.141  -0.136
    1UNL    H10   33  -0.177  -0.400  -0.003
    1UNL    H11   34  -0.130  -0.303   0.131
    1UNL    H12   35   0.056  -0.331  -0.140
    1UNL    H13   36   0.072  -0.392   0.015
    1UNL    H14   37   0.385   0.163   0.042
    1UNL    H15   38   0.577   0.033   0.010
    1UNL    H16   39   0.555  -0.213  -0.050
    1UNL    H17   40   0.334  -0.327  -0.057
    1UNL    H18   41   0.116   0.220   0.141
    1UNL    H19   42   0.145   0.443  -0.126
    1UNL    H20   43   0.061   0.418   0.024
    1UNL    H21   44   0.239   0.379   0.005
    1UNL    H22   45  -0.139   0.279   0.035
    1UNL    H23   46  -0.116   0.198   0.180
    1UNL    H24   47  -0.145  -0.048   0.183
   0.00000   0.00000   0.00000   0.00000   0.00000   0.00000   0.00000   0.00000   0.00000
Generated with MDTraj, t= 70.0
 47
    1UNL     C1    1  -0.360   0.112   0.186
    1UNL     C2    2  -0.322   0.101   0.037
    1UNL     C3    3  -0.171   0.082   0.011
    1UNL     C4    4  -0.153   0.090  -0.139
    1UNL     C5    5  -0.150  -0.021  -0.212
    1UNL     C6    6  -0.184  -0.162  -0.168
    1UNL     N1    7  -0.187  -0.187  -0.022
    1UNL     C7    8  -0.126  -0.320   0.021
    1UNL     C8    9   0.021  -0.321   0.010
    1UNL     C9   10   0.089  -0.184   0.021
    1UNL    C10   11   0.016  -0.067   0.050
    1UNL     N2   12   0.107   0.038   0.053
    1UNL    C11   13   0.236  -0.005   0.025
    1UNL    C12   14   0.354   0.068   0.015
    1UNL    C13   15   0.459  -0.010  -0.022
    1UNL    C14   16   0.458  -0.150  -0.048
    1UNL    C15   17   0.342  -0.223  -0.034
    1UNL    C16   18   0.226  -0.147   0.004
    1UNL    C17   19   0.070   0.181   0.051
    1UNL     O1   20   0.107   0.245  -0.066
    1UNL    C18   21   0.153   0.371  -0.042
    1UNL    C19   22  -0.079   0.198   0.081
    1UNL    C20   23  -0.124  -0.064   0.058
    1UNL     H1   24  -0.469   0.133   0.208
    1UNL     H2   25  -0.306   0.192   0.229
    1UNL     H3   26  -0.330   0.025   0.236
    1UNL     H4   27  -0.359   0.189  -0.011
    1UNL     H5   28  -0.375   0.018  -0.004
    1UNL     H6   29  -0.119   0.187  -0.176
    1UNL     H7   30  -0.128  -0.004  -0.320
    1UNL     H8   31  -0.112  -0.223  -0.225
    1UNL     H9   32  -0.287  -0.179  -0.207
    1UNL    H10   33  -0.179  -0.402  -0.039
    1UNL    H11   34  -0.162  -0.343   0.121
    1UNL    H12   35   0.045  -0.377  -0.085
    1UNL    H13   36   0.062  -0.381   0.086
    1UNL    H14   37   0.361   0.171   0.036
    1UNL    H15   38   0.559   0.025  -0.025
    1UNL    H16   39   0.547  -0.203  -0.067
    1UNL    H17   40   0.337  -0.329  -0.042
    1UNL    H18   41   0.138   0.221   0.130
    1UNL    H19   42   0.201   0.414  -0.132
    1UNL    H20   43   0.069   0.439  -0.014
    1UNL    H21   44   0.234   0.363   0.027
    1UNL    H22   45  -0.121   0.288   0.049
    1UNL    H23   46  -0.097   0.194   0.191
    1UNL    H24   47  -0.150  -0.068   0.170
   0.00000   0.00000   0.00000   0.00000   0.00000   0.00000   0.00000   0.00000   0.00000
Generated with MDTraj, t= 71.0
 47
    1UNL     C1    1  -0.371   0.094   0.181
    1UNL     C2    2  -0.324   0.088   0.039
    1UNL     C3    3  -0.172   0.081   0.014
    1UNL     C4    4  -0.144   0.106  -0.134
    1UNL     C5    5  -0.137   0.004  -0.219
    1UNL     C6    6  -0.143  -0.146  -0.180
    1UNL     N1    7  -0.176  -0.165  -0.037
    1UNL     C7    8  -0.133  -0.305   0.014
    1UNL     C8    9   0.028  -0.322   0.028
    1UNL     C9   10   0.093  -0.183   0.043
    1UNL    C10   11   0.022  -0.070   0.056
    1UNL     N2   12   0.107   0.038   0.063
    1UNL    C11   13   0.237  -0.010   0.038
    1UNL    C12   14   0.351   0.050  -0.020
    1UNL    C13   15   0.452  -0.031  -0.069
    1UNL    C14   16   0.446  -0.168  -0.060
    1UNL    C15   17   0.342  -0.228  -0.002
    1UNL    C16   18   0.236  -0.148   0.041
    1UNL    C17   19   0.070   0.185   0.057
    1UNL     O1   20   0.101   0.245  -0.067
    1UNL    C18   21   0.119   0.383  -0.051
    1UNL    C19   22  -0.084   0.185   0.094
    1UNL    C20   23  -0.125  -0.056   0.055
    1UNL     H1   24  -0.476   0.117   0.199
    1UNL     H2   25  -0.323   0.176   0.237
    1UNL     H3   26  -0.348   0.010   0.240
    1UNL     H4   27  -0.359   0.164  -0.029
    1UNL     H5   28  -0.366   0.001  -0.008
    1UNL     H6   29  -0.144   0.208  -0.170
    1UNL     H7   30  -0.132   0.025  -0.321
    1UNL     H8   31  -0.044  -0.193  -0.194
    1UNL     H9   32  -0.216  -0.194  -0.248
    1UNL    H10   33  -0.173  -0.371  -0.071
    1UNL    H11   34  -0.184  -0.329   0.106
    1UNL    H12   35   0.050  -0.368  -0.070
    1UNL    H13   36   0.042  -0.392   0.106
    1UNL    H14   37   0.356   0.157  -0.026
    1UNL    H15   38   0.541   0.009  -0.119
    1UNL    H16   39   0.535  -0.231  -0.081
    1UNL    H17   40   0.329  -0.335  -0.003
    1UNL    H18   41   0.139   0.227   0.130
    1UNL    H19   42   0.127   0.440  -0.146
    1UNL    H20   43   0.035   0.428   0.009
    1UNL    H21   44   0.217   0.392  -0.008
    1UNL    H22   45  -0.126   0.283   0.078
    1UNL    H23   46  -0.105   0.157   0.199
    1UNL    H24   47  -0.164  -0.085   0.158
   0.00000   0.00000   0.00000   0.00000   0.00000   0.00000   0.00000   0.00000   0.00000
Generated with MDTraj, t= 72.0
 47
    1UNL     C1    1  -0.370   0.091   0.190
    1UNL     C2    2  -0.319   0.117   0.043
    1UNL     C3    3  -0.170   0.079   0.018
    1UNL     C4    4  -0.140   0.100  -0.130
    1UNL     C5    5  -0.119   0.002  -0.216
    1UNL     C6    6  -0.107  -0.139  -0.171
    1UNL     N1    7  -0.164  -0.161  -0.035
    1UNL     C7    8  -0.130  -0.297   0.010
    1UNL     C8    9   0.016  -0.317   0.046
    1UNL     C9   10   0.087  -0.187   0.044
    1UNL    C10   11   0.021  -0.070   0.061
    1UNL     N2   12   0.111   0.036   0.050
    1UNL    C11   13   0.230  -0.011   0.012
    1UNL    C12   14   0.352   0.048  -0.017
    1UNL    C13   15   0.455  -0.032  -0.050
    1UNL    C14   16   0.448  -0.171  -0.041
    1UNL    C15   17   0.326  -0.235  -0.028
    1UNL    C16   18   0.220  -0.156   0.008
    1UNL    C17   19   0.070   0.178   0.057
    1UNL     O1   20   0.099   0.241  -0.063
    1UNL    C18   21   0.077   0.386  -0.061
    1UNL    C19   22  -0.082   0.178   0.093
    1UNL    C20   23  -0.124  -0.061   0.059
    1UNL     H1   24  -0.466   0.132   0.205
    1UNL     H2   25  -0.297   0.147   0.256
    1UNL     H3   26  -0.357  -0.016   0.210
    1UNL     H4   27  -0.346   0.219   0.022
    1UNL     H5   28  -0.372   0.056  -0.030
    1UNL     H6   29  -0.125   0.201  -0.161
    1UNL     H7   30  -0.087   0.030  -0.320
    1UNL     H8   31   0.001  -0.161  -0.172
    1UNL     H9   32  -0.162  -0.220  -0.227
    1UNL    H10   33  -0.155  -0.367  -0.077
    1UNL    H11   34  -0.199  -0.318   0.090
    1UNL    H12   35   0.059  -0.389  -0.027
    1UNL    H13   36   0.006  -0.359   0.145
    1UNL    H14   37   0.357   0.155  -0.041
    1UNL    H15   38   0.543   0.017  -0.086
    1UNL    H16   39   0.528  -0.232  -0.069
    1UNL    H17   40   0.321  -0.342  -0.046
    1UNL    H18   41   0.128   0.217   0.137
    1UNL    H19   42   0.130   0.428  -0.149
    1UNL    H20   43  -0.032   0.415  -0.062
    1UNL    H21   44   0.138   0.430   0.018
    1UNL    H22   45  -0.133   0.278   0.084
    1UNL    H23   46  -0.085   0.146   0.196
    1UNL    H24   47  -0.159  -0.088   0.162
   0.00000   0.00000   0.00000   0.00000   0.00000   0.00000   0.00000   0.00000   0.00000
Generated with MDTraj, t= 73.0
 47
    1UNL     C1    1  -0.361   0.086   0.194
    1UNL     C2    2  -0.315   0.107   0.048
    1UNL     C3    3  -0.161   0.095   0.013
    1UNL     C4    4  -0.150   0.102  -0.138
    1UNL     C5    5  -0.151  -0.005  -0.217
    1UNL     C6    6  -0.167  -0.147  -0.184
    1UNL     N1    7  -0.174  -0.168  -0.040
    1UNL     C7    8  -0.130  -0.308   0.003
    1UNL     C8    9   0.024  -0.313   0.014
    1UNL     C9   10   0.091  -0.184   0.042
    1UNL    C10   11   0.027  -0.064   0.063
    1UNL     N2   12   0.116   0.039   0.064
    1UNL    C11   13   0.237  -0.016   0.033
    1UNL    C12   14   0.367   0.040   0.004
    1UNL    C13   15   0.472  -0.034  -0.035
    1UNL    C14   16   0.461  -0.170  -0.052
    1UNL    C15   17   0.338  -0.234  -0.014
    1UNL    C16   18   0.226  -0.152   0.026
    1UNL    C17   19   0.075   0.181   0.056
    1UNL     O1   20   0.105   0.243  -0.068
    1UNL    C18   21   0.071   0.381  -0.068
    1UNL    C19   22  -0.077   0.194   0.091
    1UNL    C20   23  -0.122  -0.050   0.052
    1UNL     H1   24  -0.464   0.088   0.207
    1UNL     H2   25  -0.322   0.176   0.245
    1UNL     H3   26  -0.309  -0.002   0.245
    1UNL     H4   27  -0.341   0.206   0.012
    1UNL     H5   28  -0.372   0.038  -0.015
    1UNL     H6   29  -0.134   0.200  -0.187
    1UNL     H7   30  -0.150   0.008  -0.319
    1UNL     H8   31  -0.093  -0.222  -0.212
    1UNL     H9   32  -0.265  -0.177  -0.229
    1UNL    H10   33  -0.190  -0.383  -0.060
    1UNL    H11   34  -0.166  -0.313   0.105
    1UNL    H12   35   0.057  -0.358  -0.080
    1UNL    H13   36   0.055  -0.377   0.097
    1UNL    H14   37   0.374   0.144   0.002
    1UNL    H15   38   0.562   0.008  -0.080
    1UNL    H16   39   0.546  -0.226  -0.101
    1UNL    H17   40   0.330  -0.340  -0.020
    1UNL    H18   41   0.124   0.238   0.129
    1UNL    H19   42   0.148   0.436  -0.124
    1UNL    H20   43  -0.031   0.394  -0.113
    1UNL    H21   44   0.081   0.426   0.031
    1UNL    H22   45  -0.106   0.300   0.062
    1UNL    H23   46  -0.098   0.179   0.194
    1UNL    H24   47  -0.160  -0.078   0.152
   0.00000   0.00000   0.00000   0.00000   0.00000   0.00000   0.00000   0.00000   0.00000
Generated with MDTraj, t= 74.0
 47
    1UNL     C1    1  -0.365   0.113   0.197
    1UNL     C2    2  -0.320   0.106   0.057
    1UNL     C3    3  -0.171   0.084   0.015
    1UNL     C4    4  -0.152   0.090  -0.133
    1UNL     C5    5  -0.168  -0.014  -0.209
    1UNL     C6    6  -0.222  -0.143  -0.165
    1UNL     N1    7  -0.195  -0.173  -0.016
    1UNL     C7    8  -0.130  -0.307   0.005
    1UNL     C8    9   0.018  -0.314  -0.034
    1UNL     C9   10   0.097  -0.190   0.012
    1UNL    C10   11   0.031  -0.077   0.046
    1UNL     N2   12   0.122   0.031   0.051
    1UNL    C11   13   0.245  -0.011   0.021
    1UNL    C12   14   0.366   0.064   0.026
    1UNL    C13   15   0.479  -0.013   0.005
    1UNL    C14   16   0.475  -0.156  -0.020
    1UNL    C15   17   0.356  -0.221  -0.021
    1UNL    C16   18   0.235  -0.153  -0.001
    1UNL    C17   19   0.077   0.173   0.053
    1UNL     O1   20   0.108   0.233  -0.078
    1UNL    C18   21   0.113   0.372  -0.072
    1UNL    C19   22  -0.076   0.190   0.083
    1UNL    C20   23  -0.124  -0.064   0.056
    1UNL     H1   24  -0.469   0.129   0.207
    1UNL     H2   25  -0.319   0.198   0.247
    1UNL     H3   26  -0.336   0.022   0.260
    1UNL     H4   27  -0.355   0.195   0.008
    1UNL     H5   28  -0.366   0.024  -0.003
    1UNL     H6   29  -0.122   0.180  -0.175
    1UNL     H7   30  -0.146  -0.014  -0.319
    1UNL     H8   31  -0.182  -0.220  -0.230
    1UNL     H9   32  -0.333  -0.157  -0.161
    1UNL    H10   33  -0.190  -0.383  -0.051
    1UNL    H11   34  -0.156  -0.321   0.109
    1UNL    H12   35   0.046  -0.327  -0.136
    1UNL    H13   36   0.058  -0.403   0.017
    1UNL    H14   37   0.368   0.172   0.058
    1UNL    H15   38   0.574   0.039   0.010
    1UNL    H16   39   0.566  -0.202  -0.011
    1UNL    H17   40   0.364  -0.328  -0.004
    1UNL    H18   41   0.134   0.217   0.131
    1UNL    H19   42   0.135   0.408  -0.173
    1UNL    H20   43   0.015   0.412  -0.046
    1UNL    H21   44   0.195   0.416  -0.014
    1UNL    H22   45  -0.114   0.286   0.033
    1UNL    H23   46  -0.084   0.202   0.188
    1UNL    H24   47  -0.151  -0.091   0.159
   0.00000   0.00000   0.00000   0.00000   0.00000   0.00000   0.00000   0.00000   0.00000
Generated with MDTraj, t= 75.0
 47
    1UNL     C1    1  -0.347   0.114   0.209
    1UNL     C2    2  -0.325   0.096   0.053
    1UNL     C3    3  -0.178   0.072   0.013
    1UNL     C4    4  -0.162   0.076  -0.141
    1UNL     C5    5  -0.183  -0.025  -0.222
    1UNL     C6    6  -0.228  -0.154  -0.157
    1UNL     N1    7  -0.183  -0.174  -0.010
    1UNL     C7    8  -0.120  -0.306   0.008
    1UNL     C8    9   0.027  -0.309  -0.039
    1UNL     C9   10   0.096  -0.175  -0.008
    1UNL    C10   11   0.031  -0.065   0.042
    1UNL     N2   12   0.106   0.046   0.044
    1UNL    C11   13   0.243  -0.004   0.031
    1UNL    C12   14   0.376   0.052   0.053
    1UNL    C13   15   0.489  -0.025   0.026
    1UNL    C14   16   0.473  -0.162  -0.019
    1UNL    C15   17   0.350  -0.218  -0.039
    1UNL    C16   18   0.235  -0.143  -0.004
    1UNL    C17   19   0.058   0.187   0.047
    1UNL     O1   20   0.088   0.246  -0.085
    1UNL    C18   21   0.160   0.367  -0.070
    1UNL    C19   22  -0.094   0.189   0.076
    1UNL    C20   23  -0.123  -0.063   0.066
    1UNL     H1   24  -0.454   0.146   0.224
    1UNL     H2   25  -0.286   0.195   0.240
    1UNL     H3   26  -0.322   0.022   0.265
    1UNL     H4   27  -0.352   0.187   0.000
    1UNL     H5   28  -0.391   0.011   0.023
    1UNL     H6   29  -0.127   0.175  -0.180
    1UNL     H7   30  -0.174  -0.027  -0.326
    1UNL     H8   31  -0.192  -0.245  -0.202
    1UNL     H9   32  -0.339  -0.153  -0.167
    1UNL    H10   33  -0.201  -0.371  -0.035
    1UNL    H11   34  -0.124  -0.326   0.113
    1UNL    H12   35   0.032  -0.323  -0.143
    1UNL    H13   36   0.098  -0.386  -0.001
    1UNL    H14   37   0.384   0.151   0.084
    1UNL    H15   38   0.585   0.014   0.054
    1UNL    H16   39   0.562  -0.229  -0.021
    1UNL    H17   40   0.341  -0.322  -0.054
    1UNL    H18   41   0.120   0.236   0.120
    1UNL    H19   42   0.157   0.416  -0.165
    1UNL    H20   43   0.113   0.435  -0.002
    1UNL    H21   44   0.267   0.357  -0.048
    1UNL    H22   45  -0.114   0.297   0.041
    1UNL    H23   46  -0.114   0.178   0.180
    1UNL    H24   47  -0.147  -0.071   0.170
   0.00000   0.00000   0.00000   0.00000   0.00000   0.00000   0.00000   0.00000   0.00000
Generated with MDTraj, t= 76.0
 47
    1UNL     C1    1  -0.346   0.085   0.204
    1UNL     C2    2  -0.329   0.093   0.049
    1UNL     C3    3  -0.180   0.086   0.010
    1UNL     C4    4  -0.169   0.089  -0.136
    1UNL     C5    5  -0.200  -0.008  -0.214
    1UNL     C6    6  -0.214  -0.156  -0.170
    1UNL     N1    7  -0.196  -0.176  -0.018
    1UNL     C7    8  -0.126  -0.304   0.009
    1UNL     C8    9   0.026  -0.313  -0.010
    1UNL     C9   10   0.097  -0.182   0.007
    1UNL    C10   11   0.027  -0.062   0.031
    1UNL     N2   12   0.113   0.041   0.063
    1UNL    C11   13   0.238  -0.007   0.022
    1UNL    C12   14   0.359   0.060   0.026
    1UNL    C13   15   0.475  -0.014   0.003
    1UNL    C14   16   0.475  -0.149  -0.020
    1UNL    C15   17   0.354  -0.218  -0.018
    1UNL    C16   18   0.233  -0.146   0.001
    1UNL    C17   19   0.065   0.183   0.053
    1UNL     O1   20   0.102   0.237  -0.081
    1UNL    C18   21   0.182   0.353  -0.065
    1UNL    C19   22  -0.088   0.204   0.077
    1UNL    C20   23  -0.122  -0.063   0.052
    1UNL     H1   24  -0.459   0.079   0.234
    1UNL     H2   25  -0.307   0.169   0.260
    1UNL     H3   26  -0.304  -0.000   0.250
    1UNL     H4   27  -0.381   0.179   0.006
    1UNL     H5   28  -0.377   0.003   0.001
    1UNL     H6   29  -0.121   0.173  -0.178
    1UNL     H7   30  -0.186   0.017  -0.323
    1UNL     H8   31  -0.136  -0.208  -0.222
    1UNL     H9   32  -0.312  -0.207  -0.193
    1UNL    H10   33  -0.176  -0.388  -0.045
    1UNL    H11   34  -0.149  -0.313   0.113
    1UNL    H12   35   0.052  -0.333  -0.109
    1UNL    H13   36   0.075  -0.392   0.056
    1UNL    H14   37   0.351   0.170   0.035
    1UNL    H15   38   0.569   0.041  -0.013
    1UNL    H16   39   0.564  -0.205  -0.022
    1UNL    H17   40   0.344  -0.324  -0.042
    1UNL    H18   41   0.124   0.234   0.131
    1UNL    H19   42   0.213   0.376  -0.165
    1UNL    H20   43   0.128   0.437  -0.030
    1UNL    H21   44   0.275   0.340  -0.007
    1UNL    H22   45  -0.122   0.305   0.042
    1UNL    H23   46  -0.102   0.203   0.185
    1UNL    H24   47  -0.140  -0.076   0.154
   0.00000   0.00000   0.00000   0.00000   0.00000   0.00000   0.00000   0.00000   0.00000
Generated with MDTraj, t= 77.0
 47
    1UNL     C1    1  -0.358   0.073   0.192
    1UNL     C2    2  -0.318   0.109   0.055
    1UNL     C3    3  -0.170   0.086   0.018
    1UNL     C4    4  -0.149   0.095  -0.130
    1UNL     C5    5  -0.153  -0.005  -0.215
    1UNL     C6    6  -0.186  -0.143  -0.172
    1UNL     N1    7  -0.184  -0.172  -0.025
    1UNL     C7    8  -0.127  -0.314   0.004
    1UNL     C8    9   0.031  -0.317   0.008
    1UNL     C9   10   0.089  -0.184   0.028
    1UNL    C10   11   0.018  -0.070   0.048
    1UNL     N2   12   0.104   0.038   0.046
    1UNL    C11   13   0.236  -0.009   0.027
    1UNL    C12   14   0.358   0.053   0.007
    1UNL    C13   15   0.471  -0.020  -0.025
    1UNL    C14   16   0.462  -0.164  -0.028
    1UNL    C15   17   0.342  -0.228  -0.013
    1UNL    C16   18   0.231  -0.149   0.022
    1UNL    C17   19   0.064   0.177   0.048
    1UNL     O1   20   0.094   0.249  -0.078
    1UNL    C18   21   0.144   0.382  -0.069
    1UNL    C19   22  -0.082   0.194   0.087
    1UNL    C20   23  -0.127  -0.062   0.058
    1UNL     H1   24  -0.464   0.110   0.215
    1UNL     H2   25  -0.297   0.116   0.276
    1UNL     H3   26  -0.362  -0.030   0.215
    1UNL     H4   27  -0.346   0.212   0.031
    1UNL     H5   28  -0.382   0.047  -0.015
    1UNL     H6   29  -0.144   0.202  -0.162
    1UNL     H7   30  -0.149   0.016  -0.318
    1UNL     H8   31  -0.118  -0.211  -0.218
    1UNL     H9   32  -0.286  -0.164  -0.217
    1UNL    H10   33  -0.162  -0.377  -0.081
    1UNL    H11   34  -0.162  -0.347   0.098
    1UNL    H12   35   0.074  -0.366  -0.072
    1UNL    H13   36   0.062  -0.372   0.100
    1UNL    H14   37   0.371   0.157  -0.024
    1UNL    H15   38   0.552   0.032  -0.073
    1UNL    H16   39   0.552  -0.215  -0.066
    1UNL    H17   40   0.328  -0.330  -0.033
    1UNL    H18   41   0.117   0.241   0.125
    1UNL    H19   42   0.154   0.401  -0.175
    1UNL    H20   43   0.075   0.452  -0.028
    1UNL    H21   44   0.244   0.388  -0.020
    1UNL    H22   45  -0.116   0.293   0.049
    1UNL    H23   46  -0.103   0.199   0.196
    1UNL    H24   47  -0.160  -0.074   0.156
   0.00000   0.00000   0.00000   0.00000   0.00000   0.00000   0.00000   0.00000   0.00000
Generated with MDTraj, t= 78.0
 47
    1UNL     C1    1  -0.371   0.085   0.174
    1UNL     C2    2  -0.320   0.105   0.033
    1UNL     C3    3  -0.166   0.089   0.015
    1UNL     C4    4  -0.148   0.107  -0.137
    1UNL     C5    5  -0.134  -0.001  -0.211
    1UNL     C6    6  -0.143  -0.141  -0.168
    1UNL     N1    7  -0.173  -0.157  -0.024
    1UNL     C7    8  -0.139  -0.297   0.031
    1UNL     C8    9   0.014  -0.325   0.025
    1UNL     C9   10   0.091  -0.191   0.035
    1UNL    C10   11   0.029  -0.073   0.047
    1UNL     N2   12   0.121   0.035   0.046
    1UNL    C11   13   0.249  -0.017   0.018
    1UNL    C12   14   0.369   0.048  -0.007
    1UNL    C13   15   0.469  -0.036  -0.039
    1UNL    C14   16   0.456  -0.175  -0.049
    1UNL    C15   17   0.338  -0.237  -0.025
    1UNL    C16   18   0.228  -0.158   0.020
    1UNL    C17   19   0.065   0.175   0.061
    1UNL     O1   20   0.098   0.250  -0.063
    1UNL    C18   21   0.067   0.394  -0.058
    1UNL    C19   22  -0.085   0.191   0.095
    1UNL    C20   23  -0.112  -0.053   0.059
    1UNL     H1   24  -0.478   0.107   0.170
    1UNL     H2   25  -0.322   0.161   0.242
    1UNL     H3   26  -0.349  -0.019   0.211
    1UNL     H4   27  -0.349   0.208   0.006
    1UNL     H5   28  -0.383   0.037  -0.034
    1UNL     H6   29  -0.131   0.207  -0.167
    1UNL     H7   30  -0.100   0.011  -0.317
    1UNL     H8   31  -0.053  -0.191  -0.193
    1UNL     H9   32  -0.222  -0.185  -0.233
    1UNL    H10   33  -0.183  -0.366  -0.044
    1UNL    H11   34  -0.174  -0.305   0.131
    1UNL    H12   35   0.037  -0.370  -0.065
    1UNL    H13   36   0.045  -0.393   0.108
    1UNL    H14   37   0.375   0.153  -0.001
    1UNL    H15   38   0.567   0.005  -0.066
    1UNL    H16   39   0.541  -0.238  -0.065
    1UNL    H17   40   0.326  -0.346  -0.010
    1UNL    H18   41   0.121   0.218   0.151
    1UNL    H19   42   0.012   0.414  -0.150
    1UNL    H20   43   0.013   0.421   0.031
    1UNL    H21   44   0.165   0.451  -0.056
    1UNL    H22   45  -0.125   0.289   0.074
    1UNL    H23   46  -0.110   0.171   0.204
    1UNL    H24   47  -0.148  -0.064   0.155
   0.00000   0.00000   0.00000   0.00000   0.00000   0.00000   0.00000   0.00000   0.00000
Generated with MDTraj, t= 79.0
 47
    1UNL     C1    1  -0.358   0.113   0.177
    1UNL     C2    2  -0.318   0.109   0.030
    1UNL     C3    3  -0.166   0.087   0.005
    1UNL     C4    4  -0.137   0.097  -0.143
    1UNL     C5    5  -0.120  -0.007  -0.221
    1UNL     C6    6  -0.159  -0.151  -0.176
    1UNL     N1    7  -0.170  -0.174  -0.029
    1UNL     C7    8  -0.129  -0.311   0.016
    1UNL     C8    9   0.020  -0.319   0.037
    1UNL     C9   10   0.089  -0.187   0.043
    1UNL    C10   11   0.020  -0.065   0.070
    1UNL     N2   12   0.107   0.037   0.060
    1UNL    C11   13   0.231  -0.020   0.010
    1UNL    C12   14   0.354   0.046  -0.011
    1UNL    C13   15   0.465  -0.025  -0.040
    1UNL    C14   16   0.454  -0.163  -0.060
    1UNL    C15   17   0.340  -0.232  -0.030
    1UNL    C16   18   0.229  -0.159   0.011
    1UNL    C17   19   0.065   0.183   0.066
    1UNL     O1   20   0.103   0.246  -0.053
    1UNL    C18   21   0.083   0.388  -0.048
    1UNL    C19   22  -0.081   0.187   0.094
    1UNL    C20   23  -0.125  -0.061   0.058
    1UNL     H1   24  -0.459   0.141   0.191
    1UNL     H2   25  -0.301   0.188   0.240
    1UNL     H3   26  -0.342   0.011   0.234
    1UNL     H4   27  -0.349   0.198  -0.029
    1UNL     H5   28  -0.374   0.025  -0.025
    1UNL     H6   29  -0.113   0.195  -0.185
    1UNL     H7   30  -0.081   0.016  -0.317
    1UNL     H8   31  -0.098  -0.218  -0.230
    1UNL     H9   32  -0.264  -0.170  -0.204
    1UNL    H10   33  -0.163  -0.385  -0.060
    1UNL    H11   34  -0.182  -0.323   0.107
    1UNL    H12   35   0.061  -0.378  -0.041
    1UNL    H13   36   0.036  -0.386   0.125
    1UNL    H14   37   0.344   0.154   0.015
    1UNL    H15   38   0.563   0.015  -0.045
    1UNL    H16   39   0.548  -0.218  -0.059
    1UNL    H17   40   0.338  -0.338  -0.023
    1UNL    H18   41   0.125   0.223   0.154
    1UNL    H19   42  -0.022   0.411  -0.025
    1UNL    H20   43   0.162   0.430   0.014
    1UNL    H21   44   0.102   0.428  -0.153
    1UNL    H22   45  -0.125   0.281   0.076
    1UNL    H23   46  -0.090   0.168   0.208
    1UNL    H24   47  -0.169  -0.074   0.151
   0.00000   0.00000   0.00000   0.00000   0.00000   0.00000   0.00000   0.00000   0.00000
Generated with MDTraj, t= 80.0
 47
    1UNL     C1    1  -0.381   0.126   0.173
    1UNL     C2    2  -0.335   0.097   0.027
    1UNL     C3    3  -0.179   0.079   0.011
    1UNL     C4    4  -0.146   0.088  -0.138
    1UNL     C5    5  -0.144  -0.017  -0.218
    1UNL     C6    6  -0.185  -0.152  -0.163
    1UNL     N1    7  -0.181  -0.171  -0.019
    1UNL     C7    8  -0.115  -0.303   0.011
    1UNL     C8    9   0.035  -0.318  -0.004
    1UNL     C9   10   0.099  -0.187   0.038
    1UNL    C10   11   0.019  -0.079   0.070
    1UNL     N2   12   0.106   0.029   0.064
    1UNL    C11   13   0.234  -0.010   0.026
    1UNL    C12   14   0.356   0.059   0.007
    1UNL    C13   15   0.459  -0.014  -0.048
    1UNL    C14   16   0.460  -0.155  -0.048
    1UNL    C15   17   0.346  -0.222  -0.025
    1UNL    C16   18   0.234  -0.150   0.013
    1UNL    C17   19   0.066   0.178   0.064
    1UNL     O1   20   0.098   0.245  -0.060
    1UNL    C18   21   0.161   0.370  -0.054
    1UNL    C19   22  -0.088   0.190   0.090
    1UNL    C20   23  -0.128  -0.060   0.065
    1UNL     H1   24  -0.489   0.133   0.182
    1UNL     H2   25  -0.334   0.221   0.210
    1UNL     H3   26  -0.341   0.043   0.243
    1UNL     H4   27  -0.374   0.167  -0.052
    1UNL     H5   28  -0.377  -0.004  -0.006
    1UNL     H6   29  -0.124   0.188  -0.172
    1UNL     H7   30  -0.126  -0.004  -0.325
    1UNL     H8   31  -0.123  -0.233  -0.192
    1UNL     H9   32  -0.283  -0.178  -0.206
    1UNL    H10   33  -0.182  -0.375  -0.039
    1UNL    H11   34  -0.137  -0.316   0.114
    1UNL    H12   35   0.063  -0.353  -0.104
    1UNL    H13   36   0.077  -0.404   0.050
    1UNL    H14   37   0.350   0.162  -0.003
    1UNL    H15   38   0.542   0.050  -0.085
    1UNL    H16   39   0.548  -0.213  -0.069
    1UNL    H17   40   0.345  -0.330  -0.030
    1UNL    H18   41   0.118   0.243   0.140
    1UNL    H19   42   0.087   0.433  -0.002
    1UNL    H20   43   0.259   0.358  -0.010
    1UNL    H21   44   0.175   0.422  -0.154
    1UNL    H22   45  -0.113   0.294   0.078
    1UNL    H23   46  -0.115   0.170   0.199
    1UNL    H24   47  -0.167  -0.072   0.160
   0.00000   0.00000   0.00000   0.00000   0.00000   0.00000   0.00000   0.00000   0.00000
Generated with MDTraj, t= 81.0
 47
    1UNL     C1    1  -0.359   0.099   0.178
    1UNL     C2    2  -0.331   0.094   0.029
    1UNL     C3    3  -0.176   0.073   0.005
    1UNL     C4    4  -0.149   0.081  -0.144
    1UNL     C5    5  -0.163  -0.030  -0.214
    1UNL     C6    6  -0.211  -0.159  -0.158
    1UNL     N1    7  -0.189  -0.177  -0.003
    1UNL     C7    8  -0.134  -0.311   0.029
    1UNL     C8    9   0.021  -0.316   0.000
    1UNL     C9   10   0.089  -0.179   0.010
    1UNL    C10   11   0.026  -0.066   0.039
    1UNL     N2   12   0.108   0.045   0.056
    1UNL    C11   13   0.236  -0.008   0.024
    1UNL    C12   14   0.354   0.056   0.037
    1UNL    C13   15   0.467  -0.009  -0.004
    1UNL    C14   16   0.472  -0.143  -0.049
    1UNL    C15   17   0.350  -0.215  -0.043
    1UNL    C16   18   0.230  -0.146  -0.001
    1UNL    C17   19   0.063   0.187   0.060
    1UNL     O1   20   0.107   0.251  -0.061
    1UNL    C18   21   0.187   0.366  -0.052
    1UNL    C19   22  -0.091   0.189   0.075
    1UNL    C20   23  -0.124  -0.058   0.061
    1UNL     H1   24  -0.473   0.096   0.192
    1UNL     H2   25  -0.313   0.192   0.221
    1UNL     H3   26  -0.311   0.013   0.225
    1UNL     H4   27  -0.364   0.196  -0.007
    1UNL     H5   28  -0.392   0.020  -0.031
    1UNL     H6   29  -0.106   0.169  -0.187
    1UNL     H7   30  -0.140  -0.027  -0.320
    1UNL     H8   31  -0.183  -0.244  -0.217
    1UNL     H9   32  -0.321  -0.168  -0.160
    1UNL    H10   33  -0.190  -0.386  -0.029
    1UNL    H11   34  -0.168  -0.325   0.129
    1UNL    H12   35   0.052  -0.365  -0.096
    1UNL    H13   36   0.066  -0.390   0.065
    1UNL    H14   37   0.352   0.165   0.045
    1UNL    H15   38   0.551   0.049  -0.030
    1UNL    H16   39   0.569  -0.179  -0.080
    1UNL    H17   40   0.349  -0.318  -0.078
    1UNL    H18   41   0.108   0.237   0.147
    1UNL    H19   42   0.117   0.447  -0.033
    1UNL    H20   43   0.268   0.356   0.021
    1UNL    H21   44   0.242   0.398  -0.144
    1UNL    H22   45  -0.146   0.274   0.036
    1UNL    H23   46  -0.108   0.199   0.187
    1UNL    H24   47  -0.138  -0.067   0.164
   0.00000   0.00000   0.00000   0.00000   0.00000   0.00000   0.00000   0.00000   0.00000
Generated with MDTraj, t= 82.0
 47
    1UNL     C1    1  -0.361   0.077   0.175
    1UNL     C2    2  -0.324   0.113   0.040
    1UNL     C3    3  -0.170   0.088   0.003
    1UNL     C4    4  -0.169   0.080  -0.144
    1UNL     C5    5  -0.177  -0.038  -0.206
    1UNL     C6    6  -0.224  -0.157  -0.149
    1UNL     N1    7  -0.191  -0.181  -0.008
    1UNL     C7    8  -0.121  -0.312   0.021
    1UNL     C8    9   0.026  -0.313  -0.025
    1UNL     C9   10   0.093  -0.182   0.003
    1UNL    C10   11   0.025  -0.067   0.044
    1UNL     N2   12   0.115   0.044   0.058
    1UNL    C11   13   0.242  -0.000   0.023
    1UNL    C12   14   0.376   0.053   0.015
    1UNL    C13   15   0.487  -0.029  -0.002
    1UNL    C14   16   0.471  -0.164  -0.026
    1UNL    C15   17   0.343  -0.217  -0.024
    1UNL    C16   18   0.230  -0.141   0.007
    1UNL    C17   19   0.068   0.187   0.057
    1UNL     O1   20   0.112   0.252  -0.058
    1UNL    C18   21   0.150   0.388  -0.054
    1UNL    C19   22  -0.086   0.198   0.067
    1UNL    C20   23  -0.126  -0.053   0.056
    1UNL     H1   24  -0.471   0.110   0.203
    1UNL     H2   25  -0.296   0.115   0.258
    1UNL     H3   26  -0.358  -0.028   0.191
    1UNL     H4   27  -0.346   0.219   0.003
    1UNL     H5   28  -0.385   0.046  -0.026
    1UNL     H6   29  -0.138   0.161  -0.211
    1UNL     H7   30  -0.156  -0.049  -0.311
    1UNL     H8   31  -0.170  -0.237  -0.197
    1UNL     H9   32  -0.331  -0.168  -0.176
    1UNL    H10   33  -0.193  -0.386  -0.020
    1UNL    H11   34  -0.115  -0.327   0.126
    1UNL    H12   35   0.031  -0.352  -0.132
    1UNL    H13   36   0.087  -0.389   0.022
    1UNL    H14   37   0.380   0.161   0.032
    1UNL    H15   38   0.586   0.022   0.006
    1UNL    H16   39   0.559  -0.227  -0.019
    1UNL    H17   40   0.337  -0.323  -0.020
    1UNL    H18   41   0.120   0.230   0.141
    1UNL    H19   42   0.077   0.440   0.004
    1UNL    H20   43   0.250   0.397  -0.014
    1UNL    H21   44   0.156   0.448  -0.147
    1UNL    H22   45  -0.115   0.292   0.016
    1UNL    H23   46  -0.128   0.213   0.169
    1UNL    H24   47  -0.144  -0.067   0.158
   0.00000   0.00000   0.00000   0.00000   0.00000   0.00000   0.00000   0.00000   0.00000
Generated with MDTraj, t= 83.0
 47
    1UNL     C1    1  -0.351   0.077   0.187
    1UNL     C2    2  -0.311   0.104   0.040
    1UNL     C3    3  -0.166   0.079   0.004
    1UNL     C4    4  -0.144   0.093  -0.138
    1UNL     C5    5  -0.168  -0.013  -0.215
    1UNL     C6    6  -0.222  -0.146  -0.162
    1UNL     N1    7  -0.195  -0.172  -0.014
    1UNL     C7    8  -0.142  -0.304   0.015
    1UNL     C8    9   0.014  -0.312   0.005
    1UNL     C9   10   0.095  -0.189   0.025
    1UNL    C10   11   0.032  -0.066   0.037
    1UNL     N2   12   0.118   0.038   0.031
    1UNL    C11   13   0.248  -0.019   0.020
    1UNL    C12   14   0.372   0.053   0.008
    1UNL    C13   15   0.483  -0.020  -0.012
    1UNL    C14   16   0.475  -0.163  -0.009
    1UNL    C15   17   0.356  -0.229  -0.020
    1UNL    C16   18   0.237  -0.159   0.013
    1UNL    C17   19   0.070   0.180   0.047
    1UNL     O1   20   0.099   0.257  -0.063
    1UNL    C18   21   0.103   0.396  -0.057
    1UNL    C19   22  -0.080   0.188   0.077
    1UNL    C20   23  -0.119  -0.059   0.052
    1UNL     H1   24  -0.465   0.090   0.205
    1UNL     H2   25  -0.299   0.145   0.260
    1UNL     H3   26  -0.320  -0.021   0.215
    1UNL     H4   27  -0.341   0.215   0.027
    1UNL     H5   28  -0.367   0.039  -0.035
    1UNL     H6   29  -0.142   0.189  -0.182
    1UNL     H7   30  -0.153   0.001  -0.324
    1UNL     H8   31  -0.199  -0.224  -0.232
    1UNL     H9   32  -0.333  -0.140  -0.161
    1UNL    H10   33  -0.178  -0.382  -0.055
    1UNL    H11   34  -0.174  -0.318   0.116
    1UNL    H12   35   0.045  -0.352  -0.099
    1UNL    H13   36   0.042  -0.397   0.064
    1UNL    H14   37   0.369   0.158   0.015
    1UNL    H15   38   0.574   0.030  -0.018
    1UNL    H16   39   0.561  -0.224   0.008
    1UNL    H17   40   0.358  -0.338  -0.007
    1UNL    H18   41   0.133   0.212   0.127
    1UNL    H19   42   0.004   0.437  -0.049
    1UNL    H20   43   0.166   0.431   0.023
    1UNL    H21   44   0.147   0.447  -0.144
    1UNL    H22   45  -0.115   0.293   0.051
    1UNL    H23   46  -0.101   0.182   0.184
    1UNL    H24   47  -0.126  -0.069   0.156
   0.00000   0.00000   0.00000   0.00000   0.00000   0.00000   0.00000   0.00000   0.00000
Generated with MDTraj, t= 84.0
 47
    1UNL     C1    1  -0.358   0.106   0.206
    1UNL     C2    2  -0.326   0.107   0.050
    1UNL     C3    3  -0.180   0.081   0.019
    1UNL     C4    4  -0.160   0.099  -0.137
    1UNL     C5    5  -0.146  -0.008  -0.217
    1UNL     C6    6  -0.147  -0.151  -0.169
    1UNL     N1    7  -0.175  -0.163  -0.030
    1UNL     C7    8  -0.137  -0.299   0.006
    1UNL     C8    9   0.022  -0.322  -0.001
    1UNL     C9   10   0.093  -0.190   0.025
    1UNL    C10   11   0.025  -0.077   0.058
    1UNL     N2   12   0.112   0.033   0.048
    1UNL    C11   13   0.237  -0.016   0.010
    1UNL    C12   14   0.364   0.045  -0.001
    1UNL    C13   15   0.482  -0.032   0.001
    1UNL    C14   16   0.468  -0.170  -0.028
    1UNL    C15   17   0.345  -0.233  -0.020
    1UNL    C16   18   0.228  -0.160   0.013
    1UNL    C17   19   0.064   0.179   0.047
    1UNL     O1   20   0.105   0.252  -0.074
    1UNL    C18   21   0.082   0.392  -0.074
    1UNL    C19   22  -0.089   0.194   0.089
    1UNL    C20   23  -0.124  -0.054   0.062
    1UNL     H1   24  -0.465   0.128   0.228
    1UNL     H2   25  -0.298   0.183   0.261
    1UNL     H3   26  -0.324   0.008   0.249
    1UNL     H4   27  -0.349   0.211   0.003
    1UNL     H5   28  -0.394   0.025   0.015
    1UNL     H6   29  -0.128   0.199  -0.171
    1UNL     H7   30  -0.125   0.015  -0.318
    1UNL     H8   31  -0.046  -0.186  -0.172
    1UNL     H9   32  -0.205  -0.222  -0.234
    1UNL    H10   33  -0.190  -0.362  -0.070
    1UNL    H11   34  -0.157  -0.316   0.110
    1UNL    H12   35   0.049  -0.365  -0.106
    1UNL    H13   36   0.067  -0.394   0.063
    1UNL    H14   37   0.369   0.153  -0.022
    1UNL    H15   38   0.584   0.009  -0.022
    1UNL    H16   39   0.561  -0.219  -0.057
    1UNL    H17   40   0.332  -0.333  -0.050
    1UNL    H18   41   0.122   0.223   0.124
    1UNL    H19   42  -0.022   0.417  -0.092
    1UNL    H20   43   0.119   0.441   0.015
    1UNL    H21   44   0.140   0.440  -0.152
    1UNL    H22   45  -0.135   0.300   0.079
    1UNL    H23   46  -0.093   0.184   0.196
    1UNL    H24   47  -0.155  -0.083   0.158
   0.00000   0.00000   0.00000   0.00000   0.00000   0.00000   0.00000   0.00000   0.00000
Generated with MDTraj, t= 85.0
 47
    1UNL     C1    1  -0.340   0.117   0.208
    1UNL     C2    2  -0.320   0.102   0.061
    1UNL     C3    3  -0.172   0.085   0.013
    1UNL     C4    4  -0.163   0.103  -0.141
    1UNL     C5    5  -0.149   0.007  -0.234
    1UNL     C6    6  -0.130  -0.131  -0.189
    1UNL     N1    7  -0.177  -0.161  -0.048
    1UNL     C7    8  -0.131  -0.303  -0.017
    1UNL     C8    9   0.018  -0.312   0.028
    1UNL     C9   10   0.091  -0.188   0.059
    1UNL    C10   11   0.026  -0.067   0.065
    1UNL     N2   12   0.115   0.037   0.070
    1UNL    C11   13   0.239  -0.021   0.038
    1UNL    C12   14   0.361   0.046   0.017
    1UNL    C13   15   0.467  -0.026  -0.034
    1UNL    C14   16   0.463  -0.165  -0.049
    1UNL    C15   17   0.343  -0.231  -0.022
    1UNL    C16   18   0.229  -0.157   0.028
    1UNL    C17   19   0.068   0.176   0.061
    1UNL     O1   20   0.093   0.225  -0.074
    1UNL    C18   21   0.075   0.364  -0.091
    1UNL    C19   22  -0.085   0.183   0.093
    1UNL    C20   23  -0.127  -0.060   0.050
    1UNL     H1   24  -0.442   0.119   0.245
    1UNL     H2   25  -0.302   0.204   0.267
    1UNL     H3   26  -0.293   0.030   0.273
    1UNL     H4   27  -0.365   0.195   0.010
    1UNL     H5   28  -0.372   0.012   0.017
    1UNL     H6   29  -0.171   0.204  -0.168
    1UNL     H7   30  -0.128   0.039  -0.339
    1UNL     H8   31  -0.030  -0.165  -0.209
    1UNL     H9   32  -0.201  -0.195  -0.251
    1UNL    H10   33  -0.123  -0.366  -0.110
    1UNL    H11   34  -0.194  -0.342   0.061
    1UNL    H12   35   0.092  -0.370  -0.042
    1UNL    H13   36   0.020  -0.375   0.113
    1UNL    H14   37   0.368   0.149  -0.001
    1UNL    H15   38   0.547   0.032  -0.069
    1UNL    H16   39   0.554  -0.214  -0.073
    1UNL    H17   40   0.338  -0.338  -0.048
    1UNL    H18   41   0.119   0.239   0.130
    1UNL    H19   42  -0.030   0.396  -0.098
    1UNL    H20   43   0.121   0.416  -0.006
    1UNL    H21   44   0.131   0.391  -0.179
    1UNL    H22   45  -0.118   0.289   0.064
    1UNL    H23   46  -0.101   0.184   0.200
    1UNL    H24   47  -0.164  -0.093   0.145
   0.00000   0.00000   0.00000   0.00000   0.00000   0.00000   0.00000   0.00000   0.00000
Generated with MDTraj, t= 86.0
 47
    1UNL     C1    1  -0.357   0.097   0.213
    1UNL     C2    2  -0.326   0.102   0.065
    1UNL     C3    3  -0.172   0.094   0.022
    1UNL     C4    4  -0.163   0.109  -0.130
    1UNL     C5    5  -0.139   0.015  -0.222
    1UNL     C6    6  -0.129  -0.122  -0.183
    1UNL     N1    7  -0.176  -0.158  -0.050
    1UNL     C7    8  -0.137  -0.300  -0.012
    1UNL     C8    9   0.011  -0.314  -0.001
    1UNL     C9   10   0.094  -0.191   0.045
    1UNL    C10   11   0.020  -0.075   0.068
    1UNL     N2   12   0.109   0.029   0.069
    1UNL    C11   13   0.241  -0.008   0.036
    1UNL    C12   14   0.361   0.055   0.003
    1UNL    C13   15   0.469  -0.022  -0.036
    1UNL    C14   16   0.465  -0.162  -0.037
    1UNL    C15   17   0.349  -0.229  -0.002
    1UNL    C16   18   0.232  -0.152   0.036
    1UNL    C17   19   0.066   0.166   0.053
    1UNL     O1   20   0.084   0.214  -0.083
    1UNL    C18   21   0.098   0.356  -0.115
    1UNL    C19   22  -0.079   0.183   0.096
    1UNL    C20   23  -0.131  -0.059   0.059
    1UNL     H1   24  -0.462   0.111   0.231
    1UNL     H2   25  -0.299   0.176   0.272
    1UNL     H3   26  -0.323  -0.005   0.258
    1UNL     H4   27  -0.370   0.206   0.040
    1UNL     H5   28  -0.387   0.025   0.009
    1UNL     H6   29  -0.197   0.207  -0.168
    1UNL     H7   30  -0.157   0.032  -0.324
    1UNL     H8   31  -0.020  -0.134  -0.181
    1UNL     H9   32  -0.177  -0.187  -0.263
    1UNL    H10   33  -0.166  -0.370  -0.097
    1UNL    H11   34  -0.174  -0.325   0.087
    1UNL    H12   35   0.058  -0.345  -0.101
    1UNL    H13   36   0.045  -0.392   0.064
    1UNL    H14   37   0.365   0.166   0.003
    1UNL    H15   38   0.564   0.034  -0.051
    1UNL    H16   39   0.557  -0.222  -0.044
    1UNL    H17   40   0.360  -0.333   0.016
    1UNL    H18   41   0.132   0.228   0.114
    1UNL    H19   42   0.007   0.415  -0.094
    1UNL    H20   43   0.180   0.397  -0.053
    1UNL    H21   44   0.130   0.354  -0.219
    1UNL    H22   45  -0.092   0.293   0.081
    1UNL    H23   46  -0.095   0.167   0.202
    1UNL    H24   47  -0.173  -0.088   0.153
   0.00000   0.00000   0.00000   0.00000   0.00000   0.00000   0.00000   0.00000   0.00000
Generated with MDTraj, t= 87.0
 47
    1UNL     C1    1  -0.346   0.075   0.220
    1UNL     C2    2  -0.322   0.107   0.069
    1UNL     C3    3  -0.176   0.083   0.025
    1UNL     C4    4  -0.180   0.102  -0.128
    1UNL     C5    5  -0.173   0.006  -0.219
    1UNL     C6    6  -0.151  -0.142  -0.187
    1UNL     N1    7  -0.172  -0.168  -0.042
    1UNL     C7    8  -0.143  -0.307  -0.004
    1UNL     C8    9   0.016  -0.315   0.012
    1UNL     C9   10   0.094  -0.180   0.029
    1UNL    C10   11   0.028  -0.065   0.049
    1UNL     N2   12   0.112   0.042   0.050
    1UNL    C11   13   0.244  -0.008   0.022
    1UNL    C12   14   0.371   0.052   0.034
    1UNL    C13   15   0.478  -0.034   0.013
    1UNL    C14   16   0.466  -0.171  -0.026
    1UNL    C15   17   0.343  -0.228  -0.023
    1UNL    C16   18   0.233  -0.147   0.011
    1UNL    C17   19   0.063   0.184   0.041
    1UNL     O1   20   0.101   0.232  -0.097
    1UNL    C18   21   0.113   0.378  -0.107
    1UNL    C19   22  -0.088   0.192   0.084
    1UNL    C20   23  -0.126  -0.061   0.059
    1UNL     H1   24  -0.449   0.103   0.247
    1UNL     H2   25  -0.265   0.127   0.284
    1UNL     H3   26  -0.334  -0.032   0.234
    1UNL     H4   27  -0.346   0.218   0.041
    1UNL     H5   28  -0.398   0.048   0.010
    1UNL     H6   29  -0.169   0.201  -0.164
    1UNL     H7   30  -0.155   0.039  -0.326
    1UNL     H8   31  -0.053  -0.178  -0.220
    1UNL     H9   32  -0.235  -0.193  -0.245
    1UNL    H10   33  -0.173  -0.368  -0.095
    1UNL    H11   34  -0.192  -0.334   0.090
    1UNL    H12   35   0.070  -0.378  -0.065
    1UNL    H13   36   0.046  -0.373   0.101
    1UNL    H14   37   0.378   0.150   0.078
    1UNL    H15   38   0.575   0.009   0.009
    1UNL    H16   39   0.561  -0.217  -0.033
    1UNL    H17   40   0.326  -0.336  -0.024
    1UNL    H18   41   0.127   0.234   0.118
    1UNL    H19   42   0.067   0.435  -0.022
    1UNL    H20   43   0.222   0.404  -0.105
    1UNL    H21   44   0.078   0.393  -0.209
    1UNL    H22   45  -0.130   0.291   0.074
    1UNL    H23   46  -0.076   0.182   0.194
    1UNL    H24   47  -0.162  -0.095   0.154
   0.00000   0.00000   0.00000   0.00000   0.00000   0.00000   0.00000   0.00000   0.00000
Generated with MDTraj, t= 88.0
 47
    1UNL     C1    1  -0.332   0.081   0.211
    1UNL     C2    2  -0.313   0.101   0.065
    1UNL     C3    3  -0.172   0.080   0.011
    1UNL     C4    4  -0.180   0.097  -0.138
    1UNL     C5    5  -0.193  -0.004  -0.225
    1UNL     C6    6  -0.203  -0.150  -0.175
    1UNL     N1    7  -0.190  -0.168  -0.028
    1UNL     C7    8  -0.131  -0.292   0.014
    1UNL     C8    9   0.019  -0.308  -0.016
    1UNL     C9   10   0.094  -0.181   0.007
    1UNL    C10   11   0.020  -0.068   0.029
    1UNL     N2   12   0.113   0.034   0.031
    1UNL    C11   13   0.246  -0.011   0.014
    1UNL    C12   14   0.373   0.055   0.027
    1UNL    C13   15   0.487  -0.024   0.015
    1UNL    C14   16   0.472  -0.169   0.010
    1UNL    C15   17   0.352  -0.231   0.006
    1UNL    C16   18   0.235  -0.152   0.011
    1UNL    C17   19   0.072   0.178   0.043
    1UNL     O1   20   0.095   0.246  -0.088
    1UNL    C18   21   0.116   0.385  -0.079
    1UNL    C19   22  -0.075   0.186   0.083
    1UNL    C20   23  -0.121  -0.061   0.050
    1UNL     H1   24  -0.439   0.078   0.250
    1UNL     H2   25  -0.272   0.153   0.275
    1UNL     H3   26  -0.297  -0.014   0.244
    1UNL     H4   27  -0.357   0.196   0.017
    1UNL     H5   28  -0.364   0.024  -0.000
    1UNL     H6   29  -0.153   0.200  -0.168
    1UNL     H7   30  -0.192   0.021  -0.325
    1UNL     H8   31  -0.123  -0.208  -0.222
    1UNL     H9   32  -0.299  -0.207  -0.195
    1UNL    H10   33  -0.181  -0.383  -0.031
    1UNL    H11   34  -0.142  -0.285   0.122
    1UNL    H12   35   0.044  -0.331  -0.123
    1UNL    H13   36   0.068  -0.395   0.034
    1UNL    H14   37   0.377   0.162   0.022
    1UNL    H15   38   0.580   0.022  -0.017
    1UNL    H16   39   0.561  -0.232  -0.008
    1UNL    H17   40   0.352  -0.338   0.006
    1UNL    H18   41   0.137   0.236   0.116
    1UNL    H19   42   0.027   0.445  -0.049
    1UNL    H20   43   0.193   0.406   0.000
    1UNL    H21   44   0.161   0.400  -0.177
    1UNL    H22   45  -0.099   0.287   0.066
    1UNL    H23   46  -0.085   0.186   0.194
    1UNL    H24   47  -0.134  -0.073   0.157
   0.00000   0.00000   0.00000   0.00000   0.00000   0.00000   0.00000   0.00000   0.00000
Generated with MDTraj, t= 89.0
 47
    1UNL     C1    1  -0.348   0.109   0.205
    1UNL     C2    2  -0.318   0.104   0.057
    1UNL     C3    3  -0.168   0.087   0.009
    1UNL     C4    4  -0.151   0.086  -0.138
    1UNL     C5    5  -0.178  -0.021  -0.215
    1UNL     C6    6  -0.228  -0.150  -0.156
    1UNL     N1    7  -0.184  -0.181  -0.019
    1UNL     C7    8  -0.122  -0.312   0.000
    1UNL     C8    9   0.032  -0.317  -0.014
    1UNL     C9   10   0.093  -0.186   0.012
    1UNL    C10   11   0.023  -0.068   0.027
    1UNL     N2   12   0.114   0.034   0.030
    1UNL    C11   13   0.244  -0.012   0.003
    1UNL    C12   14   0.367   0.051   0.020
    1UNL    C13   15   0.478  -0.023   0.014
    1UNL    C14   16   0.471  -0.163   0.004
    1UNL    C15   17   0.346  -0.226  -0.007
    1UNL    C16   18   0.231  -0.150  -0.001
    1UNL    C17   19   0.073   0.174   0.038
    1UNL     O1   20   0.111   0.252  -0.079
    1UNL    C18   21   0.106   0.392  -0.056
    1UNL    C19   22  -0.075   0.192   0.084
    1UNL    C20   23  -0.122  -0.057   0.052
    1UNL     H1   24  -0.465   0.114   0.218
    1UNL     H2   25  -0.295   0.200   0.237
    1UNL     H3   26  -0.310   0.021   0.253
    1UNL     H4   27  -0.349   0.204   0.012
    1UNL     H5   28  -0.387   0.032   0.004
    1UNL     H6   29  -0.137   0.183  -0.180
    1UNL     H7   30  -0.180  -0.009  -0.327
    1UNL     H8   31  -0.204  -0.241  -0.213
    1UNL     H9   32  -0.341  -0.145  -0.150
    1UNL    H10   33  -0.174  -0.387  -0.067
    1UNL    H11   34  -0.135  -0.334   0.107
    1UNL    H12   35   0.054  -0.352  -0.116
    1UNL    H13   36   0.083  -0.395   0.051
    1UNL    H14   37   0.373   0.160   0.005
    1UNL    H15   38   0.576   0.026   0.010
    1UNL    H16   39   0.557  -0.224   0.013
    1UNL    H17   40   0.332  -0.332  -0.012
    1UNL    H18   41   0.139   0.226   0.116
    1UNL    H19   42   0.007   0.436  -0.042
    1UNL    H20   43   0.164   0.421   0.035
    1UNL    H21   44   0.162   0.429  -0.139
    1UNL    H22   45  -0.106   0.292   0.073
    1UNL    H23   46  -0.090   0.192   0.195
    1UNL    H24   47  -0.138  -0.059   0.160
   0.00000   0.00000   0.00000   0.00000   0.00000   0.00000   0.00000   0.00000   0.00000
Generated with MDTraj, t= 90.0
 47
    1UNL     C1    1  -0.367   0.122   0.181
    1UNL     C2    2  -0.326   0.102   0.035
    1UNL     C3    3  -0.165   0.083   0.005
    1UNL     C4    4  -0.154   0.086  -0.146
    1UNL     C5    5  -0.158  -0.026  -0.214
    1UNL     C6    6  -0.197  -0.153  -0.160
    1UNL     N1    7  -0.180  -0.173  -0.013
    1UNL     C7    8  -0.127  -0.306   0.029
    1UNL     C8    9   0.026  -0.316  -0.008
    1UNL     C9   10   0.093  -0.185   0.019
    1UNL    C10   11   0.033  -0.067   0.046
    1UNL     N2   12   0.120   0.044   0.050
    1UNL    C11   13   0.244  -0.009   0.030
    1UNL    C12   14   0.366   0.054   0.023
    1UNL    C13   15   0.473  -0.028  -0.010
    1UNL    C14   16   0.457  -0.161  -0.051
    1UNL    C15   17   0.338  -0.232  -0.040
    1UNL    C16   18   0.232  -0.155   0.014
    1UNL    C17   19   0.068   0.178   0.055
    1UNL     O1   20   0.115   0.246  -0.065
    1UNL    C18   21   0.109   0.388  -0.043
    1UNL    C19   22  -0.085   0.187   0.081
    1UNL    C20   23  -0.117  -0.054   0.054
    1UNL     H1   24  -0.484   0.114   0.188
    1UNL     H2   25  -0.327   0.215   0.212
    1UNL     H3   26  -0.325   0.037   0.239
    1UNL     H4   27  -0.370   0.179  -0.037
    1UNL     H5   28  -0.382   0.008   0.001
    1UNL     H6   29  -0.110   0.168  -0.203
    1UNL     H7   30  -0.134  -0.032  -0.315
    1UNL     H8   31  -0.128  -0.224  -0.210
    1UNL     H9   32  -0.303  -0.174  -0.191
    1UNL    H10   33  -0.183  -0.390  -0.025
    1UNL    H11   34  -0.151  -0.323   0.134
    1UNL    H12   35   0.045  -0.349  -0.111
    1UNL    H13   36   0.068  -0.396   0.062
    1UNL    H14   37   0.360   0.159   0.029
    1UNL    H15   38   0.569   0.014  -0.007
    1UNL    H16   39   0.551  -0.219  -0.051
    1UNL    H17   40   0.324  -0.338  -0.062
    1UNL    H18   41   0.123   0.224   0.145
    1UNL    H19   42   0.018   0.424   0.005
    1UNL    H20   43   0.193   0.425   0.017
    1UNL    H21   44   0.120   0.434  -0.137
    1UNL    H22   45  -0.136   0.276   0.056
    1UNL    H23   46  -0.105   0.191   0.190
    1UNL    H24   47  -0.148  -0.062   0.159
   0.00000   0.00000   0.00000   0.00000   0.00000   0.00000   0.00000   0.00000   0.00000
Generated with MDTraj, t= 91.0
 47
    1UNL     C1    1  -0.377   0.106   0.155
    1UNL     C2    2  -0.316   0.098   0.022
    1UNL     C3    3  -0.161   0.083   0.006
    1UNL     C4    4  -0.129   0.091  -0.139
    1UNL     C5    5  -0.120  -0.019  -0.211
    1UNL     C6    6  -0.173  -0.151  -0.168
    1UNL     N1    7  -0.186  -0.168  -0.018
    1UNL     C7    8  -0.131  -0.300   0.029
    1UNL     C8    9   0.024  -0.322   0.027
    1UNL     C9   10   0.088  -0.189   0.036
    1UNL    C10   11   0.019  -0.076   0.071
    1UNL     N2   12   0.100   0.036   0.062
    1UNL    C11   13   0.231  -0.010   0.028
    1UNL    C12   14   0.346   0.062  -0.009
    1UNL    C13   15   0.454  -0.006  -0.051
    1UNL    C14   16   0.449  -0.148  -0.069
    1UNL    C15   17   0.332  -0.213  -0.046
    1UNL    C16   18   0.227  -0.151   0.020
    1UNL    C17   19   0.071   0.179   0.069
    1UNL     O1   20   0.098   0.236  -0.060
    1UNL    C18   21   0.152   0.359  -0.040
    1UNL    C19   22  -0.082   0.189   0.092
    1UNL    C20   23  -0.128  -0.057   0.069
    1UNL     H1   24  -0.488   0.128   0.167
    1UNL     H2   25  -0.329   0.176   0.218
    1UNL     H3   26  -0.369   0.009   0.216
    1UNL     H4   27  -0.346   0.189  -0.038
    1UNL     H5   28  -0.357   0.016  -0.046
    1UNL     H6   29  -0.102   0.185  -0.180
    1UNL     H7   30  -0.064  -0.024  -0.308
    1UNL     H8   31  -0.129  -0.240  -0.217
    1UNL     H9   32  -0.279  -0.152  -0.204
    1UNL    H10   33  -0.181  -0.375  -0.039
    1UNL    H11   34  -0.171  -0.323   0.128
    1UNL    H12   35   0.046  -0.378  -0.064
    1UNL    H13   36   0.065  -0.391   0.113
    1UNL    H14   37   0.350   0.173  -0.012
    1UNL    H15   38   0.548   0.050  -0.075
    1UNL    H16   39   0.536  -0.207  -0.087
    1UNL    H17   40   0.332  -0.319  -0.055
    1UNL    H18   41   0.141   0.221   0.148
    1UNL    H19   42   0.073   0.428  -0.011
    1UNL    H20   43   0.230   0.357   0.038
    1UNL    H21   44   0.197   0.396  -0.127
    1UNL    H22   45  -0.109   0.292   0.079
    1UNL    H23   46  -0.113   0.176   0.197
    1UNL    H24   47  -0.163  -0.070   0.172
   0.00000   0.00000   0.00000   0.00000   0.00000   0.00000   0.00000   0.00000   0.00000
Generated with MDTraj, t= 92.0
 47
    1UNL     C1    1  -0.386   0.086   0.148
    1UNL     C2    2  -0.324   0.103   0.008
    1UNL     C3    3  -0.175   0.082   0.005
    1UNL     C4    4  -0.120   0.085  -0.137
    1UNL     C5    5  -0.128  -0.020  -0.216
    1UNL     C6    6  -0.170  -0.159  -0.162
    1UNL     N1    7  -0.179  -0.176  -0.014
    1UNL     C7    8  -0.123  -0.308   0.029
    1UNL     C8    9   0.026  -0.314   0.023
    1UNL     C9   10   0.091  -0.185   0.056
    1UNL    C10   11   0.021  -0.063   0.074
    1UNL     N2   12   0.111   0.046   0.076
    1UNL    C11   13   0.227  -0.008   0.024
    1UNL    C12   14   0.347   0.054  -0.020
    1UNL    C13   15   0.450  -0.023  -0.074
    1UNL    C14   16   0.437  -0.161  -0.076
    1UNL    C15   17   0.323  -0.226  -0.037
    1UNL    C16   18   0.222  -0.148   0.022
    1UNL    C17   19   0.074   0.188   0.067
    1UNL     O1   20   0.120   0.252  -0.045
    1UNL    C18   21   0.149   0.381  -0.015
    1UNL    C19   22  -0.083   0.197   0.074
    1UNL    C20   23  -0.124  -0.056   0.066
    1UNL     H1   24  -0.488   0.120   0.160
    1UNL     H2   25  -0.319   0.139   0.216
    1UNL     H3   26  -0.384  -0.024   0.184
    1UNL     H4   27  -0.345   0.211  -0.017
    1UNL     H5   28  -0.385   0.041  -0.066
    1UNL     H6   29  -0.097   0.185  -0.171
    1UNL     H7   30  -0.122  -0.001  -0.319
    1UNL     H8   31  -0.087  -0.229  -0.186
    1UNL     H9   32  -0.256  -0.213  -0.209
    1UNL    H10   33  -0.178  -0.393  -0.022
    1UNL    H11   34  -0.156  -0.318   0.133
    1UNL    H12   35   0.069  -0.342  -0.073
    1UNL    H13   36   0.063  -0.402   0.091
    1UNL    H14   37   0.346   0.160  -0.018
    1UNL    H15   38   0.525   0.013  -0.135
    1UNL    H16   39   0.516  -0.225  -0.115
    1UNL    H17   40   0.320  -0.336  -0.033
    1UNL    H18   41   0.125   0.237   0.153
    1UNL    H19   42   0.066   0.429   0.036
    1UNL    H20   43   0.245   0.391   0.037
    1UNL    H21   44   0.156   0.431  -0.109
    1UNL    H22   45  -0.111   0.300   0.054
    1UNL    H23   46  -0.105   0.192   0.180
    1UNL    H24   47  -0.162  -0.076   0.168
   0.00000   0.00000   0.00000   0.00000   0.00000   0.00000   0.00000   0.00000   0.00000
Generated with MDTraj, t= 93.0
 47
    1UNL     C1    1  -0.372   0.086   0.159
    1UNL     C2    2  -0.316   0.108   0.006
    1UNL     C3    3  -0.167   0.082   0.008
    1UNL     C4    4  -0.122   0.082  -0.143
    1UNL     C5    5  -0.133  -0.028  -0.214
    1UNL     C6    6  -0.178  -0.164  -0.155
    1UNL     N1    7  -0.190  -0.167  -0.009
    1UNL     C7    8  -0.141  -0.302   0.042
    1UNL     C8    9   0.013  -0.317   0.042
    1UNL     C9   10   0.084  -0.189   0.019
    1UNL    C10   11   0.028  -0.069   0.056
    1UNL     N2   12   0.111   0.040   0.036
    1UNL    C11   13   0.234  -0.011   0.006
    1UNL    C12   14   0.359   0.047  -0.015
    1UNL    C13   15   0.467  -0.030  -0.052
    1UNL    C14   16   0.456  -0.168  -0.064
    1UNL    C15   17   0.336  -0.226  -0.034
    1UNL    C16   18   0.223  -0.151   0.002
    1UNL    C17   19   0.070   0.178   0.056
    1UNL     O1   20   0.133   0.273  -0.037
    1UNL    C18   21   0.114   0.409   0.005
    1UNL    C19   22  -0.091   0.189   0.076
    1UNL    C20   23  -0.128  -0.055   0.063
    1UNL     H1   24  -0.477   0.089   0.166
    1UNL     H2   25  -0.325   0.157   0.236
    1UNL     H3   26  -0.344  -0.016   0.196
    1UNL     H4   27  -0.346   0.205  -0.040
    1UNL     H5   28  -0.365   0.023  -0.052
    1UNL     H6   29  -0.078   0.171  -0.183
    1UNL     H7   30  -0.100  -0.026  -0.319
    1UNL     H8   31  -0.116  -0.247  -0.197
    1UNL     H9   32  -0.280  -0.183  -0.193
    1UNL    H10   33  -0.202  -0.392   0.008
    1UNL    H11   34  -0.171  -0.293   0.146
    1UNL    H12   35   0.046  -0.403  -0.015
    1UNL    H13   36   0.049  -0.348   0.150
    1UNL    H14   37   0.373   0.154  -0.028
    1UNL    H15   38   0.553   0.024  -0.102
    1UNL    H16   39   0.543  -0.218  -0.103
    1UNL    H17   40   0.318  -0.330  -0.038
    1UNL    H18   41   0.109   0.199   0.155
    1UNL    H19   42   0.008   0.428  -0.022
    1UNL    H20   43   0.142   0.419   0.112
    1UNL    H21   44   0.167   0.484  -0.052
    1UNL    H22   45  -0.131   0.287   0.049
    1UNL    H23   46  -0.099   0.192   0.182
    1UNL    H24   47  -0.158  -0.060   0.169
   0.00000   0.00000   0.00000   0.00000   0.00000   0.00000   0.00000   0.00000   0.00000
Generated with MDTraj, t= 94.0
 47
    1UNL     C1    1  -0.367   0.112   0.168
    1UNL     C2    2  -0.318   0.104   0.030
    1UNL     C3    3  -0.165   0.082   0.007
    1UNL     C4    4  -0.148   0.077  -0.142
    1UNL     C5    5  -0.154  -0.036  -0.206
    1UNL     C6    6  -0.201  -0.167  -0.151
    1UNL     N1    7  -0.192  -0.176  -0.009
    1UNL     C7    8  -0.126  -0.307   0.038
    1UNL     C8    9   0.017  -0.312  -0.003
    1UNL     C9   10   0.088  -0.182   0.016
    1UNL    C10   11   0.023  -0.069   0.037
    1UNL     N2   12   0.112   0.040   0.033
    1UNL    C11   13   0.241  -0.006   0.004
    1UNL    C12   14   0.364   0.052  -0.012
    1UNL    C13   15   0.473  -0.026  -0.046
    1UNL    C14   16   0.465  -0.167  -0.032
    1UNL    C15   17   0.346  -0.235  -0.015
    1UNL    C16   18   0.226  -0.154  -0.002
    1UNL    C17   19   0.075   0.177   0.058
    1UNL     O1   20   0.126   0.266  -0.038
    1UNL    C18   21   0.114   0.406  -0.002
    1UNL    C19   22  -0.082   0.191   0.069
    1UNL    C20   23  -0.127  -0.061   0.055
    1UNL     H1   24  -0.470   0.139   0.173
    1UNL     H2   25  -0.315   0.196   0.230
    1UNL     H3   26  -0.361   0.029   0.234
    1UNL     H4   27  -0.330   0.206  -0.016
    1UNL     H5   28  -0.383   0.039  -0.038
    1UNL     H6   29  -0.103   0.164  -0.188
    1UNL     H7   30  -0.125  -0.046  -0.309
    1UNL     H8   31  -0.139  -0.248  -0.195
    1UNL     H9   32  -0.303  -0.177  -0.190
    1UNL    H10   33  -0.184  -0.391  -0.010
    1UNL    H11   34  -0.137  -0.328   0.143
    1UNL    H12   35   0.034  -0.345  -0.106
    1UNL    H13   36   0.072  -0.391   0.062
    1UNL    H14   37   0.379   0.160  -0.022
    1UNL    H15   38   0.563   0.023  -0.064
    1UNL    H16   39   0.555  -0.224  -0.008
    1UNL    H17   40   0.348  -0.340   0.018
    1UNL    H18   41   0.121   0.201   0.150
    1UNL    H19   42   0.030   0.443  -0.068
    1UNL    H20   43   0.098   0.404   0.108
    1UNL    H21   44   0.197   0.474  -0.023
    1UNL    H22   45  -0.097   0.287   0.016
    1UNL    H23   46  -0.108   0.220   0.166
    1UNL    H24   47  -0.153  -0.068   0.162
   0.00000   0.00000   0.00000   0.00000   0.00000   0.00000   0.00000   0.00000   0.00000
Generated with MDTraj, t= 95.0
 47
    1UNL     C1    1  -0.349   0.119   0.190
    1UNL     C2    2  -0.315   0.096   0.043
    1UNL     C3    3  -0.167   0.079   0.001
    1UNL     C4    4  -0.154   0.072  -0.149
    1UNL     C5    5  -0.188  -0.030  -0.219
    1UNL     C6    6  -0.225  -0.161  -0.162
    1UNL     N1    7  -0.181  -0.172  -0.021
    1UNL     C7    8  -0.129  -0.310   0.013
    1UNL     C8    9   0.026  -0.316  -0.009
    1UNL     C9   10   0.092  -0.186   0.015
    1UNL    C10   11   0.021  -0.070   0.051
    1UNL     N2   12   0.112   0.034   0.057
    1UNL    C11   13   0.243  -0.008   0.022
    1UNL    C12   14   0.369   0.057   0.019
    1UNL    C13   15   0.482  -0.021  -0.004
    1UNL    C14   16   0.463  -0.153  -0.044
    1UNL    C15   17   0.343  -0.220  -0.028
    1UNL    C16   18   0.230  -0.142   0.008
    1UNL    C17   19   0.070   0.181   0.058
    1UNL     O1   20   0.124   0.250  -0.056
    1UNL    C18   21   0.131   0.386  -0.039
    1UNL    C19   22  -0.084   0.196   0.064
    1UNL    C20   23  -0.123  -0.062   0.062
    1UNL     H1   24  -0.459   0.108   0.200
    1UNL     H2   25  -0.321   0.226   0.210
    1UNL     H3   26  -0.295   0.059   0.257
    1UNL     H4   27  -0.362   0.183  -0.008
    1UNL     H5   28  -0.374   0.008   0.003
    1UNL     H6   29  -0.135   0.169  -0.192
    1UNL     H7   30  -0.187  -0.021  -0.326
    1UNL     H8   31  -0.193  -0.244  -0.229
    1UNL     H9   32  -0.333  -0.174  -0.148
    1UNL    H10   33  -0.167  -0.382  -0.064
    1UNL    H11   34  -0.168  -0.344   0.108
    1UNL    H12   35   0.040  -0.353  -0.113
    1UNL    H13   36   0.071  -0.396   0.057
    1UNL    H14   37   0.380   0.161   0.023
    1UNL    H15   38   0.589   0.015   0.007
    1UNL    H16   39   0.554  -0.209  -0.051
    1UNL    H17   40   0.332  -0.325  -0.043
    1UNL    H18   41   0.129   0.219   0.138
    1UNL    H19   42   0.031   0.434  -0.046
    1UNL    H20   43   0.184   0.400   0.058
    1UNL    H21   44   0.190   0.435  -0.119
    1UNL    H22   45  -0.107   0.295   0.017
    1UNL    H23   46  -0.109   0.210   0.164
    1UNL    H24   47  -0.160  -0.066   0.167
   0.00000   0.00000   0.00000   0.00000   0.00000   0.00000   0.00000   0.00000   0.00000
Generated with MDTraj, t= 96.0
 47
    1UNL     C1    1  -0.359   0.116   0.205
    1UNL     C2    2  -0.323   0.114   0.047
    1UNL     C3    3  -0.170   0.080   0.017
    1UNL     C4    4  -0.150   0.086  -0.139
    1UNL     C5    5  -0.170  -0.015  -0.219
    1UNL     C6    6  -0.204  -0.153  -0.171
    1UNL     N1    7  -0.188  -0.170  -0.017
    1UNL     C7    8  -0.132  -0.303   0.009
    1UNL     C8    9   0.019  -0.306  -0.030
    1UNL     C9   10   0.101  -0.186   0.017
    1UNL    C10   11   0.030  -0.071   0.048
    1UNL     N2   12   0.115   0.033   0.061
    1UNL    C11   13   0.243  -0.010   0.035
    1UNL    C12   14   0.361   0.059   0.048
    1UNL    C13   15   0.473  -0.011   0.009
    1UNL    C14   16   0.466  -0.149  -0.030
    1UNL    C15   17   0.351  -0.216  -0.038
    1UNL    C16   18   0.235  -0.149   0.005
    1UNL    C17   19   0.062   0.174   0.047
    1UNL     O1   20   0.093   0.222  -0.084
    1UNL    C18   21   0.134   0.355  -0.078
    1UNL    C19   22  -0.082   0.191   0.085
    1UNL    C20   23  -0.113  -0.059   0.065
    1UNL     H1   24  -0.470   0.129   0.218
    1UNL     H2   25  -0.312   0.191   0.254
    1UNL     H3   26  -0.328   0.025   0.257
    1UNL     H4   27  -0.356   0.193  -0.023
    1UNL     H5   28  -0.372   0.014   0.025
    1UNL     H6   29  -0.106   0.179  -0.170
    1UNL     H7   30  -0.154  -0.002  -0.328
    1UNL     H8   31  -0.138  -0.232  -0.211
    1UNL     H9   32  -0.301  -0.185  -0.207
    1UNL    H10   33  -0.195  -0.382  -0.041
    1UNL    H11   34  -0.142  -0.334   0.112
    1UNL    H12   35   0.027  -0.302  -0.143
    1UNL    H13   36   0.064  -0.403  -0.001
    1UNL    H14   37   0.363   0.168   0.063
    1UNL    H15   38   0.565   0.036  -0.008
    1UNL    H16   39   0.552  -0.204  -0.066
    1UNL    H17   40   0.345  -0.318  -0.076
    1UNL    H18   41   0.133   0.223   0.110
    1UNL    H19   42   0.092   0.427  -0.004
    1UNL    H20   43   0.242   0.355  -0.061
    1UNL    H21   44   0.118   0.392  -0.179
    1UNL    H22   45  -0.123   0.289   0.057
    1UNL    H23   46  -0.090   0.187   0.190
    1UNL    H24   47  -0.137  -0.066   0.173
   0.00000   0.00000   0.00000   0.00000   0.00000   0.00000   0.00000   0.00000   0.00000
Generated with MDTraj, t= 97.0
 47
    1UNL     C1    1  -0.369   0.084   0.206
    1UNL     C2    2  -0.325   0.097   0.065
    1UNL     C3    3  -0.171   0.088   0.024
    1UNL     C4    4  -0.161   0.098  -0.129
    1UNL     C5    5  -0.163   0.003  -0.219
    1UNL     C6    6  -0.200  -0.137  -0.178
    1UNL     N1    7  -0.185  -0.166  -0.027
    1UNL     C7    8  -0.124  -0.299  -0.012
    1UNL     C8    9   0.033  -0.310  -0.010
    1UNL     C9   10   0.093  -0.172   0.016
    1UNL    C10   11   0.023  -0.064   0.053
    1UNL     N2   12   0.113   0.035   0.062
    1UNL    C11   13   0.241  -0.007   0.032
    1UNL    C12   14   0.366   0.054   0.025
    1UNL    C13   15   0.480  -0.023   0.000
    1UNL    C14   16   0.472  -0.164  -0.019
    1UNL    C15   17   0.351  -0.220  -0.021
    1UNL    C16   18   0.235  -0.146   0.015
    1UNL    C17   19   0.069   0.177   0.047
    1UNL     O1   20   0.080   0.215  -0.092
    1UNL    C18   21   0.139   0.347  -0.102
    1UNL    C19   22  -0.079   0.201   0.098
    1UNL    C20   23  -0.128  -0.055   0.060
    1UNL     H1   24  -0.476   0.115   0.211
    1UNL     H2   25  -0.325   0.147   0.274
    1UNL     H3   26  -0.359  -0.012   0.260
    1UNL     H4   27  -0.362   0.188   0.020
    1UNL     H5   28  -0.366   0.018  -0.003
    1UNL     H6   29  -0.143   0.198  -0.168
    1UNL     H7   30  -0.130   0.013  -0.319
    1UNL     H8   31  -0.133  -0.207  -0.233
    1UNL     H9   32  -0.299  -0.165  -0.207
    1UNL    H10   33  -0.166  -0.376  -0.081
    1UNL    H11   34  -0.160  -0.335   0.082
    1UNL    H12   35   0.061  -0.349  -0.115
    1UNL    H13   36   0.068  -0.382   0.063
    1UNL    H14   37   0.375   0.157   0.042
    1UNL    H15   38   0.575   0.027  -0.025
    1UNL    H16   39   0.560  -0.219  -0.052
    1UNL    H17   40   0.332  -0.325  -0.043
    1UNL    H18   41   0.143   0.232   0.105
    1UNL    H19   42   0.085   0.437  -0.069
    1UNL    H20   43   0.222   0.354  -0.034
    1UNL    H21   44   0.170   0.363  -0.204
    1UNL    H22   45  -0.119   0.298   0.074
    1UNL    H23   46  -0.085   0.197   0.206
    1UNL    H24   47  -0.151  -0.067   0.169
   0.00000   0.00000   0.00000   0.00000   0.00000   0.00000   0.00000   0.00000   0.00000
Generated with MDTraj, t= 98.0
 47
    1UNL     C1    1  -0.333   0.066   0.216
    1UNL     C2    2  -0.319   0.105   0.074
    1UNL     C3    3  -0.172   0.088   0.011
    1UNL     C4    4  -0.179   0.098  -0.140
    1UNL     C5    5  -0.184  -0.003  -0.223
    1UNL     C6    6  -0.156  -0.140  -0.181
    1UNL     N1    7  -0.182  -0.165  -0.035
    1UNL     C7    8  -0.137  -0.300   0.006
    1UNL     C8    9   0.016  -0.315   0.004
    1UNL     C9   10   0.087  -0.184   0.018
    1UNL    C10   11   0.021  -0.063   0.032
    1UNL     N2   12   0.113   0.036   0.055
    1UNL    C11   13   0.238  -0.011   0.037
    1UNL    C12   14   0.361   0.057   0.018
    1UNL    C13   15   0.472  -0.019  -0.011
    1UNL    C14   16   0.461  -0.161  -0.019
    1UNL    C15   17   0.340  -0.235  -0.005
    1UNL    C16   18   0.228  -0.153   0.026
    1UNL    C17   19   0.074   0.180   0.042
    1UNL     O1   20   0.107   0.234  -0.088
    1UNL    C18   21   0.128   0.374  -0.076
    1UNL    C19   22  -0.079   0.194   0.075
    1UNL    C20   23  -0.124  -0.058   0.044
    1UNL     H1   24  -0.422   0.118   0.245
    1UNL     H2   25  -0.247   0.108   0.268
    1UNL     H3   26  -0.326  -0.042   0.228
    1UNL     H4   27  -0.340   0.211   0.075
    1UNL     H5   28  -0.394   0.055   0.010
    1UNL     H6   29  -0.188   0.193  -0.188
    1UNL     H7   30  -0.211   0.009  -0.330
    1UNL     H8   31  -0.056  -0.177  -0.210
    1UNL     H9   32  -0.229  -0.200  -0.231
    1UNL    H10   33  -0.181  -0.371  -0.068
    1UNL    H11   34  -0.176  -0.337   0.098
    1UNL    H12   35   0.049  -0.355  -0.099
    1UNL    H13   36   0.054  -0.382   0.080
    1UNL    H14   37   0.375   0.165   0.038
    1UNL    H15   38   0.569   0.027  -0.027
    1UNL    H16   39   0.556  -0.210  -0.016
    1UNL    H17   40   0.333  -0.340  -0.005
    1UNL    H18   41   0.132   0.241   0.114
    1UNL    H19   42   0.067   0.423  -0.000
    1UNL    H20   43   0.220   0.394  -0.026
    1UNL    H21   44   0.115   0.426  -0.171
    1UNL    H22   45  -0.111   0.280   0.023
    1UNL    H23   46  -0.115   0.218   0.177
    1UNL    H24   47  -0.145  -0.077   0.152
   0.00000   0.00000   0.00000   0.00000   0.00000   0.00000   0.00000   0.00000   0.00000
Generated with MDTraj, t= 99.0
 47
    1UNL     C1    1  -0.345   0.088   0.219
    1UNL     C2    2  -0.317   0.104   0.064
    1UNL     C3    3  -0.168   0.084   0.013
    1UNL     C4    4  -0.184   0.103  -0.138
    1UNL     C5    5  -0.178  -0.003  -0.218
    1UNL     C6    6  -0.144  -0.140  -0.181
    1UNL     N1    7  -0.170  -0.171  -0.036
    1UNL     C7    8  -0.135  -0.305   0.008
    1UNL     C8    9   0.017  -0.321   0.019
    1UNL     C9   10   0.088  -0.188   0.017
    1UNL    C10   11   0.026  -0.069   0.041
    1UNL     N2   12   0.112   0.039   0.025
    1UNL    C11   13   0.241  -0.010   0.014
    1UNL    C12   14   0.368   0.048   0.005
    1UNL    C13   15   0.477  -0.033  -0.009
    1UNL    C14   16   0.461  -0.175  -0.011
    1UNL    C15   17   0.334  -0.237  -0.003
    1UNL    C16   18   0.224  -0.150   0.008
    1UNL    C17   19   0.063   0.182   0.035
    1UNL     O1   20   0.105   0.258  -0.083
    1UNL    C18   21   0.114   0.391  -0.055
    1UNL    C19   22  -0.084   0.191   0.077
    1UNL    C20   23  -0.121  -0.063   0.055
    1UNL     H1   24  -0.441   0.117   0.241
    1UNL     H2   25  -0.275   0.161   0.273
    1UNL     H3   26  -0.315  -0.009   0.254
    1UNL     H4   27  -0.354   0.199   0.029
    1UNL     H5   28  -0.375   0.030   0.007
    1UNL     H6   29  -0.184   0.205  -0.180
    1UNL     H7   30  -0.201   0.010  -0.318
    1UNL     H8   31  -0.038  -0.161  -0.203
    1UNL     H9   32  -0.193  -0.214  -0.241
    1UNL    H10   33  -0.173  -0.384  -0.060
    1UNL    H11   34  -0.184  -0.329   0.099
    1UNL    H12   35   0.068  -0.381  -0.066
    1UNL    H13   36   0.047  -0.363   0.113
    1UNL    H14   37   0.387   0.150  -0.013
    1UNL    H15   38   0.578   0.006  -0.007
    1UNL    H16   39   0.545  -0.244  -0.004
    1UNL    H17   40   0.331  -0.346   0.009
    1UNL    H18   41   0.123   0.219   0.124
    1UNL    H19   42   0.015   0.435  -0.045
    1UNL    H20   43   0.159   0.408   0.040
    1UNL    H21   44   0.160   0.441  -0.142
    1UNL    H22   45  -0.134   0.282   0.063
    1UNL    H23   46  -0.090   0.177   0.190
    1UNL    H24   47  -0.159  -0.094   0.157
   0.00000   0.00000   0.00000   0.00000   0.00000   0.00000   0.00000   0.00000   0.00000
