[ moleculetype ]
; name        nrexcl
res           1

[ atoms ]
;    nr  type  resnr resid  atom  cgnr     charge       mass
      1 TC3       1 res   C1        1      0.000     36.000
      2 TC5       1 res   C2        2      0.000     36.000
      3 TC5       1 res   C3        3      0.000     36.000
      4 TN6d      1 res   C4        4      0.000     36.000
      5 SC3       1 res   C5        5      0.000     54.000
      6 TN6a      1 res   C6        6      0.000     36.000
      7 TC5       1 res   C7        7      0.000     36.000
      8 TC5       1 res   C8        8      0.000     36.000
      9 TC5       1 res   C9        9      0.000     36.000
     10 TC3       1 res   C10      10      0.000     36.000
     11 TN3r      1 res   C11      11      0.000     36.000

[ constraints ]
;  ai    aj   funct      b0(nm)
    1     2     1      0.24951
    2     3     1      0.30403
    2     6     1      0.21911
    7     9     1      0.25016
    5     7     1      0.36229
    3     4     1      0.25981
    7     8     1      0.24989
    5     6     1      0.32611
    6     7     1      0.18198
    6    10     1      0.25315
    2     4     1      0.28630
    2    10     1      0.26615
    8     9     1      0.29170

[ bonds ]
;  ai    aj   funct      b0(nm)          k(kJ/mol/nm^2)
   10    11     1      0.26849          17957.6
    4     5     1      0.26970          16116.0

[ angles ]
;  ai    aj    ak  funct     th0(deg)        k(kJ/mol/rad^2)
    1     2     3     1     94.65954          1726.26
    1     2     4     1    108.61592           122.06
    1     2     6     1    150.01436           781.58
    1     2    10     1     88.31570          1455.29
    2     3     4     1     60.42585          4993.68
    2     4     3     1     67.46473          4102.98
    2     4     5     1     73.35092          2100.42
    2     6     5     1     72.11188          2558.10
    2     6     7     1    157.61839          1220.64
    2     6    10     1     68.16693          2229.48
    2    10     6     1     49.82598          5991.68
    2    10    11     1    136.01611           238.82
    3     2     4     1     52.10937          7795.52
    3     2     6     1     82.35813           712.31
    3     2    10     1     81.05139          1579.20
    3     4     5     1    122.63725           103.09
    4     2     6     1     92.72272           185.74
    4     2    10     1    129.67346           332.80
    4     5     6     1     75.60850           520.02
    4     5     7     1     94.14563           175.01
    5     6     7     1     86.03916          3336.06
    5     6    10     1    140.12633          1708.39
    5     7     6     1     63.89250          4243.02
    5     7     8     1    167.98658           585.16
    5     7     9     1     98.73712          1782.83
    6     2    10     1     62.00728          2538.46
    6     5     7     1     30.06836         17414.02
    6     7     8     1    125.59494          1924.64
    6     7     9     1    161.99008          1357.82
    6    10    11     1    104.32446           416.22
    7     6    10     1    133.48584          1490.35
    7     8     9     1     54.35616          9945.38
    7     9     8     1     54.26817         11415.47
    8     7     9     1     71.37570          6514.65

[ dihedrals ]
;  ai    aj    ak    al  funct   phi0(deg)        k(kJ/mol)   mult
    1     2     3     4     1     64.77288       15.723      1
    1     2     4     3     1   -103.70690       13.575      1
    1     2     4     5     1     39.22914       11.462      1
    1     2     6     5     1     -3.65311       15.014      1
    1     2     6     7     1      0.06206       20.906      1
    1     2     6    10     1    178.05140       14.985      1
    1     2    10     6     1     -1.98305        9.276      1
    1     2    10    11     1     62.02198       16.445      1
    2     3     4     5     1    136.12548       16.350      1
    2     4     5     6     1    142.99368        7.094      1
    2     4     5     7     1    118.11687       10.826      1
    2     6     5     4     1   -127.03035       12.926      1
    2     6     5     7     1     -1.02427       10.017      1
    2     6     7     5     1    178.46016       17.730      1
    2     6     7     8     1     -9.45938       22.911      1
    2     6     7     9     1    173.67374       26.783      1
    2     6    10    11     1     40.95523       14.390      1
    2    10     6     5     1    179.06078       10.060      1
    2    10     6     7     1     -1.98620       12.240      1
    3     2     4     5     1    -38.20201       17.026      1
    3     2     6     5     1     84.91286        7.091      1
    3     2     6     7     1     85.07247       18.461      1
    3     2     6    10     1    -96.91789        5.536      1
    3     2    10     6     1     94.14106        7.804      1
    3     2    10    11     1    157.47993       15.054      1
    3     4     2     6     1     98.30622       12.169      1
    3     4     2    10     1    154.15012       17.850      1
    3     4     5     6     1   -175.64607       18.349      1
    3     4     5     7     1    161.92652       20.923      1
    4     2     6     5     1    135.88693        6.303      1
    4     2     6     7     1    135.94465       20.388      1
    4     2     6    10     1    -45.95670        6.232      1
    4     2    10     6     1    112.91833       12.960      1
    4     2    10    11     1    174.22602       21.709      1
    4     3     2     6     1    -84.78381       14.372      1
    4     3     2    10     1    -21.82573       16.450      1
    4     5     6     7     1     54.88928       15.782      1
    4     5     6    10     1   -127.83962       16.418      1
    4     5     7     6     1   -129.96111       12.271      1
    4     5     7     8     1     64.39773       31.947      1
    4     5     7     9     1     48.99522       14.317      1
    5     4     2     6     1   -119.86715       12.197      1
    5     4     2    10     1    -64.99058        7.025      1
    5     6     2    10     1     -0.95582        7.077      1
    5     6     7     8     1     -6.36798       13.613      1
    5     6     7     9     1    177.51992       22.797      1
    5     6    10    11     1     39.49849       16.279      1
    5     7     6    10     1      0.97011       10.076      1
    5     7     8     9     1    167.52636       28.443      1
    5     7     9     8     1     -5.20310       11.499      1
    6     2    10    11     1   -117.85909       16.473      1
    6     5     7     8     1     13.45913       28.545      1
    6     5     7     9     1     -0.92728       10.033      1
    6     7     8     9     1      2.91673       12.913      1
    6     7     9     8     1     -4.65273       24.615      1
    7     5     6    10     1     -0.09071       12.218      1
    7     6     2    10     1      1.80783       20.412      1
    7     6    10    11     1   -141.88971       15.042      1
    8     7     6    10     1    173.58255       14.986      1
    9     7     6    10     1     -0.08864       24.119      1
