[ moleculetype ]
; name        nrexcl
res           1

[ atoms ]
;    nr  type resnr resid  atom  cgnr     charge       mass
      1 TC5       1 res   C1        1      0.000     36.000
      2 TP1d      1 res   C2        2      0.000     36.000
      3 TC3       1 res   C3        3      0.000     36.000
      4 SC3       1 res   C4        4      0.000     54.000
      5 SC4       1 res   C5        5      0.000     54.000
      6 TN2a      1 res   C6        6      0.000     36.000
      7 SC3       1 res   C7        7      0.000     54.000
      8 SC4       1 res   C8        8      0.000     54.000
      9 SC4       1 res   C9        9      0.000     54.000
     10 SC3       1 res   C10      10      0.000     54.000
     11 SN4a      1 res   C11      11      0.000     54.000
     12 SC2       1 res   C12      12      0.000     54.000
     13 C1        1 res   C13      13      0.000     72.000
     14 C1        1 res   C14      14      0.000     72.000
     15 C1        1 res   C15      15      0.000     72.000
     16 C1        1 res   C16      16      0.000     72.000
     17 C1        1 res   C17      17      0.000     72.000
     18 TC3       1 res   C18      18      0.000     36.000

[ bonds ]
;  ai    aj   funct      b0(nm)        k
    1     2     1      0.28499    20000
    1     3     1      0.32322    20000
    3     4     1      0.27166    20000
    4     5     1      0.35662    20000
    4    18     1      0.39294    20000
    5     6     1      0.26665    20000
    5     7     1      0.30164    20000
    6     7     1      0.24714    20000
    7     8     1      0.28642    20000
    8     9     1      0.36345    20000
    8    10     1      0.29488    20000
    8    18     1      0.34495    20000
    9    10     1      0.35483    20000
   10    11     1      0.27602    20000
   11    12     1      0.30131    20000
   12    13     1      0.38418    20000
   13    14     1      0.37676    20000
   14    15     1      0.36011    20000
   15    16     1      0.44716    20000
   16    17     1      0.39572    20000
