1TPCN02878
12
    1res  C1    1   -0.218  -0.204  -0.244
    1res  C2    2   -0.320  -0.124   0.026
    1res  C3    3   -0.237   0.037   0.209
    1res  C4    4   -0.297   0.228   0.049
    1res  C5    5   -0.150   0.186  -0.267
    1res  C6    6   -0.064  -0.003  -0.034
    1res  C7    7   -0.016  -0.125   0.177
    1res  C8    8    0.097  -0.259  -0.042
    1res  C9    9    0.302   0.010   0.054
    1res  C10   10    0.533  -0.068  -0.108
    1res  C11   11    0.073   0.159   0.161
    1res  C12   12    0.293   0.142   0.222
  10.00000  10.00000  10.00000
