1TPCN04473
29
    1res  C1    1    1.305   0.007   0.215
    1res  C2    2    1.108  -0.117   0.003
    1res  C3    3    0.885  -0.092   0.012
    1res  C4    4    0.635  -0.048  -0.007
    1res  C5    5    0.780   0.170  -0.144
    1res  C6    6    0.364  -0.074   0.101
    1res  C7    7    0.154  -0.022   0.125
    1res  C8    8   -0.060  -0.077  -0.103
    1res  C9    9   -0.292  -0.258  -0.023
    1res  C10   10   -0.199  -0.283  -0.299
    1res  C11   11   -0.168  -0.496  -0.066
    1res  C12   12   -0.333  -0.020   0.158
    1res  C13   13   -0.634  -0.220   0.103
    1res  C14   14   -0.609   0.081   0.235
    1res  C15   15   -0.782   0.053  -0.077
    1res  C16   16   -1.021  -0.061  -0.026
    1res  C17   17   -1.124   0.172  -0.072
    1res  C18   18   -0.865   0.301  -0.181
    1res  C19   19   -1.023   0.419   0.028
    1res  C20   20   -0.636   0.279   0.058
    1res  C21   21   -0.335   0.073  -0.138
    1res  C22   22    0.106   0.180  -0.084
    1res  C23   23    0.125   0.302   0.110
    1res  C24   24    0.305   0.192   0.174
    1res  C25   25    0.639  -0.131   0.261
    1res  C26   26    0.836  -0.055   0.213
    1res  C27   27    1.109   0.080  -0.167
    1res  C28   28    1.314   0.005  -0.200
    1res  C29   29    1.401   0.086   0.008
  10.00000  10.00000  10.00000
