1TPCN05286
33
    1res  C1    1    0.152  -0.583  -0.098
    1res  C2    2    0.366  -0.406  -0.209
    1res  C3    3    0.314  -0.261   0.021
    1res  C4    4    0.544  -0.191   0.025
    1res  C5    5    0.726  -0.079   0.005
    1res  C6    6    0.828   0.190  -0.036
    1res  C7    7    1.058   0.251   0.070
    1res  C8    8    1.155   0.239   0.349
    1res  C9    9    1.335   0.184   0.114
    1res  C10   10    1.309   0.194  -0.111
    1res  C11   11    1.152   0.343  -0.138
    1res  C12   12    0.785  -0.005  -0.286
    1res  C13   13    0.971  -0.147  -0.215
    1res  C14   14    0.927  -0.271  -0.017
    1res  C15   15    0.294  -0.056  -0.203
    1res  C16   16    0.287   0.056   0.044
    1res  C17   17    0.092  -0.059   0.260
    1res  C18   18    0.035   0.157   0.038
    1res  C19   19   -0.202   0.146   0.160
    1res  C20   20   -0.330  -0.042   0.274
    1res  C21   21   -0.528  -0.020   0.121
    1res  C22   22   -0.762   0.188  -0.005
    1res  C23   23   -0.972   0.145  -0.086
    1res  C24   24   -1.016   0.074   0.113
    1res  C25   25   -1.242   0.067   0.037
    1res  C26   26   -1.355   0.228  -0.173
    1res  C27   27   -1.499  -0.029  -0.066
    1res  C28   28   -1.333  -0.221  -0.019
    1res  C29   29   -1.251  -0.141   0.193
    1res  C30   30   -0.851  -0.068   0.179
    1res  C31   31   -0.459   0.178  -0.033
    1res  C32   32   -0.116   0.103  -0.152
    1res  C33   33    0.040  -0.338  -0.042
  10.00000  10.00000  10.00000
