1TPCN06139
33
    1res  C1    1   -1.145  -0.190   0.312
    1res  C2    2   -0.977   0.053   0.190
    1res  C3    3   -0.872   0.021   0.026
    1res  C4    4   -0.761  -0.179  -0.105
    1res  C5    5   -1.059  -0.165  -0.162
    1res  C6    6   -0.468  -0.056  -0.098
    1res  C7    7   -0.257  -0.072  -0.026
    1res  C8    8    0.006   0.104  -0.162
    1res  C9    9    0.079  -0.143  -0.337
    1res  C10   10   -0.107   0.038  -0.451
    1res  C11   11   -0.123  -0.252  -0.493
    1res  C12   12    0.398  -0.067  -0.393
    1res  C13   13    0.286  -0.205  -0.041
    1res  C14   14    0.561  -0.149  -0.160
    1res  C15   15    0.410   0.111   0.060
    1res  C16   16    0.526  -0.037   0.278
    1res  C17   17    0.704   0.144   0.326
    1res  C18   18    0.908  -0.049   0.408
    1res  C19   19    0.931  -0.308   0.241
    1res  C20   20    1.081  -0.056   0.158
    1res  C21   21    1.169   0.113   0.313
    1res  C22   22    1.038   0.178   0.470
    1res  C23   23    0.625   0.326   0.178
    1res  C24   24    0.615   0.154  -0.160
    1res  C25   25    0.274   0.170  -0.339
    1res  C26   26   -0.085   0.137   0.122
    1res  C27   27   -0.308   0.149   0.210
    1res  C28   28   -0.406  -0.072   0.206
    1res  C29   29   -0.668   0.010  -0.295
    1res  C30   30   -0.788   0.161  -0.151
    1res  C31   31   -1.183   0.195   0.115
    1res  C32   32   -1.222   0.237   0.331
    1res  C33   33   -1.155   0.009   0.461
  10.00000  10.00000  10.00000
