1TPCN04706
23
    1res  C1    1    0.822   0.250  -0.130
    1res  C2    2    0.882  -0.003   0.004
    1res  C3    3    0.640   0.154   0.090
    1res  C4    4    0.770   0.009   0.313
    1res  C5    5    0.600  -0.231   0.062
    1res  C6    6    0.474  -0.055  -0.196
    1res  C7    7    0.319   0.180  -0.107
    1res  C8    8    0.232  -0.177  -0.133
    1res  C9    9    0.072   0.057   0.067
    1res  C10   10   -0.121   0.119  -0.097
    1res  C11   11   -0.270  -0.063  -0.028
    1res  C12   12   -0.557  -0.185  -0.009
    1res  C13   13   -0.664  -0.452   0.093
    1res  C14   14   -0.657  -0.331  -0.185
    1res  C15   15   -0.672  -0.100  -0.285
    1res  C16   16   -0.545   0.018  -0.120
    1res  C17   17   -0.743   0.231  -0.100
    1res  C18   18   -0.975   0.075  -0.034
    1res  C19   19   -0.850   0.372   0.077
    1res  C20   20   -0.721   0.217   0.223
    1res  C21   21   -0.512   0.283   0.065
    1res  C22   22   -0.172  -0.164   0.172
    1res  C23   23    0.206  -0.161   0.156
  10.00000  10.00000  10.00000
