[ moleculetype ]
; name        nrexcl
res           1

[ atoms ]
;    nr  type resnr resid  atom  cgnr     charge       mass
      1 TC4       1 res   C1        1      0.000     36.000
      2 TN4a      1 res   C2        2      0.000     36.000
      3 SN4a      1 res   C3        3      0.000     54.000
      4 SC5       1 res   C4        4      0.000     54.000
      5 TC3       1 res   C5        5      0.000     36.000
      6 SC4       1 res   C6        6      0.000     54.000
      7 SC4       1 res   C7        7      0.000     54.000
      8 TC3       1 res   C8        8      0.000     36.000
      9 SC4       1 res   C9        9      0.000     54.000
     10 SC4       1 res   C10      10      0.000     54.000
     11 SN6       1 res   C11      11      0.000     54.000
     12 TN6       1 res   C12      12      0.000     36.000
     13 SN4a      1 res   C13      13      0.000     54.000
     14 TP1       1 res   C14      14      0.000     36.000
     15 TN6       1 res   C15      15      0.000     36.000
     16 TN6       1 res   C16      16      0.000     36.000
     17 TN6       1 res   C17      17      0.000     36.000
     18 TC4       1 res   C18      18      0.000     36.000
     19 TP1       1 res   C19      19      0.000     36.000
     20 SN6       1 res   C20      20      0.000     54.000
     21 SN6       1 res   C21      21      0.000     54.000
     22 TN6       1 res   C22      22      0.000     36.000
     23 TN6       1 res   C23      23      0.000     36.000
     24 TN6       1 res   C24      24      0.000     36.000

[ bonds ]
;  ai    aj   funct      b0(nm)        k
    1     2     1      0.32124    20000
    1    24     1      0.24560    20000
    2     3     1      0.24820    20000
    2    22     1      0.22840    20000
    3     4     1      0.34746    20000
    4     5     1      0.27100    20000
    4     6     1      0.27999    20000
    4     7     1      0.28034    20000
    4    21     1      0.36576    20000
    5     6     1      0.29630    20000
    7     8     1      0.39430    20000
    7     9     1      0.30565    20000
    7    21     1      0.30691    20000
    8     9     1      0.37866    20000
    9    10     1      0.34415    20000
    9    20     1      0.30814    20000
   10    11     1      0.29614    20000
   10    18     1      0.38843    20000
   10    20     1      0.33359    20000
   11    12     1      0.24835    20000
   12    13     1      0.25836    20000
   12    18     1      0.27437    20000
   13    14     1      0.32509    20000
   13    15     1      0.24637    20000
   13    17     1      0.25254    20000
   15    16     1      0.22669    20000
   16    17     1      0.24768    20000
   18    19     1      0.28584    20000
   22    23     1      0.22053    20000
   23    24     1      0.23679    20000
