[ moleculetype ]
; name        nrexcl
res           1

[ atoms ]
;    nr  type  resnr resid  atom  cgnr     charge       mass
      1 TN6a      1 res   C1        1      0.000     36.000
      2 TN6a      1 res   C2        2      0.000     36.000
      3 X1        1 res   C3        3      0.000     72.000
      4 TC5       1 res   C4        4      0.000     36.000
      5 TX1       1 res   C5        5      0.000     36.000
      6 TX1       1 res   C6        6      0.000     36.000

[ constraints ]
;  ai    aj   funct      b0(nm)
    1     2     1      0.24214
    2     3     1      0.24661
    4     5     1      0.25256
    1     4     1      0.25244
    2     4     1      0.20771
    4     6     1      0.25455

[ bonds ]
;  ai    aj   funct      b0(nm)          k(kJ/mol/nm^2)

[ angles ]
;  ai    aj    ak  funct     th0(deg)        k(kJ/mol/rad^2)
    1     2     3     1     97.78909           773.80
    1     2     4     1     67.77938          4015.89
    1     4     2     1     62.61213          3710.56
    1     4     5     1    163.94107           765.69
    1     4     6     1    104.75820           672.87
    2     1     4     1     49.60846          7727.97
    2     4     5     1    102.81008           949.64
    2     4     6     1    166.40721           812.04
    3     2     4     1    164.64199           594.97
    5     4     6     1     89.77219          2682.88

[ dihedrals ]
;  ai    aj    ak    al  funct   phi0(deg)        k(kJ/mol)   mult
    1     2     4     5     1     -0.72571       12.928      1
    1     2     4     6     1   -175.54669       29.758      1
    1     4     2     3     1    175.64086       25.257      1
    2     1     4     5     1   -179.67052       27.819      1
    2     1     4     6     1      0.93423       10.022      1
    3     2     1     4     1     -3.05840       11.417      1
    3     2     4     5     1      0.08446       26.380      1
    3     2     4     6     1   -177.33827       30.747      1
