1TPCN00368
14
    1res  C1    1    0.391  -0.096  -0.239
    1res  C2    2    0.216  -0.215  -0.088
    1res  C3    3    0.048  -0.206   0.060
    1res  C4    4   -0.070  -0.165  -0.166
    1res  C5    5   -0.084  -0.047   0.016
    1res  C6    6   -0.231   0.069   0.032
    1res  C7    7   -0.330   0.213  -0.148
    1res  C8    8   -0.440   0.175   0.121
    1res  C9    9   -0.199  -0.055   0.217
    1res  C10   10   -0.161  -0.205   0.015
    1res  C11   11    0.088  -0.351   0.249
    1res  C12   12    0.163   0.006   0.104
    1res  C13   13    0.096   0.184  -0.194
    1res  C14   14   -0.057   0.366   0.110
  10.00000  10.00000  10.00000
