1TPCN06218
22
    1res  C1    1    0.410  -0.280   0.279
    1res  C2    2    0.443   0.010   0.323
    1res  C3    3    0.366  -0.074   0.051
    1res  C4    4    0.553   0.079   0.035
    1res  C5    5    0.751   0.101  -0.175
    1res  C6    6    0.837   0.317  -0.141
    1res  C7    7    0.971   0.075  -0.299
    1res  C8    8    0.928  -0.128  -0.263
    1res  C9    9    0.763  -0.195  -0.133
    1res  C10   10    0.225   0.145  -0.005
    1res  C11   11    0.175  -0.128  -0.146
    1res  C12   12    0.026  -0.146   0.216
    1res  C13   13   -0.074   0.046  -0.096
    1res  C14   14   -0.302  -0.057   0.144
    1res  C15   15   -0.368   0.192   0.070
    1res  C16   16   -0.589   0.051   0.056
    1res  C17   17   -0.798   0.174   0.108
    1res  C18   18   -1.046   0.315   0.081
    1res  C19   19   -1.102   0.121  -0.005
    1res  C20   20   -0.900   0.064  -0.144
    1res  C21   21   -0.534  -0.161  -0.063
    1res  C22   22   -0.170  -0.236  -0.089
  10.00000  10.00000  10.00000
