1TPCN01210
7
    1res  C1    1    0.360   0.067   0.029
    1res  C2    2    0.129  -0.048  -0.006
    1res  C3    3    0.016  -0.268  -0.116
    1res  C4    4   -0.123  -0.130   0.091
    1res  C5    5   -0.174  -0.006  -0.251
    1res  C6    6   -0.357   0.185  -0.043
    1res  C7    7   -0.228   0.154   0.160
  10.00000  10.00000  10.00000
