[ moleculetype ]
; name        nrexcl
res           1

[ atoms ]
;    nr  type  resnr resid  atom  cgnr     charge       mass
      1 TN1       1 res   C1        1      0.000     36.000
      2 TN6a      1 res   C2        2      0.000     36.000
      3 SX2       1 res   C3        3      0.000     54.000
      4 SN3a      1 res   C4        4      0.000     54.000

[ bonds ]
;  ai    aj   funct      b0(nm)          k(kJ/mol/nm^2)
    1     2     1      0.28416          57150.5
    1     3     1      0.29082          88088.7
    2     3     1      0.28675         211219.1
    3     4     1      0.25772          84123.4

[ angles ]
;  ai    aj    ak  funct     th0(deg)        k(kJ/mol/rad^2)
    1     2     3     1     61.24621          4115.79
    1     3     2     1     58.94112          3376.32
    1     3     4     1    149.58599          2286.58
    2     1     3     1     59.81267          6549.19
    2     3     4     1     91.20821          2684.81

[ dihedrals ]
;  ai    aj    ak    al  funct   phi0(deg)        k(kJ/mol)   mult
    1     2     3     4     1     -0.00292       10.819      1
    1     2     3     4     1    179.99409       10.505      2
    1     2     3     4     1     -0.00906        9.994      3
    2     1     3     4     1    179.42932       18.461      1
    2     1     3     4     1    178.74475       16.620      2
    2     1     3     4     1    177.78607       13.814      3
