1TPCN00384
14
    1res  C1    1    0.335   0.248  -0.162
    1res  C2    2    0.016   0.303  -0.128
    1res  C3    3   -0.115   0.205   0.026
    1res  C4    4   -0.165   0.070  -0.189
    1res  C5    5   -0.110  -0.006   0.007
    1res  C6    6   -0.149  -0.185   0.044
    1res  C7    7   -0.147  -0.375  -0.120
    1res  C8    8   -0.258  -0.385   0.151
    1res  C9    9   -0.212  -0.048   0.210
    1res  C10   10   -0.271   0.063  -0.012
    1res  C11   11   -0.190   0.362   0.193
    1res  C12   12    0.107   0.125   0.095
    1res  C13   13    0.194  -0.117  -0.188
    1res  C14   14    0.165  -0.283   0.164
  10.00000  10.00000  10.00000
