1TPCN04044
26
    1res  C1    1   -0.680   0.010  -0.416
    1res  C2    2   -0.713  -0.224  -0.243
    1res  C3    3   -1.025  -0.128  -0.009
    1res  C4    4   -1.011   0.082   0.180
    1res  C5    5   -0.869   0.287   0.248
    1res  C6    6   -0.918   0.267  -0.039
    1res  C7    7   -0.526  -0.023  -0.182
    1res  C8    8   -0.487  -0.350  -0.037
    1res  C9    9   -0.593  -0.044   0.145
    1res  C10   10   -0.401   0.145   0.062
    1res  C11   11   -0.170   0.075  -0.143
    1res  C12   12   -0.202   0.070   0.236
    1res  C13   13    0.061   0.039   0.190
    1res  C14   14    0.185   0.115  -0.053
    1res  C15   15    0.345  -0.068  -0.008
    1res  C16   16    0.617  -0.186   0.031
    1res  C17   17    0.847  -0.183  -0.057
    1res  C18   18    0.820   0.030   0.045
    1res  C19   19    1.045   0.094  -0.004
    1res  C20   20    1.282  -0.113  -0.049
    1res  C21   21    1.268   0.191  -0.142
    1res  C22   22    1.187   0.322   0.040
    1res  C23   23    0.978   0.332  -0.088
    1res  C24   24    0.635   0.136   0.063
    1res  C25   25    0.241  -0.232   0.144
    1res  C26   26   -0.125  -0.198   0.166
  10.00000  10.00000  10.00000
