[ moleculetype ]
; name        nrexcl
res           1

[ atoms ]
;    nr  type  resnr resid  atom  cgnr     charge       mass
      1 TN4a      1 res   C1        1      0.000     36.000
      2 TC5       1 res   C2        2      0.000     36.000
      3 TC5       1 res   C3        3      0.000     36.000
      4 SN6       1 res   C4        4      0.000     54.000
      5 SN6       1 res   C5        5      0.000     54.000
      6 SN3r      1 res   C6        6      0.000     54.000
      7 TC5       1 res   C7        7      0.000     36.000
      8 SN6       1 res   C8        8      0.000     54.000
      9 SN6       1 res   C9        9      0.000     54.000
     10 SP2       1 res   C10      10      0.000     54.000

[ constraints ]
;  ai    aj   funct      b0(nm)
    1     2     1      0.23560
    3     5     1      0.33953
    2     3     1      0.22748
    4     5     1      0.33016
    7     9     1      0.33874
    3     4     1      0.29654
    7     8     1      0.30095
    6     7     1      0.27437
    6    10     1      0.28565
    8     9     1      0.29654

[ bonds ]
;  ai    aj   funct      b0(nm)          k(kJ/mol/nm^2)
    1     6     1      0.22461          19602.3

[ angles ]
;  ai    aj    ak  funct     th0(deg)        k(kJ/mol/rad^2)
    1     2     3     1    142.72287           418.40
    1     6     7     1    145.87714            83.65
    1     6    10     1    120.28619           209.09
    2     1     6     1    113.27623           433.26
    2     3     4     1    157.73174           967.71
    2     3     5     1     96.55643          1357.35
    3     4     5     1     65.35391          5899.70
    3     5     4     1     52.53893          8899.11
    4     3     5     1     62.10716          5726.87
    6     7     8     1    137.71091           457.74
    6     7     9     1     84.86821           445.18
    7     6    10     1     77.37282           132.15
    7     8     9     1     69.07530          5897.44
    7     9     8     1     56.07482         11030.87
    8     7     9     1     54.84986          4454.08

[ dihedrals ]
;  ai    aj    ak    al  funct   phi0(deg)        k(kJ/mol)   mult
    1     2     3     4     1     -0.84329       27.867      1
    1     2     3     5     1     -2.79926       18.483      1
    1     6     7     8     1    167.49652       27.917      1
    1     6     7     9     1   -173.62697       30.613      1
    2     1     6     7     1      3.84703       22.526      1
    2     1     6    10     1   -114.23405       20.810      1
    2     3     4     5     1   -178.88977       24.360      1
    2     3     5     4     1      0.32312       13.566      1
    3     2     1     6     1    -18.19785       28.005      1
    6     7     8     9     1   -161.91902       15.069      1
    6     7     9     8     1     12.03644       10.768      1
    8     7     6    10     1    -60.84230       23.887      1
    9     7     6    10     1    -43.18160       23.966      1
