1TPCN06270
32
    1res  C1    1    1.564   0.006   0.049
    1res  C2    2    1.286  -0.068  -0.164
    1res  C3    3    1.048  -0.050  -0.009
    1res  C4    4    0.828  -0.191  -0.035
    1res  C5    5    0.579  -0.288  -0.065
    1res  C6    6    0.582   0.000  -0.111
    1res  C7    7    0.365   0.194  -0.155
    1res  C8    8    0.225   0.401  -0.043
    1res  C9    9    0.143   0.296   0.268
    1res  C10   10   -0.024   0.415   0.070
    1res  C11   11   -0.093   0.067  -0.060
    1res  C12   12   -0.214   0.234   0.258
    1res  C13   13   -0.379   0.285   0.060
    1res  C14   14   -0.457  -0.085   0.137
    1res  C15   15   -0.540   0.080   0.386
    1res  C16   16   -0.864   0.238   0.392
    1res  C17   17   -0.688  -0.131  -0.030
    1res  C18   18   -0.941  -0.251   0.006
    1res  C19   19   -1.170  -0.244  -0.106
    1res  C20   20   -1.328  -0.283  -0.331
    1res  C21   21   -1.192  -0.510  -0.308
    1res  C22   22   -1.207  -0.529  -0.060
    1res  C23   23   -0.754  -0.135  -0.267
    1res  C24   24   -0.854   0.085  -0.220
    1res  C25   25   -0.799   0.156  -0.015
    1res  C26   26    0.400   0.096   0.169
    1res  C27   27    0.480  -0.090  -0.291
    1res  C28   28    0.468  -0.108  -0.531
    1res  C29   29    0.567  -0.298  -0.329
    1res  C30   30    0.944  -0.368  -0.115
    1res  C31   31    1.113  -0.375   0.056
    1res  C32   32    1.160  -0.195   0.172
  10.00000  10.00000  10.00000
