1TPCN03290
6
    1res  C1    1    0.180  -0.192  -0.159
    1res  C2    2    0.004  -0.227   0.082
    1res  C3    3    0.014   0.132  -0.029
    1res  C4    4   -0.247   0.085   0.167
    1res  C5    5   -0.228   0.016  -0.157
    1res  C6    6    0.384   0.085   0.071
  10.00000  10.00000  10.00000
