1TPCN06318
27
    1res  C1    1   -0.403  -0.282  -0.205
    1res  C2    2   -0.201  -0.144   0.001
    1res  C3    3   -0.281   0.078  -0.063
    1res  C4    4   -0.497   0.237  -0.093
    1res  C5    5   -0.750   0.132  -0.186
    1res  C6    6   -0.890  -0.058  -0.036
    1res  C7    7   -0.958  -0.270   0.148
    1res  C8    8   -1.055   0.065   0.191
    1res  C9    9   -1.196   0.030  -0.011
    1res  C10   10   -1.068   0.076  -0.184
    1res  C11   11   -0.724   0.410  -0.035
    1res  C12   12   -0.655   0.298   0.152
    1res  C13   13   -0.442   0.276   0.182
    1res  C14   14   -0.021   0.029   0.129
    1res  C15   15    0.089   0.018  -0.160
    1res  C16   16    0.203  -0.288   0.017
    1res  C17   17    0.333  -0.047  -0.077
    1res  C18   18    0.448  -0.110   0.269
    1res  C19   19    0.639  -0.182   0.025
    1res  C20   20    0.801   0.013   0.089
    1res  C21   21    0.993  -0.030  -0.131
    1res  C22   22    1.212   0.063  -0.252
    1res  C23   23    1.045   0.241  -0.292
    1res  C24   24    0.923   0.261  -0.110
    1res  C25   25    0.708   0.082   0.306
    1res  C26   26    0.407   0.169   0.041
    1res  C27   27   -0.124  -0.390  -0.146
  10.00000  10.00000  10.00000
