1TPCN05496
36
    1res  C1    1    0.161   0.449   0.035
    1res  C2    2    0.305   0.287  -0.192
    1res  C3    3    0.046   0.270  -0.181
    1res  C4    4    0.147   0.074   0.006
    1res  C5    5    0.387  -0.098   0.144
    1res  C6    6    0.645  -0.204   0.042
    1res  C7    7    0.930  -0.163   0.204
    1res  C8    8    0.974   0.072   0.093
    1res  C9    9    1.149  -0.208   0.056
    1res  C10   10    1.343  -0.154   0.041
    1res  C11   11    1.536  -0.292   0.143
    1res  C12   12    1.663  -0.063   0.060
    1res  C13   13    1.551  -0.027  -0.138
    1res  C14   14    1.343   0.075  -0.072
    1res  C15   15    1.031  -0.349  -0.041
    1res  C16   16    0.856  -0.396   0.061
    1res  C17   17    0.577   0.070   0.068
    1res  C18   18    0.461   0.203   0.256
    1res  C19   19    0.299   0.061   0.310
    1res  C20   20   -0.000   0.015  -0.267
    1res  C21   21   -0.192   0.201  -0.318
    1res  C22   22   -0.326   0.350  -0.074
    1res  C23   23   -0.407   0.073  -0.203
    1res  C24   24   -0.626   0.122  -0.069
    1res  C25   25   -0.650   0.127   0.214
    1res  C26   26   -0.956   0.036   0.141
    1res  C27   27   -0.969   0.300   0.139
    1res  C28   28   -1.178   0.346   0.015
    1res  C29   29   -1.077   0.189  -0.139
    1res  C30   30   -1.134   0.019   0.028
    1res  C31   31   -1.171  -0.260   0.058
    1res  C32   32   -1.301  -0.499   0.031
    1res  C33   33   -1.372  -0.404  -0.151
    1res  C34   34   -1.259  -0.202  -0.201
    1res  C35   35   -0.679  -0.192   0.142
    1res  C36   36   -0.356  -0.133  -0.044
  10.00000  10.00000  10.00000
