[ moleculetype ]
; name        nrexcl
res           1

[ atoms ]
;    nr  type  resnr resid  atom  cgnr     charge       mass
      1 TC5       1 res   C1        1      0.000     36.000
      2 SN3r      1 res   C2        2      0.000     54.000
      3 SC2       1 res   C3        3      0.000     54.000
      4 SC2       1 res   C4        4      0.000     54.000
      5 SN4a      1 res   C5        5      0.000     54.000
      6 TN3r      1 res   C6        6      0.000     36.000
      7 TN4a      1 res   C7        7      0.000     36.000
      8 TC4       1 res   C8        8      0.000     36.000
      9 SN6       1 res   C9        9      0.000     54.000
     10 N4a       1 res   C10      10      0.000     72.000
     11 TC5       1 res   C11      11      0.000     36.000
     12 SN6       1 res   C12      12      0.000     54.000
     13 TC5       1 res   C13      13      0.000     36.000
     14 TN4a      1 res   C14      14      0.000     36.000
     15 TC4       1 res   C15      15      0.000     36.000
     16 SP4       1 res   C16      16      0.000     54.000
     17 TN6       1 res   C17      17      0.000     36.000
     18 TN6       1 res   C18      18      0.000     36.000
     19 SP4       1 res   C19      19      0.000     54.000
     20 TN6       1 res   C20      20      0.000     36.000

[ constraints ]
;  ai    aj   funct      b0(nm)
   11    13     1      0.29834
    7    18     1      0.23524
    5     6     1      0.30288
    6     7     1      0.25358
   10    11     1      0.24832
    2     3     1      0.27092
   11    12     1      0.30170
    9    18     1      0.24090
   14    17     1      0.23469
    7     8     1      0.30553
    3     4     1      0.32445
   12    13     1      0.28499

[ bonds ]
;  ai    aj   funct      b0(nm)          k(kJ/mol/nm^2)
    9    10     1      0.35344          11765.8
    5    19     1      0.27768           7171.6
   14    15     1      0.30485          14776.9
   19    20     1      0.28110           7001.0
   15    16     1      0.32246          12848.0
    1     2     1      0.30239          12216.3
   16    17     1      0.29077          17327.7
    5    20     1      0.26373          15327.4
    2     5     1      0.31424           2387.9
    9    14     1      0.28929          17005.9
    8     9     1      0.30195          17743.2

[ angles ]
;  ai    aj    ak  funct     th0(deg)        k(kJ/mol/rad^2)
    1     2     3     1     91.61739           206.86
    1     2     5     1     67.83440            65.37
    2     3     4     1    101.20802            42.67
    2     5     6     1    133.98270            26.97
    2     5    19     1    138.20560            21.96
    2     5    20     1     85.62134            35.69
    3     2     5     1     98.29193            73.77
    5     6     7     1    140.74305            33.61
    5    19    20     1     56.39826           610.29
    5    20    19     1     61.16726           556.19
    6     5    19     1     80.79999          1010.94
    6     5    20     1    138.38160           212.05
    6     7     8     1    166.68308           281.93
    6     7    18     1     67.70966           186.98
    7     8     9     1     53.47104          3285.81
    7    18     9     1     70.10780          1090.61
    8     7    18     1    111.13706           165.60
    8     9    10     1     91.41308           164.98
    8     9    14     1    116.02938           197.11
    8     9    18     1    110.55056           246.32
    9    10    11     1     78.73053           166.89
    9    14    15     1     89.78455            30.50
    9    14    17     1     99.65445           228.03
   10     9    14     1     99.48988            69.12
   10     9    18     1    155.86851           165.23
   10    11    12     1    159.22563           186.44
   10    11    13     1    110.56189           425.47
   11    12    13     1     61.05097         12138.54
   11    13    12     1     62.23864          9989.17
   12    11    13     1     56.71040          9314.68
   14     9    18     1     74.10011           168.34
   14    15    16     1     62.35379           820.95
   14    17    16     1     75.85889           202.82
   15    14    17     1    104.73143            54.85
   15    16    17     1     88.78040            66.32
   19     5    20     1     62.43478           615.94

[ dihedrals ]
;  ai    aj    ak    al  funct   phi0(deg)        k(kJ/mol)   mult
    1     2     3     4     1    -38.63295       22.416      1
    1     2     5     6     1   -168.57626       28.341      1
    1     2     5    19     1      0.91733       18.424      1
    1     2     5    20     1     -5.30433       31.917      1
    2     5     6     7     1   -112.52284       29.146      1
    2     5    19    20     1    173.14593       28.378      1
    2     5    20    19     1     14.27959       24.047      1
    3     2     5     6     1    102.05891       26.208      1
    3     2     5    19     1    -86.26253       21.563      1
    3     2     5    20     1    -92.59810       30.288      1
    4     3     2     5     1     29.92611       21.833      1
    5     6     7     8     1   -132.09692       20.912      1
    5     6     7    18     1    137.78608       30.074      1
    6     5    19    20     1      6.76890       20.963      1
    6     5    20    19     1    179.67834       24.388      1
    6     7     8     9     1     65.96368       30.102      1
    6     7    18     9     1     11.69398       20.418      1
    7     6     5    19     1     84.85061       26.764      1
    7     6     5    20     1     90.34963       29.118      1
    7     8     9    10     1     27.89432       20.853      1
    7     8     9    14     1    -70.18068       17.003      1
    7     8     9    18     1   -159.10121       21.087      1
    7    18     9     8     1    156.05531       22.968      1
    7    18     9    10     1    -42.03835       23.090      1
    7    18     9    14     1     36.13996       19.156      1
    8     7    18     9     1   -159.28780       20.292      1
    8     9    10    11     1     18.23217       20.123      1
    8     9    14    15     1   -113.45033       20.276      1
    8     9    14    17     1    145.71048       22.954      1
    9     8     7    18     1    158.98224       21.063      1
    9    10    11    12     1     10.53189        2.693      1
    9    10    11    13     1    -19.91207       20.198      1
    9    14    15    16     1     44.07062       23.230      1
    9    14    17    16     1    -59.37923       19.675      1
   10     9    14    15     1    151.39246       18.929      1
   10     9    14    17     1     51.70431       21.064      1
   10    11    12    13     1    176.45357       19.274      1
   10    11    13    12     1      2.15702       21.266      1
   11    10     9    14     1    135.49981       19.387      1
   11    10     9    18     1   -143.43941       25.465      1
   14    15    16    17     1   -158.36458       23.574      1
   14    17    16    15     1    155.35964       27.337      1
   15    14     9    18     1     -7.88126       19.083      1
   15    14    17    16     1   -156.74106       24.981      1
   16    15    14    17     1    154.43260       26.234      1
   17    14     9    18     1   -111.22860       22.377      1
