Generated with MDTraj, t= 0.0
 50
    1UNL     C1    1  -0.433   0.369  -0.035
    1UNL     O1    2  -0.443   0.233  -0.007
    1UNL     C2    3  -0.319   0.175  -0.016
    1UNL     O2    4  -0.217   0.237  -0.043
    1UNL     C3    5  -0.313   0.031   0.009
    1UNL     C4    6  -0.426  -0.038   0.036
    1UNL     O3    7  -0.440  -0.172   0.056
    1UNL     C5    8  -0.325  -0.250   0.016
    1UNL     C6    9  -0.328  -0.273  -0.135
    1UNL     C7   10  -0.195  -0.182   0.067
    1UNL     C8   11  -0.066  -0.265   0.046
    1UNL     N1   12   0.051  -0.178   0.010
    1UNL     C9   13   0.180  -0.250  -0.007
    1UNL    C10   14   0.287  -0.163  -0.074
    1UNL    C11   15   0.288  -0.026  -0.015
    1UNL    C12   16   0.185   0.024   0.062
    1UNL     N2   17   0.216   0.152   0.103
    1UNL    C13   18   0.340   0.186   0.051
    1UNL    C14   19   0.417   0.302   0.062
    1UNL    C15   20   0.539   0.307  -0.001
    1UNL    C16   21   0.586   0.197  -0.076
    1UNL    C17   22   0.512   0.083  -0.087
    1UNL    C18   23   0.388   0.076  -0.023
    1UNL    C19   24   0.061  -0.053   0.094
    1UNL    C20   25  -0.066   0.034   0.076
    1UNL    C21   26  -0.181  -0.041   0.005
    1UNL     H1   27  -0.366   0.415   0.038
    1UNL     H2   28  -0.532   0.414  -0.029
    1UNL     H3   29  -0.391   0.382  -0.135
    1UNL     H4   30  -0.519   0.018   0.044
    1UNL     H5   31  -0.336  -0.347   0.067
    1UNL     H6   32  -0.323  -0.178  -0.188
    1UNL     H7   33  -0.246  -0.336  -0.169
    1UNL     H8   34  -0.422  -0.321  -0.164
    1UNL     H9   35  -0.208  -0.166   0.175
    1UNL    H10   36  -0.080  -0.338  -0.034
    1UNL    H11   37  -0.041  -0.322   0.136
    1UNL    H12   38   0.161  -0.340  -0.066
    1UNL    H13   39   0.213  -0.283   0.092
    1UNL    H14   40   0.386  -0.208  -0.062
    1UNL    H15   41   0.268  -0.156  -0.181
    1UNL    H16   42   0.158   0.213   0.160
    1UNL    H17   43   0.380   0.386   0.119
    1UNL    H18   44   0.599   0.396   0.006
    1UNL    H19   45   0.682   0.204  -0.124
    1UNL    H20   46   0.548  -0.002  -0.144
    1UNL    H21   47   0.067  -0.087   0.198
    1UNL    H22   48  -0.101   0.072   0.172
    1UNL    H23   49  -0.040   0.124   0.018
    1UNL    H24   50  -0.152  -0.054  -0.101
   0.00000   0.00000   0.00000   0.00000   0.00000   0.00000   0.00000   0.00000   0.00000
Generated with MDTraj, t= 1.0
 50
    1UNL     C1    1  -0.420   0.384  -0.021
    1UNL     O1    2  -0.439   0.250   0.007
    1UNL     C2    3  -0.319   0.181  -0.007
    1UNL     O2    4  -0.211   0.233  -0.029
    1UNL     C3    5  -0.315   0.034   0.008
    1UNL     C4    6  -0.429  -0.030   0.032
    1UNL     O3    7  -0.443  -0.161   0.055
    1UNL     C5    8  -0.330  -0.248   0.029
    1UNL     C6    9  -0.339  -0.311  -0.110
    1UNL     C7   10  -0.195  -0.192   0.058
    1UNL     C8   11  -0.060  -0.266   0.023
    1UNL     N1   12   0.057  -0.186  -0.008
    1UNL     C9   13   0.190  -0.259  -0.005
    1UNL    C10   14   0.301  -0.171  -0.059
    1UNL    C11   15   0.294  -0.028  -0.007
    1UNL    C12   16   0.184   0.025   0.058
    1UNL     N2   17   0.208   0.156   0.093
    1UNL    C13   18   0.337   0.188   0.053
    1UNL    C14   19   0.404   0.308   0.048
    1UNL    C15   20   0.528   0.319  -0.010
    1UNL    C16   21   0.582   0.203  -0.059
    1UNL    C17   22   0.513   0.089  -0.074
    1UNL    C18   23   0.393   0.074  -0.005
    1UNL    C19   24   0.056  -0.059   0.072
    1UNL    C20   25  -0.059   0.030   0.034
    1UNL    C21   26  -0.192  -0.047  -0.008
    1UNL     H1   27  -0.421   0.446   0.071
    1UNL     H2   28  -0.498   0.407  -0.100
    1UNL     H3   29  -0.315   0.416  -0.044
    1UNL     H4   30  -0.519   0.038   0.059
    1UNL     H5   31  -0.349  -0.329   0.104
    1UNL     H6   32  -0.318  -0.245  -0.190
    1UNL     H7   33  -0.273  -0.398  -0.136
    1UNL     H8   34  -0.444  -0.342  -0.138
    1UNL     H9   35  -0.205  -0.175   0.166
    1UNL    H10   36  -0.080  -0.336  -0.065
    1UNL    H11   37  -0.035  -0.316   0.108
    1UNL    H12   38   0.186  -0.348  -0.063
    1UNL    H13   39   0.212  -0.288   0.101
    1UNL    H14   40   0.402  -0.219  -0.028
    1UNL    H15   41   0.307  -0.176  -0.166
    1UNL    H16   42   0.137   0.224   0.114
    1UNL    H17   43   0.373   0.372   0.130
    1UNL    H18   44   0.594   0.405   0.004
    1UNL    H19   45   0.688   0.209  -0.089
    1UNL    H20   46   0.543  -0.011  -0.109
    1UNL    H21   47   0.051  -0.102   0.171
    1UNL    H22   48  -0.100   0.098   0.108
    1UNL    H23   49  -0.034   0.090  -0.053
    1UNL    H24   50  -0.194  -0.060  -0.117
   0.00000   0.00000   0.00000   0.00000   0.00000   0.00000   0.00000   0.00000   0.00000
Generated with MDTraj, t= 2.0
 50
    1UNL     C1    1  -0.440   0.368   0.022
    1UNL     O1    2  -0.448   0.236  -0.011
    1UNL     C2    3  -0.315   0.177  -0.025
    1UNL     O2    4  -0.217   0.248  -0.045
    1UNL     C3    5  -0.311   0.036  -0.010
    1UNL     C4    6  -0.419  -0.029   0.034
    1UNL     O3    7  -0.432  -0.158   0.069
    1UNL     C5    8  -0.325  -0.238   0.036
    1UNL     C6    9  -0.352  -0.298  -0.106
    1UNL     C7   10  -0.190  -0.180   0.049
    1UNL     C8   11  -0.070  -0.270   0.027
    1UNL     N1   12   0.052  -0.186  -0.009
    1UNL     C9   13   0.188  -0.259  -0.006
    1UNL    C10   14   0.304  -0.176  -0.050
    1UNL    C11   15   0.298  -0.036  -0.004
    1UNL    C12   16   0.185   0.017   0.058
    1UNL     N2   17   0.199   0.153   0.084
    1UNL    C13   18   0.330   0.191   0.039
    1UNL    C14   19   0.393   0.314   0.034
    1UNL    C15   20   0.527   0.316  -0.001
    1UNL    C16   21   0.594   0.196  -0.050
    1UNL    C17   22   0.530   0.079  -0.055
    1UNL    C18   23   0.396   0.075  -0.006
    1UNL    C19   24   0.064  -0.056   0.069
    1UNL    C20   25  -0.057   0.037   0.042
    1UNL    C21   26  -0.180  -0.041  -0.023
    1UNL     H1   27  -0.409   0.374   0.127
    1UNL     H2   28  -0.539   0.420   0.006
    1UNL     H3   29  -0.365   0.427  -0.039
    1UNL     H4   30  -0.509   0.021   0.044
    1UNL     H5   31  -0.333  -0.328   0.102
    1UNL     H6   32  -0.374  -0.221  -0.173
    1UNL     H7   33  -0.273  -0.351  -0.165
    1UNL     H8   34  -0.448  -0.359  -0.108
    1UNL     H9   35  -0.185  -0.154   0.155
    1UNL    H10   36  -0.102  -0.340  -0.060
    1UNL    H11   37  -0.050  -0.320   0.111
    1UNL    H12   38   0.176  -0.336  -0.073
    1UNL    H13   39   0.216  -0.305   0.093
    1UNL    H14   40   0.408  -0.227  -0.028
    1UNL    H15   41   0.313  -0.176  -0.156
    1UNL    H16   42   0.128   0.201   0.135
    1UNL    H17   43   0.353   0.407   0.071
    1UNL    H18   44   0.569   0.415   0.004
    1UNL    H19   45   0.694   0.196  -0.085
    1UNL    H20   46   0.567  -0.009  -0.098
    1UNL    H21   47   0.061  -0.090   0.171
    1UNL    H22   48  -0.087   0.089   0.134
    1UNL    H23   49  -0.036   0.114  -0.032
    1UNL    H24   50  -0.159  -0.064  -0.127
   0.00000   0.00000   0.00000   0.00000   0.00000   0.00000   0.00000   0.00000   0.00000
Generated with MDTraj, t= 3.0
 50
    1UNL     C1    1  -0.439   0.367  -0.018
    1UNL     O1    2  -0.441   0.235   0.030
    1UNL     C2    3  -0.329   0.168  -0.009
    1UNL     O2    4  -0.239   0.230  -0.065
    1UNL     C3    5  -0.328   0.024   0.016
    1UNL     C4    6  -0.429  -0.056   0.055
    1UNL     O3    7  -0.441  -0.185   0.068
    1UNL     C5    8  -0.325  -0.251   0.013
    1UNL     C6    9  -0.341  -0.269  -0.143
    1UNL     C7   10  -0.193  -0.173   0.056
    1UNL     C8   11  -0.069  -0.253   0.024
    1UNL     N1   12   0.049  -0.173  -0.004
    1UNL     C9   13   0.179  -0.257   0.011
    1UNL    C10   14   0.300  -0.174  -0.041
    1UNL    C11   15   0.300  -0.026  -0.001
    1UNL    C12   16   0.186   0.030   0.050
    1UNL     N2   17   0.213   0.165   0.076
    1UNL    C13   18   0.348   0.195   0.039
    1UNL    C14   19   0.422   0.306   0.046
    1UNL    C15   20   0.554   0.308  -0.002
    1UNL    C16   21   0.604   0.190  -0.055
    1UNL    C17   22   0.533   0.069  -0.056
    1UNL    C18   23   0.398   0.078  -0.012
    1UNL    C19   24   0.058  -0.046   0.074
    1UNL    C20   25  -0.070   0.047   0.043
    1UNL    C21   26  -0.191  -0.036  -0.013
    1UNL     H1   27  -0.342   0.409   0.000
    1UNL     H2   28  -0.494   0.436   0.053
    1UNL     H3   29  -0.480   0.377  -0.124
    1UNL     H4   30  -0.518   0.002   0.076
    1UNL     H5   31  -0.337  -0.354   0.056
    1UNL     H6   32  -0.331  -0.170  -0.187
    1UNL     H7   33  -0.267  -0.331  -0.198
    1UNL     H8   34  -0.449  -0.292  -0.158
    1UNL     H9   35  -0.192  -0.149   0.163
    1UNL    H10   36  -0.086  -0.307  -0.074
    1UNL    H11   37  -0.051  -0.325   0.102
    1UNL    H12   38   0.171  -0.348  -0.034
    1UNL    H13   39   0.189  -0.289   0.120
    1UNL    H14   40   0.411  -0.217  -0.030
    1UNL    H15   41   0.307  -0.185  -0.147
    1UNL    H16   42   0.158   0.232   0.125
    1UNL    H17   43   0.368   0.399   0.045
    1UNL    H18   44   0.619   0.395  -0.013
    1UNL    H19   45   0.701   0.187  -0.107
    1UNL    H20   46   0.558  -0.026  -0.110
    1UNL    H21   47   0.049  -0.074   0.175
    1UNL    H22   48  -0.102   0.091   0.139
    1UNL    H23   49  -0.038   0.129  -0.021
    1UNL    H24   50  -0.173  -0.055  -0.119
   0.00000   0.00000   0.00000   0.00000   0.00000   0.00000   0.00000   0.00000   0.00000
Generated with MDTraj, t= 4.0
 50
    1UNL     C1    1  -0.465   0.353  -0.016
    1UNL     O1    2  -0.449   0.228   0.038
    1UNL     C2    3  -0.340   0.173  -0.021
    1UNL     O2    4  -0.261   0.234  -0.092
    1UNL     C3    5  -0.319   0.032   0.009
    1UNL     C4    6  -0.428  -0.043   0.054
    1UNL     O3    7  -0.434  -0.178   0.067
    1UNL     C5    8  -0.322  -0.249   0.002
    1UNL     C6    9  -0.327  -0.254  -0.145
    1UNL     C7   10  -0.192  -0.172   0.059
    1UNL     C8   11  -0.066  -0.256   0.036
    1UNL     N1   12   0.061  -0.174   0.011
    1UNL     C9   13   0.183  -0.252   0.005
    1UNL    C10   14   0.293  -0.172  -0.057
    1UNL    C11   15   0.292  -0.032  -0.005
    1UNL    C12   16   0.181   0.030   0.047
    1UNL     N2   17   0.218   0.161   0.073
    1UNL    C13   18   0.346   0.193   0.035
    1UNL    C14   19   0.429   0.307   0.054
    1UNL    C15   20   0.560   0.300   0.002
    1UNL    C16   21   0.609   0.178  -0.053
    1UNL    C17   22   0.530   0.066  -0.066
    1UNL    C18   23   0.392   0.074  -0.026
    1UNL    C19   24   0.063  -0.046   0.092
    1UNL    C20   25  -0.064   0.046   0.065
    1UNL    C21   26  -0.178  -0.033  -0.002
    1UNL     H1   27  -0.392   0.419   0.022
    1UNL     H2   28  -0.554   0.405   0.029
    1UNL     H3   29  -0.481   0.347  -0.126
    1UNL     H4   30  -0.531   0.001   0.086
    1UNL     H5   31  -0.327  -0.350   0.046
    1UNL     H6   32  -0.343  -0.145  -0.177
    1UNL     H7   33  -0.234  -0.289  -0.192
    1UNL     H8   34  -0.423  -0.302  -0.166
    1UNL     H9   35  -0.204  -0.149   0.167
    1UNL    H10   36  -0.082  -0.313  -0.055
    1UNL    H11   37  -0.036  -0.335   0.118
    1UNL    H12   38   0.163  -0.339  -0.046
    1UNL    H13   39   0.215  -0.285   0.109
    1UNL    H14   40   0.391  -0.241  -0.039
    1UNL    H15   41   0.308  -0.181  -0.162
    1UNL    H16   42   0.162   0.238   0.103
    1UNL    H17   43   0.388   0.403   0.084
    1UNL    H18   44   0.624   0.387   0.011
    1UNL    H19   45   0.712   0.172  -0.076
    1UNL    H20   46   0.558  -0.029  -0.098
    1UNL    H21   47   0.070  -0.071   0.194
    1UNL    H22   48  -0.095   0.086   0.164
    1UNL    H23   49  -0.043   0.133   0.003
    1UNL    H24   50  -0.162  -0.041  -0.110
   0.00000   0.00000   0.00000   0.00000   0.00000   0.00000   0.00000   0.00000   0.00000
Generated with MDTraj, t= 5.0
 50
    1UNL     C1    1  -0.462   0.363  -0.002
    1UNL     O1    2  -0.470   0.221  -0.012
    1UNL     C2    3  -0.340   0.176  -0.025
    1UNL     O2    4  -0.241   0.239  -0.058
    1UNL     C3    5  -0.317   0.034   0.004
    1UNL     C4    6  -0.429  -0.032   0.040
    1UNL     O3    7  -0.438  -0.169   0.063
    1UNL     C5    8  -0.325  -0.252   0.023
    1UNL     C6    9  -0.325  -0.281  -0.122
    1UNL     C7   10  -0.190  -0.173   0.065
    1UNL     C8   11  -0.064  -0.259   0.050
    1UNL     N1   12   0.051  -0.175   0.007
    1UNL     C9   13   0.178  -0.247  -0.013
    1UNL    C10   14   0.296  -0.159  -0.071
    1UNL    C11   15   0.292  -0.022  -0.019
    1UNL    C12   16   0.187   0.031   0.055
    1UNL     N2   17   0.223   0.157   0.092
    1UNL    C13   18   0.349   0.185   0.048
    1UNL    C14   19   0.427   0.297   0.057
    1UNL    C15   20   0.554   0.300   0.005
    1UNL    C16   21   0.605   0.184  -0.065
    1UNL    C17   22   0.534   0.071  -0.074
    1UNL    C18   23   0.403   0.069  -0.017
    1UNL    C19   24   0.060  -0.044   0.082
    1UNL    C20   25  -0.066   0.041   0.056
    1UNL    C21   26  -0.185  -0.038  -0.006
    1UNL     H1   27  -0.410   0.401   0.082
    1UNL     H2   28  -0.562   0.407   0.007
    1UNL     H3   29  -0.424   0.404  -0.094
    1UNL     H4   30  -0.527   0.007   0.048
    1UNL     H5   31  -0.329  -0.336   0.093
    1UNL     H6   32  -0.349  -0.180  -0.171
    1UNL     H7   33  -0.226  -0.311  -0.160
    1UNL     H8   34  -0.412  -0.339  -0.151
    1UNL     H9   35  -0.198  -0.150   0.173
    1UNL    H10   36  -0.063  -0.340  -0.020
    1UNL    H11   37  -0.027  -0.312   0.154
    1UNL    H12   38   0.165  -0.341  -0.063
    1UNL    H13   39   0.211  -0.270   0.090
    1UNL    H14   40   0.406  -0.201  -0.063
    1UNL    H15   41   0.286  -0.176  -0.176
    1UNL    H16   42   0.165   0.220   0.145
    1UNL    H17   43   0.399   0.369   0.128
    1UNL    H18   44   0.610   0.391   0.018
    1UNL    H19   45   0.708   0.179  -0.102
    1UNL    H20   46   0.583  -0.023  -0.106
    1UNL    H21   47   0.072  -0.064   0.184
    1UNL    H22   48  -0.102   0.097   0.146
    1UNL    H23   49  -0.032   0.113  -0.018
    1UNL    H24   50  -0.173  -0.062  -0.113
   0.00000   0.00000   0.00000   0.00000   0.00000   0.00000   0.00000   0.00000   0.00000
Generated with MDTraj, t= 6.0
 50
    1UNL     C1    1  -0.432   0.371  -0.052
    1UNL     O1    2  -0.450   0.230  -0.017
    1UNL     C2    3  -0.328   0.180  -0.003
    1UNL     O2    4  -0.227   0.245   0.011
    1UNL     C3    5  -0.317   0.029  -0.000
    1UNL     C4    6  -0.429  -0.037   0.035
    1UNL     O3    7  -0.445  -0.171   0.053
    1UNL     C5    8  -0.328  -0.254   0.032
    1UNL     C6    9  -0.332  -0.317  -0.104
    1UNL     C7   10  -0.194  -0.181   0.072
    1UNL     C8   11  -0.060  -0.261   0.051
    1UNL     N1   12   0.050  -0.174   0.002
    1UNL     C9   13   0.187  -0.242  -0.010
    1UNL    C10   14   0.289  -0.151  -0.087
    1UNL    C11   15   0.282  -0.012  -0.032
    1UNL    C12   16   0.188   0.030   0.060
    1UNL     N2   17   0.216   0.161   0.105
    1UNL    C13   18   0.344   0.185   0.054
    1UNL    C14   19   0.432   0.293   0.075
    1UNL    C15   20   0.551   0.297   0.010
    1UNL    C16   21   0.599   0.191  -0.067
    1UNL    C17   22   0.514   0.080  -0.092
    1UNL    C18   23   0.389   0.076  -0.021
    1UNL    C19   24   0.050  -0.040   0.072
    1UNL    C20   25  -0.069   0.042   0.033
    1UNL    C21   26  -0.189  -0.048  -0.018
    1UNL     H1   27  -0.405   0.447   0.016
    1UNL     H2   28  -0.522   0.408  -0.105
    1UNL     H3   29  -0.355   0.379  -0.127
    1UNL     H4   30  -0.511   0.026   0.049
    1UNL     H5   31  -0.341  -0.328   0.112
    1UNL     H6   32  -0.295  -0.249  -0.184
    1UNL     H7   33  -0.259  -0.404  -0.106
    1UNL     H8   34  -0.433  -0.344  -0.134
    1UNL     H9   35  -0.200  -0.162   0.181
    1UNL    H10   36  -0.066  -0.350  -0.011
    1UNL    H11   37  -0.008  -0.296   0.151
    1UNL    H12   38   0.173  -0.333  -0.073
    1UNL    H13   39   0.227  -0.278   0.084
    1UNL    H14   40   0.391  -0.208  -0.091
    1UNL    H15   41   0.267  -0.145  -0.192
    1UNL    H16   42   0.168   0.191   0.191
    1UNL    H17   43   0.410   0.365   0.158
    1UNL    H18   44   0.621   0.381   0.010
    1UNL    H19   45   0.692   0.202  -0.119
    1UNL    H20   46   0.537  -0.010  -0.144
    1UNL    H21   47   0.052  -0.061   0.176
    1UNL    H22   48  -0.095   0.105   0.120
    1UNL    H23   49  -0.041   0.109  -0.047
    1UNL    H24   50  -0.170  -0.081  -0.120
   0.00000   0.00000   0.00000   0.00000   0.00000   0.00000   0.00000   0.00000   0.00000
Generated with MDTraj, t= 7.0
 50
    1UNL     C1    1  -0.430   0.368  -0.060
    1UNL     O1    2  -0.440   0.227  -0.057
    1UNL     C2    3  -0.318   0.180  -0.015
    1UNL     O2    4  -0.227   0.256   0.009
    1UNL     C3    5  -0.309   0.035   0.009
    1UNL     C4    6  -0.423  -0.036   0.034
    1UNL     O3    7  -0.446  -0.172   0.055
    1UNL     C5    8  -0.326  -0.249   0.036
    1UNL     C6    9  -0.328  -0.309  -0.101
    1UNL     C7   10  -0.199  -0.183   0.082
    1UNL     C8   11  -0.065  -0.258   0.050
    1UNL     N1   12   0.050  -0.175  -0.000
    1UNL     C9   13   0.178  -0.243  -0.028
    1UNL    C10   14   0.274  -0.154  -0.102
    1UNL    C11   15   0.290  -0.026  -0.031
    1UNL    C12   16   0.191   0.021   0.051
    1UNL     N2   17   0.224   0.146   0.102
    1UNL    C13   18   0.339   0.186   0.048
    1UNL    C14   19   0.421   0.294   0.083
    1UNL    C15   20   0.545   0.300   0.022
    1UNL    C16   21   0.586   0.200  -0.069
    1UNL    C17   22   0.511   0.090  -0.095
    1UNL    C18   23   0.388   0.085  -0.036
    1UNL    C19   24   0.065  -0.053   0.084
    1UNL    C20   25  -0.067   0.031   0.090
    1UNL    C21   26  -0.181  -0.044   0.012
    1UNL     H1   27  -0.382   0.428   0.017
    1UNL     H2   28  -0.537   0.403  -0.072
    1UNL     H3   29  -0.383   0.404  -0.150
    1UNL     H4   30  -0.521   0.027   0.043
    1UNL     H5   31  -0.329  -0.342   0.098
    1UNL     H6   32  -0.308  -0.242  -0.183
    1UNL     H7   33  -0.250  -0.393  -0.112
    1UNL     H8   34  -0.432  -0.347  -0.119
    1UNL     H9   35  -0.211  -0.170   0.190
    1UNL    H10   36  -0.089  -0.330  -0.031
    1UNL    H11   37  -0.036  -0.303   0.141
    1UNL    H12   38   0.152  -0.335  -0.094
    1UNL    H13   39   0.221  -0.284   0.059
    1UNL    H14   40   0.377  -0.200  -0.103
    1UNL    H15   41   0.242  -0.152  -0.207
    1UNL    H16   42   0.149   0.203   0.144
    1UNL    H17   43   0.389   0.373   0.145
    1UNL    H18   44   0.610   0.382   0.038
    1UNL    H19   45   0.689   0.203  -0.107
    1UNL    H20   46   0.552   0.020  -0.166
    1UNL    H21   47   0.084  -0.090   0.183
    1UNL    H22   48  -0.101   0.063   0.191
    1UNL    H23   49  -0.044   0.126   0.042
    1UNL    H24   50  -0.148  -0.055  -0.092
   0.00000   0.00000   0.00000   0.00000   0.00000   0.00000   0.00000   0.00000   0.00000
Generated with MDTraj, t= 8.0
 50
    1UNL     C1    1  -0.421   0.351  -0.075
    1UNL     O1    2  -0.438   0.220  -0.031
    1UNL     C2    3  -0.311   0.168  -0.016
    1UNL     O2    4  -0.210   0.231  -0.039
    1UNL     C3    5  -0.312   0.034   0.028
    1UNL     C4    6  -0.423  -0.040   0.050
    1UNL     O3    7  -0.442  -0.177   0.064
    1UNL     C5    8  -0.324  -0.248   0.020
    1UNL     C6    9  -0.323  -0.257  -0.131
    1UNL     C7   10  -0.192  -0.184   0.070
    1UNL     C8   11  -0.065  -0.262   0.047
    1UNL     N1   12   0.047  -0.174   0.019
    1UNL     C9   13   0.163  -0.239  -0.042
    1UNL    C10   14   0.268  -0.140  -0.097
    1UNL    C11   15   0.280  -0.020  -0.009
    1UNL    C12   16   0.181   0.022   0.073
    1UNL     N2   17   0.221   0.144   0.114
    1UNL    C13   18   0.342   0.184   0.058
    1UNL    C14   19   0.427   0.298   0.070
    1UNL    C15   20   0.543   0.301   0.004
    1UNL    C16   21   0.580   0.202  -0.084
    1UNL    C17   22   0.502   0.088  -0.099
    1UNL    C18   23   0.384   0.077  -0.026
    1UNL    C19   24   0.061  -0.060   0.111
    1UNL    C20   25  -0.058   0.032   0.094
    1UNL    C21   26  -0.179  -0.039   0.026
    1UNL     H1   27  -0.414   0.432  -0.001
    1UNL     H2   28  -0.517   0.374  -0.135
    1UNL     H3   29  -0.336   0.370  -0.141
    1UNL     H4   30  -0.519   0.004   0.059
    1UNL     H5   31  -0.337  -0.354   0.057
    1UNL     H6   32  -0.312  -0.163  -0.183
    1UNL     H7   33  -0.230  -0.312  -0.160
    1UNL     H8   34  -0.412  -0.305  -0.189
    1UNL     H9   35  -0.210  -0.176   0.178
    1UNL    H10   36  -0.092  -0.330  -0.039
    1UNL    H11   37  -0.050  -0.304   0.136
    1UNL    H12   38   0.141  -0.326  -0.117
    1UNL    H13   39   0.209  -0.285   0.039
    1UNL    H14   40   0.362  -0.192  -0.112
    1UNL    H15   41   0.230  -0.087  -0.187
    1UNL    H16   42   0.175   0.214   0.175
    1UNL    H17   43   0.378   0.395   0.087
    1UNL    H18   44   0.608   0.390   0.016
    1UNL    H19   45   0.676   0.198  -0.131
    1UNL    H20   46   0.529   0.009  -0.173
    1UNL    H21   47   0.064  -0.100   0.211
    1UNL    H22   48  -0.092   0.073   0.191
    1UNL    H23   49  -0.037   0.128   0.045
    1UNL    H24   50  -0.153  -0.035  -0.081
   0.00000   0.00000   0.00000   0.00000   0.00000   0.00000   0.00000   0.00000   0.00000
Generated with MDTraj, t= 9.0
 50
    1UNL     C1    1  -0.430   0.353  -0.073
    1UNL     O1    2  -0.440   0.231  -0.007
    1UNL     C2    3  -0.316   0.171  -0.028
    1UNL     O2    4  -0.214   0.219  -0.075
    1UNL     C3    5  -0.313   0.036   0.017
    1UNL     C4    6  -0.422  -0.031   0.042
    1UNL     O3    7  -0.430  -0.164   0.066
    1UNL     C5    8  -0.320  -0.248   0.010
    1UNL     C6    9  -0.326  -0.233  -0.143
    1UNL     C7   10  -0.188  -0.182   0.074
    1UNL     C8   11  -0.071  -0.274   0.058
    1UNL     N1   12   0.055  -0.183   0.027
    1UNL     C9   13   0.184  -0.250  -0.006
    1UNL    C10   14   0.276  -0.160  -0.091
    1UNL    C11   15   0.278  -0.027  -0.023
    1UNL    C12   16   0.184   0.019   0.066
    1UNL     N2   17   0.229   0.135   0.128
    1UNL    C13   18   0.349   0.171   0.070
    1UNL    C14   19   0.425   0.291   0.084
    1UNL    C15   20   0.531   0.311  -0.001
    1UNL    C16   21   0.563   0.217  -0.096
    1UNL    C17   22   0.490   0.103  -0.120
    1UNL    C18   23   0.383   0.078  -0.031
    1UNL    C19   24   0.064  -0.062   0.111
    1UNL    C20   25  -0.067   0.030   0.109
    1UNL    C21   26  -0.177  -0.040   0.023
    1UNL     H1   27  -0.332   0.405  -0.055
    1UNL     H2   28  -0.516   0.422  -0.039
    1UNL     H3   29  -0.430   0.346  -0.183
    1UNL     H4   30  -0.509   0.025   0.036
    1UNL     H5   31  -0.339  -0.356   0.035
    1UNL     H6   32  -0.328  -0.127  -0.174
    1UNL     H7   33  -0.236  -0.275  -0.189
    1UNL     H8   34  -0.421  -0.275  -0.195
    1UNL     H9   35  -0.205  -0.171   0.182
    1UNL    H10   36  -0.099  -0.325  -0.038
    1UNL    H11   37  -0.070  -0.344   0.132
    1UNL    H12   38   0.155  -0.343  -0.069
    1UNL    H13   39   0.225  -0.288   0.080
    1UNL    H14   40   0.378  -0.191  -0.092
    1UNL    H15   41   0.230  -0.145  -0.192
    1UNL    H16   42   0.190   0.180   0.214
    1UNL    H17   43   0.375   0.364   0.144
    1UNL    H18   44   0.583   0.403   0.001
    1UNL    H19   45   0.654   0.242  -0.150
    1UNL    H20   46   0.519   0.035  -0.193
    1UNL    H21   47   0.077  -0.096   0.213
    1UNL    H22   48  -0.106   0.055   0.209
    1UNL    H23   49  -0.051   0.130   0.067
    1UNL    H24   50  -0.129  -0.051  -0.076
   0.00000   0.00000   0.00000   0.00000   0.00000   0.00000   0.00000   0.00000   0.00000
Generated with MDTraj, t= 10.0
 50
    1UNL     C1    1  -0.420   0.375  -0.051
    1UNL     O1    2  -0.429   0.241  -0.009
    1UNL     C2    3  -0.306   0.178  -0.027
    1UNL     O2    4  -0.206   0.235  -0.061
    1UNL     C3    5  -0.307   0.036   0.001
    1UNL     C4    6  -0.422  -0.030   0.025
    1UNL     O3    7  -0.437  -0.160   0.060
    1UNL     C5    8  -0.327  -0.248   0.019
    1UNL     C6    9  -0.322  -0.289  -0.128
    1UNL     C7   10  -0.187  -0.183   0.067
    1UNL     C8   11  -0.062  -0.272   0.053
    1UNL     N1   12   0.056  -0.184   0.021
    1UNL     C9   13   0.183  -0.263  -0.020
    1UNL    C10   14   0.279  -0.161  -0.089
    1UNL    C11   15   0.275  -0.020  -0.022
    1UNL    C12   16   0.190   0.017   0.083
    1UNL     N2   17   0.228   0.136   0.149
    1UNL    C13   18   0.336   0.180   0.070
    1UNL    C14   19   0.411   0.298   0.073
    1UNL    C15   20   0.518   0.308  -0.007
    1UNL    C16   21   0.554   0.209  -0.101
    1UNL    C17   22   0.476   0.099  -0.109
    1UNL    C18   23   0.372   0.081  -0.021
    1UNL    C19   24   0.065  -0.057   0.109
    1UNL    C20   25  -0.060   0.035   0.085
    1UNL    C21   26  -0.177  -0.046   0.002
    1UNL     H1   27  -0.315   0.414  -0.063
    1UNL     H2   28  -0.471   0.426   0.035
    1UNL     H3   29  -0.475   0.404  -0.140
    1UNL     H4   30  -0.516   0.033   0.000
    1UNL     H5   31  -0.335  -0.344   0.074
    1UNL     H6   32  -0.312  -0.203  -0.203
    1UNL     H7   33  -0.246  -0.367  -0.141
    1UNL     H8   34  -0.428  -0.327  -0.143
    1UNL     H9   35  -0.184  -0.170   0.178
    1UNL    H10   36  -0.070  -0.344  -0.024
    1UNL    H11   37  -0.042  -0.328   0.143
    1UNL    H12   38   0.153  -0.355  -0.080
    1UNL    H13   39   0.230  -0.303   0.067
    1UNL    H14   40   0.376  -0.189  -0.067
    1UNL    H15   41   0.259  -0.142  -0.199
    1UNL    H16   42   0.161   0.201   0.197
    1UNL    H17   43   0.405   0.367   0.156
    1UNL    H18   44   0.572   0.405  -0.013
    1UNL    H19   45   0.639   0.223  -0.165
    1UNL    H20   46   0.517   0.016  -0.171
    1UNL    H21   47   0.066  -0.100   0.211
    1UNL    H22   48  -0.101   0.040   0.187
    1UNL    H23   49  -0.043   0.139   0.056
    1UNL    H24   50  -0.145  -0.067  -0.102
   0.00000   0.00000   0.00000   0.00000   0.00000   0.00000   0.00000   0.00000   0.00000
Generated with MDTraj, t= 11.0
 50
    1UNL     C1    1  -0.393   0.382  -0.024
    1UNL     O1    2  -0.422   0.242  -0.021
    1UNL     C2    3  -0.300   0.175  -0.021
    1UNL     O2    4  -0.193   0.231  -0.038
    1UNL     C3    5  -0.306   0.027   0.009
    1UNL     C4    6  -0.426  -0.033   0.025
    1UNL     O3    7  -0.454  -0.168   0.032
    1UNL     C5    8  -0.333  -0.250   0.026
    1UNL     C6    9  -0.330  -0.306  -0.117
    1UNL     C7   10  -0.197  -0.181   0.079
    1UNL     C8   11  -0.070  -0.265   0.070
    1UNL     N1   12   0.046  -0.190   0.016
    1UNL     C9   13   0.180  -0.250  -0.025
    1UNL    C10   14   0.276  -0.156  -0.091
    1UNL    C11   15   0.283  -0.020  -0.015
    1UNL    C12   16   0.188   0.017   0.074
    1UNL     N2   17   0.213   0.147   0.114
    1UNL    C13   18   0.338   0.186   0.060
    1UNL    C14   19   0.403   0.312   0.064
    1UNL    C15   20   0.514   0.324  -0.016
    1UNL    C16   21   0.570   0.214  -0.084
    1UNL    C17   22   0.502   0.097  -0.092
    1UNL    C18   23   0.385   0.077  -0.013
    1UNL    C19   24   0.056  -0.063   0.091
    1UNL    C20   25  -0.062   0.024   0.067
    1UNL    C21   26  -0.184  -0.058   0.002
    1UNL     H1   27  -0.325   0.403   0.062
    1UNL     H2   28  -0.491   0.429  -0.013
    1UNL     H3   29  -0.354   0.422  -0.113
    1UNL     H4   30  -0.513   0.030   0.037
    1UNL     H5   31  -0.350  -0.323   0.106
    1UNL     H6   32  -0.299  -0.230  -0.198
    1UNL     H7   33  -0.252  -0.388  -0.112
    1UNL     H8   34  -0.431  -0.338  -0.146
    1UNL     H9   35  -0.216  -0.145   0.185
    1UNL    H10   36  -0.080  -0.347   0.013
    1UNL    H11   37  -0.037  -0.304   0.171
    1UNL    H12   38   0.165  -0.341  -0.089
    1UNL    H13   39   0.225  -0.289   0.068
    1UNL    H14   40   0.369  -0.200  -0.086
    1UNL    H15   41   0.240  -0.131  -0.195
    1UNL    H16   42   0.184   0.177   0.210
    1UNL    H17   43   0.376   0.392   0.135
    1UNL    H18   44   0.558   0.419  -0.030
    1UNL    H19   45   0.665   0.226  -0.137
    1UNL    H20   46   0.547   0.018  -0.144
    1UNL    H21   47   0.056  -0.112   0.192
    1UNL    H22   48  -0.087   0.079   0.158
    1UNL    H23   49  -0.031   0.098  -0.006
    1UNL    H24   50  -0.173  -0.072  -0.109
   0.00000   0.00000   0.00000   0.00000   0.00000   0.00000   0.00000   0.00000   0.00000
Generated with MDTraj, t= 12.0
 50
    1UNL     C1    1  -0.419   0.380  -0.019
    1UNL     O1    2  -0.432   0.239  -0.003
    1UNL     C2    3  -0.309   0.181  -0.020
    1UNL     O2    4  -0.202   0.236  -0.041
    1UNL     C3    5  -0.301   0.033   0.004
    1UNL     C4    6  -0.411  -0.037   0.025
    1UNL     O3    7  -0.439  -0.173   0.040
    1UNL     C5    8  -0.324  -0.252   0.016
    1UNL     C6    9  -0.328  -0.291  -0.129
    1UNL     C7   10  -0.196  -0.184   0.069
    1UNL     C8   11  -0.066  -0.268   0.046
    1UNL     N1   12   0.050  -0.179   0.013
    1UNL     C9   13   0.185  -0.250   0.006
    1UNL    C10   14   0.291  -0.165  -0.061
    1UNL    C11   15   0.286  -0.024  -0.017
    1UNL    C12   16   0.176   0.021   0.057
    1UNL     N2   17   0.198   0.151   0.089
    1UNL    C13   18   0.318   0.196   0.030
    1UNL    C14   19   0.405   0.303   0.063
    1UNL    C15   20   0.533   0.303   0.002
    1UNL    C16   21   0.573   0.199  -0.082
    1UNL    C17   22   0.502   0.082  -0.097
    1UNL    C18   23   0.377   0.083  -0.036
    1UNL    C19   24   0.060  -0.061   0.101
    1UNL    C20   25  -0.063   0.034   0.097
    1UNL    C21   26  -0.174  -0.041   0.008
    1UNL     H1   27  -0.473   0.419   0.070
    1UNL     H2   28  -0.476   0.398  -0.107
    1UNL     H3   29  -0.323   0.419  -0.032
    1UNL     H4   30  -0.502   0.010   0.032
    1UNL     H5   31  -0.337  -0.333   0.088
    1UNL     H6   32  -0.306  -0.205  -0.199
    1UNL     H7   33  -0.230  -0.358  -0.135
    1UNL     H8   34  -0.419  -0.334  -0.172
    1UNL     H9   35  -0.216  -0.169   0.180
    1UNL    H10   36  -0.070  -0.335  -0.035
    1UNL    H11   37  -0.042  -0.329   0.136
    1UNL    H12   38   0.168  -0.346  -0.042
    1UNL    H13   39   0.221  -0.273   0.113
    1UNL    H14   40   0.387  -0.203  -0.048
    1UNL    H15   41   0.251  -0.167  -0.166
    1UNL    H16   42   0.126   0.220   0.116
    1UNL    H17   43   0.364   0.382   0.117
    1UNL    H18   44   0.602   0.384   0.031
    1UNL    H19   45   0.675   0.213  -0.112
    1UNL    H20   46   0.540  -0.004  -0.154
    1UNL    H21   47   0.085  -0.086   0.209
    1UNL    H22   48  -0.097   0.061   0.197
    1UNL    H23   49  -0.029   0.121   0.041
    1UNL    H24   50  -0.147  -0.050  -0.100
   0.00000   0.00000   0.00000   0.00000   0.00000   0.00000   0.00000   0.00000   0.00000
Generated with MDTraj, t= 13.0
 50
    1UNL     C1    1  -0.438   0.363  -0.027
    1UNL     O1    2  -0.455   0.228   0.015
    1UNL     C2    3  -0.327   0.174  -0.009
    1UNL     O2    4  -0.225   0.233  -0.037
    1UNL     C3    5  -0.321   0.030   0.011
    1UNL     C4    6  -0.434  -0.048   0.028
    1UNL     O3    7  -0.438  -0.186   0.052
    1UNL     C5    8  -0.316  -0.252  -0.007
    1UNL     C6    9  -0.321  -0.240  -0.159
    1UNL     C7   10  -0.199  -0.183   0.064
    1UNL     C8   11  -0.063  -0.255   0.052
    1UNL     N1   12   0.055  -0.166   0.020
    1UNL     C9   13   0.175  -0.252   0.011
    1UNL    C10   14   0.287  -0.170  -0.061
    1UNL    C11   15   0.296  -0.030  -0.001
    1UNL    C12   16   0.191   0.026   0.071
    1UNL     N2   17   0.220   0.158   0.084
    1UNL    C13   18   0.344   0.189   0.032
    1UNL    C14   19   0.418   0.305   0.040
    1UNL    C15   20   0.539   0.307  -0.022
    1UNL    C16   21   0.590   0.191  -0.084
    1UNL    C17   22   0.526   0.067  -0.079
    1UNL    C18   23   0.392   0.071  -0.025
    1UNL    C19   24   0.063  -0.048   0.108
    1UNL    C20   25  -0.069   0.039   0.088
    1UNL    C21   26  -0.187  -0.040   0.016
    1UNL     H1   27  -0.538   0.395  -0.068
    1UNL     H2   28  -0.368   0.353  -0.107
    1UNL     H3   29  -0.393   0.424   0.046
    1UNL     H4   30  -0.533   0.006   0.015
    1UNL     H5   31  -0.289  -0.358   0.012
    1UNL     H6   32  -0.341  -0.134  -0.184
    1UNL     H7   33  -0.225  -0.272  -0.215
    1UNL     H8   34  -0.414  -0.286  -0.203
    1UNL     H9   35  -0.227  -0.189   0.175
    1UNL    H10   36  -0.069  -0.340  -0.025
    1UNL    H11   37  -0.034  -0.296   0.149
    1UNL    H12   38   0.153  -0.342  -0.045
    1UNL    H13   39   0.198  -0.290   0.122
    1UNL    H14   40   0.375  -0.225  -0.047
    1UNL    H15   41   0.268  -0.157  -0.169
    1UNL    H16   42   0.165   0.241   0.113
    1UNL    H17   43   0.364   0.402   0.055
    1UNL    H18   44   0.578   0.405  -0.028
    1UNL    H19   45   0.691   0.191  -0.125
    1UNL    H20   46   0.566  -0.019  -0.131
    1UNL    H21   47   0.069  -0.077   0.218
    1UNL    H22   48  -0.096   0.079   0.185
    1UNL    H23   49  -0.045   0.121   0.020
    1UNL    H24   50  -0.153  -0.058  -0.089
   0.00000   0.00000   0.00000   0.00000   0.00000   0.00000   0.00000   0.00000   0.00000
Generated with MDTraj, t= 14.0
 50
    1UNL     C1    1  -0.476   0.358  -0.015
    1UNL     O1    2  -0.463   0.216  -0.008
    1UNL     C2    3  -0.334   0.185   0.001
    1UNL     O2    4  -0.242   0.261  -0.012
    1UNL     C3    5  -0.313   0.038   0.021
    1UNL     C4    6  -0.421  -0.043   0.028
    1UNL     O3    7  -0.434  -0.175   0.038
    1UNL     C5    8  -0.316  -0.241  -0.002
    1UNL     C6    9  -0.309  -0.256  -0.153
    1UNL     C7   10  -0.188  -0.176   0.064
    1UNL     C8   11  -0.058  -0.263   0.052
    1UNL     N1   12   0.055  -0.171   0.013
    1UNL     C9   13   0.179  -0.253   0.002
    1UNL    C10   14   0.304  -0.178  -0.047
    1UNL    C11   15   0.295  -0.037   0.006
    1UNL    C12   16   0.188   0.026   0.065
    1UNL     N2   17   0.217   0.159   0.088
    1UNL    C13   18   0.342   0.182   0.037
    1UNL    C14   19   0.416   0.300   0.033
    1UNL    C15   20   0.538   0.302  -0.035
    1UNL    C16   21   0.597   0.181  -0.088
    1UNL    C17   22   0.524   0.063  -0.080
    1UNL    C18   23   0.393   0.063  -0.015
    1UNL    C19   24   0.062  -0.043   0.098
    1UNL    C20   25  -0.067   0.047   0.078
    1UNL    C21   26  -0.179  -0.033   0.003
    1UNL     H1   27  -0.587   0.373  -0.045
    1UNL     H2   28  -0.402   0.385  -0.091
    1UNL     H3   29  -0.446   0.403   0.078
    1UNL     H4   30  -0.516   0.014   0.005
    1UNL     H5   31  -0.331  -0.349   0.028
    1UNL     H6   32  -0.296  -0.152  -0.193
    1UNL     H7   33  -0.215  -0.310  -0.163
    1UNL     H8   34  -0.391  -0.306  -0.220
    1UNL     H9   35  -0.215  -0.154   0.174
    1UNL    H10   36  -0.066  -0.328  -0.046
    1UNL    H11   37  -0.036  -0.321   0.140
    1UNL    H12   38   0.147  -0.338  -0.056
    1UNL    H13   39   0.201  -0.300   0.109
    1UNL    H14   40   0.398  -0.221  -0.013
    1UNL    H15   41   0.307  -0.179  -0.153
    1UNL    H16   42   0.173   0.212   0.165
    1UNL    H17   43   0.376   0.389   0.066
    1UNL    H18   44   0.587   0.399  -0.055
    1UNL    H19   45   0.694   0.191  -0.129
    1UNL    H20   46   0.571  -0.029  -0.102
    1UNL    H21   47   0.058  -0.085   0.204
    1UNL    H22   48  -0.112   0.074   0.173
    1UNL    H23   49  -0.048   0.143   0.029
    1UNL    H24   50  -0.152  -0.048  -0.104
   0.00000   0.00000   0.00000   0.00000   0.00000   0.00000   0.00000   0.00000   0.00000
Generated with MDTraj, t= 15.0
 50
    1UNL     C1    1  -0.460   0.373  -0.003
    1UNL     O1    2  -0.455   0.231  -0.018
    1UNL     C2    3  -0.322   0.184   0.003
    1UNL     O2    4  -0.230   0.263   0.021
    1UNL     C3    5  -0.315   0.036   0.014
    1UNL     C4    6  -0.428  -0.034   0.022
    1UNL     O3    7  -0.451  -0.177   0.011
    1UNL     C5    8  -0.321  -0.249   0.004
    1UNL     C6    9  -0.310  -0.303  -0.143
    1UNL     C7   10  -0.193  -0.177   0.067
    1UNL     C8   11  -0.068  -0.265   0.051
    1UNL     N1   12   0.051  -0.183   0.023
    1UNL     C9   13   0.191  -0.249   0.021
    1UNL    C10   14   0.306  -0.171  -0.045
    1UNL    C11   15   0.288  -0.024  -0.021
    1UNL    C12   16   0.180   0.034   0.049
    1UNL     N2   17   0.215   0.164   0.094
    1UNL    C13   18   0.345   0.187   0.035
    1UNL    C14   19   0.418   0.307   0.030
    1UNL    C15   20   0.545   0.304  -0.025
    1UNL    C16   21   0.595   0.185  -0.085
    1UNL    C17   22   0.520   0.069  -0.082
    1UNL    C18   23   0.398   0.066  -0.016
    1UNL    C19   24   0.060  -0.047   0.083
    1UNL    C20   25  -0.069   0.036   0.064
    1UNL    C21   26  -0.187  -0.042   0.002
    1UNL     H1   27  -0.566   0.387   0.043
    1UNL     H2   28  -0.451   0.408  -0.107
    1UNL     H3   29  -0.375   0.406   0.059
    1UNL     H4   30  -0.518   0.009   0.048
    1UNL     H5   31  -0.341  -0.343   0.064
    1UNL     H6   32  -0.303  -0.211  -0.210
    1UNL     H7   33  -0.233  -0.373  -0.162
    1UNL     H8   34  -0.404  -0.360  -0.186
    1UNL     H9   35  -0.212  -0.150   0.177
    1UNL    H10   36  -0.085  -0.330  -0.045
    1UNL    H11   37  -0.041  -0.326   0.135
    1UNL    H12   38   0.184  -0.351  -0.016
    1UNL    H13   39   0.208  -0.260   0.135
    1UNL    H14   40   0.396  -0.204   0.008
    1UNL    H15   41   0.323  -0.193  -0.145
    1UNL    H16   42   0.143   0.234   0.108
    1UNL    H17   43   0.387   0.385   0.103
    1UNL    H18   44   0.611   0.387  -0.030
    1UNL    H19   45   0.694   0.187  -0.134
    1UNL    H20   46   0.565  -0.030  -0.103
    1UNL    H21   47   0.068  -0.074   0.195
    1UNL    H22   48  -0.096   0.086   0.157
    1UNL    H23   49  -0.056   0.124  -0.002
    1UNL    H24   50  -0.164  -0.065  -0.105
   0.00000   0.00000   0.00000   0.00000   0.00000   0.00000   0.00000   0.00000   0.00000
Generated with MDTraj, t= 16.0
 50
    1UNL     C1    1  -0.417   0.377   0.003
    1UNL     O1    2  -0.447   0.240   0.011
    1UNL     C2    3  -0.320   0.178   0.002
    1UNL     O2    4  -0.214   0.237   0.006
    1UNL     C3    5  -0.318   0.030  -0.012
    1UNL     C4    6  -0.429  -0.044   0.004
    1UNL     O3    7  -0.443  -0.180   0.021
    1UNL     C5    8  -0.322  -0.259   0.008
    1UNL     C6    9  -0.297  -0.295  -0.131
    1UNL     C7   10  -0.207  -0.182   0.068
    1UNL     C8   11  -0.068  -0.257   0.081
    1UNL     N1   12   0.049  -0.176   0.027
    1UNL     C9   13   0.180  -0.252   0.005
    1UNL    C10   14   0.287  -0.173  -0.063
    1UNL    C11   15   0.285  -0.027  -0.017
    1UNL    C12   16   0.181   0.030   0.050
    1UNL     N2   17   0.206   0.166   0.078
    1UNL    C13   18   0.335   0.194   0.034
    1UNL    C14   19   0.412   0.313   0.030
    1UNL    C15   20   0.540   0.307  -0.019
    1UNL    C16   21   0.593   0.183  -0.060
    1UNL    C17   22   0.515   0.077  -0.081
    1UNL    C18   23   0.388   0.078  -0.025
    1UNL    C19   24   0.059  -0.043   0.094
    1UNL    C20   25  -0.066   0.042   0.050
    1UNL    C21   26  -0.190  -0.047  -0.010
    1UNL     H1   27  -0.519   0.424  -0.026
    1UNL     H2   28  -0.341   0.388  -0.074
    1UNL     H3   29  -0.377   0.411   0.099
    1UNL     H4   30  -0.522   0.009  -0.006
    1UNL     H5   31  -0.348  -0.355   0.063
    1UNL     H6   32  -0.307  -0.202  -0.196
    1UNL     H7   33  -0.204  -0.347  -0.147
    1UNL     H8   34  -0.376  -0.366  -0.171
    1UNL     H9   35  -0.244  -0.150   0.173
    1UNL    H10   36  -0.061  -0.356   0.025
    1UNL    H11   37  -0.048  -0.276   0.187
    1UNL    H12   38   0.150  -0.344  -0.050
    1UNL    H13   39   0.220  -0.279   0.104
    1UNL    H14   40   0.384  -0.215  -0.037
    1UNL    H15   41   0.275  -0.183  -0.164
    1UNL    H16   42   0.146   0.227   0.130
    1UNL    H17   43   0.363   0.398   0.073
    1UNL    H18   44   0.589   0.403  -0.044
    1UNL    H19   45   0.693   0.154  -0.078
    1UNL    H20   46   0.547  -0.013  -0.125
    1UNL    H21   47   0.068  -0.060   0.207
    1UNL    H22   48  -0.110   0.092   0.135
    1UNL    H23   49  -0.034   0.130  -0.010
    1UNL    H24   50  -0.160  -0.076  -0.113
   0.00000   0.00000   0.00000   0.00000   0.00000   0.00000   0.00000   0.00000   0.00000
Generated with MDTraj, t= 17.0
 50
    1UNL     C1    1  -0.441   0.367   0.014
    1UNL     O1    2  -0.451   0.231  -0.000
    1UNL     C2    3  -0.324   0.185  -0.023
    1UNL     O2    4  -0.223   0.249  -0.044
    1UNL     C3    5  -0.309   0.035  -0.006
    1UNL     C4    6  -0.420  -0.040   0.005
    1UNL     O3    7  -0.436  -0.168   0.030
    1UNL     C5    8  -0.315  -0.247   0.013
    1UNL     C6    9  -0.293  -0.285  -0.138
    1UNL     C7   10  -0.195  -0.173   0.068
    1UNL     C8   11  -0.064  -0.258   0.062
    1UNL     N1   12   0.049  -0.176   0.018
    1UNL     C9   13   0.175  -0.258   0.012
    1UNL    C10   14   0.280  -0.173  -0.060
    1UNL    C11   15   0.289  -0.033  -0.007
    1UNL    C12   16   0.181   0.026   0.057
    1UNL     N2   17   0.212   0.158   0.083
    1UNL    C13   18   0.333   0.187   0.029
    1UNL    C14   19   0.407   0.300   0.042
    1UNL    C15   20   0.531   0.301  -0.010
    1UNL    C16   21   0.587   0.195  -0.078
    1UNL    C17   22   0.514   0.076  -0.089
    1UNL    C18   23   0.392   0.071  -0.029
    1UNL    C19   24   0.062  -0.053   0.100
    1UNL    C20   25  -0.068   0.033   0.104
    1UNL    C21   26  -0.177  -0.035   0.012
    1UNL     H1   27  -0.544   0.408   0.001
    1UNL     H2   28  -0.374   0.406  -0.059
    1UNL     H3   29  -0.402   0.378   0.115
    1UNL     H4   30  -0.518   0.021  -0.005
    1UNL     H5   31  -0.326  -0.337   0.074
    1UNL     H6   32  -0.251  -0.195  -0.187
    1UNL     H7   33  -0.226  -0.377  -0.152
    1UNL     H8   34  -0.383  -0.304  -0.192
    1UNL     H9   35  -0.208  -0.165   0.183
    1UNL    H10   36  -0.079  -0.343  -0.004
    1UNL    H11   37  -0.030  -0.298   0.162
    1UNL    H12   38   0.146  -0.343  -0.058
    1UNL    H13   39   0.201  -0.296   0.107
    1UNL    H14   40   0.373  -0.228  -0.061
    1UNL    H15   41   0.252  -0.165  -0.159
    1UNL    H16   42   0.159   0.230   0.126
    1UNL    H17   43   0.356   0.393   0.060
    1UNL    H18   44   0.591   0.388  -0.005
    1UNL    H19   45   0.687   0.210  -0.123
    1UNL    H20   46   0.539  -0.015  -0.149
    1UNL    H21   47   0.082  -0.111   0.197
    1UNL    H22   48  -0.093   0.046   0.208
    1UNL    H23   49  -0.046   0.132   0.063
    1UNL    H24   50  -0.135  -0.035  -0.091
   0.00000   0.00000   0.00000   0.00000   0.00000   0.00000   0.00000   0.00000   0.00000
Generated with MDTraj, t= 18.0
 50
    1UNL     C1    1  -0.434   0.362  -0.037
    1UNL     O1    2  -0.440   0.229   0.014
    1UNL     C2    3  -0.316   0.170  -0.003
    1UNL     O2    4  -0.217   0.233  -0.034
    1UNL     C3    5  -0.310   0.025   0.015
    1UNL     C4    6  -0.425  -0.044   0.036
    1UNL     O3    7  -0.444  -0.178   0.033
    1UNL     C5    8  -0.322  -0.238  -0.008
    1UNL     C6    9  -0.316  -0.264  -0.163
    1UNL     C7   10  -0.196  -0.178   0.059
    1UNL     C8   11  -0.071  -0.266   0.059
    1UNL     N1   12   0.048  -0.176   0.029
    1UNL     C9   13   0.182  -0.252   0.017
    1UNL    C10   14   0.283  -0.163  -0.054
    1UNL    C11   15   0.287  -0.029   0.009
    1UNL    C12   16   0.187   0.020   0.083
    1UNL     N2   17   0.226   0.153   0.111
    1UNL    C13   18   0.343   0.194   0.047
    1UNL    C14   19   0.430   0.309   0.047
    1UNL    C15   20   0.546   0.307  -0.024
    1UNL    C16   21   0.571   0.198  -0.108
    1UNL    C17   22   0.505   0.074  -0.104
    1UNL    C18   23   0.385   0.079  -0.018
    1UNL    C19   24   0.052  -0.047   0.103
    1UNL    C20   25  -0.071   0.042   0.073
    1UNL    C21   26  -0.180  -0.044  -0.004
    1UNL     H1   27  -0.513   0.423   0.009
    1UNL     H2   28  -0.442   0.365  -0.142
    1UNL     H3   29  -0.343   0.393   0.009
    1UNL     H4   30  -0.522  -0.006   0.063
    1UNL     H5   31  -0.331  -0.334   0.042
    1UNL     H6   32  -0.360  -0.177  -0.210
    1UNL     H7   33  -0.205  -0.281  -0.198
    1UNL     H8   34  -0.373  -0.345  -0.201
    1UNL     H9   35  -0.214  -0.169   0.174
    1UNL    H10   36  -0.065  -0.338  -0.016
    1UNL    H11   37  -0.065  -0.325   0.159
    1UNL    H12   38   0.157  -0.353  -0.030
    1UNL    H13   39   0.211  -0.271   0.113
    1UNL    H14   40   0.383  -0.200  -0.062
    1UNL    H15   41   0.250  -0.148  -0.154
    1UNL    H16   42   0.152   0.213   0.140
    1UNL    H17   43   0.391   0.405   0.085
    1UNL    H18   44   0.620   0.389  -0.016
    1UNL    H19   45   0.663   0.189  -0.161
    1UNL    H20   46   0.532  -0.008  -0.166
    1UNL    H21   47   0.050  -0.078   0.212
    1UNL    H22   48  -0.121   0.079   0.163
    1UNL    H23   49  -0.035   0.128   0.014
    1UNL    H24   50  -0.165  -0.052  -0.113
   0.00000   0.00000   0.00000   0.00000   0.00000   0.00000   0.00000   0.00000   0.00000
Generated with MDTraj, t= 19.0
 50
    1UNL     C1    1  -0.436   0.371  -0.041
    1UNL     O1    2  -0.447   0.232  -0.018
    1UNL     C2    3  -0.322   0.181  -0.015
    1UNL     O2    4  -0.221   0.245  -0.036
    1UNL     C3    5  -0.310   0.035   0.009
    1UNL     C4    6  -0.422  -0.034   0.039
    1UNL     O3    7  -0.444  -0.169   0.055
    1UNL     C5    8  -0.322  -0.242   0.004
    1UNL     C6    9  -0.310  -0.266  -0.147
    1UNL     C7   10  -0.195  -0.178   0.069
    1UNL     C8   11  -0.068  -0.262   0.053
    1UNL     N1   12   0.059  -0.183   0.016
    1UNL     C9   13   0.187  -0.259  -0.001
    1UNL    C10   14   0.292  -0.170  -0.065
    1UNL    C11   15   0.290  -0.029  -0.012
    1UNL    C12   16   0.189   0.014   0.074
    1UNL     N2   17   0.216   0.145   0.113
    1UNL    C13   18   0.336   0.180   0.057
    1UNL    C14   19   0.410   0.302   0.056
    1UNL    C15   20   0.518   0.314  -0.024
    1UNL    C16   21   0.575   0.204  -0.095
    1UNL    C17   22   0.502   0.088  -0.104
    1UNL    C18   23   0.385   0.076  -0.028
    1UNL    C19   24   0.067  -0.070   0.105
    1UNL    C20   25  -0.060   0.028   0.092
    1UNL    C21   26  -0.177  -0.039   0.009
    1UNL     H1   27  -0.532   0.420  -0.027
    1UNL     H2   28  -0.406   0.396  -0.143
    1UNL     H3   29  -0.374   0.404   0.041
    1UNL     H4   30  -0.511   0.018   0.031
    1UNL     H5   31  -0.345  -0.334   0.055
    1UNL     H6   32  -0.273  -0.171  -0.185
    1UNL     H7   33  -0.235  -0.343  -0.172
    1UNL     H8   34  -0.403  -0.285  -0.201
    1UNL     H9   35  -0.218  -0.169   0.182
    1UNL    H10   36  -0.087  -0.339  -0.011
    1UNL    H11   37  -0.034  -0.316   0.151
    1UNL    H12   38   0.163  -0.356  -0.058
    1UNL    H13   39   0.211  -0.292   0.093
    1UNL    H14   40   0.384  -0.216  -0.044
    1UNL    H15   41   0.287  -0.171  -0.173
    1UNL    H16   42   0.180   0.195   0.192
    1UNL    H17   43   0.389   0.388   0.112
    1UNL    H18   44   0.573   0.404  -0.029
    1UNL    H19   45   0.681   0.207  -0.122
    1UNL    H20   46   0.541  -0.001  -0.153
    1UNL    H21   47   0.081  -0.099   0.212
    1UNL    H22   48  -0.090   0.047   0.196
    1UNL    H23   49  -0.042   0.128   0.049
    1UNL    H24   50  -0.142  -0.045  -0.095
   0.00000   0.00000   0.00000   0.00000   0.00000   0.00000   0.00000   0.00000   0.00000
Generated with MDTraj, t= 20.0
 50
    1UNL     C1    1  -0.424   0.368  -0.043
    1UNL     O1    2  -0.434   0.228  -0.036
    1UNL     C2    3  -0.301   0.180  -0.023
    1UNL     O2    4  -0.196   0.241  -0.019
    1UNL     C3    5  -0.304   0.036  -0.001
    1UNL     C4    6  -0.421  -0.027   0.026
    1UNL     O3    7  -0.442  -0.160   0.056
    1UNL     C5    8  -0.329  -0.252   0.028
    1UNL     C6    9  -0.327  -0.283  -0.114
    1UNL     C7   10  -0.191  -0.187   0.074
    1UNL     C8   11  -0.067  -0.271   0.053
    1UNL     N1   12   0.050  -0.185   0.014
    1UNL     C9   13   0.179  -0.253  -0.029
    1UNL    C10   14   0.288  -0.159  -0.087
    1UNL    C11   15   0.277  -0.019  -0.031
    1UNL    C12   16   0.185   0.023   0.062
    1UNL     N2   17   0.215   0.148   0.110
    1UNL    C13   18   0.326   0.190   0.053
    1UNL    C14   19   0.398   0.308   0.057
    1UNL    C15   20   0.519   0.312  -0.015
    1UNL    C16   21   0.573   0.202  -0.081
    1UNL    C17   22   0.504   0.087  -0.084
    1UNL    C18   23   0.379   0.077  -0.018
    1UNL    C19   24   0.065  -0.066   0.103
    1UNL    C20   25  -0.062   0.022   0.104
    1UNL    C21   26  -0.172  -0.044   0.010
    1UNL     H1   27  -0.498   0.405  -0.115
    1UNL     H2   28  -0.329   0.401  -0.093
    1UNL     H3   29  -0.445   0.410   0.058
    1UNL     H4   30  -0.510   0.043   0.032
    1UNL     H5   31  -0.352  -0.348   0.078
    1UNL     H6   32  -0.316  -0.183  -0.160
    1UNL     H7   33  -0.253  -0.343  -0.150
    1UNL     H8   34  -0.427  -0.318  -0.150
    1UNL     H9   35  -0.194  -0.172   0.188
    1UNL    H10   36  -0.079  -0.336  -0.028
    1UNL    H11   37  -0.042  -0.337   0.144
    1UNL    H12   38   0.153  -0.341  -0.096
    1UNL    H13   39   0.218  -0.297   0.058
    1UNL    H14   40   0.385  -0.192  -0.068
    1UNL    H15   41   0.280  -0.163  -0.196
    1UNL    H16   42   0.161   0.212   0.167
    1UNL    H17   43   0.365   0.384   0.130
    1UNL    H18   44   0.576   0.405  -0.034
    1UNL    H19   45   0.661   0.216  -0.140
    1UNL    H20   46   0.556  -0.005  -0.112
    1UNL    H21   47   0.083  -0.111   0.202
    1UNL    H22   48  -0.111   0.040   0.201
    1UNL    H23   49  -0.034   0.124   0.071
    1UNL    H24   50  -0.128  -0.053  -0.090
   0.00000   0.00000   0.00000   0.00000   0.00000   0.00000   0.00000   0.00000   0.00000
Generated with MDTraj, t= 21.0
 50
    1UNL     C1    1  -0.382   0.368  -0.073
    1UNL     O1    2  -0.429   0.240  -0.034
    1UNL     C2    3  -0.312   0.171  -0.004
    1UNL     O2    4  -0.205   0.226  -0.000
    1UNL     C3    5  -0.319   0.030   0.020
    1UNL     C4    6  -0.428  -0.041   0.046
    1UNL     O3    7  -0.448  -0.173   0.049
    1UNL     C5    8  -0.331  -0.253   0.025
    1UNL     C6    9  -0.329  -0.291  -0.122
    1UNL     C7   10  -0.195  -0.187   0.079
    1UNL     C8   11  -0.069  -0.268   0.048
    1UNL     N1   12   0.054  -0.181   0.028
    1UNL     C9   13   0.180  -0.251  -0.017
    1UNL    C10   14   0.278  -0.157  -0.089
    1UNL    C11   15   0.278  -0.022  -0.023
    1UNL    C12   16   0.178   0.029   0.058
    1UNL     N2   17   0.214   0.148   0.115
    1UNL    C13   18   0.335   0.188   0.049
    1UNL    C14   19   0.419   0.301   0.073
    1UNL    C15   20   0.534   0.318  -0.001
    1UNL    C16   21   0.575   0.215  -0.086
    1UNL    C17   22   0.503   0.096  -0.099
    1UNL    C18   23   0.376   0.078  -0.033
    1UNL    C19   24   0.058  -0.050   0.096
    1UNL    C20   25  -0.066   0.031   0.067
    1UNL    C21   26  -0.186  -0.046   0.005
    1UNL     H1   27  -0.474   0.425  -0.089
    1UNL     H2   28  -0.340   0.366  -0.177
    1UNL     H3   29  -0.318   0.427   0.001
    1UNL     H4   30  -0.523   0.012   0.067
    1UNL     H5   31  -0.345  -0.354   0.072
    1UNL     H6   32  -0.343  -0.201  -0.179
    1UNL     H7   33  -0.237  -0.332  -0.156
    1UNL     H8   34  -0.412  -0.358  -0.155
    1UNL     H9   35  -0.197  -0.170   0.191
    1UNL    H10   36  -0.086  -0.338  -0.037
    1UNL    H11   37  -0.039  -0.332   0.136
    1UNL    H12   38   0.161  -0.342  -0.079
    1UNL    H13   39   0.233  -0.289   0.071
    1UNL    H14   40   0.374  -0.197  -0.088
    1UNL    H15   41   0.254  -0.142  -0.194
    1UNL    H16   42   0.158   0.192   0.190
    1UNL    H17   43   0.396   0.378   0.142
    1UNL    H18   44   0.566   0.419  -0.000
    1UNL    H19   45   0.664   0.228  -0.146
    1UNL    H20   46   0.540   0.014  -0.153
    1UNL    H21   47   0.070  -0.076   0.201
    1UNL    H22   48  -0.091   0.080   0.163
    1UNL    H23   49  -0.044   0.113  -0.004
    1UNL    H24   50  -0.169  -0.058  -0.103
   0.00000   0.00000   0.00000   0.00000   0.00000   0.00000   0.00000   0.00000   0.00000
Generated with MDTraj, t= 22.0
 50
    1UNL     C1    1  -0.451   0.358  -0.062
    1UNL     O1    2  -0.447   0.216  -0.038
    1UNL     C2    3  -0.314   0.179  -0.020
    1UNL     O2    4  -0.220   0.256  -0.033
    1UNL     C3    5  -0.305   0.036   0.014
    1UNL     C4    6  -0.418  -0.032   0.036
    1UNL     O3    7  -0.438  -0.163   0.062
    1UNL     C5    8  -0.316  -0.238   0.015
    1UNL     C6    9  -0.317  -0.276  -0.130
    1UNL     C7   10  -0.186  -0.179   0.072
    1UNL     C8   11  -0.066  -0.262   0.050
    1UNL     N1   12   0.052  -0.177   0.023
    1UNL     C9   13   0.172  -0.253  -0.019
    1UNL    C10   14   0.274  -0.161  -0.089
    1UNL    C11   15   0.287  -0.033  -0.019
    1UNL    C12   16   0.190   0.014   0.071
    1UNL     N2   17   0.223   0.143   0.114
    1UNL    C13   18   0.348   0.178   0.054
    1UNL    C14   19   0.422   0.287   0.080
    1UNL    C15   20   0.534   0.309   0.005
    1UNL    C16   21   0.566   0.208  -0.087
    1UNL    C17   22   0.493   0.093  -0.110
    1UNL    C18   23   0.378   0.074  -0.034
    1UNL    C19   24   0.068  -0.061   0.108
    1UNL    C20   25  -0.057   0.030   0.105
    1UNL    C21   26  -0.167  -0.037   0.016
    1UNL     H1   27  -0.545   0.400  -0.029
    1UNL     H2   28  -0.440   0.377  -0.171
    1UNL     H3   29  -0.372   0.427  -0.015
    1UNL     H4   30  -0.504   0.023   0.025
    1UNL     H5   31  -0.340  -0.336   0.066
    1UNL     H6   32  -0.275  -0.200  -0.190
    1UNL     H7   33  -0.256  -0.370  -0.149
    1UNL     H8   34  -0.417  -0.291  -0.161
    1UNL     H9   35  -0.213  -0.167   0.180
    1UNL    H10   36  -0.086  -0.329  -0.046
    1UNL    H11   37  -0.049  -0.327   0.138
    1UNL    H12   38   0.147  -0.337  -0.083
    1UNL    H13   39   0.229  -0.296   0.073
    1UNL    H14   40   0.371  -0.195  -0.097
    1UNL    H15   41   0.240  -0.141  -0.192
    1UNL    H16   42   0.175   0.197   0.189
    1UNL    H17   43   0.364   0.369   0.128
    1UNL    H18   44   0.592   0.404   0.012
    1UNL    H19   45   0.660   0.223  -0.139
    1UNL    H20   46   0.522   0.031  -0.199
    1UNL    H21   47   0.087  -0.096   0.207
    1UNL    H22   48  -0.107   0.068   0.198
    1UNL    H23   49  -0.017   0.112   0.041
    1UNL    H24   50  -0.136  -0.044  -0.089
   0.00000   0.00000   0.00000   0.00000   0.00000   0.00000   0.00000   0.00000   0.00000
Generated with MDTraj, t= 23.0
 50
    1UNL     C1    1  -0.451   0.356  -0.055
    1UNL     O1    2  -0.452   0.224  -0.005
    1UNL     C2    3  -0.325   0.168  -0.025
    1UNL     O2    4  -0.233   0.230  -0.068
    1UNL     C3    5  -0.311   0.034   0.008
    1UNL     C4    6  -0.419  -0.045   0.031
    1UNL     O3    7  -0.432  -0.179   0.062
    1UNL     C5    8  -0.323  -0.247   0.007
    1UNL     C6    9  -0.330  -0.248  -0.143
    1UNL     C7   10  -0.196  -0.186   0.073
    1UNL     C8   11  -0.067  -0.262   0.062
    1UNL     N1   12   0.047  -0.168   0.016
    1UNL     C9   13   0.172  -0.236  -0.015
    1UNL    C10   14   0.266  -0.142  -0.091
    1UNL    C11   15   0.289  -0.021  -0.005
    1UNL    C12   16   0.198   0.013   0.089
    1UNL     N2   17   0.236   0.140   0.136
    1UNL    C13   18   0.355   0.180   0.068
    1UNL    C14   19   0.436   0.296   0.069
    1UNL    C15   20   0.550   0.297  -0.015
    1UNL    C16   21   0.579   0.195  -0.106
    1UNL    C17   22   0.503   0.085  -0.103
    1UNL    C18   23   0.391   0.077  -0.014
    1UNL    C19   24   0.066  -0.052   0.111
    1UNL    C20   25  -0.060   0.038   0.090
    1UNL    C21   26  -0.176  -0.035   0.009
    1UNL     H1   27  -0.542   0.364  -0.110
    1UNL     H2   28  -0.360   0.377  -0.111
    1UNL     H3   29  -0.459   0.445   0.014
    1UNL     H4   30  -0.519   0.003   0.036
    1UNL     H5   31  -0.328  -0.354   0.039
    1UNL     H6   32  -0.355  -0.151  -0.177
    1UNL     H7   33  -0.232  -0.276  -0.194
    1UNL     H8   34  -0.406  -0.312  -0.172
    1UNL     H9   35  -0.218  -0.178   0.180
    1UNL    H10   36  -0.077  -0.363   0.002
    1UNL    H11   37  -0.031  -0.288   0.163
    1UNL    H12   38   0.157  -0.314  -0.087
    1UNL    H13   39   0.230  -0.280   0.080
    1UNL    H14   40   0.354  -0.190  -0.119
    1UNL    H15   41   0.215  -0.103  -0.180
    1UNL    H16   42   0.175   0.218   0.169
    1UNL    H17   43   0.393   0.388   0.102
    1UNL    H18   44   0.621   0.373   0.006
    1UNL    H19   45   0.671   0.206  -0.161
    1UNL    H20   46   0.514   0.007  -0.171
    1UNL    H21   47   0.063  -0.099   0.207
    1UNL    H22   48  -0.111   0.052   0.188
    1UNL    H23   49  -0.051   0.136   0.039
    1UNL    H24   50  -0.147  -0.038  -0.097
   0.00000   0.00000   0.00000   0.00000   0.00000   0.00000   0.00000   0.00000   0.00000
Generated with MDTraj, t= 24.0
 50
    1UNL     C1    1  -0.432   0.368  -0.039
    1UNL     O1    2  -0.448   0.240   0.007
    1UNL     C2    3  -0.328   0.176  -0.022
    1UNL     O2    4  -0.232   0.233  -0.070
    1UNL     C3    5  -0.321   0.033   0.015
    1UNL     C4    6  -0.430  -0.042   0.040
    1UNL     O3    7  -0.439  -0.178   0.049
    1UNL     C5    8  -0.319  -0.256   0.020
    1UNL     C6    9  -0.322  -0.282  -0.131
    1UNL     C7   10  -0.190  -0.184   0.079
    1UNL     C8   11  -0.063  -0.259   0.066
    1UNL     N1   12   0.056  -0.182   0.016
    1UNL     C9   13   0.187  -0.252  -0.005
    1UNL    C10   14   0.279  -0.155  -0.084
    1UNL    C11   15   0.283  -0.016  -0.029
    1UNL    C12   16   0.185   0.027   0.063
    1UNL     N2   17   0.220   0.150   0.105
    1UNL    C13   18   0.343   0.187   0.052
    1UNL    C14   19   0.431   0.293   0.079
    1UNL    C15   20   0.553   0.294   0.020
    1UNL    C16   21   0.588   0.195  -0.079
    1UNL    C17   22   0.503   0.093  -0.112
    1UNL    C18   23   0.384   0.083  -0.038
    1UNL    C19   24   0.058  -0.050   0.083
    1UNL    C20   25  -0.071   0.041   0.073
    1UNL    C21   26  -0.185  -0.041   0.013
    1UNL     H1   27  -0.450   0.369  -0.141
    1UNL     H2   28  -0.335   0.404  -0.012
    1UNL     H3   29  -0.498   0.446   0.004
    1UNL     H4   30  -0.526   0.016   0.054
    1UNL     H5   31  -0.334  -0.349   0.076
    1UNL     H6   32  -0.310  -0.182  -0.172
    1UNL     H7   33  -0.244  -0.339  -0.171
    1UNL     H8   34  -0.416  -0.321  -0.163
    1UNL     H9   35  -0.198  -0.169   0.185
    1UNL    H10   36  -0.080  -0.332  -0.017
    1UNL    H11   37  -0.038  -0.319   0.156
    1UNL    H12   38   0.174  -0.349  -0.052
    1UNL    H13   39   0.245  -0.275   0.096
    1UNL    H14   40   0.381  -0.183  -0.091
    1UNL    H15   41   0.242  -0.152  -0.185
    1UNL    H16   42   0.189   0.196   0.193
    1UNL    H17   43   0.414   0.358   0.162
    1UNL    H18   44   0.626   0.369   0.050
    1UNL    H19   45   0.694   0.188  -0.103
    1UNL    H20   46   0.541   0.017  -0.185
    1UNL    H21   47   0.063  -0.082   0.185
    1UNL    H22   48  -0.112   0.096   0.161
    1UNL    H23   49  -0.054   0.115  -0.006
    1UNL    H24   50  -0.150  -0.058  -0.090
   0.00000   0.00000   0.00000   0.00000   0.00000   0.00000   0.00000   0.00000   0.00000
Generated with MDTraj, t= 25.0
 50
    1UNL     C1    1  -0.431   0.361   0.001
    1UNL     O1    2  -0.431   0.227  -0.009
    1UNL     C2    3  -0.310   0.176  -0.023
    1UNL     O2    4  -0.215   0.244  -0.057
    1UNL     C3    5  -0.310   0.029   0.001
    1UNL     C4    6  -0.423  -0.038   0.027
    1UNL     O3    7  -0.449  -0.165   0.058
    1UNL     C5    8  -0.332  -0.255   0.041
    1UNL     C6    9  -0.328  -0.316  -0.099
    1UNL     C7   10  -0.193  -0.184   0.077
    1UNL     C8   11  -0.061  -0.258   0.053
    1UNL     N1   12   0.053  -0.168   0.010
    1UNL     C9   13   0.175  -0.245  -0.030
    1UNL    C10   14   0.278  -0.155  -0.094
    1UNL    C11   15   0.279  -0.015  -0.033
    1UNL    C12   16   0.173   0.038   0.029
    1UNL     N2   17   0.208   0.161   0.081
    1UNL    C13   18   0.337   0.194   0.049
    1UNL    C14   19   0.420   0.307   0.070
    1UNL    C15   20   0.546   0.299   0.015
    1UNL    C16   21   0.594   0.185  -0.049
    1UNL    C17   22   0.516   0.074  -0.075
    1UNL    C18   23   0.387   0.077  -0.014
    1UNL    C19   24   0.060  -0.045   0.081
    1UNL    C20   25  -0.068   0.038   0.057
    1UNL    C21   26  -0.180  -0.047  -0.004
    1UNL     H1   27  -0.339   0.406  -0.010
    1UNL     H2   28  -0.469   0.383   0.100
    1UNL     H3   29  -0.503   0.413  -0.065
    1UNL     H4   30  -0.510   0.013   0.004
    1UNL     H5   31  -0.361  -0.324   0.118
    1UNL     H6   32  -0.298  -0.238  -0.167
    1UNL     H7   33  -0.256  -0.386  -0.108
    1UNL     H8   34  -0.423  -0.360  -0.131
    1UNL     H9   35  -0.192  -0.163   0.181
    1UNL    H10   36  -0.078  -0.329  -0.021
    1UNL    H11   37  -0.024  -0.318   0.142
    1UNL    H12   38   0.150  -0.332  -0.092
    1UNL    H13   39   0.216  -0.290   0.067
    1UNL    H14   40   0.375  -0.202  -0.083
    1UNL    H15   41   0.266  -0.149  -0.199
    1UNL    H16   42   0.140   0.213   0.140
    1UNL    H17   43   0.394   0.376   0.151
    1UNL    H18   44   0.606   0.388   0.014
    1UNL    H19   45   0.688   0.197  -0.100
    1UNL    H20   46   0.553  -0.014  -0.119
    1UNL    H21   47   0.087  -0.063   0.183
    1UNL    H22   48  -0.102   0.062   0.161
    1UNL    H23   49  -0.054   0.133   0.003
    1UNL    H24   50  -0.154  -0.071  -0.108
   0.00000   0.00000   0.00000   0.00000   0.00000   0.00000   0.00000   0.00000   0.00000
Generated with MDTraj, t= 26.0
 50
    1UNL     C1    1  -0.431   0.375  -0.013
    1UNL     O1    2  -0.457   0.236   0.008
    1UNL     C2    3  -0.331   0.175  -0.014
    1UNL     O2    4  -0.230   0.240  -0.036
    1UNL     C3    5  -0.322   0.030   0.007
    1UNL     C4    6  -0.437  -0.043   0.035
    1UNL     O3    7  -0.447  -0.179   0.062
    1UNL     C5    8  -0.322  -0.256   0.034
    1UNL     C6    9  -0.336  -0.318  -0.108
    1UNL     C7   10  -0.194  -0.173   0.069
    1UNL     C8   11  -0.070  -0.256   0.038
    1UNL     N1   12   0.049  -0.172   0.002
    1UNL     C9   13   0.184  -0.245  -0.018
    1UNL    C10   14   0.294  -0.160  -0.078
    1UNL    C11   15   0.290  -0.020  -0.025
    1UNL    C12   16   0.185   0.031   0.046
    1UNL     N2   17   0.224   0.156   0.093
    1UNL    C13   18   0.348   0.183   0.044
    1UNL    C14   19   0.418   0.303   0.050
    1UNL    C15   20   0.544   0.308   0.003
    1UNL    C16   21   0.607   0.193  -0.047
    1UNL    C17   22   0.534   0.074  -0.057
    1UNL    C18   23   0.403   0.070  -0.016
    1UNL    C19   24   0.056  -0.045   0.072
    1UNL    C20   25  -0.066   0.051   0.031
    1UNL    C21   26  -0.188  -0.040  -0.009
    1UNL     H1   27  -0.396   0.408   0.079
    1UNL     H2   28  -0.517   0.441  -0.042
    1UNL     H3   29  -0.353   0.404  -0.090
    1UNL     H4   30  -0.528   0.003   0.066
    1UNL     H5   31  -0.318  -0.339   0.102
    1UNL     H6   32  -0.352  -0.241  -0.175
    1UNL     H7   33  -0.255  -0.378  -0.153
    1UNL     H8   34  -0.425  -0.378  -0.100
    1UNL     H9   35  -0.193  -0.150   0.171
    1UNL    H10   36  -0.088  -0.309  -0.047
    1UNL    H11   37  -0.055  -0.333   0.120
    1UNL    H12   38   0.156  -0.327  -0.089
    1UNL    H13   39   0.216  -0.294   0.073
    1UNL    H14   40   0.390  -0.206  -0.056
    1UNL    H15   41   0.296  -0.171  -0.183
    1UNL    H16   42   0.156   0.228   0.121
    1UNL    H17   43   0.377   0.396   0.080
    1UNL    H18   44   0.588   0.404  -0.021
    1UNL    H19   45   0.698   0.208  -0.105
    1UNL    H20   46   0.585  -0.018  -0.086
    1UNL    H21   47   0.060  -0.068   0.176
    1UNL    H22   48  -0.093   0.124   0.110
    1UNL    H23   49  -0.026   0.112  -0.050
    1UNL    H24   50  -0.192  -0.061  -0.117
   0.00000   0.00000   0.00000   0.00000   0.00000   0.00000   0.00000   0.00000   0.00000
Generated with MDTraj, t= 27.0
 50
    1UNL     C1    1  -0.476   0.351  -0.027
    1UNL     O1    2  -0.458   0.223   0.025
    1UNL     C2    3  -0.334   0.182  -0.004
    1UNL     O2    4  -0.242   0.248  -0.046
    1UNL     C3    5  -0.313   0.037   0.005
    1UNL     C4    6  -0.415  -0.037   0.052
    1UNL     O3    7  -0.422  -0.170   0.076
    1UNL     C5    8  -0.319  -0.245   0.021
    1UNL     C6    9  -0.350  -0.264  -0.127
    1UNL     C7   10  -0.188  -0.177   0.054
    1UNL     C8   11  -0.067  -0.262   0.019
    1UNL     N1   12   0.053  -0.173   0.005
    1UNL     C9   13   0.184  -0.255   0.011
    1UNL    C10   14   0.309  -0.182  -0.041
    1UNL    C11   15   0.299  -0.034  -0.011
    1UNL    C12   16   0.190   0.025   0.050
    1UNL     N2   17   0.213   0.156   0.080
    1UNL    C13   18   0.339   0.185   0.042
    1UNL    C14   19   0.424   0.295   0.059
    1UNL    C15   20   0.550   0.303   0.007
    1UNL    C16   21   0.599   0.194  -0.064
    1UNL    C17   22   0.526   0.078  -0.077
    1UNL    C18   23   0.392   0.075  -0.031
    1UNL    C19   24   0.061  -0.046   0.075
    1UNL    C20   25  -0.060   0.048   0.033
    1UNL    C21   26  -0.183  -0.036  -0.019
    1UNL     H1   27  -0.509   0.408   0.056
    1UNL     H2   28  -0.563   0.348  -0.102
    1UNL     H3   29  -0.389   0.400  -0.086
    1UNL     H4   30  -0.518   0.011   0.067
    1UNL     H5   31  -0.325  -0.342   0.071
    1UNL     H6   32  -0.330  -0.178  -0.181
    1UNL     H7   33  -0.283  -0.342  -0.177
    1UNL     H8   34  -0.450  -0.288  -0.137
    1UNL     H9   35  -0.193  -0.158   0.155
    1UNL    H10   36  -0.081  -0.324  -0.065
    1UNL    H11   37  -0.041  -0.340   0.097
    1UNL    H12   38   0.161  -0.350  -0.048
    1UNL    H13   39   0.200  -0.280   0.110
    1UNL    H14   40   0.401  -0.229  -0.003
    1UNL    H15   41   0.320  -0.200  -0.143
    1UNL    H16   42   0.148   0.210   0.139
    1UNL    H17   43   0.371   0.387   0.088
    1UNL    H18   44   0.617   0.390   0.008
    1UNL    H19   45   0.704   0.177  -0.083
    1UNL    H20   46   0.575  -0.005  -0.127
    1UNL    H21   47   0.065  -0.066   0.181
    1UNL    H22   48  -0.080   0.109   0.123
    1UNL    H23   49  -0.029   0.120  -0.043
    1UNL    H24   50  -0.174  -0.051  -0.128
   0.00000   0.00000   0.00000   0.00000   0.00000   0.00000   0.00000   0.00000   0.00000
Generated with MDTraj, t= 28.0
 50
    1UNL     C1    1  -0.471   0.362  -0.016
    1UNL     O1    2  -0.470   0.218  -0.000
    1UNL     C2    3  -0.342   0.172  -0.017
    1UNL     O2    4  -0.252   0.237  -0.070
    1UNL     C3    5  -0.320   0.030   0.027
    1UNL     C4    6  -0.426  -0.042   0.071
    1UNL     O3    7  -0.428  -0.178   0.088
    1UNL     C5    8  -0.324  -0.243   0.010
    1UNL     C6    9  -0.355  -0.239  -0.138
    1UNL     C7   10  -0.186  -0.181   0.042
    1UNL     C8   11  -0.061  -0.259   0.002
    1UNL     N1   12   0.058  -0.171  -0.006
    1UNL     C9   13   0.182  -0.252   0.002
    1UNL    C10   14   0.298  -0.168  -0.052
    1UNL    C11   15   0.302  -0.031   0.012
    1UNL    C12   16   0.193   0.033   0.065
    1UNL     N2   17   0.220   0.170   0.077
    1UNL    C13   18   0.351   0.185   0.041
    1UNL    C14   19   0.429   0.307   0.037
    1UNL    C15   20   0.550   0.307  -0.022
    1UNL    C16   21   0.599   0.187  -0.071
    1UNL    C17   22   0.537   0.063  -0.054
    1UNL    C18   23   0.408   0.064   0.001
    1UNL    C19   24   0.070  -0.051   0.080
    1UNL    C20   25  -0.062   0.032   0.071
    1UNL    C21   26  -0.185  -0.039   0.001
    1UNL     H1   27  -0.559   0.399   0.031
    1UNL     H2   28  -0.477   0.379  -0.129
    1UNL     H3   29  -0.370   0.406   0.016
    1UNL     H4   30  -0.518   0.013   0.093
    1UNL     H5   31  -0.320  -0.349   0.042
    1UNL     H6   32  -0.366  -0.134  -0.166
    1UNL     H7   33  -0.268  -0.266  -0.200
    1UNL     H8   34  -0.443  -0.285  -0.169
    1UNL     H9   35  -0.185  -0.180   0.144
    1UNL    H10   36  -0.067  -0.321  -0.088
    1UNL    H11   37  -0.044  -0.334   0.081
    1UNL    H12   38   0.167  -0.351  -0.055
    1UNL    H13   39   0.196  -0.273   0.100
    1UNL    H14   40   0.391  -0.225  -0.051
    1UNL    H15   41   0.284  -0.159  -0.155
    1UNL    H16   42   0.161   0.240   0.123
    1UNL    H17   43   0.384   0.401   0.054
    1UNL    H18   44   0.618   0.386   0.003
    1UNL    H19   45   0.702   0.185  -0.103
    1UNL    H20   46   0.565  -0.037  -0.078
    1UNL    H21   47   0.081  -0.095   0.180
    1UNL    H22   48  -0.088   0.084   0.165
    1UNL    H23   49  -0.034   0.114   0.005
    1UNL    H24   50  -0.151  -0.047  -0.105
   0.00000   0.00000   0.00000   0.00000   0.00000   0.00000   0.00000   0.00000   0.00000
Generated with MDTraj, t= 29.0
 50
    1UNL     C1    1  -0.461   0.374  -0.035
    1UNL     O1    2  -0.451   0.236   0.017
    1UNL     C2    3  -0.329   0.173  -0.004
    1UNL     O2    4  -0.237   0.235  -0.053
    1UNL     C3    5  -0.311   0.035   0.028
    1UNL     C4    6  -0.422  -0.038   0.061
    1UNL     O3    7  -0.435  -0.174   0.069
    1UNL     C5    8  -0.325  -0.246   0.018
    1UNL     C6    9  -0.340  -0.279  -0.130
    1UNL     C7   10  -0.192  -0.182   0.067
    1UNL     C8   11  -0.067  -0.265   0.019
    1UNL     N1   12   0.050  -0.175  -0.018
    1UNL     C9   13   0.180  -0.249  -0.034
    1UNL    C10   14   0.314  -0.172  -0.042
    1UNL    C11   15   0.298  -0.034   0.009
    1UNL    C12   16   0.188   0.021   0.067
    1UNL     N2   17   0.212   0.159   0.081
    1UNL    C13   18   0.337   0.201   0.032
    1UNL    C14   19   0.418   0.309   0.033
    1UNL    C15   20   0.548   0.308  -0.012
    1UNL    C16   21   0.604   0.185  -0.060
    1UNL    C17   22   0.525   0.074  -0.062
    1UNL    C18   23   0.395   0.077  -0.010
    1UNL    C19   24   0.061  -0.057   0.081
    1UNL    C20   25  -0.063   0.044   0.059
    1UNL    C21   26  -0.188  -0.040   0.003
    1UNL     H1   27  -0.554   0.366  -0.083
    1UNL     H2   28  -0.376   0.384  -0.109
    1UNL     H3   29  -0.460   0.452   0.043
    1UNL     H4   30  -0.505   0.008   0.099
    1UNL     H5   31  -0.326  -0.349   0.063
    1UNL     H6   32  -0.362  -0.181  -0.183
    1UNL     H7   33  -0.254  -0.315  -0.173
    1UNL     H8   34  -0.430  -0.339  -0.149
    1UNL     H9   35  -0.194  -0.172   0.168
    1UNL    H10   36  -0.100  -0.327  -0.067
    1UNL    H11   37  -0.041  -0.343   0.091
    1UNL    H12   38   0.163  -0.309  -0.131
    1UNL    H13   39   0.186  -0.317   0.043
    1UNL    H14   40   0.394  -0.221   0.012
    1UNL    H15   41   0.355  -0.167  -0.139
    1UNL    H16   42   0.137   0.225   0.091
    1UNL    H17   43   0.376   0.395   0.088
    1UNL    H18   44   0.617   0.393  -0.005
    1UNL    H19   45   0.706   0.178  -0.094
    1UNL    H20   46   0.572  -0.017  -0.100
    1UNL    H21   47   0.050  -0.110   0.178
    1UNL    H22   48  -0.091   0.078   0.159
    1UNL    H23   49  -0.049   0.136   0.004
    1UNL    H24   50  -0.168  -0.047  -0.107
   0.00000   0.00000   0.00000   0.00000   0.00000   0.00000   0.00000   0.00000   0.00000
Generated with MDTraj, t= 30.0
 50
    1UNL     C1    1  -0.430   0.376  -0.009
    1UNL     O1    2  -0.442   0.234  -0.015
    1UNL     C2    3  -0.316   0.179  -0.010
    1UNL     O2    4  -0.214   0.249  -0.013
    1UNL     C3    5  -0.312   0.029  -0.008
    1UNL     C4    6  -0.428  -0.034   0.030
    1UNL     O3    7  -0.443  -0.166   0.073
    1UNL     C5    8  -0.326  -0.253   0.035
    1UNL     C6    9  -0.342  -0.292  -0.111
    1UNL     C7   10  -0.193  -0.177   0.067
    1UNL     C8   11  -0.064  -0.266   0.043
    1UNL     N1   12   0.047  -0.189  -0.005
    1UNL     C9   13   0.183  -0.254   0.009
    1UNL    C10   14   0.288  -0.172  -0.076
    1UNL    C11   15   0.294  -0.025  -0.028
    1UNL    C12   16   0.184   0.017   0.042
    1UNL     N2   17   0.206   0.147   0.083
    1UNL    C13   18   0.335   0.187   0.036
    1UNL    C14   19   0.401   0.314   0.050
    1UNL    C15   20   0.532   0.315   0.009
    1UNL    C16   21   0.599   0.206  -0.047
    1UNL    C17   22   0.530   0.089  -0.076
    1UNL    C18   23   0.395   0.080  -0.029
    1UNL    C19   24   0.063  -0.061   0.068
    1UNL    C20   25  -0.060   0.028   0.048
    1UNL    C21   26  -0.183  -0.049  -0.011
    1UNL     H1   27  -0.533   0.396  -0.006
    1UNL     H2   28  -0.374   0.402  -0.101
    1UNL     H3   29  -0.385   0.414   0.081
    1UNL     H4   30  -0.520   0.026   0.026
    1UNL     H5   31  -0.336  -0.344   0.100
    1UNL     H6   32  -0.301  -0.206  -0.165
    1UNL     H7   33  -0.283  -0.374  -0.140
    1UNL     H8   34  -0.451  -0.295  -0.143
    1UNL     H9   35  -0.202  -0.147   0.164
    1UNL    H10   36  -0.091  -0.348  -0.036
    1UNL    H11   37  -0.044  -0.321   0.133
    1UNL    H12   38   0.183  -0.362  -0.025
    1UNL    H13   39   0.209  -0.253   0.113
    1UNL    H14   40   0.389  -0.210  -0.067
    1UNL    H15   41   0.269  -0.176  -0.181
    1UNL    H16   42   0.150   0.202   0.146
    1UNL    H17   43   0.370   0.390   0.117
    1UNL    H18   44   0.563   0.416  -0.002
    1UNL    H19   45   0.698   0.218  -0.088
    1UNL    H20   46   0.556   0.002  -0.130
    1UNL    H21   47   0.060  -0.095   0.175
    1UNL    H22   48  -0.093   0.085   0.137
    1UNL    H23   49  -0.031   0.108  -0.017
    1UNL    H24   50  -0.160  -0.073  -0.118
   0.00000   0.00000   0.00000   0.00000   0.00000   0.00000   0.00000   0.00000   0.00000
Generated with MDTraj, t= 31.0
 50
    1UNL     C1    1  -0.417   0.377  -0.014
    1UNL     O1    2  -0.439   0.235  -0.008
    1UNL     C2    3  -0.312   0.177  -0.016
    1UNL     O2    4  -0.206   0.241  -0.023
    1UNL     C3    5  -0.313   0.028  -0.009
    1UNL     C4    6  -0.425  -0.039   0.027
    1UNL     O3    7  -0.436  -0.173   0.055
    1UNL     C5    8  -0.327  -0.263   0.027
    1UNL     C6    9  -0.331  -0.315  -0.114
    1UNL     C7   10  -0.197  -0.180   0.062
    1UNL     C8   11  -0.062  -0.267   0.055
    1UNL     N1   12   0.050  -0.178   0.024
    1UNL     C9   13   0.178  -0.253  -0.024
    1UNL    C10   14   0.279  -0.155  -0.077
    1UNL    C11   15   0.276  -0.019  -0.017
    1UNL    C12   16   0.174   0.035   0.061
    1UNL     N2   17   0.217   0.158   0.103
    1UNL    C13   18   0.342   0.198   0.049
    1UNL    C14   19   0.421   0.308   0.063
    1UNL    C15   20   0.546   0.305   0.001
    1UNL    C16   21   0.581   0.188  -0.075
    1UNL    C17   22   0.505   0.078  -0.093
    1UNL    C18   23   0.383   0.080  -0.023
    1UNL    C19   24   0.051  -0.042   0.093
    1UNL    C20   25  -0.068   0.041   0.051
    1UNL    C21   26  -0.185  -0.046  -0.015
    1UNL     H1   27  -0.507   0.421   0.016
    1UNL     H2   28  -0.397   0.398  -0.121
    1UNL     H3   29  -0.345   0.409   0.060
    1UNL     H4   30  -0.521   0.020   0.036
    1UNL     H5   31  -0.337  -0.346   0.100
    1UNL     H6   32  -0.347  -0.232  -0.177
    1UNL     H7   33  -0.224  -0.340  -0.144
    1UNL     H8   34  -0.407  -0.389  -0.149
    1UNL     H9   35  -0.210  -0.156   0.162
    1UNL    H10   36  -0.070  -0.356  -0.022
    1UNL    H11   37  -0.041  -0.317   0.149
    1UNL    H12   38   0.155  -0.332  -0.097
    1UNL    H13   39   0.235  -0.301   0.064
    1UNL    H14   40   0.380  -0.188  -0.070
    1UNL    H15   41   0.257  -0.136  -0.181
    1UNL    H16   42   0.173   0.206   0.179
    1UNL    H17   43   0.374   0.385   0.126
    1UNL    H18   44   0.618   0.389   0.007
    1UNL    H19   45   0.664   0.203  -0.144
    1UNL    H20   46   0.552  -0.003  -0.153
    1UNL    H21   47   0.046  -0.060   0.205
    1UNL    H22   48  -0.099   0.107   0.134
    1UNL    H23   49  -0.036   0.118  -0.018
    1UNL    H24   50  -0.164  -0.078  -0.120
   0.00000   0.00000   0.00000   0.00000   0.00000   0.00000   0.00000   0.00000   0.00000
Generated with MDTraj, t= 32.0
 50
    1UNL     C1    1  -0.452   0.373  -0.032
    1UNL     O1    2  -0.450   0.234   0.008
    1UNL     C2    3  -0.330   0.174  -0.024
    1UNL     O2    4  -0.242   0.228  -0.089
    1UNL     C3    5  -0.311   0.037   0.021
    1UNL     C4    6  -0.428  -0.031   0.034
    1UNL     O3    7  -0.440  -0.165   0.026
    1UNL     C5    8  -0.317  -0.248   0.011
    1UNL     C6    9  -0.293  -0.288  -0.134
    1UNL     C7   10  -0.200  -0.178   0.089
    1UNL     C8   11  -0.066  -0.261   0.067
    1UNL     N1   12   0.049  -0.176   0.031
    1UNL     C9   13   0.172  -0.248  -0.018
    1UNL    C10   14   0.270  -0.159  -0.093
    1UNL    C11   15   0.290  -0.023  -0.019
    1UNL    C12   16   0.187   0.024   0.061
    1UNL     N2   17   0.235   0.137   0.120
    1UNL    C13   18   0.363   0.167   0.068
    1UNL    C14   19   0.438   0.288   0.076
    1UNL    C15   20   0.542   0.305  -0.009
    1UNL    C16   21   0.580   0.210  -0.103
    1UNL    C17   22   0.510   0.091  -0.104
    1UNL    C18   23   0.392   0.074  -0.030
    1UNL    C19   24   0.059  -0.048   0.107
    1UNL    C20   25  -0.069   0.040   0.094
    1UNL    C21   26  -0.185  -0.039   0.027
    1UNL     H1   27  -0.555   0.401  -0.032
    1UNL     H2   28  -0.416   0.382  -0.139
    1UNL     H3   29  -0.407   0.429   0.051
    1UNL     H4   30  -0.512   0.027   0.055
    1UNL     H5   31  -0.324  -0.343   0.064
    1UNL     H6   32  -0.247  -0.212  -0.192
    1UNL     H7   33  -0.228  -0.383  -0.154
    1UNL     H8   34  -0.390  -0.295  -0.186
    1UNL     H9   35  -0.217  -0.160   0.190
    1UNL    H10   36  -0.074  -0.338  -0.016
    1UNL    H11   37  -0.036  -0.320   0.155
    1UNL    H12   38   0.142  -0.324  -0.090
    1UNL    H13   39   0.230  -0.302   0.071
    1UNL    H14   40   0.361  -0.212  -0.102
    1UNL    H15   41   0.227  -0.142  -0.192
    1UNL    H16   42   0.183   0.209   0.167
    1UNL    H17   43   0.406   0.375   0.130
    1UNL    H18   44   0.596   0.394   0.012
    1UNL    H19   45   0.676   0.224  -0.151
    1UNL    H20   46   0.530   0.010  -0.168
    1UNL    H21   47   0.071  -0.084   0.215
    1UNL    H22   48  -0.094   0.082   0.192
    1UNL    H23   49  -0.045   0.130   0.039
    1UNL    H24   50  -0.155  -0.058  -0.079
   0.00000   0.00000   0.00000   0.00000   0.00000   0.00000   0.00000   0.00000   0.00000
Generated with MDTraj, t= 33.0
 50
    1UNL     C1    1  -0.455   0.352  -0.053
    1UNL     O1    2  -0.439   0.219  -0.009
    1UNL     C2    3  -0.313   0.171  -0.020
    1UNL     O2    4  -0.218   0.237  -0.061
    1UNL     C3    5  -0.305   0.025   0.009
    1UNL     C4    6  -0.421  -0.043   0.028
    1UNL     O3    7  -0.433  -0.179   0.055
    1UNL     C5    8  -0.311  -0.243   0.010
    1UNL     C6    9  -0.305  -0.240  -0.138
    1UNL     C7   10  -0.189  -0.181   0.072
    1UNL     C8   11  -0.061  -0.265   0.072
    1UNL     N1   12   0.050  -0.172   0.034
    1UNL     C9   13   0.173  -0.237  -0.009
    1UNL    C10   14   0.259  -0.142  -0.098
    1UNL    C11   15   0.262  -0.010  -0.029
    1UNL    C12   16   0.186   0.031   0.082
    1UNL     N2   17   0.232   0.151   0.129
    1UNL    C13   18   0.352   0.172   0.070
    1UNL    C14   19   0.437   0.280   0.081
    1UNL    C15   20   0.548   0.284  -0.002
    1UNL    C16   21   0.568   0.188  -0.103
    1UNL    C17   22   0.482   0.082  -0.122
    1UNL    C18   23   0.367   0.080  -0.036
    1UNL    C19   24   0.062  -0.045   0.116
    1UNL    C20   25  -0.065   0.044   0.090
    1UNL    C21   26  -0.169  -0.043   0.010
    1UNL     H1   27  -0.538   0.395   0.007
    1UNL     H2   28  -0.485   0.356  -0.163
    1UNL     H3   29  -0.365   0.402  -0.013
    1UNL     H4   30  -0.511   0.010   0.013
    1UNL     H5   31  -0.321  -0.345   0.044
    1UNL     H6   32  -0.346  -0.145  -0.183
    1UNL     H7   33  -0.196  -0.244  -0.159
    1UNL     H8   34  -0.357  -0.327  -0.182
    1UNL     H9   35  -0.221  -0.155   0.168
    1UNL    H10   36  -0.067  -0.342  -0.002
    1UNL    H11   37  -0.040  -0.316   0.171
    1UNL    H12   38   0.148  -0.328  -0.064
    1UNL    H13   39   0.234  -0.267   0.089
    1UNL    H14   40   0.358  -0.175  -0.101
    1UNL    H15   41   0.216  -0.133  -0.198
    1UNL    H16   42   0.186   0.211   0.196
    1UNL    H17   43   0.400   0.359   0.143
    1UNL    H18   44   0.627   0.357   0.020
    1UNL    H19   45   0.665   0.191  -0.149
    1UNL    H20   46   0.511   0.023  -0.213
    1UNL    H21   47   0.068  -0.082   0.224
    1UNL    H22   48  -0.099   0.073   0.189
    1UNL    H23   49  -0.034   0.132   0.037
    1UNL    H24   50  -0.140  -0.065  -0.095
   0.00000   0.00000   0.00000   0.00000   0.00000   0.00000   0.00000   0.00000   0.00000
Generated with MDTraj, t= 34.0
 50
    1UNL     C1    1  -0.422   0.372  -0.076
    1UNL     O1    2  -0.441   0.238  -0.039
    1UNL     C2    3  -0.324   0.172  -0.011
    1UNL     O2    4  -0.221   0.236  -0.001
    1UNL     C3    5  -0.314   0.029   0.006
    1UNL     C4    6  -0.429  -0.045   0.019
    1UNL     O3    7  -0.441  -0.183   0.045
    1UNL     C5    8  -0.325  -0.260   0.021
    1UNL     C6    9  -0.336  -0.293  -0.139
    1UNL     C7   10  -0.197  -0.185   0.084
    1UNL     C8   11  -0.068  -0.263   0.063
    1UNL     N1   12   0.056  -0.178   0.036
    1UNL     C9   13   0.182  -0.238  -0.015
    1UNL    C10   14   0.258  -0.140  -0.111
    1UNL    C11   15   0.275  -0.010  -0.033
    1UNL    C12   16   0.190   0.027   0.071
    1UNL     N2   17   0.231   0.146   0.127
    1UNL    C13   18   0.345   0.187   0.051
    1UNL    C14   19   0.441   0.293   0.071
    1UNL    C15   20   0.558   0.297   0.002
    1UNL    C16   21   0.589   0.197  -0.092
    1UNL    C17   22   0.492   0.098  -0.120
    1UNL    C18   23   0.376   0.085  -0.043
    1UNL    C19   24   0.070  -0.050   0.114
    1UNL    C20   25  -0.071   0.033   0.113
    1UNL    C21   26  -0.183  -0.044   0.027
    1UNL     H1   27  -0.511   0.431  -0.040
    1UNL     H2   28  -0.417   0.382  -0.188
    1UNL     H3   29  -0.333   0.405  -0.018
    1UNL     H4   30  -0.532   0.004   0.012
    1UNL     H5   31  -0.335  -0.351   0.078
    1UNL     H6   32  -0.298  -0.198  -0.197
    1UNL     H7   33  -0.264  -0.368  -0.163
    1UNL     H8   34  -0.437  -0.314  -0.181
    1UNL     H9   35  -0.219  -0.167   0.185
    1UNL    H10   36  -0.079  -0.336  -0.010
    1UNL    H11   37  -0.045  -0.319   0.164
    1UNL    H12   38   0.154  -0.336  -0.063
    1UNL    H13   39   0.245  -0.265   0.075
    1UNL    H14   40   0.350  -0.175  -0.145
    1UNL    H15   41   0.192  -0.120  -0.196
    1UNL    H16   42   0.217   0.184   0.221
    1UNL    H17   43   0.432   0.365   0.153
    1UNL    H18   44   0.630   0.370   0.032
    1UNL    H19   45   0.676   0.223  -0.153
    1UNL    H20   46   0.515   0.033  -0.200
    1UNL    H21   47   0.101  -0.073   0.222
    1UNL    H22   48  -0.101   0.042   0.217
    1UNL    H23   49  -0.051   0.129   0.068
    1UNL    H24   50  -0.149  -0.074  -0.077
   0.00000   0.00000   0.00000   0.00000   0.00000   0.00000   0.00000   0.00000   0.00000
Generated with MDTraj, t= 35.0
 50
    1UNL     C1    1  -0.416   0.370  -0.073
    1UNL     O1    2  -0.426   0.231  -0.057
    1UNL     C2    3  -0.311   0.182  -0.005
    1UNL     O2    4  -0.207   0.246   0.010
    1UNL     C3    5  -0.308   0.038   0.033
    1UNL     C4    6  -0.425  -0.034   0.037
    1UNL     O3    7  -0.437  -0.172   0.037
    1UNL     C5    8  -0.316  -0.258   0.029
    1UNL     C6    9  -0.307  -0.306  -0.113
    1UNL     C7   10  -0.195  -0.185   0.083
    1UNL     C8   11  -0.060  -0.257   0.078
    1UNL     N1   12   0.041  -0.177   0.006
    1UNL     C9   13   0.159  -0.244  -0.053
    1UNL    C10   14   0.270  -0.153  -0.106
    1UNL    C11   15   0.281  -0.029  -0.021
    1UNL    C12   16   0.186   0.017   0.057
    1UNL     N2   17   0.218   0.140   0.106
    1UNL    C13   18   0.332   0.183   0.054
    1UNL    C14   19   0.414   0.296   0.078
    1UNL    C15   20   0.531   0.303   0.007
    1UNL    C16   21   0.566   0.206  -0.085
    1UNL    C17   22   0.495   0.092  -0.107
    1UNL    C18   23   0.374   0.076  -0.029
    1UNL    C19   24   0.062  -0.057   0.096
    1UNL    C20   25  -0.057   0.043   0.093
    1UNL    C21   26  -0.181  -0.036   0.027
    1UNL     H1   27  -0.482   0.402  -0.159
    1UNL     H2   28  -0.312   0.404  -0.091
    1UNL     H3   29  -0.447   0.416   0.021
    1UNL     H4   30  -0.513   0.028   0.049
    1UNL     H5   31  -0.322  -0.347   0.096
    1UNL     H6   32  -0.271  -0.228  -0.186
    1UNL     H7   33  -0.243  -0.393  -0.121
    1UNL     H8   34  -0.410  -0.329  -0.155
    1UNL     H9   35  -0.215  -0.164   0.185
    1UNL    H10   36  -0.068  -0.341   0.018
    1UNL    H11   37  -0.022  -0.292   0.185
    1UNL    H12   38   0.127  -0.320  -0.134
    1UNL    H13   39   0.195  -0.303   0.029
    1UNL    H14   40   0.364  -0.200  -0.121
    1UNL    H15   41   0.240  -0.115  -0.204
    1UNL    H16   42   0.164   0.205   0.166
    1UNL    H17   43   0.396   0.340   0.172
    1UNL    H18   44   0.580   0.400   0.014
    1UNL    H19   45   0.647   0.229  -0.150
    1UNL    H20   46   0.527   0.026  -0.188
    1UNL    H21   47   0.083  -0.102   0.199
    1UNL    H22   48  -0.081   0.075   0.194
    1UNL    H23   49  -0.032   0.131   0.035
    1UNL    H24   50  -0.158  -0.046  -0.082
   0.00000   0.00000   0.00000   0.00000   0.00000   0.00000   0.00000   0.00000   0.00000
Generated with MDTraj, t= 36.0
 50
    1UNL     C1    1  -0.423   0.360  -0.062
    1UNL     O1    2  -0.427   0.222  -0.038
    1UNL     C2    3  -0.307   0.175  -0.004
    1UNL     O2    4  -0.203   0.242   0.003
    1UNL     C3    5  -0.306   0.029   0.017
    1UNL     C4    6  -0.426  -0.030   0.025
    1UNL     O3    7  -0.445  -0.161   0.056
    1UNL     C5    8  -0.331  -0.250   0.019
    1UNL     C6    9  -0.347  -0.276  -0.130
    1UNL     C7   10  -0.195  -0.185   0.070
    1UNL     C8   11  -0.057  -0.262   0.053
    1UNL     N1   12   0.056  -0.181   0.012
    1UNL     C9   13   0.186  -0.242  -0.012
    1UNL    C10   14   0.266  -0.149  -0.092
    1UNL    C11   15   0.281  -0.023  -0.020
    1UNL    C12   16   0.182   0.020   0.072
    1UNL     N2   17   0.220   0.145   0.115
    1UNL    C13   18   0.343   0.178   0.061
    1UNL    C14   19   0.413   0.299   0.064
    1UNL    C15   20   0.523   0.310  -0.013
    1UNL    C16   21   0.571   0.207  -0.096
    1UNL    C17   22   0.502   0.087  -0.101
    1UNL    C18   23   0.384   0.079  -0.031
    1UNL    C19   24   0.067  -0.066   0.106
    1UNL    C20   25  -0.057   0.027   0.089
    1UNL    C21   26  -0.178  -0.042   0.012
    1UNL     H1   27  -0.497   0.377  -0.144
    1UNL     H2   28  -0.325   0.408  -0.070
    1UNL     H3   29  -0.458   0.405   0.027
    1UNL     H4   30  -0.507   0.033   0.014
    1UNL     H5   31  -0.340  -0.345   0.079
    1UNL     H6   32  -0.363  -0.190  -0.191
    1UNL     H7   33  -0.251  -0.329  -0.164
    1UNL     H8   34  -0.436  -0.342  -0.157
    1UNL     H9   35  -0.203  -0.172   0.175
    1UNL    H10   36  -0.073  -0.344  -0.014
    1UNL    H11   37  -0.027  -0.306   0.157
    1UNL    H12   38   0.159  -0.340  -0.073
    1UNL    H13   39   0.237  -0.269   0.074
    1UNL    H14   40   0.365  -0.190  -0.104
    1UNL    H15   41   0.226  -0.134  -0.191
    1UNL    H16   42   0.160   0.215   0.165
    1UNL    H17   43   0.386   0.385   0.129
    1UNL    H18   44   0.576   0.404  -0.017
    1UNL    H19   45   0.659   0.232  -0.157
    1UNL    H20   46   0.543   0.004  -0.154
    1UNL    H21   47   0.076  -0.111   0.209
    1UNL    H22   48  -0.091   0.060   0.186
    1UNL    H23   49  -0.025   0.118   0.038
    1UNL    H24   50  -0.150  -0.054  -0.096
   0.00000   0.00000   0.00000   0.00000   0.00000   0.00000   0.00000   0.00000   0.00000
Generated with MDTraj, t= 37.0
 50
    1UNL     C1    1  -0.421   0.374  -0.041
    1UNL     O1    2  -0.450   0.240  -0.016
    1UNL     C2    3  -0.326   0.170  -0.014
    1UNL     O2    4  -0.225   0.234  -0.041
    1UNL     C3    5  -0.313   0.029   0.013
    1UNL     C4    6  -0.431  -0.040   0.032
    1UNL     O3    7  -0.433  -0.175   0.063
    1UNL     C5    8  -0.318  -0.244   0.007
    1UNL     C6    9  -0.330  -0.241  -0.145
    1UNL     C7   10  -0.188  -0.178   0.066
    1UNL     C8   11  -0.064  -0.260   0.031
    1UNL     N1   12   0.059  -0.179   0.021
    1UNL     C9   13   0.197  -0.261   0.007
    1UNL    C10   14   0.312  -0.173  -0.053
    1UNL    C11   15   0.288  -0.030  -0.009
    1UNL    C12   16   0.194   0.006   0.080
    1UNL     N2   17   0.218   0.137   0.118
    1UNL    C13   18   0.336   0.181   0.050
    1UNL    C14   19   0.413   0.300   0.058
    1UNL    C15   20   0.524   0.309  -0.022
    1UNL    C16   21   0.561   0.203  -0.103
    1UNL    C17   22   0.493   0.087  -0.111
    1UNL    C18   23   0.374   0.082  -0.038
    1UNL    C19   24   0.062  -0.053   0.105
    1UNL    C20   25  -0.066   0.035   0.097
    1UNL    C21   26  -0.176  -0.035   0.016
    1UNL     H1   27  -0.513   0.425  -0.007
    1UNL     H2   28  -0.397   0.399  -0.143
    1UNL     H3   29  -0.334   0.406   0.008
    1UNL     H4   30  -0.533   0.005   0.029
    1UNL     H5   31  -0.331  -0.349   0.047
    1UNL     H6   32  -0.294  -0.151  -0.187
    1UNL     H7   33  -0.265  -0.334  -0.176
    1UNL     H8   34  -0.438  -0.255  -0.175
    1UNL     H9   35  -0.192  -0.178   0.172
    1UNL    H10   36  -0.088  -0.300  -0.072
    1UNL    H11   37  -0.059  -0.353   0.098
    1UNL    H12   38   0.184  -0.352  -0.065
    1UNL    H13   39   0.222  -0.298   0.102
    1UNL    H14   40   0.411  -0.207  -0.023
    1UNL    H15   41   0.309  -0.166  -0.159
    1UNL    H16   42   0.170   0.172   0.205
    1UNL    H17   43   0.365   0.383   0.101
    1UNL    H18   44   0.601   0.382  -0.005
    1UNL    H19   45   0.649   0.200  -0.162
    1UNL    H20   46   0.529  -0.004  -0.158
    1UNL    H21   47   0.062  -0.093   0.210
    1UNL    H22   48  -0.102   0.069   0.193
    1UNL    H23   49  -0.044   0.129   0.046
    1UNL    H24   50  -0.143  -0.044  -0.091
   0.00000   0.00000   0.00000   0.00000   0.00000   0.00000   0.00000   0.00000   0.00000
Generated with MDTraj, t= 38.0
 50
    1UNL     C1    1  -0.441   0.358  -0.026
    1UNL     O1    2  -0.416   0.236   0.040
    1UNL     C2    3  -0.306   0.179  -0.011
    1UNL     O2    4  -0.223   0.239  -0.076
    1UNL     C3    5  -0.303   0.035   0.011
    1UNL     C4    6  -0.419  -0.031   0.046
    1UNL     O3    7  -0.441  -0.166   0.043
    1UNL     C5    8  -0.326  -0.242  -0.003
    1UNL     C6    9  -0.326  -0.253  -0.156
    1UNL     C7   10  -0.196  -0.179   0.061
    1UNL     C8   11  -0.072  -0.269   0.051
    1UNL     N1   12   0.054  -0.187   0.024
    1UNL     C9   13   0.186  -0.262  -0.002
    1UNL    C10   14   0.294  -0.170  -0.057
    1UNL    C11   15   0.293  -0.034   0.001
    1UNL    C12   16   0.188   0.018   0.073
    1UNL     N2   17   0.209   0.150   0.100
    1UNL    C13   18   0.335   0.186   0.049
    1UNL    C14   19   0.392   0.308   0.032
    1UNL    C15   20   0.510   0.317  -0.035
    1UNL    C16   21   0.567   0.201  -0.094
    1UNL    C17   22   0.516   0.078  -0.069
    1UNL    C18   23   0.397   0.071  -0.009
    1UNL    C19   24   0.068  -0.058   0.101
    1UNL    C20   25  -0.058   0.027   0.080
    1UNL    C21   26  -0.176  -0.037   0.005
    1UNL     H1   27  -0.525   0.413   0.025
    1UNL     H2   28  -0.480   0.330  -0.124
    1UNL     H3   29  -0.359   0.419  -0.047
    1UNL     H4   30  -0.505   0.035   0.076
    1UNL     H5   31  -0.336  -0.343   0.044
    1UNL     H6   32  -0.362  -0.156  -0.202
    1UNL     H7   33  -0.222  -0.279  -0.190
    1UNL     H8   34  -0.395  -0.335  -0.191
    1UNL     H9   35  -0.217  -0.158   0.163
    1UNL    H10   36  -0.091  -0.364  -0.016
    1UNL    H11   37  -0.060  -0.315   0.153
    1UNL    H12   38   0.155  -0.332  -0.086
    1UNL    H13   39   0.223  -0.314   0.084
    1UNL    H14   40   0.393  -0.212  -0.040
    1UNL    H15   41   0.281  -0.170  -0.161
    1UNL    H16   42   0.131   0.211   0.136
    1UNL    H17   43   0.342   0.400   0.066
    1UNL    H18   44   0.560   0.412  -0.040
    1UNL    H19   45   0.667   0.203  -0.140
    1UNL    H20   46   0.544  -0.013  -0.121
    1UNL    H21   47   0.067  -0.087   0.208
    1UNL    H22   48  -0.098   0.051   0.178
    1UNL    H23   49  -0.036   0.126   0.038
    1UNL    H24   50  -0.145  -0.031  -0.103
   0.00000   0.00000   0.00000   0.00000   0.00000   0.00000   0.00000   0.00000   0.00000
Generated with MDTraj, t= 39.0
 50
    1UNL     C1    1  -0.405   0.376   0.025
    1UNL     O1    2  -0.438   0.239   0.008
    1UNL     C2    3  -0.319   0.175  -0.017
    1UNL     O2    4  -0.220   0.235  -0.059
    1UNL     C3    5  -0.314   0.032   0.009
    1UNL     C4    6  -0.425  -0.034   0.045
    1UNL     O3    7  -0.441  -0.172   0.037
    1UNL     C5    8  -0.326  -0.256   0.005
    1UNL     C6    9  -0.315  -0.290  -0.134
    1UNL     C7   10  -0.197  -0.185   0.055
    1UNL     C8   11  -0.065  -0.256   0.044
    1UNL     N1   12   0.052  -0.174   0.008
    1UNL     C9   13   0.179  -0.255   0.011
    1UNL    C10   14   0.294  -0.178  -0.042
    1UNL    C11   15   0.293  -0.034   0.003
    1UNL    C12   16   0.180   0.027   0.056
    1UNL     N2   17   0.206   0.158   0.077
    1UNL    C13   18   0.332   0.187   0.040
    1UNL    C14   19   0.402   0.307   0.029
    1UNL    C15   20   0.525   0.318  -0.033
    1UNL    C16   21   0.585   0.202  -0.074
    1UNL    C17   22   0.515   0.081  -0.074
    1UNL    C18   23   0.390   0.072  -0.008
    1UNL    C19   24   0.058  -0.054   0.092
    1UNL    C20   25  -0.069   0.033   0.074
    1UNL    C21   26  -0.183  -0.039  -0.003
    1UNL     H1   27  -0.486   0.450   0.061
    1UNL     H2   28  -0.385   0.405  -0.080
    1UNL     H3   29  -0.317   0.397   0.082
    1UNL     H4   30  -0.505   0.022   0.081
    1UNL     H5   31  -0.334  -0.350   0.061
    1UNL     H6   32  -0.282  -0.196  -0.200
    1UNL     H7   33  -0.247  -0.372  -0.154
    1UNL     H8   34  -0.413  -0.321  -0.181
    1UNL     H9   35  -0.220  -0.173   0.158
    1UNL    H10   36  -0.079  -0.330  -0.050
    1UNL    H11   37  -0.048  -0.333   0.123
    1UNL    H12   38   0.159  -0.338  -0.055
    1UNL    H13   39   0.191  -0.292   0.112
    1UNL    H14   40   0.386  -0.231  -0.012
    1UNL    H15   41   0.302  -0.182  -0.146
    1UNL    H16   42   0.135   0.228   0.107
    1UNL    H17   43   0.356   0.389   0.080
    1UNL    H18   44   0.577   0.413  -0.040
    1UNL    H19   45   0.684   0.202  -0.114
    1UNL    H20   46   0.534  -0.007  -0.132
    1UNL    H21   47   0.058  -0.093   0.194
    1UNL    H22   48  -0.107   0.069   0.169
    1UNL    H23   49  -0.039   0.126   0.023
    1UNL    H24   50  -0.140  -0.042  -0.107
   0.00000   0.00000   0.00000   0.00000   0.00000   0.00000   0.00000   0.00000   0.00000
Generated with MDTraj, t= 40.0
 50
    1UNL     C1    1  -0.418   0.366   0.031
    1UNL     O1    2  -0.431   0.235   0.023
    1UNL     C2    3  -0.317   0.172  -0.008
    1UNL     O2    4  -0.215   0.237  -0.019
    1UNL     C3    5  -0.313   0.032  -0.024
    1UNL     C4    6  -0.429  -0.031   0.003
    1UNL     O3    7  -0.445  -0.165   0.040
    1UNL     C5    8  -0.329  -0.254   0.025
    1UNL     C6    9  -0.335  -0.307  -0.123
    1UNL     C7   10  -0.193  -0.183   0.061
    1UNL     C8   11  -0.070  -0.268   0.043
    1UNL     N1   12   0.047  -0.184   0.021
    1UNL     C9   13   0.185  -0.250   0.021
    1UNL    C10   14   0.295  -0.168  -0.040
    1UNL    C11   15   0.289  -0.024  -0.006
    1UNL    C12   16   0.182   0.030   0.055
    1UNL     N2   17   0.209   0.163   0.075
    1UNL    C13   18   0.331   0.197   0.020
    1UNL    C14   19   0.408   0.315   0.027
    1UNL    C15   20   0.542   0.314  -0.002
    1UNL    C16   21   0.595   0.190  -0.060
    1UNL    C17   22   0.517   0.078  -0.091
    1UNL    C18   23   0.384   0.075  -0.031
    1UNL    C19   24   0.055  -0.045   0.084
    1UNL    C20   25  -0.071   0.037   0.045
    1UNL    C21   26  -0.181  -0.046  -0.024
    1UNL     H1   27  -0.502   0.422  -0.030
    1UNL     H2   28  -0.324   0.396  -0.021
    1UNL     H3   29  -0.432   0.406   0.131
    1UNL     H4   30  -0.519   0.023   0.025
    1UNL     H5   31  -0.343  -0.336   0.092
    1UNL     H6   32  -0.318  -0.221  -0.194
    1UNL     H7   33  -0.259  -0.385  -0.146
    1UNL     H8   34  -0.435  -0.352  -0.157
    1UNL     H9   35  -0.205  -0.165   0.164
    1UNL    H10   36  -0.082  -0.348  -0.040
    1UNL    H11   37  -0.062  -0.333   0.134
    1UNL    H12   38   0.175  -0.343  -0.018
    1UNL    H13   39   0.206  -0.265   0.130
    1UNL    H14   40   0.395  -0.203  -0.010
    1UNL    H15   41   0.301  -0.183  -0.143
    1UNL    H16   42   0.152   0.235   0.119
    1UNL    H17   43   0.371   0.405   0.074
    1UNL    H18   44   0.605   0.401   0.010
    1UNL    H19   45   0.690   0.194  -0.115
    1UNL    H20   46   0.553  -0.013  -0.141
    1UNL    H21   47   0.059  -0.052   0.192
    1UNL    H22   48  -0.107   0.078   0.139
    1UNL    H23   49  -0.039   0.124  -0.014
    1UNL    H24   50  -0.150  -0.082  -0.126
   0.00000   0.00000   0.00000   0.00000   0.00000   0.00000   0.00000   0.00000   0.00000
Generated with MDTraj, t= 41.0
 50
    1UNL     C1    1  -0.456   0.379   0.010
    1UNL     O1    2  -0.457   0.239   0.017
    1UNL     C2    3  -0.333   0.185   0.002
    1UNL     O2    4  -0.239   0.259  -0.024
    1UNL     C3    5  -0.321   0.033   0.007
    1UNL     C4    6  -0.437  -0.038   0.026
    1UNL     O3    7  -0.442  -0.173   0.033
    1UNL     C5    8  -0.318  -0.252   0.017
    1UNL     C6    9  -0.295  -0.299  -0.131
    1UNL     C7   10  -0.196  -0.176   0.073
    1UNL     C8   11  -0.061  -0.254   0.068
    1UNL     N1   12   0.048  -0.183   0.004
    1UNL     C9   13   0.181  -0.258   0.004
    1UNL    C10   14   0.291  -0.169  -0.062
    1UNL    C11   15   0.297  -0.033  -0.007
    1UNL    C12   16   0.187   0.022   0.052
    1UNL     N2   17   0.215   0.155   0.086
    1UNL    C13   18   0.342   0.185   0.042
    1UNL    C14   19   0.410   0.305   0.025
    1UNL    C15   20   0.548   0.307  -0.013
    1UNL    C16   21   0.603   0.186  -0.074
    1UNL    C17   22   0.531   0.070  -0.066
    1UNL    C18   23   0.397   0.067  -0.015
    1UNL    C19   24   0.061  -0.051   0.067
    1UNL    C20   25  -0.062   0.041   0.037
    1UNL    C21   26  -0.188  -0.044  -0.009
    1UNL     H1   27  -0.548   0.449  -0.011
    1UNL     H2   28  -0.391   0.401  -0.077
    1UNL     H3   29  -0.414   0.420   0.099
    1UNL     H4   30  -0.534   0.022   0.024
    1UNL     H5   31  -0.333  -0.341   0.075
    1UNL     H6   32  -0.302  -0.220  -0.197
    1UNL     H7   33  -0.194  -0.353  -0.140
    1UNL     H8   34  -0.375  -0.378  -0.157
    1UNL     H9   35  -0.222  -0.142   0.168
    1UNL    H10   36  -0.092  -0.338   0.009
    1UNL    H11   37  -0.031  -0.296   0.171
    1UNL    H12   38   0.164  -0.345  -0.045
    1UNL    H13   39   0.206  -0.283   0.110
    1UNL    H14   40   0.386  -0.221  -0.068
    1UNL    H15   41   0.266  -0.157  -0.165
    1UNL    H16   42   0.155   0.230   0.118
    1UNL    H17   43   0.369   0.400   0.059
    1UNL    H18   44   0.598   0.403  -0.027
    1UNL    H19   45   0.699   0.200  -0.119
    1UNL    H20   46   0.578  -0.021  -0.094
    1UNL    H21   47   0.066  -0.064   0.174
    1UNL    H22   48  -0.085   0.109   0.120
    1UNL    H23   49  -0.026   0.107  -0.044
    1UNL    H24   50  -0.187  -0.063  -0.119
   0.00000   0.00000   0.00000   0.00000   0.00000   0.00000   0.00000   0.00000   0.00000
Generated with MDTraj, t= 42.0
 50
    1UNL     C1    1  -0.483   0.352  -0.009
    1UNL     O1    2  -0.464   0.218  -0.004
    1UNL     C2    3  -0.332   0.177  -0.004
    1UNL     O2    4  -0.241   0.256  -0.026
    1UNL     C3    5  -0.316   0.032   0.011
    1UNL     C4    6  -0.426  -0.045   0.035
    1UNL     O3    7  -0.437  -0.181   0.046
    1UNL     C5    8  -0.320  -0.259   0.007
    1UNL     C6    9  -0.308  -0.267  -0.142
    1UNL     C7   10  -0.201  -0.179   0.072
    1UNL     C8   11  -0.064  -0.255   0.058
    1UNL     N1   12   0.048  -0.170   0.011
    1UNL     C9   13   0.171  -0.245  -0.011
    1UNL    C10   14   0.296  -0.165  -0.053
    1UNL    C11   15   0.291  -0.021  -0.010
    1UNL    C12   16   0.186   0.038   0.057
    1UNL     N2   17   0.227   0.170   0.078
    1UNL    C13   18   0.361   0.194   0.045
    1UNL    C14   19   0.451   0.301   0.050
    1UNL    C15   20   0.572   0.287  -0.021
    1UNL    C16   21   0.606   0.168  -0.079
    1UNL    C17   22   0.517   0.062  -0.083
    1UNL    C18   23   0.386   0.077  -0.027
    1UNL    C19   24   0.056  -0.042   0.089
    1UNL    C20   25  -0.073   0.048   0.074
    1UNL    C21   26  -0.187  -0.033   0.003
    1UNL     H1   27  -0.552   0.394   0.069
    1UNL     H2   28  -0.530   0.370  -0.105
    1UNL     H3   29  -0.396   0.408  -0.008
    1UNL     H4   30  -0.516   0.008   0.048
    1UNL     H5   31  -0.325  -0.359   0.050
    1UNL     H6   32  -0.296  -0.174  -0.191
    1UNL     H7   33  -0.234  -0.344  -0.186
    1UNL     H8   34  -0.409  -0.303  -0.175
    1UNL     H9   35  -0.216  -0.155   0.173
    1UNL    H10   36  -0.076  -0.342   0.004
    1UNL    H11   37  -0.043  -0.291   0.167
    1UNL    H12   38   0.147  -0.306  -0.092
    1UNL    H13   39   0.191  -0.308   0.078
    1UNL    H14   40   0.385  -0.208  -0.012
    1UNL    H15   41   0.304  -0.172  -0.162
    1UNL    H16   42   0.173   0.238   0.129
    1UNL    H17   43   0.419   0.393   0.093
    1UNL    H18   44   0.644   0.366  -0.010
    1UNL    H19   45   0.704   0.147  -0.117
    1UNL    H20   46   0.544  -0.039  -0.116
    1UNL    H21   47   0.075  -0.072   0.189
    1UNL    H22   48  -0.107   0.073   0.176
    1UNL    H23   49  -0.060   0.146   0.025
    1UNL    H24   50  -0.162  -0.049  -0.105
   0.00000   0.00000   0.00000   0.00000   0.00000   0.00000   0.00000   0.00000   0.00000
Generated with MDTraj, t= 43.0
 50
    1UNL     C1    1  -0.475   0.354  -0.042
    1UNL     O1    2  -0.470   0.224  -0.012
    1UNL     C2    3  -0.337   0.175  -0.007
    1UNL     O2    4  -0.239   0.252  -0.022
    1UNL     C3    5  -0.318   0.030   0.017
    1UNL     C4    6  -0.428  -0.049   0.038
    1UNL     O3    7  -0.430  -0.185   0.056
    1UNL     C5    8  -0.315  -0.252   0.004
    1UNL     C6    9  -0.316  -0.247  -0.141
    1UNL     C7   10  -0.193  -0.176   0.069
    1UNL     C8   11  -0.067  -0.256   0.044
    1UNL     N1   12   0.057  -0.177   0.040
    1UNL     C9   13   0.185  -0.248   0.020
    1UNL    C10   14   0.267  -0.158  -0.081
    1UNL    C11   15   0.274  -0.014  -0.045
    1UNL    C12   16   0.182   0.038   0.045
    1UNL     N2   17   0.224   0.153   0.090
    1UNL    C13   18   0.350   0.183   0.028
    1UNL    C14   19   0.439   0.286   0.059
    1UNL    C15   20   0.564   0.291   0.001
    1UNL    C16   21   0.608   0.178  -0.074
    1UNL    C17   22   0.528   0.068  -0.091
    1UNL    C18   23   0.394   0.070  -0.048
    1UNL    C19   24   0.068  -0.036   0.101
    1UNL    C20   25  -0.063   0.040   0.094
    1UNL    C21   26  -0.181  -0.029   0.017
    1UNL     H1   27  -0.493   0.417   0.048
    1UNL     H2   28  -0.564   0.364  -0.100
    1UNL     H3   29  -0.396   0.384  -0.102
    1UNL     H4   30  -0.517  -0.003   0.065
    1UNL     H5   31  -0.321  -0.352   0.052
    1UNL     H6   32  -0.337  -0.142  -0.178
    1UNL     H7   33  -0.221  -0.278  -0.185
    1UNL     H8   34  -0.390  -0.313  -0.184
    1UNL     H9   35  -0.208  -0.170   0.172
    1UNL    H10   36  -0.079  -0.305  -0.045
    1UNL    H11   37  -0.054  -0.347   0.117
    1UNL    H12   38   0.171  -0.351  -0.013
    1UNL    H13   39   0.239  -0.250   0.113
    1UNL    H14   40   0.361  -0.201  -0.100
    1UNL    H15   41   0.211  -0.161  -0.179
    1UNL    H16   42   0.177   0.199   0.164
    1UNL    H17   43   0.415   0.368   0.130
    1UNL    H18   44   0.634   0.361   0.048
    1UNL    H19   45   0.707   0.189  -0.117
    1UNL    H20   46   0.562  -0.005  -0.161
    1UNL    H21   47   0.096  -0.064   0.199
    1UNL    H22   48  -0.102   0.066   0.195
    1UNL    H23   49  -0.048   0.136   0.042
    1UNL    H24   50  -0.147  -0.053  -0.087
   0.00000   0.00000   0.00000   0.00000   0.00000   0.00000   0.00000   0.00000   0.00000
Generated with MDTraj, t= 44.0
 50
    1UNL     C1    1  -0.440   0.362  -0.064
    1UNL     O1    2  -0.447   0.226  -0.017
    1UNL     C2    3  -0.321   0.168  -0.003
    1UNL     O2    4  -0.216   0.232  -0.018
    1UNL     C3    5  -0.313   0.023   0.015
    1UNL     C4    6  -0.427  -0.045   0.041
    1UNL     O3    7  -0.434  -0.176   0.062
    1UNL     C5    8  -0.317  -0.252   0.018
    1UNL     C6    9  -0.323  -0.269  -0.135
    1UNL     C7   10  -0.191  -0.181   0.079
    1UNL     C8   11  -0.064  -0.260   0.060
    1UNL     N1   12   0.039  -0.166   0.008
    1UNL     C9   13   0.160  -0.239  -0.024
    1UNL    C10   14   0.278  -0.161  -0.080
    1UNL    C11   15   0.280  -0.019  -0.024
    1UNL    C12   16   0.189   0.023   0.067
    1UNL     N2   17   0.231   0.151   0.117
    1UNL    C13   18   0.348   0.190   0.046
    1UNL    C14   19   0.435   0.300   0.068
    1UNL    C15   20   0.551   0.298  -0.005
    1UNL    C16   21   0.582   0.188  -0.083
    1UNL    C17   22   0.503   0.080  -0.098
    1UNL    C18   23   0.380   0.082  -0.037
    1UNL    C19   24   0.059  -0.042   0.092
    1UNL    C20   25  -0.068   0.043   0.076
    1UNL    C21   26  -0.180  -0.040   0.015
    1UNL     H1   27  -0.345   0.407  -0.026
    1UNL     H2   28  -0.517   0.427  -0.027
    1UNL     H3   29  -0.451   0.367  -0.169
    1UNL     H4   30  -0.522   0.017   0.037
    1UNL     H5   31  -0.326  -0.350   0.074
    1UNL     H6   32  -0.321  -0.158  -0.173
    1UNL     H7   33  -0.237  -0.320  -0.172
    1UNL     H8   34  -0.410  -0.323  -0.170
    1UNL     H9   35  -0.204  -0.146   0.176
    1UNL    H10   36  -0.072  -0.347  -0.000
    1UNL    H11   37  -0.026  -0.303   0.159
    1UNL    H12   38   0.127  -0.314  -0.106
    1UNL    H13   39   0.189  -0.294   0.062
    1UNL    H14   40   0.372  -0.205  -0.059
    1UNL    H15   41   0.271  -0.162  -0.193
    1UNL    H16   42   0.189   0.185   0.201
    1UNL    H17   43   0.411   0.362   0.149
    1UNL    H18   44   0.621   0.378  -0.004
    1UNL    H19   45   0.676   0.188  -0.133
    1UNL    H20   46   0.519   0.020  -0.187
    1UNL    H21   47   0.063  -0.074   0.193
    1UNL    H22   48  -0.099   0.086   0.174
    1UNL    H23   49  -0.046   0.126   0.008
    1UNL    H24   50  -0.164  -0.043  -0.097
   0.00000   0.00000   0.00000   0.00000   0.00000   0.00000   0.00000   0.00000   0.00000
Generated with MDTraj, t= 45.0
 50
    1UNL     C1    1  -0.428   0.373  -0.051
    1UNL     O1    2  -0.428   0.237  -0.021
    1UNL     C2    3  -0.306   0.176  -0.022
    1UNL     O2    4  -0.207   0.238  -0.058
    1UNL     C3    5  -0.301   0.037   0.014
    1UNL     C4    6  -0.423  -0.023   0.039
    1UNL     O3    7  -0.444  -0.158   0.060
    1UNL     C5    8  -0.331  -0.245   0.029
    1UNL     C6    9  -0.344  -0.306  -0.110
    1UNL     C7   10  -0.199  -0.187   0.084
    1UNL     C8   11  -0.064  -0.265   0.059
    1UNL     N1   12   0.046  -0.183  -0.000
    1UNL     C9   13   0.176  -0.255  -0.039
    1UNL    C10   14   0.269  -0.151  -0.102
    1UNL    C11   15   0.290  -0.029  -0.014
    1UNL    C12   16   0.193   0.012   0.076
    1UNL     N2   17   0.223   0.139   0.122
    1UNL    C13   18   0.348   0.172   0.069
    1UNL    C14   19   0.413   0.297   0.068
    1UNL    C15   20   0.516   0.319  -0.008
    1UNL    C16   21   0.569   0.222  -0.091
    1UNL    C17   22   0.503   0.102  -0.096
    1UNL    C18   23   0.388   0.075  -0.019
    1UNL    C19   24   0.069  -0.067   0.097
    1UNL    C20   25  -0.053   0.027   0.086
    1UNL    C21   26  -0.172  -0.043   0.017
    1UNL     H1   27  -0.361   0.423   0.027
    1UNL     H2   28  -0.529   0.412  -0.039
    1UNL     H3   29  -0.407   0.389  -0.156
    1UNL     H4   30  -0.514   0.039   0.034
    1UNL     H5   31  -0.342  -0.336   0.095
    1UNL     H6   32  -0.301  -0.232  -0.183
    1UNL     H7   33  -0.297  -0.405  -0.114
    1UNL     H8   34  -0.451  -0.322  -0.125
    1UNL     H9   35  -0.209  -0.177   0.187
    1UNL    H10   36  -0.086  -0.350  -0.013
    1UNL    H11   37  -0.020  -0.320   0.145
    1UNL    H12   38   0.151  -0.332  -0.124
    1UNL    H13   39   0.223  -0.310   0.036
    1UNL    H14   40   0.362  -0.196  -0.136
    1UNL    H15   41   0.224  -0.110  -0.196
    1UNL    H16   42   0.163   0.207   0.164
    1UNL    H17   43   0.373   0.374   0.136
    1UNL    H18   44   0.565   0.417  -0.010
    1UNL    H19   45   0.644   0.241  -0.169
    1UNL    H20   46   0.542   0.024  -0.159
    1UNL    H21   47   0.070  -0.107   0.197
    1UNL    H22   48  -0.088   0.044   0.191
    1UNL    H23   49  -0.020   0.120   0.037
    1UNL    H24   50  -0.158  -0.062  -0.093
   0.00000   0.00000   0.00000   0.00000   0.00000   0.00000   0.00000   0.00000   0.00000
Generated with MDTraj, t= 46.0
 50
    1UNL     C1    1  -0.387   0.391  -0.043
    1UNL     O1    2  -0.411   0.253  -0.016
    1UNL     C2    3  -0.300   0.178  -0.029
    1UNL     O2    4  -0.196   0.223  -0.077
    1UNL     C3    5  -0.302   0.034   0.013
    1UNL     C4    6  -0.419  -0.031   0.042
    1UNL     O3    7  -0.432  -0.165   0.082
    1UNL     C5    8  -0.323  -0.255   0.039
    1UNL     C6    9  -0.355  -0.284  -0.108
    1UNL     C7   10  -0.188  -0.188   0.062
    1UNL     C8   11  -0.064  -0.277   0.043
    1UNL     N1   12   0.059  -0.201   0.025
    1UNL     C9   13   0.194  -0.250  -0.019
    1UNL    C10   14   0.275  -0.148  -0.094
    1UNL    C11   15   0.281  -0.029  -0.013
    1UNL    C12   16   0.187   0.009   0.076
    1UNL     N2   17   0.207   0.136   0.123
    1UNL    C13   18   0.324   0.180   0.077
    1UNL    C14   19   0.404   0.301   0.080
    1UNL    C15   20   0.519   0.311   0.006
    1UNL    C16   21   0.539   0.221  -0.100
    1UNL    C17   22   0.465   0.108  -0.121
    1UNL    C18   23   0.365   0.087  -0.029
    1UNL    C19   24   0.063  -0.069   0.101
    1UNL    C20   25  -0.056   0.023   0.065
    1UNL    C21   26  -0.173  -0.047  -0.004
    1UNL     H1   27  -0.377   0.448   0.057
    1UNL     H2   28  -0.466   0.428  -0.111
    1UNL     H3   29  -0.296   0.395  -0.105
    1UNL     H4   30  -0.499   0.031   0.054
    1UNL     H5   31  -0.329  -0.349   0.097
    1UNL     H6   32  -0.367  -0.191  -0.153
    1UNL     H7   33  -0.273  -0.338  -0.163
    1UNL     H8   34  -0.445  -0.347  -0.124
    1UNL     H9   35  -0.186  -0.172   0.164
    1UNL    H10   36  -0.078  -0.352  -0.049
    1UNL    H11   37  -0.057  -0.347   0.124
    1UNL    H12   38   0.187  -0.346  -0.086
    1UNL    H13   39   0.248  -0.277   0.066
    1UNL    H14   40   0.384  -0.178  -0.106
    1UNL    H15   41   0.241  -0.133  -0.199
    1UNL    H16   42   0.149   0.185   0.190
    1UNL    H17   43   0.382   0.374   0.158
    1UNL    H18   44   0.587   0.393   0.025
    1UNL    H19   45   0.615   0.252  -0.167
    1UNL    H20   46   0.507   0.034  -0.186
    1UNL    H21   47   0.053  -0.096   0.205
    1UNL    H22   48  -0.089   0.083   0.154
    1UNL    H23   49  -0.018   0.096  -0.009
    1UNL    H24   50  -0.150  -0.063  -0.114
   0.00000   0.00000   0.00000   0.00000   0.00000   0.00000   0.00000   0.00000   0.00000
Generated with MDTraj, t= 47.0
 50
    1UNL     C1    1  -0.374   0.370  -0.037
    1UNL     O1    2  -0.406   0.235  -0.007
    1UNL     C2    3  -0.298   0.163  -0.036
    1UNL     O2    4  -0.195   0.205  -0.089
    1UNL     C3    5  -0.310   0.024   0.002
    1UNL     C4    6  -0.429  -0.035   0.032
    1UNL     O3    7  -0.440  -0.161   0.075
    1UNL     C5    8  -0.338  -0.249   0.034
    1UNL     C6    9  -0.356  -0.255  -0.116
    1UNL     C7   10  -0.198  -0.189   0.083
    1UNL     C8   11  -0.067  -0.265   0.045
    1UNL     N1   12   0.051  -0.180   0.013
    1UNL     C9   13   0.182  -0.253  -0.021
    1UNL    C10   14   0.285  -0.158  -0.089
    1UNL    C11   15   0.282  -0.026  -0.019
    1UNL    C12   16   0.189   0.012   0.069
    1UNL     N2   17   0.223   0.129   0.135
    1UNL    C13   18   0.339   0.173   0.072
    1UNL    C14   19   0.400   0.303   0.072
    1UNL    C15   20   0.506   0.328  -0.005
    1UNL    C16   21   0.549   0.238  -0.102
    1UNL    C17   22   0.487   0.109  -0.113
    1UNL    C18   23   0.376   0.081  -0.030
    1UNL    C19   24   0.062  -0.064   0.099
    1UNL    C20   25  -0.059   0.029   0.088
    1UNL    C21   26  -0.185  -0.048   0.026
    1UNL     H1   27  -0.276   0.398   0.013
    1UNL     H2   28  -0.464   0.431  -0.014
    1UNL     H3   29  -0.360   0.365  -0.147
    1UNL     H4   30  -0.528   0.012   0.024
    1UNL     H5   31  -0.369  -0.340   0.080
    1UNL     H6   32  -0.325  -0.169  -0.166
    1UNL     H7   33  -0.290  -0.335  -0.158
    1UNL     H8   34  -0.452  -0.290  -0.157
    1UNL     H9   35  -0.198  -0.177   0.185
    1UNL    H10   36  -0.094  -0.332  -0.048
    1UNL    H11   37  -0.046  -0.339   0.119
    1UNL    H12   38   0.163  -0.345  -0.086
    1UNL    H13   39   0.224  -0.290   0.071
    1UNL    H14   40   0.392  -0.205  -0.095
    1UNL    H15   41   0.263  -0.128  -0.192
    1UNL    H16   42   0.182   0.181   0.214
    1UNL    H17   43   0.365   0.374   0.141
    1UNL    H18   44   0.556   0.423   0.002
    1UNL    H19   45   0.634   0.257  -0.168
    1UNL    H20   46   0.508   0.041  -0.196
    1UNL    H21   47   0.080  -0.092   0.202
    1UNL    H22   48  -0.087   0.072   0.186
    1UNL    H23   49  -0.035   0.118   0.028
    1UNL    H24   50  -0.134  -0.068  -0.074
   0.00000   0.00000   0.00000   0.00000   0.00000   0.00000   0.00000   0.00000   0.00000
Generated with MDTraj, t= 48.0
 50
    1UNL     C1    1  -0.414   0.373  -0.057
    1UNL     O1    2  -0.412   0.247   0.011
    1UNL     C2    3  -0.298   0.178  -0.020
    1UNL     O2    4  -0.206   0.228  -0.084
    1UNL     C3    5  -0.294   0.035   0.021
    1UNL     C4    6  -0.416  -0.027   0.047
    1UNL     O3    7  -0.435  -0.162   0.059
    1UNL     C5    8  -0.317  -0.248   0.017
    1UNL     C6    9  -0.320  -0.287  -0.135
    1UNL     C7   10  -0.186  -0.186   0.072
    1UNL     C8   11  -0.061  -0.269   0.050
    1UNL     N1   12   0.053  -0.176   0.021
    1UNL     C9   13   0.171  -0.250  -0.036
    1UNL    C10   14   0.273  -0.154  -0.099
    1UNL    C11   15   0.275  -0.028  -0.024
    1UNL    C12   16   0.187   0.011   0.079
    1UNL     N2   17   0.223   0.140   0.129
    1UNL    C13   18   0.325   0.180   0.054
    1UNL    C14   19   0.388   0.303   0.059
    1UNL    C15   20   0.500   0.315  -0.021
    1UNL    C16   21   0.561   0.202  -0.081
    1UNL    C17   22   0.489   0.084  -0.091
    1UNL    C18   23   0.369   0.079  -0.029
    1UNL    C19   24   0.066  -0.062   0.117
    1UNL    C20   25  -0.060   0.033   0.105
    1UNL    C21   26  -0.168  -0.043   0.023
    1UNL     H1   27  -0.323   0.380  -0.121
    1UNL     H2   28  -0.436   0.448   0.018
    1UNL     H3   29  -0.501   0.360  -0.124
    1UNL     H4   30  -0.517   0.025   0.058
    1UNL     H5   31  -0.337  -0.342   0.063
    1UNL     H6   32  -0.312  -0.200  -0.205
    1UNL     H7   33  -0.269  -0.372  -0.174
    1UNL     H8   34  -0.423  -0.323  -0.147
    1UNL     H9   35  -0.195  -0.175   0.174
    1UNL    H10   36  -0.084  -0.344  -0.026
    1UNL    H11   37  -0.045  -0.333   0.138
    1UNL    H12   38   0.125  -0.313  -0.116
    1UNL    H13   39   0.214  -0.318   0.041
    1UNL    H14   40   0.386  -0.189  -0.103
    1UNL    H15   41   0.243  -0.135  -0.201
    1UNL    H16   42   0.158   0.202   0.180
    1UNL    H17   43   0.343   0.386   0.119
    1UNL    H18   44   0.566   0.400  -0.013
    1UNL    H19   45   0.645   0.214  -0.145
    1UNL    H20   46   0.515   0.017  -0.170
    1UNL    H21   47   0.077  -0.106   0.218
    1UNL    H22   48  -0.096   0.059   0.207
    1UNL    H23   49  -0.038   0.128   0.054
    1UNL    H24   50  -0.126  -0.048  -0.081
   0.00000   0.00000   0.00000   0.00000   0.00000   0.00000   0.00000   0.00000   0.00000
Generated with MDTraj, t= 49.0
 50
    1UNL     C1    1  -0.421   0.373  -0.040
    1UNL     O1    2  -0.440   0.230  -0.025
    1UNL     C2    3  -0.318   0.177  -0.004
    1UNL     O2    4  -0.215   0.242  -0.022
    1UNL     C3    5  -0.307   0.028   0.023
    1UNL     C4    6  -0.423  -0.041   0.042
    1UNL     O3    7  -0.441  -0.175   0.044
    1UNL     C5    8  -0.329  -0.251   0.007
    1UNL     C6    9  -0.330  -0.267  -0.147
    1UNL     C7   10  -0.202  -0.186   0.073
    1UNL     C8   11  -0.065  -0.266   0.077
    1UNL     N1   12   0.053  -0.180   0.029
    1UNL     C9   13   0.180  -0.250  -0.000
    1UNL    C10   14   0.284  -0.166  -0.074
    1UNL    C11   15   0.285  -0.023  -0.025
    1UNL    C12   16   0.184   0.025   0.053
    1UNL     N2   17   0.216   0.149   0.097
    1UNL    C13   18   0.348   0.174   0.055
    1UNL    C14   19   0.423   0.296   0.069
    1UNL    C15   20   0.534   0.316  -0.014
    1UNL    C16   21   0.574   0.214  -0.104
    1UNL    C17   22   0.510   0.092  -0.109
    1UNL    C18   23   0.392   0.076  -0.034
    1UNL    C19   24   0.062  -0.052   0.101
    1UNL    C20   25  -0.073   0.030   0.088
    1UNL    C21   26  -0.179  -0.048   0.009
    1UNL     H1   27  -0.375   0.390  -0.137
    1UNL     H2   28  -0.375   0.407   0.049
    1UNL     H3   29  -0.523   0.414  -0.044
    1UNL     H4   30  -0.510   0.016   0.045
    1UNL     H5   31  -0.360  -0.347   0.047
    1UNL     H6   32  -0.351  -0.163  -0.190
    1UNL     H7   33  -0.242  -0.314  -0.176
    1UNL     H8   34  -0.410  -0.333  -0.171
    1UNL     H9   35  -0.227  -0.170   0.172
    1UNL    H10   36  -0.072  -0.349   0.020
    1UNL    H11   37  -0.053  -0.312   0.178
    1UNL    H12   38   0.157  -0.340  -0.055
    1UNL    H13   39   0.225  -0.283   0.102
    1UNL    H14   40   0.385  -0.220  -0.056
    1UNL    H15   41   0.272  -0.165  -0.184
    1UNL    H16   42   0.159   0.202   0.167
    1UNL    H17   43   0.406   0.360   0.150
    1UNL    H18   44   0.601   0.400   0.000
    1UNL    H19   45   0.656   0.227  -0.176
    1UNL    H20   46   0.515   0.025  -0.193
    1UNL    H21   47   0.073  -0.089   0.206
    1UNL    H22   48  -0.121   0.042   0.188
    1UNL    H23   49  -0.049   0.129   0.047
    1UNL    H24   50  -0.157  -0.053  -0.102
   0.00000   0.00000   0.00000   0.00000   0.00000   0.00000   0.00000   0.00000   0.00000
Generated with MDTraj, t= 50.0
 50
    1UNL     C1    1  -0.457   0.361  -0.032
    1UNL     O1    2  -0.453   0.219  -0.024
    1UNL     C2    3  -0.325   0.180   0.005
    1UNL     O2    4  -0.233   0.258   0.033
    1UNL     C3    5  -0.310   0.033   0.001
    1UNL     C4    6  -0.424  -0.041   0.012
    1UNL     O3    7  -0.438  -0.176   0.035
    1UNL     C5    8  -0.319  -0.250   0.014
    1UNL     C6    9  -0.302  -0.272  -0.144
    1UNL     C7   10  -0.195  -0.183   0.074
    1UNL     C8   11  -0.063  -0.261   0.052
    1UNL     N1   12   0.054  -0.178   0.021
    1UNL     C9   13   0.185  -0.250   0.004
    1UNL    C10   14   0.280  -0.156  -0.065
    1UNL    C11   15   0.282  -0.020  -0.008
    1UNL    C12   16   0.183   0.034   0.072
    1UNL     N2   17   0.216   0.166   0.097
    1UNL    C13   18   0.346   0.194   0.042
    1UNL    C14   19   0.431   0.302   0.041
    1UNL    C15   20   0.554   0.288  -0.018
    1UNL    C16   21   0.586   0.172  -0.099
    1UNL    C17   22   0.505   0.065  -0.104
    1UNL    C18   23   0.379   0.077  -0.038
    1UNL    C19   24   0.057  -0.051   0.095
    1UNL    C20   25  -0.065   0.040   0.078
    1UNL    C21   26  -0.177  -0.036   0.015
    1UNL     H1   27  -0.418   0.381  -0.130
    1UNL     H2   28  -0.414   0.403   0.054
    1UNL     H3   29  -0.564   0.389  -0.037
    1UNL     H4   30  -0.517   0.011   0.023
    1UNL     H5   31  -0.332  -0.348   0.063
    1UNL     H6   32  -0.284  -0.169  -0.179
    1UNL     H7   33  -0.216  -0.333  -0.168
    1UNL     H8   34  -0.379  -0.316  -0.198
    1UNL     H9   35  -0.201  -0.181   0.177
    1UNL    H10   36  -0.067  -0.326  -0.026
    1UNL    H11   37  -0.032  -0.325   0.137
    1UNL    H12   38   0.173  -0.346  -0.040
    1UNL    H13   39   0.222  -0.262   0.117
    1UNL    H14   40   0.387  -0.191  -0.072
    1UNL    H15   41   0.242  -0.146  -0.172
    1UNL    H16   42   0.170   0.223   0.172
    1UNL    H17   43   0.406   0.378   0.117
    1UNL    H18   44   0.634   0.357   0.003
    1UNL    H19   45   0.673   0.170  -0.162
    1UNL    H20   46   0.525  -0.031  -0.148
    1UNL    H21   47   0.055  -0.082   0.203
    1UNL    H22   48  -0.091   0.097   0.170
    1UNL    H23   49  -0.034   0.116   0.003
    1UNL    H24   50  -0.141  -0.053  -0.091
   0.00000   0.00000   0.00000   0.00000   0.00000   0.00000   0.00000   0.00000   0.00000
Generated with MDTraj, t= 51.0
 50
    1UNL     C1    1  -0.469   0.373  -0.012
    1UNL     O1    2  -0.472   0.230   0.001
    1UNL     C2    3  -0.346   0.183   0.012
    1UNL     O2    4  -0.246   0.253   0.011
    1UNL     C3    5  -0.326   0.038   0.014
    1UNL     C4    6  -0.435  -0.044  -0.001
    1UNL     O3    7  -0.440  -0.180   0.014
    1UNL     C5    8  -0.308  -0.252   0.003
    1UNL     C6    9  -0.268  -0.279  -0.143
    1UNL     C7   10  -0.207  -0.181   0.085
    1UNL     C8   11  -0.071  -0.255   0.081
    1UNL     N1   12   0.037  -0.168   0.012
    1UNL     C9   13   0.166  -0.249  -0.003
    1UNL    C10   14   0.278  -0.170  -0.071
    1UNL    C11   15   0.300  -0.037  -0.015
    1UNL    C12   16   0.196   0.021   0.060
    1UNL     N2   17   0.232   0.154   0.082
    1UNL    C13   18   0.356   0.189   0.031
    1UNL    C14   19   0.428   0.310   0.023
    1UNL    C15   20   0.558   0.299  -0.030
    1UNL    C16   21   0.610   0.177  -0.077
    1UNL    C17   22   0.528   0.068  -0.081
    1UNL    C18   23   0.394   0.074  -0.036
    1UNL    C19   24   0.067  -0.047   0.098
    1UNL    C20   25  -0.065   0.039   0.088
    1UNL    C21   26  -0.188  -0.032   0.020
    1UNL     H1   27  -0.380   0.396  -0.069
    1UNL     H2   28  -0.484   0.421   0.082
    1UNL     H3   29  -0.550   0.397  -0.087
    1UNL     H4   30  -0.538   0.005  -0.015
    1UNL     H5   31  -0.326  -0.351   0.053
    1UNL     H6   32  -0.261  -0.190  -0.193
    1UNL     H7   33  -0.173  -0.335  -0.164
    1UNL     H8   34  -0.335  -0.336  -0.198
    1UNL     H9   35  -0.245  -0.167   0.180
    1UNL    H10   36  -0.063  -0.351   0.039
    1UNL    H11   37  -0.027  -0.269   0.182
    1UNL    H12   38   0.142  -0.335  -0.063
    1UNL    H13   39   0.198  -0.287   0.104
    1UNL    H14   40   0.373  -0.229  -0.071
    1UNL    H15   41   0.254  -0.154  -0.185
    1UNL    H16   42   0.162   0.222   0.120
    1UNL    H17   43   0.396   0.404   0.061
    1UNL    H18   44   0.617   0.390  -0.024
    1UNL    H19   45   0.700   0.187  -0.137
    1UNL    H20   46   0.564  -0.033  -0.096
    1UNL    H21   47   0.082  -0.080   0.206
    1UNL    H22   48  -0.106   0.073   0.185
    1UNL    H23   49  -0.041   0.132   0.035
    1UNL    H24   50  -0.157  -0.048  -0.087
   0.00000   0.00000   0.00000   0.00000   0.00000   0.00000   0.00000   0.00000   0.00000
Generated with MDTraj, t= 52.0
 50
    1UNL     C1    1  -0.460   0.361   0.029
    1UNL     O1    2  -0.451   0.219   0.006
    1UNL     C2    3  -0.321   0.178   0.001
    1UNL     O2    4  -0.226   0.256  -0.006
    1UNL     C3    5  -0.306   0.031  -0.005
    1UNL     C4    6  -0.415  -0.051   0.019
    1UNL     O3    7  -0.429  -0.187   0.013
    1UNL     C5    8  -0.300  -0.252  -0.017
    1UNL     C6    9  -0.280  -0.278  -0.164
    1UNL     C7   10  -0.200  -0.170   0.066
    1UNL     C8   11  -0.075  -0.244   0.105
    1UNL     N1   12   0.040  -0.176   0.043
    1UNL     C9   13   0.166  -0.257   0.024
    1UNL    C10   14   0.269  -0.170  -0.055
    1UNL    C11   15   0.272  -0.020  -0.023
    1UNL    C12   16   0.171   0.046   0.041
    1UNL     N2   17   0.208   0.178   0.069
    1UNL    C13   18   0.341   0.188   0.022
    1UNL    C14   19   0.429   0.292   0.033
    1UNL    C15   20   0.561   0.289  -0.014
    1UNL    C16   21   0.599   0.172  -0.081
    1UNL    C17   22   0.515   0.061  -0.086
    1UNL    C18   23   0.373   0.070  -0.048
    1UNL    C19   24   0.056  -0.032   0.099
    1UNL    C20   25  -0.073   0.044   0.080
    1UNL    C21   26  -0.169  -0.035  -0.004
    1UNL     H1   27  -0.430   0.410  -0.065
    1UNL     H2   28  -0.398   0.388   0.113
    1UNL     H3   29  -0.572   0.390   0.041
    1UNL     H4   30  -0.511  -0.005   0.034
    1UNL     H5   31  -0.314  -0.352   0.030
    1UNL     H6   32  -0.289  -0.190  -0.216
    1UNL     H7   33  -0.178  -0.320  -0.182
    1UNL     H8   34  -0.343  -0.352  -0.207
    1UNL     H9   35  -0.251  -0.137   0.150
    1UNL    H10   36  -0.076  -0.350   0.068
    1UNL    H11   37  -0.050  -0.248   0.211
    1UNL    H12   38   0.140  -0.345  -0.034
    1UNL    H13   39   0.204  -0.294   0.125
    1UNL    H14   40   0.372  -0.204  -0.032
    1UNL    H15   41   0.260  -0.185  -0.172
    1UNL    H16   42   0.172   0.255   0.129
    1UNL    H17   43   0.403   0.379   0.090
    1UNL    H18   44   0.631   0.373  -0.007
    1UNL    H19   45   0.694   0.164  -0.129
    1UNL    H20   46   0.551  -0.020  -0.148
    1UNL    H21   47   0.080  -0.056   0.209
    1UNL    H22   48  -0.121   0.070   0.176
    1UNL    H23   49  -0.059   0.144   0.033
    1UNL    H24   50  -0.124  -0.054  -0.105
   0.00000   0.00000   0.00000   0.00000   0.00000   0.00000   0.00000   0.00000   0.00000
Generated with MDTraj, t= 53.0
 50
    1UNL     C1    1  -0.441   0.370   0.039
    1UNL     O1    2  -0.446   0.231   0.028
    1UNL     C2    3  -0.324   0.177  -0.003
    1UNL     O2    4  -0.227   0.247  -0.031
    1UNL     C3    5  -0.317   0.033  -0.004
    1UNL     C4    6  -0.428  -0.043  -0.005
    1UNL     O3    7  -0.435  -0.182  -0.012
    1UNL     C5    8  -0.314  -0.253  -0.007
    1UNL     C6    9  -0.279  -0.294  -0.153
    1UNL     C7   10  -0.197  -0.176   0.061
    1UNL     C8   11  -0.069  -0.266   0.068
    1UNL     N1   12   0.046  -0.175   0.060
    1UNL     C9   13   0.179  -0.242   0.047
    1UNL    C10   14   0.279  -0.172  -0.046
    1UNL    C11   15   0.276  -0.023  -0.023
    1UNL    C12   16   0.174   0.040   0.046
    1UNL     N2   17   0.215   0.168   0.087
    1UNL    C13   18   0.345   0.193   0.035
    1UNL    C14   19   0.434   0.308   0.034
    1UNL    C15   20   0.553   0.298  -0.041
    1UNL    C16   21   0.586   0.173  -0.096
    1UNL    C17   22   0.508   0.062  -0.090
    1UNL    C18   23   0.380   0.074  -0.035
    1UNL    C19   24   0.054  -0.033   0.102
    1UNL    C20   25  -0.080   0.039   0.085
    1UNL    C21   26  -0.182  -0.037   0.003
    1UNL     H1   27  -0.455   0.409  -0.063
    1UNL     H2   28  -0.347   0.407   0.082
    1UNL     H3   29  -0.538   0.401   0.097
    1UNL     H4   30  -0.523  -0.002   0.005
    1UNL     H5   31  -0.345  -0.348   0.042
    1UNL     H6   32  -0.271  -0.197  -0.201
    1UNL     H7   33  -0.193  -0.353  -0.160
    1UNL     H8   34  -0.359  -0.348  -0.197
    1UNL     H9   35  -0.221  -0.156   0.161
    1UNL    H10   36  -0.065  -0.338  -0.025
    1UNL    H11   37  -0.066  -0.323   0.159
    1UNL    H12   38   0.165  -0.351   0.030
    1UNL    H13   39   0.221  -0.226   0.146
    1UNL    H14   40   0.380  -0.217  -0.031
    1UNL    H15   41   0.250  -0.200  -0.156
    1UNL    H16   42   0.179   0.226   0.163
    1UNL    H17   43   0.418   0.400   0.096
    1UNL    H18   44   0.628   0.374  -0.031
    1UNL    H19   45   0.677   0.179  -0.157
    1UNL    H20   46   0.527  -0.019  -0.159
    1UNL    H21   47   0.082  -0.039   0.214
    1UNL    H22   48  -0.125   0.058   0.184
    1UNL    H23   49  -0.061   0.139   0.040
    1UNL    H24   50  -0.146  -0.057  -0.101
   0.00000   0.00000   0.00000   0.00000   0.00000   0.00000   0.00000   0.00000   0.00000
Generated with MDTraj, t= 54.0
 50
    1UNL     C1    1  -0.429   0.370   0.026
    1UNL     O1    2  -0.438   0.235   0.036
    1UNL     C2    3  -0.320   0.179  -0.006
    1UNL     O2    4  -0.220   0.242  -0.038
    1UNL     C3    5  -0.312   0.033  -0.011
    1UNL     C4    6  -0.427  -0.039  -0.025
    1UNL     O3    7  -0.443  -0.170   0.002
    1UNL     C5    8  -0.323  -0.246   0.002
    1UNL     C6    9  -0.273  -0.272  -0.141
    1UNL     C7   10  -0.206  -0.176   0.075
    1UNL     C8   11  -0.070  -0.261   0.073
    1UNL     N1   12   0.056  -0.181   0.030
    1UNL     C9   13   0.179  -0.265   0.011
    1UNL    C10   14   0.293  -0.177  -0.033
    1UNL    C11   15   0.285  -0.034   0.004
    1UNL    C12   16   0.187   0.025   0.081
    1UNL     N2   17   0.220   0.157   0.112
    1UNL    C13   18   0.336   0.187   0.043
    1UNL    C14   19   0.397   0.312   0.012
    1UNL    C15   20   0.515   0.309  -0.058
    1UNL    C16   21   0.575   0.192  -0.100
    1UNL    C17   22   0.505   0.075  -0.091
    1UNL    C18   23   0.381   0.068  -0.019
    1UNL    C19   24   0.059  -0.052   0.108
    1UNL    C20   25  -0.058   0.042   0.065
    1UNL    C21   26  -0.181  -0.041   0.010
    1UNL     H1   27  -0.373   0.400  -0.063
    1UNL     H2   28  -0.368   0.410   0.106
    1UNL     H3   29  -0.535   0.416   0.016
    1UNL     H4   30  -0.520   0.025  -0.033
    1UNL     H5   31  -0.349  -0.345   0.038
    1UNL     H6   32  -0.271  -0.174  -0.193
    1UNL     H7   33  -0.189  -0.326  -0.156
    1UNL     H8   34  -0.352  -0.330  -0.185
    1UNL     H9   35  -0.237  -0.160   0.173
    1UNL    H10   36  -0.085  -0.351  -0.001
    1UNL    H11   37  -0.057  -0.301   0.171
    1UNL    H12   38   0.159  -0.346  -0.066
    1UNL    H13   39   0.195  -0.309   0.103
    1UNL    H14   40   0.391  -0.223  -0.002
    1UNL    H15   41   0.294  -0.178  -0.146
    1UNL    H16   42   0.150   0.221   0.148
    1UNL    H17   43   0.357   0.390   0.065
    1UNL    H18   44   0.571   0.402  -0.048
    1UNL    H19   45   0.662   0.197  -0.162
    1UNL    H20   46   0.538  -0.010  -0.149
    1UNL    H21   47   0.058  -0.080   0.220
    1UNL    H22   48  -0.082   0.109   0.148
    1UNL    H23   49  -0.026   0.104  -0.022
    1UNL    H24   50  -0.153  -0.071  -0.095
   0.00000   0.00000   0.00000   0.00000   0.00000   0.00000   0.00000   0.00000   0.00000
Generated with MDTraj, t= 55.0
 50
    1UNL     C1    1  -0.411   0.376   0.003
    1UNL     O1    2  -0.429   0.242  -0.013
    1UNL     C2    3  -0.305   0.180  -0.007
    1UNL     O2    4  -0.202   0.246  -0.015
    1UNL     C3    5  -0.299   0.033   0.000
    1UNL     C4    6  -0.414  -0.035   0.014
    1UNL     O3    7  -0.429  -0.165   0.029
    1UNL     C5    8  -0.316  -0.245  -0.009
    1UNL     C6    9  -0.317  -0.265  -0.165
    1UNL     C7   10  -0.195  -0.183   0.059
    1UNL     C8   11  -0.064  -0.269   0.064
    1UNL     N1   12   0.055  -0.188   0.032
    1UNL     C9   13   0.186  -0.263   0.031
    1UNL    C10   14   0.296  -0.175  -0.043
    1UNL    C11   15   0.295  -0.035   0.011
    1UNL    C12   16   0.185   0.014   0.078
    1UNL     N2   17   0.201   0.149   0.093
    1UNL    C13   18   0.327   0.187   0.045
    1UNL    C14   19   0.376   0.313   0.015
    1UNL    C15   20   0.494   0.315  -0.047
    1UNL    C16   21   0.557   0.202  -0.104
    1UNL    C17   22   0.497   0.078  -0.093
    1UNL    C18   23   0.378   0.073  -0.022
    1UNL    C19   24   0.058  -0.064   0.114
    1UNL    C20   25  -0.065   0.027   0.096
    1UNL    C21   26  -0.170  -0.041   0.002
    1UNL     H1   27  -0.369   0.424  -0.083
    1UNL     H2   28  -0.337   0.391   0.077
    1UNL     H3   29  -0.508   0.427   0.034
    1UNL     H4   30  -0.510   0.021   0.006
    1UNL     H5   31  -0.332  -0.340   0.040
    1UNL     H6   32  -0.303  -0.174  -0.224
    1UNL     H7   33  -0.246  -0.338  -0.205
    1UNL     H8   34  -0.409  -0.308  -0.193
    1UNL     H9   35  -0.231  -0.177   0.157
    1UNL    H10   36  -0.066  -0.360  -0.006
    1UNL    H11   37  -0.050  -0.309   0.164
    1UNL    H12   38   0.157  -0.353  -0.032
    1UNL    H13   39   0.212  -0.299   0.123
    1UNL    H14   40   0.403  -0.214  -0.028
    1UNL    H15   41   0.282  -0.175  -0.152
    1UNL    H16   42   0.138   0.216   0.132
    1UNL    H17   43   0.336   0.404   0.070
    1UNL    H18   44   0.543   0.408  -0.064
    1UNL    H19   45   0.650   0.213  -0.159
    1UNL    H20   46   0.537  -0.007  -0.141
    1UNL    H21   47   0.064  -0.103   0.223
    1UNL    H22   48  -0.123   0.045   0.188
    1UNL    H23   49  -0.039   0.123   0.047
    1UNL    H24   50  -0.132  -0.046  -0.103
   0.00000   0.00000   0.00000   0.00000   0.00000   0.00000   0.00000   0.00000   0.00000
Generated with MDTraj, t= 56.0
 50
    1UNL     C1    1  -0.387   0.367  -0.060
    1UNL     O1    2  -0.414   0.243  -0.014
    1UNL     C2    3  -0.295   0.174   0.009
    1UNL     O2    4  -0.191   0.241  -0.006
    1UNL     C3    5  -0.304   0.031   0.037
    1UNL     C4    6  -0.419  -0.039   0.047
    1UNL     O3    7  -0.440  -0.171   0.022
    1UNL     C5    8  -0.321  -0.243  -0.022
    1UNL     C6    9  -0.336  -0.268  -0.175
    1UNL     C7   10  -0.190  -0.187   0.043
    1UNL     C8   11  -0.062  -0.266   0.011
    1UNL     N1   12   0.061  -0.190   0.056
    1UNL     C9   13   0.193  -0.263   0.034
    1UNL    C10   14   0.294  -0.171  -0.036
    1UNL    C11   15   0.280  -0.030   0.003
    1UNL    C12   16   0.173   0.016   0.072
    1UNL     N2   17   0.191   0.155   0.087
    1UNL    C13   18   0.316   0.187   0.036
    1UNL    C14   19   0.385   0.315   0.028
    1UNL    C15   20   0.510   0.316  -0.034
    1UNL    C16   21   0.553   0.206  -0.115
    1UNL    C17   22   0.490   0.084  -0.111
    1UNL    C18   23   0.373   0.078  -0.032
    1UNL    C19   24   0.063  -0.055   0.133
    1UNL    C20   25  -0.078   0.017   0.143
    1UNL    C21   26  -0.170  -0.035   0.030
    1UNL     H1   27  -0.307   0.368  -0.130
    1UNL     H2   28  -0.355   0.425   0.021
    1UNL     H3   29  -0.480   0.420  -0.094
    1UNL     H4   30  -0.512   0.005   0.059
    1UNL     H5   31  -0.333  -0.331   0.041
    1UNL     H6   32  -0.333  -0.180  -0.232
    1UNL     H7   33  -0.249  -0.330  -0.217
    1UNL     H8   34  -0.419  -0.319  -0.207
    1UNL     H9   35  -0.207  -0.202   0.147
    1UNL    H10   36  -0.052  -0.276  -0.097
    1UNL    H11   37  -0.058  -0.372   0.048
    1UNL    H12   38   0.173  -0.355  -0.026
    1UNL    H13   39   0.222  -0.298   0.127
    1UNL    H14   40   0.402  -0.212  -0.027
    1UNL    H15   41   0.277  -0.169  -0.144
    1UNL    H16   42   0.132   0.214   0.142
    1UNL    H17   43   0.346   0.402   0.072
    1UNL    H18   44   0.576   0.404  -0.032
    1UNL    H19   45   0.622   0.238  -0.191
    1UNL    H20   46   0.539   0.005  -0.168
    1UNL    H21   47   0.097  -0.080   0.241
    1UNL    H22   48  -0.131   0.001   0.238
    1UNL    H23   49  -0.064   0.125   0.123
    1UNL    H24   50  -0.116  -0.002  -0.063
   0.00000   0.00000   0.00000   0.00000   0.00000   0.00000   0.00000   0.00000   0.00000
Generated with MDTraj, t= 57.0
 50
    1UNL     C1    1  -0.394   0.360  -0.069
    1UNL     O1    2  -0.413   0.229  -0.043
    1UNL     C2    3  -0.293   0.173   0.000
    1UNL     O2    4  -0.195   0.243   0.015
    1UNL     C3    5  -0.292   0.034   0.025
    1UNL     C4    6  -0.411  -0.032   0.029
    1UNL     O3    7  -0.426  -0.167   0.046
    1UNL     C5    8  -0.318  -0.242  -0.018
    1UNL     C6    9  -0.316  -0.217  -0.168
    1UNL     C7   10  -0.184  -0.188   0.054
    1UNL     C8   11  -0.052  -0.244  -0.000
    1UNL     N1   12   0.065  -0.204   0.083
    1UNL     C9   13   0.199  -0.263   0.035
    1UNL    C10   14   0.269  -0.176  -0.064
    1UNL    C11   15   0.266  -0.038  -0.013
    1UNL    C12   16   0.177   0.011   0.080
    1UNL     N2   17   0.196   0.147   0.103
    1UNL    C13   18   0.308   0.182   0.031
    1UNL    C14   19   0.369   0.306   0.026
    1UNL    C15   20   0.483   0.316  -0.039
    1UNL    C16   21   0.546   0.208  -0.100
    1UNL    C17   22   0.483   0.082  -0.104
    1UNL    C18   23   0.354   0.070  -0.045
    1UNL    C19   24   0.070  -0.067   0.145
    1UNL    C20   25  -0.066   0.012   0.139
    1UNL    C21   26  -0.159  -0.036   0.030
    1UNL     H1   27  -0.343   0.372  -0.163
    1UNL     H2   28  -0.330   0.406   0.002
    1UNL     H3   29  -0.489   0.421  -0.060
    1UNL     H4   30  -0.499   0.030   0.025
    1UNL     H5   31  -0.334  -0.346   0.018
    1UNL     H6   32  -0.278  -0.121  -0.184
    1UNL     H7   33  -0.255  -0.297  -0.219
    1UNL     H8   34  -0.419  -0.219  -0.201
    1UNL     H9   35  -0.187  -0.206   0.159
    1UNL    H10   36  -0.036  -0.214  -0.098
    1UNL    H11   37  -0.051  -0.358  -0.010
    1UNL    H12   38   0.185  -0.363   0.001
    1UNL    H13   39   0.260  -0.264   0.122
    1UNL    H14   40   0.378  -0.209  -0.092
    1UNL    H15   41   0.211  -0.185  -0.153
    1UNL    H16   42   0.145   0.219   0.149
    1UNL    H17   43   0.326   0.387   0.083
    1UNL    H18   44   0.541   0.404  -0.034
    1UNL    H19   45   0.638   0.209  -0.157
    1UNL    H20   46   0.528   0.003  -0.161
    1UNL    H21   47   0.102  -0.077   0.256
    1UNL    H22   48  -0.123  -0.003   0.233
    1UNL    H23   49  -0.050   0.121   0.127
    1UNL    H24   50  -0.104  -0.005  -0.063
   0.00000   0.00000   0.00000   0.00000   0.00000   0.00000   0.00000   0.00000   0.00000
Generated with MDTraj, t= 58.0
 50
    1UNL     C1    1  -0.405   0.363  -0.059
    1UNL     O1    2  -0.419   0.231  -0.024
    1UNL     C2    3  -0.295   0.179   0.003
    1UNL     O2    4  -0.198   0.251   0.018
    1UNL     C3    5  -0.293   0.037   0.009
    1UNL     C4    6  -0.412  -0.026   0.009
    1UNL     O3    7  -0.418  -0.165   0.018
    1UNL     C5    8  -0.308  -0.236  -0.040
    1UNL     C6    9  -0.289  -0.196  -0.181
    1UNL     C7   10  -0.178  -0.197   0.046
    1UNL     C8   11  -0.037  -0.253   0.001
    1UNL     N1   12   0.067  -0.204   0.098
    1UNL     C9   13   0.207  -0.259   0.069
    1UNL    C10   14   0.276  -0.178  -0.045
    1UNL    C11   15   0.260  -0.036  -0.007
    1UNL    C12   16   0.168   0.020   0.081
    1UNL     N2   17   0.203   0.151   0.111
    1UNL    C13   18   0.307   0.182   0.035
    1UNL    C14   19   0.384   0.298   0.030
    1UNL    C15   20   0.485   0.303  -0.061
    1UNL    C16   21   0.524   0.194  -0.134
    1UNL    C17   22   0.456   0.076  -0.126
    1UNL    C18   23   0.341   0.074  -0.050
    1UNL    C19   24   0.067  -0.068   0.153
    1UNL    C20   25  -0.074  -0.002   0.165
    1UNL    C21   26  -0.162  -0.039   0.047
    1UNL     H1   27  -0.306   0.374  -0.104
    1UNL     H2   28  -0.407   0.431   0.026
    1UNL     H3   29  -0.485   0.404  -0.130
    1UNL     H4   30  -0.501   0.046   0.013
    1UNL     H5   31  -0.327  -0.348  -0.032
    1UNL     H6   32  -0.303  -0.091  -0.188
    1UNL     H7   33  -0.194  -0.231  -0.215
    1UNL     H8   34  -0.374  -0.253  -0.228
    1UNL     H9   35  -0.188  -0.237   0.144
    1UNL    H10   36  -0.013  -0.230  -0.094
    1UNL    H11   37  -0.036  -0.368  -0.001
    1UNL    H12   38   0.202  -0.358   0.053
    1UNL    H13   39   0.267  -0.238   0.156
    1UNL    H14   40   0.386  -0.211  -0.030
    1UNL    H15   41   0.248  -0.200  -0.147
    1UNL    H16   42   0.158   0.209   0.179
    1UNL    H17   43   0.368   0.374   0.109
    1UNL    H18   44   0.546   0.395  -0.058
    1UNL    H19   45   0.614   0.203  -0.192
    1UNL    H20   46   0.468  -0.008  -0.195
    1UNL    H21   47   0.105  -0.087   0.260
    1UNL    H22   48  -0.133  -0.034   0.254
    1UNL    H23   49  -0.066   0.108   0.171
    1UNL    H24   50  -0.098  -0.011  -0.040
   0.00000   0.00000   0.00000   0.00000   0.00000   0.00000   0.00000   0.00000   0.00000
Generated with MDTraj, t= 59.0
 50
    1UNL     C1    1  -0.399   0.377  -0.015
    1UNL     O1    2  -0.423   0.241  -0.006
    1UNL     C2    3  -0.305   0.180   0.028
    1UNL     O2    4  -0.205   0.248   0.041
    1UNL     C3    5  -0.295   0.036   0.027
    1UNL     C4    6  -0.403  -0.040   0.013
    1UNL     O3    7  -0.408  -0.169  -0.041
    1UNL     C5    8  -0.280  -0.233  -0.073
    1UNL     C6    9  -0.232  -0.215  -0.216
    1UNL     C7   10  -0.173  -0.179   0.027
    1UNL     C8   11  -0.033  -0.238   0.007
    1UNL     N1   12   0.053  -0.199   0.122
    1UNL     C9   13   0.197  -0.257   0.107
    1UNL    C10   14   0.263  -0.191  -0.014
    1UNL    C11   15   0.254  -0.043   0.011
    1UNL    C12   16   0.165   0.021   0.094
    1UNL     N2   17   0.194   0.156   0.109
    1UNL    C13   18   0.302   0.175   0.021
    1UNL    C14   19   0.373   0.297  -0.002
    1UNL    C15   20   0.479   0.303  -0.090
    1UNL    C16   21   0.512   0.184  -0.164
    1UNL    C17   22   0.452   0.065  -0.136
    1UNL    C18   23   0.346   0.054  -0.041
    1UNL    C19   24   0.058  -0.061   0.166
    1UNL    C20   25  -0.079   0.006   0.159
    1UNL    C21   26  -0.160  -0.026   0.036
    1UNL     H1   27  -0.319   0.383  -0.091
    1UNL     H2   28  -0.359   0.420   0.080
    1UNL     H3   29  -0.487   0.441  -0.047
    1UNL     H4   30  -0.499   0.007   0.029
    1UNL     H5   31  -0.298  -0.345  -0.057
    1UNL     H6   32  -0.207  -0.109  -0.238
    1UNL     H7   33  -0.147  -0.268  -0.231
    1UNL     H8   34  -0.312  -0.255  -0.283
    1UNL     H9   35  -0.214  -0.207   0.122
    1UNL    H10   36   0.004  -0.207  -0.086
    1UNL    H11   37  -0.040  -0.351   0.001
    1UNL    H12   38   0.196  -0.358   0.101
    1UNL    H13   39   0.250  -0.230   0.197
    1UNL    H14   40   0.370  -0.216  -0.034
    1UNL    H15   41   0.209  -0.221  -0.105
    1UNL    H16   42   0.168   0.208   0.191
    1UNL    H17   43   0.352   0.380   0.054
    1UNL    H18   44   0.546   0.385  -0.103
    1UNL    H19   45   0.560   0.195  -0.260
    1UNL    H20   46   0.476  -0.020  -0.195
    1UNL    H21   47   0.090  -0.067   0.275
    1UNL    H22   48  -0.148  -0.008   0.247
    1UNL    H23   49  -0.070   0.116   0.154
    1UNL    H24   50  -0.105   0.016  -0.051
   0.00000   0.00000   0.00000   0.00000   0.00000   0.00000   0.00000   0.00000   0.00000
Generated with MDTraj, t= 60.0
 50
    1UNL     C1    1  -0.432   0.364   0.059
    1UNL     O1    2  -0.417   0.240   0.004
    1UNL     C2    3  -0.293   0.184   0.039
    1UNL     O2    4  -0.211   0.258   0.088
    1UNL     C3    5  -0.275   0.047   0.007
    1UNL     C4    6  -0.385  -0.024  -0.037
    1UNL     O3    7  -0.390  -0.151  -0.083
    1UNL     C5    8  -0.262  -0.216  -0.090
    1UNL     C6    9  -0.204  -0.199  -0.231
    1UNL     C7   10  -0.166  -0.168   0.022
    1UNL     C8   11  -0.038  -0.248   0.026
    1UNL     N1   12   0.043  -0.211   0.139
    1UNL     C9   13   0.185  -0.263   0.134
    1UNL    C10   14   0.285  -0.197   0.043
    1UNL    C11   15   0.276  -0.047   0.037
    1UNL    C12   16   0.169   0.015   0.098
    1UNL     N2   17   0.167   0.150   0.064
    1UNL    C13   18   0.281   0.178  -0.014
    1UNL    C14   19   0.335   0.300  -0.062
    1UNL    C15   20   0.454   0.291  -0.130
    1UNL    C16   21   0.516   0.165  -0.160
    1UNL    C17   22   0.457   0.047  -0.122
    1UNL    C18   23   0.338   0.052  -0.043
    1UNL    C19   24   0.055  -0.063   0.174
    1UNL    C20   25  -0.088   0.006   0.168
    1UNL    C21   26  -0.143  -0.019   0.028
    1UNL     H1   27  -0.431   0.427  -0.032
    1UNL     H2   28  -0.344   0.391   0.122
    1UNL     H3   29  -0.528   0.383   0.112
    1UNL     H4   30  -0.479   0.020  -0.039
    1UNL     H5   31  -0.275  -0.326  -0.075
    1UNL     H6   32  -0.144  -0.108  -0.249
    1UNL     H7   33  -0.128  -0.273  -0.247
    1UNL     H8   34  -0.268  -0.210  -0.320
    1UNL     H9   35  -0.226  -0.189   0.109
    1UNL    H10   36   0.022  -0.231  -0.070
    1UNL    H11   37  -0.061  -0.356   0.031
    1UNL    H12   38   0.177  -0.366   0.112
    1UNL    H13   39   0.220  -0.259   0.233
    1UNL    H14   40   0.388  -0.227   0.058
    1UNL    H15   41   0.262  -0.218  -0.065
    1UNL    H16   42   0.093   0.217   0.085
    1UNL    H17   43   0.295   0.402  -0.038
    1UNL    H18   44   0.500   0.376  -0.181
    1UNL    H19   45   0.607   0.151  -0.221
    1UNL    H20   46   0.499  -0.052  -0.142
    1UNL    H21   47   0.093  -0.055   0.278
    1UNL    H22   48  -0.167  -0.018   0.246
    1UNL    H23   49  -0.089   0.118   0.173
    1UNL    H24   50  -0.072   0.015  -0.050
   0.00000   0.00000   0.00000   0.00000   0.00000   0.00000   0.00000   0.00000   0.00000
Generated with MDTraj, t= 61.0
 50
    1UNL     C1    1  -0.431   0.362   0.117
    1UNL     O1    2  -0.429   0.238   0.054
    1UNL     C2    3  -0.305   0.190   0.055
    1UNL     O2    4  -0.220   0.253   0.111
    1UNL     C3    5  -0.276   0.059  -0.008
    1UNL     C4    6  -0.364  -0.007  -0.084
    1UNL     O3    7  -0.359  -0.138  -0.120
    1UNL     C5    8  -0.231  -0.194  -0.118
    1UNL     C6    9  -0.152  -0.164  -0.246
    1UNL     C7   10  -0.160  -0.161   0.010
    1UNL     C8   11  -0.015  -0.224   0.014
    1UNL     N1   12   0.049  -0.207   0.147
    1UNL     C9   13   0.187  -0.267   0.183
    1UNL    C10   14   0.295  -0.194   0.091
    1UNL    C11   15   0.264  -0.051   0.059
    1UNL    C12   16   0.146   0.013   0.095
    1UNL     N2   17   0.135   0.129   0.018
    1UNL    C13   18   0.250   0.158  -0.050
    1UNL    C14   19   0.293   0.258  -0.136
    1UNL    C15   20   0.432   0.260  -0.180
    1UNL    C16   21   0.517   0.149  -0.161
    1UNL    C17   22   0.470   0.045  -0.087
    1UNL    C18   23   0.335   0.046  -0.032
    1UNL    C19   24   0.049  -0.061   0.183
    1UNL    C20   25  -0.093   0.004   0.183
    1UNL    C21   26  -0.149  -0.012   0.037
    1UNL     H1   27  -0.396   0.434   0.044
    1UNL     H2   28  -0.356   0.356   0.199
    1UNL     H3   29  -0.529   0.390   0.150
    1UNL     H4   30  -0.456   0.053  -0.102
    1UNL     H5   31  -0.241  -0.303  -0.119
    1UNL     H6   32  -0.141  -0.059  -0.274
    1UNL     H7   33  -0.043  -0.201  -0.237
    1UNL     H8   34  -0.186  -0.216  -0.331
    1UNL     H9   35  -0.220  -0.204   0.089
    1UNL    H10   36   0.057  -0.172  -0.067
    1UNL    H11   37  -0.014  -0.330  -0.012
    1UNL    H12   38   0.189  -0.373   0.159
    1UNL    H13   39   0.197  -0.257   0.284
    1UNL    H14   40   0.384  -0.176   0.146
    1UNL    H15   41   0.322  -0.250  -0.004
    1UNL    H16   42   0.061   0.198   0.040
    1UNL    H17   43   0.228   0.338  -0.164
    1UNL    H18   44   0.461   0.352  -0.227
    1UNL    H19   45   0.617   0.160  -0.198
    1UNL    H20   46   0.526  -0.043  -0.062
    1UNL    H21   47   0.086  -0.053   0.286
    1UNL    H22   48  -0.160  -0.057   0.250
    1UNL    H23   49  -0.101   0.108   0.224
    1UNL    H24   50  -0.071   0.031  -0.030
   0.00000   0.00000   0.00000   0.00000   0.00000   0.00000   0.00000   0.00000   0.00000
Generated with MDTraj, t= 62.0
 50
    1UNL     C1    1  -0.450   0.342   0.143
    1UNL     O1    2  -0.441   0.215   0.089
    1UNL     C2    3  -0.310   0.183   0.063
    1UNL     O2    4  -0.218   0.255   0.092
    1UNL     C3    5  -0.272   0.058   0.003
    1UNL     C4    6  -0.360   0.002  -0.077
    1UNL     O3    7  -0.338  -0.117  -0.151
    1UNL     C5    8  -0.199  -0.170  -0.153
    1UNL     C6    9  -0.111  -0.100  -0.259
    1UNL     C7   10  -0.140  -0.151  -0.012
    1UNL     C8   11   0.000  -0.221   0.013
    1UNL     N1   12   0.045  -0.204   0.152
    1UNL     C9   13   0.176  -0.254   0.200
    1UNL    C10   14   0.301  -0.176   0.148
    1UNL    C11   15   0.273  -0.040   0.083
    1UNL    C12   16   0.148   0.014   0.099
    1UNL     N2   17   0.134   0.129   0.031
    1UNL    C13   18   0.246   0.147  -0.054
    1UNL    C14   19   0.276   0.225  -0.163
    1UNL    C15   20   0.392   0.215  -0.233
    1UNL    C16   21   0.483   0.116  -0.190
    1UNL    C17   22   0.460   0.027  -0.085
    1UNL    C18   23   0.338   0.042  -0.015
    1UNL    C19   24   0.043  -0.054   0.193
    1UNL    C20   25  -0.101   0.004   0.183
    1UNL    C21   26  -0.139  -0.007   0.032
    1UNL     H1   27  -0.349   0.374   0.156
    1UNL     H2   28  -0.485   0.324   0.245
    1UNL     H3   29  -0.509   0.405   0.083
    1UNL     H4   30  -0.459   0.055  -0.085
    1UNL     H5   31  -0.207  -0.273  -0.180
    1UNL     H6   32  -0.092   0.003  -0.227
    1UNL     H7   33  -0.011  -0.158  -0.272
    1UNL     H8   34  -0.166  -0.100  -0.349
    1UNL     H9   35  -0.204  -0.202   0.056
    1UNL    H10   36   0.086  -0.170  -0.048
    1UNL    H11   37   0.006  -0.328  -0.017
    1UNL    H12   38   0.180  -0.361   0.172
    1UNL    H13   39   0.178  -0.246   0.301
    1UNL    H14   40   0.371  -0.166   0.226
    1UNL    H15   41   0.350  -0.232   0.061
    1UNL    H16   42   0.050   0.186   0.009
    1UNL    H17   43   0.208   0.304  -0.194
    1UNL    H18   44   0.425   0.299  -0.293
    1UNL    H19   45   0.581   0.103  -0.237
    1UNL    H20   46   0.517  -0.055  -0.045
    1UNL    H21   47   0.073  -0.052   0.296
    1UNL    H22   48  -0.170  -0.060   0.246
    1UNL    H23   49  -0.107   0.107   0.225
    1UNL    H24   50  -0.061   0.042  -0.028
   0.00000   0.00000   0.00000   0.00000   0.00000   0.00000   0.00000   0.00000   0.00000
Generated with MDTraj, t= 63.0
 50
    1UNL     C1    1  -0.469   0.309   0.147
    1UNL     O1    2  -0.449   0.193   0.070
    1UNL     C2    3  -0.310   0.179   0.058
    1UNL     O2    4  -0.231   0.263   0.096
    1UNL     C3    5  -0.267   0.058   0.003
    1UNL     C4    6  -0.356  -0.010  -0.076
    1UNL     O3    7  -0.311  -0.110  -0.162
    1UNL     C5    8  -0.171  -0.151  -0.157
    1UNL     C6    9  -0.095  -0.061  -0.254
    1UNL     C7   10  -0.120  -0.130  -0.012
    1UNL     C8   11   0.014  -0.203   0.013
    1UNL     N1   12   0.051  -0.190   0.157
    1UNL     C9   13   0.181  -0.260   0.184
    1UNL    C10   14   0.298  -0.179   0.143
    1UNL    C11   15   0.267  -0.037   0.100
    1UNL    C12   16   0.154   0.036   0.143
    1UNL     N2   17   0.143   0.148   0.057
    1UNL    C13   18   0.246   0.141  -0.037
    1UNL    C14   19   0.265   0.220  -0.152
    1UNL    C15   20   0.372   0.187  -0.238
    1UNL    C16   21   0.447   0.070  -0.212
    1UNL    C17   22   0.422  -0.011  -0.111
    1UNL    C18   23   0.320   0.028  -0.018
    1UNL    C19   24   0.046  -0.044   0.207
    1UNL    C20   25  -0.082   0.022   0.175
    1UNL    C21   26  -0.124   0.015   0.023
    1UNL     H1   27  -0.397   0.284   0.226
    1UNL     H2   28  -0.569   0.302   0.194
    1UNL     H3   29  -0.447   0.394   0.090
    1UNL     H4   30  -0.452   0.023  -0.097
    1UNL     H5   31  -0.179  -0.254  -0.188
    1UNL     H6   32  -0.114   0.044  -0.224
    1UNL     H7   33   0.012  -0.087  -0.246
    1UNL     H8   34  -0.132  -0.077  -0.356
    1UNL     H9   35  -0.189  -0.171   0.060
    1UNL    H10   36   0.097  -0.167  -0.049
    1UNL    H11   37   0.007  -0.315  -0.009
    1UNL    H12   38   0.187  -0.355   0.132
    1UNL    H13   39   0.179  -0.283   0.286
    1UNL    H14   40   0.370  -0.167   0.219
    1UNL    H15   41   0.347  -0.233   0.054
    1UNL    H16   42   0.054   0.201   0.041
    1UNL    H17   43   0.198   0.306  -0.168
    1UNL    H18   44   0.384   0.237  -0.334
    1UNL    H19   45   0.521   0.037  -0.283
    1UNL    H20   46   0.461  -0.113  -0.107
    1UNL    H21   47   0.059  -0.048   0.313
    1UNL    H22   48  -0.157  -0.039   0.234
    1UNL    H23   49  -0.084   0.127   0.218
    1UNL    H24   50  -0.055   0.077  -0.035
   0.00000   0.00000   0.00000   0.00000   0.00000   0.00000   0.00000   0.00000   0.00000
Generated with MDTraj, t= 64.0
 50
    1UNL     C1    1  -0.493   0.312   0.130
    1UNL     O1    2  -0.458   0.193   0.057
    1UNL     C2    3  -0.322   0.178   0.065
    1UNL     O2    4  -0.256   0.248   0.138
    1UNL     C3    5  -0.259   0.066  -0.009
    1UNL     C4    6  -0.341   0.004  -0.098
    1UNL     O3    7  -0.308  -0.098  -0.173
    1UNL     C5    8  -0.167  -0.145  -0.161
    1UNL     C6    9  -0.079  -0.079  -0.260
    1UNL     C7   10  -0.122  -0.133  -0.012
    1UNL     C8   11   0.016  -0.202   0.026
    1UNL     N1   12   0.053  -0.179   0.174
    1UNL     C9   13   0.188  -0.246   0.210
    1UNL    C10   14   0.302  -0.197   0.120
    1UNL    C11   15   0.280  -0.049   0.092
    1UNL    C12   16   0.168   0.024   0.138
    1UNL     N2   17   0.168   0.148   0.076
    1UNL    C13   18   0.258   0.142  -0.031
    1UNL    C14   19   0.272   0.228  -0.140
    1UNL    C15   20   0.355   0.188  -0.240
    1UNL    C16   21   0.416   0.061  -0.237
    1UNL    C17   22   0.400  -0.017  -0.126
    1UNL    C18   23   0.328   0.023  -0.021
    1UNL    C19   24   0.051  -0.035   0.214
    1UNL    C20   25  -0.079   0.027   0.180
    1UNL    C21   26  -0.122   0.011   0.028
    1UNL     H1   27  -0.576   0.276   0.197
    1UNL     H2   28  -0.530   0.388   0.054
    1UNL     H3   29  -0.410   0.348   0.185
    1UNL     H4   30  -0.443   0.037  -0.105
    1UNL     H5   31  -0.180  -0.251  -0.187
    1UNL     H6   32  -0.086   0.034  -0.263
    1UNL     H7   33   0.020  -0.110  -0.246
    1UNL     H8   34  -0.106  -0.107  -0.368
    1UNL     H9   35  -0.198  -0.174   0.051
    1UNL    H10   36   0.097  -0.168  -0.027
    1UNL    H11   37   0.011  -0.317   0.004
    1UNL    H12   38   0.173  -0.350   0.205
    1UNL    H13   39   0.214  -0.225   0.316
    1UNL    H14   40   0.392  -0.211   0.175
    1UNL    H15   41   0.312  -0.251   0.020
    1UNL    H16   42   0.095   0.219   0.102
    1UNL    H17   43   0.226   0.320  -0.145
    1UNL    H18   44   0.363   0.242  -0.331
    1UNL    H19   45   0.452   0.021  -0.331
    1UNL    H20   46   0.442  -0.115  -0.126
    1UNL    H21   47   0.069  -0.024   0.318
    1UNL    H22   48  -0.157  -0.019   0.248
    1UNL    H23   49  -0.069   0.137   0.207
    1UNL    H24   50  -0.046   0.074  -0.021
   0.00000   0.00000   0.00000   0.00000   0.00000   0.00000   0.00000   0.00000   0.00000
Generated with MDTraj, t= 65.0
 50
    1UNL     C1    1  -0.505   0.312   0.115
    1UNL     O1    2  -0.442   0.221   0.022
    1UNL     C2    3  -0.319   0.185   0.074
    1UNL     O2    4  -0.281   0.239   0.176
    1UNL     C3    5  -0.256   0.073   0.002
    1UNL     C4    6  -0.322   0.020  -0.099
    1UNL     O3    7  -0.294  -0.088  -0.178
    1UNL     C5    8  -0.172  -0.156  -0.139
    1UNL     C6    9  -0.056  -0.116  -0.233
    1UNL     C7   10  -0.140  -0.138   0.012
    1UNL     C8   11  -0.003  -0.207   0.051
    1UNL     N1   12   0.052  -0.193   0.185
    1UNL     C9   13   0.186  -0.252   0.206
    1UNL    C10   14   0.297  -0.195   0.116
    1UNL    C11   15   0.259  -0.058   0.057
    1UNL    C12   16   0.161   0.019   0.108
    1UNL     N2   17   0.149   0.141   0.051
    1UNL    C13   18   0.250   0.145  -0.043
    1UNL    C14   19   0.284   0.241  -0.143
    1UNL    C15   20   0.370   0.209  -0.240
    1UNL    C16   21   0.437   0.089  -0.244
    1UNL    C17   22   0.419  -0.009  -0.145
    1UNL    C18   23   0.320   0.018  -0.044
    1UNL    C19   24   0.061  -0.043   0.215
    1UNL    C20   25  -0.082   0.012   0.198
    1UNL    C21   26  -0.133   0.007   0.049
    1UNL     H1   27  -0.556   0.392   0.048
    1UNL     H2   28  -0.423   0.364   0.174
    1UNL     H3   29  -0.575   0.258   0.176
    1UNL     H4   30  -0.422   0.066  -0.129
    1UNL     H5   31  -0.188  -0.266  -0.157
    1UNL     H6   32  -0.021  -0.011  -0.220
    1UNL     H7   33   0.024  -0.186  -0.234
    1UNL     H8   34  -0.094  -0.105  -0.342
    1UNL     H9   35  -0.211  -0.196   0.065
    1UNL    H10   36   0.067  -0.169  -0.015
    1UNL    H11   37  -0.005  -0.323   0.035
    1UNL    H12   38   0.182  -0.356   0.203
    1UNL    H13   39   0.211  -0.232   0.316
    1UNL    H14   40   0.395  -0.198   0.161
    1UNL    H15   41   0.295  -0.268   0.030
    1UNL    H16   42   0.066   0.204   0.063
    1UNL    H17   43   0.238   0.344  -0.132
    1UNL    H18   44   0.396   0.284  -0.315
    1UNL    H19   45   0.509   0.069  -0.320
    1UNL    H20   46   0.487  -0.095  -0.144
    1UNL    H21   47   0.103  -0.031   0.312
    1UNL    H22   48  -0.151  -0.047   0.265
    1UNL    H23   49  -0.082   0.119   0.235
    1UNL    H24   50  -0.048   0.048  -0.008
   0.00000   0.00000   0.00000   0.00000   0.00000   0.00000   0.00000   0.00000   0.00000
Generated with MDTraj, t= 66.0
 50
    1UNL     C1    1  -0.460   0.342   0.107
    1UNL     O1    2  -0.428   0.235   0.027
    1UNL     C2    3  -0.322   0.171   0.088
    1UNL     O2    4  -0.284   0.205   0.198
    1UNL     C3    5  -0.264   0.060   0.013
    1UNL     C4    6  -0.331   0.007  -0.090
    1UNL     O3    7  -0.292  -0.099  -0.173
    1UNL     C5    8  -0.182  -0.177  -0.127
    1UNL     C6    9  -0.062  -0.148  -0.225
    1UNL     C7   10  -0.142  -0.146   0.016
    1UNL     C8   11  -0.014  -0.222   0.059
    1UNL     N1   12   0.045  -0.182   0.184
    1UNL     C9   13   0.178  -0.249   0.195
    1UNL    C10   14   0.285  -0.190   0.088
    1UNL    C11   15   0.250  -0.056   0.044
    1UNL    C12   16   0.147   0.022   0.101
    1UNL     N2   17   0.136   0.136   0.020
    1UNL    C13   18   0.237   0.148  -0.066
    1UNL    C14   19   0.282   0.251  -0.162
    1UNL    C15   20   0.396   0.224  -0.233
    1UNL    C16   21   0.476   0.112  -0.211
    1UNL    C17   22   0.438   0.014  -0.120
    1UNL    C18   23   0.313   0.024  -0.058
    1UNL    C19   24   0.049  -0.035   0.202
    1UNL    C20   25  -0.093   0.026   0.195
    1UNL    C21   26  -0.132   0.005   0.046
    1UNL     H1   27  -0.373   0.414   0.081
    1UNL     H2   28  -0.445   0.319   0.215
    1UNL     H3   29  -0.556   0.380   0.084
    1UNL     H4   30  -0.421   0.057  -0.119
    1UNL     H5   31  -0.210  -0.285  -0.148
    1UNL     H6   32  -0.037  -0.043  -0.211
    1UNL     H7   33   0.023  -0.221  -0.203
    1UNL     H8   34  -0.093  -0.149  -0.333
    1UNL     H9   35  -0.224  -0.190   0.066
    1UNL    H10   36   0.060  -0.220  -0.022
    1UNL    H11   37  -0.051  -0.330   0.073
    1UNL    H12   38   0.164  -0.351   0.174
    1UNL    H13   39   0.209  -0.256   0.307
    1UNL    H14   40   0.375  -0.183   0.151
    1UNL    H15   41   0.310  -0.262   0.008
    1UNL    H16   42   0.096   0.227   0.054
    1UNL    H17   43   0.226   0.338  -0.181
    1UNL    H18   44   0.424   0.303  -0.297
    1UNL    H19   45   0.577   0.123  -0.251
    1UNL    H20   46   0.509  -0.063  -0.102
    1UNL    H21   47   0.092  -0.017   0.297
    1UNL    H22   48  -0.163  -0.022   0.268
    1UNL    H23   49  -0.089   0.136   0.223
    1UNL    H24   50  -0.062   0.062  -0.019
   0.00000   0.00000   0.00000   0.00000   0.00000   0.00000   0.00000   0.00000   0.00000
Generated with MDTraj, t= 67.0
 50
    1UNL     C1    1  -0.443   0.363   0.096
    1UNL     O1    2  -0.420   0.252   0.025
    1UNL     C2    3  -0.324   0.174   0.084
    1UNL     O2    4  -0.278   0.205   0.188
    1UNL     C3    5  -0.287   0.049   0.019
    1UNL     C4    6  -0.368  -0.007  -0.074
    1UNL     O3    7  -0.339  -0.119  -0.149
    1UNL     C5    8  -0.210  -0.187  -0.128
    1UNL     C6    9  -0.114  -0.164  -0.250
    1UNL     C7   10  -0.147  -0.164   0.010
    1UNL     C8   11  -0.010  -0.226   0.038
    1UNL     N1   12   0.056  -0.191   0.165
    1UNL     C9   13   0.193  -0.238   0.203
    1UNL    C10   14   0.300  -0.175   0.105
    1UNL    C11   15   0.270  -0.038   0.060
    1UNL    C12   16   0.155   0.023   0.095
    1UNL     N2   17   0.151   0.149   0.032
    1UNL    C13   18   0.257   0.149  -0.059
    1UNL    C14   19   0.299   0.250  -0.143
    1UNL    C15   20   0.408   0.234  -0.219
    1UNL    C16   21   0.491   0.120  -0.215
    1UNL    C17   22   0.460   0.026  -0.117
    1UNL    C18   23   0.338   0.037  -0.040
    1UNL    C19   24   0.051  -0.040   0.185
    1UNL    C20   25  -0.096   0.011   0.178
    1UNL    C21   26  -0.151  -0.014   0.039
    1UNL     H1   27  -0.397   0.350   0.198
    1UNL     H2   28  -0.547   0.385   0.113
    1UNL     H3   29  -0.398   0.440   0.041
    1UNL     H4   30  -0.460   0.040  -0.087
    1UNL     H5   31  -0.242  -0.295  -0.134
    1UNL     H6   32  -0.091  -0.058  -0.253
    1UNL     H7   33  -0.017  -0.233  -0.239
    1UNL     H8   34  -0.160  -0.180  -0.348
    1UNL     H9   35  -0.216  -0.201   0.082
    1UNL    H10   36   0.063  -0.196  -0.049
    1UNL    H11   37  -0.019  -0.338   0.041
    1UNL    H12   38   0.190  -0.348   0.203
    1UNL    H13   39   0.211  -0.217   0.313
    1UNL    H14   40   0.400  -0.175   0.155
    1UNL    H15   41   0.313  -0.239   0.017
    1UNL    H16   42   0.072   0.213   0.010
    1UNL    H17   43   0.232   0.334  -0.156
    1UNL    H18   44   0.448   0.313  -0.284
    1UNL    H19   45   0.576   0.109  -0.280
    1UNL    H20   46   0.536  -0.052  -0.110
    1UNL    H21   47   0.093  -0.009   0.280
    1UNL    H22   48  -0.160  -0.036   0.257
    1UNL    H23   49  -0.103   0.121   0.206
    1UNL    H24   50  -0.087   0.050  -0.025
   0.00000   0.00000   0.00000   0.00000   0.00000   0.00000   0.00000   0.00000   0.00000
Generated with MDTraj, t= 68.0
 50
    1UNL     C1    1  -0.464   0.365   0.064
    1UNL     O1    2  -0.438   0.239   0.014
    1UNL     C2    3  -0.317   0.181   0.060
    1UNL     O2    4  -0.255   0.238   0.147
    1UNL     C3    5  -0.287   0.049   0.011
    1UNL     C4    6  -0.381  -0.031  -0.039
    1UNL     O3    7  -0.367  -0.156  -0.080
    1UNL     C5    8  -0.230  -0.197  -0.111
    1UNL     C6    9  -0.177  -0.153  -0.242
    1UNL     C7   10  -0.139  -0.156   0.007
    1UNL     C8   11  -0.001  -0.205  -0.002
    1UNL     N1   12   0.065  -0.189   0.133
    1UNL     C9   13   0.195  -0.254   0.157
    1UNL    C10   14   0.316  -0.184   0.096
    1UNL    C11   15   0.284  -0.042   0.072
    1UNL    C12   16   0.171   0.021   0.114
    1UNL     N2   17   0.158   0.144   0.045
    1UNL    C13   18   0.268   0.156  -0.041
    1UNL    C14   19   0.308   0.264  -0.129
    1UNL    C15   20   0.425   0.247  -0.195
    1UNL    C16   21   0.495   0.125  -0.185
    1UNL    C17   22   0.454   0.017  -0.109
    1UNL    C18   23   0.345   0.041  -0.023
    1UNL    C19   24   0.062  -0.045   0.186
    1UNL    C20   25  -0.080   0.017   0.166
    1UNL    C21   26  -0.145  -0.002   0.030
    1UNL     H1   27  -0.575   0.375   0.074
    1UNL     H2   28  -0.430   0.448   0.010
    1UNL     H3   29  -0.421   0.369   0.159
    1UNL     H4   30  -0.488   0.003  -0.047
    1UNL     H5   31  -0.237  -0.307  -0.115
    1UNL     H6   32  -0.173  -0.042  -0.253
    1UNL     H7   33  -0.076  -0.202  -0.265
    1UNL     H8   34  -0.240  -0.180  -0.327
    1UNL     H9   35  -0.180  -0.208   0.089
    1UNL    H10   36   0.068  -0.139  -0.073
    1UNL    H11   37   0.012  -0.311  -0.035
    1UNL    H12   38   0.188  -0.364   0.122
    1UNL    H13   39   0.199  -0.266   0.267
    1UNL    H14   40   0.414  -0.200   0.151
    1UNL    H15   41   0.333  -0.233   0.001
    1UNL    H16   42   0.084   0.209   0.075
    1UNL    H17   43   0.246   0.355  -0.143
    1UNL    H18   44   0.446   0.317  -0.273
    1UNL    H19   45   0.578   0.111  -0.254
    1UNL    H20   46   0.499  -0.080  -0.117
    1UNL    H21   47   0.084  -0.065   0.291
    1UNL    H22   48  -0.148  -0.030   0.242
    1UNL    H23   49  -0.081   0.126   0.197
    1UNL    H24   50  -0.073   0.040  -0.044
   0.00000   0.00000   0.00000   0.00000   0.00000   0.00000   0.00000   0.00000   0.00000
Generated with MDTraj, t= 69.0
 50
    1UNL     C1    1  -0.463   0.352   0.038
    1UNL     O1    2  -0.445   0.213   0.054
    1UNL     C2    3  -0.309   0.180   0.035
    1UNL     O2    4  -0.213   0.254   0.040
    1UNL     C3    5  -0.290   0.036   0.017
    1UNL     C4    6  -0.394  -0.046  -0.004
    1UNL     O3    7  -0.392  -0.169  -0.059
    1UNL     C5    8  -0.253  -0.200  -0.102
    1UNL     C6    9  -0.216  -0.114  -0.219
    1UNL     C7   10  -0.154  -0.167   0.023
    1UNL     C8   11  -0.023  -0.227   0.004
    1UNL     N1   12   0.061  -0.191   0.132
    1UNL     C9   13   0.192  -0.264   0.148
    1UNL    C10   14   0.303  -0.194   0.065
    1UNL    C11   15   0.286  -0.048   0.055
    1UNL    C12   16   0.167   0.020   0.096
    1UNL     N2   17   0.169   0.152   0.057
    1UNL    C13   18   0.287   0.170  -0.024
    1UNL    C14   19   0.326   0.274  -0.105
    1UNL    C15   20   0.440   0.269  -0.179
    1UNL    C16   21   0.515   0.148  -0.172
    1UNL    C17   22   0.468   0.039  -0.104
    1UNL    C18   23   0.362   0.050  -0.020
    1UNL    C19   24   0.065  -0.050   0.177
    1UNL    C20   25  -0.074   0.016   0.172
    1UNL    C21   26  -0.143  -0.013   0.037
    1UNL     H1   27  -0.434   0.393  -0.062
    1UNL     H2   28  -0.411   0.413   0.108
    1UNL     H3   29  -0.566   0.376   0.057
    1UNL     H4   30  -0.496  -0.004   0.004
    1UNL     H5   31  -0.255  -0.304  -0.128
    1UNL     H6   32  -0.241  -0.002  -0.200
    1UNL     H7   33  -0.117  -0.130  -0.256
    1UNL     H8   34  -0.282  -0.141  -0.305
    1UNL     H9   35  -0.200  -0.205   0.109
    1UNL    H10   36   0.031  -0.186  -0.090
    1UNL    H11   37  -0.024  -0.339  -0.006
    1UNL    H12   38   0.168  -0.377   0.119
    1UNL    H13   39   0.227  -0.268   0.252
    1UNL    H14   40   0.399  -0.221   0.120
    1UNL    H15   41   0.315  -0.239  -0.031
    1UNL    H16   42   0.078   0.193   0.032
    1UNL    H17   43   0.266   0.357  -0.092
    1UNL    H18   44   0.463   0.351  -0.248
    1UNL    H19   45   0.606   0.141  -0.226
    1UNL    H20   46   0.521  -0.054  -0.102
    1UNL    H21   47   0.095  -0.062   0.284
    1UNL    H22   48  -0.145  -0.023   0.249
    1UNL    H23   49  -0.059   0.124   0.197
    1UNL    H24   50  -0.079   0.027  -0.045
   0.00000   0.00000   0.00000   0.00000   0.00000   0.00000   0.00000   0.00000   0.00000
Generated with MDTraj, t= 70.0
 50
    1UNL     C1    1  -0.435   0.380   0.049
    1UNL     O1    2  -0.432   0.236   0.058
    1UNL     C2    3  -0.303   0.188   0.028
    1UNL     O2    4  -0.204   0.252  -0.000
    1UNL     C3    5  -0.294   0.043   0.029
    1UNL     C4    6  -0.396  -0.043   0.003
    1UNL     O3    7  -0.388  -0.175  -0.041
    1UNL     C5    8  -0.262  -0.225  -0.079
    1UNL     C6    9  -0.233  -0.189  -0.224
    1UNL     C7   10  -0.154  -0.170   0.021
    1UNL     C8   11  -0.014  -0.221   0.008
    1UNL     N1   12   0.061  -0.199   0.136
    1UNL     C9   13   0.199  -0.253   0.144
    1UNL    C10   14   0.291  -0.194   0.042
    1UNL    C11   15   0.258  -0.049   0.008
    1UNL    C12   16   0.150   0.011   0.064
    1UNL     N2   17   0.160   0.149   0.040
    1UNL    C13   18   0.280   0.173  -0.028
    1UNL    C14   19   0.334   0.295  -0.067
    1UNL    C15   20   0.461   0.287  -0.124
    1UNL    C16   21   0.530   0.166  -0.149
    1UNL    C17   22   0.475   0.047  -0.113
    1UNL    C18   23   0.347   0.050  -0.045
    1UNL    C19   24   0.062  -0.056   0.166
    1UNL    C20   25  -0.081   0.002   0.177
    1UNL    C21   26  -0.154  -0.017   0.040
    1UNL     H1   27  -0.335   0.434   0.047
    1UNL     H2   28  -0.498   0.430   0.124
    1UNL     H3   29  -0.487   0.406  -0.046
    1UNL     H4   30  -0.491  -0.003  -0.000
    1UNL     H5   31  -0.267  -0.331  -0.070
    1UNL     H6   32  -0.236  -0.075  -0.231
    1UNL     H7   33  -0.148  -0.237  -0.262
    1UNL     H8   34  -0.322  -0.231  -0.283
    1UNL     H9   35  -0.192  -0.201   0.115
    1UNL    H10   36   0.043  -0.169  -0.068
    1UNL    H11   37  -0.014  -0.335  -0.011
    1UNL    H12   38   0.205  -0.370   0.147
    1UNL    H13   39   0.235  -0.218   0.242
    1UNL    H14   40   0.402  -0.202   0.071
    1UNL    H15   41   0.278  -0.257  -0.044
    1UNL    H16   42   0.107   0.233   0.063
    1UNL    H17   43   0.263   0.384  -0.053
    1UNL    H18   44   0.508   0.379  -0.144
    1UNL    H19   45   0.632   0.158  -0.185
    1UNL    H20   46   0.518  -0.052  -0.111
    1UNL    H21   47   0.114  -0.045   0.267
    1UNL    H22   48  -0.129  -0.058   0.259
    1UNL    H23   49  -0.083   0.108   0.212
    1UNL    H24   50  -0.109   0.048  -0.040
   0.00000   0.00000   0.00000   0.00000   0.00000   0.00000   0.00000   0.00000   0.00000
Generated with MDTraj, t= 71.0
 50
    1UNL     C1    1  -0.407   0.368   0.072
    1UNL     O1    2  -0.410   0.240   0.020
    1UNL     C2    3  -0.286   0.181   0.024
    1UNL     O2    4  -0.184   0.241   0.049
    1UNL     C3    5  -0.290   0.040   0.001
    1UNL     C4    6  -0.401  -0.029  -0.032
    1UNL     O3    7  -0.414  -0.169  -0.032
    1UNL     C5    8  -0.291  -0.241  -0.051
    1UNL     C6    9  -0.245  -0.249  -0.202
    1UNL     C7   10  -0.182  -0.186   0.040
    1UNL     C8   11  -0.049  -0.259   0.047
    1UNL     N1   12   0.058  -0.194   0.132
    1UNL     C9   13   0.196  -0.258   0.108
    1UNL    C10   14   0.288  -0.183   0.012
    1UNL    C11   15   0.267  -0.038   0.005
    1UNL    C12   16   0.156   0.025   0.067
    1UNL     N2   17   0.172   0.160   0.052
    1UNL    C13   18   0.287   0.191  -0.021
    1UNL    C14   19   0.344   0.311  -0.056
    1UNL    C15   20   0.470   0.308  -0.120
    1UNL    C16   21   0.540   0.179  -0.145
    1UNL    C17   22   0.479   0.062  -0.105
    1UNL    C18   23   0.351   0.068  -0.050
    1UNL    C19   24   0.052  -0.045   0.153
    1UNL    C20   25  -0.087   0.020   0.144
    1UNL    C21   26  -0.160  -0.036   0.019
    1UNL     H1   27  -0.449   0.378   0.176
    1UNL     H2   28  -0.470   0.426  -0.001
    1UNL     H3   29  -0.302   0.411   0.063
    1UNL     H4   30  -0.494   0.024  -0.046
    1UNL     H5   31  -0.312  -0.337  -0.007
    1UNL     H6   32  -0.228  -0.148  -0.239
    1UNL     H7   33  -0.155  -0.311  -0.218
    1UNL     H8   34  -0.320  -0.303  -0.268
    1UNL     H9   35  -0.223  -0.195   0.137
    1UNL    H10   36  -0.009  -0.266  -0.050
    1UNL    H11   37  -0.062  -0.364   0.099
    1UNL    H12   38   0.182  -0.367   0.080
    1UNL    H13   39   0.245  -0.261   0.212
    1UNL    H14   40   0.398  -0.207   0.038
    1UNL    H15   41   0.278  -0.214  -0.091
    1UNL    H16   42   0.116   0.220   0.111
    1UNL    H17   43   0.289   0.400  -0.062
    1UNL    H18   44   0.514   0.404  -0.154
    1UNL    H19   45   0.644   0.188  -0.171
    1UNL    H20   46   0.528  -0.033  -0.113
    1UNL    H21   47   0.083  -0.028   0.262
    1UNL    H22   48  -0.158   0.014   0.231
    1UNL    H23   49  -0.066   0.127   0.124
    1UNL    H24   50  -0.108  -0.030  -0.080
   0.00000   0.00000   0.00000   0.00000   0.00000   0.00000   0.00000   0.00000   0.00000
Generated with MDTraj, t= 72.0
 50
    1UNL     C1    1  -0.412   0.380   0.037
    1UNL     O1    2  -0.417   0.243   0.016
    1UNL     C2    3  -0.296   0.187   0.030
    1UNL     O2    4  -0.198   0.252   0.057
    1UNL     C3    5  -0.290   0.041   0.010
    1UNL     C4    6  -0.398  -0.025  -0.028
    1UNL     O3    7  -0.414  -0.156  -0.045
    1UNL     C5    8  -0.290  -0.235  -0.044
    1UNL     C6    9  -0.244  -0.278  -0.183
    1UNL     C7   10  -0.180  -0.190   0.050
    1UNL     C8   11  -0.037  -0.244   0.021
    1UNL     N1   12   0.064  -0.200   0.123
    1UNL     C9   13   0.199  -0.265   0.097
    1UNL    C10   14   0.286  -0.190  -0.006
    1UNL    C11   15   0.273  -0.037   0.012
    1UNL    C12   16   0.167   0.026   0.080
    1UNL     N2   17   0.176   0.162   0.065
    1UNL    C13   18   0.288   0.184  -0.011
    1UNL    C14   19   0.348   0.306  -0.038
    1UNL    C15   20   0.461   0.309  -0.117
    1UNL    C16   21   0.524   0.186  -0.157
    1UNL    C17   22   0.477   0.060  -0.119
    1UNL    C18   23   0.352   0.063  -0.043
    1UNL    C19   24   0.058  -0.055   0.160
    1UNL    C20   25  -0.078   0.016   0.155
    1UNL    C21   26  -0.159  -0.036   0.032
    1UNL     H1   27  -0.497   0.429  -0.014
    1UNL     H2   28  -0.319   0.409  -0.019
    1UNL     H3   29  -0.402   0.402   0.145
    1UNL     H4   30  -0.483   0.047  -0.050
    1UNL     H5   31  -0.329  -0.321   0.014
    1UNL     H6   32  -0.185  -0.206  -0.230
    1UNL     H7   33  -0.181  -0.376  -0.176
    1UNL     H8   34  -0.321  -0.315  -0.255
    1UNL     H9   35  -0.212  -0.208   0.148
    1UNL    H10   36  -0.003  -0.209  -0.071
    1UNL    H11   37  -0.046  -0.359   0.027
    1UNL    H12   38   0.173  -0.369   0.062
    1UNL    H13   39   0.255  -0.282   0.199
    1UNL    H14   40   0.397  -0.200   0.005
    1UNL    H15   41   0.262  -0.216  -0.110
    1UNL    H16   42   0.097   0.220   0.088
    1UNL    H17   43   0.295   0.401  -0.022
    1UNL    H18   44   0.496   0.400  -0.159
    1UNL    H19   45   0.616   0.185  -0.213
    1UNL    H20   46   0.527  -0.035  -0.134
    1UNL    H21   47   0.093  -0.057   0.271
    1UNL    H22   48  -0.140  -0.001   0.245
    1UNL    H23   49  -0.080   0.125   0.141
    1UNL    H24   50  -0.088  -0.028  -0.055
   0.00000   0.00000   0.00000   0.00000   0.00000   0.00000   0.00000   0.00000   0.00000
Generated with MDTraj, t= 73.0
 50
    1UNL     C1    1  -0.420   0.382  -0.010
    1UNL     O1    2  -0.425   0.241   0.013
    1UNL     C2    3  -0.297   0.188   0.038
    1UNL     O2    4  -0.206   0.263   0.066
    1UNL     C3    5  -0.287   0.044   0.030
    1UNL     C4    6  -0.394  -0.034   0.004
    1UNL     O3    7  -0.403  -0.161  -0.042
    1UNL     C5    8  -0.278  -0.233  -0.063
    1UNL     C6    9  -0.251  -0.232  -0.208
    1UNL     C7   10  -0.159  -0.178   0.027
    1UNL     C8   11  -0.012  -0.224   0.004
    1UNL     N1   12   0.067  -0.201   0.129
    1UNL     C9   13   0.205  -0.255   0.122
    1UNL    C10   14   0.291  -0.198   0.009
    1UNL    C11   15   0.264  -0.047   0.011
    1UNL    C12   16   0.169   0.015   0.089
    1UNL     N2   17   0.175   0.151   0.070
    1UNL    C13   18   0.279   0.178  -0.010
    1UNL    C14   19   0.345   0.298  -0.034
    1UNL    C15   20   0.457   0.296  -0.118
    1UNL    C16   21   0.506   0.175  -0.171
    1UNL    C17   22   0.447   0.058  -0.139
    1UNL    C18   23   0.343   0.057  -0.047
    1UNL    C19   24   0.069  -0.062   0.176
    1UNL    C20   25  -0.074  -0.000   0.170
    1UNL    C21   26  -0.153  -0.029   0.041
    1UNL     H1   27  -0.432   0.408  -0.113
    1UNL     H2   28  -0.319   0.411   0.026
    1UNL     H3   29  -0.499   0.420   0.050
    1UNL     H4   30  -0.493   0.012   0.010
    1UNL     H5   31  -0.291  -0.339  -0.028
    1UNL     H6   32  -0.255  -0.127  -0.233
    1UNL     H7   33  -0.152  -0.285  -0.242
    1UNL     H8   34  -0.329  -0.287  -0.259
    1UNL     H9   35  -0.174  -0.213   0.125
    1UNL    H10   36   0.027  -0.154  -0.067
    1UNL    H11   37  -0.012  -0.331  -0.029
    1UNL    H12   38   0.203  -0.367   0.114
    1UNL    H13   39   0.253  -0.223   0.226
    1UNL    H14   40   0.397  -0.222   0.023
    1UNL    H15   41   0.258  -0.232  -0.092
    1UNL    H16   42   0.099   0.216   0.075
    1UNL    H17   43   0.316   0.392   0.015
    1UNL    H18   44   0.501   0.390  -0.157
    1UNL    H19   45   0.594   0.180  -0.234
    1UNL    H20   46   0.490  -0.038  -0.162
    1UNL    H21   47   0.123  -0.042   0.278
    1UNL    H22   48  -0.137  -0.048   0.249
    1UNL    H23   49  -0.081   0.107   0.193
    1UNL    H24   50  -0.083   0.002  -0.041
   0.00000   0.00000   0.00000   0.00000   0.00000   0.00000   0.00000   0.00000   0.00000
Generated with MDTraj, t= 74.0
 50
    1UNL     C1    1  -0.410   0.370   0.004
    1UNL     O1    2  -0.421   0.230  -0.009
    1UNL     C2    3  -0.299   0.178   0.034
    1UNL     O2    4  -0.206   0.249   0.073
    1UNL     C3    5  -0.291   0.033   0.035
    1UNL     C4    6  -0.396  -0.052   0.006
    1UNL     O3    7  -0.397  -0.178  -0.052
    1UNL     C5    8  -0.265  -0.212  -0.091
    1UNL     C6    9  -0.226  -0.121  -0.206
    1UNL     C7   10  -0.171  -0.180   0.036
    1UNL     C8   11  -0.028  -0.246   0.030
    1UNL     N1   12   0.067  -0.206   0.140
    1UNL     C9   13   0.207  -0.265   0.126
    1UNL    C10   14   0.295  -0.195   0.023
    1UNL    C11   15   0.268  -0.047   0.031
    1UNL    C12   16   0.161   0.020   0.092
    1UNL     N2   17   0.175   0.156   0.072
    1UNL    C13   18   0.274   0.177  -0.017
    1UNL    C14   19   0.326   0.294  -0.076
    1UNL    C15   20   0.439   0.292  -0.155
    1UNL    C16   21   0.503   0.168  -0.178
    1UNL    C17   22   0.451   0.050  -0.131
    1UNL    C18   23   0.346   0.054  -0.038
    1UNL    C19   24   0.068  -0.058   0.180
    1UNL    C20   25  -0.073   0.002   0.176
    1UNL    C21   26  -0.150  -0.031   0.051
    1UNL     H1   27  -0.314   0.414   0.003
    1UNL     H2   28  -0.455   0.381   0.105
    1UNL     H3   29  -0.474   0.401  -0.075
    1UNL     H4   30  -0.492  -0.025   0.033
    1UNL     H5   31  -0.267  -0.320  -0.123
    1UNL     H6   32  -0.255  -0.020  -0.163
    1UNL     H7   33  -0.117  -0.130  -0.219
    1UNL     H8   34  -0.277  -0.150  -0.298
    1UNL     H9   35  -0.223  -0.214   0.120
    1UNL    H10   36   0.018  -0.214  -0.063
    1UNL    H11   37  -0.047  -0.352   0.031
    1UNL    H12   38   0.196  -0.375   0.107
    1UNL    H13   39   0.264  -0.243   0.226
    1UNL    H14   40   0.399  -0.207   0.041
    1UNL    H15   41   0.266  -0.230  -0.081
    1UNL    H16   42   0.109   0.227   0.095
    1UNL    H17   43   0.289   0.389  -0.054
    1UNL    H18   44   0.476   0.378  -0.204
    1UNL    H19   45   0.601   0.171  -0.221
    1UNL    H20   46   0.507  -0.040  -0.147
    1UNL    H21   47   0.119  -0.057   0.284
    1UNL    H22   48  -0.126  -0.032   0.268
    1UNL    H23   49  -0.071   0.112   0.182
    1UNL    H24   50  -0.092   0.018  -0.032
   0.00000   0.00000   0.00000   0.00000   0.00000   0.00000   0.00000   0.00000   0.00000
Generated with MDTraj, t= 75.0
 50
    1UNL     C1    1  -0.415   0.376   0.017
    1UNL     O1    2  -0.423   0.232   0.036
    1UNL     C2    3  -0.294   0.191   0.061
    1UNL     O2    4  -0.202   0.263   0.103
    1UNL     C3    5  -0.277   0.047   0.028
    1UNL     C4    6  -0.380  -0.026  -0.025
    1UNL     O3    7  -0.368  -0.156  -0.065
    1UNL     C5    8  -0.238  -0.208  -0.097
    1UNL     C6    9  -0.190  -0.159  -0.230
    1UNL     C7   10  -0.144  -0.169   0.021
    1UNL     C8   11   0.000  -0.221   0.002
    1UNL     N1   12   0.058  -0.207   0.138
    1UNL     C9   13   0.196  -0.270   0.145
    1UNL    C10   14   0.306  -0.196   0.065
    1UNL    C11   15   0.265  -0.052   0.038
    1UNL    C12   16   0.159   0.011   0.098
    1UNL     N2   17   0.139   0.141   0.050
    1UNL    C13   18   0.248   0.164  -0.037
    1UNL    C14   19   0.291   0.283  -0.106
    1UNL    C15   20   0.405   0.274  -0.172
    1UNL    C16   21   0.483   0.163  -0.177
    1UNL    C17   22   0.450   0.041  -0.115
    1UNL    C18   23   0.328   0.051  -0.038
    1UNL    C19   24   0.061  -0.065   0.184
    1UNL    C20   25  -0.079  -0.001   0.183
    1UNL    C21   26  -0.139  -0.021   0.043
    1UNL     H1   27  -0.340   0.425   0.076
    1UNL     H2   28  -0.514   0.411   0.057
    1UNL     H3   29  -0.394   0.389  -0.086
    1UNL     H4   30  -0.481   0.021  -0.029
    1UNL     H5   31  -0.256  -0.318  -0.097
    1UNL     H6   32  -0.155  -0.049  -0.216
    1UNL     H7   33  -0.116  -0.219  -0.271
    1UNL     H8   34  -0.264  -0.162  -0.312
    1UNL     H9   35  -0.187  -0.220   0.102
    1UNL    H10   36   0.059  -0.165  -0.073
    1UNL    H11   37   0.010  -0.321  -0.016
    1UNL    H12   38   0.194  -0.377   0.106
    1UNL    H13   39   0.220  -0.273   0.257
    1UNL    H14   40   0.391  -0.187   0.122
    1UNL    H15   41   0.336  -0.244  -0.034
    1UNL    H16   42   0.054   0.189   0.075
    1UNL    H17   43   0.215   0.363  -0.129
    1UNL    H18   44   0.439   0.360  -0.231
    1UNL    H19   45   0.581   0.164  -0.223
    1UNL    H20   46   0.509  -0.050  -0.118
    1UNL    H21   47   0.110  -0.075   0.287
    1UNL    H22   48  -0.154  -0.043   0.255
    1UNL    H23   49  -0.065   0.105   0.207
    1UNL    H24   50  -0.077   0.031  -0.034
   0.00000   0.00000   0.00000   0.00000   0.00000   0.00000   0.00000   0.00000   0.00000
Generated with MDTraj, t= 76.0
 50
    1UNL     C1    1  -0.404   0.374   0.111
    1UNL     O1    2  -0.401   0.246   0.036
    1UNL     C2    3  -0.279   0.184   0.057
    1UNL     O2    4  -0.177   0.244   0.086
    1UNL     C3    5  -0.270   0.047   0.020
    1UNL     C4    6  -0.366  -0.004  -0.061
    1UNL     O3    7  -0.369  -0.131  -0.109
    1UNL     C5    8  -0.236  -0.198  -0.114
    1UNL     C6    9  -0.153  -0.169  -0.240
    1UNL     C7   10  -0.156  -0.181   0.016
    1UNL     C8   11  -0.007  -0.239   0.018
    1UNL     N1   12   0.057  -0.212   0.150
    1UNL     C9   13   0.199  -0.261   0.174
    1UNL    C10   14   0.307  -0.180   0.104
    1UNL    C11   15   0.270  -0.041   0.068
    1UNL    C12   16   0.148   0.012   0.101
    1UNL     N2   17   0.131   0.139   0.041
    1UNL    C13   18   0.241   0.162  -0.041
    1UNL    C14   19   0.262   0.268  -0.129
    1UNL    C15   20   0.368   0.258  -0.213
    1UNL    C16   21   0.465   0.156  -0.205
    1UNL    C17   22   0.448   0.062  -0.108
    1UNL    C18   23   0.338   0.056  -0.029
    1UNL    C19   24   0.051  -0.063   0.184
    1UNL    C20   25  -0.096  -0.012   0.190
    1UNL    C21   26  -0.149  -0.032   0.046
    1UNL     H1   27  -0.449   0.364   0.210
    1UNL     H2   28  -0.478   0.438   0.051
    1UNL     H3   29  -0.303   0.415   0.113
    1UNL     H4   30  -0.437   0.067  -0.113
    1UNL     H5   31  -0.257  -0.305  -0.111
    1UNL     H6   32  -0.155  -0.062  -0.271
    1UNL     H7   33  -0.054  -0.201  -0.255
    1UNL     H8   34  -0.197  -0.225  -0.326
    1UNL     H9   35  -0.211  -0.236   0.084
    1UNL    H10   36   0.069  -0.193  -0.048
    1UNL    H11   37   0.004  -0.339   0.003
    1UNL    H12   38   0.196  -0.373   0.143
    1UNL    H13   39   0.219  -0.264   0.284
    1UNL    H14   40   0.392  -0.181   0.163
    1UNL    H15   41   0.341  -0.230   0.009
    1UNL    H16   42   0.047   0.193   0.042
    1UNL    H17   43   0.179   0.326  -0.156
    1UNL    H18   44   0.379   0.319  -0.300
    1UNL    H19   45   0.554   0.174  -0.264
    1UNL    H20   46   0.531  -0.004  -0.099
    1UNL    H21   47   0.101  -0.058   0.286
    1UNL    H22   48  -0.161  -0.058   0.268
    1UNL    H23   49  -0.090   0.097   0.202
    1UNL    H24   50  -0.076   0.015  -0.025
   0.00000   0.00000   0.00000   0.00000   0.00000   0.00000   0.00000   0.00000   0.00000
Generated with MDTraj, t= 77.0
 50
    1UNL     C1    1  -0.370   0.354   0.153
    1UNL     O1    2  -0.383   0.237   0.068
    1UNL     C2    3  -0.263   0.190   0.037
    1UNL     O2    4  -0.158   0.249   0.057
    1UNL     C3    5  -0.252   0.054  -0.009
    1UNL     C4    6  -0.345  -0.009  -0.082
    1UNL     O3    7  -0.337  -0.137  -0.124
    1UNL     C5    8  -0.207  -0.197  -0.128
    1UNL     C6    9  -0.132  -0.145  -0.253
    1UNL     C7   10  -0.137  -0.173   0.007
    1UNL     C8   11  -0.006  -0.244   0.035
    1UNL     N1   12   0.052  -0.202   0.165
    1UNL     C9   13   0.193  -0.253   0.194
    1UNL    C10   14   0.293  -0.178   0.100
    1UNL    C11   15   0.252  -0.033   0.074
    1UNL    C12   16   0.143   0.022   0.124
    1UNL     N2   17   0.112   0.140   0.057
    1UNL    C13   18   0.207   0.155  -0.047
    1UNL    C14   19   0.232   0.258  -0.145
    1UNL    C15   20   0.347   0.248  -0.216
    1UNL    C16   21   0.433   0.142  -0.206
    1UNL    C17   22   0.413   0.041  -0.118
    1UNL    C18   23   0.303   0.052  -0.030
    1UNL    C19   24   0.042  -0.055   0.203
    1UNL    C20   25  -0.100  -0.003   0.183
    1UNL    C21   26  -0.125  -0.022   0.031
    1UNL     H1   27  -0.415   0.342   0.255
    1UNL     H2   28  -0.427   0.433   0.090
    1UNL     H3   29  -0.265   0.383   0.155
    1UNL     H4   30  -0.437   0.038  -0.095
    1UNL     H5   31  -0.227  -0.301  -0.140
    1UNL     H6   32  -0.080  -0.058  -0.227
    1UNL     H7   33  -0.061  -0.219  -0.289
    1UNL     H8   34  -0.201  -0.132  -0.342
    1UNL     H9   35  -0.211  -0.196   0.077
    1UNL    H10   36   0.068  -0.229  -0.043
    1UNL    H11   37  -0.017  -0.347   0.050
    1UNL    H12   38   0.200  -0.370   0.182
    1UNL    H13   39   0.205  -0.238   0.303
    1UNL    H14   40   0.392  -0.181   0.135
    1UNL    H15   41   0.301  -0.240   0.010
    1UNL    H16   42   0.024   0.195   0.065
    1UNL    H17   43   0.149   0.329  -0.154
    1UNL    H18   44   0.354   0.321  -0.297
    1UNL    H19   45   0.527   0.139  -0.260
    1UNL    H20   46   0.497  -0.024  -0.092
    1UNL    H21   47   0.073  -0.055   0.310
    1UNL    H22   48  -0.174  -0.062   0.242
    1UNL    H23   49  -0.111   0.103   0.213
    1UNL    H24   50  -0.042   0.024  -0.025
   0.00000   0.00000   0.00000   0.00000   0.00000   0.00000   0.00000   0.00000   0.00000
Generated with MDTraj, t= 78.0
 50
    1UNL     C1    1  -0.392   0.370   0.119
    1UNL     O1    2  -0.392   0.234   0.098
    1UNL     C2    3  -0.274   0.194   0.043
    1UNL     O2    4  -0.174   0.265   0.040
    1UNL     C3    5  -0.257   0.055  -0.000
    1UNL     C4    6  -0.338  -0.006  -0.092
    1UNL     O3    7  -0.322  -0.132  -0.151
    1UNL     C5    8  -0.193  -0.192  -0.134
    1UNL     C6    9  -0.098  -0.140  -0.242
    1UNL     C7   10  -0.140  -0.163   0.009
    1UNL     C8   11  -0.013  -0.238   0.034
    1UNL     N1   12   0.057  -0.212   0.164
    1UNL     C9   13   0.196  -0.263   0.180
    1UNL    C10   14   0.300  -0.179   0.104
    1UNL    C11   15   0.263  -0.040   0.075
    1UNL    C12   16   0.150   0.016   0.137
    1UNL     N2   17   0.125   0.138   0.074
    1UNL    C13   18   0.214   0.159  -0.029
    1UNL    C14   19   0.234   0.262  -0.124
    1UNL    C15   20   0.327   0.244  -0.221
    1UNL    C16   21   0.400   0.126  -0.229
    1UNL    C17   22   0.385   0.018  -0.137
    1UNL    C18   23   0.305   0.049  -0.024
    1UNL    C19   24   0.055  -0.064   0.212
    1UNL    C20   25  -0.086  -0.003   0.195
    1UNL    C21   26  -0.125  -0.016   0.044
    1UNL     H1   27  -0.363   0.392   0.224
    1UNL     H2   28  -0.499   0.408   0.096
    1UNL     H3   29  -0.332   0.417   0.042
    1UNL     H4   30  -0.434   0.037  -0.110
    1UNL     H5   31  -0.209  -0.296  -0.153
    1UNL     H6   32  -0.104  -0.040  -0.227
    1UNL     H7   33   0.006  -0.176  -0.219
    1UNL     H8   34  -0.132  -0.180  -0.340
    1UNL     H9   35  -0.212  -0.195   0.078
    1UNL    H10   36   0.059  -0.212  -0.037
    1UNL    H11   37  -0.043  -0.340   0.026
    1UNL    H12   38   0.188  -0.373   0.136
    1UNL    H13   39   0.217  -0.272   0.289
    1UNL    H14   40   0.386  -0.192   0.168
    1UNL    H15   41   0.331  -0.228   0.017
    1UNL    H16   42   0.030   0.182   0.066
    1UNL    H17   43   0.176   0.353  -0.115
    1UNL    H18   44   0.335   0.317  -0.300
    1UNL    H19   45   0.478   0.125  -0.304
    1UNL    H20   46   0.452  -0.065  -0.140
    1UNL    H21   47   0.083  -0.067   0.319
    1UNL    H22   48  -0.162  -0.059   0.252
    1UNL    H23   49  -0.093   0.103   0.228
    1UNL    H24   50  -0.041   0.022  -0.018
   0.00000   0.00000   0.00000   0.00000   0.00000   0.00000   0.00000   0.00000   0.00000
Generated with MDTraj, t= 79.0
 50
    1UNL     C1    1  -0.405   0.372   0.088
    1UNL     O1    2  -0.382   0.253   0.017
    1UNL     C2    3  -0.267   0.186   0.059
    1UNL     O2    4  -0.176   0.239   0.126
    1UNL     C3    5  -0.250   0.054   0.008
    1UNL     C4    6  -0.339  -0.005  -0.077
    1UNL     O3    7  -0.327  -0.125  -0.141
    1UNL     C5    8  -0.195  -0.186  -0.135
    1UNL     C6    9  -0.108  -0.119  -0.238
    1UNL     C7   10  -0.141  -0.170   0.012
    1UNL     C8   11   0.004  -0.226   0.033
    1UNL     N1   12   0.056  -0.213   0.170
    1UNL     C9   13   0.199  -0.253   0.201
    1UNL    C10   14   0.293  -0.192   0.088
    1UNL    C11   15   0.258  -0.046   0.068
    1UNL    C12   16   0.144   0.005   0.120
    1UNL     N2   17   0.128   0.135   0.070
    1UNL    C13   18   0.222   0.155  -0.031
    1UNL    C14   19   0.232   0.257  -0.124
    1UNL    C15   20   0.317   0.244  -0.233
    1UNL    C16   21   0.404   0.129  -0.239
    1UNL    C17   22   0.399   0.034  -0.138
    1UNL    C18   23   0.312   0.050  -0.025
    1UNL    C19   24   0.052  -0.069   0.211
    1UNL    C20   25  -0.087  -0.010   0.203
    1UNL    C21   26  -0.135  -0.024   0.053
    1UNL     H1   27  -0.313   0.410   0.129
    1UNL     H2   28  -0.482   0.362   0.170
    1UNL     H3   29  -0.454   0.440   0.023
    1UNL     H4   30  -0.419   0.063  -0.120
    1UNL     H5   31  -0.205  -0.291  -0.165
    1UNL     H6   32  -0.096  -0.016  -0.212
    1UNL     H7   33  -0.004  -0.162  -0.246
    1UNL     H8   34  -0.156  -0.130  -0.332
    1UNL     H9   35  -0.195  -0.228   0.079
    1UNL    H10   36   0.056  -0.163  -0.026
    1UNL    H11   37   0.012  -0.327   0.000
    1UNL    H12   38   0.197  -0.370   0.203
    1UNL    H13   39   0.222  -0.214   0.303
    1UNL    H14   40   0.397  -0.211   0.112
    1UNL    H15   41   0.277  -0.258   0.012
    1UNL    H16   42   0.046   0.195   0.091
    1UNL    H17   43   0.167   0.338  -0.124
    1UNL    H18   44   0.311   0.316  -0.314
    1UNL    H19   45   0.478   0.132  -0.318
    1UNL    H20   46   0.459  -0.055  -0.155
    1UNL    H21   47   0.088  -0.060   0.315
    1UNL    H22   48  -0.155  -0.071   0.264
    1UNL    H23   49  -0.102   0.096   0.234
    1UNL    H24   50  -0.048   0.017  -0.004
   0.00000   0.00000   0.00000   0.00000   0.00000   0.00000   0.00000   0.00000   0.00000
Generated with MDTraj, t= 80.0
 50
    1UNL     C1    1  -0.381   0.402   0.034
    1UNL     O1    2  -0.368   0.267  -0.010
    1UNL     C2    3  -0.284   0.189   0.069
    1UNL     O2    4  -0.231   0.231   0.172
    1UNL     C3    5  -0.260   0.049   0.021
    1UNL     C4    6  -0.351  -0.005  -0.064
    1UNL     O3    7  -0.334  -0.121  -0.124
    1UNL     C5    8  -0.198  -0.186  -0.119
    1UNL     C6    9  -0.116  -0.123  -0.233
    1UNL     C7   10  -0.137  -0.178   0.025
    1UNL     C8   11   0.002  -0.249   0.034
    1UNL     N1   12   0.067  -0.217   0.163
    1UNL     C9   13   0.207  -0.271   0.158
    1UNL    C10   14   0.316  -0.181   0.098
    1UNL    C11   15   0.258  -0.044   0.054
    1UNL    C12   16   0.150   0.006   0.121
    1UNL     N2   17   0.119   0.128   0.062
    1UNL    C13   18   0.210   0.150  -0.044
    1UNL    C14   19   0.228   0.259  -0.128
    1UNL    C15   20   0.331   0.253  -0.220
    1UNL    C16   21   0.422   0.144  -0.219
    1UNL    C17   22   0.410   0.039  -0.132
    1UNL    C18   23   0.302   0.043  -0.040
    1UNL    C19   24   0.060  -0.071   0.212
    1UNL    C20   25  -0.080  -0.013   0.205
    1UNL    C21   26  -0.132  -0.029   0.054
    1UNL     H1   27  -0.319   0.463  -0.025
    1UNL     H2   28  -0.350   0.424   0.138
    1UNL     H3   29  -0.481   0.433   0.034
    1UNL     H4   30  -0.440   0.053  -0.081
    1UNL     H5   31  -0.227  -0.290  -0.142
    1UNL     H6   32  -0.084  -0.016  -0.222
    1UNL     H7   33  -0.021  -0.166  -0.264
    1UNL     H8   34  -0.169  -0.125  -0.323
    1UNL     H9   35  -0.198  -0.228   0.093
    1UNL    H10   36   0.062  -0.214  -0.041
    1UNL    H11   37  -0.019  -0.353   0.021
    1UNL    H12   38   0.201  -0.366   0.093
    1UNL    H13   39   0.228  -0.303   0.264
    1UNL    H14   40   0.392  -0.173   0.176
    1UNL    H15   41   0.365  -0.225   0.020
    1UNL    H16   42   0.043   0.192   0.087
    1UNL    H17   43   0.137   0.325  -0.141
    1UNL    H18   44   0.337   0.328  -0.298
    1UNL    H19   45   0.510   0.136  -0.284
    1UNL    H20   46   0.469  -0.050  -0.132
    1UNL    H21   47   0.101  -0.066   0.314
    1UNL    H22   48  -0.155  -0.060   0.270
    1UNL    H23   49  -0.086   0.096   0.229
    1UNL    H24   50  -0.053   0.025  -0.003
   0.00000   0.00000   0.00000   0.00000   0.00000   0.00000   0.00000   0.00000   0.00000
Generated with MDTraj, t= 81.0
 50
    1UNL     C1    1  -0.345   0.387   0.006
    1UNL     O1    2  -0.381   0.256   0.009
    1UNL     C2    3  -0.289   0.176   0.076
    1UNL     O2    4  -0.203   0.228   0.147
    1UNL     C3    5  -0.280   0.035   0.046
    1UNL     C4    6  -0.370  -0.020  -0.041
    1UNL     O3    7  -0.357  -0.132  -0.118
    1UNL     C5    8  -0.225  -0.190  -0.123
    1UNL     C6    9  -0.142  -0.141  -0.244
    1UNL     C7   10  -0.145  -0.178   0.012
    1UNL     C8   11   0.003  -0.230   0.027
    1UNL     N1   12   0.070  -0.209   0.162
    1UNL     C9   13   0.212  -0.267   0.161
    1UNL    C10   14   0.295  -0.191   0.067
    1UNL    C11   15   0.258  -0.047   0.059
    1UNL    C12   16   0.145   0.023   0.119
    1UNL     N2   17   0.131   0.148   0.072
    1UNL    C13   18   0.227   0.165  -0.033
    1UNL    C14   19   0.244   0.271  -0.121
    1UNL    C15   20   0.352   0.259  -0.211
    1UNL    C16   21   0.443   0.148  -0.208
    1UNL    C17   22   0.419   0.044  -0.122
    1UNL    C18   23   0.307   0.050  -0.037
    1UNL    C19   24   0.059  -0.060   0.207
    1UNL    C20   25  -0.084  -0.016   0.199
    1UNL    C21   26  -0.142  -0.033   0.050
    1UNL     H1   27  -0.269   0.394  -0.067
    1UNL     H2   28  -0.305   0.431   0.100
    1UNL     H3   29  -0.427   0.448  -0.016
    1UNL     H4   30  -0.466   0.013  -0.061
    1UNL     H5   31  -0.251  -0.299  -0.138
    1UNL     H6   32  -0.135  -0.027  -0.250
    1UNL     H7   33  -0.042  -0.173  -0.242
    1UNL     H8   34  -0.181  -0.180  -0.335
    1UNL     H9   35  -0.199  -0.231   0.083
    1UNL    H10   36   0.058  -0.182  -0.053
    1UNL    H11   37   0.008  -0.332   0.010
    1UNL    H12   38   0.204  -0.377   0.135
    1UNL    H13   39   0.249  -0.255   0.268
    1UNL    H14   40   0.400  -0.197   0.090
    1UNL    H15   41   0.287  -0.235  -0.029
    1UNL    H16   42   0.040   0.191   0.082
    1UNL    H17   43   0.168   0.343  -0.119
    1UNL    H18   44   0.359   0.337  -0.285
    1UNL    H19   45   0.533   0.163  -0.265
    1UNL    H20   46   0.494  -0.032  -0.101
    1UNL    H21   47   0.096  -0.050   0.309
    1UNL    H22   48  -0.150  -0.073   0.266
    1UNL    H23   49  -0.093   0.091   0.231
    1UNL    H24   50  -0.079   0.032  -0.016
   0.00000   0.00000   0.00000   0.00000   0.00000   0.00000   0.00000   0.00000   0.00000
Generated with MDTraj, t= 82.0
 50
    1UNL     C1    1  -0.393   0.382   0.048
    1UNL     O1    2  -0.379   0.253  -0.003
    1UNL     C2    3  -0.259   0.194   0.026
    1UNL     O2    4  -0.155   0.258   0.052
    1UNL     C3    5  -0.264   0.050   0.014
    1UNL     C4    6  -0.372  -0.018  -0.031
    1UNL     O3    7  -0.375  -0.150  -0.071
    1UNL     C5    8  -0.246  -0.210  -0.099
    1UNL     C6    9  -0.188  -0.148  -0.230
    1UNL     C7   10  -0.154  -0.193   0.023
    1UNL     C8   11  -0.004  -0.238   0.024
    1UNL     N1   12   0.065  -0.219   0.158
    1UNL     C9   13   0.209  -0.271   0.169
    1UNL    C10   14   0.308  -0.200   0.074
    1UNL    C11   15   0.265  -0.050   0.043
    1UNL    C12   16   0.154  -0.001   0.099
    1UNL     N2   17   0.130   0.132   0.062
    1UNL    C13   18   0.238   0.172  -0.016
    1UNL    C14   19   0.266   0.292  -0.081
    1UNL    C15   20   0.371   0.292  -0.172
    1UNL    C16   21   0.438   0.170  -0.202
    1UNL    C17   22   0.419   0.055  -0.133
    1UNL    C18   23   0.318   0.057  -0.034
    1UNL    C19   24   0.057  -0.072   0.195
    1UNL    C20   25  -0.086  -0.020   0.190
    1UNL    C21   26  -0.145  -0.040   0.046
    1UNL     H1   27  -0.297   0.432   0.035
    1UNL     H2   28  -0.418   0.395   0.158
    1UNL     H3   29  -0.465   0.442  -0.003
    1UNL     H4   30  -0.470   0.035  -0.044
    1UNL     H5   31  -0.272  -0.318  -0.116
    1UNL     H6   32  -0.170  -0.042  -0.207
    1UNL     H7   33  -0.100  -0.197  -0.257
    1UNL     H8   34  -0.270  -0.166  -0.301
    1UNL     H9   35  -0.203  -0.247   0.097
    1UNL    H10   36   0.060  -0.191  -0.052
    1UNL    H11   37  -0.001  -0.338  -0.000
    1UNL    H12   38   0.206  -0.382   0.154
    1UNL    H13   39   0.237  -0.255   0.281
    1UNL    H14   40   0.401  -0.186   0.118
    1UNL    H15   41   0.327  -0.244  -0.024
    1UNL    H16   42   0.044   0.196   0.057
    1UNL    H17   43   0.210   0.385  -0.059
    1UNL    H18   44   0.383   0.390  -0.217
    1UNL    H19   45   0.519   0.169  -0.273
    1UNL    H20   46   0.490  -0.025  -0.126
    1UNL    H21   47   0.103  -0.062   0.292
    1UNL    H22   48  -0.153  -0.073   0.262
    1UNL    H23   49  -0.083   0.088   0.214
    1UNL    H24   50  -0.064   0.005  -0.018
   0.00000   0.00000   0.00000   0.00000   0.00000   0.00000   0.00000   0.00000   0.00000
Generated with MDTraj, t= 83.0
 50
    1UNL     C1    1  -0.375   0.387   0.059
    1UNL     O1    2  -0.380   0.253   0.015
    1UNL     C2    3  -0.258   0.191   0.016
    1UNL     O2    4  -0.153   0.256   0.026
    1UNL     C3    5  -0.262   0.046  -0.007
    1UNL     C4    6  -0.374  -0.029  -0.036
    1UNL     O3    7  -0.388  -0.163  -0.053
    1UNL     C5    8  -0.261  -0.235  -0.076
    1UNL     C6    9  -0.211  -0.194  -0.213
    1UNL     C7   10  -0.162  -0.187   0.036
    1UNL     C8   11  -0.025  -0.250   0.029
    1UNL     N1   12   0.056  -0.220   0.146
    1UNL     C9   13   0.195  -0.273   0.122
    1UNL    C10   14   0.293  -0.188   0.039
    1UNL    C11   15   0.262  -0.042   0.048
    1UNL    C12   16   0.152   0.015   0.111
    1UNL     N2   17   0.134   0.145   0.065
    1UNL    C13   18   0.245   0.175  -0.015
    1UNL    C14   19   0.267   0.288  -0.086
    1UNL    C15   20   0.382   0.295  -0.163
    1UNL    C16   21   0.477   0.188  -0.169
    1UNL    C17   22   0.447   0.070  -0.103
    1UNL    C18   23   0.332   0.064  -0.022
    1UNL    C19   24   0.054  -0.071   0.189
    1UNL    C20   25  -0.079   0.000   0.171
    1UNL    C21   26  -0.141  -0.036   0.036
    1UNL     H1   27  -0.310   0.445  -0.011
    1UNL     H2   28  -0.325   0.402   0.161
    1UNL     H3   29  -0.470   0.440   0.056
    1UNL     H4   30  -0.464   0.037  -0.054
    1UNL     H5   31  -0.284  -0.344  -0.069
    1UNL     H6   32  -0.199  -0.092  -0.208
    1UNL     H7   33  -0.119  -0.243  -0.245
    1UNL     H8   34  -0.293  -0.221  -0.283
    1UNL     H9   35  -0.204  -0.220   0.125
    1UNL    H10   36   0.028  -0.206  -0.061
    1UNL    H11   37  -0.014  -0.351   0.015
    1UNL    H12   38   0.181  -0.366   0.062
    1UNL    H13   39   0.237  -0.298   0.229
    1UNL    H14   40   0.391  -0.199   0.071
    1UNL    H15   41   0.288  -0.208  -0.070
    1UNL    H16   42   0.047   0.193   0.049
    1UNL    H17   43   0.194   0.369  -0.087
    1UNL    H18   44   0.399   0.382  -0.225
    1UNL    H19   45   0.562   0.207  -0.234
    1UNL    H20   46   0.517  -0.012  -0.113
    1UNL    H21   47   0.081  -0.074   0.292
    1UNL    H22   48  -0.155  -0.025   0.249
    1UNL    H23   49  -0.058   0.108   0.177
    1UNL    H24   50  -0.060  -0.006  -0.036
   0.00000   0.00000   0.00000   0.00000   0.00000   0.00000   0.00000   0.00000   0.00000
Generated with MDTraj, t= 84.0
 50
    1UNL     C1    1  -0.348   0.392   0.022
    1UNL     O1    2  -0.383   0.262   0.037
    1UNL     C2    3  -0.274   0.176   0.053
    1UNL     O2    4  -0.161   0.228   0.067
    1UNL     C3    5  -0.286   0.033   0.034
    1UNL     C4    6  -0.393  -0.028  -0.022
    1UNL     O3    7  -0.396  -0.152  -0.080
    1UNL     C5    8  -0.282  -0.239  -0.085
    1UNL     C6    9  -0.236  -0.242  -0.226
    1UNL     C7   10  -0.174  -0.196   0.031
    1UNL     C8   11  -0.029  -0.244   0.016
    1UNL     N1   12   0.057  -0.207   0.132
    1UNL     C9   13   0.199  -0.259   0.135
    1UNL    C10   14   0.312  -0.175   0.066
    1UNL    C11   15   0.270  -0.035   0.041
    1UNL    C12   16   0.144   0.016   0.079
    1UNL     N2   17   0.138   0.150   0.043
    1UNL    C13   18   0.249   0.177  -0.038
    1UNL    C14   19   0.299   0.305  -0.095
    1UNL    C15   20   0.424   0.309  -0.156
    1UNL    C16   21   0.505   0.197  -0.152
    1UNL    C17   22   0.457   0.077  -0.102
    1UNL    C18   23   0.331   0.066  -0.040
    1UNL    C19   24   0.052  -0.059   0.172
    1UNL    C20   25  -0.092  -0.011   0.180
    1UNL    C21   26  -0.159  -0.044   0.049
    1UNL     H1   27  -0.331   0.420  -0.086
    1UNL     H2   28  -0.258   0.422   0.083
    1UNL     H3   29  -0.438   0.454   0.039
    1UNL     H4   30  -0.484   0.020  -0.023
    1UNL     H5   31  -0.323  -0.336  -0.061
    1UNL     H6   32  -0.198  -0.150  -0.252
    1UNL     H7   33  -0.152  -0.308  -0.248
    1UNL     H8   34  -0.313  -0.265  -0.303
    1UNL     H9   35  -0.208  -0.237   0.122
    1UNL    H10   36   0.033  -0.203  -0.069
    1UNL    H11   37  -0.029  -0.349   0.003
    1UNL    H12   38   0.198  -0.360   0.088
    1UNL    H13   39   0.223  -0.256   0.251
    1UNL    H14   40   0.391  -0.170   0.131
    1UNL    H15   41   0.340  -0.219  -0.032
    1UNL    H16   42   0.042   0.191   0.044
    1UNL    H17   43   0.239   0.390  -0.099
    1UNL    H18   44   0.465   0.399  -0.198
    1UNL    H19   45   0.608   0.200  -0.186
    1UNL    H20   46   0.514  -0.012  -0.120
    1UNL    H21   47   0.093  -0.055   0.269
    1UNL    H22   48  -0.146  -0.063   0.263
    1UNL    H23   49  -0.098   0.097   0.199
    1UNL    H24   50  -0.088   0.001  -0.026
   0.00000   0.00000   0.00000   0.00000   0.00000   0.00000   0.00000   0.00000   0.00000
Generated with MDTraj, t= 85.0
 50
    1UNL     C1    1  -0.401   0.393   0.035
    1UNL     O1    2  -0.392   0.259  -0.003
    1UNL     C2    3  -0.278   0.191   0.032
    1UNL     O2    4  -0.178   0.257   0.067
    1UNL     C3    5  -0.278   0.047   0.019
    1UNL     C4    6  -0.390  -0.020  -0.022
    1UNL     O3    7  -0.397  -0.156  -0.035
    1UNL     C5    8  -0.269  -0.222  -0.074
    1UNL     C6    9  -0.227  -0.209  -0.219
    1UNL     C7   10  -0.162  -0.181   0.035
    1UNL     C8   11  -0.025  -0.252   0.028
    1UNL     N1   12   0.069  -0.221   0.136
    1UNL     C9   13   0.205  -0.286   0.101
    1UNL    C10   14   0.315  -0.177   0.071
    1UNL    C11   15   0.270  -0.046   0.027
    1UNL    C12   16   0.157   0.004   0.076
    1UNL     N2   17   0.131   0.129   0.026
    1UNL    C13   18   0.244   0.169  -0.040
    1UNL    C14   19   0.286   0.294  -0.093
    1UNL    C15   20   0.411   0.306  -0.139
    1UNL    C16   21   0.497   0.194  -0.138
    1UNL    C17   22   0.465   0.073  -0.092
    1UNL    C18   23   0.338   0.056  -0.037
    1UNL    C19   24   0.067  -0.071   0.173
    1UNL    C20   25  -0.073  -0.008   0.177
    1UNL    C21   26  -0.148  -0.032   0.043
    1UNL     H1   27  -0.311   0.455   0.012
    1UNL     H2   28  -0.415   0.395   0.144
    1UNL     H3   29  -0.473   0.438  -0.033
    1UNL     H4   30  -0.488   0.029  -0.026
    1UNL     H5   31  -0.294  -0.325  -0.063
    1UNL     H6   32  -0.197  -0.106  -0.246
    1UNL     H7   33  -0.141  -0.269  -0.248
    1UNL     H8   34  -0.302  -0.233  -0.290
    1UNL     H9   35  -0.211  -0.196   0.127
    1UNL    H10   36   0.022  -0.227  -0.068
    1UNL    H11   37  -0.037  -0.364   0.025
    1UNL    H12   38   0.187  -0.353   0.015
    1UNL    H13   39   0.239  -0.347   0.195
    1UNL    H14   40   0.358  -0.155   0.165
    1UNL    H15   41   0.391  -0.216   0.002
    1UNL    H16   42   0.048   0.187   0.049
    1UNL    H17   43   0.211   0.379  -0.096
    1UNL    H18   44   0.454   0.398  -0.175
    1UNL    H19   45   0.595   0.196  -0.184
    1UNL    H20   46   0.534  -0.011  -0.102
    1UNL    H21   47   0.113  -0.050   0.265
    1UNL    H22   48  -0.137  -0.057   0.255
    1UNL    H23   49  -0.076   0.097   0.206
    1UNL    H24   50  -0.076  -0.002  -0.038
   0.00000   0.00000   0.00000   0.00000   0.00000   0.00000   0.00000   0.00000   0.00000
Generated with MDTraj, t= 86.0
 50
    1UNL     C1    1  -0.399   0.384   0.022
    1UNL     O1    2  -0.395   0.240   0.017
    1UNL     C2    3  -0.276   0.178   0.035
    1UNL     O2    4  -0.165   0.231   0.045
    1UNL     C3    5  -0.273   0.040   0.019
    1UNL     C4    6  -0.390  -0.020  -0.010
    1UNL     O3    7  -0.399  -0.153  -0.037
    1UNL     C5    8  -0.274  -0.214  -0.083
    1UNL     C6    9  -0.235  -0.146  -0.218
    1UNL     C7   10  -0.166  -0.191   0.022
    1UNL     C8   11  -0.014  -0.247   0.011
    1UNL     N1   12   0.066  -0.214   0.127
    1UNL     C9   13   0.210  -0.268   0.135
    1UNL    C10   14   0.311  -0.184   0.057
    1UNL    C11   15   0.283  -0.042   0.059
    1UNL    C12   16   0.158   0.007   0.086
    1UNL     N2   17   0.140   0.134   0.044
    1UNL    C13   18   0.249   0.173  -0.023
    1UNL    C14   19   0.276   0.283  -0.109
    1UNL    C15   20   0.398   0.285  -0.170
    1UNL    C16   21   0.496   0.187  -0.157
    1UNL    C17   22   0.467   0.078  -0.080
    1UNL    C18   23   0.346   0.066  -0.015
    1UNL    C19   24   0.058  -0.073   0.169
    1UNL    C20   25  -0.079  -0.013   0.179
    1UNL    C21   26  -0.150  -0.036   0.041
    1UNL     H1   27  -0.298   0.425   0.022
    1UNL     H2   28  -0.441   0.412   0.117
    1UNL     H3   29  -0.445   0.422  -0.065
    1UNL     H4   30  -0.482   0.047  -0.023
    1UNL     H5   31  -0.290  -0.318  -0.105
    1UNL     H6   32  -0.223  -0.032  -0.199
    1UNL     H7   33  -0.141  -0.184  -0.251
    1UNL     H8   34  -0.312  -0.154  -0.287
    1UNL     H9   35  -0.210  -0.230   0.110
    1UNL    H10   36   0.033  -0.202  -0.075
    1UNL    H11   37  -0.016  -0.363  -0.012
    1UNL    H12   38   0.205  -0.373   0.097
    1UNL    H13   39   0.225  -0.277   0.249
    1UNL    H14   40   0.414  -0.211   0.085
    1UNL    H15   41   0.302  -0.218  -0.046
    1UNL    H16   42   0.049   0.175   0.050
    1UNL    H17   43   0.216   0.366  -0.116
    1UNL    H18   44   0.425   0.368  -0.236
    1UNL    H19   45   0.586   0.210  -0.212
    1UNL    H20   46   0.544   0.010  -0.056
    1UNL    H21   47   0.095  -0.072   0.269
    1UNL    H22   48  -0.135  -0.068   0.258
    1UNL    H23   49  -0.097   0.092   0.206
    1UNL    H24   50  -0.082  -0.002  -0.042
   0.00000   0.00000   0.00000   0.00000   0.00000   0.00000   0.00000   0.00000   0.00000
Generated with MDTraj, t= 87.0
 50
    1UNL     C1    1  -0.364   0.390   0.030
    1UNL     O1    2  -0.391   0.251   0.034
    1UNL     C2    3  -0.277   0.178   0.038
    1UNL     O2    4  -0.163   0.227   0.052
    1UNL     C3    5  -0.285   0.035   0.023
    1UNL     C4    6  -0.396  -0.037  -0.018
    1UNL     O3    7  -0.383  -0.168  -0.064
    1UNL     C5    8  -0.247  -0.217  -0.092
    1UNL     C6    9  -0.201  -0.159  -0.232
    1UNL     C7   10  -0.149  -0.174   0.011
    1UNL     C8   11   0.003  -0.214  -0.008
    1UNL     N1   12   0.065  -0.204   0.128
    1UNL     C9   13   0.204  -0.265   0.152
    1UNL    C10   14   0.306  -0.182   0.078
    1UNL    C11   15   0.262  -0.042   0.051
    1UNL    C12   16   0.156   0.019   0.118
    1UNL     N2   17   0.134   0.144   0.058
    1UNL    C13   18   0.239   0.168  -0.021
    1UNL    C14   19   0.277   0.283  -0.096
    1UNL    C15   20   0.393   0.284  -0.166
    1UNL    C16   21   0.465   0.170  -0.182
    1UNL    C17   22   0.432   0.050  -0.118
    1UNL    C18   23   0.317   0.053  -0.033
    1UNL    C19   24   0.052  -0.068   0.190
    1UNL    C20   25  -0.086  -0.008   0.189
    1UNL    C21   26  -0.147  -0.028   0.043
    1UNL     H1   27  -0.298   0.400  -0.057
    1UNL     H2   28  -0.306   0.419   0.116
    1UNL     H3   29  -0.451   0.448   0.023
    1UNL     H4   30  -0.490   0.009  -0.009
    1UNL     H5   31  -0.242  -0.325  -0.105
    1UNL     H6   32  -0.212  -0.047  -0.223
    1UNL     H7   33  -0.099  -0.186  -0.248
    1UNL     H8   34  -0.268  -0.189  -0.309
    1UNL     H9   35  -0.171  -0.223   0.102
    1UNL    H10   36   0.051  -0.156  -0.087
    1UNL    H11   37   0.005  -0.326  -0.043
    1UNL    H12   38   0.186  -0.370   0.110
    1UNL    H13   39   0.220  -0.281   0.264
    1UNL    H14   40   0.407  -0.177   0.130
    1UNL    H15   41   0.327  -0.227  -0.018
    1UNL    H16   42   0.038   0.188   0.046
    1UNL    H17   43   0.217   0.375  -0.091
    1UNL    H18   44   0.424   0.373  -0.218
    1UNL    H19   45   0.551   0.158  -0.245
    1UNL    H20   46   0.496  -0.037  -0.135
    1UNL    H21   47   0.083  -0.075   0.293
    1UNL    H22   48  -0.167  -0.044   0.256
    1UNL    H23   49  -0.076   0.097   0.215
    1UNL    H24   50  -0.078   0.018  -0.033
   0.00000   0.00000   0.00000   0.00000   0.00000   0.00000   0.00000   0.00000   0.00000
Generated with MDTraj, t= 88.0
 50
    1UNL     C1    1  -0.406   0.377   0.065
    1UNL     O1    2  -0.377   0.253   0.009
    1UNL     C2    3  -0.257   0.196   0.038
    1UNL     O2    4  -0.161   0.261   0.087
    1UNL     C3    5  -0.250   0.055   0.006
    1UNL     C4    6  -0.352  -0.008  -0.056
    1UNL     O3    7  -0.358  -0.138  -0.100
    1UNL     C5    8  -0.233  -0.205  -0.105
    1UNL     C6    9  -0.158  -0.175  -0.230
    1UNL     C7   10  -0.166  -0.179   0.024
    1UNL     C8   11  -0.040  -0.266   0.055
    1UNL     N1   12   0.061  -0.220   0.164
    1UNL     C9   13   0.208  -0.266   0.148
    1UNL    C10   14   0.307  -0.190   0.062
    1UNL    C11   15   0.267  -0.047   0.053
    1UNL    C12   16   0.151   0.005   0.108
    1UNL     N2   17   0.128   0.137   0.075
    1UNL    C13   18   0.230   0.171  -0.023
    1UNL    C14   19   0.254   0.285  -0.100
    1UNL    C15   20   0.353   0.282  -0.193
    1UNL    C16   21   0.440   0.169  -0.201
    1UNL    C17   22   0.425   0.057  -0.123
    1UNL    C18   23   0.315   0.056  -0.038
    1UNL    C19   24   0.055  -0.074   0.195
    1UNL    C20   25  -0.080  -0.014   0.186
    1UNL    C21   26  -0.133  -0.030   0.043
    1UNL     H1   27  -0.404   0.444  -0.024
    1UNL     H2   28  -0.331   0.409   0.136
    1UNL     H3   29  -0.505   0.360   0.106
    1UNL     H4   30  -0.439   0.050  -0.064
    1UNL     H5   31  -0.270  -0.310  -0.109
    1UNL     H6   32  -0.113  -0.080  -0.231
    1UNL     H7   33  -0.078  -0.248  -0.233
    1UNL     H8   34  -0.219  -0.185  -0.321
    1UNL     H9   35  -0.235  -0.195   0.104
    1UNL    H10   36   0.012  -0.290  -0.045
    1UNL    H11   37  -0.079  -0.370   0.085
    1UNL    H12   38   0.203  -0.379   0.122
    1UNL    H13   39   0.238  -0.266   0.258
    1UNL    H14   40   0.414  -0.209   0.102
    1UNL    H15   41   0.306  -0.234  -0.036
    1UNL    H16   42   0.037   0.182   0.080
    1UNL    H17   43   0.192   0.375  -0.092
    1UNL    H18   44   0.375   0.370  -0.254
    1UNL    H19   45   0.518   0.176  -0.274
    1UNL    H20   46   0.486  -0.031  -0.137
    1UNL    H21   47   0.093  -0.066   0.298
    1UNL    H22   48  -0.143  -0.064   0.261
    1UNL    H23   49  -0.083   0.091   0.213
    1UNL    H24   50  -0.047   0.004  -0.021
   0.00000   0.00000   0.00000   0.00000   0.00000   0.00000   0.00000   0.00000   0.00000
Generated with MDTraj, t= 89.0
 50
    1UNL     C1    1  -0.363   0.396   0.087
    1UNL     O1    2  -0.378   0.262   0.034
    1UNL     C2    3  -0.258   0.188   0.054
    1UNL     O2    4  -0.162   0.249   0.108
    1UNL     C3    5  -0.248   0.052   0.008
    1UNL     C4    6  -0.331  -0.001  -0.088
    1UNL     O3    7  -0.327  -0.127  -0.144
    1UNL     C5    8  -0.206  -0.209  -0.117
    1UNL     C6    9  -0.106  -0.193  -0.229
    1UNL     C7   10  -0.158  -0.182   0.029
    1UNL     C8   11  -0.023  -0.251   0.052
    1UNL     N1   12   0.054  -0.216   0.177
    1UNL     C9   13   0.197  -0.260   0.173
    1UNL    C10   14   0.281  -0.196   0.058
    1UNL    C11   15   0.241  -0.050   0.041
    1UNL    C12   16   0.136   0.007   0.110
    1UNL     N2   17   0.120   0.141   0.066
    1UNL    C13   18   0.217   0.166  -0.029
    1UNL    C14   19   0.232   0.274  -0.112
    1UNL    C15   20   0.332   0.270  -0.211
    1UNL    C16   21   0.422   0.164  -0.217
    1UNL    C17   22   0.409   0.063  -0.131
    1UNL    C18   23   0.301   0.054  -0.042
    1UNL    C19   24   0.048  -0.064   0.212
    1UNL    C20   25  -0.096  -0.014   0.200
    1UNL    C21   26  -0.140  -0.036   0.055
    1UNL     H1   27  -0.267   0.441   0.042
    1UNL     H2   28  -0.351   0.387   0.195
    1UNL     H3   29  -0.461   0.442   0.054
    1UNL     H4   30  -0.415   0.063  -0.129
    1UNL     H5   31  -0.255  -0.311  -0.121
    1UNL     H6   32  -0.053  -0.107  -0.229
    1UNL     H7   33  -0.032  -0.272  -0.237
    1UNL     H8   34  -0.157  -0.188  -0.328
    1UNL     H9   35  -0.221  -0.217   0.108
    1UNL    H10   36   0.054  -0.240  -0.039
    1UNL    H11   37  -0.039  -0.364   0.051
    1UNL    H12   38   0.201  -0.378   0.187
    1UNL    H13   39   0.243  -0.217   0.266
    1UNL    H14   40   0.395  -0.205   0.078
    1UNL    H15   41   0.258  -0.251  -0.032
    1UNL    H16   42   0.033   0.194   0.079
    1UNL    H17   43   0.162   0.348  -0.092
    1UNL    H18   44   0.345   0.356  -0.272
    1UNL    H19   45   0.499   0.161  -0.293
    1UNL    H20   46   0.461  -0.029  -0.138
    1UNL    H21   47   0.096  -0.053   0.312
    1UNL    H22   48  -0.164  -0.070   0.263
    1UNL    H23   49  -0.100   0.092   0.227
    1UNL    H24   50  -0.047  -0.009  -0.001
   0.00000   0.00000   0.00000   0.00000   0.00000   0.00000   0.00000   0.00000   0.00000
Generated with MDTraj, t= 90.0
 50
    1UNL     C1    1  -0.357   0.391   0.078
    1UNL     O1    2  -0.376   0.257   0.033
    1UNL     C2    3  -0.261   0.188   0.058
    1UNL     O2    4  -0.167   0.246   0.119
    1UNL     C3    5  -0.251   0.051   0.009
    1UNL     C4    6  -0.335   0.004  -0.091
    1UNL     O3    7  -0.330  -0.119  -0.148
    1UNL     C5    8  -0.200  -0.197  -0.130
    1UNL     C6    9  -0.107  -0.159  -0.246
    1UNL     C7   10  -0.136  -0.180   0.014
    1UNL     C8   11   0.007  -0.237   0.030
    1UNL     N1   12   0.061  -0.206   0.163
    1UNL     C9   13   0.196  -0.264   0.173
    1UNL    C10   14   0.306  -0.178   0.108
    1UNL    C11   15   0.248  -0.045   0.062
    1UNL    C12   16   0.139   0.019   0.132
    1UNL     N2   17   0.116   0.139   0.072
    1UNL    C13   18   0.212   0.157  -0.031
    1UNL    C14   19   0.220   0.269  -0.116
    1UNL    C15   20   0.315   0.255  -0.212
    1UNL    C16   21   0.401   0.139  -0.230
    1UNL    C17   22   0.384   0.028  -0.149
    1UNL    C18   23   0.286   0.038  -0.045
    1UNL    C19   24   0.051  -0.066   0.219
    1UNL    C20   25  -0.099  -0.020   0.214
    1UNL    C21   26  -0.136  -0.033   0.060
    1UNL     H1   27  -0.249   0.417   0.048
    1UNL     H2   28  -0.363   0.384   0.186
    1UNL     H3   29  -0.439   0.449   0.025
    1UNL     H4   30  -0.408   0.075  -0.129
    1UNL     H5   31  -0.235  -0.302  -0.149
    1UNL     H6   32  -0.087  -0.052  -0.248
    1UNL     H7   33  -0.017  -0.213  -0.244
    1UNL     H8   34  -0.165  -0.175  -0.339
    1UNL     H9   35  -0.194  -0.232   0.086
    1UNL    H10   36   0.077  -0.190  -0.049
    1UNL    H11   37   0.024  -0.349   0.005
    1UNL    H12   38   0.197  -0.373   0.128
    1UNL    H13   39   0.215  -0.283   0.283
    1UNL    H14   40   0.376  -0.152   0.196
    1UNL    H15   41   0.366  -0.227   0.031
    1UNL    H16   42   0.030   0.203   0.080
    1UNL    H17   43   0.166   0.367  -0.092
    1UNL    H18   44   0.325   0.339  -0.280
    1UNL    H19   45   0.478   0.128  -0.305
    1UNL    H20   46   0.438  -0.067  -0.154
    1UNL    H21   47   0.094  -0.084   0.322
    1UNL    H22   48  -0.165  -0.085   0.267
    1UNL    H23   49  -0.106   0.084   0.250
    1UNL    H24   50  -0.045   0.010   0.009
   0.00000   0.00000   0.00000   0.00000   0.00000   0.00000   0.00000   0.00000   0.00000
Generated with MDTraj, t= 91.0
 50
    1UNL     C1    1  -0.394   0.381   0.062
    1UNL     O1    2  -0.380   0.258  -0.003
    1UNL     C2    3  -0.271   0.195   0.048
    1UNL     O2    4  -0.176   0.252   0.108
    1UNL     C3    5  -0.253   0.053   0.022
    1UNL     C4    6  -0.345  -0.007  -0.057
    1UNL     O3    7  -0.334  -0.126  -0.120
    1UNL     C5    8  -0.201  -0.176  -0.138
    1UNL     C6    9  -0.134  -0.089  -0.255
    1UNL     C7   10  -0.137  -0.167   0.001
    1UNL     C8   11   0.001  -0.227   0.021
    1UNL     N1   12   0.066  -0.211   0.154
    1UNL     C9   13   0.208  -0.266   0.167
    1UNL    C10   14   0.312  -0.193   0.085
    1UNL    C11   15   0.280  -0.045   0.091
    1UNL    C12   16   0.165   0.010   0.144
    1UNL     N2   17   0.127   0.134   0.093
    1UNL    C13   18   0.219   0.151  -0.009
    1UNL    C14   19   0.193   0.224  -0.122
    1UNL    C15   20   0.282   0.216  -0.232
    1UNL    C16   21   0.395   0.122  -0.223
    1UNL    C17   22   0.416   0.040  -0.115
    1UNL    C18   23   0.321   0.050  -0.007
    1UNL    C19   24   0.065  -0.070   0.212
    1UNL    C20   25  -0.085  -0.017   0.197
    1UNL    C21   26  -0.124  -0.022   0.047
    1UNL     H1   27  -0.367   0.459  -0.015
    1UNL     H2   28  -0.325   0.374   0.142
    1UNL     H3   29  -0.501   0.380   0.088
    1UNL     H4   30  -0.425   0.052  -0.086
    1UNL     H5   31  -0.210  -0.278  -0.179
    1UNL     H6   32  -0.141   0.022  -0.228
    1UNL     H7   33  -0.035  -0.118  -0.268
    1UNL     H8   34  -0.196  -0.093  -0.344
    1UNL     H9   35  -0.203  -0.217   0.068
    1UNL    H10   36   0.070  -0.187  -0.056
    1UNL    H11   37   0.002  -0.340  -0.007
    1UNL    H12   38   0.204  -0.380   0.145
    1UNL    H13   39   0.238  -0.270   0.277
    1UNL    H14   40   0.419  -0.211   0.119
    1UNL    H15   41   0.310  -0.226  -0.020
    1UNL    H16   42   0.036   0.172   0.100
    1UNL    H17   43   0.116   0.291  -0.118
    1UNL    H18   44   0.267   0.279  -0.319
    1UNL    H19   45   0.448   0.115  -0.316
    1UNL    H20   46   0.504  -0.019  -0.114
    1UNL    H21   47   0.088  -0.076   0.324
    1UNL    H22   48  -0.149  -0.087   0.246
    1UNL    H23   49  -0.115   0.083   0.232
    1UNL    H24   50  -0.049   0.032  -0.018
   0.00000   0.00000   0.00000   0.00000   0.00000   0.00000   0.00000   0.00000   0.00000
Generated with MDTraj, t= 92.0
 50
    1UNL     C1    1  -0.376   0.387   0.036
    1UNL     O1    2  -0.392   0.248   0.053
    1UNL     C2    3  -0.269   0.192   0.056
    1UNL     O2    4  -0.166   0.261   0.080
    1UNL     C3    5  -0.265   0.048   0.030
    1UNL     C4    6  -0.361  -0.019  -0.048
    1UNL     O3    7  -0.336  -0.137  -0.117
    1UNL     C5    8  -0.200  -0.171  -0.134
    1UNL     C6    9  -0.130  -0.090  -0.247
    1UNL     C7   10  -0.125  -0.164  -0.006
    1UNL     C8   11   0.017  -0.225   0.002
    1UNL     N1   12   0.066  -0.216   0.143
    1UNL     C9   13   0.208  -0.272   0.167
    1UNL    C10   14   0.319  -0.173   0.122
    1UNL    C11   15   0.263  -0.036   0.083
    1UNL    C12   16   0.147   0.010   0.132
    1UNL     N2   17   0.113   0.122   0.062
    1UNL    C13   18   0.215   0.150  -0.027
    1UNL    C14   19   0.229   0.251  -0.119
    1UNL    C15   20   0.329   0.242  -0.210
    1UNL    C16   21   0.404   0.123  -0.223
    1UNL    C17   22   0.389   0.022  -0.127
    1UNL    C18   23   0.298   0.041  -0.023
    1UNL    C19   24   0.055  -0.079   0.212
    1UNL    C20   25  -0.092  -0.018   0.211
    1UNL    C21   26  -0.137  -0.026   0.060
    1UNL     H1   27  -0.312   0.407  -0.052
    1UNL     H2   28  -0.329   0.410   0.126
    1UNL     H3   29  -0.475   0.422   0.009
    1UNL     H4   30  -0.466   0.014  -0.058
    1UNL     H5   31  -0.202  -0.272  -0.171
    1UNL     H6   32  -0.124   0.022  -0.223
    1UNL     H7   33  -0.029  -0.126  -0.263
    1UNL     H8   34  -0.188  -0.084  -0.335
    1UNL     H9   35  -0.181  -0.231   0.056
    1UNL    H10   36   0.082  -0.167  -0.061
    1UNL    H11   37   0.027  -0.331  -0.048
    1UNL    H12   38   0.222  -0.372   0.112
    1UNL    H13   39   0.219  -0.308   0.276
    1UNL    H14   40   0.394  -0.160   0.202
    1UNL    H15   41   0.375  -0.215   0.033
    1UNL    H16   42   0.025   0.180   0.062
    1UNL    H17   43   0.157   0.334  -0.123
    1UNL    H18   44   0.338   0.324  -0.280
    1UNL    H19   45   0.468   0.110  -0.309
    1UNL    H20   46   0.439  -0.076  -0.133
    1UNL    H21   47   0.094  -0.072   0.320
    1UNL    H22   48  -0.171  -0.070   0.263
    1UNL    H23   49  -0.100   0.085   0.243
    1UNL    H24   50  -0.068   0.038  -0.002
   0.00000   0.00000   0.00000   0.00000   0.00000   0.00000   0.00000   0.00000   0.00000
Generated with MDTraj, t= 93.0
 50
    1UNL     C1    1  -0.371   0.386   0.081
    1UNL     O1    2  -0.384   0.251   0.029
    1UNL     C2    3  -0.271   0.185   0.047
    1UNL     O2    4  -0.171   0.239   0.098
    1UNL     C3    5  -0.261   0.048   0.009
    1UNL     C4    6  -0.358  -0.018  -0.062
    1UNL     O3    7  -0.350  -0.144  -0.117
    1UNL     C5    8  -0.218  -0.201  -0.114
    1UNL     C6    9  -0.141  -0.131  -0.228
    1UNL     C7   10  -0.159  -0.180   0.025
    1UNL     C8   11  -0.020  -0.244   0.034
    1UNL     N1   12   0.051  -0.215   0.158
    1UNL     C9   13   0.196  -0.254   0.170
    1UNL    C10   14   0.298  -0.187   0.077
    1UNL    C11   15   0.265  -0.043   0.065
    1UNL    C12   16   0.141   0.011   0.113
    1UNL     N2   17   0.125   0.130   0.055
    1UNL    C13   18   0.230   0.165  -0.027
    1UNL    C14   19   0.249   0.270  -0.120
    1UNL    C15   20   0.356   0.262  -0.210
    1UNL    C16   21   0.446   0.153  -0.209
    1UNL    C17   22   0.426   0.048  -0.123
    1UNL    C18   23   0.318   0.054  -0.030
    1UNL    C19   24   0.048  -0.069   0.194
    1UNL    C20   25  -0.088  -0.005   0.187
    1UNL    C21   26  -0.143  -0.028   0.050
    1UNL     H1   27  -0.294   0.439   0.022
    1UNL     H2   28  -0.341   0.363   0.178
    1UNL     H3   29  -0.465   0.434   0.064
    1UNL     H4   30  -0.460   0.028  -0.071
    1UNL     H5   31  -0.238  -0.305  -0.132
    1UNL     H6   32  -0.142  -0.022  -0.220
    1UNL     H7   33  -0.033  -0.162  -0.236
    1UNL     H8   34  -0.191  -0.135  -0.321
    1UNL     H9   35  -0.230  -0.224   0.090
    1UNL    H10   36   0.039  -0.206  -0.048
    1UNL    H11   37  -0.020  -0.355   0.002
    1UNL    H12   38   0.204  -0.365   0.152
    1UNL    H13   39   0.237  -0.242   0.280
    1UNL    H14   40   0.399  -0.213   0.114
    1UNL    H15   41   0.285  -0.240  -0.025
    1UNL    H16   42   0.042   0.190   0.074
    1UNL    H17   43   0.169   0.345  -0.127
    1UNL    H18   44   0.371   0.349  -0.275
    1UNL    H19   45   0.525   0.150  -0.282
    1UNL    H20   46   0.485  -0.038  -0.146
    1UNL    H21   47   0.083  -0.071   0.303
    1UNL    H22   48  -0.153  -0.060   0.252
    1UNL    H23   49  -0.094   0.100   0.215
    1UNL    H24   50  -0.060   0.009  -0.019
   0.00000   0.00000   0.00000   0.00000   0.00000   0.00000   0.00000   0.00000   0.00000
Generated with MDTraj, t= 94.0
 50
    1UNL     C1    1  -0.399   0.375   0.087
    1UNL     O1    2  -0.384   0.248   0.024
    1UNL     C2    3  -0.262   0.193   0.045
    1UNL     O2    4  -0.163   0.261   0.082
    1UNL     C3    5  -0.253   0.049   0.012
    1UNL     C4    6  -0.356  -0.002  -0.066
    1UNL     O3    7  -0.371  -0.130  -0.109
    1UNL     C5    8  -0.254  -0.217  -0.095
    1UNL     C6    9  -0.169  -0.216  -0.223
    1UNL     C7   10  -0.165  -0.179   0.032
    1UNL     C8   11  -0.032  -0.256   0.044
    1UNL     N1   12   0.054  -0.214   0.155
    1UNL     C9   13   0.194  -0.262   0.152
    1UNL    C10   14   0.290  -0.187   0.053
    1UNL    C11   15   0.253  -0.041   0.030
    1UNL    C12   16   0.148   0.007   0.099
    1UNL     N2   17   0.136   0.142   0.061
    1UNL    C13   18   0.230   0.166  -0.041
    1UNL    C14   19   0.266   0.282  -0.114
    1UNL    C15   20   0.389   0.287  -0.176
    1UNL    C16   21   0.468   0.176  -0.175
    1UNL    C17   22   0.435   0.060  -0.113
    1UNL    C18   23   0.314   0.056  -0.050
    1UNL    C19   24   0.057  -0.069   0.193
    1UNL    C20   25  -0.079  -0.004   0.188
    1UNL    C21   26  -0.129  -0.031   0.046
    1UNL     H1   27  -0.314   0.439   0.052
    1UNL     H2   28  -0.405   0.344   0.188
    1UNL     H3   29  -0.493   0.413   0.044
    1UNL     H4   30  -0.430   0.065  -0.099
    1UNL     H5   31  -0.290  -0.317  -0.077
    1UNL     H6   32  -0.127  -0.123  -0.241
    1UNL     H7   33  -0.085  -0.294  -0.216
    1UNL     H8   34  -0.233  -0.229  -0.310
    1UNL     H9   35  -0.218  -0.196   0.122
    1UNL    H10   36   0.023  -0.258  -0.049
    1UNL    H11   37  -0.049  -0.366   0.057
    1UNL    H12   38   0.202  -0.374   0.142
    1UNL    H13   39   0.243  -0.246   0.258
    1UNL    H14   40   0.392  -0.193   0.090
    1UNL    H15   41   0.286  -0.254  -0.043
    1UNL    H16   42   0.046   0.190   0.067
    1UNL    H17   43   0.204   0.363  -0.109
    1UNL    H18   44   0.428   0.378  -0.211
    1UNL    H19   45   0.562   0.182  -0.228
    1UNL    H20   46   0.490  -0.032  -0.118
    1UNL    H21   47   0.112  -0.063   0.292
    1UNL    H22   48  -0.146  -0.039   0.266
    1UNL    H23   49  -0.072   0.101   0.209
    1UNL    H24   50  -0.035  -0.001  -0.009
   0.00000   0.00000   0.00000   0.00000   0.00000   0.00000   0.00000   0.00000   0.00000
Generated with MDTraj, t= 95.0
 50
    1UNL     C1    1  -0.364   0.405   0.062
    1UNL     O1    2  -0.397   0.266   0.049
    1UNL     C2    3  -0.284   0.189   0.045
    1UNL     O2    4  -0.172   0.244   0.060
    1UNL     C3    5  -0.281   0.048   0.013
    1UNL     C4    6  -0.386  -0.019  -0.045
    1UNL     O3    7  -0.374  -0.146  -0.092
    1UNL     C5    8  -0.259  -0.231  -0.087
    1UNL     C6    9  -0.197  -0.263  -0.225
    1UNL     C7   10  -0.166  -0.181   0.030
    1UNL     C8   11  -0.017  -0.242   0.020
    1UNL     N1   12   0.064  -0.208   0.139
    1UNL     C9   13   0.200  -0.267   0.151
    1UNL    C10   14   0.294  -0.194   0.059
    1UNL    C11   15   0.253  -0.051   0.028
    1UNL    C12   16   0.152   0.012   0.093
    1UNL     N2   17   0.144   0.148   0.061
    1UNL    C13   18   0.250   0.182  -0.026
    1UNL    C14   19   0.294   0.304  -0.076
    1UNL    C15   20   0.401   0.300  -0.153
    1UNL    C16   21   0.480   0.182  -0.172
    1UNL    C17   22   0.439   0.061  -0.125
    1UNL    C18   23   0.316   0.057  -0.052
    1UNL    C19   24   0.058  -0.064   0.174
    1UNL    C20   25  -0.080  -0.002   0.172
    1UNL    C21   26  -0.153  -0.030   0.042
    1UNL     H1   27  -0.288   0.431  -0.022
    1UNL     H2   28  -0.345   0.419   0.168
    1UNL     H3   29  -0.461   0.453   0.034
    1UNL     H4   30  -0.476   0.035  -0.066
    1UNL     H5   31  -0.299  -0.327  -0.047
    1UNL     H6   32  -0.180  -0.176  -0.281
    1UNL     H7   33  -0.103  -0.320  -0.213
    1UNL     H8   34  -0.274  -0.320  -0.284
    1UNL     H9   35  -0.200  -0.214   0.125
    1UNL    H10   36   0.043  -0.224  -0.072
    1UNL    H11   37  -0.029  -0.349   0.011
    1UNL    H12   38   0.203  -0.379   0.139
    1UNL    H13   39   0.237  -0.256   0.262
    1UNL    H14   40   0.391  -0.200   0.111
    1UNL    H15   41   0.311  -0.251  -0.040
    1UNL    H16   42   0.044   0.187   0.056
    1UNL    H17   43   0.253   0.401  -0.034
    1UNL    H18   44   0.441   0.387  -0.206
    1UNL    H19   45   0.570   0.185  -0.233
    1UNL    H20   46   0.507  -0.023  -0.137
    1UNL    H21   47   0.107  -0.061   0.275
    1UNL    H22   48  -0.139  -0.032   0.258
    1UNL    H23   49  -0.070   0.102   0.193
    1UNL    H24   50  -0.074  -0.002  -0.034
   0.00000   0.00000   0.00000   0.00000   0.00000   0.00000   0.00000   0.00000   0.00000
Generated with MDTraj, t= 96.0
 50
    1UNL     C1    1  -0.380   0.388   0.047
    1UNL     O1    2  -0.390   0.246   0.010
    1UNL     C2    3  -0.271   0.179   0.023
    1UNL     O2    4  -0.163   0.237   0.048
    1UNL     C3    5  -0.270   0.036   0.014
    1UNL     C4    6  -0.378  -0.027  -0.039
    1UNL     O3    7  -0.399  -0.161  -0.043
    1UNL     C5    8  -0.276  -0.235  -0.076
    1UNL     C6    9  -0.233  -0.191  -0.213
    1UNL     C7   10  -0.170  -0.196   0.029
    1UNL     C8   11  -0.024  -0.254   0.019
    1UNL     N1   12   0.059  -0.208   0.131
    1UNL     C9   13   0.197  -0.267   0.123
    1UNL    C10   14   0.288  -0.182   0.031
    1UNL    C11   15   0.270  -0.037   0.042
    1UNL    C12   16   0.148   0.015   0.089
    1UNL     N2   17   0.148   0.155   0.058
    1UNL    C13   18   0.259   0.188  -0.007
    1UNL    C14   19   0.302   0.304  -0.082
    1UNL    C15   20   0.409   0.293  -0.163
    1UNL    C16   21   0.487   0.180  -0.167
    1UNL    C17   22   0.461   0.070  -0.090
    1UNL    C18   23   0.342   0.074  -0.017
    1UNL    C19   24   0.059  -0.063   0.177
    1UNL    C20   25  -0.086  -0.007   0.179
    1UNL    C21   26  -0.144  -0.041   0.044
    1UNL     H1   27  -0.355   0.435  -0.056
    1UNL     H2   28  -0.309   0.400   0.128
    1UNL     H3   29  -0.479   0.419   0.089
    1UNL     H4   30  -0.467   0.044  -0.043
    1UNL     H5   31  -0.309  -0.342  -0.063
    1UNL     H6   32  -0.193  -0.089  -0.216
    1UNL     H7   33  -0.167  -0.257  -0.260
    1UNL     H8   34  -0.330  -0.179  -0.272
    1UNL     H9   35  -0.220  -0.218   0.119
    1UNL    H10   36   0.020  -0.232  -0.082
    1UNL    H11   37  -0.022  -0.358   0.020
    1UNL    H12   38   0.184  -0.375   0.089
    1UNL    H13   39   0.242  -0.284   0.227
    1UNL    H14   40   0.396  -0.206   0.031
    1UNL    H15   41   0.254  -0.215  -0.073
    1UNL    H16   42   0.061   0.205   0.049
    1UNL    H17   43   0.253   0.396  -0.078
    1UNL    H18   44   0.427   0.373  -0.232
    1UNL    H19   45   0.562   0.173  -0.245
    1UNL    H20   46   0.524  -0.015  -0.085
    1UNL    H21   47   0.104  -0.066   0.277
    1UNL    H22   48  -0.146  -0.034   0.265
    1UNL    H23   49  -0.078   0.099   0.181
    1UNL    H24   50  -0.075  -0.015  -0.040
   0.00000   0.00000   0.00000   0.00000   0.00000   0.00000   0.00000   0.00000   0.00000
Generated with MDTraj, t= 97.0
 50
    1UNL     C1    1  -0.380   0.388  -0.000
    1UNL     O1    2  -0.393   0.247   0.015
    1UNL     C2    3  -0.276   0.184   0.030
    1UNL     O2    4  -0.167   0.246   0.025
    1UNL     C3    5  -0.279   0.040   0.039
    1UNL     C4    6  -0.392  -0.030   0.006
    1UNL     O3    7  -0.389  -0.162  -0.036
    1UNL     C5    8  -0.265  -0.210  -0.077
    1UNL     C6    9  -0.246  -0.151  -0.218
    1UNL     C7   10  -0.159  -0.185   0.029
    1UNL     C8   11  -0.015  -0.238   0.003
    1UNL     N1   12   0.062  -0.222   0.132
    1UNL     C9   13   0.200  -0.282   0.131
    1UNL    C10   14   0.311  -0.191   0.064
    1UNL    C11   15   0.271  -0.051   0.038
    1UNL    C12   16   0.161   0.002   0.085
    1UNL     N2   17   0.131   0.125   0.041
    1UNL    C13   18   0.242   0.162  -0.037
    1UNL    C14   19   0.275   0.292  -0.083
    1UNL    C15   20   0.400   0.309  -0.127
    1UNL    C16   21   0.486   0.203  -0.150
    1UNL    C17   22   0.463   0.074  -0.106
    1UNL    C18   23   0.336   0.053  -0.043
    1UNL    C19   24   0.072  -0.077   0.179
    1UNL    C20   25  -0.066  -0.007   0.181
    1UNL    C21   26  -0.145  -0.031   0.054
    1UNL     H1   27  -0.289   0.391  -0.067
    1UNL     H2   28  -0.377   0.438   0.093
    1UNL     H3   29  -0.475   0.417  -0.049
    1UNL     H4   30  -0.490   0.016  -0.000
    1UNL     H5   31  -0.264  -0.322  -0.088
    1UNL     H6   32  -0.274  -0.040  -0.221
    1UNL     H7   33  -0.151  -0.163  -0.257
    1UNL     H8   34  -0.328  -0.191  -0.284
    1UNL     H9   35  -0.195  -0.220   0.121
    1UNL    H10   36   0.032  -0.193  -0.089
    1UNL    H11   37  -0.019  -0.340  -0.018
    1UNL    H12   38   0.195  -0.373   0.061
    1UNL    H13   39   0.223  -0.330   0.230
    1UNL    H14   40   0.399  -0.193   0.133
    1UNL    H15   41   0.352  -0.231  -0.031
    1UNL    H16   42   0.034   0.163   0.026
    1UNL    H17   43   0.201   0.371  -0.077
    1UNL    H18   44   0.439   0.406  -0.156
    1UNL    H19   45   0.578   0.220  -0.204
    1UNL    H20   46   0.529  -0.013  -0.121
    1UNL    H21   47   0.116  -0.076   0.278
    1UNL    H22   48  -0.132  -0.035   0.262
    1UNL    H23   49  -0.059   0.099   0.192
    1UNL    H24   50  -0.091   0.004  -0.036
   0.00000   0.00000   0.00000   0.00000   0.00000   0.00000   0.00000   0.00000   0.00000
Generated with MDTraj, t= 98.0
 50
    1UNL     C1    1  -0.354   0.384  -0.018
    1UNL     O1    2  -0.380   0.246   0.004
    1UNL     C2    3  -0.269   0.183   0.053
    1UNL     O2    4  -0.166   0.250   0.077
    1UNL     C3    5  -0.276   0.033   0.051
    1UNL     C4    6  -0.393  -0.031   0.007
    1UNL     O3    7  -0.398  -0.157  -0.048
    1UNL     C5    8  -0.273  -0.211  -0.093
    1UNL     C6    9  -0.229  -0.151  -0.228
    1UNL     C7   10  -0.166  -0.197   0.024
    1UNL     C8   11  -0.027  -0.249   0.006
    1UNL     N1   12   0.071  -0.222   0.123
    1UNL     C9   13   0.218  -0.272   0.125
    1UNL    C10   14   0.316  -0.179   0.054
    1UNL    C11   15   0.270  -0.037   0.051
    1UNL    C12   16   0.149   0.008   0.097
    1UNL     N2   17   0.123   0.139   0.044
    1UNL    C13   18   0.232   0.179  -0.033
    1UNL    C14   19   0.270   0.290  -0.117
    1UNL    C15   20   0.402   0.295  -0.169
    1UNL    C16   21   0.490   0.189  -0.144
    1UNL    C17   22   0.447   0.074  -0.087
    1UNL    C18   23   0.325   0.067  -0.031
    1UNL    C19   24   0.066  -0.080   0.180
    1UNL    C20   25  -0.079  -0.023   0.191
    1UNL    C21   26  -0.146  -0.041   0.059
    1UNL     H1   27  -0.278   0.379  -0.098
    1UNL     H2   28  -0.315   0.429   0.066
    1UNL     H3   29  -0.450   0.426  -0.045
    1UNL     H4   30  -0.474   0.028  -0.020
    1UNL     H5   31  -0.289  -0.319  -0.114
    1UNL     H6   32  -0.217  -0.040  -0.221
    1UNL     H7   33  -0.128  -0.190  -0.254
    1UNL     H8   34  -0.304  -0.167  -0.305
    1UNL     H9   35  -0.211  -0.236   0.111
    1UNL    H10   36   0.028  -0.193  -0.073
    1UNL    H11   37  -0.030  -0.349  -0.027
    1UNL    H12   38   0.214  -0.377   0.077
    1UNL    H13   39   0.254  -0.290   0.227
    1UNL    H14   40   0.426  -0.181   0.084
    1UNL    H15   41   0.317  -0.212  -0.049
    1UNL    H16   42   0.034   0.189   0.056
    1UNL    H17   43   0.204   0.374  -0.144
    1UNL    H18   44   0.443   0.385  -0.211
    1UNL    H19   45   0.597   0.194  -0.161
    1UNL    H20   46   0.516  -0.007  -0.083
    1UNL    H21   47   0.107  -0.068   0.277
    1UNL    H22   48  -0.142  -0.068   0.267
    1UNL    H23   49  -0.081   0.084   0.208
    1UNL    H24   50  -0.077  -0.001  -0.017
   0.00000   0.00000   0.00000   0.00000   0.00000   0.00000   0.00000   0.00000   0.00000
Generated with MDTraj, t= 99.0
 50
    1UNL     C1    1  -0.348   0.406   0.026
    1UNL     O1    2  -0.368   0.271  -0.018
    1UNL     C2    3  -0.273   0.192   0.038
    1UNL     O2    4  -0.180   0.243   0.102
    1UNL     C3    5  -0.275   0.043   0.021
    1UNL     C4    6  -0.382  -0.029  -0.029
    1UNL     O3    7  -0.388  -0.160  -0.071
    1UNL     C5    8  -0.257  -0.230  -0.087
    1UNL     C6    9  -0.195  -0.182  -0.221
    1UNL     C7   10  -0.160  -0.193   0.033
    1UNL     C8   11  -0.022  -0.257   0.017
    1UNL     N1   12   0.063  -0.226   0.138
    1UNL     C9   13   0.206  -0.274   0.142
    1UNL    C10   14   0.309  -0.189   0.053
    1UNL    C11   15   0.272  -0.044   0.047
    1UNL    C12   16   0.158   0.011   0.104
    1UNL     N2   17   0.139   0.142   0.074
    1UNL    C13   18   0.244   0.175  -0.012
    1UNL    C14   19   0.259   0.291  -0.088
    1UNL    C15   20   0.367   0.294  -0.171
    1UNL    C16   21   0.455   0.187  -0.193
    1UNL    C17   22   0.433   0.071  -0.121
    1UNL    C18   23   0.325   0.069  -0.026
    1UNL    C19   24   0.061  -0.080   0.183
    1UNL    C20   25  -0.080  -0.010   0.175
    1UNL    C21   26  -0.145  -0.033   0.044
    1UNL     H1   27  -0.264   0.445  -0.033
    1UNL     H2   28  -0.317   0.418   0.125
    1UNL     H3   29  -0.446   0.452   0.019
    1UNL     H4   30  -0.475   0.028  -0.048
    1UNL     H5   31  -0.291  -0.333  -0.091
    1UNL     H6   32  -0.155  -0.079  -0.218
    1UNL     H7   33  -0.109  -0.249  -0.264
    1UNL     H8   34  -0.277  -0.183  -0.289
    1UNL     H9   35  -0.200  -0.229   0.121
    1UNL    H10   36   0.020  -0.210  -0.070
    1UNL    H11   37  -0.019  -0.361  -0.006
    1UNL    H12   38   0.220  -0.387   0.112
    1UNL    H13   39   0.234  -0.273   0.248
    1UNL    H14   40   0.416  -0.197   0.092
    1UNL    H15   41   0.316  -0.223  -0.047
    1UNL    H16   42   0.051   0.187   0.095
    1UNL    H17   43   0.199   0.375  -0.076
    1UNL    H18   44   0.395   0.386  -0.219
    1UNL    H19   45   0.536   0.189  -0.264
    1UNL    H20   46   0.488  -0.021  -0.133
    1UNL    H21   47   0.089  -0.082   0.285
    1UNL    H22   48  -0.143  -0.055   0.250
    1UNL    H23   49  -0.079   0.096   0.194
    1UNL    H24   50  -0.077  -0.010  -0.039
   0.00000   0.00000   0.00000   0.00000   0.00000   0.00000   0.00000   0.00000   0.00000
