133489-28-0
6
    1res  C1    1   -0.185   0.091  -0.043
    1res  C2    2   -0.162  -0.134   0.018
    1res  C3    3    0.028  -0.175  -0.098
    1res  C4    4    0.189  -0.091   0.037
    1res  C5    5    0.157   0.127  -0.016
    1res  C6    6   -0.026   0.182   0.104
  10.00000  10.00000  10.00000
