1TPCN03989
14
    1res  C1    1   -0.237   0.028   0.191
    1res  C2    2    0.035  -0.200   0.111
    1res  C3    3    0.005  -0.017  -0.159
    1res  C4    4    0.324   0.159  -0.148
    1res  C5    5    0.590   0.177   0.026
    1res  C6    6    0.323   0.200   0.203
    1res  C7    7    0.330  -0.154  -0.033
    1res  C8    8    0.666  -0.210  -0.012
    1res  C9    9   -0.178  -0.317  -0.031
    1res  C10   10   -0.362  -0.183   0.137
    1res  C11   11   -0.430  -0.184  -0.157
    1res  C12   12   -0.515   0.026  -0.056
    1res  C13   13   -0.533   0.305  -0.014
    1res  C14   14   -0.650   0.132   0.144
  10.00000  10.00000  10.00000
