[ moleculetype ]
; name        nrexcl
res           1

[ atoms ]
;    nr  type resnr resid  atom  cgnr     charge       mass
      1 SP3       1 res   C1        1      0.000     54.000
      2 SN6       1 res   C2        2      0.000     54.000
      3 SN6       1 res   C3        3      0.000     54.000
      4 TN4a      1 res   C4        4      0.000     36.000
      5 TP1       1 res   C5        5      0.000     36.000
      6 P4        1 res   C6        6      0.000     72.000
      7 SP2       1 res   C7        7      0.000     54.000

[ bonds ]
;  ai    aj   funct      b0(nm)        k
    1     2     1      0.36248    20000
    2     3     1      0.28119    20000
    2     4     1      0.27978    20000
    3     4     1      0.25459    20000
    3     7     1      0.27609    20000
    4     5     1      0.25378    20000
    5     6     1      0.24453    20000
