1TPCN05310
11
    1res  C1    1   -0.516   0.145  -0.140
    1res  C2    2   -0.295  -0.071   0.150
    1res  C3    3   -0.142  -0.059  -0.105
    1res  C4    4    0.018   0.074  -0.004
    1res  C5    5    0.259   0.089   0.029
    1res  C6    6    0.348   0.146  -0.218
    1res  C7    7    0.519   0.004   0.108
    1res  C8    8    0.746   0.031  -0.094
    1res  C9    9    0.545  -0.166  -0.136
    1res  C10   10    0.152  -0.157   0.092
    1res  C11   11   -0.658  -0.029   0.109
  10.00000  10.00000  10.00000
