1TPCN05271
13
    1res  C1    1    0.755   0.048   0.010
    1res  C2    2    0.517   0.049   0.039
    1res  C3    3    0.425   0.117  -0.170
    1res  C4    4    0.298  -0.129   0.004
    1res  C5    5    0.049   0.089   0.145
    1res  C6    6   -0.018  -0.093  -0.175
    1res  C7    7   -0.148  -0.108   0.053
    1res  C8    8   -0.410   0.076  -0.003
    1res  C9    9   -0.327   0.192  -0.222
    1res  C10   10   -0.433  -0.167  -0.175
    1res  C11   11   -0.646  -0.176  -0.040
    1res  C12   12   -0.676   0.049   0.032
    1res  C13   13   -0.316   0.010   0.204
  10.00000  10.00000  10.00000
