1TPCN04190
16
    1res  C1    1    1.199  -0.008   0.196
    1res  C2    2    0.942   0.009   0.058
    1res  C3    3    0.626   0.051   0.109
    1res  C4    4    0.217   0.131  -0.025
    1res  C5    5    0.045   0.104   0.169
    1res  C6    6   -0.192   0.001   0.162
    1res  C7    7   -0.270   0.203  -0.062
    1res  C8    8   -0.349  -0.073  -0.162
    1res  C9    9   -0.547  -0.157   0.123
    1res  C10   10   -0.587   0.116   0.055
    1res  C11   11   -0.848  -0.014  -0.021
    1res  C12   12   -0.773  -0.032  -0.294
    1res  C13   13   -0.071  -0.227   0.062
    1res  C14   14    0.294  -0.171   0.089
    1res  C15   15    0.958   0.022  -0.243
    1res  C16   16    1.258   0.004  -0.141
  10.00000  10.00000  10.00000
