[ moleculetype ]
; name        nrexcl
res           1

[ atoms ]
;    nr  type resnr resid  atom  cgnr     charge       mass
      1 C4        1 res   C1        1      0.000     72.000
      2 SN4a      1 res   C2        2      0.000     54.000
      3 SN6       1 res   C3        3      0.000     54.000
      4 TN6       1 res   C4        4      0.000     36.000
      5 TN4a      1 res   C5        5      0.000     36.000
      6 TN3r      1 res   C6        6      0.000     36.000
      7 SN4a      1 res   C7        7      0.000     54.000
      8 TP1       1 res   C8        8      0.000     36.000
      9 TN6       1 res   C9        9      0.000     36.000
     10 TN6       1 res   C10      10      0.000     36.000
     11 TN6       1 res   C11      11      0.000     36.000
     12 TN6       1 res   C12      12      0.000     36.000
     13 SC3       1 res   C13      13      0.000     54.000
     14 SC4       1 res   C14      14      0.000     54.000
     15 TC3       1 res   C15      15      0.000     36.000
     16 SC4       1 res   C16      16      0.000     54.000
     17 TC3       1 res   C17      17      0.000     36.000
     18 SC4       1 res   C18      18      0.000     54.000
     19 SC5       1 res   C19      19      0.000     54.000
     20 SC4       1 res   C20      20      0.000     54.000
     21 TN6       1 res   C21      21      0.000     36.000
     22 TN6       1 res   C22      22      0.000     36.000
     23 TN3r      1 res   C23      23      0.000     36.000
     24 SN4a      1 res   C24      24      0.000     54.000
     25 TN3r      1 res   C25      25      0.000     36.000
     26 SN4a      1 res   C26      26      0.000     54.000
     27 TP1       1 res   C27      27      0.000     36.000
     28 TN6       1 res   C28      28      0.000     36.000
     29 TN6       1 res   C29      29      0.000     36.000
     30 TN6       1 res   C30      30      0.000     36.000
     31 TN6       1 res   C31      31      0.000     36.000
     32 TN6       1 res   C32      32      0.000     36.000
     33 TN6       1 res   C33      33      0.000     36.000
     34 TC3       1 res   C34      34      0.000     36.000
     35 SC4       1 res   C35      35      0.000     54.000

[ bonds ]
;  ai    aj   funct      b0(nm)        k
    1     2     1      0.32213    20000
    2     3     1      0.32387    20000
    3     4     1      0.28889    20000
    3    12     1      0.24813    20000
    4     5     1      0.22997    20000
    5     6     1      0.21639    20000
    5    12     1      0.26459    20000
    6     7     1      0.35081    20000
    7     8     1      0.25633    20000
    7     9     1      0.27782    20000
    7    11     1      0.28649    20000
    9    10     1      0.26477    20000
   10    11     1      0.21310    20000
   12    13     1      0.34469    20000
   13    14     1      0.31335    20000
   13    35     1      0.33306    20000
   14    15     1      0.32747    20000
   14    16     1      0.41119    20000
   14    35     1      0.39797    20000
   15    16     1      0.30214    20000
   16    17     1      0.30915    20000
   16    18     1      0.35696    20000
   17    18     1      0.39611    20000
   18    19     1      0.33009    20000
   18    34     1      0.27147    20000
   19    20     1      0.27711    20000
   19    22     1      0.34227    20000
   19    23     1      0.30049    20000
   19    34     1      0.36885    20000
   20    21     1      0.27366    20000
   21    22     1      0.22813    20000
   23    24     1      0.30879    20000
   24    25     1      0.28337    20000
   24    31     1      0.30121    20000
   24    33     1      0.22764    20000
   25    26     1      0.32844    20000
   26    27     1      0.29247    20000
   26    28     1      0.29764    20000
   26    30     1      0.28405    20000
   28    29     1      0.25888    20000
   29    30     1      0.24004    20000
   31    32     1      0.23856    20000
   32    33     1      0.22984    20000
