[ moleculetype ]
; name        nrexcl
res           1

[ atoms ]
;    nr  type resnr resid  atom  cgnr     charge       mass
      1 TC5       1 res   C1        1      0.000     36.000
      2 SN3r      1 res   C2        2      0.000     54.000
      3 SN4a      1 res   C3        3      0.000     54.000
      4 SC4       1 res   C4        4      0.000     54.000
      5 TN4a      1 res   C5        5      0.000     36.000
      6 SC4       1 res   C6        6      0.000     54.000
      7 TC3       1 res   C7        7      0.000     36.000
      8 TP1d      1 res   C8        8      0.000     36.000
      9 TN6a      1 res   C9        9      0.000     36.000

[ bonds ]
;  ai    aj   funct      b0(nm)        k
    1     2     1      0.26394    20000
    1     8     1      0.28528    20000
    2     3     1      0.39094    20000
    2     4     1      0.32304    20000
    4     5     1      0.31218    20000
    4     9     1      0.24258    20000
    5     6     1      0.35206    20000
    5     9     1      0.27605    20000
    6     7     1      0.27888    20000
    7     8     1      0.26025    20000
