1TPCN00693
24
    1res  C1    1   -0.140  -0.087   0.165
    1res  C2    2   -0.246  -0.122  -0.080
    1res  C3    3   -0.508  -0.252   0.076
    1res  C4    4   -0.642  -0.335   0.336
    1res  C5    5   -0.740  -0.304  -0.024
    1res  C6    6   -0.637  -0.060  -0.044
    1res  C7    7   -0.660   0.216  -0.001
    1res  C8    8   -0.681   0.470   0.159
    1res  C9    9   -0.906   0.308  -0.062
    1res  C10   10   -0.865   0.080   0.106
    1res  C11   11   -0.244  -0.025  -0.334
    1res  C12   12   -0.086   0.040  -0.179
    1res  C13   13    0.030  -0.004  -0.427
    1res  C14   14    0.120  -0.039  -0.129
    1res  C15   15    0.306  -0.191  -0.376
    1res  C16   16    0.350  -0.117  -0.162
    1res  C17   17    0.354   0.031  -0.001
    1res  C18   18    0.513  -0.081  -0.102
    1res  C19   19    0.707   0.022   0.035
    1res  C20   20    1.040  -0.029   0.155
    1res  C21   21    0.922   0.114   0.370
    1res  C22   22    1.104   0.251   0.151
    1res  C23   23    1.124   0.057  -0.078
    1res  C24   24    0.727  -0.172  -0.190
  10.00000  10.00000  10.00000
