Generated with MDTraj, t= 0.0
 49
    1UNL     C1    1  -0.382   0.092  -0.232
    1UNL     C2    2  -0.285   0.057  -0.126
    1UNL     C3    3  -0.307   0.074   0.004
    1UNL     C4    4  -0.438   0.126   0.055
    1UNL     O1    5  -0.526   0.025   0.098
    1UNL     C5    6  -0.206   0.031   0.107
    1UNL     C6    7  -0.063   0.086   0.077
    1UNL     C7    8   0.030  -0.022   0.021
    1UNL     C8    9   0.165   0.030  -0.022
    1UNL     N1   10   0.191   0.143  -0.097
    1UNL     C9   11   0.328   0.151  -0.117
    1UNL    C10   12   0.407   0.244  -0.185
    1UNL    C11   13   0.542   0.226  -0.189
    1UNL    C12   14   0.602   0.116  -0.125
    1UNL    C13   15   0.527   0.023  -0.058
    1UNL    C14   16   0.388   0.040  -0.053
    1UNL    C15   17   0.282  -0.036   0.006
    1UNL    C16   18   0.288  -0.161   0.087
    1UNL    C17   19   0.171  -0.165   0.185
    1UNL     N2   20   0.042  -0.131   0.122
    1UNL    C18   21  -0.074  -0.180   0.180
    1UNL     O2   22  -0.071  -0.270   0.262
    1UNL    C19   23  -0.208  -0.123   0.139
    1UNL    C20   24  -0.264  -0.212   0.027
    1UNL     O3   25  -0.273  -0.347   0.067
    1UNL     H1   26  -0.478   0.042  -0.216
    1UNL     H2   27  -0.400   0.199  -0.236
    1UNL     H3   28  -0.347   0.061  -0.331
    1UNL     H4   29  -0.190   0.018  -0.157
    1UNL     H5   30  -0.488   0.188  -0.021
    1UNL     H6   31  -0.421   0.192   0.141
    1UNL     H7   32  -0.543  -0.039   0.025
    1UNL     H8   33  -0.237   0.081   0.201
    1UNL     H9   34  -0.069   0.171   0.009
    1UNL    H10   35  -0.017   0.125   0.169
    1UNL    H11   36  -0.016  -0.068  -0.067
    1UNL    H12   37   0.122   0.209  -0.133
    1UNL    H13   38   0.360   0.328  -0.233
    1UNL    H14   39   0.604   0.297  -0.241
    1UNL    H15   40   0.709   0.104  -0.130
    1UNL    H16   41   0.572  -0.062  -0.010
    1UNL    H17   42   0.285  -0.247   0.020
    1UNL    H18   43   0.384  -0.166   0.140
    1UNL    H19   44   0.187  -0.094   0.267
    1UNL    H20   45   0.160  -0.264   0.231
    1UNL    H21   46  -0.275  -0.139   0.225
    1UNL    H22   47  -0.199  -0.208  -0.061
    1UNL    H23   48  -0.364  -0.180  -0.005
    1UNL    H24   49  -0.206  -0.362   0.138
   0.00000   0.00000   0.00000   0.00000   0.00000   0.00000   0.00000   0.00000   0.00000
Generated with MDTraj, t= 1.0
 49
    1UNL     C1    1  -0.381   0.111  -0.223
    1UNL     C2    2  -0.292   0.074  -0.113
    1UNL     C3    3  -0.318   0.072   0.015
    1UNL     C4    4  -0.447   0.135   0.077
    1UNL     O1    5  -0.561   0.058   0.069
    1UNL     C5    6  -0.215   0.023   0.109
    1UNL     C6    7  -0.066   0.084   0.093
    1UNL     C7    8   0.032  -0.015   0.032
    1UNL     C8    9   0.161   0.034  -0.012
    1UNL     N1   10   0.183   0.138  -0.108
    1UNL     C9   11   0.323   0.150  -0.125
    1UNL    C10   12   0.406   0.224  -0.215
    1UNL    C11   13   0.541   0.199  -0.214
    1UNL    C12   14   0.605   0.114  -0.121
    1UNL    C13   15   0.523   0.037  -0.040
    1UNL    C14   16   0.383   0.049  -0.047
    1UNL    C15   17   0.281  -0.028   0.021
    1UNL    C16   18   0.289  -0.149   0.103
    1UNL    C17   19   0.166  -0.177   0.187
    1UNL     N2   20   0.043  -0.142   0.125
    1UNL    C18   21  -0.069  -0.183   0.184
    1UNL     O2   22  -0.063  -0.268   0.270
    1UNL    C19   23  -0.206  -0.134   0.130
    1UNL    C20   24  -0.253  -0.227   0.013
    1UNL     O3   25  -0.210  -0.360   0.039
    1UNL     H1   26  -0.485   0.095  -0.191
    1UNL     H2   27  -0.366   0.213  -0.253
    1UNL     H3   28  -0.360   0.049  -0.306
    1UNL     H4   29  -0.187   0.043  -0.133
    1UNL     H5   30  -0.458   0.221   0.013
    1UNL     H6   31  -0.418   0.163   0.180
    1UNL     H7   32  -0.558  -0.005   0.000
    1UNL     H8   33  -0.252   0.051   0.208
    1UNL     H9   34  -0.069   0.173   0.023
    1UNL    H10   35  -0.024   0.114   0.189
    1UNL    H11   36  -0.010  -0.061  -0.061
    1UNL    H12   37   0.108   0.146  -0.177
    1UNL    H13   38   0.368   0.290  -0.288
    1UNL    H14   39   0.602   0.244  -0.290
    1UNL    H15   40   0.710   0.111  -0.101
    1UNL    H16   41   0.565  -0.031   0.028
    1UNL    H17   42   0.295  -0.234   0.036
    1UNL    H18   43   0.376  -0.157   0.169
    1UNL    H19   44   0.170  -0.120   0.284
    1UNL    H20   45   0.160  -0.279   0.217
    1UNL    H21   46  -0.289  -0.160   0.198
    1UNL    H22   47  -0.202  -0.202  -0.080
    1UNL    H23   48  -0.351  -0.244  -0.025
    1UNL    H24   49  -0.157  -0.362   0.123
   0.00000   0.00000   0.00000   0.00000   0.00000   0.00000   0.00000   0.00000   0.00000
Generated with MDTraj, t= 2.0
 49
    1UNL     C1    1  -0.388   0.141  -0.213
    1UNL     C2    2  -0.293   0.068  -0.119
    1UNL     C3    3  -0.308   0.062   0.013
    1UNL     C4    4  -0.429   0.121   0.083
    1UNL     O1    5  -0.549   0.057   0.045
    1UNL     C5    6  -0.201   0.016   0.109
    1UNL     C6    7  -0.063   0.079   0.076
    1UNL     C7    8   0.035  -0.031   0.037
    1UNL     C8    9   0.169   0.020  -0.009
    1UNL     N1   10   0.185   0.124  -0.106
    1UNL     C9   11   0.320   0.135  -0.131
    1UNL    C10   12   0.387   0.224  -0.213
    1UNL    C11   13   0.523   0.216  -0.223
    1UNL    C12   14   0.583   0.114  -0.149
    1UNL    C13   15   0.521   0.031  -0.057
    1UNL    C14   16   0.385   0.043  -0.043
    1UNL    C15   17   0.286  -0.029   0.034
    1UNL    C16   18   0.301  -0.135   0.138
    1UNL    C17   19   0.172  -0.144   0.233
    1UNL     N2   20   0.048  -0.131   0.150
    1UNL    C18   21  -0.072  -0.190   0.185
    1UNL     O2   22  -0.077  -0.279   0.269
    1UNL    C19   23  -0.199  -0.138   0.119
    1UNL    C20   24  -0.230  -0.213  -0.006
    1UNL     O3   25  -0.243  -0.356   0.012
    1UNL     H1   26  -0.488   0.131  -0.176
    1UNL     H2   27  -0.362   0.243  -0.233
    1UNL     H3   28  -0.385   0.092  -0.307
    1UNL     H4   29  -0.213   0.019  -0.165
    1UNL     H5   30  -0.432   0.229   0.071
    1UNL     H6   31  -0.419   0.097   0.192
    1UNL     H7   32  -0.581  -0.004   0.110
    1UNL     H8   33  -0.223   0.036   0.213
    1UNL     H9   34  -0.075   0.161  -0.003
    1UNL    H10   35  -0.015   0.124   0.166
    1UNL    H11   36  -0.001  -0.097  -0.048
    1UNL    H12   37   0.113   0.190  -0.140
    1UNL    H13   38   0.321   0.288  -0.279
    1UNL    H14   39   0.591   0.284  -0.274
    1UNL    H15   40   0.694   0.094  -0.154
    1UNL    H16   41   0.571  -0.042   0.015
    1UNL    H17   42   0.314  -0.236   0.099
    1UNL    H18   43   0.387  -0.117   0.204
    1UNL    H19   44   0.168  -0.063   0.311
    1UNL    H20   45   0.159  -0.233   0.287
    1UNL    H21   46  -0.281  -0.161   0.191
    1UNL    H22   47  -0.169  -0.210  -0.097
    1UNL    H23   48  -0.320  -0.173  -0.034
    1UNL    H24   49  -0.210  -0.371   0.103
   0.00000   0.00000   0.00000   0.00000   0.00000   0.00000   0.00000   0.00000   0.00000
Generated with MDTraj, t= 3.0
 49
    1UNL     C1    1  -0.401   0.129  -0.195
    1UNL     C2    2  -0.298   0.068  -0.106
    1UNL     C3    3  -0.311   0.069   0.026
    1UNL     C4    4  -0.442   0.109   0.083
    1UNL     O1    5  -0.555   0.040   0.021
    1UNL     C5    6  -0.202   0.021   0.122
    1UNL     C6    7  -0.059   0.075   0.102
    1UNL     C7    8   0.030  -0.023   0.031
    1UNL     C8    9   0.166   0.036  -0.014
    1UNL     N1   10   0.189   0.130  -0.117
    1UNL     C9   11   0.325   0.133  -0.133
    1UNL    C10   12   0.403   0.213  -0.221
    1UNL    C11   13   0.541   0.199  -0.220
    1UNL    C12   14   0.612   0.108  -0.136
    1UNL    C13   15   0.538   0.035  -0.047
    1UNL    C14   16   0.399   0.049  -0.043
    1UNL    C15   17   0.290  -0.009   0.036
    1UNL    C16   18   0.297  -0.120   0.128
    1UNL    C17   19   0.167  -0.136   0.209
    1UNL     N2   20   0.046  -0.130   0.121
    1UNL    C18   21  -0.068  -0.196   0.172
    1UNL     O2   22  -0.067  -0.295   0.246
    1UNL    C19   23  -0.207  -0.137   0.134
    1UNL    C20   24  -0.253  -0.212   0.009
    1UNL     O3   25  -0.257  -0.354   0.037
    1UNL     H1   26  -0.486   0.070  -0.205
    1UNL     H2   27  -0.436   0.226  -0.171
    1UNL     H3   28  -0.360   0.136  -0.295
    1UNL     H4   29  -0.216   0.018  -0.165
    1UNL     H5   30  -0.470   0.208   0.051
    1UNL     H6   31  -0.455   0.111   0.194
    1UNL     H7   32  -0.645   0.091   0.029
    1UNL     H8   33  -0.229   0.056   0.220
    1UNL     H9   34  -0.057   0.171   0.041
    1UNL    H10   35  -0.015   0.101   0.205
    1UNL    H11   36  -0.022  -0.059  -0.065
    1UNL    H12   37   0.134   0.217  -0.127
    1UNL    H13   38   0.356   0.277  -0.285
    1UNL    H14   39   0.590   0.252  -0.298
    1UNL    H15   40   0.714   0.100  -0.130
    1UNL    H16   41   0.575  -0.030   0.023
    1UNL    H17   42   0.321  -0.219   0.086
    1UNL    H18   43   0.371  -0.111   0.209
    1UNL    H19   44   0.152  -0.055   0.285
    1UNL    H20   45   0.151  -0.225   0.261
    1UNL    H21   46  -0.265  -0.164   0.224
    1UNL    H22   47  -0.187  -0.184  -0.071
    1UNL    H23   48  -0.348  -0.194  -0.024
    1UNL    H24   49  -0.215  -0.373   0.125
   0.00000   0.00000   0.00000   0.00000   0.00000   0.00000   0.00000   0.00000   0.00000
Generated with MDTraj, t= 4.0
 49
    1UNL     C1    1  -0.387   0.101  -0.203
    1UNL     C2    2  -0.287   0.086  -0.094
    1UNL     C3    3  -0.318   0.077   0.033
    1UNL     C4    4  -0.458   0.097   0.086
    1UNL     O1    5  -0.562   0.036   0.012
    1UNL     C5    6  -0.205   0.033   0.130
    1UNL     C6    7  -0.066   0.087   0.078
    1UNL     C7    8   0.033  -0.013   0.022
    1UNL     C8    9   0.169   0.039  -0.021
    1UNL     N1   10   0.196   0.140  -0.110
    1UNL     C9   11   0.327   0.144  -0.132
    1UNL    C10   12   0.411   0.212  -0.223
    1UNL    C11   13   0.547   0.192  -0.216
    1UNL    C12   14   0.608   0.108  -0.117
    1UNL    C13   15   0.531   0.039  -0.027
    1UNL    C14   16   0.388   0.060  -0.036
    1UNL    C15   17   0.287  -0.014   0.025
    1UNL    C16   18   0.303  -0.137   0.101
    1UNL    C17   19   0.178  -0.169   0.181
    1UNL     N2   20   0.050  -0.126   0.120
    1UNL    C18   21  -0.065  -0.188   0.171
    1UNL     O2   22  -0.060  -0.296   0.226
    1UNL    C19   23  -0.200  -0.128   0.150
    1UNL    C20   24  -0.272  -0.205   0.041
    1UNL     O3   25  -0.273  -0.345   0.060
    1UNL     H1   26  -0.432   0.008  -0.222
    1UNL     H2   27  -0.467   0.167  -0.190
    1UNL     H3   28  -0.337   0.125  -0.293
    1UNL     H4   29  -0.194   0.060  -0.134
    1UNL     H5   30  -0.479   0.198   0.123
    1UNL     H6   31  -0.476   0.039   0.181
    1UNL     H7   32  -0.518  -0.040  -0.045
    1UNL     H8   33  -0.230   0.094   0.216
    1UNL     H9   34  -0.089   0.172   0.006
    1UNL    H10   35  -0.016   0.140   0.171
    1UNL    H11   36  -0.019  -0.056  -0.071
    1UNL    H12   37   0.131   0.154  -0.190
    1UNL    H13   38   0.363   0.282  -0.297
    1UNL    H14   39   0.618   0.232  -0.288
    1UNL    H15   40   0.719   0.088  -0.105
    1UNL    H16   41   0.571  -0.024   0.057
    1UNL    H17   42   0.320  -0.224   0.035
    1UNL    H18   43   0.390  -0.135   0.168
    1UNL    H19   44   0.169  -0.100   0.267
    1UNL    H20   45   0.166  -0.263   0.226
    1UNL    H21   46  -0.260  -0.144   0.240
    1UNL    H22   47  -0.229  -0.183  -0.055
    1UNL    H23   48  -0.366  -0.165   0.034
    1UNL    H24   49  -0.218  -0.377   0.135
   0.00000   0.00000   0.00000   0.00000   0.00000   0.00000   0.00000   0.00000   0.00000
Generated with MDTraj, t= 5.0
 49
    1UNL     C1    1  -0.391   0.120  -0.221
    1UNL     C2    2  -0.280   0.087  -0.118
    1UNL     C3    3  -0.303   0.070   0.011
    1UNL     C4    4  -0.439   0.107   0.071
    1UNL     O1    5  -0.534   0.024   0.017
    1UNL     C5    6  -0.200   0.024   0.112
    1UNL     C6    7  -0.056   0.080   0.084
    1UNL     C7    8   0.040  -0.030   0.033
    1UNL     C8    9   0.172   0.023  -0.011
    1UNL     N1   10   0.190   0.134  -0.096
    1UNL     C9   11   0.326   0.148  -0.123
    1UNL    C10   12   0.400   0.249  -0.190
    1UNL    C11   13   0.536   0.237  -0.200
    1UNL    C12   14   0.604   0.127  -0.131
    1UNL    C13   15   0.530   0.022  -0.076
    1UNL    C14   16   0.390   0.038  -0.059
    1UNL    C15   17   0.291  -0.040   0.007
    1UNL    C16   18   0.306  -0.154   0.103
    1UNL    C17   19   0.180  -0.160   0.193
    1UNL     N2   20   0.053  -0.145   0.124
    1UNL    C18   21  -0.068  -0.185   0.185
    1UNL     O2   22  -0.068  -0.269   0.269
    1UNL    C19   23  -0.202  -0.131   0.138
    1UNL    C20   24  -0.278  -0.222   0.033
    1UNL     O3   25  -0.312  -0.347   0.081
    1UNL     H1   26  -0.387   0.048  -0.298
    1UNL     H2   27  -0.490   0.111  -0.184
    1UNL     H3   28  -0.373   0.214  -0.261
    1UNL     H4   29  -0.179   0.087  -0.160
    1UNL     H5   30  -0.463   0.209   0.042
    1UNL     H6   31  -0.428   0.111   0.184
    1UNL     H7   32  -0.618   0.027   0.068
    1UNL     H8   33  -0.232   0.083   0.199
    1UNL     H9   34  -0.065   0.166   0.009
    1UNL    H10   35  -0.022   0.129   0.185
    1UNL    H11   36  -0.005  -0.070  -0.065
    1UNL    H12   37   0.112   0.187  -0.138
    1UNL    H13   38   0.359   0.327  -0.251
    1UNL    H14   39   0.600   0.301  -0.258
    1UNL    H15   40   0.708   0.132  -0.133
    1UNL    H16   41   0.572  -0.066  -0.029
    1UNL    H17   42   0.327  -0.248   0.048
    1UNL    H18   43   0.392  -0.139   0.170
    1UNL    H19   44   0.179  -0.081   0.269
    1UNL    H20   45   0.172  -0.245   0.254
    1UNL    H21   46  -0.279  -0.145   0.214
    1UNL    H22   47  -0.213  -0.228  -0.054
    1UNL    H23   48  -0.362  -0.176  -0.005
    1UNL    H24   49  -0.243  -0.408   0.118
   0.00000   0.00000   0.00000   0.00000   0.00000   0.00000   0.00000   0.00000   0.00000
Generated with MDTraj, t= 6.0
 49
    1UNL     C1    1  -0.342   0.128  -0.236
    1UNL     C2    2  -0.263   0.059  -0.126
    1UNL     C3    3  -0.297   0.073   0.001
    1UNL     C4    4  -0.434   0.111   0.047
    1UNL     O1    5  -0.531   0.009   0.043
    1UNL     C5    6  -0.201   0.032   0.112
    1UNL     C6    7  -0.053   0.081   0.086
    1UNL     C7    8   0.025  -0.036   0.022
    1UNL     C8    9   0.156   0.019  -0.035
    1UNL     N1   10   0.180   0.140  -0.101
    1UNL     C9   11   0.319   0.147  -0.112
    1UNL    C10   12   0.388   0.253  -0.163
    1UNL    C11   13   0.526   0.242  -0.171
    1UNL    C12   14   0.588   0.121  -0.136
    1UNL    C13   15   0.522   0.024  -0.073
    1UNL    C14   16   0.383   0.036  -0.055
    1UNL    C15   17   0.277  -0.049  -0.010
    1UNL    C16   18   0.280  -0.178   0.060
    1UNL    C17   19   0.169  -0.172   0.173
    1UNL     N2   20   0.041  -0.138   0.121
    1UNL    C18   21  -0.071  -0.178   0.196
    1UNL     O2   22  -0.066  -0.254   0.291
    1UNL    C19   23  -0.202  -0.117   0.149
    1UNL    C20   24  -0.262  -0.212   0.046
    1UNL     O3   25  -0.276  -0.340   0.093
    1UNL     H1   26  -0.273   0.142  -0.313
    1UNL     H2   27  -0.422   0.074  -0.280
    1UNL     H3   28  -0.366   0.224  -0.203
    1UNL     H4   29  -0.172   0.007  -0.154
    1UNL     H5   30  -0.455   0.191  -0.024
    1UNL     H6   31  -0.418   0.154   0.149
    1UNL     H7   32  -0.592   0.010   0.113
    1UNL     H8   33  -0.235   0.085   0.207
    1UNL     H9   34  -0.056   0.174   0.018
    1UNL    H10   35   0.002   0.111   0.184
    1UNL    H11   36  -0.024  -0.093  -0.066
    1UNL    H12   37   0.112   0.219  -0.099
    1UNL    H13   38   0.333   0.333  -0.203
    1UNL    H14   39   0.578   0.322  -0.220
    1UNL    H15   40   0.699   0.112  -0.131
    1UNL    H16   41   0.574  -0.062  -0.046
    1UNL    H17   42   0.268  -0.265  -0.008
    1UNL    H18   43   0.379  -0.177   0.109
    1UNL    H19   44   0.197  -0.107   0.253
    1UNL    H20   45   0.159  -0.269   0.217
    1UNL    H21   46  -0.268  -0.127   0.234
    1UNL    H22   47  -0.197  -0.206  -0.046
    1UNL    H23   48  -0.353  -0.182   0.006
    1UNL    H24   49  -0.206  -0.363   0.158
   0.00000   0.00000   0.00000   0.00000   0.00000   0.00000   0.00000   0.00000   0.00000
Generated with MDTraj, t= 7.0
 49
    1UNL     C1    1  -0.344   0.085  -0.241
    1UNL     C2    2  -0.250   0.076  -0.121
    1UNL     C3    3  -0.290   0.083   0.006
    1UNL     C4    4  -0.440   0.110   0.027
    1UNL     O1    5  -0.522  -0.007   0.046
    1UNL     C5    6  -0.211   0.044   0.127
    1UNL     C6    7  -0.061   0.087   0.101
    1UNL     C7    8   0.022  -0.013   0.023
    1UNL     C8    9   0.150   0.029  -0.039
    1UNL     N1   10   0.181   0.148  -0.091
    1UNL     C9   11   0.321   0.151  -0.122
    1UNL    C10   12   0.404   0.258  -0.159
    1UNL    C11   13   0.541   0.235  -0.161
    1UNL    C12   14   0.592   0.117  -0.119
    1UNL    C13   15   0.513   0.015  -0.068
    1UNL    C14   16   0.377   0.031  -0.066
    1UNL    C15   17   0.269  -0.045  -0.019
    1UNL    C16   18   0.265  -0.187   0.038
    1UNL    C17   19   0.158  -0.197   0.147
    1UNL     N2   20   0.037  -0.131   0.114
    1UNL    C18   21  -0.075  -0.168   0.192
    1UNL     O2   22  -0.059  -0.254   0.279
    1UNL    C19   23  -0.212  -0.106   0.164
    1UNL    C20   24  -0.271  -0.203   0.065
    1UNL     O3   25  -0.241  -0.341   0.095
    1UNL     H1   26  -0.300   0.059  -0.332
    1UNL     H2   27  -0.434   0.029  -0.243
    1UNL     H3   28  -0.364   0.187  -0.255
    1UNL     H4   29  -0.152   0.055  -0.151
    1UNL     H5   30  -0.482   0.167  -0.055
    1UNL     H6   31  -0.445   0.177   0.116
    1UNL     H7   32  -0.522  -0.034   0.139
    1UNL     H8   33  -0.265   0.095   0.214
    1UNL     H9   34  -0.052   0.189   0.045
    1UNL    H10   35  -0.003   0.098   0.199
    1UNL    H11   36  -0.042  -0.056  -0.063
    1UNL    H12   37   0.123   0.233  -0.106
    1UNL    H13   38   0.357   0.355  -0.195
    1UNL    H14   39   0.607   0.315  -0.192
    1UNL    H15   40   0.696   0.105  -0.106
    1UNL    H16   41   0.553  -0.072  -0.004
    1UNL    H17   42   0.228  -0.248  -0.048
    1UNL    H18   43   0.362  -0.218   0.078
    1UNL    H19   44   0.199  -0.148   0.231
    1UNL    H20   45   0.135  -0.299   0.176
    1UNL    H21   46  -0.255  -0.118   0.264
    1UNL    H22   47  -0.255  -0.190  -0.046
    1UNL    H23   48  -0.374  -0.178   0.072
    1UNL    H24   49  -0.202  -0.342   0.184
   0.00000   0.00000   0.00000   0.00000   0.00000   0.00000   0.00000   0.00000   0.00000
Generated with MDTraj, t= 8.0
 49
    1UNL     C1    1  -0.388   0.076  -0.231
    1UNL     C2    2  -0.277   0.072  -0.128
    1UNL     C3    3  -0.310   0.073   0.002
    1UNL     C4    4  -0.450   0.102   0.048
    1UNL     O1    5  -0.522  -0.023   0.057
    1UNL     C5    6  -0.207   0.040   0.110
    1UNL     C6    7  -0.066   0.086   0.072
    1UNL     C7    8   0.035  -0.016   0.024
    1UNL     C8    9   0.171   0.032  -0.018
    1UNL     N1   10   0.201   0.160  -0.061
    1UNL     C9   11   0.336   0.162  -0.099
    1UNL    C10   12   0.422   0.263  -0.138
    1UNL    C11   13   0.557   0.236  -0.167
    1UNL    C12   14   0.604   0.112  -0.133
    1UNL    C13   15   0.525   0.010  -0.094
    1UNL    C14   16   0.386   0.033  -0.077
    1UNL    C15   17   0.276  -0.054  -0.028
    1UNL    C16   18   0.275  -0.191   0.047
    1UNL    C17   19   0.173  -0.178   0.163
    1UNL     N2   20   0.043  -0.127   0.123
    1UNL    C18   21  -0.069  -0.162   0.193
    1UNL     O2   22  -0.056  -0.240   0.286
    1UNL    C19   23  -0.211  -0.109   0.148
    1UNL    C20   24  -0.271  -0.203   0.041
    1UNL     O3   25  -0.299  -0.336   0.092
    1UNL     H1   26  -0.369   0.023  -0.317
    1UNL     H2   27  -0.482   0.044  -0.203
    1UNL     H3   28  -0.388   0.177  -0.264
    1UNL     H4   29  -0.176   0.052  -0.170
    1UNL     H5   30  -0.492   0.171  -0.025
    1UNL     H6   31  -0.466   0.144   0.150
    1UNL     H7   32  -0.605  -0.034  -0.006
    1UNL     H8   33  -0.255   0.086   0.202
    1UNL     H9   34  -0.062   0.158  -0.018
    1UNL    H10   35  -0.011   0.136   0.157
    1UNL    H11   36  -0.013  -0.065  -0.068
    1UNL    H12   37   0.139   0.241  -0.082
    1UNL    H13   38   0.387   0.356  -0.166
    1UNL    H14   39   0.611   0.308  -0.225
    1UNL    H15   40   0.712   0.105  -0.147
    1UNL    H16   41   0.572  -0.077  -0.064
    1UNL    H17   42   0.231  -0.264  -0.024
    1UNL    H18   43   0.374  -0.223   0.085
    1UNL    H19   44   0.206  -0.115   0.239
    1UNL    H20   45   0.165  -0.274   0.213
    1UNL    H21   46  -0.275  -0.127   0.234
    1UNL    H22   47  -0.201  -0.211  -0.047
    1UNL    H23   48  -0.362  -0.186  -0.018
    1UNL    H24   49  -0.249  -0.338   0.177
   0.00000   0.00000   0.00000   0.00000   0.00000   0.00000   0.00000   0.00000   0.00000
Generated with MDTraj, t= 9.0
 49
    1UNL     C1    1  -0.417   0.085  -0.223
    1UNL     C2    2  -0.306   0.062  -0.127
    1UNL     C3    3  -0.323   0.061   0.003
    1UNL     C4    4  -0.453   0.092   0.061
    1UNL     O1    5  -0.546  -0.010   0.060
    1UNL     C5    6  -0.205   0.042   0.093
    1UNL     C6    7  -0.067   0.099   0.040
    1UNL     C7    8   0.034  -0.017   0.008
    1UNL     C8    9   0.170   0.041  -0.026
    1UNL     N1   10   0.213   0.170  -0.063
    1UNL     C9   11   0.349   0.166  -0.093
    1UNL    C10   12   0.440   0.258  -0.143
    1UNL    C11   13   0.564   0.223  -0.166
    1UNL    C12   14   0.610   0.093  -0.143
    1UNL    C13   15   0.530   0.001  -0.082
    1UNL    C14   16   0.393   0.039  -0.052
    1UNL    C15   17   0.286  -0.032  -0.005
    1UNL    C16   18   0.284  -0.165   0.061
    1UNL    C17   19   0.173  -0.170   0.164
    1UNL     N2   20   0.041  -0.121   0.117
    1UNL    C18   21  -0.068  -0.171   0.183
    1UNL     O2   22  -0.065  -0.265   0.264
    1UNL    C19   23  -0.200  -0.116   0.144
    1UNL    C20   24  -0.273  -0.210   0.052
    1UNL     O3   25  -0.286  -0.337   0.104
    1UNL     H1   26  -0.376   0.132  -0.307
    1UNL     H2   27  -0.473   0.005  -0.256
    1UNL     H3   28  -0.473   0.165  -0.184
    1UNL     H4   29  -0.210   0.044  -0.165
    1UNL     H5   30  -0.505   0.181   0.026
    1UNL     H6   31  -0.430   0.113   0.167
    1UNL     H7   32  -0.533  -0.065  -0.028
    1UNL     H8   33  -0.233   0.106   0.182
    1UNL     H9   34  -0.087   0.160  -0.053
    1UNL    H10   35  -0.011   0.162   0.116
    1UNL    H11   36  -0.009  -0.077  -0.079
    1UNL    H12   37   0.155   0.256  -0.070
    1UNL    H13   38   0.411   0.360  -0.170
    1UNL    H14   39   0.623   0.289  -0.227
    1UNL    H15   40   0.713   0.073  -0.164
    1UNL    H16   41   0.571  -0.099  -0.060
    1UNL    H17   42   0.285  -0.253  -0.009
    1UNL    H18   43   0.378  -0.148   0.116
    1UNL    H19   44   0.203  -0.126   0.253
    1UNL    H20   45   0.153  -0.270   0.204
    1UNL    H21   46  -0.265  -0.119   0.234
    1UNL    H22   47  -0.234  -0.229  -0.054
    1UNL    H23   48  -0.377  -0.177   0.028
    1UNL    H24   49  -0.201  -0.351   0.151
   0.00000   0.00000   0.00000   0.00000   0.00000   0.00000   0.00000   0.00000   0.00000
Generated with MDTraj, t= 10.0
 49
    1UNL     C1    1  -0.424   0.082  -0.220
    1UNL     C2    2  -0.305   0.054  -0.128
    1UNL     C3    3  -0.317   0.062   0.007
    1UNL     C4    4  -0.449   0.103   0.072
    1UNL     O1    5  -0.560   0.016   0.064
    1UNL     C5    6  -0.205   0.038   0.109
    1UNL     C6    7  -0.063   0.093   0.074
    1UNL     C7    8   0.034  -0.011   0.022
    1UNL     C8    9   0.172   0.040  -0.032
    1UNL     N1   10   0.208   0.152  -0.101
    1UNL     C9   11   0.346   0.150  -0.116
    1UNL    C10   12   0.433   0.247  -0.178
    1UNL    C11   13   0.565   0.223  -0.176
    1UNL    C12   14   0.621   0.112  -0.108
    1UNL    C13   15   0.542   0.020  -0.048
    1UNL    C14   16   0.399   0.040  -0.045
    1UNL    C15   17   0.286  -0.038  -0.010
    1UNL    C16   18   0.282  -0.167   0.059
    1UNL    C17   19   0.173  -0.166   0.170
    1UNL     N2   20   0.039  -0.121   0.116
    1UNL    C18   21  -0.075  -0.171   0.178
    1UNL     O2   22  -0.068  -0.269   0.255
    1UNL    C19   23  -0.204  -0.116   0.148
    1UNL    C20   24  -0.273  -0.211   0.048
    1UNL     O3   25  -0.274  -0.351   0.077
    1UNL     H1   26  -0.402   0.169  -0.272
    1UNL     H2   27  -0.452   0.013  -0.292
    1UNL     H3   28  -0.501   0.112  -0.162
    1UNL     H4   29  -0.205   0.030  -0.166
    1UNL     H5   30  -0.471   0.197   0.024
    1UNL     H6   31  -0.440   0.130   0.180
    1UNL     H7   32  -0.542  -0.044  -0.013
    1UNL     H8   33  -0.227   0.096   0.202
    1UNL     H9   34  -0.078   0.166  -0.008
    1UNL    H10   35  -0.036   0.138   0.175
    1UNL    H11   36  -0.012  -0.054  -0.074
    1UNL    H12   37   0.146   0.231  -0.121
    1UNL    H13   38   0.385   0.323  -0.238
    1UNL    H14   39   0.635   0.294  -0.219
    1UNL    H15   40   0.729   0.118  -0.109
    1UNL    H16   41   0.592  -0.060   0.011
    1UNL    H17   42   0.252  -0.245  -0.015
    1UNL    H18   43   0.378  -0.189   0.107
    1UNL    H19   44   0.194  -0.104   0.249
    1UNL    H20   45   0.166  -0.259   0.223
    1UNL    H21   46  -0.261  -0.117   0.245
    1UNL    H22   47  -0.215  -0.198  -0.051
    1UNL    H23   48  -0.378  -0.174   0.026
    1UNL    H24   49  -0.200  -0.363   0.144
   0.00000   0.00000   0.00000   0.00000   0.00000   0.00000   0.00000   0.00000   0.00000
Generated with MDTraj, t= 11.0
 49
    1UNL     C1    1  -0.391   0.084  -0.212
    1UNL     C2    2  -0.284   0.063  -0.116
    1UNL     C3    3  -0.297   0.073   0.016
    1UNL     C4    4  -0.420   0.125   0.075
    1UNL     O1    5  -0.543   0.048   0.060
    1UNL     C5    6  -0.197   0.029   0.113
    1UNL     C6    7  -0.047   0.077   0.068
    1UNL     C7    8   0.033  -0.035   0.008
    1UNL     C8    9   0.165   0.006  -0.037
    1UNL     N1   10   0.183   0.117  -0.117
    1UNL     C9   11   0.317   0.144  -0.127
    1UNL    C10   12   0.396   0.253  -0.181
    1UNL    C11   13   0.535   0.238  -0.172
    1UNL    C12   14   0.596   0.131  -0.102
    1UNL    C13   15   0.523   0.032  -0.049
    1UNL    C14   16   0.385   0.036  -0.055
    1UNL    C15   17   0.284  -0.047  -0.003
    1UNL    C16   18   0.297  -0.156   0.102
    1UNL    C17   19   0.168  -0.159   0.183
    1UNL     N2   20   0.043  -0.133   0.119
    1UNL    C18   21  -0.071  -0.179   0.180
    1UNL     O2   22  -0.069  -0.261   0.269
    1UNL    C19   23  -0.201  -0.125   0.139
    1UNL    C20   24  -0.241  -0.213   0.013
    1UNL     O3   25  -0.288  -0.347   0.049
    1UNL     H1   26  -0.390   0.185  -0.231
    1UNL     H2   27  -0.380   0.040  -0.306
    1UNL     H3   28  -0.480   0.066  -0.162
    1UNL     H4   29  -0.191   0.027  -0.157
    1UNL     H5   30  -0.444   0.226   0.047
    1UNL     H6   31  -0.403   0.127   0.186
    1UNL     H7   32  -0.582   0.015   0.138
    1UNL     H8   33  -0.207   0.097   0.197
    1UNL     H9   34  -0.064   0.155  -0.004
    1UNL    H10   35   0.014   0.114   0.157
    1UNL    H11   36  -0.022  -0.075  -0.083
    1UNL    H12   37   0.112   0.161  -0.175
    1UNL    H13   38   0.350   0.335  -0.234
    1UNL    H14   39   0.596   0.311  -0.222
    1UNL    H15   40   0.699   0.144  -0.071
    1UNL    H16   41   0.571  -0.035   0.009
    1UNL    H17   42   0.296  -0.254   0.052
    1UNL    H18   43   0.383  -0.141   0.166
    1UNL    H19   44   0.172  -0.091   0.261
    1UNL    H20   45   0.153  -0.249   0.240
    1UNL    H21   46  -0.260  -0.146   0.235
    1UNL    H22   47  -0.150  -0.214  -0.055
    1UNL    H23   48  -0.328  -0.162  -0.044
    1UNL    H24   49  -0.267  -0.381   0.139
   0.00000   0.00000   0.00000   0.00000   0.00000   0.00000   0.00000   0.00000   0.00000
Generated with MDTraj, t= 12.0
 49
    1UNL     C1    1  -0.385   0.126  -0.211
    1UNL     C2    2  -0.280   0.073  -0.122
    1UNL     C3    3  -0.301   0.079   0.012
    1UNL     C4    4  -0.418   0.140   0.074
    1UNL     O1    5  -0.546   0.073   0.045
    1UNL     C5    6  -0.193   0.017   0.108
    1UNL     C6    7  -0.049   0.070   0.066
    1UNL     C7    8   0.034  -0.055   0.011
    1UNL     C8    9   0.169  -0.002  -0.034
    1UNL     N1   10   0.185   0.106  -0.116
    1UNL     C9   11   0.322   0.125  -0.132
    1UNL    C10   12   0.378   0.227  -0.200
    1UNL    C11   13   0.508   0.252  -0.186
    1UNL    C12   14   0.590   0.165  -0.114
    1UNL    C13   15   0.529   0.058  -0.039
    1UNL    C14   16   0.390   0.044  -0.043
    1UNL    C15   17   0.291  -0.047   0.014
    1UNL    C16   18   0.302  -0.156   0.111
    1UNL    C17   19   0.173  -0.170   0.195
    1UNL     N2   20   0.047  -0.156   0.122
    1UNL    C18   21  -0.069  -0.195   0.185
    1UNL     O2   22  -0.069  -0.274   0.273
    1UNL    C19   23  -0.202  -0.130   0.141
    1UNL    C20   24  -0.271  -0.219   0.022
    1UNL     O3   25  -0.264  -0.362   0.051
    1UNL     H1   26  -0.402   0.223  -0.184
    1UNL     H2   27  -0.358   0.137  -0.308
    1UNL     H3   28  -0.477   0.078  -0.195
    1UNL     H4   29  -0.191   0.029  -0.162
    1UNL     H5   30  -0.417   0.243   0.039
    1UNL     H6   31  -0.406   0.149   0.184
    1UNL     H7   32  -0.616   0.136   0.026
    1UNL     H8   33  -0.209   0.071   0.201
    1UNL     H9   34  -0.046   0.144  -0.012
    1UNL    H10   35   0.004   0.115   0.153
    1UNL    H11   36  -0.018  -0.109  -0.073
    1UNL    H12   37   0.112   0.158  -0.162
    1UNL    H13   38   0.317   0.284  -0.270
    1UNL    H14   39   0.558   0.323  -0.251
    1UNL    H15   40   0.694   0.175  -0.102
    1UNL    H16   41   0.593  -0.005   0.030
    1UNL    H17   42   0.333  -0.247   0.057
    1UNL    H18   43   0.376  -0.126   0.186
    1UNL    H19   44   0.166  -0.108   0.280
    1UNL    H20   45   0.171  -0.267   0.239
    1UNL    H21   46  -0.272  -0.147   0.230
    1UNL    H22   47  -0.218  -0.202  -0.076
    1UNL    H23   48  -0.377  -0.173   0.010
    1UNL    H24   49  -0.220  -0.389   0.134
   0.00000   0.00000   0.00000   0.00000   0.00000   0.00000   0.00000   0.00000   0.00000
Generated with MDTraj, t= 13.0
 49
    1UNL     C1    1  -0.373   0.133  -0.201
    1UNL     C2    2  -0.283   0.069  -0.100
    1UNL     C3    3  -0.311   0.058   0.031
    1UNL     C4    4  -0.435   0.125   0.083
    1UNL     O1    5  -0.549   0.110   0.002
    1UNL     C5    6  -0.196   0.009   0.122
    1UNL     C6    7  -0.059   0.074   0.086
    1UNL     C7    8   0.029  -0.038   0.017
    1UNL     C8    9   0.157   0.018  -0.038
    1UNL     N1   10   0.182   0.114  -0.144
    1UNL     C9   11   0.319   0.131  -0.144
    1UNL    C10   12   0.396   0.218  -0.221
    1UNL    C11   13   0.534   0.226  -0.200
    1UNL    C12   14   0.592   0.152  -0.097
    1UNL    C13   15   0.521   0.058  -0.022
    1UNL    C14   16   0.381   0.060  -0.042
    1UNL    C15   17   0.276  -0.019   0.022
    1UNL    C16   18   0.302  -0.132   0.110
    1UNL    C17   19   0.177  -0.186   0.180
    1UNL     N2   20   0.043  -0.150   0.114
    1UNL    C18   21  -0.064  -0.203   0.182
    1UNL     O2   22  -0.049  -0.289   0.263
    1UNL    C19   23  -0.195  -0.144   0.144
    1UNL    C20   24  -0.264  -0.228   0.028
    1UNL     O3   25  -0.271  -0.363   0.070
    1UNL     H1   26  -0.351   0.234  -0.209
    1UNL     H2   27  -0.366   0.105  -0.299
    1UNL     H3   28  -0.472   0.134  -0.170
    1UNL     H4   29  -0.183   0.038  -0.136
    1UNL     H5   30  -0.412   0.232   0.078
    1UNL     H6   31  -0.453   0.101   0.189
    1UNL     H7   32  -0.555   0.009  -0.025
    1UNL     H8   33  -0.223   0.052   0.219
    1UNL     H9   34  -0.073   0.161   0.023
    1UNL    H10   35   0.003   0.111   0.169
    1UNL    H11   36  -0.025  -0.098  -0.064
    1UNL    H12   37   0.108   0.172  -0.182
    1UNL    H13   38   0.354   0.261  -0.309
    1UNL    H14   39   0.592   0.281  -0.271
    1UNL    H15   40   0.705   0.156  -0.079
    1UNL    H16   41   0.553  -0.000   0.065
    1UNL    H17   42   0.338  -0.218   0.051
    1UNL    H18   43   0.372  -0.100   0.187
    1UNL    H19   44   0.183  -0.153   0.281
    1UNL    H20   45   0.176  -0.291   0.187
    1UNL    H21   46  -0.264  -0.163   0.235
    1UNL    H22   47  -0.202  -0.214  -0.064
    1UNL    H23   48  -0.372  -0.196  -0.004
    1UNL    H24   49  -0.196  -0.374   0.134
   0.00000   0.00000   0.00000   0.00000   0.00000   0.00000   0.00000   0.00000   0.00000
Generated with MDTraj, t= 14.0
 49
    1UNL     C1    1  -0.361   0.125  -0.207
    1UNL     C2    2  -0.268   0.074  -0.108
    1UNL     C3    3  -0.299   0.065   0.021
    1UNL     C4    4  -0.429   0.123   0.067
    1UNL     O1    5  -0.548   0.084   0.011
    1UNL     C5    6  -0.202   0.015   0.116
    1UNL     C6    7  -0.060   0.062   0.093
    1UNL     C7    8   0.040  -0.032   0.029
    1UNL     C8    9   0.170   0.027  -0.009
    1UNL     N1   10   0.183   0.126  -0.105
    1UNL     C9   11   0.318   0.150  -0.131
    1UNL    C10   12   0.390   0.236  -0.217
    1UNL    C11   13   0.528   0.228  -0.226
    1UNL    C12   14   0.598   0.133  -0.139
    1UNL    C13   15   0.529   0.055  -0.051
    1UNL    C14   16   0.389   0.059  -0.041
    1UNL    C15   17   0.288  -0.022   0.033
    1UNL    C16   18   0.297  -0.144   0.125
    1UNL    C17   19   0.173  -0.160   0.207
    1UNL     N2   20   0.050  -0.143   0.126
    1UNL    C18   21  -0.073  -0.209   0.167
    1UNL     O2   22  -0.073  -0.306   0.237
    1UNL    C19   23  -0.203  -0.148   0.142
    1UNL    C20   24  -0.268  -0.225   0.031
    1UNL     O3   25  -0.290  -0.356   0.071
    1UNL     H1   26  -0.344   0.227  -0.220
    1UNL     H2   27  -0.351   0.089  -0.303
    1UNL     H3   28  -0.455   0.114  -0.164
    1UNL     H4   29  -0.181   0.030  -0.146
    1UNL     H5   30  -0.423   0.231   0.080
    1UNL     H6   31  -0.432   0.079   0.168
    1UNL     H7   32  -0.565  -0.019   0.017
    1UNL     H8   33  -0.237   0.049   0.216
    1UNL     H9   34  -0.068   0.149   0.029
    1UNL    H10   35  -0.033   0.105   0.187
    1UNL    H11   36  -0.004  -0.068  -0.070
    1UNL    H12   37   0.122   0.149  -0.181
    1UNL    H13   38   0.333   0.300  -0.285
    1UNL    H14   39   0.590   0.273  -0.300
    1UNL    H15   40   0.698   0.131  -0.119
    1UNL    H16   41   0.575  -0.010   0.017
    1UNL    H17   42   0.293  -0.230   0.058
    1UNL    H18   43   0.384  -0.144   0.192
    1UNL    H19   44   0.165  -0.077   0.274
    1UNL    H20   45   0.174  -0.248   0.266
    1UNL    H21   46  -0.257  -0.170   0.242
    1UNL    H22   47  -0.216  -0.237  -0.066
    1UNL    H23   48  -0.371  -0.179   0.005
    1UNL    H24   49  -0.209  -0.370   0.125
   0.00000   0.00000   0.00000   0.00000   0.00000   0.00000   0.00000   0.00000   0.00000
Generated with MDTraj, t= 15.0
 49
    1UNL     C1    1  -0.357   0.111  -0.225
    1UNL     C2    2  -0.262   0.063  -0.114
    1UNL     C3    3  -0.297   0.062   0.016
    1UNL     C4    4  -0.431   0.116   0.054
    1UNL     O1    5  -0.547   0.036   0.025
    1UNL     C5    6  -0.200   0.026   0.120
    1UNL     C6    7  -0.059   0.083   0.116
    1UNL     C7    8   0.035  -0.014   0.051
    1UNL     C8    9   0.164   0.042   0.008
    1UNL     N1   10   0.185   0.146  -0.082
    1UNL     C9   11   0.313   0.145  -0.124
    1UNL    C10   12   0.389   0.243  -0.190
    1UNL    C11   13   0.524   0.222  -0.209
    1UNL    C12   14   0.588   0.103  -0.159
    1UNL    C13   15   0.518   0.016  -0.081
    1UNL    C14   16   0.382   0.046  -0.059
    1UNL    C15   17   0.287  -0.023   0.022
    1UNL    C16   18   0.300  -0.142   0.112
    1UNL    C17   19   0.176  -0.158   0.205
    1UNL     N2   20   0.047  -0.130   0.135
    1UNL    C18   21  -0.071  -0.197   0.174
    1UNL     O2   22  -0.065  -0.302   0.235
    1UNL    C19   23  -0.203  -0.137   0.140
    1UNL    C20   24  -0.260  -0.206   0.017
    1UNL     O3   25  -0.285  -0.341   0.053
    1UNL     H1   26  -0.375   0.213  -0.217
    1UNL     H2   27  -0.328   0.104  -0.325
    1UNL     H3   28  -0.448   0.063  -0.206
    1UNL     H4   29  -0.157   0.046  -0.145
    1UNL     H5   30  -0.436   0.203  -0.010
    1UNL     H6   31  -0.441   0.159   0.154
    1UNL     H7   32  -0.553  -0.045   0.080
    1UNL     H8   33  -0.245   0.062   0.217
    1UNL     H9   34  -0.076   0.179   0.069
    1UNL    H10   35  -0.023   0.110   0.211
    1UNL    H11   36  -0.017  -0.046  -0.046
    1UNL    H12   37   0.113   0.212  -0.108
    1UNL    H13   38   0.336   0.327  -0.228
    1UNL    H14   39   0.583   0.300  -0.258
    1UNL    H15   40   0.700   0.092  -0.170
    1UNL    H16   41   0.555  -0.073  -0.020
    1UNL    H17   42   0.321  -0.231   0.054
    1UNL    H18   43   0.387  -0.120   0.174
    1UNL    H19   44   0.175  -0.093   0.291
    1UNL    H20   45   0.163  -0.252   0.250
    1UNL    H21   46  -0.269  -0.162   0.229
    1UNL    H22   47  -0.194  -0.208  -0.069
    1UNL    H23   48  -0.364  -0.174  -0.025
    1UNL    H24   49  -0.213  -0.362   0.118
   0.00000   0.00000   0.00000   0.00000   0.00000   0.00000   0.00000   0.00000   0.00000
Generated with MDTraj, t= 16.0
 49
    1UNL     C1    1  -0.357   0.094  -0.221
    1UNL     C2    2  -0.258   0.073  -0.111
    1UNL     C3    3  -0.302   0.076   0.015
    1UNL     C4    4  -0.441   0.104   0.042
    1UNL     O1    5  -0.537  -0.005   0.037
    1UNL     C5    6  -0.209   0.034   0.124
    1UNL     C6    7  -0.061   0.099   0.111
    1UNL     C7    8   0.024  -0.006   0.044
    1UNL     C8    9   0.158   0.055   0.002
    1UNL     N1   10   0.195   0.170  -0.063
    1UNL     C9   11   0.327   0.158  -0.096
    1UNL    C10   12   0.400   0.244  -0.175
    1UNL    C11   13   0.523   0.205  -0.216
    1UNL    C12   14   0.585   0.088  -0.158
    1UNL    C13   15   0.517   0.003  -0.070
    1UNL    C14   16   0.382   0.043  -0.041
    1UNL    C15   17   0.271  -0.026   0.012
    1UNL    C16   18   0.274  -0.166   0.055
    1UNL    C17   19   0.175  -0.179   0.172
    1UNL     N2   20   0.041  -0.129   0.124
    1UNL    C18   21  -0.072  -0.175   0.188
    1UNL     O2   22  -0.076  -0.269   0.265
    1UNL    C19   23  -0.206  -0.119   0.142
    1UNL    C20   24  -0.248  -0.201   0.018
    1UNL     O3   25  -0.247  -0.348   0.043
    1UNL     H1   26  -0.387   0.194  -0.234
    1UNL     H2   27  -0.330   0.064  -0.317
    1UNL     H3   28  -0.443   0.042  -0.192
    1UNL     H4   29  -0.152   0.076  -0.128
    1UNL     H5   30  -0.492   0.185  -0.009
    1UNL     H6   31  -0.437   0.143   0.144
    1UNL     H7   32  -0.540  -0.051   0.118
    1UNL     H8   33  -0.249   0.075   0.221
    1UNL     H9   34  -0.052   0.191   0.054
    1UNL    H10   35  -0.021   0.133   0.201
    1UNL    H11   36  -0.022  -0.043  -0.054
    1UNL    H12   37   0.140   0.253  -0.052
    1UNL    H13   38   0.357   0.335  -0.216
    1UNL    H14   39   0.573   0.262  -0.291
    1UNL    H15   40   0.691   0.071  -0.186
    1UNL    H16   41   0.560  -0.079  -0.021
    1UNL    H17   42   0.250  -0.232  -0.027
    1UNL    H18   43   0.376  -0.188   0.085
    1UNL    H19   44   0.199  -0.133   0.269
    1UNL    H20   45   0.156  -0.276   0.205
    1UNL    H21   46  -0.290  -0.140   0.214
    1UNL    H22   47  -0.185  -0.182  -0.066
    1UNL    H23   48  -0.357  -0.169  -0.008
    1UNL    H24   49  -0.192  -0.368   0.121
   0.00000   0.00000   0.00000   0.00000   0.00000   0.00000   0.00000   0.00000   0.00000
Generated with MDTraj, t= 17.0
 49
    1UNL     C1    1  -0.385   0.113  -0.221
    1UNL     C2    2  -0.278   0.083  -0.120
    1UNL     C3    3  -0.313   0.074   0.011
    1UNL     C4    4  -0.456   0.089   0.052
    1UNL     O1    5  -0.537  -0.026   0.039
    1UNL     C5    6  -0.210   0.036   0.115
    1UNL     C6    7  -0.062   0.106   0.083
    1UNL     C7    8   0.034  -0.002   0.039
    1UNL     C8    9   0.175   0.035  -0.006
    1UNL     N1   10   0.202   0.158  -0.052
    1UNL     C9   11   0.333   0.163  -0.096
    1UNL    C10   12   0.416   0.262  -0.145
    1UNL    C11   13   0.549   0.230  -0.179
    1UNL    C12   14   0.596   0.097  -0.163
    1UNL    C13   15   0.518  -0.001  -0.108
    1UNL    C14   16   0.386   0.028  -0.071
    1UNL    C15   17   0.282  -0.050  -0.017
    1UNL    C16   18   0.280  -0.185   0.061
    1UNL    C17   19   0.163  -0.189   0.165
    1UNL     N2   20   0.040  -0.112   0.142
    1UNL    C18   21  -0.078  -0.163   0.196
    1UNL     O2   22  -0.095  -0.244   0.288
    1UNL    C19   23  -0.209  -0.115   0.136
    1UNL    C20   24  -0.245  -0.211   0.021
    1UNL     O3   25  -0.242  -0.352   0.059
    1UNL     H1   26  -0.425   0.211  -0.217
    1UNL     H2   27  -0.364   0.094  -0.322
    1UNL     H3   28  -0.463   0.048  -0.193
    1UNL     H4   29  -0.174   0.079  -0.145
    1UNL     H5   30  -0.500   0.159  -0.017
    1UNL     H6   31  -0.481   0.137   0.147
    1UNL     H7   32  -0.533  -0.079   0.116
    1UNL     H8   33  -0.236   0.088   0.212
    1UNL     H9   34  -0.061   0.184   0.012
    1UNL    H10   35  -0.013   0.156   0.161
    1UNL    H11   36   0.001  -0.055  -0.057
    1UNL    H12   37   0.133   0.224  -0.085
    1UNL    H13   38   0.384   0.362  -0.162
    1UNL    H14   39   0.613   0.297  -0.236
    1UNL    H15   40   0.691   0.070  -0.187
    1UNL    H16   41   0.562  -0.100  -0.092
    1UNL    H17   42   0.262  -0.268  -0.004
    1UNL    H18   43   0.371  -0.202   0.119
    1UNL    H19   44   0.199  -0.146   0.261
    1UNL    H20   45   0.135  -0.284   0.195
    1UNL    H21   46  -0.283  -0.121   0.220
    1UNL    H22   47  -0.165  -0.192  -0.045
    1UNL    H23   48  -0.345  -0.175  -0.021
    1UNL    H24   49  -0.190  -0.373   0.140
   0.00000   0.00000   0.00000   0.00000   0.00000   0.00000   0.00000   0.00000   0.00000
Generated with MDTraj, t= 18.0
 49
    1UNL     C1    1  -0.402   0.112  -0.203
    1UNL     C2    2  -0.290   0.073  -0.123
    1UNL     C3    3  -0.309   0.071   0.009
    1UNL     C4    4  -0.455   0.089   0.059
    1UNL     O1    5  -0.552  -0.014   0.029
    1UNL     C5    6  -0.204   0.040   0.111
    1UNL     C6    7  -0.064   0.098   0.071
    1UNL     C7    8   0.024  -0.011   0.011
    1UNL     C8    9   0.159   0.036  -0.039
    1UNL     N1   10   0.199   0.166  -0.068
    1UNL     C9   11   0.337   0.157  -0.087
    1UNL    C10   12   0.424   0.257  -0.138
    1UNL    C11   13   0.557   0.215  -0.159
    1UNL    C12   14   0.603   0.093  -0.125
    1UNL    C13   15   0.519  -0.002  -0.082
    1UNL    C14   16   0.383   0.031  -0.061
    1UNL    C15   17   0.272  -0.048  -0.026
    1UNL    C16   18   0.275  -0.175   0.044
    1UNL    C17   19   0.177  -0.158   0.164
    1UNL     N2   20   0.043  -0.119   0.117
    1UNL    C18   21  -0.065  -0.167   0.186
    1UNL     O2   22  -0.046  -0.246   0.280
    1UNL    C19   23  -0.200  -0.118   0.147
    1UNL    C20   24  -0.241  -0.220   0.030
    1UNL     O3   25  -0.273  -0.343   0.078
    1UNL     H1   26  -0.446   0.204  -0.173
    1UNL     H2   27  -0.380   0.113  -0.306
    1UNL     H3   28  -0.472   0.034  -0.179
    1UNL     H4   29  -0.189   0.052  -0.162
    1UNL     H5   30  -0.498   0.183   0.034
    1UNL     H6   31  -0.447   0.089   0.169
    1UNL     H7   32  -0.548  -0.087   0.096
    1UNL     H8   33  -0.227   0.100   0.204
    1UNL     H9   34  -0.070   0.179   0.007
    1UNL    H10   35  -0.009   0.136   0.151
    1UNL    H11   36  -0.025  -0.052  -0.084
    1UNL    H12   37   0.143   0.241  -0.106
    1UNL    H13   38   0.380   0.349  -0.176
    1UNL    H14   39   0.618   0.289  -0.204
    1UNL    H15   40   0.714   0.066  -0.143
    1UNL    H16   41   0.550  -0.104  -0.058
    1UNL    H17   42   0.232  -0.255  -0.012
    1UNL    H18   43   0.371  -0.200   0.087
    1UNL    H19   44   0.217  -0.080   0.234
    1UNL    H20   45   0.168  -0.247   0.218
    1UNL    H21   46  -0.259  -0.129   0.240
    1UNL    H22   47  -0.164  -0.222  -0.041
    1UNL    H23   48  -0.339  -0.181  -0.012
    1UNL    H24   49  -0.214  -0.381   0.147
   0.00000   0.00000   0.00000   0.00000   0.00000   0.00000   0.00000   0.00000   0.00000
Generated with MDTraj, t= 19.0
 49
    1UNL     C1    1  -0.412   0.092  -0.212
    1UNL     C2    2  -0.306   0.067  -0.115
    1UNL     C3    3  -0.316   0.055   0.018
    1UNL     C4    4  -0.455   0.089   0.080
    1UNL     O1    5  -0.570   0.029   0.024
    1UNL     C5    6  -0.194   0.040   0.115
    1UNL     C6    7  -0.062   0.089   0.065
    1UNL     C7    8   0.033  -0.018   0.003
    1UNL     C8    9   0.169   0.030  -0.040
    1UNL     N1   10   0.205   0.150  -0.105
    1UNL     C9   11   0.347   0.152  -0.122
    1UNL    C10   12   0.429   0.252  -0.165
    1UNL    C11   13   0.559   0.246  -0.138
    1UNL    C12   14   0.615   0.128  -0.090
    1UNL    C13   15   0.536   0.016  -0.065
    1UNL    C14   16   0.396   0.028  -0.065
    1UNL    C15   17   0.284  -0.046  -0.016
    1UNL    C16   18   0.278  -0.182   0.040
    1UNL    C17   19   0.173  -0.183   0.155
    1UNL     N2   20   0.043  -0.123   0.112
    1UNL    C18   21  -0.066  -0.172   0.179
    1UNL     O2   22  -0.060  -0.272   0.250
    1UNL    C19   23  -0.198  -0.112   0.161
    1UNL    C20   24  -0.270  -0.206   0.054
    1UNL     O3   25  -0.276  -0.336   0.103
    1UNL     H1   26  -0.428   0.193  -0.239
    1UNL     H2   27  -0.394   0.030  -0.298
    1UNL     H3   28  -0.503   0.057  -0.166
    1UNL     H4   29  -0.207   0.078  -0.145
    1UNL     H5   30  -0.466   0.193   0.059
    1UNL     H6   31  -0.456   0.078   0.191
    1UNL     H7   32  -0.557  -0.074   0.030
    1UNL     H8   33  -0.221   0.099   0.206
    1UNL     H9   34  -0.079   0.163  -0.005
    1UNL    H10   35  -0.013   0.137   0.145
    1UNL    H11   36  -0.026  -0.071  -0.077
    1UNL    H12   37   0.145   0.233  -0.102
    1UNL    H13   38   0.388   0.335  -0.218
    1UNL    H14   39   0.626   0.327  -0.161
    1UNL    H15   40   0.718   0.125  -0.064
    1UNL    H16   41   0.585  -0.071  -0.035
    1UNL    H17   42   0.253  -0.252  -0.036
    1UNL    H18   43   0.373  -0.200   0.089
    1UNL    H19   44   0.210  -0.135   0.248
    1UNL    H20   45   0.159  -0.285   0.182
    1UNL    H21   46  -0.261  -0.123   0.251
    1UNL    H22   47  -0.215  -0.220  -0.034
    1UNL    H23   48  -0.373  -0.172   0.025
    1UNL    H24   49  -0.199  -0.347   0.164
   0.00000   0.00000   0.00000   0.00000   0.00000   0.00000   0.00000   0.00000   0.00000
Generated with MDTraj, t= 20.0
 49
    1UNL     C1    1  -0.398   0.091  -0.206
    1UNL     C2    2  -0.288   0.053  -0.128
    1UNL     C3    3  -0.298   0.067   0.003
    1UNL     C4    4  -0.420   0.129   0.069
    1UNL     O1    5  -0.543   0.060   0.048
    1UNL     C5    6  -0.191   0.024   0.104
    1UNL     C6    7  -0.057   0.059   0.046
    1UNL     C7    8   0.039  -0.052  -0.012
    1UNL     C8    9   0.169   0.011  -0.041
    1UNL     N1   10   0.189   0.139  -0.102
    1UNL     C9   11   0.328   0.165  -0.108
    1UNL    C10   12   0.410   0.268  -0.164
    1UNL    C11   13   0.544   0.259  -0.148
    1UNL    C12   14   0.605   0.143  -0.099
    1UNL    C13   15   0.532   0.042  -0.048
    1UNL    C14   16   0.390   0.053  -0.047
    1UNL    C15   17   0.284  -0.041  -0.010
    1UNL    C16   18   0.288  -0.173   0.058
    1UNL    C17   19   0.170  -0.192   0.154
    1UNL     N2   20   0.042  -0.160   0.093
    1UNL    C18   21  -0.066  -0.190   0.172
    1UNL     O2   22  -0.056  -0.276   0.257
    1UNL    C19   23  -0.201  -0.127   0.154
    1UNL    C20   24  -0.285  -0.210   0.057
    1UNL     O3   25  -0.300  -0.341   0.120
    1UNL     H1   26  -0.416   0.197  -0.220
    1UNL     H2   27  -0.395   0.041  -0.303
    1UNL     H3   28  -0.486   0.051  -0.156
    1UNL     H4   29  -0.189   0.022  -0.168
    1UNL     H5   30  -0.444   0.227   0.033
    1UNL     H6   31  -0.401   0.129   0.181
    1UNL     H7   32  -0.618   0.131   0.034
    1UNL     H8   33  -0.216   0.079   0.194
    1UNL     H9   34  -0.073   0.140  -0.018
    1UNL    H10   35   0.001   0.097   0.123
    1UNL    H11   36  -0.015  -0.109  -0.093
    1UNL    H12   37   0.118   0.205  -0.138
    1UNL    H13   38   0.368   0.354  -0.213
    1UNL    H14   39   0.608   0.337  -0.182
    1UNL    H15   40   0.710   0.142  -0.096
    1UNL    H16   41   0.579  -0.051  -0.009
    1UNL    H17   42   0.274  -0.246  -0.018
    1UNL    H18   43   0.382  -0.183   0.107
    1UNL    H19   44   0.186  -0.117   0.235
    1UNL    H20   45   0.162  -0.288   0.202
    1UNL    H21   46  -0.260  -0.142   0.244
    1UNL    H22   47  -0.243  -0.212  -0.038
    1UNL    H23   48  -0.389  -0.172   0.042
    1UNL    H24   49  -0.218  -0.341   0.175
   0.00000   0.00000   0.00000   0.00000   0.00000   0.00000   0.00000   0.00000   0.00000
Generated with MDTraj, t= 21.0
 49
    1UNL     C1    1  -0.376   0.073  -0.231
    1UNL     C2    2  -0.284   0.034  -0.129
    1UNL     C3    3  -0.300   0.064   0.001
    1UNL     C4    4  -0.407   0.165   0.039
    1UNL     O1    5  -0.532   0.110   0.075
    1UNL     C5    6  -0.195   0.016   0.111
    1UNL     C6    7  -0.050   0.065   0.081
    1UNL     C7    8   0.033  -0.046   0.014
    1UNL     C8    9   0.161   0.013  -0.036
    1UNL     N1   10   0.181   0.129  -0.106
    1UNL     C9   11   0.315   0.152  -0.126
    1UNL    C10   12   0.389   0.270  -0.164
    1UNL    C11   13   0.524   0.264  -0.151
    1UNL    C12   14   0.594   0.162  -0.090
    1UNL    C13   15   0.529   0.048  -0.054
    1UNL    C14   16   0.388   0.043  -0.070
    1UNL    C15   17   0.286  -0.046  -0.010
    1UNL    C16   18   0.299  -0.170   0.067
    1UNL    C17   19   0.181  -0.191   0.163
    1UNL     N2   20   0.048  -0.153   0.116
    1UNL    C18   21  -0.061  -0.205   0.172
    1UNL     O2   22  -0.058  -0.304   0.242
    1UNL    C19   23  -0.198  -0.131   0.144
    1UNL    C20   24  -0.283  -0.214   0.050
    1UNL     O3   25  -0.313  -0.345   0.111
    1UNL     H1   26  -0.417   0.176  -0.218
    1UNL     H2   27  -0.331   0.056  -0.331
    1UNL     H3   28  -0.458   0.004  -0.218
    1UNL     H4   29  -0.200  -0.023  -0.159
    1UNL     H5   30  -0.426   0.237  -0.040
    1UNL     H6   31  -0.383   0.220   0.138
    1UNL     H7   32  -0.511   0.035   0.129
    1UNL     H8   33  -0.234   0.059   0.200
    1UNL     H9   34  -0.055   0.150   0.016
    1UNL    H10   35  -0.002   0.095   0.168
    1UNL    H11   36  -0.022  -0.089  -0.072
    1UNL    H12   37   0.108   0.175  -0.164
    1UNL    H13   38   0.331   0.355  -0.196
    1UNL    H14   39   0.581   0.355  -0.177
    1UNL    H15   40   0.710   0.170  -0.076
    1UNL    H16   41   0.579  -0.025   0.001
    1UNL    H17   42   0.296  -0.245  -0.009
    1UNL    H18   43   0.390  -0.181   0.121
    1UNL    H19   44   0.187  -0.139   0.261
    1UNL    H20   45   0.175  -0.297   0.189
    1UNL    H21   46  -0.246  -0.153   0.239
    1UNL    H22   47  -0.240  -0.232  -0.043
    1UNL    H23   48  -0.378  -0.166   0.021
    1UNL    H24   49  -0.232  -0.363   0.165
   0.00000   0.00000   0.00000   0.00000   0.00000   0.00000   0.00000   0.00000   0.00000
Generated with MDTraj, t= 22.0
 49
    1UNL     C1    1  -0.360   0.050  -0.235
    1UNL     C2    2  -0.277   0.011  -0.121
    1UNL     C3    3  -0.281   0.060   0.004
    1UNL     C4    4  -0.382   0.174   0.031
    1UNL     O1    5  -0.501   0.115   0.095
    1UNL     C5    6  -0.201   0.018   0.119
    1UNL     C6    7  -0.054   0.071   0.108
    1UNL     C7    8   0.027  -0.027   0.026
    1UNL     C8    9   0.157   0.033  -0.030
    1UNL     N1   10   0.183   0.146  -0.102
    1UNL     C9   11   0.317   0.161  -0.112
    1UNL    C10   12   0.390   0.266  -0.174
    1UNL    C11   13   0.524   0.256  -0.175
    1UNL    C12   14   0.588   0.148  -0.113
    1UNL    C13   15   0.518   0.049  -0.043
    1UNL    C14   16   0.380   0.048  -0.048
    1UNL    C15   17   0.275  -0.037  -0.004
    1UNL    C16   18   0.288  -0.170   0.070
    1UNL    C17   19   0.169  -0.176   0.166
    1UNL     N2   20   0.043  -0.158   0.095
    1UNL    C18   21  -0.071  -0.209   0.157
    1UNL     O2   22  -0.064  -0.301   0.235
    1UNL    C19   23  -0.212  -0.136   0.141
    1UNL    C20   24  -0.291  -0.229   0.047
    1UNL     O3   25  -0.300  -0.362   0.090
    1UNL     H1   26  -0.327   0.138  -0.294
    1UNL     H2   27  -0.386  -0.034  -0.302
    1UNL     H3   28  -0.460   0.074  -0.192
    1UNL     H4   29  -0.207  -0.065  -0.144
    1UNL     H5   30  -0.413   0.223  -0.060
    1UNL     H6   31  -0.347   0.250   0.112
    1UNL     H7   32  -0.564   0.089   0.032
    1UNL     H8   33  -0.237   0.067   0.205
    1UNL     H9   34  -0.056   0.170   0.067
    1UNL    H10   35  -0.003   0.086   0.198
    1UNL    H11   36  -0.024  -0.048  -0.073
    1UNL    H12   37   0.122   0.230  -0.100
    1UNL    H13   38   0.339   0.350  -0.216
    1UNL    H14   39   0.581   0.326  -0.230
    1UNL    H15   40   0.689   0.138  -0.111
    1UNL    H16   41   0.573  -0.036   0.001
    1UNL    H17   42   0.293  -0.257   0.009
    1UNL    H18   43   0.377  -0.159   0.126
    1UNL    H19   44   0.176  -0.096   0.242
    1UNL    H20   45   0.156  -0.270   0.225
    1UNL    H21   46  -0.240  -0.155   0.244
    1UNL    H22   47  -0.262  -0.235  -0.054
    1UNL    H23   48  -0.396  -0.198   0.034
    1UNL    H24   49  -0.222  -0.381   0.147
   0.00000   0.00000   0.00000   0.00000   0.00000   0.00000   0.00000   0.00000   0.00000
Generated with MDTraj, t= 23.0
 49
    1UNL     C1    1  -0.366   0.067  -0.245
    1UNL     C2    2  -0.304   0.003  -0.129
    1UNL     C3    3  -0.301   0.056  -0.008
    1UNL     C4    4  -0.393   0.167   0.025
    1UNL     O1    5  -0.517   0.129   0.090
    1UNL     C5    6  -0.207   0.013   0.101
    1UNL     C6    7  -0.068   0.081   0.090
    1UNL     C7    8   0.031  -0.018   0.034
    1UNL     C8    9   0.173   0.035  -0.002
    1UNL     N1   10   0.185   0.160  -0.061
    1UNL     C9   11   0.315   0.169  -0.090
    1UNL    C10   12   0.391   0.264  -0.161
    1UNL    C11   13   0.526   0.243  -0.198
    1UNL    C12   14   0.589   0.129  -0.145
    1UNL    C13   15   0.525   0.041  -0.061
    1UNL    C14   16   0.387   0.060  -0.046
    1UNL    C15   17   0.290  -0.025   0.012
    1UNL    C16   18   0.306  -0.162   0.078
    1UNL    C17   19   0.176  -0.200   0.157
    1UNL     N2   20   0.045  -0.135   0.118
    1UNL    C18   21  -0.069  -0.204   0.162
    1UNL     O2   22  -0.066  -0.308   0.225
    1UNL    C19   23  -0.205  -0.142   0.130
    1UNL    C20   24  -0.278  -0.250   0.044
    1UNL     O3   25  -0.305  -0.365   0.104
    1UNL     H1   26  -0.316   0.160  -0.276
    1UNL     H2   27  -0.369  -0.000  -0.335
    1UNL     H3   28  -0.477   0.085  -0.226
    1UNL     H4   29  -0.236  -0.084  -0.140
    1UNL     H5   30  -0.423   0.222  -0.062
    1UNL     H6   31  -0.333   0.233   0.098
    1UNL     H7   32  -0.500   0.114   0.186
    1UNL     H8   33  -0.237   0.057   0.194
    1UNL     H9   34  -0.070   0.168   0.028
    1UNL    H10   35  -0.037   0.115   0.183
    1UNL    H11   36   0.008  -0.059  -0.068
    1UNL    H12   37   0.101   0.218  -0.081
    1UNL    H13   38   0.347   0.356  -0.195
    1UNL    H14   39   0.585   0.313  -0.258
    1UNL    H15   40   0.696   0.115  -0.172
    1UNL    H16   41   0.575  -0.045  -0.022
    1UNL    H17   42   0.329  -0.235   0.002
    1UNL    H18   43   0.384  -0.164   0.148
    1UNL    H19   44   0.186  -0.166   0.262
    1UNL    H20   45   0.161  -0.311   0.165
    1UNL    H21   46  -0.259  -0.157   0.225
    1UNL    H22   47  -0.234  -0.268  -0.050
    1UNL    H23   48  -0.381  -0.219   0.016
    1UNL    H24   49  -0.224  -0.392   0.153
   0.00000   0.00000   0.00000   0.00000   0.00000   0.00000   0.00000   0.00000   0.00000
Generated with MDTraj, t= 24.0
 49
    1UNL     C1    1  -0.376   0.036  -0.238
    1UNL     C2    2  -0.282   0.010  -0.125
    1UNL     C3    3  -0.294   0.067  -0.006
    1UNL     C4    4  -0.398   0.163   0.034
    1UNL     O1    5  -0.520   0.108   0.078
    1UNL     C5    6  -0.205   0.018   0.109
    1UNL     C6    7  -0.061   0.070   0.112
    1UNL     C7    8   0.037  -0.017   0.036
    1UNL     C8    9   0.167   0.046  -0.003
    1UNL     N1   10   0.193   0.173  -0.055
    1UNL     C9   11   0.325   0.173  -0.086
    1UNL    C10   12   0.397   0.271  -0.151
    1UNL    C11   13   0.523   0.243  -0.191
    1UNL    C12   14   0.593   0.121  -0.150
    1UNL    C13   15   0.519   0.022  -0.081
    1UNL    C14   16   0.385   0.048  -0.056
    1UNL    C15   17   0.287  -0.030   0.004
    1UNL    C16   18   0.293  -0.166   0.067
    1UNL    C17   19   0.181  -0.176   0.165
    1UNL     N2   20   0.052  -0.142   0.112
    1UNL    C18   21  -0.072  -0.196   0.169
    1UNL     O2   22  -0.069  -0.297   0.234
    1UNL    C19   23  -0.209  -0.140   0.136
    1UNL    C20   24  -0.293  -0.226   0.046
    1UNL     O3   25  -0.300  -0.363   0.078
    1UNL     H1   26  -0.396   0.146  -0.248
    1UNL     H2   27  -0.335  -0.007  -0.335
    1UNL     H3   28  -0.470  -0.020  -0.211
    1UNL     H4   29  -0.204  -0.059  -0.131
    1UNL     H5   30  -0.428   0.222  -0.050
    1UNL     H6   31  -0.367   0.237   0.118
    1UNL     H7   32  -0.534   0.024   0.017
    1UNL     H8   33  -0.247   0.067   0.196
    1UNL     H9   34  -0.065   0.170   0.076
    1UNL    H10   35  -0.027   0.071   0.213
    1UNL    H11   36  -0.006  -0.041  -0.064
    1UNL    H12   37   0.120   0.227  -0.105
    1UNL    H13   38   0.358   0.368  -0.179
    1UNL    H14   39   0.587   0.312  -0.239
    1UNL    H15   40   0.700   0.096  -0.177
    1UNL    H16   41   0.566  -0.065  -0.044
    1UNL    H17   42   0.268  -0.242  -0.006
    1UNL    H18   43   0.388  -0.189   0.107
    1UNL    H19   44   0.197  -0.112   0.252
    1UNL    H20   45   0.157  -0.285   0.191
    1UNL    H21   46  -0.276  -0.160   0.222
    1UNL    H22   47  -0.251  -0.229  -0.051
    1UNL    H23   48  -0.390  -0.175   0.028
    1UNL    H24   49  -0.232  -0.377   0.147
   0.00000   0.00000   0.00000   0.00000   0.00000   0.00000   0.00000   0.00000   0.00000
Generated with MDTraj, t= 25.0
 49
    1UNL     C1    1  -0.351   0.055  -0.242
    1UNL     C2    2  -0.271   0.035  -0.120
    1UNL     C3    3  -0.297   0.066   0.007
    1UNL     C4    4  -0.424   0.141   0.040
    1UNL     O1    5  -0.538   0.061   0.058
    1UNL     C5    6  -0.205   0.030   0.127
    1UNL     C6    7  -0.056   0.083   0.106
    1UNL     C7    8   0.033  -0.021   0.034
    1UNL     C8    9   0.158   0.040  -0.012
    1UNL     N1   10   0.187   0.164  -0.069
    1UNL     C9   11   0.322   0.169  -0.097
    1UNL    C10   12   0.407   0.266  -0.159
    1UNL    C11   13   0.544   0.246  -0.159
    1UNL    C12   14   0.591   0.115  -0.133
    1UNL    C13   15   0.512   0.017  -0.088
    1UNL    C14   16   0.376   0.047  -0.065
    1UNL    C15   17   0.274  -0.032  -0.005
    1UNL    C16   18   0.283  -0.174   0.035
    1UNL    C17   19   0.188  -0.194   0.154
    1UNL     N2   20   0.053  -0.136   0.121
    1UNL    C18   21  -0.069  -0.183   0.175
    1UNL     O2   22  -0.068  -0.287   0.239
    1UNL    C19   23  -0.205  -0.129   0.149
    1UNL    C20   24  -0.281  -0.209   0.051
    1UNL     O3   25  -0.293  -0.350   0.093
    1UNL     H1   26  -0.348   0.165  -0.278
    1UNL     H2   27  -0.324  -0.015  -0.330
    1UNL     H3   28  -0.456   0.028  -0.217
    1UNL     H4   29  -0.176  -0.015  -0.133
    1UNL     H5   30  -0.457   0.212  -0.033
    1UNL     H6   31  -0.415   0.203   0.139
    1UNL     H7   32  -0.532  -0.030   0.010
    1UNL     H8   33  -0.247   0.078   0.216
    1UNL     H9   34  -0.060   0.175   0.055
    1UNL    H10   35  -0.017   0.105   0.205
    1UNL    H11   36  -0.023  -0.057  -0.057
    1UNL    H12   37   0.121   0.244  -0.069
    1UNL    H13   38   0.354   0.356  -0.186
    1UNL    H14   39   0.608   0.324  -0.196
    1UNL    H15   40   0.686   0.084  -0.145
    1UNL    H16   41   0.538  -0.089  -0.069
    1UNL    H17   42   0.264  -0.236  -0.051
    1UNL    H18   43   0.378  -0.200   0.073
    1UNL    H19   44   0.208  -0.133   0.243
    1UNL    H20   45   0.173  -0.304   0.179
    1UNL    H21   46  -0.268  -0.155   0.236
    1UNL    H22   47  -0.226  -0.195  -0.039
    1UNL    H23   48  -0.384  -0.176   0.026
    1UNL    H24   49  -0.210  -0.375   0.140
   0.00000   0.00000   0.00000   0.00000   0.00000   0.00000   0.00000   0.00000   0.00000
Generated with MDTraj, t= 26.0
 49
    1UNL     C1    1  -0.369   0.118  -0.224
    1UNL     C2    2  -0.284   0.060  -0.130
    1UNL     C3    3  -0.304   0.070   0.001
    1UNL     C4    4  -0.440   0.124   0.055
    1UNL     O1    5  -0.546   0.028   0.026
    1UNL     C5    6  -0.203   0.025   0.108
    1UNL     C6    7  -0.059   0.078   0.074
    1UNL     C7    8   0.032  -0.029   0.016
    1UNL     C8    9   0.166   0.028  -0.017
    1UNL     N1   10   0.193   0.155  -0.067
    1UNL     C9   11   0.332   0.171  -0.093
    1UNL    C10   12   0.409   0.268  -0.149
    1UNL    C11   13   0.546   0.250  -0.152
    1UNL    C12   14   0.600   0.121  -0.124
    1UNL    C13   15   0.523   0.016  -0.092
    1UNL    C14   16   0.392   0.041  -0.063
    1UNL    C15   17   0.281  -0.041  -0.014
    1UNL    C16   18   0.279  -0.184   0.027
    1UNL    C17   19   0.177  -0.189   0.147
    1UNL     N2   20   0.043  -0.142   0.110
    1UNL    C18   21  -0.068  -0.185   0.180
    1UNL     O2   22  -0.063  -0.267   0.273
    1UNL    C19   23  -0.205  -0.126   0.150
    1UNL    C20   24  -0.269  -0.227   0.053
    1UNL     O3   25  -0.284  -0.350   0.126
    1UNL     H1   26  -0.361   0.233  -0.224
    1UNL     H2   27  -0.353   0.082  -0.333
    1UNL     H3   28  -0.474   0.081  -0.201
    1UNL     H4   29  -0.190   0.017  -0.165
    1UNL     H5   30  -0.458   0.222   0.015
    1UNL     H6   31  -0.441   0.141   0.171
    1UNL     H7   32  -0.577  -0.019   0.108
    1UNL     H8   33  -0.230   0.088   0.197
    1UNL     H9   34  -0.066   0.162   0.012
    1UNL    H10   35  -0.015   0.117   0.165
    1UNL    H11   36  -0.031  -0.076  -0.065
    1UNL    H12   37   0.126   0.232  -0.078
    1UNL    H13   38   0.359   0.355  -0.185
    1UNL    H14   39   0.611   0.331  -0.180
    1UNL    H15   40   0.709   0.105  -0.159
    1UNL    H16   41   0.546  -0.085  -0.082
    1UNL    H17   42   0.247  -0.251  -0.051
    1UNL    H18   43   0.376  -0.220   0.053
    1UNL    H19   44   0.207  -0.120   0.226
    1UNL    H20   45   0.152  -0.287   0.204
    1UNL    H21   46  -0.260  -0.122   0.246
    1UNL    H22   47  -0.218  -0.245  -0.039
    1UNL    H23   48  -0.367  -0.188   0.025
    1UNL    H24   49  -0.214  -0.351   0.194
   0.00000   0.00000   0.00000   0.00000   0.00000   0.00000   0.00000   0.00000   0.00000
Generated with MDTraj, t= 27.0
 49
    1UNL     C1    1  -0.396   0.123  -0.207
    1UNL     C2    2  -0.298   0.080  -0.113
    1UNL     C3    3  -0.316   0.067   0.019
    1UNL     C4    4  -0.456   0.079   0.079
    1UNL     O1    5  -0.555   0.018  -0.007
    1UNL     C5    6  -0.196   0.033   0.113
    1UNL     C6    7  -0.058   0.081   0.065
    1UNL     C7    8   0.033  -0.027   0.005
    1UNL     C8    9   0.165   0.023  -0.041
    1UNL     N1   10   0.195   0.153  -0.085
    1UNL     C9   11   0.335   0.157  -0.099
    1UNL    C10   12   0.412   0.261  -0.139
    1UNL    C11   13   0.546   0.242  -0.145
    1UNL    C12   14   0.613   0.122  -0.114
    1UNL    C13   15   0.535   0.013  -0.082
    1UNL    C14   16   0.388   0.032  -0.070
    1UNL    C15   17   0.280  -0.054  -0.023
    1UNL    C16   18   0.281  -0.182   0.046
    1UNL    C17   19   0.174  -0.188   0.150
    1UNL     N2   20   0.043  -0.147   0.102
    1UNL    C18   21  -0.060  -0.178   0.179
    1UNL     O2   22  -0.053  -0.252   0.278
    1UNL    C19   23  -0.200  -0.109   0.156
    1UNL    C20   24  -0.267  -0.206   0.058
    1UNL     O3   25  -0.277  -0.330   0.110
    1UNL     H1   26  -0.440   0.223  -0.173
    1UNL     H2   27  -0.350   0.137  -0.312
    1UNL     H3   28  -0.475   0.037  -0.217
    1UNL     H4   29  -0.201   0.086  -0.151
    1UNL     H5   30  -0.486   0.181   0.082
    1UNL     H6   31  -0.459   0.041   0.191
    1UNL     H7   32  -0.520  -0.065  -0.030
    1UNL     H8   33  -0.210   0.102   0.202
    1UNL     H9   34  -0.066   0.162  -0.004
    1UNL    H10   35  -0.002   0.133   0.143
    1UNL    H11   36  -0.028  -0.071  -0.079
    1UNL    H12   37   0.137   0.204  -0.152
    1UNL    H13   38   0.369   0.360  -0.156
    1UNL    H14   39   0.607   0.327  -0.171
    1UNL    H15   40   0.717   0.105  -0.120
    1UNL    H16   41   0.579  -0.090  -0.070
    1UNL    H17   42   0.263  -0.258  -0.026
    1UNL    H18   43   0.378  -0.208   0.084
    1UNL    H19   44   0.207  -0.142   0.245
    1UNL    H20   45   0.168  -0.294   0.192
    1UNL    H21   46  -0.247  -0.098   0.257
    1UNL    H22   47  -0.217  -0.211  -0.036
    1UNL    H23   48  -0.370  -0.178   0.042
    1UNL    H24   49  -0.198  -0.350   0.167
   0.00000   0.00000   0.00000   0.00000   0.00000   0.00000   0.00000   0.00000   0.00000
Generated with MDTraj, t= 28.0
 49
    1UNL     C1    1  -0.402   0.120  -0.208
    1UNL     C2    2  -0.293   0.095  -0.111
    1UNL     C3    3  -0.313   0.072   0.017
    1UNL     C4    4  -0.449   0.078   0.072
    1UNL     O1    5  -0.552   0.025   0.000
    1UNL     C5    6  -0.201   0.034   0.118
    1UNL     C6    7  -0.062   0.090   0.082
    1UNL     C7    8   0.031  -0.017   0.015
    1UNL     C8    9   0.160   0.027  -0.038
    1UNL     N1   10   0.193   0.148  -0.103
    1UNL     C9   11   0.330   0.153  -0.123
    1UNL    C10   12   0.422   0.255  -0.165
    1UNL    C11   13   0.558   0.232  -0.156
    1UNL    C12   14   0.599   0.113  -0.098
    1UNL    C13   15   0.518   0.013  -0.047
    1UNL    C14   16   0.379   0.032  -0.068
    1UNL    C15   17   0.274  -0.050  -0.024
    1UNL    C16   18   0.272  -0.187   0.033
    1UNL    C17   19   0.183  -0.178   0.156
    1UNL     N2   20   0.048  -0.124   0.125
    1UNL    C18   21  -0.060  -0.171   0.188
    1UNL     O2   22  -0.043  -0.260   0.267
    1UNL    C19   23  -0.202  -0.122   0.151
    1UNL    C20   24  -0.263  -0.217   0.048
    1UNL     O3   25  -0.266  -0.347   0.094
    1UNL     H1   26  -0.501   0.152  -0.158
    1UNL     H2   27  -0.372   0.205  -0.282
    1UNL     H3   28  -0.417   0.024  -0.273
    1UNL     H4   29  -0.189   0.111  -0.148
    1UNL     H5   30  -0.473   0.179   0.097
    1UNL     H6   31  -0.448   0.012   0.171
    1UNL     H7   32  -0.550  -0.070  -0.015
    1UNL     H8   33  -0.215   0.086   0.220
    1UNL     H9   34  -0.067   0.190   0.035
    1UNL    H10   35  -0.007   0.118   0.172
    1UNL    H11   36  -0.019  -0.072  -0.069
    1UNL    H12   37   0.140   0.235  -0.100
    1UNL    H13   38   0.393   0.354  -0.194
    1UNL    H14   39   0.628   0.308  -0.188
    1UNL    H15   40   0.704   0.107  -0.081
    1UNL    H16   41   0.551  -0.077  -0.007
    1UNL    H17   42   0.229  -0.258  -0.035
    1UNL    H18   43   0.369  -0.226   0.060
    1UNL    H19   44   0.222  -0.103   0.227
    1UNL    H20   45   0.195  -0.275   0.213
    1UNL    H21   46  -0.264  -0.132   0.243
    1UNL    H22   47  -0.201  -0.217  -0.039
    1UNL    H23   48  -0.366  -0.194   0.026
    1UNL    H24   49  -0.202  -0.367   0.167
   0.00000   0.00000   0.00000   0.00000   0.00000   0.00000   0.00000   0.00000   0.00000
Generated with MDTraj, t= 29.0
 49
    1UNL     C1    1  -0.371   0.126  -0.217
    1UNL     C2    2  -0.284   0.071  -0.112
    1UNL     C3    3  -0.308   0.067   0.017
    1UNL     C4    4  -0.446   0.107   0.074
    1UNL     O1    5  -0.554   0.039   0.018
    1UNL     C5    6  -0.206   0.026   0.114
    1UNL     C6    7  -0.064   0.080   0.078
    1UNL     C7    8   0.029  -0.029   0.021
    1UNL     C8    9   0.164   0.031  -0.026
    1UNL     N1   10   0.188   0.148  -0.089
    1UNL     C9   11   0.326   0.154  -0.116
    1UNL    C10   12   0.410   0.257  -0.153
    1UNL    C11   13   0.546   0.236  -0.174
    1UNL    C12   14   0.602   0.111  -0.138
    1UNL    C13   15   0.529   0.018  -0.078
    1UNL    C14   16   0.388   0.032  -0.066
    1UNL    C15   17   0.279  -0.042  -0.011
    1UNL    C16   18   0.291  -0.167   0.073
    1UNL    C17   19   0.174  -0.170   0.182
    1UNL     N2   20   0.047  -0.136   0.119
    1UNL    C18   21  -0.068  -0.179   0.188
    1UNL     O2   22  -0.063  -0.262   0.275
    1UNL    C19   23  -0.207  -0.133   0.143
    1UNL    C20   24  -0.270  -0.219   0.036
    1UNL     O3   25  -0.263  -0.360   0.070
    1UNL     H1   26  -0.479   0.133  -0.177
    1UNL     H2   27  -0.348   0.237  -0.248
    1UNL     H3   28  -0.379   0.060  -0.310
    1UNL     H4   29  -0.191   0.041  -0.149
    1UNL     H5   30  -0.468   0.207   0.046
    1UNL     H6   31  -0.452   0.102   0.193
    1UNL     H7   32  -0.558  -0.056   0.057
    1UNL     H8   33  -0.231   0.075   0.215
    1UNL     H9   34  -0.073   0.169   0.009
    1UNL    H10   35  -0.021   0.127   0.166
    1UNL    H11   36  -0.008  -0.078  -0.073
    1UNL    H12   37   0.132   0.232  -0.074
    1UNL    H13   38   0.366   0.352  -0.180
    1UNL    H14   39   0.614   0.314  -0.205
    1UNL    H15   40   0.712   0.098  -0.168
    1UNL    H16   41   0.580  -0.068  -0.035
    1UNL    H17   42   0.281  -0.255   0.015
    1UNL    H18   43   0.384  -0.168   0.131
    1UNL    H19   44   0.195  -0.099   0.263
    1UNL    H20   45   0.139  -0.273   0.211
    1UNL    H21   46  -0.277  -0.150   0.229
    1UNL    H22   47  -0.209  -0.211  -0.054
    1UNL    H23   48  -0.369  -0.182   0.022
    1UNL    H24   49  -0.183  -0.381   0.123
   0.00000   0.00000   0.00000   0.00000   0.00000   0.00000   0.00000   0.00000   0.00000
Generated with MDTraj, t= 30.0
 49
    1UNL     C1    1  -0.381   0.093  -0.217
    1UNL     C2    2  -0.282   0.058  -0.116
    1UNL     C3    3  -0.300   0.073   0.014
    1UNL     C4    4  -0.421   0.147   0.057
    1UNL     O1    5  -0.536   0.061   0.020
    1UNL     C5    6  -0.201   0.028   0.121
    1UNL     C6    7  -0.060   0.084   0.096
    1UNL     C7    8   0.033  -0.021   0.039
    1UNL     C8    9   0.165   0.032  -0.005
    1UNL     N1   10   0.194   0.151  -0.065
    1UNL     C9   11   0.326   0.155  -0.096
    1UNL    C10   12   0.384   0.253  -0.177
    1UNL    C11   13   0.512   0.223  -0.208
    1UNL    C12   14   0.587   0.118  -0.156
    1UNL    C13   15   0.527   0.031  -0.075
    1UNL    C14   16   0.387   0.040  -0.052
    1UNL    C15   17   0.288  -0.033   0.011
    1UNL    C16   18   0.290  -0.167   0.088
    1UNL    C17   19   0.172  -0.185   0.189
    1UNL     N2   20   0.043  -0.134   0.126
    1UNL    C18   21  -0.071  -0.199   0.183
    1UNL     O2   22  -0.074  -0.295   0.257
    1UNL    C19   23  -0.201  -0.133   0.138
    1UNL    C20   24  -0.244  -0.213   0.014
    1UNL     O3   25  -0.268  -0.352   0.056
    1UNL     H1   26  -0.466   0.014  -0.211
    1UNL     H2   27  -0.441   0.190  -0.191
    1UNL     H3   28  -0.339   0.087  -0.325
    1UNL     H4   29  -0.199  -0.003  -0.153
    1UNL     H5   30  -0.423   0.245   0.018
    1UNL     H6   31  -0.426   0.160   0.174
    1UNL     H7   32  -0.536  -0.011   0.096
    1UNL     H8   33  -0.244   0.065   0.220
    1UNL     H9   34  -0.069   0.169   0.022
    1UNL    H10   35  -0.015   0.132   0.184
    1UNL    H11   36  -0.005  -0.066  -0.057
    1UNL    H12   37   0.118   0.196  -0.113
    1UNL    H13   38   0.327   0.336  -0.216
    1UNL    H14   39   0.557   0.284  -0.284
    1UNL    H15   40   0.688   0.114  -0.168
    1UNL    H16   41   0.583  -0.048  -0.020
    1UNL    H17   42   0.287  -0.248   0.019
    1UNL    H18   43   0.382  -0.167   0.149
    1UNL    H19   44   0.177  -0.126   0.280
    1UNL    H20   45   0.146  -0.292   0.203
    1UNL    H21   46  -0.286  -0.161   0.205
    1UNL    H22   47  -0.166  -0.200  -0.066
    1UNL    H23   48  -0.340  -0.185  -0.025
    1UNL    H24   49  -0.213  -0.367   0.136
   0.00000   0.00000   0.00000   0.00000   0.00000   0.00000   0.00000   0.00000   0.00000
Generated with MDTraj, t= 31.0
 49
    1UNL     C1    1  -0.362   0.080  -0.219
    1UNL     C2    2  -0.269   0.044  -0.105
    1UNL     C3    3  -0.303   0.063   0.022
    1UNL     C4    4  -0.419   0.149   0.060
    1UNL     O1    5  -0.544   0.088   0.021
    1UNL     C5    6  -0.214   0.017   0.136
    1UNL     C6    7  -0.072   0.080   0.126
    1UNL     C7    8   0.027  -0.007   0.049
    1UNL     C8    9   0.161   0.047   0.007
    1UNL     N1   10   0.186   0.150  -0.078
    1UNL     C9   11   0.324   0.165  -0.110
    1UNL    C10   12   0.400   0.237  -0.205
    1UNL    C11   13   0.535   0.218  -0.223
    1UNL    C12   14   0.591   0.109  -0.150
    1UNL    C13   15   0.520   0.027  -0.066
    1UNL    C14   16   0.383   0.059  -0.045
    1UNL    C15   17   0.283  -0.020   0.022
    1UNL    C16   18   0.294  -0.150   0.099
    1UNL    C17   19   0.172  -0.173   0.180
    1UNL     N2   20   0.045  -0.142   0.119
    1UNL    C18   21  -0.070  -0.203   0.171
    1UNL     O2   22  -0.057  -0.304   0.236
    1UNL    C19   23  -0.212  -0.141   0.150
    1UNL    C20   24  -0.262  -0.218   0.025
    1UNL     O3   25  -0.269  -0.359   0.034
    1UNL     H1   26  -0.454   0.008  -0.216
    1UNL     H2   27  -0.417   0.181  -0.208
    1UNL     H3   28  -0.314   0.061  -0.323
    1UNL     H4   29  -0.184  -0.017  -0.133
    1UNL     H5   30  -0.417   0.243   0.011
    1UNL     H6   31  -0.417   0.173   0.175
    1UNL     H7   32  -0.574   0.012   0.076
    1UNL     H8   33  -0.266   0.053   0.229
    1UNL     H9   34  -0.080   0.185   0.086
    1UNL    H10   35  -0.029   0.087   0.228
    1UNL    H11   36  -0.023  -0.025  -0.050
    1UNL    H12   37   0.113   0.214  -0.104
    1UNL    H13   38   0.354   0.307  -0.272
    1UNL    H14   39   0.597   0.268  -0.296
    1UNL    H15   40   0.702   0.095  -0.165
    1UNL    H16   41   0.575  -0.048  -0.023
    1UNL    H17   42   0.309  -0.228   0.027
    1UNL    H18   43   0.382  -0.146   0.164
    1UNL    H19   44   0.171  -0.100   0.259
    1UNL    H20   45   0.155  -0.275   0.221
    1UNL    H21   46  -0.281  -0.176   0.231
    1UNL    H22   47  -0.203  -0.206  -0.073
    1UNL    H23   48  -0.363  -0.184   0.001
    1UNL    H24   49  -0.221  -0.383   0.117
   0.00000   0.00000   0.00000   0.00000   0.00000   0.00000   0.00000   0.00000   0.00000
Generated with MDTraj, t= 32.0
 49
    1UNL     C1    1  -0.366   0.124  -0.227
    1UNL     C2    2  -0.280   0.067  -0.116
    1UNL     C3    3  -0.303   0.061   0.013
    1UNL     C4    4  -0.422   0.127   0.068
    1UNL     O1    5  -0.545   0.100   0.019
    1UNL     C5    6  -0.203   0.005   0.113
    1UNL     C6    7  -0.063   0.073   0.101
    1UNL     C7    8   0.032  -0.024   0.035
    1UNL     C8    9   0.164   0.039  -0.004
    1UNL     N1   10   0.181   0.150  -0.089
    1UNL     C9   11   0.317   0.154  -0.114
    1UNL    C10   12   0.391   0.240  -0.194
    1UNL    C11   13   0.525   0.224  -0.211
    1UNL    C12   14   0.588   0.115  -0.153
    1UNL    C13   15   0.521   0.024  -0.069
    1UNL    C14   16   0.388   0.054  -0.040
    1UNL    C15   17   0.284  -0.016   0.025
    1UNL    C16   18   0.302  -0.143   0.115
    1UNL    C17   19   0.181  -0.159   0.202
    1UNL     N2   20   0.049  -0.139   0.134
    1UNL    C18   21  -0.064  -0.205   0.176
    1UNL     O2   22  -0.050  -0.317   0.226
    1UNL    C19   23  -0.206  -0.146   0.142
    1UNL    C20   24  -0.268  -0.234   0.037
    1UNL     O3   25  -0.289  -0.363   0.065
    1UNL     H1   26  -0.478   0.138  -0.201
    1UNL     H2   27  -0.343   0.228  -0.266
    1UNL     H3   28  -0.367   0.044  -0.314
    1UNL     H4   29  -0.189   0.029  -0.151
    1UNL     H5   30  -0.405   0.230   0.052
    1UNL     H6   31  -0.424   0.106   0.183
    1UNL     H7   32  -0.573   0.012   0.027
    1UNL     H8   33  -0.236   0.050   0.211
    1UNL     H9   34  -0.084   0.167   0.042
    1UNL    H10   35  -0.019   0.105   0.200
    1UNL    H11   36  -0.017  -0.070  -0.057
    1UNL    H12   37   0.120   0.218  -0.133
    1UNL    H13   38   0.340   0.320  -0.249
    1UNL    H14   39   0.577   0.305  -0.263
    1UNL    H15   40   0.690   0.099  -0.181
    1UNL    H16   41   0.569  -0.068  -0.025
    1UNL    H17   42   0.311  -0.225   0.045
    1UNL    H18   43   0.396  -0.135   0.171
    1UNL    H19   44   0.177  -0.103   0.291
    1UNL    H20   45   0.185  -0.264   0.234
    1UNL    H21   46  -0.258  -0.170   0.238
    1UNL    H22   47  -0.201  -0.229  -0.058
    1UNL    H23   48  -0.368  -0.203  -0.001
    1UNL    H24   49  -0.205  -0.405   0.094
   0.00000   0.00000   0.00000   0.00000   0.00000   0.00000   0.00000   0.00000   0.00000
Generated with MDTraj, t= 33.0
 49
    1UNL     C1    1  -0.369   0.132  -0.209
    1UNL     C2    2  -0.282   0.072  -0.104
    1UNL     C3    3  -0.300   0.073   0.028
    1UNL     C4    4  -0.438   0.113   0.079
    1UNL     O1    5  -0.545   0.086  -0.004
    1UNL     C5    6  -0.202   0.008   0.125
    1UNL     C6    7  -0.061   0.067   0.088
    1UNL     C7    8   0.035  -0.035   0.019
    1UNL     C8    9   0.169   0.025  -0.017
    1UNL     N1   10   0.189   0.132  -0.097
    1UNL     C9   11   0.321   0.144  -0.125
    1UNL    C10   12   0.386   0.243  -0.200
    1UNL    C11   13   0.523   0.232  -0.202
    1UNL    C12   14   0.602   0.141  -0.131
    1UNL    C13   15   0.534   0.043  -0.059
    1UNL    C14   16   0.392   0.044  -0.054
    1UNL    C15   17   0.289  -0.027   0.027
    1UNL    C16   18   0.296  -0.156   0.094
    1UNL    C17   19   0.173  -0.171   0.188
    1UNL     N2   20   0.044  -0.147   0.114
    1UNL    C18   21  -0.066  -0.197   0.178
    1UNL     O2   22  -0.063  -0.290   0.263
    1UNL    C19   23  -0.207  -0.144   0.145
    1UNL    C20   24  -0.261  -0.224   0.035
    1UNL     O3   25  -0.291  -0.356   0.067
    1UNL     H1   26  -0.433   0.214  -0.161
    1UNL     H2   27  -0.313   0.192  -0.292
    1UNL     H3   28  -0.436   0.047  -0.249
    1UNL     H4   29  -0.192   0.024  -0.149
    1UNL     H5   30  -0.439   0.217   0.101
    1UNL     H6   31  -0.454   0.053   0.177
    1UNL     H7   32  -0.533  -0.006  -0.028
    1UNL     H8   33  -0.222   0.054   0.224
    1UNL     H9   34  -0.058   0.167   0.037
    1UNL    H10   35  -0.022   0.091   0.192
    1UNL    H11   36  -0.011  -0.073  -0.076
    1UNL    H12   37   0.124   0.179  -0.160
    1UNL    H13   38   0.321   0.319  -0.232
    1UNL    H14   39   0.571   0.300  -0.268
    1UNL    H15   40   0.707   0.156  -0.114
    1UNL    H16   41   0.589  -0.033  -0.013
    1UNL    H17   42   0.301  -0.236   0.019
    1UNL    H18   43   0.390  -0.154   0.152
    1UNL    H19   44   0.195  -0.109   0.270
    1UNL    H20   45   0.167  -0.274   0.226
    1UNL    H21   46  -0.266  -0.170   0.235
    1UNL    H22   47  -0.193  -0.233  -0.060
    1UNL    H23   48  -0.350  -0.167  -0.005
    1UNL    H24   49  -0.224  -0.385   0.135
   0.00000   0.00000   0.00000   0.00000   0.00000   0.00000   0.00000   0.00000   0.00000
Generated with MDTraj, t= 34.0
 49
    1UNL     C1    1  -0.364   0.128  -0.204
    1UNL     C2    2  -0.276   0.085  -0.100
    1UNL     C3    3  -0.305   0.075   0.031
    1UNL     C4    4  -0.444   0.102   0.088
    1UNL     O1    5  -0.538   0.055  -0.012
    1UNL     C5    6  -0.196   0.036   0.129
    1UNL     C6    7  -0.054   0.080   0.082
    1UNL     C7    8   0.026  -0.033   0.017
    1UNL     C8    9   0.154   0.011  -0.032
    1UNL     N1   10   0.175   0.119  -0.116
    1UNL     C9   11   0.312   0.141  -0.137
    1UNL    C10   12   0.396   0.247  -0.194
    1UNL    C11   13   0.530   0.245  -0.170
    1UNL    C12   14   0.592   0.137  -0.099
    1UNL    C13   15   0.516   0.037  -0.042
    1UNL    C14   16   0.379   0.041  -0.060
    1UNL    C15   17   0.278  -0.049  -0.011
    1UNL    C16   18   0.291  -0.175   0.072
    1UNL    C17   19   0.169  -0.190   0.173
    1UNL     N2   20   0.039  -0.149   0.111
    1UNL    C18   21  -0.065  -0.186   0.184
    1UNL     O2   22  -0.055  -0.278   0.268
    1UNL    C19   23  -0.204  -0.121   0.158
    1UNL    C20   24  -0.261  -0.200   0.043
    1UNL     O3   25  -0.243  -0.345   0.068
    1UNL     H1   26  -0.407   0.231  -0.178
    1UNL     H2   27  -0.308   0.148  -0.306
    1UNL     H3   28  -0.443   0.050  -0.211
    1UNL     H4   29  -0.178   0.067  -0.133
    1UNL     H5   30  -0.465   0.206   0.101
    1UNL     H6   31  -0.467   0.048   0.187
    1UNL     H7   32  -0.519  -0.044  -0.035
    1UNL     H8   33  -0.207   0.101   0.216
    1UNL     H9   34  -0.064   0.160   0.005
    1UNL    H10   35   0.009   0.126   0.166
    1UNL    H11   36  -0.037  -0.085  -0.060
    1UNL    H12   37   0.099   0.182  -0.141
    1UNL    H13   38   0.350   0.319  -0.263
    1UNL    H14   39   0.595   0.325  -0.209
    1UNL    H15   40   0.704   0.118  -0.097
    1UNL    H16   41   0.559  -0.045   0.013
    1UNL    H17   42   0.295  -0.263   0.005
    1UNL    H18   43   0.389  -0.170   0.122
    1UNL    H19   44   0.187  -0.126   0.253
    1UNL    H20   45   0.168  -0.290   0.217
    1UNL    H21   46  -0.260  -0.141   0.250
    1UNL    H22   47  -0.209  -0.163  -0.055
    1UNL    H23   48  -0.369  -0.182   0.021
    1UNL    H24   49  -0.202  -0.358   0.155
   0.00000   0.00000   0.00000   0.00000   0.00000   0.00000   0.00000   0.00000   0.00000
Generated with MDTraj, t= 35.0
 49
    1UNL     C1    1  -0.379   0.145  -0.217
    1UNL     C2    2  -0.282   0.101  -0.120
    1UNL     C3    3  -0.307   0.075   0.008
    1UNL     C4    4  -0.435   0.108   0.070
    1UNL     O1    5  -0.543   0.024   0.015
    1UNL     C5    6  -0.195   0.029   0.113
    1UNL     C6    7  -0.052   0.075   0.083
    1UNL     C7    8   0.026  -0.038   0.019
    1UNL     C8    9   0.160   0.017  -0.034
    1UNL     N1   10   0.187   0.140  -0.103
    1UNL     C9   11   0.327   0.149  -0.115
    1UNL    C10   12   0.397   0.262  -0.162
    1UNL    C11   13   0.531   0.250  -0.163
    1UNL    C12   14   0.592   0.128  -0.110
    1UNL    C13   15   0.523   0.017  -0.069
    1UNL    C14   16   0.381   0.029  -0.073
    1UNL    C15   17   0.272  -0.052  -0.022
    1UNL    C16   18   0.288  -0.180   0.060
    1UNL    C17   19   0.183  -0.174   0.174
    1UNL     N2   20   0.048  -0.153   0.122
    1UNL    C18   21  -0.065  -0.186   0.189
    1UNL     O2   22  -0.064  -0.258   0.288
    1UNL    C19   23  -0.202  -0.130   0.148
    1UNL    C20   24  -0.267  -0.214   0.038
    1UNL     O3   25  -0.263  -0.355   0.084
    1UNL     H1   26  -0.410   0.256  -0.210
    1UNL     H2   27  -0.333   0.149  -0.323
    1UNL     H3   28  -0.467   0.077  -0.220
    1UNL     H4   29  -0.177   0.092  -0.146
    1UNL     H5   30  -0.466   0.208   0.045
    1UNL     H6   31  -0.435   0.098   0.185
    1UNL     H7   32  -0.541  -0.077   0.044
    1UNL     H8   33  -0.208   0.085   0.205
    1UNL     H9   34  -0.058   0.160   0.010
    1UNL    H10   35  -0.001   0.107   0.183
    1UNL    H11   36  -0.046  -0.079  -0.057
    1UNL    H12   37   0.122   0.219  -0.109
    1UNL    H13   38   0.344   0.348  -0.199
    1UNL    H14   39   0.601   0.323  -0.196
    1UNL    H15   40   0.695   0.125  -0.105
    1UNL    H16   41   0.573  -0.069  -0.018
    1UNL    H17   42   0.262  -0.261  -0.011
    1UNL    H18   43   0.389  -0.202   0.096
    1UNL    H19   44   0.207  -0.096   0.238
    1UNL    H20   45   0.181  -0.273   0.219
    1UNL    H21   46  -0.264  -0.146   0.239
    1UNL    H22   47  -0.220  -0.208  -0.068
    1UNL    H23   48  -0.373  -0.176   0.025
    1UNL    H24   49  -0.201  -0.358   0.161
   0.00000   0.00000   0.00000   0.00000   0.00000   0.00000   0.00000   0.00000   0.00000
Generated with MDTraj, t= 36.0
 49
    1UNL     C1    1  -0.387   0.117  -0.225
    1UNL     C2    2  -0.293   0.067  -0.121
    1UNL     C3    3  -0.308   0.072   0.011
    1UNL     C4    4  -0.448   0.101   0.067
    1UNL     O1    5  -0.555   0.013   0.029
    1UNL     C5    6  -0.204   0.024   0.110
    1UNL     C6    7  -0.061   0.084   0.078
    1UNL     C7    8   0.039  -0.021   0.018
    1UNL     C8    9   0.171   0.033  -0.024
    1UNL     N1   10   0.196   0.161  -0.076
    1UNL     C9   11   0.331   0.166  -0.095
    1UNL    C10   12   0.419   0.263  -0.145
    1UNL    C11   13   0.550   0.228  -0.169
    1UNL    C12   14   0.611   0.106  -0.144
    1UNL    C13   15   0.527   0.017  -0.079
    1UNL    C14   16   0.390   0.040  -0.063
    1UNL    C15   17   0.289  -0.041  -0.009
    1UNL    C16   18   0.283  -0.173   0.048
    1UNL    C17   19   0.185  -0.179   0.163
    1UNL     N2   20   0.048  -0.131   0.125
    1UNL    C18   21  -0.068  -0.180   0.183
    1UNL     O2   22  -0.066  -0.265   0.269
    1UNL    C19   23  -0.203  -0.125   0.145
    1UNL    C20   24  -0.271  -0.214   0.043
    1UNL     O3   25  -0.294  -0.344   0.089
    1UNL     H1   26  -0.369   0.228  -0.245
    1UNL     H2   27  -0.371   0.076  -0.328
    1UNL     H3   28  -0.495   0.095  -0.191
    1UNL     H4   29  -0.197   0.029  -0.155
    1UNL     H5   30  -0.485   0.200   0.034
    1UNL     H6   31  -0.446   0.100   0.181
    1UNL     H7   32  -0.541  -0.069   0.084
    1UNL     H8   33  -0.231   0.071   0.204
    1UNL     H9   34  -0.081   0.181   0.023
    1UNL    H10   35  -0.008   0.102   0.180
    1UNL    H11   36  -0.013  -0.066  -0.069
    1UNL    H12   37   0.121   0.228  -0.102
    1UNL    H13   38   0.381   0.362  -0.156
    1UNL    H14   39   0.607   0.307  -0.215
    1UNL    H15   40   0.724   0.092  -0.151
    1UNL    H16   41   0.563  -0.071  -0.041
    1UNL    H17   42   0.265  -0.252  -0.030
    1UNL    H18   43   0.383  -0.192   0.088
    1UNL    H19   44   0.209  -0.118   0.243
    1UNL    H20   45   0.172  -0.285   0.186
    1UNL    H21   46  -0.264  -0.134   0.236
    1UNL    H22   47  -0.201  -0.226  -0.047
    1UNL    H23   48  -0.373  -0.177   0.007
    1UNL    H24   49  -0.217  -0.367   0.146
   0.00000   0.00000   0.00000   0.00000   0.00000   0.00000   0.00000   0.00000   0.00000
Generated with MDTraj, t= 37.0
 49
    1UNL     C1    1  -0.400   0.047  -0.208
    1UNL     C2    2  -0.295   0.039  -0.105
    1UNL     C3    3  -0.309   0.082   0.021
    1UNL     C4    4  -0.449   0.118   0.063
    1UNL     O1    5  -0.543   0.028   0.024
    1UNL     C5    6  -0.210   0.040   0.122
    1UNL     C6    7  -0.064   0.099   0.088
    1UNL     C7    8   0.033  -0.005   0.023
    1UNL     C8    9   0.177   0.046  -0.011
    1UNL     N1   10   0.203   0.168  -0.059
    1UNL     C9   11   0.339   0.169  -0.094
    1UNL    C10   12   0.430   0.264  -0.150
    1UNL    C11   13   0.561   0.226  -0.177
    1UNL    C12   14   0.601   0.098  -0.144
    1UNL    C13   15   0.524   0.008  -0.075
    1UNL    C14   16   0.391   0.044  -0.046
    1UNL    C15   17   0.285  -0.039  -0.003
    1UNL    C16   18   0.286  -0.178   0.048
    1UNL    C17   19   0.177  -0.184   0.155
    1UNL     N2   20   0.043  -0.118   0.110
    1UNL    C18   21  -0.072  -0.175   0.166
    1UNL     O2   22  -0.067  -0.282   0.220
    1UNL    C19   23  -0.209  -0.111   0.149
    1UNL    C20   24  -0.271  -0.212   0.041
    1UNL     O3   25  -0.282  -0.340   0.088
    1UNL     H1   26  -0.429   0.154  -0.223
    1UNL     H2   27  -0.360   0.019  -0.309
    1UNL     H3   28  -0.488  -0.020  -0.171
    1UNL     H4   29  -0.205  -0.008  -0.133
    1UNL     H5   30  -0.479   0.214   0.014
    1UNL     H6   31  -0.466   0.121   0.175
    1UNL     H7   32  -0.539  -0.046   0.082
    1UNL     H8   33  -0.244   0.076   0.220
    1UNL     H9   34  -0.065   0.186   0.015
    1UNL    H10   35  -0.025   0.131   0.191
    1UNL    H11   36  -0.005  -0.038  -0.074
    1UNL    H12   37   0.142   0.249  -0.085
    1UNL    H13   38   0.390   0.362  -0.181
    1UNL    H14   39   0.627   0.304  -0.212
    1UNL    H15   40   0.691   0.061  -0.179
    1UNL    H16   41   0.566  -0.095  -0.052
    1UNL    H17   42   0.254  -0.243  -0.038
    1UNL    H18   43   0.382  -0.221   0.083
    1UNL    H19   44   0.206  -0.129   0.238
    1UNL    H20   45   0.146  -0.285   0.185
    1UNL    H21   46  -0.271  -0.133   0.236
    1UNL    H22   47  -0.204  -0.222  -0.049
    1UNL    H23   48  -0.380  -0.189   0.011
    1UNL    H24   49  -0.204  -0.355   0.146
   0.00000   0.00000   0.00000   0.00000   0.00000   0.00000   0.00000   0.00000   0.00000
Generated with MDTraj, t= 38.0
 49
    1UNL     C1    1  -0.387   0.055  -0.228
    1UNL     C2    2  -0.295   0.025  -0.114
    1UNL     C3    3  -0.311   0.063   0.011
    1UNL     C4    4  -0.429   0.149   0.048
    1UNL     O1    5  -0.540   0.059   0.053
    1UNL     C5    6  -0.207   0.029   0.115
    1UNL     C6    7  -0.060   0.085   0.094
    1UNL     C7    8   0.035  -0.011   0.029
    1UNL     C8    9   0.168   0.046  -0.006
    1UNL     N1   10   0.202   0.166  -0.061
    1UNL     C9   11   0.337   0.164  -0.095
    1UNL    C10   12   0.417   0.265  -0.153
    1UNL    C11   13   0.554   0.243  -0.172
    1UNL    C12   14   0.603   0.119  -0.128
    1UNL    C13   15   0.527   0.010  -0.092
    1UNL    C14   16   0.390   0.033  -0.067
    1UNL    C15   17   0.283  -0.030  -0.008
    1UNL    C16   18   0.283  -0.169   0.049
    1UNL    C17   19   0.183  -0.175   0.167
    1UNL     N2   20   0.048  -0.135   0.113
    1UNL    C18   21  -0.067  -0.192   0.173
    1UNL     O2   22  -0.069  -0.285   0.249
    1UNL    C19   23  -0.208  -0.129   0.141
    1UNL    C20   24  -0.280  -0.222   0.033
    1UNL     O3   25  -0.302  -0.352   0.085
    1UNL     H1   26  -0.450   0.147  -0.219
    1UNL     H2   27  -0.334   0.083  -0.324
    1UNL     H3   28  -0.461  -0.028  -0.243
    1UNL     H4   29  -0.205  -0.035  -0.138
    1UNL     H5   30  -0.454   0.225  -0.033
    1UNL     H6   31  -0.415   0.201   0.147
    1UNL     H7   32  -0.536  -0.005   0.121
    1UNL     H8   33  -0.243   0.081   0.206
    1UNL     H9   34  -0.071   0.179   0.028
    1UNL    H10   35  -0.002   0.117   0.187
    1UNL    H11   36  -0.003  -0.047  -0.067
    1UNL    H12   37   0.155   0.258  -0.056
    1UNL    H13   38   0.378   0.357  -0.189
    1UNL    H14   39   0.619   0.314  -0.221
    1UNL    H15   40   0.712   0.111  -0.140
    1UNL    H16   41   0.572  -0.084  -0.084
    1UNL    H17   42   0.248  -0.243  -0.028
    1UNL    H18   43   0.387  -0.200   0.068
    1UNL    H19   44   0.208  -0.106   0.240
    1UNL    H20   45   0.163  -0.272   0.216
    1UNL    H21   46  -0.265  -0.146   0.231
    1UNL    H22   47  -0.217  -0.233  -0.057
    1UNL    H23   48  -0.385  -0.180   0.015
    1UNL    H24   49  -0.225  -0.379   0.140
   0.00000   0.00000   0.00000   0.00000   0.00000   0.00000   0.00000   0.00000   0.00000
Generated with MDTraj, t= 39.0
 49
    1UNL     C1    1  -0.373   0.084  -0.233
    1UNL     C2    2  -0.274   0.045  -0.127
    1UNL     C3    3  -0.304   0.072   0.001
    1UNL     C4    4  -0.409   0.166   0.044
    1UNL     O1    5  -0.541   0.094   0.049
    1UNL     C5    6  -0.195   0.024   0.106
    1UNL     C6    7  -0.054   0.070   0.075
    1UNL     C7    8   0.031  -0.041   0.014
    1UNL     C8    9   0.158   0.021  -0.028
    1UNL     N1   10   0.180   0.146  -0.076
    1UNL     C9   11   0.315   0.168  -0.092
    1UNL    C10   12   0.388   0.265  -0.156
    1UNL    C11   13   0.523   0.246  -0.158
    1UNL    C12   14   0.588   0.123  -0.125
    1UNL    C13   15   0.515   0.029  -0.068
    1UNL    C14   16   0.376   0.056  -0.052
    1UNL    C15   17   0.283  -0.038  -0.009
    1UNL    C16   18   0.290  -0.169   0.055
    1UNL    C17   19   0.180  -0.195   0.160
    1UNL     N2   20   0.050  -0.159   0.109
    1UNL    C18   21  -0.060  -0.203   0.182
    1UNL     O2   22  -0.056  -0.285   0.268
    1UNL    C19   23  -0.200  -0.135   0.146
    1UNL    C20   24  -0.276  -0.221   0.049
    1UNL     O3   25  -0.280  -0.359   0.097
    1UNL     H1   26  -0.424   0.182  -0.221
    1UNL     H2   27  -0.327   0.103  -0.337
    1UNL     H3   28  -0.454   0.012  -0.238
    1UNL     H4   29  -0.196  -0.021  -0.153
    1UNL     H5   30  -0.414   0.260  -0.024
    1UNL     H6   31  -0.383   0.202   0.146
    1UNL     H7   32  -0.539   0.031   0.126
    1UNL     H8   33  -0.214   0.084   0.199
    1UNL     H9   34  -0.047   0.157  -0.002
    1UNL    H10   35  -0.003   0.114   0.167
    1UNL    H11   36  -0.007  -0.074  -0.084
    1UNL    H12   37   0.106   0.195  -0.131
    1UNL    H13   38   0.343   0.360  -0.185
    1UNL    H14   39   0.589   0.322  -0.199
    1UNL    H15   40   0.695   0.119  -0.140
    1UNL    H16   41   0.561  -0.065  -0.043
    1UNL    H17   42   0.303  -0.249  -0.023
    1UNL    H18   43   0.384  -0.178   0.114
    1UNL    H19   44   0.192  -0.146   0.253
    1UNL    H20   45   0.179  -0.304   0.177
    1UNL    H21   46  -0.252  -0.148   0.240
    1UNL    H22   47  -0.221  -0.214  -0.044
    1UNL    H23   48  -0.379  -0.179   0.045
    1UNL    H24   49  -0.205  -0.377   0.160
   0.00000   0.00000   0.00000   0.00000   0.00000   0.00000   0.00000   0.00000   0.00000
Generated with MDTraj, t= 40.0
 49
    1UNL     C1    1  -0.371   0.090  -0.218
    1UNL     C2    2  -0.277   0.040  -0.107
    1UNL     C3    3  -0.294   0.070   0.023
    1UNL     C4    4  -0.414   0.149   0.069
    1UNL     O1    5  -0.539   0.122   0.010
    1UNL     C5    6  -0.196   0.019   0.124
    1UNL     C6    7  -0.048   0.066   0.095
    1UNL     C7    8   0.029  -0.042   0.019
    1UNL     C8    9   0.163   0.013  -0.031
    1UNL     N1   10   0.183   0.124  -0.114
    1UNL     C9   11   0.319   0.153  -0.132
    1UNL    C10   12   0.395   0.259  -0.185
    1UNL    C11   13   0.527   0.270  -0.161
    1UNL    C12   14   0.591   0.163  -0.096
    1UNL    C13   15   0.525   0.052  -0.055
    1UNL    C14   16   0.383   0.046  -0.060
    1UNL    C15   17   0.288  -0.044  -0.008
    1UNL    C16   18   0.290  -0.185   0.057
    1UNL    C17   19   0.176  -0.198   0.160
    1UNL     N2   20   0.044  -0.160   0.106
    1UNL    C18   21  -0.069  -0.197   0.179
    1UNL     O2   22  -0.070  -0.283   0.264
    1UNL    C19   23  -0.206  -0.139   0.151
    1UNL    C20   24  -0.269  -0.227   0.047
    1UNL     O3   25  -0.289  -0.359   0.095
    1UNL     H1   26  -0.318   0.159  -0.288
    1UNL     H2   27  -0.404   0.008  -0.286
    1UNL     H3   28  -0.454   0.139  -0.169
    1UNL     H4   29  -0.198  -0.027  -0.137
    1UNL     H5   30  -0.390   0.260   0.039
    1UNL     H6   31  -0.426   0.147   0.178
    1UNL     H7   32  -0.569   0.027   0.042
    1UNL     H8   33  -0.227   0.080   0.216
    1UNL     H9   34  -0.051   0.172   0.047
    1UNL    H10   35   0.006   0.085   0.192
    1UNL    H11   36  -0.027  -0.081  -0.066
    1UNL    H12   37   0.103   0.186  -0.131
    1UNL    H13   38   0.345   0.338  -0.234
    1UNL    H14   39   0.572   0.367  -0.173
    1UNL    H15   40   0.699   0.163  -0.090
    1UNL    H16   41   0.577  -0.027   0.008
    1UNL    H17   42   0.262  -0.259  -0.022
    1UNL    H18   43   0.394  -0.210   0.089
    1UNL    H19   44   0.203  -0.137   0.244
    1UNL    H20   45   0.167  -0.304   0.185
    1UNL    H21   46  -0.260  -0.148   0.244
    1UNL    H22   47  -0.209  -0.237  -0.040
    1UNL    H23   48  -0.365  -0.183   0.022
    1UNL    H24   49  -0.223  -0.378   0.164
   0.00000   0.00000   0.00000   0.00000   0.00000   0.00000   0.00000   0.00000   0.00000
Generated with MDTraj, t= 41.0
 49
    1UNL     C1    1  -0.372   0.105  -0.214
    1UNL     C2    2  -0.291   0.046  -0.107
    1UNL     C3    3  -0.298   0.055   0.024
    1UNL     C4    4  -0.420   0.122   0.079
    1UNL     O1    5  -0.533   0.127   0.006
    1UNL     C5    6  -0.189   0.012   0.120
    1UNL     C6    7  -0.044   0.064   0.073
    1UNL     C7    8   0.034  -0.043   0.003
    1UNL     C8    9   0.162   0.017  -0.042
    1UNL     N1   10   0.176   0.127  -0.121
    1UNL     C9   11   0.316   0.148  -0.118
    1UNL    C10   12   0.384   0.258  -0.172
    1UNL    C11   13   0.523   0.253  -0.168
    1UNL    C12   14   0.586   0.148  -0.102
    1UNL    C13   15   0.525   0.038  -0.046
    1UNL    C14   16   0.384   0.038  -0.057
    1UNL    C15   17   0.277  -0.043  -0.002
    1UNL    C16   18   0.297  -0.162   0.084
    1UNL    C17   19   0.183  -0.172   0.184
    1UNL     N2   20   0.049  -0.145   0.111
    1UNL    C18   21  -0.065  -0.199   0.170
    1UNL     O2   22  -0.056  -0.306   0.233
    1UNL    C19   23  -0.198  -0.133   0.155
    1UNL    C20   24  -0.277  -0.216   0.055
    1UNL     O3   25  -0.287  -0.347   0.093
    1UNL     H1   26  -0.349   0.057  -0.310
    1UNL     H2   27  -0.477   0.094  -0.206
    1UNL     H3   28  -0.346   0.214  -0.213
    1UNL     H4   29  -0.195   0.001  -0.134
    1UNL     H5   30  -0.390   0.234   0.099
    1UNL     H6   31  -0.442   0.072   0.172
    1UNL     H7   32  -0.603   0.054   0.028
    1UNL     H8   33  -0.225   0.065   0.215
    1UNL     H9   34  -0.058   0.158   0.010
    1UNL    H10   35  -0.006   0.101   0.174
    1UNL    H11   36  -0.021  -0.091  -0.079
    1UNL    H12   37   0.104   0.189  -0.161
    1UNL    H13   38   0.324   0.341  -0.211
    1UNL    H14   39   0.579   0.328  -0.224
    1UNL    H15   40   0.696   0.159  -0.096
    1UNL    H16   41   0.573  -0.043  -0.011
    1UNL    H17   42   0.302  -0.248   0.015
    1UNL    H18   43   0.396  -0.164   0.135
    1UNL    H19   44   0.202  -0.090   0.253
    1UNL    H20   45   0.187  -0.267   0.238
    1UNL    H21   46  -0.250  -0.135   0.251
    1UNL    H22   47  -0.228  -0.215  -0.039
    1UNL    H23   48  -0.378  -0.191   0.033
    1UNL    H24   49  -0.204  -0.374   0.139
   0.00000   0.00000   0.00000   0.00000   0.00000   0.00000   0.00000   0.00000   0.00000
Generated with MDTraj, t= 42.0
 49
    1UNL     C1    1  -0.384   0.127  -0.208
    1UNL     C2    2  -0.293   0.056  -0.114
    1UNL     C3    3  -0.305   0.068   0.017
    1UNL     C4    4  -0.430   0.142   0.077
    1UNL     O1    5  -0.550   0.091   0.021
    1UNL     C5    6  -0.206   0.007   0.114
    1UNL     C6    7  -0.066   0.071   0.082
    1UNL     C7    8   0.034  -0.032   0.022
    1UNL     C8    9   0.163   0.018  -0.024
    1UNL     N1   10   0.189   0.140  -0.092
    1UNL     C9   11   0.324   0.151  -0.124
    1UNL    C10   12   0.397   0.249  -0.190
    1UNL    C11   13   0.535   0.238  -0.183
    1UNL    C12   14   0.610   0.135  -0.124
    1UNL    C13   15   0.532   0.047  -0.050
    1UNL    C14   16   0.392   0.050  -0.054
    1UNL    C15   17   0.290  -0.033   0.009
    1UNL    C16   18   0.308  -0.154   0.093
    1UNL    C17   19   0.182  -0.174   0.177
    1UNL     N2   20   0.049  -0.156   0.108
    1UNL    C18   21  -0.062  -0.205   0.164
    1UNL     O2   22  -0.054  -0.294   0.251
    1UNL    C19   23  -0.202  -0.146   0.137
    1UNL    C20   24  -0.278  -0.236   0.031
    1UNL     O3   25  -0.302  -0.361   0.088
    1UNL     H1   26  -0.411   0.067  -0.292
    1UNL     H2   27  -0.481   0.151  -0.171
    1UNL     H3   28  -0.334   0.223  -0.235
    1UNL     H4   29  -0.212  -0.002  -0.148
    1UNL     H5   30  -0.421   0.255   0.055
    1UNL     H6   31  -0.432   0.133   0.183
    1UNL     H7   32  -0.563   0.003   0.055
    1UNL     H8   33  -0.250   0.054   0.208
    1UNL     H9   34  -0.080   0.173   0.031
    1UNL    H10   35  -0.025   0.100   0.184
    1UNL    H11   36  -0.021  -0.070  -0.064
    1UNL    H12   37   0.128   0.203  -0.144
    1UNL    H13   38   0.350   0.334  -0.237
    1UNL    H14   39   0.593   0.313  -0.232
    1UNL    H15   40   0.712   0.116  -0.134
    1UNL    H16   41   0.581  -0.043  -0.003
    1UNL    H17   42   0.339  -0.240   0.032
    1UNL    H18   43   0.406  -0.134   0.146
    1UNL    H19   44   0.181  -0.106   0.264
    1UNL    H20   45   0.176  -0.271   0.221
    1UNL    H21   46  -0.257  -0.161   0.232
    1UNL    H22   47  -0.228  -0.253  -0.059
    1UNL    H23   48  -0.368  -0.195  -0.002
    1UNL    H24   49  -0.229  -0.373   0.153
   0.00000   0.00000   0.00000   0.00000   0.00000   0.00000   0.00000   0.00000   0.00000
Generated with MDTraj, t= 43.0
 49
    1UNL     C1    1  -0.381   0.093  -0.216
    1UNL     C2    2  -0.284   0.073  -0.113
    1UNL     C3    3  -0.307   0.079   0.021
    1UNL     C4    4  -0.434   0.138   0.075
    1UNL     O1    5  -0.542   0.041   0.052
    1UNL     C5    6  -0.200   0.025   0.120
    1UNL     C6    7  -0.064   0.087   0.087
    1UNL     C7    8   0.032  -0.017   0.031
    1UNL     C8    9   0.170   0.035  -0.004
    1UNL     N1   10   0.189   0.146  -0.087
    1UNL     C9   11   0.326   0.163  -0.107
    1UNL    C10   12   0.401   0.244  -0.194
    1UNL    C11   13   0.532   0.213  -0.214
    1UNL    C12   14   0.600   0.116  -0.131
    1UNL    C13   15   0.531   0.033  -0.048
    1UNL    C14   16   0.390   0.057  -0.045
    1UNL    C15   17   0.287  -0.031   0.015
    1UNL    C16   18   0.296  -0.163   0.083
    1UNL    C17   19   0.173  -0.188   0.177
    1UNL     N2   20   0.040  -0.135   0.129
    1UNL    C18   21  -0.073  -0.191   0.172
    1UNL     O2   22  -0.073  -0.292   0.246
    1UNL    C19   23  -0.208  -0.135   0.136
    1UNL    C20   24  -0.269  -0.211   0.017
    1UNL     O3   25  -0.269  -0.355   0.045
    1UNL     H1   26  -0.346   0.043  -0.302
    1UNL     H2   27  -0.477   0.042  -0.200
    1UNL     H3   28  -0.386   0.196  -0.234
    1UNL     H4   29  -0.187   0.028  -0.146
    1UNL     H5   30  -0.459   0.234   0.018
    1UNL     H6   31  -0.427   0.172   0.175
    1UNL     H7   32  -0.506  -0.040   0.078
    1UNL     H8   33  -0.226   0.069   0.218
    1UNL     H9   34  -0.085   0.161   0.005
    1UNL    H10   35  -0.014   0.153   0.168
    1UNL    H11   36  -0.011  -0.054  -0.061
    1UNL    H12   37   0.123   0.220  -0.104
    1UNL    H13   38   0.355   0.317  -0.255
    1UNL    H14   39   0.594   0.275  -0.278
    1UNL    H15   40   0.710   0.090  -0.148
    1UNL    H16   41   0.577  -0.049   0.008
    1UNL    H17   42   0.308  -0.235   0.001
    1UNL    H18   43   0.393  -0.178   0.139
    1UNL    H19   44   0.192  -0.152   0.282
    1UNL    H20   45   0.160  -0.293   0.184
    1UNL    H21   46  -0.265  -0.167   0.227
    1UNL    H22   47  -0.222  -0.188  -0.074
    1UNL    H23   48  -0.363  -0.171  -0.002
    1UNL    H24   49  -0.200  -0.365   0.114
   0.00000   0.00000   0.00000   0.00000   0.00000   0.00000   0.00000   0.00000   0.00000
Generated with MDTraj, t= 44.0
 49
    1UNL     C1    1  -0.390   0.087  -0.216
    1UNL     C2    2  -0.286   0.080  -0.115
    1UNL     C3    3  -0.307   0.088   0.018
    1UNL     C4    4  -0.446   0.115   0.066
    1UNL     O1    5  -0.526  -0.001   0.068
    1UNL     C5    6  -0.209   0.037   0.125
    1UNL     C6    7  -0.064   0.091   0.107
    1UNL     C7    8   0.027  -0.010   0.036
    1UNL     C8    9   0.163   0.044  -0.007
    1UNL     N1   10   0.197   0.152  -0.085
    1UNL     C9   11   0.330   0.152  -0.105
    1UNL    C10   12   0.414   0.244  -0.176
    1UNL    C11   13   0.544   0.219  -0.200
    1UNL    C12   14   0.596   0.095  -0.151
    1UNL    C13   15   0.522   0.003  -0.074
    1UNL    C14   16   0.384   0.025  -0.059
    1UNL    C15   17   0.273  -0.034   0.006
    1UNL    C16   18   0.283  -0.152   0.093
    1UNL    C17   19   0.170  -0.164   0.195
    1UNL     N2   20   0.040  -0.125   0.128
    1UNL    C18   21  -0.076  -0.182   0.177
    1UNL     O2   22  -0.075  -0.281   0.252
    1UNL    C19   23  -0.210  -0.127   0.138
    1UNL    C20   24  -0.249  -0.191   0.004
    1UNL     O3   25  -0.251  -0.339   0.014
    1UNL     H1   26  -0.349   0.082  -0.312
    1UNL     H2   27  -0.458  -0.001  -0.220
    1UNL     H3   28  -0.436   0.178  -0.211
    1UNL     H4   29  -0.188   0.052  -0.141
    1UNL     H5   30  -0.512   0.190   0.015
    1UNL     H6   31  -0.442   0.148   0.166
    1UNL     H7   32  -0.480  -0.086   0.095
    1UNL     H8   33  -0.232   0.078   0.225
    1UNL     H9   34  -0.055   0.194   0.063
    1UNL    H10   35  -0.018   0.097   0.214
    1UNL    H11   36  -0.018  -0.052  -0.051
    1UNL    H12   37   0.119   0.203  -0.124
    1UNL    H13   38   0.372   0.344  -0.189
    1UNL    H14   39   0.607   0.290  -0.250
    1UNL    H15   40   0.698   0.089  -0.154
    1UNL    H16   41   0.556  -0.085  -0.031
    1UNL    H17   42   0.277  -0.246   0.037
    1UNL    H18   43   0.386  -0.153   0.139
    1UNL    H19   44   0.192  -0.088   0.277
    1UNL    H20   45   0.165  -0.265   0.232
    1UNL    H21   46  -0.279  -0.172   0.216
    1UNL    H22   47  -0.181  -0.158  -0.069
    1UNL    H23   48  -0.336  -0.149  -0.036
    1UNL    H24   49  -0.194  -0.365   0.090
   0.00000   0.00000   0.00000   0.00000   0.00000   0.00000   0.00000   0.00000   0.00000
Generated with MDTraj, t= 45.0
 49
    1UNL     C1    1  -0.398   0.150  -0.216
    1UNL     C2    2  -0.301   0.088  -0.121
    1UNL     C3    3  -0.321   0.071   0.012
    1UNL     C4    4  -0.462   0.086   0.072
    1UNL     O1    5  -0.539  -0.028   0.064
    1UNL     C5    6  -0.213   0.032   0.109
    1UNL     C6    7  -0.073   0.099   0.086
    1UNL     C7    8   0.031  -0.010   0.036
    1UNL     C8    9   0.171   0.040  -0.009
    1UNL     N1   10   0.205   0.157  -0.064
    1UNL     C9   11   0.336   0.153  -0.106
    1UNL    C10   12   0.418   0.240  -0.180
    1UNL    C11   13   0.550   0.207  -0.196
    1UNL    C12   14   0.606   0.083  -0.152
    1UNL    C13   15   0.523   0.003  -0.081
    1UNL    C14   16   0.392   0.035  -0.056
    1UNL    C15   17   0.286  -0.035   0.009
    1UNL    C16   18   0.273  -0.166   0.078
    1UNL    C17   19   0.171  -0.146   0.194
    1UNL     N2   20   0.038  -0.112   0.136
    1UNL    C18   21  -0.077  -0.178   0.186
    1UNL     O2   22  -0.062  -0.276   0.254
    1UNL    C19   23  -0.208  -0.124   0.134
    1UNL    C20   24  -0.242  -0.204   0.009
    1UNL     O3   25  -0.247  -0.343   0.037
    1UNL     H1   26  -0.375   0.129  -0.315
    1UNL     H2   27  -0.495   0.110  -0.203
    1UNL     H3   28  -0.391   0.254  -0.199
    1UNL     H4   29  -0.197   0.071  -0.153
    1UNL     H5   30  -0.526   0.162   0.022
    1UNL     H6   31  -0.473   0.118   0.171
    1UNL     H7   32  -0.475  -0.109   0.082
    1UNL     H8   33  -0.241   0.079   0.203
    1UNL     H9   34  -0.078   0.191   0.022
    1UNL    H10   35  -0.031   0.131   0.190
    1UNL    H11   36  -0.008  -0.054  -0.053
    1UNL    H12   37   0.137   0.227  -0.085
    1UNL    H13   38   0.378   0.333  -0.209
    1UNL    H14   39   0.624   0.282  -0.225
    1UNL    H15   40   0.708   0.041  -0.178
    1UNL    H16   41   0.568  -0.093  -0.041
    1UNL    H17   42   0.224  -0.237   0.012
    1UNL    H18   43   0.364  -0.218   0.117
    1UNL    H19   44   0.213  -0.068   0.267
    1UNL    H20   45   0.152  -0.242   0.239
    1UNL    H21   46  -0.289  -0.151   0.208
    1UNL    H22   47  -0.158  -0.199  -0.058
    1UNL    H23   48  -0.321  -0.166  -0.049
    1UNL    H24   49  -0.179  -0.363   0.106
   0.00000   0.00000   0.00000   0.00000   0.00000   0.00000   0.00000   0.00000   0.00000
Generated with MDTraj, t= 46.0
 49
    1UNL     C1    1  -0.419   0.139  -0.197
    1UNL     C2    2  -0.307   0.106  -0.108
    1UNL     C3    3  -0.317   0.083   0.023
    1UNL     C4    4  -0.451   0.079   0.086
    1UNL     O1    5  -0.536  -0.021   0.023
    1UNL     C5    6  -0.206   0.030   0.109
    1UNL     C6    7  -0.068   0.092   0.068
    1UNL     C7    8   0.038  -0.015   0.015
    1UNL     C8    9   0.169   0.045  -0.006
    1UNL     N1   10   0.201   0.160  -0.083
    1UNL     C9   11   0.339   0.156  -0.103
    1UNL    C10   12   0.421   0.242  -0.182
    1UNL    C11   13   0.558   0.210  -0.192
    1UNL    C12   14   0.604   0.092  -0.137
    1UNL    C13   15   0.521  -0.000  -0.076
    1UNL    C14   16   0.391   0.039  -0.052
    1UNL    C15   17   0.285  -0.022   0.017
    1UNL    C16   18   0.286  -0.163   0.085
    1UNL    C17   19   0.168  -0.183   0.181
    1UNL     N2   20   0.042  -0.129   0.120
    1UNL    C18   21  -0.075  -0.174   0.181
    1UNL     O2   22  -0.072  -0.257   0.263
    1UNL    C19   23  -0.206  -0.124   0.135
    1UNL    C20   24  -0.242  -0.217   0.017
    1UNL     O3   25  -0.251  -0.345   0.056
    1UNL     H1   26  -0.380   0.154  -0.293
    1UNL     H2   27  -0.484   0.063  -0.209
    1UNL     H3   28  -0.460   0.233  -0.164
    1UNL     H4   29  -0.208   0.095  -0.149
    1UNL     H5   30  -0.493   0.178   0.104
    1UNL     H6   31  -0.442   0.043   0.184
    1UNL     H7   32  -0.612  -0.035   0.093
    1UNL     H8   33  -0.231   0.077   0.205
    1UNL     H9   34  -0.074   0.166  -0.018
    1UNL    H10   35  -0.018   0.156   0.150
    1UNL    H11   36   0.009  -0.043  -0.084
    1UNL    H12   37   0.140   0.239  -0.100
    1UNL    H13   38   0.376   0.322  -0.241
    1UNL    H14   39   0.622   0.267  -0.256
    1UNL    H15   40   0.700   0.051  -0.163
    1UNL    H16   41   0.555  -0.098  -0.062
    1UNL    H17   42   0.290  -0.246   0.015
    1UNL    H18   43   0.376  -0.171   0.150
    1UNL    H19   44   0.172  -0.129   0.282
    1UNL    H20   45   0.152  -0.290   0.200
    1UNL    H21   46  -0.282  -0.143   0.215
    1UNL    H22   47  -0.177  -0.211  -0.071
    1UNL    H23   48  -0.342  -0.204  -0.017
    1UNL    H24   49  -0.195  -0.355   0.137
   0.00000   0.00000   0.00000   0.00000   0.00000   0.00000   0.00000   0.00000   0.00000
Generated with MDTraj, t= 47.0
 49
    1UNL     C1    1  -0.401   0.121  -0.209
    1UNL     C2    2  -0.295   0.104  -0.099
    1UNL     C3    3  -0.316   0.078   0.031
    1UNL     C4    4  -0.455   0.079   0.091
    1UNL     O1    5  -0.553   0.004   0.006
    1UNL     C5    6  -0.198   0.035   0.123
    1UNL     C6    7  -0.057   0.083   0.075
    1UNL     C7    8   0.031  -0.023   0.021
    1UNL     C8    9   0.168   0.022  -0.027
    1UNL     N1   10   0.196   0.134  -0.099
    1UNL     C9   11   0.337   0.145  -0.120
    1UNL    C10   12   0.413   0.238  -0.190
    1UNL    C11   13   0.548   0.233  -0.187
    1UNL    C12   14   0.612   0.127  -0.117
    1UNL    C13   15   0.539   0.022  -0.055
    1UNL    C14   16   0.396   0.031  -0.059
    1UNL    C15   17   0.284  -0.045  -0.000
    1UNL    C16   18   0.290  -0.172   0.075
    1UNL    C17   19   0.181  -0.167   0.178
    1UNL     N2   20   0.048  -0.133   0.123
    1UNL    C18   21  -0.072  -0.186   0.187
    1UNL     O2   22  -0.064  -0.275   0.267
    1UNL    C19   23  -0.205  -0.119   0.150
    1UNL    C20   24  -0.278  -0.194   0.033
    1UNL     O3   25  -0.271  -0.331   0.051
    1UNL     H1   26  -0.358   0.159  -0.296
    1UNL     H2   27  -0.442   0.032  -0.241
    1UNL     H3   28  -0.481   0.187  -0.187
    1UNL     H4   29  -0.190   0.108  -0.121
    1UNL     H5   30  -0.497   0.180   0.088
    1UNL     H6   31  -0.446   0.060   0.195
    1UNL     H7   32  -0.621  -0.041   0.054
    1UNL     H8   33  -0.217   0.080   0.220
    1UNL     H9   34  -0.060   0.178   0.011
    1UNL    H10   35   0.012   0.119   0.162
    1UNL    H11   36  -0.016  -0.076  -0.059
    1UNL    H12   37   0.136   0.163  -0.175
    1UNL    H13   38   0.364   0.321  -0.236
    1UNL    H14   39   0.609   0.304  -0.244
    1UNL    H15   40   0.718   0.134  -0.123
    1UNL    H16   41   0.597  -0.066  -0.024
    1UNL    H17   42   0.270  -0.250   0.002
    1UNL    H18   43   0.390  -0.194   0.119
    1UNL    H19   44   0.202  -0.077   0.244
    1UNL    H20   45   0.158  -0.256   0.242
    1UNL    H21   46  -0.268  -0.127   0.241
    1UNL    H22   47  -0.223  -0.178  -0.062
    1UNL    H23   48  -0.384  -0.169   0.020
    1UNL    H24   49  -0.198  -0.349   0.115
   0.00000   0.00000   0.00000   0.00000   0.00000   0.00000   0.00000   0.00000   0.00000
Generated with MDTraj, t= 48.0
 49
    1UNL     C1    1  -0.372   0.134  -0.209
    1UNL     C2    2  -0.268   0.089  -0.115
    1UNL     C3    3  -0.297   0.084   0.016
    1UNL     C4    4  -0.433   0.117   0.065
    1UNL     O1    5  -0.522   0.022   0.022
    1UNL     C5    6  -0.201   0.030   0.121
    1UNL     C6    7  -0.052   0.076   0.101
    1UNL     C7    8   0.024  -0.027   0.021
    1UNL     C8    9   0.150   0.015  -0.045
    1UNL     N1   10   0.178   0.127  -0.121
    1UNL     C9   11   0.313   0.150  -0.132
    1UNL    C10   12   0.400   0.244  -0.185
    1UNL    C11   13   0.532   0.229  -0.167
    1UNL    C12   14   0.594   0.125  -0.102
    1UNL    C13   15   0.518   0.032  -0.045
    1UNL    C14   16   0.375   0.043  -0.062
    1UNL    C15   17   0.275  -0.042  -0.014
    1UNL    C16   18   0.297  -0.158   0.083
    1UNL    C17   19   0.180  -0.169   0.178
    1UNL     N2   20   0.050  -0.144   0.110
    1UNL    C18   21  -0.068  -0.195   0.175
    1UNL     O2   22  -0.049  -0.289   0.252
    1UNL    C19   23  -0.203  -0.128   0.149
    1UNL    C20   24  -0.267  -0.210   0.044
    1UNL     O3   25  -0.290  -0.350   0.089
    1UNL     H1   26  -0.343   0.116  -0.306
    1UNL     H2   27  -0.462   0.077  -0.197
    1UNL     H3   28  -0.395   0.232  -0.196
    1UNL     H4   29  -0.168   0.053  -0.145
    1UNL     H5   30  -0.450   0.223   0.037
    1UNL     H6   31  -0.441   0.109   0.171
    1UNL     H7   32  -0.614   0.038   0.038
    1UNL     H8   33  -0.240   0.060   0.220
    1UNL     H9   34  -0.053   0.174   0.038
    1UNL    H10   35   0.008   0.112   0.191
    1UNL    H11   36  -0.035  -0.067  -0.059
    1UNL    H12   37   0.108   0.197  -0.142
    1UNL    H13   38   0.355   0.331  -0.230
    1UNL    H14   39   0.577   0.325  -0.190
    1UNL    H15   40   0.706   0.125  -0.104
    1UNL    H16   41   0.553  -0.047   0.020
    1UNL    H17   42   0.302  -0.249   0.025
    1UNL    H18   43   0.398  -0.146   0.125
    1UNL    H19   44   0.181  -0.087   0.255
    1UNL    H20   45   0.175  -0.265   0.236
    1UNL    H21   46  -0.267  -0.145   0.236
    1UNL    H22   47  -0.196  -0.208  -0.045
    1UNL    H23   48  -0.366  -0.164   0.021
    1UNL    H24   49  -0.215  -0.373   0.147
   0.00000   0.00000   0.00000   0.00000   0.00000   0.00000   0.00000   0.00000   0.00000
Generated with MDTraj, t= 49.0
 49
    1UNL     C1    1  -0.336   0.128  -0.233
    1UNL     C2    2  -0.263   0.066  -0.112
    1UNL     C3    3  -0.289   0.069   0.022
    1UNL     C4    4  -0.423   0.116   0.068
    1UNL     O1    5  -0.527   0.035   0.019
    1UNL     C5    6  -0.194   0.027   0.119
    1UNL     C6    7  -0.050   0.074   0.085
    1UNL     C7    8   0.033  -0.041   0.017
    1UNL     C8    9   0.167   0.014  -0.019
    1UNL     N1   10   0.184   0.124  -0.097
    1UNL     C9   11   0.324   0.151  -0.112
    1UNL    C10   12   0.380   0.259  -0.179
    1UNL    C11   13   0.513   0.255  -0.194
    1UNL    C12   14   0.589   0.153  -0.133
    1UNL    C13   15   0.537   0.054  -0.062
    1UNL    C14   16   0.394   0.044  -0.060
    1UNL    C15   17   0.293  -0.043   0.003
    1UNL    C16   18   0.298  -0.178   0.078
    1UNL    C17   19   0.171  -0.192   0.168
    1UNL     N2   20   0.043  -0.154   0.113
    1UNL    C18   21  -0.073  -0.193   0.176
    1UNL     O2   22  -0.084  -0.288   0.255
    1UNL    C19   23  -0.210  -0.129   0.154
    1UNL    C20   24  -0.290  -0.206   0.057
    1UNL     O3   25  -0.308  -0.343   0.096
    1UNL     H1   26  -0.351   0.058  -0.306
    1UNL     H2   27  -0.432   0.159  -0.200
    1UNL     H3   28  -0.285   0.209  -0.268
    1UNL     H4   29  -0.180   0.011  -0.148
    1UNL     H5   30  -0.454   0.222   0.041
    1UNL     H6   31  -0.426   0.124   0.176
    1UNL     H7   32  -0.616   0.083   0.035
    1UNL     H8   33  -0.237   0.076   0.211
    1UNL     H9   34  -0.036   0.178   0.035
    1UNL    H10   35   0.002   0.100   0.184
    1UNL    H11   36  -0.013  -0.064  -0.077
    1UNL    H12   37   0.116   0.200  -0.107
    1UNL    H13   38   0.316   0.341  -0.206
    1UNL    H14   39   0.569   0.332  -0.245
    1UNL    H15   40   0.690   0.168  -0.136
    1UNL    H16   41   0.598  -0.017  -0.013
    1UNL    H17   42   0.317  -0.258   0.007
    1UNL    H18   43   0.386  -0.181   0.143
    1UNL    H19   44   0.190  -0.149   0.269
    1UNL    H20   45   0.161  -0.304   0.187
    1UNL    H21   46  -0.267  -0.142   0.247
    1UNL    H22   47  -0.230  -0.200  -0.041
    1UNL    H23   48  -0.393  -0.157   0.048
    1UNL    H24   49  -0.235  -0.363   0.159
   0.00000   0.00000   0.00000   0.00000   0.00000   0.00000   0.00000   0.00000   0.00000
Generated with MDTraj, t= 50.0
 49
    1UNL     C1    1  -0.348   0.088  -0.231
    1UNL     C2    2  -0.255   0.066  -0.113
    1UNL     C3    3  -0.287   0.079   0.016
    1UNL     C4    4  -0.419   0.114   0.064
    1UNL     O1    5  -0.530   0.053  -0.007
    1UNL     C5    6  -0.190   0.032   0.127
    1UNL     C6    7  -0.052   0.080   0.119
    1UNL     C7    8   0.030  -0.019   0.032
    1UNL     C8    9   0.157   0.037  -0.013
    1UNL     N1   10   0.179   0.154  -0.082
    1UNL     C9   11   0.318   0.161  -0.112
    1UNL    C10   12   0.391   0.261  -0.175
    1UNL    C11   13   0.531   0.240  -0.189
    1UNL    C12   14   0.589   0.125  -0.134
    1UNL    C13   15   0.518   0.035  -0.062
    1UNL    C14   16   0.381   0.045  -0.061
    1UNL    C15   17   0.276  -0.032  -0.010
    1UNL    C16   18   0.293  -0.162   0.064
    1UNL    C17   19   0.175  -0.198   0.158
    1UNL     N2   20   0.042  -0.146   0.113
    1UNL    C18   21  -0.069  -0.197   0.176
    1UNL     O2   22  -0.063  -0.303   0.241
    1UNL    C19   23  -0.206  -0.127   0.156
    1UNL    C20   24  -0.285  -0.218   0.056
    1UNL     O3   25  -0.308  -0.344   0.106
    1UNL     H1   26  -0.318   0.029  -0.311
    1UNL     H2   27  -0.447   0.059  -0.222
    1UNL     H3   28  -0.345   0.185  -0.271
    1UNL     H4   29  -0.160   0.017  -0.143
    1UNL     H5   30  -0.416   0.228   0.059
    1UNL     H6   31  -0.439   0.091   0.169
    1UNL     H7   32  -0.617   0.060   0.051
    1UNL     H8   33  -0.229   0.078   0.224
    1UNL     H9   34  -0.050   0.190   0.081
    1UNL    H10   35  -0.001   0.097   0.219
    1UNL    H11   36  -0.037  -0.058  -0.045
    1UNL    H12   37   0.101   0.192  -0.136
    1UNL    H13   38   0.353   0.351  -0.214
    1UNL    H14   39   0.599   0.304  -0.242
    1UNL    H15   40   0.699   0.103  -0.150
    1UNL    H16   41   0.572  -0.052  -0.018
    1UNL    H17   42   0.310  -0.244  -0.005
    1UNL    H18   43   0.389  -0.157   0.116
    1UNL    H19   44   0.204  -0.164   0.258
    1UNL    H20   45   0.177  -0.313   0.173
    1UNL    H21   46  -0.258  -0.136   0.251
    1UNL    H22   47  -0.222  -0.243  -0.038
    1UNL    H23   48  -0.383  -0.166   0.027
    1UNL    H24   49  -0.226  -0.376   0.149
   0.00000   0.00000   0.00000   0.00000   0.00000   0.00000   0.00000   0.00000   0.00000
Generated with MDTraj, t= 51.0
 49
    1UNL     C1    1  -0.375   0.093  -0.223
    1UNL     C2    2  -0.284   0.058  -0.110
    1UNL     C3    3  -0.317   0.058   0.018
    1UNL     C4    4  -0.450   0.113   0.054
    1UNL     O1    5  -0.550   0.061  -0.026
    1UNL     C5    6  -0.210   0.027   0.128
    1UNL     C6    7  -0.065   0.086   0.101
    1UNL     C7    8   0.034  -0.010   0.037
    1UNL     C8    9   0.171   0.038  -0.017
    1UNL     N1   10   0.199   0.160  -0.065
    1UNL     C9   11   0.335   0.170  -0.094
    1UNL    C10   12   0.413   0.268  -0.161
    1UNL    C11   13   0.545   0.232  -0.189
    1UNL    C12   14   0.605   0.114  -0.149
    1UNL    C13   15   0.523   0.018  -0.091
    1UNL    C14   16   0.386   0.046  -0.061
    1UNL    C15   17   0.283  -0.040  -0.007
    1UNL    C16   18   0.290  -0.171   0.059
    1UNL    C17   19   0.187  -0.179   0.171
    1UNL     N2   20   0.051  -0.136   0.123
    1UNL    C18   21  -0.060  -0.198   0.177
    1UNL     O2   22  -0.042  -0.303   0.240
    1UNL    C19   23  -0.202  -0.132   0.169
    1UNL    C20   24  -0.290  -0.214   0.070
    1UNL     O3   25  -0.297  -0.350   0.092
    1UNL     H1   26  -0.318   0.119  -0.306
    1UNL     H2   27  -0.432   0.016  -0.253
    1UNL     H3   28  -0.436   0.180  -0.205
    1UNL     H4   29  -0.188   0.010  -0.134
    1UNL     H5   30  -0.462   0.225   0.041
    1UNL     H6   31  -0.458   0.077   0.159
    1UNL     H7   32  -0.642   0.080  -0.000
    1UNL     H8   33  -0.239   0.083   0.222
    1UNL     H9   34  -0.075   0.187   0.045
    1UNL    H10   35  -0.024   0.128   0.198
    1UNL    H11   36  -0.022  -0.049  -0.047
    1UNL    H12   37   0.129   0.234  -0.054
    1UNL    H13   38   0.376   0.363  -0.202
    1UNL    H14   39   0.600   0.310  -0.243
    1UNL    H15   40   0.700   0.082  -0.175
    1UNL    H16   41   0.555  -0.079  -0.070
    1UNL    H17   42   0.254  -0.241  -0.017
    1UNL    H18   43   0.390  -0.209   0.079
    1UNL    H19   44   0.229  -0.110   0.245
    1UNL    H20   45   0.194  -0.282   0.227
    1UNL    H21   46  -0.236  -0.137   0.270
    1UNL    H22   47  -0.265  -0.186  -0.037
    1UNL    H23   48  -0.401  -0.194   0.086
    1UNL    H24   49  -0.220  -0.381   0.145
   0.00000   0.00000   0.00000   0.00000   0.00000   0.00000   0.00000   0.00000   0.00000
Generated with MDTraj, t= 52.0
 49
    1UNL     C1    1  -0.390   0.098  -0.224
    1UNL     C2    2  -0.290   0.069  -0.118
    1UNL     C3    3  -0.307   0.062   0.017
    1UNL     C4    4  -0.450   0.090   0.080
    1UNL     O1    5  -0.550   0.052  -0.009
    1UNL     C5    6  -0.203   0.018   0.109
    1UNL     C6    7  -0.065   0.085   0.072
    1UNL     C7    8   0.034  -0.018   0.024
    1UNL     C8    9   0.172   0.045  -0.002
    1UNL     N1   10   0.205   0.176  -0.054
    1UNL     C9   11   0.337   0.171  -0.088
    1UNL    C10   12   0.416   0.263  -0.152
    1UNL    C11   13   0.549   0.238  -0.176
    1UNL    C12   14   0.597   0.107  -0.157
    1UNL    C13   15   0.521   0.005  -0.101
    1UNL    C14   16   0.391   0.036  -0.060
    1UNL    C15   17   0.284  -0.040  -0.003
    1UNL    C16   18   0.278  -0.179   0.051
    1UNL    C17   19   0.174  -0.184   0.165
    1UNL     N2   20   0.046  -0.130   0.124
    1UNL    C18   21  -0.063  -0.184   0.186
    1UNL     O2   22  -0.060  -0.271   0.272
    1UNL    C19   23  -0.200  -0.130   0.146
    1UNL    C20   24  -0.258  -0.221   0.039
    1UNL     O3   25  -0.288  -0.349   0.100
    1UNL     H1   26  -0.341   0.113  -0.315
    1UNL     H2   27  -0.455   0.015  -0.225
    1UNL     H3   28  -0.440   0.186  -0.195
    1UNL     H4   29  -0.207   0.023  -0.162
    1UNL     H5   30  -0.457   0.202   0.093
    1UNL     H6   31  -0.477   0.043   0.179
    1UNL     H7   32  -0.633   0.071   0.030
    1UNL     H8   33  -0.229   0.072   0.204
    1UNL     H9   34  -0.081   0.176   0.004
    1UNL    H10   35  -0.023   0.134   0.166
    1UNL    H11   36   0.003  -0.049  -0.077
    1UNL    H12   37   0.154   0.264  -0.074
    1UNL    H13   38   0.368   0.356  -0.164
    1UNL    H14   39   0.609   0.314  -0.220
    1UNL    H15   40   0.703   0.090  -0.183
    1UNL    H16   41   0.552  -0.102  -0.097
    1UNL    H17   42   0.256  -0.249  -0.031
    1UNL    H18   43   0.379  -0.210   0.076
    1UNL    H19   44   0.198  -0.133   0.259
    1UNL    H20   45   0.161  -0.297   0.194
    1UNL    H21   46  -0.261  -0.137   0.236
    1UNL    H22   47  -0.179  -0.251  -0.033
    1UNL    H23   48  -0.340  -0.172  -0.018
    1UNL    H24   49  -0.216  -0.370   0.165
   0.00000   0.00000   0.00000   0.00000   0.00000   0.00000   0.00000   0.00000   0.00000
Generated with MDTraj, t= 53.0
 49
    1UNL     C1    1  -0.386   0.105  -0.216
    1UNL     C2    2  -0.288   0.075  -0.112
    1UNL     C3    3  -0.310   0.071   0.018
    1UNL     C4    4  -0.443   0.097   0.076
    1UNL     O1    5  -0.544   0.019   0.008
    1UNL     C5    6  -0.204   0.027   0.125
    1UNL     C6    7  -0.060   0.086   0.085
    1UNL     C7    8   0.023  -0.023   0.016
    1UNL     C8    9   0.162   0.028  -0.014
    1UNL     N1   10   0.189   0.153  -0.073
    1UNL     C9   11   0.327   0.153  -0.105
    1UNL    C10   12   0.414   0.258  -0.155
    1UNL    C11   13   0.550   0.240  -0.164
    1UNL    C12   14   0.606   0.109  -0.129
    1UNL    C13   15   0.526   0.008  -0.090
    1UNL    C14   16   0.384   0.031  -0.069
    1UNL    C15   17   0.277  -0.043  -0.004
    1UNL    C16   18   0.272  -0.178   0.044
    1UNL    C17   19   0.176  -0.188   0.159
    1UNL     N2   20   0.039  -0.136   0.114
    1UNL    C18   21  -0.071  -0.171   0.194
    1UNL     O2   22  -0.038  -0.236   0.287
    1UNL    C19   23  -0.207  -0.125   0.151
    1UNL    C20   24  -0.257  -0.207   0.029
    1UNL     O3   25  -0.271  -0.348   0.065
    1UNL     H1   26  -0.344   0.077  -0.308
    1UNL     H2   27  -0.477   0.047  -0.205
    1UNL     H3   28  -0.408   0.204  -0.224
    1UNL     H4   29  -0.191   0.035  -0.150
    1UNL     H5   30  -0.466   0.206   0.080
    1UNL     H6   31  -0.445   0.063   0.183
    1UNL     H7   32  -0.635   0.056   0.032
    1UNL     H8   33  -0.233   0.077   0.220
    1UNL     H9   34  -0.067   0.180   0.024
    1UNL    H10   35  -0.005   0.119   0.180
    1UNL    H11   36  -0.017  -0.063  -0.079
    1UNL    H12   37   0.130   0.231  -0.108
    1UNL    H13   38   0.373   0.357  -0.174
    1UNL    H14   39   0.617   0.324  -0.178
    1UNL    H15   40   0.713   0.096  -0.137
    1UNL    H16   41   0.563  -0.089  -0.061
    1UNL    H17   42   0.267  -0.248  -0.042
    1UNL    H18   43   0.371  -0.198   0.084
    1UNL    H19   44   0.206  -0.133   0.248
    1UNL    H20   45   0.145  -0.296   0.190
    1UNL    H21   46  -0.278  -0.154   0.229
    1UNL    H22   47  -0.194  -0.180  -0.054
    1UNL    H23   48  -0.357  -0.180   0.002
    1UNL    H24   49  -0.189  -0.379   0.107
   0.00000   0.00000   0.00000   0.00000   0.00000   0.00000   0.00000   0.00000   0.00000
Generated with MDTraj, t= 54.0
 49
    1UNL     C1    1  -0.374   0.123  -0.218
    1UNL     C2    2  -0.277   0.100  -0.113
    1UNL     C3    3  -0.305   0.089   0.013
    1UNL     C4    4  -0.439   0.105   0.066
    1UNL     O1    5  -0.511  -0.015   0.046
    1UNL     C5    6  -0.204   0.042   0.122
    1UNL     C6    7  -0.062   0.087   0.083
    1UNL     C7    8   0.021  -0.018   0.021
    1UNL     C8    9   0.159   0.014  -0.039
    1UNL     N1   10   0.190   0.129  -0.112
    1UNL     C9   11   0.323   0.145  -0.116
    1UNL    C10   12   0.396   0.256  -0.164
    1UNL    C11   13   0.532   0.242  -0.153
    1UNL    C12   14   0.597   0.122  -0.103
    1UNL    C13   15   0.520   0.018  -0.057
    1UNL    C14   16   0.380   0.026  -0.065
    1UNL    C15   17   0.277  -0.060  -0.025
    1UNL    C16   18   0.269  -0.189   0.050
    1UNL    C17   19   0.171  -0.188   0.164
    1UNL     N2   20   0.042  -0.130   0.118
    1UNL    C18   21  -0.072  -0.172   0.190
    1UNL     O2   22  -0.058  -0.260   0.268
    1UNL    C19   23  -0.206  -0.111   0.161
    1UNL    C20   24  -0.270  -0.200   0.047
    1UNL     O3   25  -0.238  -0.337   0.055
    1UNL     H1   26  -0.332   0.107  -0.312
    1UNL     H2   27  -0.458   0.059  -0.213
    1UNL     H3   28  -0.414   0.219  -0.225
    1UNL     H4   29  -0.176   0.083  -0.141
    1UNL     H5   30  -0.496   0.173   0.003
    1UNL     H6   31  -0.444   0.139   0.172
    1UNL     H7   32  -0.614  -0.018   0.069
    1UNL     H8   33  -0.235   0.101   0.208
    1UNL     H9   34  -0.069   0.175   0.014
    1UNL    H10   35  -0.003   0.120   0.176
    1UNL    H11   36  -0.039  -0.075  -0.054
    1UNL    H12   37   0.120   0.206  -0.114
    1UNL    H13   38   0.346   0.341  -0.208
    1UNL    H14   39   0.605   0.320  -0.182
    1UNL    H15   40   0.703   0.106  -0.102
    1UNL    H16   41   0.564  -0.074  -0.027
    1UNL    H17   42   0.229  -0.266  -0.020
    1UNL    H18   43   0.369  -0.224   0.071
    1UNL    H19   44   0.193  -0.109   0.237
    1UNL    H20   45   0.149  -0.290   0.219
    1UNL    H21   46  -0.272  -0.138   0.245
    1UNL    H22   47  -0.229  -0.171  -0.046
    1UNL    H23   48  -0.373  -0.182   0.033
    1UNL    H24   49  -0.162  -0.347   0.116
   0.00000   0.00000   0.00000   0.00000   0.00000   0.00000   0.00000   0.00000   0.00000
Generated with MDTraj, t= 55.0
 49
    1UNL     C1    1  -0.369   0.142  -0.217
    1UNL     C2    2  -0.273   0.096  -0.110
    1UNL     C3    3  -0.300   0.087   0.019
    1UNL     C4    4  -0.442   0.099   0.066
    1UNL     O1    5  -0.512  -0.026   0.071
    1UNL     C5    6  -0.196   0.037   0.114
    1UNL     C6    7  -0.057   0.080   0.079
    1UNL     C7    8   0.019  -0.030   0.014
    1UNL     C8    9   0.159   0.018  -0.045
    1UNL     N1   10   0.186   0.133  -0.113
    1UNL     C9   11   0.327   0.145  -0.124
    1UNL    C10   12   0.406   0.252  -0.172
    1UNL    C11   13   0.545   0.235  -0.168
    1UNL    C12   14   0.608   0.125  -0.108
    1UNL    C13   15   0.526   0.028  -0.048
    1UNL    C14   16   0.388   0.030  -0.066
    1UNL    C15   17   0.278  -0.047  -0.018
    1UNL    C16   18   0.288  -0.157   0.075
    1UNL    C17   19   0.163  -0.171   0.168
    1UNL     N2   20   0.032  -0.143   0.107
    1UNL    C18   21  -0.080  -0.187   0.182
    1UNL     O2   22  -0.079  -0.273   0.268
    1UNL    C19   23  -0.208  -0.116   0.145
    1UNL    C20   24  -0.270  -0.203   0.035
    1UNL     O3   25  -0.271  -0.339   0.065
    1UNL     H1   26  -0.318   0.141  -0.309
    1UNL     H2   27  -0.449   0.078  -0.216
    1UNL     H3   28  -0.407   0.242  -0.196
    1UNL     H4   29  -0.172   0.083  -0.147
    1UNL     H5   30  -0.490   0.164  -0.004
    1UNL     H6   31  -0.455   0.145   0.166
    1UNL     H7   32  -0.585  -0.021   0.138
    1UNL     H8   33  -0.221   0.087   0.208
    1UNL     H9   34  -0.056   0.176   0.022
    1UNL    H10   35  -0.008   0.097   0.182
    1UNL    H11   36  -0.040  -0.041  -0.081
    1UNL    H12   37   0.103   0.183  -0.151
    1UNL    H13   38   0.359   0.341  -0.207
    1UNL    H14   39   0.603   0.307  -0.215
    1UNL    H15   40   0.717   0.119  -0.107
    1UNL    H16   41   0.570  -0.059   0.002
    1UNL    H17   42   0.304  -0.252   0.018
    1UNL    H18   43   0.370  -0.155   0.146
    1UNL    H19   44   0.170  -0.109   0.259
    1UNL    H20   45   0.161  -0.284   0.197
    1UNL    H21   46  -0.275  -0.139   0.231
    1UNL    H22   47  -0.224  -0.187  -0.058
    1UNL    H23   48  -0.371  -0.182   0.018
    1UNL    H24   49  -0.203  -0.350   0.136
   0.00000   0.00000   0.00000   0.00000   0.00000   0.00000   0.00000   0.00000   0.00000
Generated with MDTraj, t= 56.0
 49
    1UNL     C1    1  -0.390   0.150  -0.214
    1UNL     C2    2  -0.286   0.084  -0.124
    1UNL     C3    3  -0.297   0.075   0.007
    1UNL     C4    4  -0.439   0.109   0.064
    1UNL     O1    5  -0.526  -0.004   0.076
    1UNL     C5    6  -0.200   0.024   0.108
    1UNL     C6    7  -0.056   0.081   0.085
    1UNL     C7    8   0.035  -0.028   0.024
    1UNL     C8    9   0.173   0.028  -0.020
    1UNL     N1   10   0.196   0.149  -0.088
    1UNL     C9   11   0.330   0.155  -0.114
    1UNL    C10   12   0.407   0.241  -0.197
    1UNL    C11   13   0.544   0.216  -0.213
    1UNL    C12   14   0.605   0.126  -0.128
    1UNL    C13   15   0.533   0.042  -0.043
    1UNL    C14   16   0.394   0.047  -0.048
    1UNL    C15   17   0.289  -0.031   0.009
    1UNL    C16   18   0.301  -0.157   0.092
    1UNL    C17   19   0.178  -0.172   0.189
    1UNL     N2   20   0.045  -0.148   0.120
    1UNL    C18   21  -0.076  -0.196   0.171
    1UNL     O2   22  -0.083  -0.294   0.245
    1UNL    C19   23  -0.214  -0.131   0.133
    1UNL    C20   24  -0.275  -0.212   0.025
    1UNL     O3   25  -0.304  -0.344   0.062
    1UNL     H1   26  -0.362   0.146  -0.316
    1UNL     H2   27  -0.478   0.099  -0.199
    1UNL     H3   28  -0.407   0.253  -0.185
    1UNL     H4   29  -0.187   0.067  -0.167
    1UNL     H5   30  -0.489   0.188   0.015
    1UNL     H6   31  -0.421   0.144   0.167
    1UNL     H7   32  -0.589   0.022   0.138
    1UNL     H8   33  -0.236   0.073   0.199
    1UNL     H9   34  -0.067   0.172   0.020
    1UNL    H10   35  -0.002   0.113   0.180
    1UNL    H11   36  -0.018  -0.066  -0.069
    1UNL    H12   37   0.121   0.219  -0.110
    1UNL    H13   38   0.359   0.325  -0.246
    1UNL    H14   39   0.598   0.289  -0.279
    1UNL    H15   40   0.709   0.107  -0.128
    1UNL    H16   41   0.588  -0.014   0.028
    1UNL    H17   42   0.322  -0.255   0.042
    1UNL    H18   43   0.390  -0.139   0.154
    1UNL    H19   44   0.188  -0.103   0.273
    1UNL    H20   45   0.178  -0.278   0.236
    1UNL    H21   46  -0.270  -0.157   0.225
    1UNL    H22   47  -0.219  -0.208  -0.064
    1UNL    H23   48  -0.369  -0.172  -0.003
    1UNL    H24   49  -0.235  -0.364   0.129
   0.00000   0.00000   0.00000   0.00000   0.00000   0.00000   0.00000   0.00000   0.00000
Generated with MDTraj, t= 57.0
 49
    1UNL     C1    1  -0.382   0.096  -0.207
    1UNL     C2    2  -0.275   0.079  -0.103
    1UNL     C3    3  -0.308   0.081   0.024
    1UNL     C4    4  -0.443   0.117   0.085
    1UNL     O1    5  -0.540   0.017   0.052
    1UNL     C5    6  -0.202   0.028   0.125
    1UNL     C6    7  -0.055   0.093   0.101
    1UNL     C7    8   0.037  -0.009   0.030
    1UNL     C8    9   0.170   0.038  -0.013
    1UNL     N1   10   0.189   0.146  -0.099
    1UNL     C9   11   0.325   0.155  -0.118
    1UNL    C10   12   0.405   0.237  -0.201
    1UNL    C11   13   0.539   0.211  -0.203
    1UNL    C12   14   0.602   0.105  -0.135
    1UNL    C13   15   0.524   0.027  -0.051
    1UNL    C14   16   0.386   0.048  -0.048
    1UNL    C15   17   0.289  -0.030   0.020
    1UNL    C16   18   0.305  -0.148   0.117
    1UNL    C17   19   0.171  -0.168   0.191
    1UNL     N2   20   0.050  -0.128   0.118
    1UNL    C18   21  -0.066  -0.192   0.152
    1UNL     O2   22  -0.072  -0.304   0.206
    1UNL    C19   23  -0.213  -0.130   0.136
    1UNL    C20   24  -0.278  -0.203   0.020
    1UNL     O3   25  -0.281  -0.344   0.044
    1UNL     H1   26  -0.359   0.042  -0.295
    1UNL     H2   27  -0.473   0.052  -0.170
    1UNL     H3   28  -0.409   0.194  -0.235
    1UNL     H4   29  -0.171   0.071  -0.120
    1UNL     H5   30  -0.463   0.206   0.032
    1UNL     H6   31  -0.431   0.129   0.194
    1UNL     H7   32  -0.629   0.041   0.086
    1UNL     H8   33  -0.227   0.064   0.227
    1UNL     H9   34  -0.050   0.177   0.026
    1UNL    H10   35  -0.018   0.132   0.199
    1UNL    H11   36  -0.013  -0.065  -0.056
    1UNL    H12   37   0.133   0.226  -0.136
    1UNL    H13   38   0.366   0.322  -0.251
    1UNL    H14   39   0.604   0.268  -0.261
    1UNL    H15   40   0.712   0.091  -0.141
    1UNL    H16   41   0.573  -0.055   0.005
    1UNL    H17   42   0.324  -0.236   0.052
    1UNL    H18   43   0.391  -0.144   0.188
    1UNL    H19   44   0.177  -0.112   0.285
    1UNL    H20   45   0.153  -0.274   0.230
    1UNL    H21   46  -0.260  -0.160   0.230
    1UNL    H22   47  -0.216  -0.196  -0.067
    1UNL    H23   48  -0.373  -0.164  -0.013
    1UNL    H24   49  -0.205  -0.361   0.103
   0.00000   0.00000   0.00000   0.00000   0.00000   0.00000   0.00000   0.00000   0.00000
Generated with MDTraj, t= 58.0
 49
    1UNL     C1    1  -0.374   0.102  -0.200
    1UNL     C2    2  -0.274   0.065  -0.095
    1UNL     C3    3  -0.306   0.075   0.031
    1UNL     C4    4  -0.446   0.120   0.083
    1UNL     O1    5  -0.549   0.032   0.032
    1UNL     C5    6  -0.203   0.022   0.130
    1UNL     C6    7  -0.054   0.087   0.112
    1UNL     C7    8   0.032  -0.007   0.029
    1UNL     C8    9   0.165   0.039  -0.002
    1UNL     N1   10   0.189   0.145  -0.092
    1UNL     C9   11   0.327   0.147  -0.118
    1UNL    C10   12   0.407   0.235  -0.197
    1UNL    C11   13   0.539   0.214  -0.204
    1UNL    C12   14   0.601   0.107  -0.139
    1UNL    C13   15   0.529   0.019  -0.065
    1UNL    C14   16   0.388   0.042  -0.051
    1UNL    C15   17   0.285  -0.020   0.024
    1UNL    C16   18   0.295  -0.143   0.099
    1UNL    C17   19   0.172  -0.159   0.189
    1UNL     N2   20   0.041  -0.129   0.121
    1UNL    C18   21  -0.068  -0.192   0.165
    1UNL     O2   22  -0.063  -0.294   0.237
    1UNL    C19   23  -0.208  -0.133   0.129
    1UNL    C20   24  -0.268  -0.204   0.012
    1UNL     O3   25  -0.277  -0.353   0.025
    1UNL     H1   26  -0.337   0.090  -0.300
    1UNL     H2   27  -0.459   0.033  -0.181
    1UNL     H3   28  -0.414   0.196  -0.184
    1UNL     H4   29  -0.171   0.031  -0.118
    1UNL     H5   30  -0.474   0.219   0.062
    1UNL     H6   31  -0.444   0.096   0.192
    1UNL     H7   32  -0.647   0.070   0.032
    1UNL     H8   33  -0.238   0.072   0.223
    1UNL     H9   34  -0.069   0.190   0.067
    1UNL    H10   35  -0.001   0.101   0.209
    1UNL    H11   36  -0.014  -0.042  -0.069
    1UNL    H12   37   0.118   0.174  -0.162
    1UNL    H13   38   0.352   0.312  -0.251
    1UNL    H14   39   0.600   0.284  -0.263
    1UNL    H15   40   0.702   0.097  -0.156
    1UNL    H16   41   0.574  -0.068  -0.030
    1UNL    H17   42   0.283  -0.221   0.019
    1UNL    H18   43   0.402  -0.149   0.134
    1UNL    H19   44   0.188  -0.095   0.278
    1UNL    H20   45   0.168  -0.259   0.240
    1UNL    H21   46  -0.268  -0.161   0.216
    1UNL    H22   47  -0.227  -0.171  -0.083
    1UNL    H23   48  -0.376  -0.175   0.007
    1UNL    H24   49  -0.204  -0.384   0.082
   0.00000   0.00000   0.00000   0.00000   0.00000   0.00000   0.00000   0.00000   0.00000
Generated with MDTraj, t= 59.0
 49
    1UNL     C1    1  -0.389   0.164  -0.205
    1UNL     C2    2  -0.290   0.086  -0.119
    1UNL     C3    3  -0.302   0.069   0.012
    1UNL     C4    4  -0.435   0.110   0.068
    1UNL     O1    5  -0.544   0.039   0.016
    1UNL     C5    6  -0.199   0.022   0.113
    1UNL     C6    7  -0.055   0.081   0.086
    1UNL     C7    8   0.039  -0.031   0.035
    1UNL     C8    9   0.169   0.030  -0.002
    1UNL     N1   10   0.187   0.141  -0.077
    1UNL     C9   11   0.325   0.156  -0.103
    1UNL    C10   12   0.388   0.241  -0.191
    1UNL    C11   13   0.518   0.226  -0.205
    1UNL    C12   14   0.581   0.113  -0.144
    1UNL    C13   15   0.522   0.018  -0.071
    1UNL    C14   16   0.390   0.045  -0.041
    1UNL    C15   17   0.288  -0.032   0.021
    1UNL    C16   18   0.294  -0.168   0.083
    1UNL    C17   19   0.178  -0.181   0.190
    1UNL     N2   20   0.053  -0.141   0.130
    1UNL    C18   21  -0.065  -0.189   0.182
    1UNL     O2   22  -0.069  -0.278   0.266
    1UNL    C19   23  -0.204  -0.132   0.137
    1UNL    C20   24  -0.254  -0.221   0.014
    1UNL     O3   25  -0.252  -0.359   0.053
    1UNL     H1   26  -0.343   0.215  -0.287
    1UNL     H2   27  -0.457   0.090  -0.246
    1UNL     H3   28  -0.451   0.237  -0.152
    1UNL     H4   29  -0.199   0.064  -0.166
    1UNL     H5   30  -0.448   0.211   0.040
    1UNL     H6   31  -0.456   0.107   0.178
    1UNL     H7   32  -0.617   0.047   0.086
    1UNL     H8   33  -0.233   0.073   0.208
    1UNL     H9   34  -0.062   0.166   0.011
    1UNL    H10   35  -0.037   0.127   0.185
    1UNL    H11   36  -0.017  -0.068  -0.056
    1UNL    H12   37   0.110   0.201  -0.111
    1UNL    H13   38   0.329   0.309  -0.250
    1UNL    H14   39   0.572   0.302  -0.262
    1UNL    H15   40   0.686   0.098  -0.183
    1UNL    H16   41   0.570  -0.080  -0.054
    1UNL    H17   42   0.288  -0.237  -0.005
    1UNL    H18   43   0.391  -0.184   0.137
    1UNL    H19   44   0.194  -0.135   0.292
    1UNL    H20   45   0.171  -0.290   0.204
    1UNL    H21   46  -0.265  -0.156   0.223
    1UNL    H22   47  -0.187  -0.225  -0.074
    1UNL    H23   48  -0.357  -0.184  -0.022
    1UNL    H24   49  -0.196  -0.368   0.134
   0.00000   0.00000   0.00000   0.00000   0.00000   0.00000   0.00000   0.00000   0.00000
Generated with MDTraj, t= 60.0
 49
    1UNL     C1    1  -0.361   0.142  -0.198
    1UNL     C2    2  -0.274   0.096  -0.086
    1UNL     C3    3  -0.312   0.071   0.035
    1UNL     C4    4  -0.453   0.080   0.075
    1UNL     O1    5  -0.552   0.040  -0.020
    1UNL     C5    6  -0.204   0.022   0.131
    1UNL     C6    7  -0.060   0.074   0.101
    1UNL     C7    8   0.029  -0.030   0.024
    1UNL     C8    9   0.162   0.026  -0.024
    1UNL     N1   10   0.188   0.140  -0.091
    1UNL     C9   11   0.323   0.154  -0.114
    1UNL    C10   12   0.406   0.249  -0.182
    1UNL    C11   13   0.544   0.233  -0.182
    1UNL    C12   14   0.600   0.117  -0.137
    1UNL    C13   15   0.518   0.020  -0.086
    1UNL    C14   16   0.381   0.037  -0.069
    1UNL    C15   17   0.281  -0.044  -0.010
    1UNL    C16   18   0.289  -0.170   0.074
    1UNL    C17   19   0.174  -0.170   0.178
    1UNL     N2   20   0.043  -0.147   0.113
    1UNL    C18   21  -0.071  -0.184   0.188
    1UNL     O2   22  -0.068  -0.262   0.283
    1UNL    C19   23  -0.204  -0.132   0.146
    1UNL    C20   24  -0.253  -0.211   0.026
    1UNL     O3   25  -0.256  -0.345   0.060
    1UNL     H1   26  -0.314   0.123  -0.294
    1UNL     H2   27  -0.453   0.090  -0.200
    1UNL     H3   28  -0.387   0.253  -0.201
    1UNL     H4   29  -0.168   0.088  -0.113
    1UNL     H5   30  -0.488   0.176   0.106
    1UNL     H6   31  -0.462   0.009   0.164
    1UNL     H7   32  -0.618  -0.007   0.025
    1UNL     H8   33  -0.235   0.070   0.228
    1UNL     H9   34  -0.077   0.178   0.058
    1UNL    H10   35  -0.013   0.090   0.201
    1UNL    H11   36  -0.032  -0.075  -0.057
    1UNL    H12   37   0.115   0.210  -0.107
    1UNL    H13   38   0.368   0.345  -0.206
    1UNL    H14   39   0.609   0.306  -0.222
    1UNL    H15   40   0.704   0.106  -0.135
    1UNL    H16   41   0.559  -0.076  -0.057
    1UNL    H17   42   0.279  -0.261   0.011
    1UNL    H18   43   0.393  -0.163   0.120
    1UNL    H19   44   0.197  -0.092   0.257
    1UNL    H20   45   0.162  -0.269   0.221
    1UNL    H21   46  -0.260  -0.168   0.233
    1UNL    H22   47  -0.184  -0.185  -0.057
    1UNL    H23   48  -0.363  -0.191  -0.011
    1UNL    H24   49  -0.189  -0.349   0.131
   0.00000   0.00000   0.00000   0.00000   0.00000   0.00000   0.00000   0.00000   0.00000
Generated with MDTraj, t= 61.0
 49
    1UNL     C1    1  -0.357   0.137  -0.210
    1UNL     C2    2  -0.258   0.103  -0.101
    1UNL     C3    3  -0.303   0.078   0.020
    1UNL     C4    4  -0.449   0.082   0.068
    1UNL     O1    5  -0.532   0.010  -0.023
    1UNL     C5    6  -0.199   0.032   0.126
    1UNL     C6    7  -0.057   0.081   0.105
    1UNL     C7    8   0.030  -0.020   0.031
    1UNL     C8    9   0.154   0.032  -0.030
    1UNL     N1   10   0.182   0.155  -0.082
    1UNL     C9   11   0.316   0.154  -0.120
    1UNL    C10   12   0.399   0.254  -0.175
    1UNL    C11   13   0.539   0.226  -0.178
    1UNL    C12   14   0.594   0.114  -0.118
    1UNL    C13   15   0.513   0.013  -0.068
    1UNL    C14   16   0.372   0.031  -0.081
    1UNL    C15   17   0.267  -0.046  -0.027
    1UNL    C16   18   0.274  -0.178   0.049
    1UNL    C17   19   0.190  -0.175   0.170
    1UNL     N2   20   0.046  -0.122   0.144
    1UNL    C18   21  -0.068  -0.189   0.190
    1UNL     O2   22  -0.054  -0.298   0.240
    1UNL    C19   23  -0.202  -0.120   0.165
    1UNL    C20   24  -0.273  -0.204   0.058
    1UNL     O3   25  -0.262  -0.340   0.086
    1UNL     H1   26  -0.309   0.121  -0.309
    1UNL     H2   27  -0.443   0.069  -0.196
    1UNL     H3   28  -0.391   0.243  -0.210
    1UNL     H4   29  -0.153   0.100  -0.124
    1UNL     H5   30  -0.476   0.186   0.065
    1UNL     H6   31  -0.461   0.039   0.174
    1UNL     H7   32  -0.626   0.030  -0.021
    1UNL     H8   33  -0.223   0.079   0.226
    1UNL     H9   34  -0.059   0.177   0.047
    1UNL    H10   35  -0.006   0.111   0.201
    1UNL    H11   36  -0.027  -0.074  -0.049
    1UNL    H12   37   0.109   0.219  -0.112
    1UNL    H13   38   0.368   0.358  -0.196
    1UNL    H14   39   0.611   0.306  -0.209
    1UNL    H15   40   0.701   0.097  -0.112
    1UNL    H16   41   0.556  -0.061  -0.005
    1UNL    H17   42   0.228  -0.253  -0.021
    1UNL    H18   43   0.381  -0.214   0.065
    1UNL    H19   44   0.236  -0.096   0.238
    1UNL    H20   45   0.189  -0.272   0.215
    1UNL    H21   46  -0.272  -0.146   0.246
    1UNL    H22   47  -0.235  -0.197  -0.048
    1UNL    H23   48  -0.385  -0.167   0.064
    1UNL    H24   49  -0.178  -0.345   0.136
   0.00000   0.00000   0.00000   0.00000   0.00000   0.00000   0.00000   0.00000   0.00000
Generated with MDTraj, t= 62.0
 49
    1UNL     C1    1  -0.342   0.133  -0.227
    1UNL     C2    2  -0.258   0.099  -0.112
    1UNL     C3    3  -0.290   0.067   0.010
    1UNL     C4    4  -0.436   0.084   0.058
    1UNL     O1    5  -0.519  -0.021   0.010
    1UNL     C5    6  -0.201   0.031   0.121
    1UNL     C6    7  -0.048   0.078   0.109
    1UNL     C7    8   0.030  -0.026   0.029
    1UNL     C8    9   0.161   0.038  -0.018
    1UNL     N1   10   0.190   0.165  -0.069
    1UNL     C9   11   0.330   0.173  -0.103
    1UNL    C10   12   0.411   0.274  -0.153
    1UNL    C11   13   0.542   0.245  -0.180
    1UNL    C12   14   0.596   0.115  -0.155
    1UNL    C13   15   0.521   0.019  -0.093
    1UNL    C14   16   0.382   0.043  -0.074
    1UNL    C15   17   0.278  -0.034  -0.007
    1UNL    C16   18   0.291  -0.178   0.054
    1UNL    C17   19   0.171  -0.207   0.150
    1UNL     N2   20   0.038  -0.156   0.103
    1UNL    C18   21  -0.073  -0.192   0.176
    1UNL     O2   22  -0.081  -0.268   0.269
    1UNL    C19   23  -0.210  -0.121   0.157
    1UNL    C20   24  -0.291  -0.210   0.056
    1UNL     O3   25  -0.318  -0.335   0.116
    1UNL     H1   26  -0.280   0.156  -0.319
    1UNL     H2   27  -0.405   0.039  -0.245
    1UNL     H3   28  -0.406   0.219  -0.210
    1UNL     H4   29  -0.155   0.105  -0.137
    1UNL     H5   30  -0.475   0.182   0.031
    1UNL     H6   31  -0.434   0.078   0.174
    1UNL     H7   32  -0.621  -0.001   0.022
    1UNL     H8   33  -0.230   0.090   0.211
    1UNL     H9   34  -0.033   0.177   0.061
    1UNL    H10   35   0.013   0.091   0.205
    1UNL    H11   36  -0.014  -0.036  -0.072
    1UNL    H12   37   0.136   0.250  -0.060
    1UNL    H13   38   0.380   0.371  -0.182
    1UNL    H14   39   0.598   0.321  -0.225
    1UNL    H15   40   0.696   0.093  -0.197
    1UNL    H16   41   0.561  -0.083  -0.066
    1UNL    H17   42   0.294  -0.248  -0.034
    1UNL    H18   43   0.389  -0.193   0.109
    1UNL    H19   44   0.182  -0.140   0.241
    1UNL    H20   45   0.158  -0.309   0.177
    1UNL    H21   46  -0.260  -0.144   0.253
    1UNL    H22   47  -0.222  -0.223  -0.032
    1UNL    H23   48  -0.396  -0.173   0.016
    1UNL    H24   49  -0.239  -0.354   0.171
   0.00000   0.00000   0.00000   0.00000   0.00000   0.00000   0.00000   0.00000   0.00000
Generated with MDTraj, t= 63.0
 49
    1UNL     C1    1  -0.355   0.118  -0.229
    1UNL     C2    2  -0.265   0.075  -0.119
    1UNL     C3    3  -0.292   0.079   0.010
    1UNL     C4    4  -0.442   0.093   0.047
    1UNL     O1    5  -0.529  -0.007  -0.011
    1UNL     C5    6  -0.197   0.041   0.120
    1UNL     C6    7  -0.049   0.098   0.096
    1UNL     C7    8   0.035  -0.016   0.038
    1UNL     C8    9   0.168   0.035  -0.003
    1UNL     N1   10   0.197   0.158  -0.060
    1UNL     C9   11   0.327   0.171  -0.085
    1UNL    C10   12   0.398   0.268  -0.148
    1UNL    C11   13   0.530   0.242  -0.181
    1UNL    C12   14   0.589   0.118  -0.155
    1UNL    C13   15   0.524   0.021  -0.087
    1UNL    C14   16   0.382   0.044  -0.060
    1UNL    C15   17   0.284  -0.043  -0.005
    1UNL    C16   18   0.282  -0.192   0.026
    1UNL    C17   19   0.172  -0.217   0.140
    1UNL     N2   20   0.044  -0.135   0.127
    1UNL    C18   21  -0.073  -0.187   0.187
    1UNL     O2   22  -0.071  -0.298   0.240
    1UNL    C19   23  -0.198  -0.109   0.162
    1UNL    C20   24  -0.279  -0.197   0.070
    1UNL     O3   25  -0.302  -0.333   0.125
    1UNL     H1   26  -0.317   0.086  -0.331
    1UNL     H2   27  -0.456   0.071  -0.211
    1UNL     H3   28  -0.365   0.229  -0.238
    1UNL     H4   29  -0.164   0.047  -0.157
    1UNL     H5   30  -0.471   0.194   0.018
    1UNL     H6   31  -0.457   0.098   0.163
    1UNL     H7   32  -0.592  -0.039   0.063
    1UNL     H8   33  -0.225   0.095   0.211
    1UNL     H9   34  -0.040   0.189   0.035
    1UNL    H10   35   0.000   0.130   0.194
    1UNL    H11   36  -0.014  -0.063  -0.047
    1UNL    H12   37   0.135   0.237  -0.065
    1UNL    H13   38   0.338   0.357  -0.177
    1UNL    H14   39   0.584   0.319  -0.240
    1UNL    H15   40   0.681   0.102  -0.198
    1UNL    H16   41   0.555  -0.077  -0.084
    1UNL    H17   42   0.274  -0.262  -0.063
    1UNL    H18   43   0.387  -0.203   0.069
    1UNL    H19   44   0.207  -0.181   0.242
    1UNL    H20   45   0.128  -0.312   0.139
    1UNL    H21   46  -0.238  -0.112   0.268
    1UNL    H22   47  -0.240  -0.213  -0.034
    1UNL    H23   48  -0.384  -0.156   0.053
    1UNL    H24   49  -0.231  -0.361   0.188
   0.00000   0.00000   0.00000   0.00000   0.00000   0.00000   0.00000   0.00000   0.00000
Generated with MDTraj, t= 64.0
 49
    1UNL     C1    1  -0.347   0.082  -0.220
    1UNL     C2    2  -0.266   0.060  -0.093
    1UNL     C3    3  -0.307   0.070   0.031
    1UNL     C4    4  -0.449   0.100   0.058
    1UNL     O1    5  -0.541   0.046  -0.031
    1UNL     C5    6  -0.209   0.025   0.145
    1UNL     C6    7  -0.065   0.080   0.116
    1UNL     C7    8   0.025  -0.007   0.027
    1UNL     C8    9   0.159   0.045  -0.021
    1UNL     N1   10   0.194   0.170  -0.061
    1UNL     C9   11   0.332   0.168  -0.095
    1UNL    C10   12   0.418   0.267  -0.148
    1UNL    C11   13   0.549   0.238  -0.171
    1UNL    C12   14   0.603   0.109  -0.137
    1UNL    C13   15   0.520   0.008  -0.098
    1UNL    C14   16   0.382   0.038  -0.077
    1UNL    C15   17   0.273  -0.038  -0.030
    1UNL    C16   18   0.274  -0.173   0.031
    1UNL    C17   19   0.178  -0.180   0.142
    1UNL     N2   20   0.040  -0.139   0.098
    1UNL    C18   21  -0.064  -0.183   0.178
    1UNL     O2   22  -0.047  -0.274   0.256
    1UNL    C19   23  -0.201  -0.129   0.163
    1UNL    C20   24  -0.281  -0.215   0.067
    1UNL     O3   25  -0.300  -0.354   0.110
    1UNL     H1   26  -0.294   0.037  -0.309
    1UNL     H2   27  -0.450   0.038  -0.214
    1UNL     H3   28  -0.360   0.194  -0.248
    1UNL     H4   29  -0.167   0.032  -0.115
    1UNL     H5   30  -0.452   0.208   0.043
    1UNL     H6   31  -0.474   0.078   0.169
    1UNL     H7   32  -0.631   0.065  -0.008
    1UNL     H8   33  -0.237   0.072   0.240
    1UNL     H9   34  -0.071   0.178   0.066
    1UNL    H10   35  -0.011   0.107   0.212
    1UNL    H11   36  -0.020  -0.048  -0.063
    1UNL    H12   37   0.134   0.232  -0.114
    1UNL    H13   38   0.391   0.370  -0.155
    1UNL    H14   39   0.617   0.318  -0.184
    1UNL    H15   40   0.716   0.095  -0.153
    1UNL    H16   41   0.554  -0.095  -0.073
    1UNL    H17   42   0.246  -0.249  -0.049
    1UNL    H18   43   0.372  -0.212   0.073
    1UNL    H19   44   0.206  -0.104   0.220
    1UNL    H20   45   0.173  -0.274   0.190
    1UNL    H21   46  -0.248  -0.148   0.265
    1UNL    H22   47  -0.237  -0.225  -0.035
    1UNL    H23   48  -0.388  -0.181   0.047
    1UNL    H24   49  -0.216  -0.380   0.152
   0.00000   0.00000   0.00000   0.00000   0.00000   0.00000   0.00000   0.00000   0.00000
Generated with MDTraj, t= 65.0
 49
    1UNL     C1    1  -0.396   0.099  -0.226
    1UNL     C2    2  -0.287   0.061  -0.126
    1UNL     C3    3  -0.311   0.054   0.001
    1UNL     C4    4  -0.427   0.113   0.065
    1UNL     O1    5  -0.541   0.077  -0.003
    1UNL     C5    6  -0.206   0.027   0.109
    1UNL     C6    7  -0.063   0.076   0.074
    1UNL     C7    8   0.036  -0.027   0.031
    1UNL     C8    9   0.166   0.023  -0.019
    1UNL     N1   10   0.190   0.156  -0.061
    1UNL     C9   11   0.327   0.162  -0.092
    1UNL    C10   12   0.400   0.267  -0.144
    1UNL    C11   13   0.537   0.247  -0.156
    1UNL    C12   14   0.591   0.118  -0.135
    1UNL    C13   15   0.520   0.009  -0.099
    1UNL    C14   16   0.384   0.033  -0.070
    1UNL    C15   17   0.279  -0.050  -0.024
    1UNL    C16   18   0.282  -0.186   0.040
    1UNL    C17   19   0.188  -0.185   0.156
    1UNL     N2   20   0.052  -0.124   0.141
    1UNL    C18   21  -0.058  -0.178   0.193
    1UNL     O2   22  -0.046  -0.274   0.262
    1UNL    C19   23  -0.201  -0.127   0.158
    1UNL    C20   24  -0.273  -0.222   0.059
    1UNL     O3   25  -0.273  -0.357   0.095
    1UNL     H1   26  -0.359   0.140  -0.327
    1UNL     H2   27  -0.464   0.013  -0.244
    1UNL     H3   28  -0.466   0.180  -0.182
    1UNL     H4   29  -0.193   0.034  -0.168
    1UNL     H5   30  -0.425   0.219   0.082
    1UNL     H6   31  -0.435   0.060   0.168
    1UNL     H7   32  -0.618   0.128   0.019
    1UNL     H8   33  -0.233   0.104   0.185
    1UNL     H9   34  -0.069   0.160   0.002
    1UNL    H10   35  -0.016   0.125   0.164
    1UNL    H11   36   0.000  -0.078  -0.059
    1UNL    H12   37   0.124   0.230  -0.044
    1UNL    H13   38   0.353   0.364  -0.131
    1UNL    H14   39   0.603   0.334  -0.175
    1UNL    H15   40   0.692   0.104  -0.143
    1UNL    H16   41   0.569  -0.084  -0.095
    1UNL    H17   42   0.241  -0.270  -0.027
    1UNL    H18   43   0.386  -0.219   0.065
    1UNL    H19   44   0.242  -0.133   0.240
    1UNL    H20   45   0.176  -0.282   0.195
    1UNL    H21   46  -0.263  -0.127   0.253
    1UNL    H22   47  -0.225  -0.214  -0.041
    1UNL    H23   48  -0.382  -0.200   0.042
    1UNL    H24   49  -0.198  -0.357   0.161
   0.00000   0.00000   0.00000   0.00000   0.00000   0.00000   0.00000   0.00000   0.00000
Generated with MDTraj, t= 66.0
 49
    1UNL     C1    1  -0.401   0.086  -0.211
    1UNL     C2    2  -0.300   0.050  -0.110
    1UNL     C3    3  -0.315   0.064   0.020
    1UNL     C4    4  -0.439   0.123   0.092
    1UNL     O1    5  -0.557   0.085   0.018
    1UNL     C5    6  -0.208   0.021   0.109
    1UNL     C6    7  -0.068   0.070   0.064
    1UNL     C7    8   0.030  -0.035  -0.001
    1UNL     C8    9   0.168   0.025  -0.029
    1UNL     N1   10   0.196   0.145  -0.087
    1UNL     C9   11   0.336   0.155  -0.102
    1UNL    C10   12   0.415   0.256  -0.155
    1UNL    C11   13   0.547   0.243  -0.161
    1UNL    C12   14   0.608   0.125  -0.127
    1UNL    C13   15   0.528   0.025  -0.070
    1UNL    C14   16   0.393   0.042  -0.053
    1UNL    C15   17   0.287  -0.040  -0.001
    1UNL    C16   18   0.291  -0.174   0.055
    1UNL    C17   19   0.168  -0.190   0.160
    1UNL     N2   20   0.039  -0.142   0.103
    1UNL    C18   21  -0.068  -0.180   0.182
    1UNL     O2   22  -0.055  -0.253   0.283
    1UNL    C19   23  -0.202  -0.131   0.139
    1UNL    C20   24  -0.252  -0.224   0.029
    1UNL     O3   25  -0.263  -0.353   0.083
    1UNL     H1   26  -0.361   0.102  -0.319
    1UNL     H2   27  -0.488   0.010  -0.209
    1UNL     H3   28  -0.449   0.183  -0.180
    1UNL     H4   29  -0.209   0.006  -0.153
    1UNL     H5   30  -0.416   0.227   0.089
    1UNL     H6   31  -0.461   0.105   0.204
    1UNL     H7   32  -0.635   0.138   0.057
    1UNL     H8   33  -0.235   0.077   0.203
    1UNL     H9   34  -0.077   0.157  -0.006
    1UNL    H10   35  -0.028   0.119   0.155
    1UNL    H11   36  -0.017  -0.085  -0.086
    1UNL    H12   37   0.130   0.221  -0.097
    1UNL    H13   38   0.364   0.347  -0.181
    1UNL    H14   39   0.603   0.324  -0.202
    1UNL    H15   40   0.712   0.108  -0.166
    1UNL    H16   41   0.563  -0.073  -0.053
    1UNL    H17   42   0.299  -0.260  -0.021
    1UNL    H18   43   0.381  -0.186   0.120
    1UNL    H19   44   0.187  -0.143   0.261
    1UNL    H20   45   0.156  -0.290   0.185
    1UNL    H21   46  -0.259  -0.149   0.235
    1UNL    H22   47  -0.186  -0.234  -0.060
    1UNL    H23   48  -0.349  -0.180   0.002
    1UNL    H24   49  -0.193  -0.365   0.149
   0.00000   0.00000   0.00000   0.00000   0.00000   0.00000   0.00000   0.00000   0.00000
Generated with MDTraj, t= 67.0
 49
    1UNL     C1    1  -0.420   0.083  -0.203
    1UNL     C2    2  -0.313   0.048  -0.103
    1UNL     C3    3  -0.317   0.072   0.025
    1UNL     C4    4  -0.436   0.144   0.078
    1UNL     O1    5  -0.562   0.075   0.040
    1UNL     C5    6  -0.207   0.022   0.124
    1UNL     C6    7  -0.058   0.076   0.075
    1UNL     C7    8   0.036  -0.032   0.011
    1UNL     C8    9   0.167   0.023  -0.036
    1UNL     N1   10   0.196   0.139  -0.112
    1UNL     C9   11   0.334   0.151  -0.124
    1UNL    C10   12   0.418   0.248  -0.187
    1UNL    C11   13   0.553   0.234  -0.175
    1UNL    C12   14   0.613   0.136  -0.096
    1UNL    C13   15   0.537   0.037  -0.034
    1UNL    C14   16   0.394   0.039  -0.053
    1UNL    C15   17   0.285  -0.037   0.002
    1UNL    C16   18   0.285  -0.169   0.074
    1UNL    C17   19   0.169  -0.173   0.175
    1UNL     N2   20   0.045  -0.145   0.107
    1UNL    C18   21  -0.066  -0.190   0.175
    1UNL     O2   22  -0.053  -0.281   0.262
    1UNL    C19   23  -0.204  -0.132   0.142
    1UNL    C20   24  -0.260  -0.211   0.015
    1UNL     O3   25  -0.258  -0.348   0.058
    1UNL     H1   26  -0.401   0.033  -0.305
    1UNL     H2   27  -0.528   0.059  -0.162
    1UNL     H3   28  -0.419   0.193  -0.222
    1UNL     H4   29  -0.229  -0.005  -0.135
    1UNL     H5   30  -0.447   0.245   0.054
    1UNL     H6   31  -0.420   0.143   0.189
    1UNL     H7   32  -0.630   0.077   0.119
    1UNL     H8   33  -0.222   0.065   0.226
    1UNL     H9   34  -0.077   0.148  -0.008
    1UNL    H10   35  -0.013   0.139   0.154
    1UNL    H11   36  -0.020  -0.084  -0.067
    1UNL    H12   37   0.134   0.181  -0.182
    1UNL    H13   38   0.366   0.316  -0.251
    1UNL    H14   39   0.613   0.303  -0.233
    1UNL    H15   40   0.720   0.119  -0.094
    1UNL    H16   41   0.597  -0.045   0.016
    1UNL    H17   42   0.262  -0.256   0.002
    1UNL    H18   43   0.386  -0.195   0.111
    1UNL    H19   44   0.182  -0.109   0.267
    1UNL    H20   45   0.150  -0.270   0.211
    1UNL    H21   46  -0.258  -0.171   0.234
    1UNL    H22   47  -0.187  -0.185  -0.067
    1UNL    H23   48  -0.363  -0.188  -0.012
    1UNL    H24   49  -0.185  -0.370   0.120
   0.00000   0.00000   0.00000   0.00000   0.00000   0.00000   0.00000   0.00000   0.00000
Generated with MDTraj, t= 68.0
 49
    1UNL     C1    1  -0.423   0.109  -0.212
    1UNL     C2    2  -0.305   0.065  -0.121
    1UNL     C3    3  -0.303   0.078   0.011
    1UNL     C4    4  -0.418   0.133   0.087
    1UNL     O1    5  -0.539   0.058   0.076
    1UNL     C5    6  -0.194   0.019   0.099
    1UNL     C6    7  -0.059   0.077   0.049
    1UNL     C7    8   0.042  -0.035   0.015
    1UNL     C8    9   0.172   0.012  -0.025
    1UNL     N1   10   0.188   0.121  -0.112
    1UNL     C9   11   0.325   0.142  -0.127
    1UNL    C10   12   0.407   0.242  -0.195
    1UNL    C11   13   0.541   0.240  -0.181
    1UNL    C12   14   0.596   0.134  -0.105
    1UNL    C13   15   0.522   0.036  -0.041
    1UNL    C14   16   0.387   0.038  -0.057
    1UNL    C15   17   0.287  -0.039   0.013
    1UNL    C16   18   0.302  -0.146   0.122
    1UNL    C17   19   0.175  -0.164   0.201
    1UNL     N2   20   0.047  -0.131   0.136
    1UNL    C18   21  -0.065  -0.195   0.171
    1UNL     O2   22  -0.054  -0.298   0.241
    1UNL    C19   23  -0.201  -0.134   0.129
    1UNL    C20   24  -0.272  -0.212   0.010
    1UNL     O3   25  -0.283  -0.354   0.042
    1UNL     H1   26  -0.418   0.062  -0.318
    1UNL     H2   27  -0.528   0.090  -0.165
    1UNL     H3   28  -0.419   0.222  -0.226
    1UNL     H4   29  -0.209   0.026  -0.160
    1UNL     H5   30  -0.438   0.227   0.048
    1UNL     H6   31  -0.395   0.150   0.195
    1UNL     H7   32  -0.606   0.079   0.142
    1UNL     H8   33  -0.206   0.063   0.203
    1UNL     H9   34  -0.083   0.152  -0.032
    1UNL    H10   35  -0.011   0.142   0.124
    1UNL    H11   36   0.005  -0.092  -0.072
    1UNL    H12   37   0.127   0.193  -0.151
    1UNL    H13   38   0.361   0.318  -0.261
    1UNL    H14   39   0.609   0.311  -0.226
    1UNL    H15   40   0.699   0.143  -0.081
    1UNL    H16   41   0.568  -0.033   0.018
    1UNL    H17   42   0.321  -0.246   0.072
    1UNL    H18   43   0.389  -0.136   0.192
    1UNL    H19   44   0.175  -0.079   0.275
    1UNL    H20   45   0.168  -0.254   0.256
    1UNL    H21   46  -0.274  -0.152   0.212
    1UNL    H22   47  -0.210  -0.206  -0.085
    1UNL    H23   48  -0.364  -0.159  -0.003
    1UNL    H24   49  -0.215  -0.373   0.112
   0.00000   0.00000   0.00000   0.00000   0.00000   0.00000   0.00000   0.00000   0.00000
Generated with MDTraj, t= 69.0
 49
    1UNL     C1    1  -0.406   0.114  -0.209
    1UNL     C2    2  -0.303   0.078  -0.109
    1UNL     C3    3  -0.312   0.079   0.022
    1UNL     C4    4  -0.432   0.125   0.101
    1UNL     O1    5  -0.542   0.039   0.096
    1UNL     C5    6  -0.197   0.021   0.093
    1UNL     C6    7  -0.057   0.075   0.063
    1UNL     C7    8   0.035  -0.033   0.006
    1UNL     C8    9   0.173   0.020  -0.033
    1UNL     N1   10   0.200   0.124  -0.121
    1UNL     C9   11   0.334   0.139  -0.124
    1UNL    C10   12   0.411   0.222  -0.204
    1UNL    C11   13   0.545   0.221  -0.199
    1UNL    C12   14   0.616   0.133  -0.115
    1UNL    C13   15   0.542   0.053  -0.030
    1UNL    C14   16   0.400   0.052  -0.034
    1UNL    C15   17   0.291  -0.026   0.022
    1UNL    C16   18   0.292  -0.138   0.124
    1UNL    C17   19   0.161  -0.148   0.197
    1UNL     N2   20   0.039  -0.143   0.110
    1UNL    C18   21  -0.075  -0.194   0.159
    1UNL     O2   22  -0.078  -0.281   0.246
    1UNL    C19   23  -0.207  -0.136   0.120
    1UNL    C20   24  -0.263  -0.225   0.007
    1UNL     O3   25  -0.288  -0.360   0.041
    1UNL     H1   26  -0.379   0.085  -0.316
    1UNL     H2   27  -0.511   0.076  -0.184
    1UNL     H3   28  -0.417   0.232  -0.206
    1UNL     H4   29  -0.207   0.051  -0.143
    1UNL     H5   30  -0.461   0.222   0.077
    1UNL     H6   31  -0.408   0.130   0.209
    1UNL     H7   32  -0.525  -0.029   0.035
    1UNL     H8   33  -0.222   0.057   0.198
    1UNL     H9   34  -0.057   0.159  -0.010
    1UNL    H10   35  -0.016   0.124   0.153
    1UNL    H11   36  -0.007  -0.079  -0.086
    1UNL    H12   37   0.129   0.184  -0.163
    1UNL    H13   38   0.354   0.283  -0.267
    1UNL    H14   39   0.603   0.297  -0.248
    1UNL    H15   40   0.727   0.134  -0.115
    1UNL    H16   41   0.596   0.002   0.055
    1UNL    H17   42   0.325  -0.236   0.077
    1UNL    H18   43   0.371  -0.111   0.197
    1UNL    H19   44   0.143  -0.071   0.278
    1UNL    H20   45   0.156  -0.247   0.237
    1UNL    H21   46  -0.277  -0.149   0.205
    1UNL    H22   47  -0.202  -0.218  -0.088
    1UNL    H23   48  -0.361  -0.192  -0.018
    1UNL    H24   49  -0.218  -0.382   0.106
   0.00000   0.00000   0.00000   0.00000   0.00000   0.00000   0.00000   0.00000   0.00000
Generated with MDTraj, t= 70.0
 49
    1UNL     C1    1  -0.418   0.125  -0.209
    1UNL     C2    2  -0.308   0.080  -0.115
    1UNL     C3    3  -0.317   0.069   0.018
    1UNL     C4    4  -0.449   0.115   0.083
    1UNL     O1    5  -0.536   0.005   0.092
    1UNL     C5    6  -0.205   0.035   0.109
    1UNL     C6    7  -0.063   0.089   0.080
    1UNL     C7    8   0.027  -0.020   0.025
    1UNL     C8    9   0.170   0.021  -0.035
    1UNL     N1   10   0.201   0.116  -0.124
    1UNL     C9   11   0.336   0.135  -0.128
    1UNL    C10   12   0.413   0.217  -0.214
    1UNL    C11   13   0.546   0.202  -0.203
    1UNL    C12   14   0.610   0.123  -0.101
    1UNL    C13   15   0.535   0.044  -0.017
    1UNL    C14   16   0.397   0.049  -0.035
    1UNL    C15   17   0.289  -0.026   0.019
    1UNL    C16   18   0.299  -0.143   0.105
    1UNL    C17   19   0.170  -0.155   0.193
    1UNL     N2   20   0.040  -0.122   0.120
    1UNL    C18   21  -0.076  -0.184   0.169
    1UNL     O2   22  -0.072  -0.292   0.229
    1UNL    C19   23  -0.210  -0.126   0.139
    1UNL    C20   24  -0.249  -0.205   0.014
    1UNL     O3   25  -0.255  -0.341   0.030
    1UNL     H1   26  -0.397   0.122  -0.323
    1UNL     H2   27  -0.518   0.074  -0.189
    1UNL     H3   28  -0.440   0.237  -0.185
    1UNL     H4   29  -0.212   0.056  -0.160
    1UNL     H5   30  -0.490   0.199   0.037
    1UNL     H6   31  -0.437   0.147   0.189
    1UNL     H7   32  -0.628   0.037   0.082
    1UNL     H8   33  -0.238   0.078   0.209
    1UNL     H9   34  -0.067   0.179   0.013
    1UNL    H10   35  -0.011   0.135   0.166
    1UNL    H11   36  -0.022  -0.074  -0.059
    1UNL    H12   37   0.124   0.149  -0.184
    1UNL    H13   38   0.366   0.293  -0.279
    1UNL    H14   39   0.605   0.254  -0.279
    1UNL    H15   40   0.713   0.122  -0.089
    1UNL    H16   41   0.571  -0.022   0.059
    1UNL    H17   42   0.323  -0.232   0.042
    1UNL    H18   43   0.386  -0.121   0.171
    1UNL    H19   44   0.176  -0.077   0.276
    1UNL    H20   45   0.143  -0.255   0.221
    1UNL    H21   46  -0.271  -0.146   0.227
    1UNL    H22   47  -0.178  -0.197  -0.075
    1UNL    H23   48  -0.341  -0.183  -0.033
    1UNL    H24   49  -0.196  -0.364   0.105
   0.00000   0.00000   0.00000   0.00000   0.00000   0.00000   0.00000   0.00000   0.00000
Generated with MDTraj, t= 71.0
 49
    1UNL     C1    1  -0.410   0.116  -0.199
    1UNL     C2    2  -0.295   0.079  -0.115
    1UNL     C3    3  -0.310   0.077   0.020
    1UNL     C4    4  -0.441   0.100   0.088
    1UNL     O1    5  -0.526  -0.014   0.067
    1UNL     C5    6  -0.205   0.033   0.118
    1UNL     C6    7  -0.064   0.085   0.073
    1UNL     C7    8   0.029  -0.021   0.022
    1UNL     C8    9   0.165   0.030  -0.019
    1UNL     N1   10   0.195   0.133  -0.100
    1UNL     C9   11   0.333   0.144  -0.120
    1UNL    C10   12   0.415   0.234  -0.194
    1UNL    C11   13   0.557   0.213  -0.202
    1UNL    C12   14   0.609   0.104  -0.128
    1UNL    C13   15   0.528   0.019  -0.055
    1UNL    C14   16   0.391   0.038  -0.044
    1UNL    C15   17   0.280  -0.036   0.009
    1UNL    C16   18   0.296  -0.135   0.119
    1UNL    C17   19   0.166  -0.143   0.201
    1UNL     N2   20   0.038  -0.131   0.119
    1UNL    C18   21  -0.080  -0.180   0.178
    1UNL     O2   22  -0.083  -0.268   0.259
    1UNL    C19   23  -0.214  -0.125   0.132
    1UNL    C20   24  -0.251  -0.195   0.004
    1UNL     O3   25  -0.262  -0.338   0.017
    1UNL     H1   26  -0.397   0.083  -0.311
    1UNL     H2   27  -0.512   0.081  -0.157
    1UNL     H3   28  -0.417   0.228  -0.199
    1UNL     H4   29  -0.202   0.045  -0.156
    1UNL     H5   30  -0.488   0.186   0.050
    1UNL     H6   31  -0.426   0.122   0.197
    1UNL     H7   32  -0.474  -0.105   0.072
    1UNL     H8   33  -0.232   0.071   0.220
    1UNL     H9   34  -0.075   0.160  -0.008
    1UNL    H10   35  -0.015   0.149   0.147
    1UNL    H11   36  -0.008  -0.054  -0.079
    1UNL    H12   37   0.114   0.189  -0.134
    1UNL    H13   38   0.371   0.311  -0.248
    1UNL    H14   39   0.624   0.261  -0.270
    1UNL    H15   40   0.717   0.077  -0.137
    1UNL    H16   41   0.564  -0.075  -0.022
    1UNL    H17   42   0.316  -0.231   0.068
    1UNL    H18   43   0.384  -0.103   0.180
    1UNL    H19   44   0.151  -0.038   0.247
    1UNL    H20   45   0.158  -0.221   0.274
    1UNL    H21   46  -0.290  -0.147   0.205
    1UNL    H22   47  -0.174  -0.191  -0.079
    1UNL    H23   48  -0.333  -0.154  -0.048
    1UNL    H24   49  -0.185  -0.370   0.067
   0.00000   0.00000   0.00000   0.00000   0.00000   0.00000   0.00000   0.00000   0.00000
Generated with MDTraj, t= 72.0
 49
    1UNL     C1    1  -0.413   0.121  -0.209
    1UNL     C2    2  -0.305   0.099  -0.113
    1UNL     C3    3  -0.321   0.078   0.018
    1UNL     C4    4  -0.454   0.094   0.077
    1UNL     O1    5  -0.547  -0.008   0.036
    1UNL     C5    6  -0.212   0.019   0.106
    1UNL     C6    7  -0.071   0.094   0.073
    1UNL     C7    8   0.036  -0.009   0.039
    1UNL     C8    9   0.175   0.045  -0.001
    1UNL     N1   10   0.205   0.159  -0.074
    1UNL     C9   11   0.334   0.144  -0.118
    1UNL    C10   12   0.410   0.234  -0.194
    1UNL    C11   13   0.548   0.208  -0.205
    1UNL    C12   14   0.614   0.099  -0.141
    1UNL    C13   15   0.536   0.012  -0.071
    1UNL    C14   16   0.395   0.035  -0.057
    1UNL    C15   17   0.291  -0.031   0.012
    1UNL    C16   18   0.291  -0.162   0.092
    1UNL    C17   19   0.175  -0.153   0.191
    1UNL     N2   20   0.044  -0.114   0.145
    1UNL    C18   21  -0.067  -0.178   0.195
    1UNL     O2   22  -0.066  -0.262   0.279
    1UNL    C19   23  -0.201  -0.137   0.127
    1UNL    C20   24  -0.230  -0.219   0.002
    1UNL     O3   25  -0.291  -0.345   0.034
    1UNL     H1   26  -0.369   0.128  -0.316
    1UNL     H2   27  -0.502   0.044  -0.204
    1UNL     H3   28  -0.456   0.223  -0.190
    1UNL     H4   29  -0.207   0.068  -0.143
    1UNL     H5   30  -0.496   0.188   0.054
    1UNL     H6   31  -0.444   0.101   0.191
    1UNL     H7   32  -0.508  -0.105   0.030
    1UNL     H8   33  -0.239   0.057   0.207
    1UNL     H9   34  -0.087   0.172  -0.001
    1UNL    H10   35  -0.027   0.147   0.160
    1UNL    H11   36   0.002  -0.055  -0.058
    1UNL    H12   37   0.143   0.237  -0.106
    1UNL    H13   38   0.369   0.318  -0.252
    1UNL    H14   39   0.613   0.282  -0.255
    1UNL    H15   40   0.717   0.081  -0.142
    1UNL    H16   41   0.582  -0.075  -0.016
    1UNL    H17   42   0.265  -0.244   0.025
    1UNL    H18   43   0.389  -0.182   0.141
    1UNL    H19   44   0.200  -0.100   0.289
    1UNL    H20   45   0.153  -0.255   0.215
    1UNL    H21   46  -0.280  -0.167   0.194
    1UNL    H22   47  -0.136  -0.214  -0.058
    1UNL    H23   48  -0.304  -0.174  -0.060
    1UNL    H24   49  -0.235  -0.398   0.097
   0.00000   0.00000   0.00000   0.00000   0.00000   0.00000   0.00000   0.00000   0.00000
Generated with MDTraj, t= 73.0
 49
    1UNL     C1    1  -0.392   0.111  -0.217
    1UNL     C2    2  -0.293   0.104  -0.110
    1UNL     C3    3  -0.316   0.080   0.022
    1UNL     C4    4  -0.458   0.074   0.074
    1UNL     O1    5  -0.550   0.002  -0.004
    1UNL     C5    6  -0.204   0.035   0.118
    1UNL     C6    7  -0.063   0.090   0.079
    1UNL     C7    8   0.031  -0.018   0.017
    1UNL     C8    9   0.171   0.039  -0.014
    1UNL     N1   10   0.199   0.155  -0.083
    1UNL     C9   11   0.334   0.161  -0.098
    1UNL    C10   12   0.413   0.247  -0.170
    1UNL    C11   13   0.542   0.213  -0.202
    1UNL    C12   14   0.592   0.090  -0.156
    1UNL    C13   15   0.524   0.004  -0.073
    1UNL    C14   16   0.390   0.042  -0.048
    1UNL    C15   17   0.290  -0.028   0.020
    1UNL    C16   18   0.282  -0.162   0.084
    1UNL    C17   19   0.171  -0.175   0.188
    1UNL     N2   20   0.048  -0.136   0.119
    1UNL    C18   21  -0.066  -0.178   0.183
    1UNL     O2   22  -0.055  -0.268   0.261
    1UNL    C19   23  -0.204  -0.112   0.145
    1UNL    C20   24  -0.260  -0.206   0.033
    1UNL     O3   25  -0.263  -0.340   0.076
    1UNL     H1   26  -0.341   0.108  -0.320
    1UNL     H2   27  -0.477   0.033  -0.210
    1UNL     H3   28  -0.434   0.218  -0.216
    1UNL     H4   29  -0.186   0.101  -0.133
    1UNL     H5   30  -0.493   0.174   0.087
    1UNL     H6   31  -0.466   0.036   0.183
    1UNL     H7   32  -0.544  -0.094   0.017
    1UNL     H8   33  -0.222   0.080   0.215
    1UNL     H9   34  -0.061   0.181   0.020
    1UNL    H10   35  -0.017   0.115   0.176
    1UNL    H11   36  -0.018  -0.062  -0.074
    1UNL    H12   37   0.143   0.230  -0.128
    1UNL    H13   38   0.371   0.337  -0.214
    1UNL    H14   39   0.597   0.279  -0.263
    1UNL    H15   40   0.703   0.084  -0.166
    1UNL    H16   41   0.566  -0.073  -0.021
    1UNL    H17   42   0.284  -0.238   0.007
    1UNL    H18   43   0.372  -0.174   0.147
    1UNL    H19   44   0.181  -0.114   0.285
    1UNL    H20   45   0.160  -0.277   0.222
    1UNL    H21   46  -0.264  -0.129   0.231
    1UNL    H22   47  -0.183  -0.206  -0.048
    1UNL    H23   48  -0.345  -0.157  -0.002
    1UNL    H24   49  -0.203  -0.359   0.153
   0.00000   0.00000   0.00000   0.00000   0.00000   0.00000   0.00000   0.00000   0.00000
Generated with MDTraj, t= 74.0
 49
    1UNL     C1    1  -0.348   0.132  -0.218
    1UNL     C2    2  -0.274   0.062  -0.119
    1UNL     C3    3  -0.305   0.056   0.014
    1UNL     C4    4  -0.445   0.097   0.046
    1UNL     O1    5  -0.543   0.024  -0.018
    1UNL     C5    6  -0.207   0.030   0.129
    1UNL     C6    7  -0.059   0.081   0.108
    1UNL     C7    8   0.029  -0.015   0.040
    1UNL     C8    9   0.163   0.034  -0.008
    1UNL     N1   10   0.185   0.141  -0.094
    1UNL     C9   11   0.324   0.159  -0.129
    1UNL    C10   12   0.411   0.259  -0.183
    1UNL    C11   13   0.546   0.242  -0.181
    1UNL    C12   14   0.598   0.119  -0.137
    1UNL    C13   15   0.520   0.019  -0.085
    1UNL    C14   16   0.377   0.034  -0.072
    1UNL    C15   17   0.273  -0.044  -0.005
    1UNL    C16   18   0.273  -0.175   0.063
    1UNL    C17   19   0.178  -0.175   0.182
    1UNL     N2   20   0.043  -0.131   0.128
    1UNL    C18   21  -0.068  -0.184   0.194
    1UNL     O2   22  -0.053  -0.273   0.278
    1UNL    C19   23  -0.209  -0.122   0.163
    1UNL    C20   24  -0.276  -0.216   0.050
    1UNL     O3   25  -0.275  -0.346   0.089
    1UNL     H1   26  -0.290   0.141  -0.317
    1UNL     H2   27  -0.453   0.095  -0.234
    1UNL     H3   28  -0.352   0.245  -0.182
    1UNL     H4   29  -0.177   0.031  -0.146
    1UNL     H5   30  -0.475   0.199   0.030
    1UNL     H6   31  -0.464   0.086   0.160
    1UNL     H7   32  -0.517  -0.066  -0.010
    1UNL     H8   33  -0.244   0.090   0.209
    1UNL     H9   34  -0.061   0.180   0.065
    1UNL    H10   35  -0.007   0.093   0.205
    1UNL    H11   36  -0.029  -0.055  -0.046
    1UNL    H12   37   0.120   0.216  -0.124
    1UNL    H13   38   0.363   0.341  -0.228
    1UNL    H14   39   0.609   0.322  -0.226
    1UNL    H15   40   0.704   0.114  -0.143
    1UNL    H16   41   0.567  -0.068  -0.031
    1UNL    H17   42   0.234  -0.252  -0.002
    1UNL    H18   43   0.378  -0.198   0.083
    1UNL    H19   44   0.218  -0.101   0.259
    1UNL    H20   45   0.172  -0.266   0.241
    1UNL    H21   46  -0.261  -0.137   0.255
    1UNL    H22   47  -0.241  -0.188  -0.051
    1UNL    H23   48  -0.377  -0.196   0.056
    1UNL    H24   49  -0.194  -0.370   0.139
   0.00000   0.00000   0.00000   0.00000   0.00000   0.00000   0.00000   0.00000   0.00000
Generated with MDTraj, t= 75.0
 49
    1UNL     C1    1  -0.335   0.113  -0.233
    1UNL     C2    2  -0.249   0.069  -0.124
    1UNL     C3    3  -0.286   0.078   0.010
    1UNL     C4    4  -0.426   0.127   0.051
    1UNL     O1    5  -0.528   0.076  -0.037
    1UNL     C5    6  -0.194   0.026   0.124
    1UNL     C6    7  -0.054   0.069   0.109
    1UNL     C7    8   0.022  -0.035   0.026
    1UNL     C8    9   0.149   0.017  -0.027
    1UNL     N1   10   0.168   0.145  -0.083
    1UNL     C9   11   0.305   0.155  -0.115
    1UNL    C10   12   0.375   0.266  -0.169
    1UNL    C11   13   0.510   0.244  -0.178
    1UNL    C12   14   0.579   0.131  -0.132
    1UNL    C13   15   0.512   0.028  -0.081
    1UNL    C14   16   0.371   0.042  -0.062
    1UNL    C15   17   0.273  -0.047  -0.016
    1UNL    C16   18   0.289  -0.174   0.060
    1UNL    C17   19   0.180  -0.190   0.169
    1UNL     N2   20   0.046  -0.148   0.125
    1UNL    C18   21  -0.063  -0.190   0.195
    1UNL     O2   22  -0.062  -0.274   0.287
    1UNL    C19   23  -0.197  -0.131   0.155
    1UNL    C20   24  -0.262  -0.234   0.058
    1UNL     O3   25  -0.271  -0.355   0.124
    1UNL     H1   26  -0.301   0.078  -0.338
    1UNL     H2   27  -0.444   0.088  -0.221
    1UNL     H3   28  -0.324   0.227  -0.239
    1UNL     H4   29  -0.152   0.024  -0.148
    1UNL     H5   30  -0.426   0.234   0.055
    1UNL     H6   31  -0.458   0.095   0.157
    1UNL     H7   32  -0.529  -0.017  -0.049
    1UNL     H8   33  -0.229   0.069   0.215
    1UNL     H9   34  -0.048   0.162   0.054
    1UNL    H10   35  -0.017   0.093   0.209
    1UNL    H11   36  -0.046  -0.073  -0.054
    1UNL    H12   37   0.101   0.219  -0.109
    1UNL    H13   38   0.317   0.357  -0.203
    1UNL    H14   39   0.558   0.324  -0.226
    1UNL    H15   40   0.688   0.124  -0.149
    1UNL    H16   41   0.566  -0.060  -0.053
    1UNL    H17   42   0.262  -0.245  -0.017
    1UNL    H18   43   0.388  -0.198   0.097
    1UNL    H19   44   0.209  -0.128   0.261
    1UNL    H20   45   0.176  -0.289   0.215
    1UNL    H21   46  -0.264  -0.139   0.241
    1UNL    H22   47  -0.189  -0.251  -0.024
    1UNL    H23   48  -0.353  -0.213   0.013
    1UNL    H24   49  -0.187  -0.359   0.177
   0.00000   0.00000   0.00000   0.00000   0.00000   0.00000   0.00000   0.00000   0.00000
Generated with MDTraj, t= 76.0
 49
    1UNL     C1    1  -0.320   0.092  -0.235
    1UNL     C2    2  -0.267   0.039  -0.111
    1UNL     C3    3  -0.302   0.058   0.019
    1UNL     C4    4  -0.420   0.143   0.042
    1UNL     O1    5  -0.537   0.102  -0.028
    1UNL     C5    6  -0.205   0.021   0.124
    1UNL     C6    7  -0.059   0.073   0.087
    1UNL     C7    8   0.034  -0.042   0.021
    1UNL     C8    9   0.162   0.013  -0.026
    1UNL     N1   10   0.173   0.141  -0.076
    1UNL     C9   11   0.311   0.156  -0.109
    1UNL    C10   12   0.372   0.262  -0.175
    1UNL    C11   13   0.507   0.252  -0.189
    1UNL    C12   14   0.587   0.149  -0.135
    1UNL    C13   15   0.521   0.043  -0.078
    1UNL    C14   16   0.384   0.046  -0.059
    1UNL    C15   17   0.288  -0.045  -0.011
    1UNL    C16   18   0.302  -0.173   0.061
    1UNL    C17   19   0.190  -0.195   0.166
    1UNL     N2   20   0.053  -0.155   0.125
    1UNL    C18   21  -0.067  -0.190   0.192
    1UNL     O2   22  -0.064  -0.277   0.280
    1UNL    C19   23  -0.210  -0.140   0.172
    1UNL    C20   24  -0.284  -0.215   0.076
    1UNL     O3   25  -0.294  -0.358   0.104
    1UNL     H1   26  -0.251   0.065  -0.324
    1UNL     H2   27  -0.428   0.061  -0.258
    1UNL     H3   28  -0.310   0.202  -0.231
    1UNL     H4   29  -0.178  -0.022  -0.119
    1UNL     H5   30  -0.403   0.246   0.017
    1UNL     H6   31  -0.436   0.140   0.156
    1UNL     H7   32  -0.561   0.005  -0.007
    1UNL     H8   33  -0.237   0.075   0.211
    1UNL     H9   34  -0.076   0.170   0.039
    1UNL    H10   35  -0.004   0.105   0.175
    1UNL    H11   36  -0.020  -0.104  -0.055
    1UNL    H12   37   0.098   0.205  -0.101
    1UNL    H13   38   0.315   0.340  -0.210
    1UNL    H14   39   0.569   0.320  -0.250
    1UNL    H15   40   0.693   0.159  -0.138
    1UNL    H16   41   0.583  -0.041  -0.065
    1UNL    H17   42   0.325  -0.259   0.000
    1UNL    H18   43   0.389  -0.150   0.121
    1UNL    H19   44   0.207  -0.147   0.268
    1UNL    H20   45   0.193  -0.301   0.192
    1UNL    H21   46  -0.263  -0.149   0.265
    1UNL    H22   47  -0.255  -0.211  -0.031
    1UNL    H23   48  -0.381  -0.178   0.075
    1UNL    H24   49  -0.209  -0.381   0.145
   0.00000   0.00000   0.00000   0.00000   0.00000   0.00000   0.00000   0.00000   0.00000
Generated with MDTraj, t= 77.0
 49
    1UNL     C1    1  -0.390   0.063  -0.225
    1UNL     C2    2  -0.285   0.026  -0.127
    1UNL     C3    3  -0.294   0.063   0.006
    1UNL     C4    4  -0.407   0.148   0.048
    1UNL     O1    5  -0.530   0.106  -0.005
    1UNL     C5    6  -0.200   0.013   0.113
    1UNL     C6    7  -0.062   0.075   0.113
    1UNL     C7    8   0.026  -0.019   0.035
    1UNL     C8    9   0.163   0.039  -0.010
    1UNL     N1   10   0.183   0.151  -0.091
    1UNL     C9   11   0.323   0.159  -0.117
    1UNL    C10   12   0.402   0.257  -0.188
    1UNL    C11   13   0.537   0.241  -0.191
    1UNL    C12   14   0.594   0.130  -0.126
    1UNL    C13   15   0.519   0.036  -0.062
    1UNL    C14   16   0.383   0.054  -0.051
    1UNL    C15   17   0.281  -0.031  -0.003
    1UNL    C16   18   0.310  -0.159   0.072
    1UNL    C17   19   0.187  -0.168   0.175
    1UNL     N2   20   0.054  -0.140   0.118
    1UNL    C18   21  -0.064  -0.195   0.179
    1UNL     O2   22  -0.062  -0.300   0.245
    1UNL    C19   23  -0.209  -0.139   0.153
    1UNL    C20   24  -0.283  -0.231   0.058
    1UNL     O3   25  -0.305  -0.366   0.115
    1UNL     H1   26  -0.355   0.040  -0.330
    1UNL     H2   27  -0.491   0.012  -0.204
    1UNL     H3   28  -0.402   0.173  -0.225
    1UNL     H4   29  -0.204  -0.036  -0.157
    1UNL     H5   30  -0.387   0.246   0.010
    1UNL     H6   31  -0.408   0.162   0.163
    1UNL     H7   32  -0.549   0.017   0.047
    1UNL     H8   33  -0.242   0.053   0.206
    1UNL     H9   34  -0.057   0.174   0.066
    1UNL    H10   35  -0.028   0.099   0.213
    1UNL    H11   36  -0.031  -0.058  -0.052
    1UNL    H12   37   0.103   0.202  -0.127
    1UNL    H13   38   0.349   0.331  -0.252
    1UNL    H14   39   0.592   0.314  -0.244
    1UNL    H15   40   0.704   0.125  -0.123
    1UNL    H16   41   0.569  -0.051  -0.011
    1UNL    H17   42   0.298  -0.238  -0.001
    1UNL    H18   43   0.404  -0.169   0.121
    1UNL    H19   44   0.212  -0.091   0.252
    1UNL    H20   45   0.175  -0.259   0.233
    1UNL    H21   46  -0.265  -0.146   0.245
    1UNL    H22   47  -0.210  -0.247  -0.027
    1UNL    H23   48  -0.373  -0.215   0.003
    1UNL    H24   49  -0.236  -0.377   0.186
   0.00000   0.00000   0.00000   0.00000   0.00000   0.00000   0.00000   0.00000   0.00000
Generated with MDTraj, t= 78.0
 49
    1UNL     C1    1  -0.396   0.026  -0.225
    1UNL     C2    2  -0.299   0.011  -0.116
    1UNL     C3    3  -0.312   0.055   0.013
    1UNL     C4    4  -0.419   0.153   0.054
    1UNL     O1    5  -0.549   0.107   0.047
    1UNL     C5    6  -0.202   0.018   0.110
    1UNL     C6    7  -0.065   0.082   0.064
    1UNL     C7    8   0.035  -0.017   0.018
    1UNL     C8    9   0.169   0.036  -0.019
    1UNL     N1   10   0.194   0.145  -0.093
    1UNL     C9   11   0.331   0.163  -0.104
    1UNL    C10   12   0.408   0.259  -0.172
    1UNL    C11   13   0.541   0.232  -0.186
    1UNL    C12   14   0.607   0.114  -0.141
    1UNL    C13   15   0.534   0.027  -0.060
    1UNL    C14   16   0.398   0.052  -0.040
    1UNL    C15   17   0.291  -0.017   0.021
    1UNL    C16   18   0.300  -0.143   0.094
    1UNL    C17   19   0.174  -0.159   0.184
    1UNL     N2   20   0.048  -0.132   0.108
    1UNL    C18   21  -0.070  -0.192   0.161
    1UNL     O2   22  -0.070  -0.300   0.220
    1UNL    C19   23  -0.208  -0.129   0.148
    1UNL    C20   24  -0.273  -0.228   0.052
    1UNL     O3   25  -0.288  -0.355   0.102
    1UNL     H1   26  -0.369  -0.024  -0.321
    1UNL     H2   27  -0.502  -0.003  -0.198
    1UNL     H3   28  -0.402   0.136  -0.258
    1UNL     H4   29  -0.211  -0.051  -0.140
    1UNL     H5   30  -0.414   0.246   0.004
    1UNL     H6   31  -0.407   0.183   0.164
    1UNL     H7   32  -0.580   0.046   0.118
    1UNL     H8   33  -0.227   0.080   0.196
    1UNL     H9   34  -0.076   0.164  -0.009
    1UNL    H10   35  -0.008   0.138   0.138
    1UNL    H11   36  -0.008  -0.059  -0.075
    1UNL    H12   37   0.121   0.199  -0.137
    1UNL    H13   38   0.350   0.331  -0.227
    1UNL    H14   39   0.602   0.300  -0.249
    1UNL    H15   40   0.712   0.099  -0.145
    1UNL    H16   41   0.585  -0.036   0.002
    1UNL    H17   42   0.287  -0.224   0.022
    1UNL    H18   43   0.394  -0.149   0.142
    1UNL    H19   44   0.168  -0.087   0.269
    1UNL    H20   45   0.175  -0.257   0.231
    1UNL    H21   46  -0.262  -0.140   0.241
    1UNL    H22   47  -0.240  -0.233  -0.058
    1UNL    H23   48  -0.374  -0.191   0.046
    1UNL    H24   49  -0.202  -0.397   0.116
   0.00000   0.00000   0.00000   0.00000   0.00000   0.00000   0.00000   0.00000   0.00000
Generated with MDTraj, t= 79.0
 49
    1UNL     C1    1  -0.431   0.061  -0.221
    1UNL     C2    2  -0.322   0.021  -0.136
    1UNL     C3    3  -0.310   0.059  -0.007
    1UNL     C4    4  -0.425   0.138   0.052
    1UNL     O1    5  -0.540   0.060   0.072
    1UNL     C5    6  -0.203   0.019   0.093
    1UNL     C6    7  -0.062   0.083   0.075
    1UNL     C7    8   0.040  -0.018   0.022
    1UNL     C8    9   0.178   0.035  -0.015
    1UNL     N1   10   0.203   0.142  -0.094
    1UNL     C9   11   0.336   0.149  -0.121
    1UNL    C10   12   0.411   0.251  -0.185
    1UNL    C11   13   0.546   0.240  -0.182
    1UNL    C12   14   0.610   0.128  -0.117
    1UNL    C13   15   0.537   0.033  -0.047
    1UNL    C14   16   0.400   0.046  -0.055
    1UNL    C15   17   0.295  -0.029   0.010
    1UNL    C16   18   0.289  -0.158   0.082
    1UNL    C17   19   0.177  -0.164   0.186
    1UNL     N2   20   0.053  -0.136   0.118
    1UNL    C18   21  -0.067  -0.190   0.172
    1UNL     O2   22  -0.064  -0.272   0.260
    1UNL    C19   23  -0.202  -0.130   0.135
    1UNL    C20   24  -0.268  -0.224   0.038
    1UNL     O3   25  -0.301  -0.342   0.085
    1UNL     H1   26  -0.460  -0.016  -0.297
    1UNL     H2   27  -0.523   0.086  -0.168
    1UNL     H3   28  -0.401   0.150  -0.287
    1UNL     H4   29  -0.252  -0.048  -0.175
    1UNL     H5   30  -0.450   0.220  -0.011
    1UNL     H6   31  -0.398   0.191   0.149
    1UNL     H7   32  -0.547   0.019   0.156
    1UNL     H8   33  -0.237   0.076   0.183
    1UNL     H9   34  -0.059   0.169   0.007
    1UNL    H10   35  -0.020   0.126   0.164
    1UNL    H11   36   0.003  -0.046  -0.078
    1UNL    H12   37   0.140   0.212  -0.130
    1UNL    H13   38   0.360   0.327  -0.240
    1UNL    H14   39   0.608   0.300  -0.244
    1UNL    H15   40   0.718   0.129  -0.110
    1UNL    H16   41   0.582  -0.039   0.026
    1UNL    H17   42   0.290  -0.237   0.008
    1UNL    H18   43   0.373  -0.165   0.145
    1UNL    H19   44   0.198  -0.084   0.260
    1UNL    H20   45   0.165  -0.259   0.235
    1UNL    H21   46  -0.259  -0.143   0.227
    1UNL    H22   47  -0.187  -0.236  -0.044
    1UNL    H23   48  -0.356  -0.183  -0.011
    1UNL    H24   49  -0.229  -0.378   0.146
   0.00000   0.00000   0.00000   0.00000   0.00000   0.00000   0.00000   0.00000   0.00000
Generated with MDTraj, t= 80.0
 49
    1UNL     C1    1  -0.401   0.072  -0.227
    1UNL     C2    2  -0.299   0.051  -0.122
    1UNL     C3    3  -0.309   0.076   0.009
    1UNL     C4    4  -0.439   0.129   0.064
    1UNL     O1    5  -0.538   0.029   0.094
    1UNL     C5    6  -0.193   0.036   0.098
    1UNL     C6    7  -0.057   0.084   0.036
    1UNL     C7    8   0.026  -0.037   0.007
    1UNL     C8    9   0.160   0.014  -0.037
    1UNL     N1   10   0.189   0.133  -0.115
    1UNL     C9   11   0.322   0.148  -0.128
    1UNL    C10   12   0.412   0.251  -0.173
    1UNL    C11   13   0.550   0.237  -0.175
    1UNL    C12   14   0.602   0.128  -0.098
    1UNL    C13   15   0.521   0.031  -0.040
    1UNL    C14   16   0.380   0.044  -0.051
    1UNL    C15   17   0.278  -0.048  -0.004
    1UNL    C16   18   0.290  -0.168   0.093
    1UNL    C17   19   0.170  -0.169   0.181
    1UNL     N2   20   0.041  -0.136   0.114
    1UNL    C18   21  -0.074  -0.172   0.187
    1UNL     O2   22  -0.057  -0.247   0.277
    1UNL    C19   23  -0.205  -0.118   0.135
    1UNL    C20   24  -0.262  -0.212   0.032
    1UNL     O3   25  -0.253  -0.345   0.074
    1UNL     H1   26  -0.350   0.059  -0.327
    1UNL     H2   27  -0.484  -0.001  -0.215
    1UNL     H3   28  -0.438   0.175  -0.225
    1UNL     H4   29  -0.206   0.003  -0.150
    1UNL     H5   30  -0.474   0.201  -0.006
    1UNL     H6   31  -0.416   0.197   0.152
    1UNL     H7   32  -0.517  -0.041   0.026
    1UNL     H8   33  -0.201   0.092   0.194
    1UNL     H9   34  -0.069   0.148  -0.052
    1UNL    H10   35   0.001   0.143   0.105
    1UNL    H11   36  -0.013  -0.098  -0.074
    1UNL    H12   37   0.126   0.204  -0.150
    1UNL    H13   38   0.372   0.345  -0.219
    1UNL    H14   39   0.616   0.310  -0.222
    1UNL    H15   40   0.710   0.114  -0.091
    1UNL    H16   41   0.560  -0.051   0.015
    1UNL    H17   42   0.290  -0.261   0.038
    1UNL    H18   43   0.384  -0.159   0.139
    1UNL    H19   44   0.172  -0.108   0.272
    1UNL    H20   45   0.161  -0.273   0.206
    1UNL    H21   46  -0.280  -0.127   0.215
    1UNL    H22   47  -0.202  -0.199  -0.068
    1UNL    H23   48  -0.364  -0.184   0.006
    1UNL    H24   49  -0.208  -0.355   0.160
   0.00000   0.00000   0.00000   0.00000   0.00000   0.00000   0.00000   0.00000   0.00000
Generated with MDTraj, t= 81.0
 49
    1UNL     C1    1  -0.401   0.094  -0.228
    1UNL     C2    2  -0.298   0.088  -0.128
    1UNL     C3    3  -0.315   0.086   0.003
    1UNL     C4    4  -0.450   0.113   0.066
    1UNL     O1    5  -0.527  -0.005   0.089
    1UNL     C5    6  -0.204   0.035   0.096
    1UNL     C6    7  -0.057   0.084   0.054
    1UNL     C7    8   0.036  -0.031   0.010
    1UNL     C8    9   0.165   0.008  -0.055
    1UNL     N1   10   0.197   0.122  -0.121
    1UNL     C9   11   0.333   0.132  -0.137
    1UNL    C10   12   0.405   0.242  -0.179
    1UNL    C11   13   0.540   0.243  -0.167
    1UNL    C12   14   0.605   0.138  -0.090
    1UNL    C13   15   0.530   0.027  -0.045
    1UNL    C14   16   0.390   0.026  -0.063
    1UNL    C15   17   0.281  -0.059  -0.018
    1UNL    C16   18   0.276  -0.173   0.081
    1UNL    C17   19   0.170  -0.163   0.196
    1UNL     N2   20   0.043  -0.124   0.127
    1UNL    C18   21  -0.074  -0.162   0.193
    1UNL     O2   22  -0.072  -0.233   0.290
    1UNL    C19   23  -0.209  -0.115   0.137
    1UNL    C20   24  -0.264  -0.211   0.035
    1UNL     O3   25  -0.237  -0.352   0.072
    1UNL     H1   26  -0.349   0.129  -0.320
    1UNL     H2   27  -0.448  -0.008  -0.238
    1UNL     H3   28  -0.479   0.162  -0.206
    1UNL     H4   29  -0.196   0.071  -0.154
    1UNL     H5   30  -0.513   0.173   0.008
    1UNL     H6   31  -0.444   0.175   0.159
    1UNL     H7   32  -0.516  -0.082   0.017
    1UNL     H8   33  -0.221   0.081   0.198
    1UNL     H9   34  -0.071   0.162  -0.020
    1UNL    H10   35  -0.015   0.127   0.143
    1UNL    H11   36  -0.012  -0.085  -0.071
    1UNL    H12   37   0.133   0.199  -0.137
    1UNL    H13   38   0.358   0.328  -0.211
    1UNL    H14   39   0.604   0.322  -0.204
    1UNL    H15   40   0.704   0.152  -0.054
    1UNL    H16   41   0.576  -0.056   0.000
    1UNL    H17   42   0.247  -0.251   0.012
    1UNL    H18   43   0.374  -0.201   0.111
    1UNL    H19   44   0.210  -0.078   0.253
    1UNL    H20   45   0.154  -0.245   0.263
    1UNL    H21   46  -0.282  -0.125   0.220
    1UNL    H22   47  -0.224  -0.187  -0.073
    1UNL    H23   48  -0.372  -0.197   0.025
    1UNL    H24   49  -0.181  -0.348   0.155
   0.00000   0.00000   0.00000   0.00000   0.00000   0.00000   0.00000   0.00000   0.00000
Generated with MDTraj, t= 82.0
 49
    1UNL     C1    1  -0.407   0.117  -0.217
    1UNL     C2    2  -0.303   0.065  -0.133
    1UNL     C3    3  -0.310   0.065   0.000
    1UNL     C4    4  -0.445   0.088   0.064
    1UNL     O1    5  -0.528  -0.024   0.062
    1UNL     C5    6  -0.200   0.036   0.101
    1UNL     C6    7  -0.059   0.084   0.067
    1UNL     C7    8   0.032  -0.025   0.008
    1UNL     C8    9   0.160   0.021  -0.043
    1UNL     N1   10   0.191   0.138  -0.109
    1UNL     C9   11   0.329   0.148  -0.125
    1UNL    C10   12   0.414   0.242  -0.187
    1UNL    C11   13   0.553   0.216  -0.178
    1UNL    C12   14   0.607   0.106  -0.111
    1UNL    C13   15   0.528   0.022  -0.046
    1UNL    C14   16   0.389   0.043  -0.053
    1UNL    C15   17   0.279  -0.035  -0.005
    1UNL    C16   18   0.294  -0.157   0.086
    1UNL    C17   19   0.173  -0.151   0.184
    1UNL     N2   20   0.045  -0.118   0.124
    1UNL    C18   21  -0.066  -0.161   0.191
    1UNL     O2   22  -0.067  -0.239   0.284
    1UNL    C19   23  -0.209  -0.113   0.147
    1UNL    C20   24  -0.260  -0.207   0.034
    1UNL     O3   25  -0.272  -0.341   0.079
    1UNL     H1   26  -0.383   0.092  -0.318
    1UNL     H2   27  -0.506   0.077  -0.191
    1UNL     H3   28  -0.420   0.225  -0.215
    1UNL     H4   29  -0.208   0.039  -0.174
    1UNL     H5   30  -0.498   0.165   0.018
    1UNL     H6   31  -0.452   0.121   0.171
    1UNL     H7   32  -0.522  -0.079  -0.023
    1UNL     H8   33  -0.236   0.086   0.197
    1UNL     H9   34  -0.056   0.181   0.020
    1UNL    H10   35  -0.015   0.107   0.164
    1UNL    H11   36  -0.022  -0.076  -0.070
    1UNL    H12   37   0.120   0.201  -0.149
    1UNL    H13   38   0.369   0.319  -0.255
    1UNL    H14   39   0.618   0.282  -0.229
    1UNL    H15   40   0.715   0.090  -0.097
    1UNL    H16   41   0.560  -0.069   0.014
    1UNL    H17   42   0.305  -0.253   0.038
    1UNL    H18   43   0.389  -0.144   0.134
    1UNL    H19   44   0.180  -0.086   0.270
    1UNL    H20   45   0.165  -0.250   0.224
    1UNL    H21   46  -0.270  -0.125   0.241
    1UNL    H22   47  -0.178  -0.212  -0.048
    1UNL    H23   48  -0.353  -0.180  -0.016
    1UNL    H24   49  -0.201  -0.347   0.146
   0.00000   0.00000   0.00000   0.00000   0.00000   0.00000   0.00000   0.00000   0.00000
Generated with MDTraj, t= 83.0
 49
    1UNL     C1    1  -0.387   0.112  -0.233
    1UNL     C2    2  -0.291   0.068  -0.128
    1UNL     C3    3  -0.315   0.066   0.002
    1UNL     C4    4  -0.457   0.082   0.064
    1UNL     O1    5  -0.550  -0.023   0.045
    1UNL     C5    6  -0.207   0.044   0.107
    1UNL     C6    7  -0.070   0.097   0.070
    1UNL     C7    8   0.033  -0.015   0.023
    1UNL     C8    9   0.173   0.040  -0.007
    1UNL     N1   10   0.200   0.148  -0.083
    1UNL     C9   11   0.342   0.157  -0.107
    1UNL    C10   12   0.412   0.235  -0.195
    1UNL    C11   13   0.547   0.216  -0.208
    1UNL    C12   14   0.607   0.106  -0.148
    1UNL    C13   15   0.539   0.019  -0.070
    1UNL    C14   16   0.402   0.045  -0.044
    1UNL    C15   17   0.292  -0.031   0.015
    1UNL    C16   18   0.303  -0.156   0.098
    1UNL    C17   19   0.180  -0.150   0.195
    1UNL     N2   20   0.040  -0.119   0.135
    1UNL    C18   21  -0.078  -0.170   0.179
    1UNL     O2   22  -0.076  -0.269   0.247
    1UNL    C19   23  -0.213  -0.113   0.144
    1UNL    C20   24  -0.268  -0.217   0.044
    1UNL     O3   25  -0.280  -0.344   0.097
    1UNL     H1   26  -0.393   0.034  -0.304
    1UNL     H2   27  -0.482   0.131  -0.192
    1UNL     H3   28  -0.362   0.205  -0.290
    1UNL     H4   29  -0.189   0.042  -0.154
    1UNL     H5   30  -0.503   0.175   0.048
    1UNL     H6   31  -0.446   0.084   0.175
    1UNL     H7   32  -0.553  -0.032  -0.048
    1UNL     H8   33  -0.253   0.096   0.196
    1UNL     H9   34  -0.089   0.173  -0.002
    1UNL    H10   35  -0.021   0.155   0.146
    1UNL    H11   36  -0.010  -0.068  -0.060
    1UNL    H12   37   0.133   0.201  -0.139
    1UNL    H13   38   0.359   0.282  -0.273
    1UNL    H14   39   0.605   0.275  -0.284
    1UNL    H15   40   0.709   0.091  -0.168
    1UNL    H16   41   0.589  -0.050  -0.012
    1UNL    H17   42   0.311  -0.241   0.037
    1UNL    H18   43   0.390  -0.158   0.162
    1UNL    H19   44   0.210  -0.092   0.280
    1UNL    H20   45   0.158  -0.250   0.230
    1UNL    H21   46  -0.271  -0.121   0.240
    1UNL    H22   47  -0.204  -0.235  -0.050
    1UNL    H23   48  -0.371  -0.188   0.018
    1UNL    H24   49  -0.211  -0.360   0.168
   0.00000   0.00000   0.00000   0.00000   0.00000   0.00000   0.00000   0.00000   0.00000
Generated with MDTraj, t= 84.0
 49
    1UNL     C1    1  -0.359   0.080  -0.233
    1UNL     C2    2  -0.265   0.079  -0.115
    1UNL     C3    3  -0.305   0.070   0.010
    1UNL     C4    4  -0.445   0.099   0.056
    1UNL     O1    5  -0.534   0.002   0.006
    1UNL     C5    6  -0.205   0.034   0.127
    1UNL     C6    7  -0.066   0.097   0.109
    1UNL     C7    8   0.034  -0.001   0.036
    1UNL     C8    9   0.166   0.049  -0.007
    1UNL     N1   10   0.191   0.157  -0.089
    1UNL     C9   11   0.329   0.162  -0.114
    1UNL    C10   12   0.400   0.238  -0.201
    1UNL    C11   13   0.532   0.207  -0.212
    1UNL    C12   14   0.593   0.098  -0.154
    1UNL    C13   15   0.521   0.010  -0.080
    1UNL    C14   16   0.386   0.048  -0.051
    1UNL    C15   17   0.286  -0.018   0.017
    1UNL    C16   18   0.293  -0.143   0.102
    1UNL    C17   19   0.177  -0.150   0.195
    1UNL     N2   20   0.043  -0.124   0.129
    1UNL    C18   21  -0.069  -0.186   0.180
    1UNL     O2   22  -0.075  -0.283   0.257
    1UNL    C19   23  -0.204  -0.126   0.149
    1UNL    C20   24  -0.272  -0.220   0.046
    1UNL     O3   25  -0.281  -0.353   0.086
    1UNL     H1   26  -0.395  -0.019  -0.237
    1UNL     H2   27  -0.433   0.155  -0.222
    1UNL     H3   28  -0.308   0.087  -0.330
    1UNL     H4   29  -0.159   0.081  -0.123
    1UNL     H5   30  -0.470   0.194   0.018
    1UNL     H6   31  -0.453   0.102   0.167
    1UNL     H7   32  -0.556   0.006  -0.085
    1UNL     H8   33  -0.253   0.071   0.220
    1UNL     H9   34  -0.069   0.192   0.060
    1UNL    H10   35  -0.030   0.128   0.205
    1UNL    H11   36  -0.007  -0.049  -0.052
    1UNL    H12   37   0.112   0.204  -0.135
    1UNL    H13   38   0.355   0.317  -0.263
    1UNL    H14   39   0.579   0.261  -0.286
    1UNL    H15   40   0.703   0.091  -0.160
    1UNL    H16   41   0.567  -0.081  -0.032
    1UNL    H17   42   0.281  -0.232   0.045
    1UNL    H18   43   0.389  -0.144   0.150
    1UNL    H19   44   0.185  -0.067   0.260
    1UNL    H20   45   0.186  -0.239   0.257
    1UNL    H21   46  -0.269  -0.135   0.242
    1UNL    H22   47  -0.210  -0.212  -0.051
    1UNL    H23   48  -0.375  -0.190   0.028
    1UNL    H24   49  -0.212  -0.379   0.149
   0.00000   0.00000   0.00000   0.00000   0.00000   0.00000   0.00000   0.00000   0.00000
Generated with MDTraj, t= 85.0
 49
    1UNL     C1    1  -0.327   0.103  -0.233
    1UNL     C2    2  -0.252   0.058  -0.113
    1UNL     C3    3  -0.293   0.074   0.009
    1UNL     C4    4  -0.438   0.108   0.030
    1UNL     O1    5  -0.534   0.013  -0.018
    1UNL     C5    6  -0.206   0.038   0.129
    1UNL     C6    7  -0.055   0.089   0.106
    1UNL     C7    8   0.035  -0.020   0.057
    1UNL     C8    9   0.156   0.037  -0.001
    1UNL     N1   10   0.170   0.144  -0.086
    1UNL     C9   11   0.304   0.148  -0.130
    1UNL    C10   12   0.378   0.237  -0.206
    1UNL    C11   13   0.512   0.215  -0.218
    1UNL    C12   14   0.581   0.111  -0.155
    1UNL    C13   15   0.513   0.025  -0.077
    1UNL    C14   16   0.371   0.053  -0.054
    1UNL    C15   17   0.276  -0.025   0.016
    1UNL    C16   18   0.298  -0.155   0.092
    1UNL    C17   19   0.183  -0.175   0.196
    1UNL     N2   20   0.054  -0.135   0.148
    1UNL    C18   21  -0.062  -0.183   0.208
    1UNL     O2   22  -0.064  -0.279   0.283
    1UNL    C19   23  -0.201  -0.119   0.168
    1UNL    C20   24  -0.274  -0.201   0.047
    1UNL     O3   25  -0.271  -0.343   0.061
    1UNL     H1   26  -0.390   0.021  -0.259
    1UNL     H2   27  -0.377   0.194  -0.207
    1UNL     H3   28  -0.268   0.114  -0.316
    1UNL     H4   29  -0.149   0.024  -0.125
    1UNL     H5   30  -0.462   0.201  -0.011
    1UNL     H6   31  -0.458   0.116   0.141
    1UNL     H7   32  -0.534   0.006  -0.118
    1UNL     H8   33  -0.250   0.094   0.212
    1UNL     H9   34  -0.056   0.174   0.041
    1UNL    H10   35  -0.014   0.129   0.196
    1UNL    H11   36  -0.004  -0.068  -0.033
    1UNL    H12   37   0.094   0.208  -0.118
    1UNL    H13   38   0.328   0.326  -0.243
    1UNL    H14   39   0.573   0.287  -0.281
    1UNL    H15   40   0.684   0.111  -0.180
    1UNL    H16   41   0.567  -0.059  -0.038
    1UNL    H17   42   0.287  -0.227   0.017
    1UNL    H18   43   0.392  -0.171   0.143
    1UNL    H19   44   0.213  -0.122   0.281
    1UNL    H20   45   0.167  -0.279   0.225
    1UNL    H21   46  -0.267  -0.126   0.262
    1UNL    H22   47  -0.210  -0.174  -0.043
    1UNL    H23   48  -0.371  -0.158   0.036
    1UNL    H24   49  -0.204  -0.373   0.129
   0.00000   0.00000   0.00000   0.00000   0.00000   0.00000   0.00000   0.00000   0.00000
Generated with MDTraj, t= 86.0
 49
    1UNL     C1    1  -0.311   0.135  -0.238
    1UNL     C2    2  -0.241   0.096  -0.109
    1UNL     C3    3  -0.291   0.085   0.011
    1UNL     C4    4  -0.438   0.114   0.028
    1UNL     O1    5  -0.523   0.006  -0.015
    1UNL     C5    6  -0.203   0.026   0.127
    1UNL     C6    7  -0.053   0.074   0.106
    1UNL     C7    8   0.032  -0.034   0.036
    1UNL     C8    9   0.158   0.027  -0.001
    1UNL     N1   10   0.175   0.136  -0.083
    1UNL     C9   11   0.304   0.142  -0.133
    1UNL    C10   12   0.376   0.245  -0.200
    1UNL    C11   13   0.508   0.233  -0.229
    1UNL    C12   14   0.570   0.125  -0.161
    1UNL    C13   15   0.509   0.031  -0.079
    1UNL    C14   16   0.374   0.040  -0.062
    1UNL    C15   17   0.282  -0.031   0.017
    1UNL    C16   18   0.289  -0.166   0.094
    1UNL    C17   19   0.167  -0.171   0.202
    1UNL     N2   20   0.038  -0.146   0.133
    1UNL    C18   21  -0.079  -0.178   0.202
    1UNL     O2   22  -0.076  -0.257   0.293
    1UNL    C19   23  -0.206  -0.125   0.150
    1UNL    C20   24  -0.257  -0.227   0.047
    1UNL     O3   25  -0.254  -0.364   0.106
    1UNL     H1   26  -0.318   0.050  -0.302
    1UNL     H2   27  -0.407   0.178  -0.216
    1UNL     H3   28  -0.268   0.203  -0.300
    1UNL     H4   29  -0.137   0.079  -0.125
    1UNL     H5   30  -0.463   0.204  -0.020
    1UNL     H6   31  -0.470   0.130   0.135
    1UNL     H7   32  -0.521   0.012  -0.120
    1UNL     H8   33  -0.239   0.068   0.221
    1UNL     H9   34  -0.060   0.164   0.050
    1UNL    H10   35  -0.011   0.098   0.200
    1UNL    H11   36  -0.009  -0.070  -0.059
    1UNL    H12   37   0.104   0.205  -0.116
    1UNL    H13   38   0.332   0.337  -0.232
    1UNL    H14   39   0.562   0.304  -0.283
    1UNL    H15   40   0.678   0.120  -0.172
    1UNL    H16   41   0.569  -0.043  -0.033
    1UNL    H17   42   0.289  -0.252   0.033
    1UNL    H18   43   0.384  -0.158   0.144
    1UNL    H19   44   0.165  -0.104   0.283
    1UNL    H20   45   0.162  -0.271   0.248
    1UNL    H21   46  -0.275  -0.129   0.243
    1UNL    H22   47  -0.195  -0.221  -0.049
    1UNL    H23   48  -0.360  -0.206   0.033
    1UNL    H24   49  -0.183  -0.383   0.169
   0.00000   0.00000   0.00000   0.00000   0.00000   0.00000   0.00000   0.00000   0.00000
Generated with MDTraj, t= 87.0
 49
    1UNL     C1    1  -0.327   0.152  -0.215
    1UNL     C2    2  -0.248   0.088  -0.106
    1UNL     C3    3  -0.302   0.065   0.010
    1UNL     C4    4  -0.446   0.073   0.042
    1UNL     O1    5  -0.518  -0.021  -0.033
    1UNL     C5    6  -0.206   0.030   0.124
    1UNL     C6    7  -0.059   0.081   0.095
    1UNL     C7    8   0.034  -0.027   0.043
    1UNL     C8    9   0.159   0.034  -0.019
    1UNL     N1   10   0.178   0.139  -0.104
    1UNL     C9   11   0.309   0.146  -0.133
    1UNL    C10   12   0.388   0.244  -0.198
    1UNL    C11   13   0.523   0.221  -0.208
    1UNL    C12   14   0.587   0.113  -0.147
    1UNL    C13   15   0.513   0.022  -0.070
    1UNL    C14   16   0.369   0.036  -0.076
    1UNL    C15   17   0.272  -0.033   0.004
    1UNL    C16   18   0.278  -0.158   0.091
    1UNL    C17   19   0.177  -0.161   0.195
    1UNL     N2   20   0.047  -0.131   0.139
    1UNL    C18   21  -0.065  -0.179   0.204
    1UNL     O2   22  -0.054  -0.252   0.299
    1UNL    C19   23  -0.203  -0.124   0.163
    1UNL    C20   24  -0.264  -0.208   0.054
    1UNL     O3   25  -0.290  -0.339   0.092
    1UNL     H1   26  -0.334   0.090  -0.299
    1UNL     H2   27  -0.418   0.185  -0.174
    1UNL     H3   28  -0.288   0.240  -0.258
    1UNL     H4   29  -0.142   0.085  -0.125
    1UNL     H5   30  -0.490   0.166   0.018
    1UNL     H6   31  -0.466   0.051   0.152
    1UNL     H7   32  -0.510  -0.020  -0.136
    1UNL     H8   33  -0.245   0.084   0.210
    1UNL     H9   34  -0.063   0.164   0.028
    1UNL    H10   35  -0.021   0.110   0.189
    1UNL    H11   36  -0.019  -0.078  -0.039
    1UNL    H12   37   0.112   0.213  -0.133
    1UNL    H13   38   0.334   0.324  -0.249
    1UNL    H14   39   0.585   0.289  -0.271
    1UNL    H15   40   0.692   0.113  -0.133
    1UNL    H16   41   0.568  -0.049  -0.003
    1UNL    H17   42   0.263  -0.233   0.018
    1UNL    H18   43   0.376  -0.174   0.133
    1UNL    H19   44   0.202  -0.093   0.270
    1UNL    H20   45   0.161  -0.260   0.243
    1UNL    H21   46  -0.263  -0.130   0.262
    1UNL    H22   47  -0.199  -0.219  -0.039
    1UNL    H23   48  -0.359  -0.173   0.028
    1UNL    H24   49  -0.212  -0.381   0.135
   0.00000   0.00000   0.00000   0.00000   0.00000   0.00000   0.00000   0.00000   0.00000
Generated with MDTraj, t= 88.0
 49
    1UNL     C1    1  -0.368   0.145  -0.218
    1UNL     C2    2  -0.270   0.129  -0.106
    1UNL     C3    3  -0.302   0.075   0.008
    1UNL     C4    4  -0.446   0.049   0.044
    1UNL     O1    5  -0.510  -0.059  -0.025
    1UNL     C5    6  -0.200   0.044   0.120
    1UNL     C6    7  -0.059   0.096   0.096
    1UNL     C7    8   0.029  -0.017   0.032
    1UNL     C8    9   0.162   0.029  -0.023
    1UNL     N1   10   0.187   0.142  -0.097
    1UNL     C9   11   0.320   0.144  -0.126
    1UNL    C10   12   0.401   0.236  -0.195
    1UNL    C11   13   0.538   0.220  -0.203
    1UNL    C12   14   0.599   0.105  -0.147
    1UNL    C13   15   0.520   0.017  -0.070
    1UNL    C14   16   0.388   0.036  -0.060
    1UNL    C15   17   0.279  -0.031   0.008
    1UNL    C16   18   0.285  -0.159   0.090
    1UNL    C17   19   0.170  -0.167   0.182
    1UNL     N2   20   0.037  -0.122   0.133
    1UNL    C18   21  -0.070  -0.175   0.193
    1UNL     O2   22  -0.061  -0.266   0.270
    1UNL    C19   23  -0.207  -0.112   0.161
    1UNL    C20   24  -0.283  -0.205   0.063
    1UNL     O3   25  -0.273  -0.334   0.110
    1UNL     H1   26  -0.398   0.051  -0.245
    1UNL     H2   27  -0.436   0.214  -0.181
    1UNL     H3   28  -0.328   0.183  -0.310
    1UNL     H4   29  -0.172   0.171  -0.130
    1UNL     H5   30  -0.496   0.144   0.041
    1UNL     H6   31  -0.446   0.013   0.153
    1UNL     H7   32  -0.562  -0.022  -0.097
    1UNL     H8   33  -0.244   0.096   0.205
    1UNL     H9   34  -0.067   0.174   0.024
    1UNL    H10   35  -0.012   0.129   0.184
    1UNL    H11   36  -0.032  -0.062  -0.049
    1UNL    H12   37   0.115   0.210  -0.125
    1UNL    H13   38   0.357   0.307  -0.260
    1UNL    H14   39   0.593   0.293  -0.255
    1UNL    H15   40   0.708   0.093  -0.165
    1UNL    H16   41   0.557  -0.048   0.001
    1UNL    H17   42   0.273  -0.241   0.024
    1UNL    H18   43   0.384  -0.169   0.131
    1UNL    H19   44   0.187  -0.100   0.260
    1UNL    H20   45   0.166  -0.272   0.219
    1UNL    H21   46  -0.267  -0.114   0.259
    1UNL    H22   47  -0.237  -0.212  -0.041
    1UNL    H23   48  -0.388  -0.191   0.054
    1UNL    H24   49  -0.207  -0.325   0.184
   0.00000   0.00000   0.00000   0.00000   0.00000   0.00000   0.00000   0.00000   0.00000
Generated with MDTraj, t= 89.0
 49
    1UNL     C1    1  -0.370   0.145  -0.221
    1UNL     C2    2  -0.270   0.106  -0.116
    1UNL     C3    3  -0.303   0.066   0.003
    1UNL     C4    4  -0.454   0.061   0.048
    1UNL     O1    5  -0.546  -0.032  -0.017
    1UNL     C5    6  -0.209   0.030   0.116
    1UNL     C6    7  -0.070   0.088   0.096
    1UNL     C7    8   0.029  -0.012   0.023
    1UNL     C8    9   0.168   0.041  -0.019
    1UNL     N1   10   0.196   0.155  -0.089
    1UNL     C9   11   0.335   0.151  -0.108
    1UNL    C10   12   0.415   0.239  -0.193
    1UNL    C11   13   0.547   0.219  -0.215
    1UNL    C12   14   0.604   0.107  -0.145
    1UNL    C13   15   0.529   0.015  -0.073
    1UNL    C14   16   0.391   0.041  -0.048
    1UNL    C15   17   0.278  -0.035   0.002
    1UNL    C16   18   0.285  -0.165   0.077
    1UNL    C17   19   0.168  -0.158   0.179
    1UNL     N2   20   0.036  -0.128   0.122
    1UNL    C18   21  -0.074  -0.165   0.195
    1UNL     O2   22  -0.066  -0.251   0.280
    1UNL    C19   23  -0.213  -0.120   0.161
    1UNL    C20   24  -0.270  -0.220   0.057
    1UNL     O3   25  -0.264  -0.352   0.116
    1UNL     H1   26  -0.447   0.078  -0.218
    1UNL     H2   27  -0.393   0.244  -0.199
    1UNL     H3   28  -0.341   0.141  -0.324
    1UNL     H4   29  -0.169   0.123  -0.146
    1UNL     H5   30  -0.495   0.159   0.031
    1UNL     H6   31  -0.447   0.045   0.161
    1UNL     H7   32  -0.601  -0.065   0.051
    1UNL     H8   33  -0.263   0.081   0.200
    1UNL     H9   34  -0.078   0.178   0.041
    1UNL    H10   35  -0.028   0.106   0.190
    1UNL    H11   36  -0.017  -0.049  -0.072
    1UNL    H12   37   0.123   0.214  -0.130
    1UNL    H13   38   0.352   0.314  -0.240
    1UNL    H14   39   0.605   0.274  -0.288
    1UNL    H15   40   0.704   0.072  -0.152
    1UNL    H16   41   0.580  -0.079  -0.035
    1UNL    H17   42   0.302  -0.242   0.004
    1UNL    H18   43   0.374  -0.160   0.137
    1UNL    H19   44   0.194  -0.087   0.250
    1UNL    H20   45   0.161  -0.262   0.221
    1UNL    H21   46  -0.279  -0.135   0.255
    1UNL    H22   47  -0.217  -0.215  -0.042
    1UNL    H23   48  -0.374  -0.197   0.048
    1UNL    H24   49  -0.183  -0.348   0.170
   0.00000   0.00000   0.00000   0.00000   0.00000   0.00000   0.00000   0.00000   0.00000
Generated with MDTraj, t= 90.0
 49
    1UNL     C1    1  -0.375   0.099  -0.221
    1UNL     C2    2  -0.278   0.058  -0.117
    1UNL     C3    3  -0.308   0.053   0.007
    1UNL     C4    4  -0.444   0.087   0.049
    1UNL     O1    5  -0.541   0.016  -0.022
    1UNL     C5    6  -0.199   0.036   0.119
    1UNL     C6    7  -0.057   0.094   0.086
    1UNL     C7    8   0.032  -0.020   0.035
    1UNL     C8    9   0.157   0.024  -0.028
    1UNL     N1   10   0.185   0.151  -0.083
    1UNL     C9   11   0.321   0.154  -0.109
    1UNL    C10   12   0.397   0.250  -0.180
    1UNL    C11   13   0.531   0.224  -0.193
    1UNL    C12   14   0.598   0.108  -0.143
    1UNL    C13   15   0.515   0.012  -0.088
    1UNL    C14   16   0.385   0.037  -0.061
    1UNL    C15   17   0.282  -0.043  -0.009
    1UNL    C16   18   0.292  -0.167   0.077
    1UNL    C17   19   0.179  -0.159   0.192
    1UNL     N2   20   0.051  -0.112   0.148
    1UNL    C18   21  -0.063  -0.166   0.204
    1UNL     O2   22  -0.063  -0.260   0.284
    1UNL    C19   23  -0.200  -0.113   0.167
    1UNL    C20   24  -0.252  -0.205   0.048
    1UNL     O3   25  -0.275  -0.349   0.079
    1UNL     H1   26  -0.478   0.087  -0.195
    1UNL     H2   27  -0.354   0.198  -0.242
    1UNL     H3   28  -0.372   0.047  -0.312
    1UNL     H4   29  -0.176   0.038  -0.150
    1UNL     H5   30  -0.451   0.195   0.031
    1UNL     H6   31  -0.457   0.059   0.160
    1UNL     H7   32  -0.638   0.040  -0.002
    1UNL     H8   33  -0.244   0.091   0.206
    1UNL     H9   34  -0.066   0.171   0.015
    1UNL    H10   35  -0.009   0.127   0.173
    1UNL    H11   36  -0.022  -0.085  -0.040
    1UNL    H12   37   0.120   0.219  -0.122
    1UNL    H13   38   0.355   0.347  -0.198
    1UNL    H14   39   0.598   0.291  -0.250
    1UNL    H15   40   0.709   0.102  -0.145
    1UNL    H16   41   0.544  -0.083  -0.064
    1UNL    H17   42   0.287  -0.258   0.020
    1UNL    H18   43   0.395  -0.167   0.108
    1UNL    H19   44   0.204  -0.098   0.273
    1UNL    H20   45   0.154  -0.263   0.225
    1UNL    H21   46  -0.263  -0.136   0.261
    1UNL    H22   47  -0.166  -0.211  -0.022
    1UNL    H23   48  -0.332  -0.161  -0.004
    1UNL    H24   49  -0.218  -0.378   0.153
   0.00000   0.00000   0.00000   0.00000   0.00000   0.00000   0.00000   0.00000   0.00000
Generated with MDTraj, t= 91.0
 49
    1UNL     C1    1  -0.356   0.059  -0.229
    1UNL     C2    2  -0.257   0.053  -0.119
    1UNL     C3    3  -0.299   0.077   0.002
    1UNL     C4    4  -0.434   0.129   0.039
    1UNL     O1    5  -0.540   0.039   0.014
    1UNL     C5    6  -0.206   0.038   0.121
    1UNL     C6    7  -0.059   0.090   0.093
    1UNL     C7    8   0.024  -0.018   0.031
    1UNL     C8    9   0.164   0.029  -0.026
    1UNL     N1   10   0.192   0.154  -0.081
    1UNL     C9   11   0.324   0.156  -0.118
    1UNL    C10   12   0.396   0.253  -0.186
    1UNL    C11   13   0.532   0.235  -0.191
    1UNL    C12   14   0.594   0.116  -0.139
    1UNL    C13   15   0.522   0.019  -0.080
    1UNL    C14   16   0.382   0.044  -0.059
    1UNL    C15   17   0.277  -0.040  -0.006
    1UNL    C16   18   0.285  -0.157   0.080
    1UNL    C17   19   0.172  -0.170   0.181
    1UNL     N2   20   0.039  -0.132   0.125
    1UNL    C18   21  -0.078  -0.175   0.193
    1UNL     O2   22  -0.068  -0.263   0.280
    1UNL    C19   23  -0.211  -0.120   0.156
    1UNL    C20   24  -0.268  -0.228   0.059
    1UNL     O3   25  -0.259  -0.372   0.090
    1UNL     H1   26  -0.451   0.018  -0.192
    1UNL     H2   27  -0.371   0.162  -0.245
    1UNL     H3   28  -0.335   0.009  -0.313
    1UNL     H4   29  -0.162   0.012  -0.140
    1UNL     H5   30  -0.458   0.214  -0.025
    1UNL     H6   31  -0.438   0.170   0.146
    1UNL     H7   32  -0.633   0.086   0.010
    1UNL     H8   33  -0.248   0.091   0.213
    1UNL     H9   34  -0.058   0.176   0.032
    1UNL    H10   35  -0.020   0.112   0.187
    1UNL    H11   36  -0.020  -0.066  -0.060
    1UNL    H12   37   0.126   0.225  -0.110
    1UNL    H13   38   0.342   0.332  -0.233
    1UNL    H14   39   0.585   0.317  -0.230
    1UNL    H15   40   0.697   0.104  -0.155
    1UNL    H16   41   0.578  -0.072  -0.050
    1UNL    H17   42   0.288  -0.237   0.008
    1UNL    H18   43   0.378  -0.174   0.131
    1UNL    H19   44   0.190  -0.101   0.259
    1UNL    H20   45   0.162  -0.272   0.228
    1UNL    H21   46  -0.271  -0.127   0.253
    1UNL    H22   47  -0.221  -0.212  -0.040
    1UNL    H23   48  -0.371  -0.210   0.049
    1UNL    H24   49  -0.177  -0.401   0.132
   0.00000   0.00000   0.00000   0.00000   0.00000   0.00000   0.00000   0.00000   0.00000
Generated with MDTraj, t= 92.0
 49
    1UNL     C1    1  -0.374   0.051  -0.240
    1UNL     C2    2  -0.280   0.033  -0.124
    1UNL     C3    3  -0.299   0.058   0.003
    1UNL     C4    4  -0.424   0.134   0.033
    1UNL     O1    5  -0.547   0.054   0.031
    1UNL     C5    6  -0.198   0.027   0.112
    1UNL     C6    7  -0.055   0.085   0.081
    1UNL     C7    8   0.030  -0.020   0.026
    1UNL     C8    9   0.167   0.036  -0.003
    1UNL     N1   10   0.182   0.147  -0.088
    1UNL     C9   11   0.322   0.163  -0.107
    1UNL    C10   12   0.396   0.252  -0.190
    1UNL    C11   13   0.533   0.233  -0.201
    1UNL    C12   14   0.597   0.131  -0.135
    1UNL    C13   15   0.528   0.032  -0.059
    1UNL    C14   16   0.387   0.047  -0.046
    1UNL    C15   17   0.290  -0.028   0.015
    1UNL    C16   18   0.287  -0.165   0.075
    1UNL    C17   19   0.176  -0.184   0.170
    1UNL     N2   20   0.046  -0.135   0.121
    1UNL    C18   21  -0.064  -0.181   0.189
    1UNL     O2   22  -0.058  -0.269   0.272
    1UNL    C19   23  -0.197  -0.128   0.147
    1UNL    C20   24  -0.269  -0.221   0.053
    1UNL     O3   25  -0.299  -0.344   0.104
    1UNL     H1   26  -0.468   0.007  -0.210
    1UNL     H2   27  -0.389   0.153  -0.248
    1UNL     H3   28  -0.340   0.007  -0.329
    1UNL     H4   29  -0.189  -0.019  -0.152
    1UNL     H5   30  -0.428   0.216  -0.038
    1UNL     H6   31  -0.423   0.186   0.135
    1UNL     H7   32  -0.611   0.108   0.081
    1UNL     H8   33  -0.236   0.093   0.198
    1UNL     H9   34  -0.069   0.163   0.012
    1UNL    H10   35  -0.005   0.120   0.167
    1UNL    H11   36  -0.010  -0.052  -0.074
    1UNL    H12   37   0.112   0.212  -0.121
    1UNL    H13   38   0.350   0.316  -0.264
    1UNL    H14   39   0.582   0.292  -0.284
    1UNL    H15   40   0.707   0.134  -0.142
    1UNL    H16   41   0.581  -0.046  -0.006
    1UNL    H17   42   0.285  -0.254   0.012
    1UNL    H18   43   0.384  -0.176   0.119
    1UNL    H19   44   0.193  -0.133   0.263
    1UNL    H20   45   0.166  -0.292   0.197
    1UNL    H21   46  -0.260  -0.121   0.242
    1UNL    H22   47  -0.212  -0.239  -0.041
    1UNL    H23   48  -0.361  -0.179   0.023
    1UNL    H24   49  -0.215  -0.385   0.141
   0.00000   0.00000   0.00000   0.00000   0.00000   0.00000   0.00000   0.00000   0.00000
Generated with MDTraj, t= 93.0
 49
    1UNL     C1    1  -0.399   0.051  -0.227
    1UNL     C2    2  -0.291   0.017  -0.134
    1UNL     C3    3  -0.298   0.057  -0.009
    1UNL     C4    4  -0.420   0.126   0.045
    1UNL     O1    5  -0.545   0.055   0.026
    1UNL     C5    6  -0.200   0.026   0.108
    1UNL     C6    7  -0.060   0.082   0.078
    1UNL     C7    8   0.035  -0.025   0.023
    1UNL     C8    9   0.170   0.031  -0.025
    1UNL     N1   10   0.195   0.140  -0.103
    1UNL     C9   11   0.332   0.156  -0.121
    1UNL    C10   12   0.403   0.261  -0.176
    1UNL    C11   13   0.544   0.245  -0.181
    1UNL    C12   14   0.600   0.126  -0.134
    1UNL    C13   15   0.532   0.033  -0.064
    1UNL    C14   16   0.389   0.047  -0.055
    1UNL    C15   17   0.290  -0.031   0.013
    1UNL    C16   18   0.295  -0.157   0.093
    1UNL    C17   19   0.175  -0.163   0.191
    1UNL     N2   20   0.051  -0.142   0.112
    1UNL    C18   21  -0.063  -0.189   0.177
    1UNL     O2   22  -0.057  -0.284   0.248
    1UNL    C19   23  -0.204  -0.123   0.154
    1UNL    C20   24  -0.296  -0.206   0.066
    1UNL     O3   25  -0.296  -0.333   0.115
    1UNL     H1   26  -0.489   0.061  -0.175
    1UNL     H2   27  -0.382   0.148  -0.263
    1UNL     H3   28  -0.409  -0.017  -0.312
    1UNL     H4   29  -0.208  -0.045  -0.160
    1UNL     H5   30  -0.431   0.223  -0.001
    1UNL     H6   31  -0.407   0.143   0.156
    1UNL     H7   32  -0.607   0.076   0.093
    1UNL     H8   33  -0.234   0.090   0.197
    1UNL     H9   34  -0.051   0.160   0.008
    1UNL    H10   35  -0.021   0.115   0.169
    1UNL    H11   36  -0.021  -0.064  -0.067
    1UNL    H12   37   0.134   0.199  -0.158
    1UNL    H13   38   0.355   0.348  -0.219
    1UNL    H14   39   0.605   0.316  -0.228
    1UNL    H15   40   0.706   0.126  -0.133
    1UNL    H16   41   0.596  -0.036  -0.015
    1UNL    H17   42   0.320  -0.242   0.026
    1UNL    H18   43   0.375  -0.164   0.165
    1UNL    H19   44   0.184  -0.083   0.263
    1UNL    H20   45   0.168  -0.256   0.251
    1UNL    H21   46  -0.252  -0.116   0.255
    1UNL    H22   47  -0.248  -0.209  -0.034
    1UNL    H23   48  -0.397  -0.173   0.050
    1UNL    H24   49  -0.229  -0.332   0.185
   0.00000   0.00000   0.00000   0.00000   0.00000   0.00000   0.00000   0.00000   0.00000
Generated with MDTraj, t= 94.0
 49
    1UNL     C1    1  -0.374   0.054  -0.227
    1UNL     C2    2  -0.282   0.032  -0.117
    1UNL     C3    3  -0.309   0.056   0.009
    1UNL     C4    4  -0.436   0.122   0.054
    1UNL     O1    5  -0.551   0.045   0.035
    1UNL     C5    6  -0.201   0.023   0.112
    1UNL     C6    7  -0.063   0.083   0.066
    1UNL     C7    8   0.031  -0.019   0.009
    1UNL     C8    9   0.167   0.029  -0.036
    1UNL     N1   10   0.193   0.140  -0.114
    1UNL     C9   11   0.332   0.144  -0.140
    1UNL    C10   12   0.412   0.253  -0.180
    1UNL    C11   13   0.550   0.237  -0.168
    1UNL    C12   14   0.615   0.133  -0.103
    1UNL    C13   15   0.535   0.041  -0.053
    1UNL    C14   16   0.391   0.041  -0.061
    1UNL    C15   17   0.286  -0.030  -0.007
    1UNL    C16   18   0.289  -0.160   0.071
    1UNL    C17   19   0.171  -0.151   0.180
    1UNL     N2   20   0.041  -0.127   0.116
    1UNL    C18   21  -0.071  -0.185   0.177
    1UNL     O2   22  -0.060  -0.282   0.246
    1UNL    C19   23  -0.205  -0.124   0.149
    1UNL    C20   24  -0.285  -0.216   0.063
    1UNL     O3   25  -0.295  -0.337   0.138
    1UNL     H1   26  -0.465   0.008  -0.215
    1UNL     H2   27  -0.398   0.158  -0.229
    1UNL     H3   28  -0.330   0.027  -0.325
    1UNL     H4   29  -0.185  -0.008  -0.135
    1UNL     H5   30  -0.453   0.204  -0.013
    1UNL     H6   31  -0.431   0.156   0.161
    1UNL     H7   32  -0.640   0.087   0.062
    1UNL     H8   33  -0.222   0.083   0.207
    1UNL     H9   34  -0.082   0.158  -0.005
    1UNL    H10   35   0.001   0.125   0.139
    1UNL    H11   36  -0.029  -0.068  -0.073
    1UNL    H12   37   0.130   0.217  -0.138
    1UNL    H13   38   0.376   0.350  -0.214
    1UNL    H14   39   0.612   0.320  -0.207
    1UNL    H15   40   0.724   0.124  -0.094
    1UNL    H16   41   0.566  -0.033   0.025
    1UNL    H17   42   0.266  -0.251   0.014
    1UNL    H18   43   0.394  -0.176   0.099
    1UNL    H19   44   0.192  -0.064   0.244
    1UNL    H20   45   0.167  -0.238   0.247
    1UNL    H21   46  -0.258  -0.131   0.248
    1UNL    H22   47  -0.243  -0.228  -0.042
    1UNL    H23   48  -0.383  -0.170   0.050
    1UNL    H24   49  -0.204  -0.363   0.169
   0.00000   0.00000   0.00000   0.00000   0.00000   0.00000   0.00000   0.00000   0.00000
Generated with MDTraj, t= 95.0
 49
    1UNL     C1    1  -0.399   0.067  -0.218
    1UNL     C2    2  -0.285   0.060  -0.130
    1UNL     C3    3  -0.302   0.071   0.000
    1UNL     C4    4  -0.437   0.115   0.049
    1UNL     O1    5  -0.534   0.014   0.023
    1UNL     C5    6  -0.196   0.034   0.099
    1UNL     C6    7  -0.055   0.078   0.060
    1UNL     C7    8   0.034  -0.037   0.010
    1UNL     C8    9   0.164   0.026  -0.034
    1UNL     N1   10   0.189   0.145  -0.103
    1UNL     C9   11   0.330   0.156  -0.123
    1UNL    C10   12   0.406   0.258  -0.176
    1UNL    C11   13   0.540   0.241  -0.180
    1UNL    C12   14   0.599   0.132  -0.105
    1UNL    C13   15   0.531   0.034  -0.045
    1UNL    C14   16   0.385   0.041  -0.056
    1UNL    C15   17   0.280  -0.049  -0.010
    1UNL    C16   18   0.300  -0.168   0.070
    1UNL    C17   19   0.181  -0.189   0.163
    1UNL     N2   20   0.050  -0.146   0.111
    1UNL    C18   21  -0.063  -0.178   0.189
    1UNL     O2   22  -0.060  -0.239   0.292
    1UNL    C19   23  -0.201  -0.113   0.156
    1UNL    C20   24  -0.282  -0.206   0.061
    1UNL     O3   25  -0.293  -0.338   0.115
    1UNL     H1   26  -0.470  -0.010  -0.194
    1UNL     H2   27  -0.451   0.161  -0.200
    1UNL     H3   28  -0.364   0.060  -0.320
    1UNL     H4   29  -0.188   0.028  -0.168
    1UNL     H5   30  -0.465   0.209   0.006
    1UNL     H6   31  -0.438   0.129   0.159
    1UNL     H7   32  -0.629   0.059   0.022
    1UNL     H8   33  -0.217   0.091   0.194
    1UNL     H9   34  -0.051   0.157  -0.009
    1UNL    H10   35  -0.010   0.112   0.149
    1UNL    H11   36  -0.025  -0.076  -0.078
    1UNL    H12   37   0.116   0.216  -0.112
    1UNL    H13   38   0.351   0.341  -0.216
    1UNL    H14   39   0.606   0.289  -0.247
    1UNL    H15   40   0.709   0.136  -0.101
    1UNL    H16   41   0.576  -0.055  -0.012
    1UNL    H17   42   0.320  -0.244  -0.011
    1UNL    H18   43   0.397  -0.169   0.121
    1UNL    H19   44   0.205  -0.131   0.255
    1UNL    H20   45   0.182  -0.295   0.189
    1UNL    H21   46  -0.255  -0.124   0.252
    1UNL    H22   47  -0.227  -0.205  -0.038
    1UNL    H23   48  -0.382  -0.166   0.040
    1UNL    H24   49  -0.297  -0.348   0.213
   0.00000   0.00000   0.00000   0.00000   0.00000   0.00000   0.00000   0.00000   0.00000
Generated with MDTraj, t= 96.0
 49
    1UNL     C1    1  -0.381   0.092  -0.232
    1UNL     C2    2  -0.284   0.070  -0.122
    1UNL     C3    3  -0.305   0.070   0.011
    1UNL     C4    4  -0.452   0.090   0.054
    1UNL     O1    5  -0.541  -0.021   0.012
    1UNL     C5    6  -0.196   0.050   0.109
    1UNL     C6    7  -0.054   0.097   0.063
    1UNL     C7    8   0.032  -0.033   0.014
    1UNL     C8    9   0.166   0.006  -0.036
    1UNL     N1   10   0.186   0.134  -0.094
    1UNL     C9   11   0.323   0.150  -0.113
    1UNL    C10   12   0.401   0.256  -0.164
    1UNL    C11   13   0.537   0.240  -0.171
    1UNL    C12   14   0.598   0.123  -0.124
    1UNL    C13   15   0.527   0.022  -0.067
    1UNL    C14   16   0.392   0.038  -0.063
    1UNL    C15   17   0.289  -0.056  -0.020
    1UNL    C16   18   0.288  -0.177   0.063
    1UNL    C17   19   0.175  -0.192   0.166
    1UNL     N2   20   0.043  -0.132   0.127
    1UNL    C18   21  -0.073  -0.157   0.201
    1UNL     O2   22  -0.069  -0.220   0.303
    1UNL    C19   23  -0.206  -0.101   0.160
    1UNL    C20   24  -0.265  -0.200   0.057
    1UNL     O3   25  -0.253  -0.335   0.092
    1UNL     H1   26  -0.483   0.055  -0.204
    1UNL     H2   27  -0.393   0.199  -0.247
    1UNL     H3   28  -0.348   0.046  -0.319
    1UNL     H4   29  -0.184   0.056  -0.154
    1UNL     H5   30  -0.494   0.178   0.013
    1UNL     H6   31  -0.462   0.104   0.163
    1UNL     H7   32  -0.612  -0.022   0.077
    1UNL     H8   33  -0.221   0.109   0.199
    1UNL     H9   34  -0.078   0.167  -0.013
    1UNL    H10   35   0.005   0.148   0.133
    1UNL    H11   36  -0.022  -0.093  -0.065
    1UNL    H12   37   0.115   0.191  -0.143
    1UNL    H13   38   0.366   0.347  -0.211
    1UNL    H14   39   0.594   0.325  -0.210
    1UNL    H15   40   0.701   0.116  -0.119
    1UNL    H16   41   0.557  -0.074  -0.020
    1UNL    H17   42   0.294  -0.265  -0.005
    1UNL    H18   43   0.392  -0.181   0.102
    1UNL    H19   44   0.208  -0.142   0.260
    1UNL    H20   45   0.166  -0.297   0.192
    1UNL    H21   46  -0.270  -0.108   0.251
    1UNL    H22   47  -0.220  -0.186  -0.047
    1UNL    H23   48  -0.372  -0.173   0.044
    1UNL    H24   49  -0.262  -0.349   0.188
   0.00000   0.00000   0.00000   0.00000   0.00000   0.00000   0.00000   0.00000   0.00000
Generated with MDTraj, t= 97.0
 49
    1UNL     C1    1  -0.368   0.108  -0.222
    1UNL     C2    2  -0.269   0.077  -0.119
    1UNL     C3    3  -0.307   0.074   0.010
    1UNL     C4    4  -0.455   0.074   0.047
    1UNL     O1    5  -0.527  -0.039   0.005
    1UNL     C5    6  -0.207   0.047   0.118
    1UNL     C6    7  -0.066   0.099   0.098
    1UNL     C7    8   0.018  -0.004   0.018
    1UNL     C8    9   0.153   0.036  -0.035
    1UNL     N1   10   0.190   0.147  -0.103
    1UNL     C9   11   0.325   0.151  -0.116
    1UNL    C10   12   0.411   0.243  -0.172
    1UNL    C11   13   0.550   0.215  -0.167
    1UNL    C12   14   0.601   0.096  -0.122
    1UNL    C13   15   0.515  -0.003  -0.075
    1UNL    C14   16   0.376   0.029  -0.066
    1UNL    C15   17   0.258  -0.047  -0.023
    1UNL    C16   18   0.264  -0.169   0.055
    1UNL    C17   19   0.173  -0.141   0.175
    1UNL     N2   20   0.040  -0.107   0.124
    1UNL    C18   21  -0.071  -0.151   0.198
    1UNL     O2   22  -0.065  -0.232   0.292
    1UNL    C19   23  -0.208  -0.110   0.158
    1UNL    C20   24  -0.250  -0.217   0.054
    1UNL     O3   25  -0.228  -0.351   0.094
    1UNL     H1   26  -0.460   0.043  -0.223
    1UNL     H2   27  -0.406   0.208  -0.206
    1UNL     H3   28  -0.328   0.102  -0.320
    1UNL     H4   29  -0.164   0.063  -0.143
    1UNL     H5   30  -0.510   0.158   0.012
    1UNL     H6   31  -0.458   0.076   0.157
    1UNL     H7   32  -0.595  -0.064   0.065
    1UNL     H8   33  -0.240   0.093   0.212
    1UNL     H9   34  -0.061   0.191   0.046
    1UNL    H10   35  -0.029   0.124   0.194
    1UNL    H11   36  -0.034  -0.063  -0.063
    1UNL    H12   37   0.137   0.231  -0.132
    1UNL    H13   38   0.370   0.322  -0.234
    1UNL    H14   39   0.625   0.291  -0.186
    1UNL    H15   40   0.708   0.067  -0.100
    1UNL    H16   41   0.560  -0.085  -0.026
    1UNL    H17   42   0.227  -0.252  -0.012
    1UNL    H18   43   0.368  -0.198   0.076
    1UNL    H19   44   0.225  -0.069   0.244
    1UNL    H20   45   0.148  -0.229   0.233
    1UNL    H21   46  -0.278  -0.113   0.243
    1UNL    H22   47  -0.207  -0.200  -0.050
    1UNL    H23   48  -0.359  -0.222   0.033
    1UNL    H24   49  -0.132  -0.354   0.124
   0.00000   0.00000   0.00000   0.00000   0.00000   0.00000   0.00000   0.00000   0.00000
Generated with MDTraj, t= 98.0
 49
    1UNL     C1    1  -0.388   0.104  -0.226
    1UNL     C2    2  -0.280   0.089  -0.121
    1UNL     C3    3  -0.308   0.062   0.008
    1UNL     C4    4  -0.453   0.054   0.043
    1UNL     O1    5  -0.516  -0.052  -0.015
    1UNL     C5    6  -0.211   0.042   0.118
    1UNL     C6    7  -0.066   0.102   0.097
    1UNL     C7    8   0.033  -0.003   0.037
    1UNL     C8    9   0.163   0.040  -0.008
    1UNL     N1   10   0.197   0.155  -0.075
    1UNL     C9   11   0.330   0.151  -0.108
    1UNL    C10   12   0.409   0.244  -0.183
    1UNL    C11   13   0.543   0.217  -0.192
    1UNL    C12   14   0.597   0.092  -0.158
    1UNL    C13   15   0.513  -0.007  -0.099
    1UNL    C14   16   0.389   0.029  -0.063
    1UNL    C15   17   0.279  -0.037   0.004
    1UNL    C16   18   0.284  -0.168   0.077
    1UNL    C17   19   0.180  -0.158   0.194
    1UNL     N2   20   0.047  -0.104   0.143
    1UNL    C18   21  -0.067  -0.155   0.200
    1UNL     O2   22  -0.065  -0.232   0.299
    1UNL    C19   23  -0.206  -0.112   0.155
    1UNL    C20   24  -0.267  -0.199   0.044
    1UNL     O3   25  -0.266  -0.333   0.074
    1UNL     H1   26  -0.442   0.012  -0.247
    1UNL     H2   27  -0.460   0.176  -0.191
    1UNL     H3   28  -0.348   0.138  -0.326
    1UNL     H4   29  -0.178   0.097  -0.150
    1UNL     H5   30  -0.498   0.145   0.009
    1UNL     H6   31  -0.470   0.044   0.151
    1UNL     H7   32  -0.618  -0.048  -0.023
    1UNL     H8   33  -0.249   0.097   0.205
    1UNL     H9   34  -0.067   0.200   0.055
    1UNL    H10   35  -0.016   0.124   0.188
    1UNL    H11   36  -0.015  -0.049  -0.052
    1UNL    H12   37   0.136   0.238  -0.092
    1UNL    H13   38   0.369   0.331  -0.229
    1UNL    H14   39   0.605   0.282  -0.250
    1UNL    H15   40   0.701   0.076  -0.165
    1UNL    H16   41   0.547  -0.111  -0.072
    1UNL    H17   42   0.251  -0.250   0.007
    1UNL    H18   43   0.386  -0.207   0.101
    1UNL    H19   44   0.198  -0.072   0.267
    1UNL    H20   45   0.167  -0.245   0.256
    1UNL    H21   46  -0.275  -0.115   0.241
    1UNL    H22   47  -0.210  -0.181  -0.051
    1UNL    H23   48  -0.370  -0.170   0.017
    1UNL    H24   49  -0.174  -0.357   0.095
   0.00000   0.00000   0.00000   0.00000   0.00000   0.00000   0.00000   0.00000   0.00000
Generated with MDTraj, t= 99.0
 49
    1UNL     C1    1  -0.364   0.108  -0.229
    1UNL     C2    2  -0.270   0.098  -0.117
    1UNL     C3    3  -0.310   0.078   0.011
    1UNL     C4    4  -0.454   0.065   0.048
    1UNL     O1    5  -0.535  -0.022  -0.039
    1UNL     C5    6  -0.209   0.042   0.112
    1UNL     C6    7  -0.063   0.098   0.086
    1UNL     C7    8   0.035  -0.017   0.037
    1UNL     C8    9   0.174   0.047   0.003
    1UNL     N1   10   0.191   0.168  -0.064
    1UNL     C9   11   0.322   0.161  -0.102
    1UNL    C10   12   0.399   0.239  -0.192
    1UNL    C11   13   0.523   0.205  -0.226
    1UNL    C12   14   0.583   0.086  -0.174
    1UNL    C13   15   0.516   0.004  -0.089
    1UNL    C14   16   0.388   0.053  -0.040
    1UNL    C15   17   0.287  -0.021   0.026
    1UNL    C16   18   0.292  -0.157   0.093
    1UNL    C17   19   0.178  -0.177   0.194
    1UNL     N2   20   0.047  -0.129   0.143
    1UNL    C18   21  -0.075  -0.168   0.195
    1UNL     O2   22  -0.064  -0.250   0.285
    1UNL    C19   23  -0.210  -0.115   0.143
    1UNL    C20   24  -0.247  -0.217   0.040
    1UNL     O3   25  -0.265  -0.342   0.106
    1UNL     H1   26  -0.446   0.041  -0.223
    1UNL     H2   27  -0.401   0.212  -0.236
    1UNL     H3   28  -0.310   0.077  -0.326
    1UNL     H4   29  -0.164   0.096  -0.142
    1UNL     H5   30  -0.503   0.161   0.054
    1UNL     H6   31  -0.456   0.035   0.156
    1UNL     H7   32  -0.616  -0.053   0.018
    1UNL     H8   33  -0.243   0.092   0.204
    1UNL     H9   34  -0.061   0.179   0.015
    1UNL    H10   35  -0.020   0.147   0.169
    1UNL    H11   36  -0.012  -0.048  -0.058
    1UNL    H12   37   0.104   0.202  -0.110
    1UNL    H13   38   0.338   0.320  -0.231
    1UNL    H14   39   0.567   0.254  -0.311
    1UNL    H15   40   0.676   0.052  -0.222
    1UNL    H16   41   0.561  -0.088  -0.066
    1UNL    H17   42   0.289  -0.241   0.019
    1UNL    H18   43   0.387  -0.182   0.147
    1UNL    H19   44   0.202  -0.122   0.291
    1UNL    H20   45   0.156  -0.278   0.220
    1UNL    H21   46  -0.292  -0.126   0.215
    1UNL    H22   47  -0.171  -0.221  -0.043
    1UNL    H23   48  -0.342  -0.186  -0.008
    1UNL    H24   49  -0.198  -0.372   0.175
   0.00000   0.00000   0.00000   0.00000   0.00000   0.00000   0.00000   0.00000   0.00000
