[ moleculetype ]
; name        nrexcl
res           1

[ atoms ]
;    nr  type  resnr resid  atom  cgnr     charge       mass
      1 SC4       1 res   C1        1      0.000     54.000
      2 TP1       1 res   C2        2      0.000     36.000
      3 TC3       1 res   C3        3      0.000     36.000
      4 TN6d      1 res   C4        4      0.000     36.000
      5 TC5       1 res   C5        5      0.000     36.000
      6 TN6d      1 res   C6        6      0.000     36.000
      7 TC5       1 res   C7        7      0.000     36.000
      8 TC5       1 res   C8        8      0.000     36.000
      9 TC5       1 res   C9        9      0.000     36.000
     10 TC3       1 res   C10      10      0.000     36.000
     11 SN6a      1 res   C11      11      0.000     54.000
     12 TP1       1 res   C12      12      0.000     36.000

[ constraints ]
;  ai    aj   funct      b0(nm)
   11    12     1      0.21696
    4     5     1      0.21971
    5    10     1      0.24417
    3    11     1      0.29301
    5     7     1      0.18369
    7     9     1      0.25045
    4    11     1      0.27087
    3     4     1      0.23781
    7     8     1      0.25000
    1     3     1      0.37153
    5     6     1      0.21805
    4    10     1      0.28272
    6     7     1      0.21807
    8     9     1      0.29154

[ bonds ]
;  ai    aj   funct      b0(nm)          k(kJ/mol/nm^2)
    1     2     1      0.28868          19401.7

[ angles ]
;  ai    aj    ak  funct     th0(deg)        k(kJ/mol/rad^2)
    1     3     4     1     90.54189           256.07
    1     3    11     1     97.82535           382.52
    2     1     3     1     69.45877           470.14
    3     4     5     1    111.01560           631.01
    3     4    10     1    125.89117           214.83
    3     4    11     1     70.02036          1588.09
    3    11     4     1     49.67870          5610.73
    3    11    12     1    102.06389           621.41
    4     3    11     1     60.30097          2542.45
    4     5     6     1     93.03712          1045.98
    4     5     7     1    156.64550           779.34
    4     5    10     1     74.89146          2568.87
    4    10     5     1     48.61069          5545.84
    4    11    12     1     89.03592           264.27
    5     4    10     1     56.49776          3739.21
    5     4    11     1    145.77526           709.21
    5     6     7     1     49.81184          7643.94
    5     7     6     1     65.08584          3155.08
    5     7     8     1    161.02540          1369.68
    5     7     9     1    126.71779          1477.62
    6     5     7     1     65.10229          3101.72
    6     5    10     1    162.18636           681.25
    6     7     8     1     96.54932          1457.75
    6     7     9     1    166.71133          1208.50
    7     5    10     1    127.46615           961.66
    7     8     9     1     54.43910          8556.46
    7     9     8     1     54.29794          7410.06
    8     7     9     1     71.26295          6880.31
   10     4    11     1     94.28335          1664.29

[ dihedrals ]
;  ai    aj    ak    al  funct   phi0(deg)        k(kJ/mol)   mult
    1     3     4     5     1    -63.21313       11.446      1
    1     3     4    10     1      1.23986       11.478      1
    1     3     4    11     1     81.00819       10.010      1
    1     3    11     4     1    -93.73828       10.772      1
    1     3    11    12     1   -172.02287       15.075      1
    2     1     3     4     1    -40.04082       19.007      1
    2     1     3    11     1   -102.54549       17.061      1
    3     4     5     6     1    133.09244       17.001      1
    3     4     5     7     1    118.16351       23.215      1
    3     4     5    10     1    -59.08112       12.874      1
    3     4    10     5     1     88.86855        8.575      1
    3     4    11    12     1    -71.93602        9.246      1
    3    11     4     5     1    -80.08544       13.610      1
    3    11     4    10     1    -52.99194       12.875      1
    4     3    11    12     1    100.33235       10.769      1
    4     5     6     7     1      6.19287        9.347      1
    4     5     7     6     1   -163.97817       20.419      1
    4     5     7     8     1   -162.59860       23.586      1
    4     5     7     9     1     16.52427       23.328      1
    4    10     5     6     1   -143.43831       23.457      1
    4    10     5     7     1      2.01580       12.268      1
    5     4     3    11     1     35.09244        8.509      1
    5     4    11    12     1     26.25632       13.542      1
    5     6     7     8     1     -0.00882       10.722      1
    5     6     7     9     1      1.05012       28.713      1
    5     7     8     9     1     -0.39455       23.981      1
    5     7     9     8     1     -0.74299       12.907      1
    5    10     4    11     1     20.09769        9.297      1
    6     5     4    10     1     10.11191       12.182      1
    6     5     4    11     1     44.92337       17.110      1
    6     5     7     8     1    179.36827       23.512      1
    6     5     7     9     1      0.11161       12.211      1
    6     7     5    10     1      9.86102       13.598      1
    6     7     8     9     1      0.13186       10.748      1
    6     7     9     8     1    178.77840       27.384      1
    7     5     4    10     1      0.07076       22.930      1
    7     5     4    11     1     29.67668       24.545      1
    7     6     5    10     1    -28.66165       25.732      1
    8     7     5    10     1      8.48795       25.017      1
    9     7     5    10     1   -166.17637       15.017      1
   10     4     3    11     1    100.01508        7.794      1
   10     4    11    12     1     54.28223       12.240      1
   10     5     4    11     1   -145.99196       13.688      1
