1TPCN03496
11
    1res  C1    1    0.524   0.204  -0.015
    1res  C2    2    0.331  -0.055   0.065
    1res  C3    3    0.172   0.147   0.012
    1res  C4    4    0.191  -0.113  -0.148
    1res  C5    5    0.121  -0.190   0.151
    1res  C6    6   -0.148   0.040   0.063
    1res  C7    7   -0.356  -0.143   0.061
    1res  C8    8   -0.378   0.175   0.083
    1res  C9    9   -0.105   0.180  -0.104
    1res  C10   10    0.026   0.051  -0.231
    1res  C11   11   -0.149  -0.136  -0.185
  10.00000  10.00000  10.00000
