[ moleculetype ]
; name        nrexcl
res           1

[ atoms ]
;    nr  type  resnr resid  atom  cgnr     charge       mass
      1 TC4       1 res   C1        1      0.000     36.000
      2 SN6       1 res   C2        2      0.000     54.000
      3 SN5a      1 res   C3        3      0.000     54.000
      4 SC5       1 res   C4        4      0.000     54.000
      5 N4a       1 res   C5        5      0.000     72.000
      6 TC5       1 res   C6        6      0.000     36.000
      7 TC5       1 res   C7        7      0.000     36.000
      8 TC5       1 res   C8        8      0.000     36.000
      9 TN6       1 res   C9        9      0.000     36.000
     10 TN4a      1 res   C10      10      0.000     36.000
     11 TC3       1 res   C11      11      0.000     36.000
     12 TP1       1 res   C12      12      0.000     36.000
     13 SN4a      1 res   C13      13      0.000     54.000
     14 TC5       1 res   C14      14      0.000     36.000
     15 SP4       1 res   C15      15      0.000     54.000
     16 SN6       1 res   C16      16      0.000     54.000
     17 SP4       1 res   C17      17      0.000     54.000

[ constraints ]
;  ai    aj   funct      b0(nm)
    4     5     1      0.33460
   13    14     1      0.24454
    6     8     1      0.29791
    1     3     1      0.35936
    9    10     1      0.20822
    1     9     1      0.26494
   11    13     1      0.25898
    2     4     1      0.28335
   14    15     1      0.30614
    5     6     1      0.31474
    6     7     1      0.25584
   15    16     1      0.33094
    1     2     1      0.36375
   10    11     1      0.25866
   10    17     1      0.28020
    2     3     1      0.28568
   11    12     1      0.21763
    7     8     1      0.28788
    4     9     1      0.22529
    3     4     1      0.31861
   11    17     1      0.25077
   14    16     1      0.33908

[ bonds ]
;  ai    aj   funct      b0(nm)          k(kJ/mol/nm^2)

[ angles ]
;  ai    aj    ak  funct     th0(deg)        k(kJ/mol/rad^2)
    1     2     3     1     65.91419          5271.33
    1     2     4     1     73.89354          2244.35
    1     3     2     1     67.55044          2722.62
    1     3     4     1     70.83589          2284.86
    1     9     4     1    106.81454          1797.16
    1     9    10     1     99.58635           425.57
    2     1     3     1     46.53539          5855.90
    2     1     9     1     75.28416          2700.94
    2     3     4     1     55.60035          3127.02
    2     4     3     1     56.28864          5870.86
    2     4     5     1    107.65549          1418.65
    2     4     9     1    100.17003          2341.18
    3     1     9     1     59.02683          5180.19
    3     2     4     1     68.11105          3494.77
    3     4     5     1     56.28124          2177.02
    3     4     9     1     69.24326          3631.43
    4     5     6     1    107.38565           125.46
    4     9    10     1    132.98374           664.23
    5     4     9     1     77.91100          1576.94
    5     6     7     1    162.32121           846.42
    5     6     8     1    101.17099          1023.95
    6     7     8     1     66.13985         12214.49
    6     8     7     1     51.75973         11989.03
    7     6     8     1     62.10041         14757.84
    9    10    11     1    107.05428           514.81
    9    10    17     1    106.24242           785.21
   10    11    12     1    113.66271          1069.27
   10    11    13     1    146.40229          1074.36
   10    11    17     1     66.67478          2207.35
   10    17    11     1     58.06240          1127.57
   11    10    17     1     55.26236          2235.16
   11    13    14     1    162.04202           285.24
   12    11    13     1     95.23150           962.14
   12    11    17     1    167.70754           452.70
   13    11    17     1     81.55215          1310.28
   13    14    15     1    145.71930          1158.25
   13    14    16     1     84.60363          1216.36
   14    15    16     1     64.17523          6441.55
   14    16    15     1     54.35820          7079.98
   15    14    16     1     61.46662          5204.85

[ dihedrals ]
;  ai    aj    ak    al  funct   phi0(deg)        k(kJ/mol)   mult
    1     2     3     4     1     98.06343        4.773      1
    1     2     4     3     1   -109.08232        3.984      1
    1     2     4     5     1    -85.06094        7.017      1
    1     2     4     9     1   -167.89234        6.250      1
    1     3     2     4     1    -98.06343        4.773      1
    1     3     4     2     1    104.96870        4.042      1
    1     3     4     5     1    -47.95901        6.275      1
    1     3     4     9     1   -136.04251        4.746      1
    1     9     4     2     1    162.11306        7.772      1
    1     9     4     3     1    113.96311        6.276      1
    1     9     4     5     1     56.37250        6.317      1
    1     9    10    11     1     42.03080       10.718      1
    1     9    10    17     1    101.81423       10.718      1
    2     1     3     4     1   -120.01181        4.718      1
    2     1     9     4     1   -165.93430        6.254      1
    2     1     9    10     1     53.98228        7.729      1
    2     3     1     9     1     80.03195        6.248      1
    2     3     4     5     1     28.94139        7.027      1
    2     3     4     9     1    -61.95821        6.240      1
    2     4     5     6     1   -103.97762       15.095      1
    2     4     9    10     1    -78.88596       11.492      1
    3     1     2     4     1    107.00135        4.013      1
    3     1     9     4     1   -117.96140        4.778      1
    3     1     9    10     1    101.05843        7.020      1
    3     2     1     9     1   -118.99378        5.498      1
    3     2     4     5     1   -154.12290        6.254      1
    3     2     4     9     1    122.76238        5.485      1
    3     4     5     6     1    -78.93931       14.420      1
    3     4     9    10     1   -125.07220       10.058      1
    4     2     1     9     1    168.93304        5.503      1
    4     3     1     9     1    140.96412        4.003      1
    4     5     6     7     1     44.08920       30.432      1
    4     5     6     8     1     49.79048       25.447      1
    4     9    10    11     1    -81.03674       10.045      1
    4     9    10    17     1    -22.10544       10.738      1
    5     4     9    10     1    176.14892       10.781      1
    5     6     7     8     1   -172.84208       25.989      1
    5     6     8     7     1      1.76174       12.148      1
    6     5     4     9     1     -6.05613       15.114      1
    9    10    11    12     1     84.93109       11.453      1
    9    10    11    13     1    -64.14371       13.522      1
    9    10    11    17     1    -81.98728        6.324      1
    9    10    17    11     1     80.93447        8.533      1
   10    11    13    14     1     -4.93828       23.953      1
   10    17    11    12     1     83.06973       21.695      1
   10    17    11    13     1      9.08438        8.511      1
   11    13    14    15     1   -135.76315       28.345      1
   11    13    14    16     1   -134.40636       24.069      1
   12    11    10    17     1    -12.99749       10.044      1
   12    11    13    14     1   -155.67237       25.060      1
   13    11    10    17     1   -163.94473       13.589      1
   13    14    15    16     1   -179.66944       15.045      1
   13    14    16    15     1      1.09569       10.010      1
   14    13    11    17     1     13.51929       24.401      1
