[ moleculetype ]
; name        nrexcl
res           1

[ atoms ]
;    nr  type resnr resid  atom  cgnr     charge       mass
      1 SN4a      1 res   C1        1      0.000     54.000
      2 SN6       1 res   C2        2      0.000     54.000
      3 TN6       1 res   C3        3      0.000     36.000
      4 TN4a      1 res   C4        4      0.000     36.000
      5 TN6       1 res   C5        5      0.000     36.000
      6 SC3       1 res   C6        6      0.000     54.000
      7 SC3       1 res   C7        7      0.000     54.000
      8 TC3       1 res   C8        8      0.000     36.000
      9 SN4a      1 res   C9        9      0.000     54.000
     10 TC4       1 res   C10      10      0.000     36.000
     11 TC5       1 res   C11      11      0.000     36.000
     12 SC4       1 res   C12      12      0.000     54.000
     13 TN4a      1 res   C13      13      0.000     36.000
     14 TN4a      1 res   C14      14      0.000     36.000
     15 P1        1 res   C15      15      0.000     72.000
     16 TN6       1 res   C16      16      0.000     36.000
     17 TC4       1 res   C17      17      0.000     36.000
     18 SC3       1 res   C18      18      0.000     54.000
     19 TC5       1 res   C19      19      0.000     36.000
     20 SC4       1 res   C20      20      0.000     54.000

[ bonds ]
;  ai    aj   funct      b0(nm)        k
    1     2     1      0.32927    20000
    2     3     1      0.30853    20000
    2     5     1      0.23898    20000
    3     4     1      0.24985    20000
    4     5     1      0.27149    20000
    5     6     1      0.33830    20000
    6     7     1      0.31560    20000
    6    20     1      0.35121    20000
    7     8     1      0.29099    20000
    7    18     1      0.33281    20000
    7    19     1      0.23089    20000
    8     9     1      0.28030    20000
    8    10     1      0.28398    20000
   10    11     1      0.24925    20000
   10    17     1      0.39674    20000
   11    12     1      0.25720    20000
   11    13     1      0.26812    20000
   11    14     1      0.23461    20000
   11    16     1      0.29189    20000
   12    13     1      0.26564    20000
   13    14     1      0.21645    20000
   14    15     1      0.24835    20000
   16    17     1      0.26185    20000
   17    18     1      0.37716    20000
   18    19     1      0.22441    20000
   19    20     1      0.22645    20000
