[ moleculetype ]
; name        nrexcl
res           1

[ atoms ]
;    nr  type resnr resid  atom  cgnr     charge       mass
      1 TC4       1 res   C1        1      0.000     36.000
      2 TC5       1 res   C2        2      0.000     36.000
      3 SC4       1 res   C3        3      0.000     54.000
      4 TC3       1 res   C4        4      0.000     36.000
      5 SC4       1 res   C5        5      0.000     54.000
      6 SC4       1 res   C6        6      0.000     54.000
      7 SN6       1 res   C7        7      0.000     54.000
      8 TN6       1 res   C8        8      0.000     36.000
      9 SN4a      1 res   C9        9      0.000     54.000
     10 TN6       1 res   C10      10      0.000     36.000
     11 TN6       1 res   C11      11      0.000     36.000
     12 SN4a      1 res   C12      12      0.000     54.000
     13 TN6       1 res   C13      13      0.000     36.000
     14 TN6       1 res   C14      14      0.000     36.000
     15 TN6       1 res   C15      15      0.000     36.000
     16 TN6       1 res   C16      16      0.000     36.000
     17 TC4       1 res   C17      17      0.000     36.000
     18 TP1       1 res   C18      18      0.000     36.000
     19 TC3       1 res   C19      19      0.000     36.000
     20 TC3       1 res   C20      20      0.000     36.000
     21 SN4a      1 res   C21      21      0.000     54.000
     22 SN4a      1 res   C22      22      0.000     54.000
     23 TN3r      1 res   C23      23      0.000     36.000
     24 SN4a      1 res   C24      24      0.000     54.000
     25 TP1       1 res   C25      25      0.000     36.000
     26 TN6       1 res   C26      26      0.000     36.000
     27 TN6       1 res   C27      27      0.000     36.000
     28 TN6       1 res   C28      28      0.000     36.000
     29 TN6       1 res   C29      29      0.000     36.000
     30 TN6       1 res   C30      30      0.000     36.000
     31 TN6       1 res   C31      31      0.000     36.000
     32 TC3       1 res   C32      32      0.000     36.000
     33 SN6       1 res   C33      33      0.000     54.000

[ bonds ]
;  ai    aj   funct      b0(nm)        k
    1     2     1      0.25367    20000
    1    33     1      0.28638    20000
    2     3     1      0.33003    20000
    2    20     1      0.25908    20000
    2    21     1      0.24817    20000
    2    32     1      0.29946    20000
    3     4     1      0.30396    20000
    3     5     1      0.27217    20000
    3    20     1      0.26677    20000
    4     5     1      0.32262    20000
    5     6     1      0.33041    20000
    5    19     1      0.26539    20000
    6     7     1      0.29978    20000
    6    17     1      0.29285    20000
    6    19     1      0.31634    20000
    7     8     1      0.25282    20000
    8     9     1      0.33246    20000
    8    17     1      0.26038    20000
    9    10     1      0.26149    20000
    9    16     1      0.29573    20000
   10    11     1      0.21658    20000
   11    12     1      0.29973    20000
   11    16     1      0.21874    20000
   12    13     1      0.27435    20000
   12    15     1      0.30505    20000
   13    14     1      0.26972    20000
   14    15     1      0.25041    20000
   17    18     1      0.28690    20000
   21    22     1      0.32395    20000
   22    23     1      0.29637    20000
   22    29     1      0.29255    20000
   22    31     1      0.23470    20000
   23    24     1      0.26523    20000
   24    25     1      0.29100    20000
   24    26     1      0.29311    20000
   24    28     1      0.26736    20000
   26    27     1      0.24974    20000
   27    28     1      0.21475    20000
   29    30     1      0.25538    20000
   30    31     1      0.24044    20000
   32    33     1      0.30553    20000
