1TPCN05258
19
    1res  C1    1    0.680   0.003  -0.290
    1res  C2    2    0.619  -0.008   0.026
    1res  C3    3    0.423   0.012   0.033
    1res  C4    4    0.253   0.010  -0.149
    1res  C5    5    0.036  -0.070   0.020
    1res  C6    6   -0.057   0.068   0.232
    1res  C7    7   -0.041   0.268   0.020
    1res  C8    8   -0.166   0.023  -0.216
    1res  C9    9   -0.297   0.132  -0.035
    1res  C10   10   -0.466  -0.069  -0.024
    1res  C11   11   -0.661  -0.279  -0.025
    1res  C12   12   -0.692  -0.038   0.142
    1res  C13   13   -0.625   0.128  -0.214
    1res  C14   14   -0.450   0.264   0.112
    1res  C15   15   -0.317   0.340  -0.189
    1res  C16   16    0.298  -0.064   0.230
    1res  C17   17    0.671  -0.264   0.062
    1res  C18   18    0.895  -0.148   0.048
    1res  C19   19    0.875  -0.087  -0.177
  10.00000  10.00000  10.00000
