1TPCN01237
7
    1res  C1    1    0.549   0.049   0.002
    1res  C2    2    0.244   0.071  -0.004
    1res  C3    3   -0.070   0.060   0.127
    1res  C4    4   -0.369   0.033   0.124
    1res  C5    5   -0.270  -0.020  -0.153
    1res  C6    6   -0.007  -0.105  -0.161
    1res  C7    7   -0.414  -0.174  -0.007
  10.00000  10.00000  10.00000
