[ moleculetype ]
; name        nrexcl
res           1

[ atoms ]
;    nr  type resnr resid  atom  cgnr     charge       mass
      1 C4        1 res   C1        1      0.000     72.000
      2 SN4a      1 res   C2        2      0.000     54.000
      3 TC3       1 res   C3        3      0.000     36.000
      4 SP1       1 res   C4        4      0.000     54.000
      5 SC3       1 res   C5        5      0.000     54.000
      6 SC4       1 res   C6        6      0.000     54.000
      7 TN4a      1 res   C7        7      0.000     36.000
      8 TN6a      1 res   C8        8      0.000     36.000
      9 SC4       1 res   C9        9      0.000     54.000

[ bonds ]
;  ai    aj   funct      b0(nm)        k
    1     2     1      0.32194    20000
    2     3     1      0.22719    20000
    3     4     1      0.26387    20000
    3     9     1      0.37081    20000
    4     5     1      0.25160    20000
    5     6     1      0.28941    20000
    5     7     1      0.33664    20000
    7     8     1      0.25775    20000
    7     9     1      0.30396    20000
    8     9     1      0.24277    20000
