[ moleculetype ]
; name        nrexcl
res           1

[ atoms ]
;    nr  type  resnr resid  atom  cgnr     charge       mass
      1 N4a       1 res   C1        1      0.000     72.000
      2 TC5       1 res   C2        2      0.000     36.000
      3 TC3       1 res   C3        3      0.000     36.000
      4 SC5       1 res   C4        4      0.000     54.000
      5 TC3       1 res   C5        5      0.000     36.000
      6 SN4d      1 res   C6        6      0.000     54.000
      7 SN6a      1 res   C7        7      0.000     54.000
      8 TC5       1 res   C8        8      0.000     36.000
      9 TC5       1 res   C9        9      0.000     36.000
     10 TC5       1 res   C10      10      0.000     36.000
     11 TN6d      1 res   C11      11      0.000     36.000
     12 SN5a      1 res   C12      12      0.000     54.000

[ bonds ]
;  ai    aj   funct      b0(nm)          k(kJ/mol/nm^2)
    1     2     1      0.33330          80919.4
    2     3     1      0.24791          96131.6
    2     4     1      0.26424         139359.5
    2     7     1      0.25465          69910.9
    2     8     1      0.18999         231160.8
    2    11     1      0.22042         107223.7
    3     4     1      0.25615          64524.3
    4     5     1      0.23432         103051.6
    4     6     1      0.26170          70260.9
    4     7     1      0.25655         164600.5
    5     6     1      0.31011          58904.9
    6     7     1      0.34435          81145.8
    8     9     1      0.25052         212811.3
    8    10     1      0.20798         454851.9
    8    11     1      0.21804         132502.2
    9    10     1      0.25124         201321.5
   10    12     1      0.20478         241475.9

[ angles ]
;  ai    aj    ak  funct     th0(deg)        k(kJ/mol/rad^2)
    1     2     3     1     84.57289           757.35
    1     2     4     1    109.43364          1211.34
    1     2     7     1    168.31200          1154.77
    1     2     8     1     89.35311           748.65
    1     2    11     1     82.77145           753.32
    2     3     4     1     63.22120          3310.56
    2     4     3     1     56.86984          4637.71
    2     4     5     1    138.66028          1420.25
    2     4     6     1     92.72981          2829.89
    2     4     7     1     58.51853          4780.10
    2     7     4     1     62.25019          5811.24
    2     7     6     1     77.29854          3090.33
    2     8     9     1    125.91973          1718.80
    2     8    10     1    163.91084           813.74
    2     8    11     1     64.96629          3103.21
    2    11     8     1     51.35240          4558.73
    3     2     4     1     59.90892          3877.10
    3     2     7     1     89.40782          1938.04
    3     2     8     1    161.21943          1864.38
    3     2    11     1     98.11393          1446.24
    3     4     5     1    118.27246          1345.16
    3     4     6     1    148.15468          1796.62
    3     4     7     1     87.20844          1508.15
    4     2     7     1     59.23125          6004.33
    4     2     8     1    138.41179          1627.24
    4     2    11     1    152.11555           994.93
    4     5     6     1     55.37223          2788.14
    4     6     5     1     47.43807          7226.27
    4     6     7     1     47.71189          6641.02
    4     7     6     1     48.99369          4240.04
    5     4     6     1     77.18972          2022.06
    5     4     7     1    153.83858           984.49
    5     6     7     1     93.69266          5391.64
    6     4     7     1     83.29447          2218.75
    7     2     8     1     99.20265          1651.02
    7     2    11     1    107.63358           761.59
    8     2    11     1     63.68118          2872.04
    8     9    10     1     48.97628         11633.91
    8    10     9     1     65.32862          7634.35
    8    10    12     1    150.54215          2038.96
    9     8    10     1     65.69508          5882.47
    9     8    11     1    162.05379           539.66
    9    10    12     1    143.67005          2115.89
   10     8    11     1    101.06948          1878.72
