1TPCN04042
33
    1res  C1    1    0.986  -0.335  -0.122
    1res  C2    2    0.798  -0.092   0.031
    1res  C3    3    0.687   0.079   0.237
    1res  C4    4    0.504   0.284   0.027
    1res  C5    5    0.488   0.009   0.010
    1res  C6    6    0.227   0.083   0.215
    1res  C7    7    0.114   0.094  -0.034
    1res  C8    8   -0.058  -0.023   0.120
    1res  C9    9   -0.322   0.088   0.140
    1res  C10   10   -0.561   0.062   0.101
    1res  C11   11   -0.847  -0.012   0.210
    1res  C12   12   -0.935  -0.227   0.140
    1res  C13   13   -1.110   0.051   0.160
    1res  C14   14   -1.008   0.270   0.202
    1res  C15   15   -0.831   0.209   0.055
    1res  C16   16   -0.783   0.280  -0.127
    1res  C17   17   -1.037   0.466  -0.193
    1res  C18   18   -1.046   0.327  -0.394
    1res  C19   19   -0.990   0.091  -0.339
    1res  C20   20   -0.748   0.094  -0.293
    1res  C21   21   -0.530  -0.149   0.217
    1res  C22   22   -0.356  -0.188   0.091
    1res  C23   23   -0.287  -0.368  -0.164
    1res  C24   24   -0.062  -0.478  -0.202
    1res  C25   25   -0.298  -0.636  -0.186
    1res  C26   26   -0.540  -0.563  -0.144
    1res  C27   27   -0.536  -0.359  -0.059
    1res  C28   28    0.065  -0.204   0.234
    1res  C29   29    0.427  -0.170   0.224
    1res  C30   30    0.878   0.260  -0.000
    1res  C31   31    1.026   0.458  -0.129
    1res  C32   32    1.089   0.141  -0.169
    1res  C33   33    1.062   0.090   0.171
  10.00000  10.00000  10.00000
