[ moleculetype ]
; name        nrexcl
res           1

[ atoms ]
;    nr  type  resnr resid  atom  cgnr     charge       mass
      1 N4a       1 res   C1        1      0.000     72.000
      2 TN1       1 res   C2        2      0.000     36.000
      3 TC5       1 res   C3        3      0.000     36.000
      4 TC5       1 res   C4        4      0.000     36.000
      5 TC5       1 res   C5        5      0.000     36.000
      6 SN5a      1 res   C6        6      0.000     54.000
      7 TC3       1 res   C7        7      0.000     36.000
      8 SC3       1 res   C8        8      0.000     54.000
      9 TN1       1 res   C9        9      0.000     36.000
     10 TC3       1 res   C10      10      0.000     36.000
     11 TC3       1 res   C11      11      0.000     36.000
     12 TC3       1 res   C12      12      0.000     36.000
     13 SP2       1 res   C13      13      0.000     54.000
     14 TN6a      1 res   C14      14      0.000     36.000

[ constraints ]
;  ai    aj   funct      b0(nm)
    1     2     1      0.29466
    7    13     1      0.27045
    3     5     1      0.20866
    2     3     1      0.17974
   10    11     1      0.29564
    4     5     1      0.25025
   11    12     1      0.28213
    7    12     1      0.25087
    8    11     1      0.27912
    8    14     1      0.26900
   11    14     1      0.22483
    3     4     1      0.25013
    7     8     1      0.23714
    5     6     1      0.20460
    9    10     1      0.25379
    3     7     1      0.19334
    2     7     1      0.18139
    8     9     1      0.25293

[ bonds ]
;  ai    aj   funct      b0(nm)          k(kJ/mol/nm^2)

[ angles ]
;  ai    aj    ak  funct     th0(deg)        k(kJ/mol/rad^2)
    1     2     3     1    148.51491            78.47
    1     2     7     1    131.24531           202.48
    2     3     4     1    172.50907          1190.64
    2     3     5     1    108.84852          1763.64
    2     3     7     1     58.03767          4211.27
    2     7     3     1     57.21184          5035.04
    2     7     8     1    145.42128           976.41
    2     7    12     1     86.34961          1553.80
    2     7    13     1     82.80644           860.87
    3     2     7     1     64.75042          2978.17
    3     4     5     1     49.28791          9316.50
    3     5     4     1     65.32591          5761.51
    3     5     6     1    150.48910          1884.37
    3     7     8     1     92.62030          1830.42
    3     7    12     1    136.02636           989.73
    3     7    13     1    103.31474           527.82
    4     3     5     1     65.38615          5230.29
    4     3     7     1    127.01583          1906.86
    4     5     6     1    143.82781          1871.43
    5     3     7     1    164.33835          1031.18
    7     8     9     1    126.25524          2189.94
    7     8    11     1     79.29921          1967.22
    7     8    14     1     72.41362          1362.83
    7    12    11     1     76.53011          2193.40
    8     7    12     1    110.71677          2134.69
    8     7    13     1    123.40324           398.79
    8     9    10     1    104.18737          2095.54
    8    11    10     1     88.12260          1628.60
    8    11    12     1     91.35776          2384.55
    8    11    14     1     63.45426          2751.11
    8    14    11     1     68.16187          2082.03
    9     8    11     1     74.55164           912.25
    9     8    14     1    116.99197           489.32
    9    10    11     1     71.51776          1137.56
   10    11    12     1     91.81160          1289.60
   10    11    14     1    151.11704          1040.81
   11     8    14     1     48.38380          4432.03
   12     7    13     1     94.21630          1774.25
   12    11    14     1     86.78331           448.17

[ dihedrals ]
;  ai    aj    ak    al  funct   phi0(deg)        k(kJ/mol)   mult
    1     2     3     4     1   -119.01774       28.052      1
    1     2     3     5     1   -146.36619       29.757      1
    1     2     3     7     1     23.91054       28.861      1
    1     2     7     3     1    -22.11133       25.201      1
    1     2     7     8     1    -54.95072       29.886      1
    1     2     7    12     1   -178.82405       27.289      1
    1     2     7    13     1     88.73206       26.807      1
    2     3     4     5     1    166.24101       30.855      1
    2     3     5     4     1     -2.99913        8.593      1
    2     3     5     6     1    178.04113       13.646      1
    2     3     7     8     1    -15.12779        8.582      1
    2     3     7    12     1   -140.89361       10.058      1
    2     3     7    13     1    107.06260        7.087      1
    2     7     3     4     1     -4.93127       10.069      1
    2     7     3     5     1   -155.16723       22.616      1
    2     7     8     9     1    111.83132       16.404      1
    2     7     8    11     1     49.03006       12.937      1
    2     7     8    14     1     -0.80300       14.328      1
    2     7    12    11     1    -17.99719        9.340      1
    3     2     7     8     1    152.76388       14.343      1
    3     2     7    12     1     26.14560        7.835      1
    3     2     7    13     1    -67.10623        8.548      1
    3     4     5     6     1     -1.61178       10.754      1
    3     7     8     9     1     86.22674       10.754      1
    3     7     8    11     1     25.83528        7.774      1
    3     7     8    14     1    -23.95042        7.761      1
    3     7    12    11     1    -49.07900        9.984      1
    4     3     2     7     1     24.40402       29.792      1
    4     3     5     6     1      1.71491       13.555      1
    4     3     7     8     1    158.13584       13.646      1
    4     3     7    12     1     34.02208       14.989      1
    4     3     7    13     1    -78.52652       10.769      1
    4     5     3     7     1    -24.43873       23.204      1
    5     3     2     7     1      7.08039        8.590      1
    5     3     7     8     1      8.97126       22.632      1
    5     3     7    12     1   -116.42986       21.826      1
    5     3     7    13     1    132.73982       21.395      1
    5     4     3     7     1      8.11777       10.768      1
    6     5     3     7     1    153.94561       21.727      1
    7     8     9    10     1    154.97903       12.949      1
    7     8    11    10     1    -77.10264        5.540      1
    7     8    11    12     1   -169.99582        4.806      1
    7     8    11    14     1    103.82104        7.759      1
    7     8    14    11     1    -87.11492        7.062      1
    7    12    11     8     1    170.02255        4.800      1
    7    12    11    10     1     82.97378        5.539      1
    7    12    11    14     1   -126.05022        6.268      1
    8     7    12    11     1   -167.06593        7.031      1
    8     9    10    11     1    145.09782        7.083      1
    8    11    10     9     1   -148.94633        6.993      1
    8    14    11    10     1    172.79597       17.097      1
    8    14    11    12     1     88.85769        5.518      1
    9     8     7    12     1   -130.28921       10.746      1
    9     8     7    13     1    -20.77467       12.914      1
    9     8    11    10     1    150.84383        5.510      1
    9     8    11    12     1     56.97025        7.064      1
    9     8    11    14     1    -29.01188        8.576      1
    9     8    14    11     1    148.99921        8.550      1
    9    10    11    12     1    -57.93273        6.309      1
    9    10    11    14     1   -140.88238       15.687      1
   10     9     8    11     1   -142.92566        8.510      1
   10     9     8    14     1   -118.12306       10.743      1
   10    11     8    14     1     -2.96028        8.578      1
   11     8     7    12     1    167.08017        7.013      1
   11     8     7    13     1    -82.91506        8.595      1
   11    12     7    13     1     64.92405       11.543      1
   12     7     8    14     1    118.95389        7.046      1
   12    11     8    14     1    -94.90561        8.565      1
   13     7     8    14     1   -131.93481        9.331      1
