[ moleculetype ]
; name        nrexcl
res           1

[ atoms ]
;    nr  type  resnr resid  atom  cgnr     charge       mass
      1 TC4       1 res   C1        1      0.000     36.000
      2 TC4       1 res   C2        2      0.000     36.000
      3 TC4       1 res   C3        3      0.000     36.000
      4 TC4       1 res   C4        4      0.000     36.000
      5 TC4       1 res   C5        5      0.000     36.000
      6 TC4       1 res   C6        6      0.000     36.000

[ constraints ]
;  ai    aj   funct      b0(nm)
    1     2     1      0.28566
    2     3     1      0.28570
    4     5     1      0.28565
    3     4     1      0.28363
    5     6     1      0.28480
    1     6     1      0.28459

[ bonds ]
;  ai    aj   funct      b0(nm)          k(kJ/mol/nm^2)

[ angles ]
;  ai    aj    ak  funct     th0(deg)        k(kJ/mol/rad^2)
    1     2     3     1    118.76359          1474.31
    1     6     5     1    119.11461          1478.53
    2     1     6     1    118.86274          1726.23
    2     3     4     1    119.00478          1449.47
    3     4     5     1    119.21973          1818.61
    4     5     6     1    119.13412          2528.00

[ dihedrals ]
;  ai    aj    ak    al  funct   phi0(deg)        k(kJ/mol)   mult
    1     2     3     4     1    179.61909       25.026      1
    1     6     5     4     1    178.64009       23.998      1
    2     1     6     5     1   -178.76421       24.200      1
    2     3     4     5     1    179.25712       23.911      1
    3     2     1     6     1   -178.95705       27.127      1
    3     4     5     6     1    177.13109       22.386      1
