1TPCN00809
12
    1res  C1    1   -0.241  -0.341   0.059
    1res  C2    2   -0.117  -0.216  -0.157
    1res  C3    3    0.064  -0.091  -0.055
    1res  C4    4    0.276  -0.210  -0.109
    1res  C5    5    0.246   0.002   0.012
    1res  C6    6    0.168   0.195   0.080
    1res  C7    7    0.367   0.105   0.089
    1res  C8    8    0.470   0.300   0.205
    1res  C9    9    0.609   0.054   0.125
    1res  C10   10   -0.116   0.035  -0.011
    1res  C11   11   -0.441  -0.017  -0.062
    1res  C12   12   -0.334   0.333   0.100
  10.00000  10.00000  10.00000
