1TPCN06287
12
    1res  C1    1    0.477  -0.161   0.101
    1res  C2    2    0.649   0.041  -0.027
    1res  C3    3    0.339  -0.064  -0.125
    1res  C4    4    0.136  -0.028  -0.083
    1res  C5    5   -0.076   0.001  -0.031
    1res  C6    6   -0.194   0.084  -0.264
    1res  C7    7   -0.224   0.206   0.017
    1res  C8    8   -0.533  -0.028  -0.139
    1res  C9    9   -0.303  -0.202   0.012
    1res  C10   10   -0.582   0.015   0.106
    1res  C11   11   -0.380   0.127   0.237
    1res  C12   12    0.069   0.038   0.202
  10.00000  10.00000  10.00000
