1TPCN04020
12
    1res  C1    1    0.795  -0.028   0.204
    1res  C2    2    0.617   0.042  -0.048
    1res  C3    3    0.313  -0.206  -0.027
    1res  C4    4    0.250   0.102  -0.103
    1res  C5    5    0.042   0.095   0.014
    1res  C6    6   -0.071  -0.204  -0.099
    1res  C7    7   -0.193   0.070  -0.131
    1res  C8    8   -0.439  -0.043  -0.113
    1res  C9    9   -0.425  -0.197   0.160
    1res  C10   10   -0.625  -0.044   0.292
    1res  C11   11   -0.672   0.094   0.094
    1res  C12   12   -0.281   0.208   0.093
  10.00000  10.00000  10.00000
