[ moleculetype ]
; name        nrexcl
res           1

[ atoms ]
;    nr  type  resnr resid  atom  cgnr     charge       mass
      1 SX3       1 res   C1        1      0.000     54.000
      2 SX3       1 res   C2        2      0.000     54.000
      3 SX3       1 res   C3        3      0.000     54.000

[ bonds ]
;  ai    aj   funct      b0(nm)          k(kJ/mol/nm^2)
    1     2     1      0.32204         101652.7
    1     3     1      0.31375         153211.1
    2     3     1      0.30497         181035.9

[ angles ]
;  ai    aj    ak  funct     th0(deg)        k(kJ/mol/rad^2)
    1     2     3     1     59.97553          8016.58
    1     3     2     1     62.71504          5622.27
    2     1     3     1     57.30942          8026.97

[ dihedrals ]
;  ai    aj    ak    al  funct   phi0(deg)        k(kJ/mol)   mult
