[ moleculetype ]
; name        nrexcl
res           1

[ atoms ]
;    nr  type  resnr resid  atom  cgnr     charge       mass
      1 TN3r      1 res   C1        1      0.000     36.000
      2 TN4a      1 res   C2        2      0.000     36.000
      3 SC3       1 res   C3        3      0.000     54.000
      4 SN6a      1 res   C4        4      0.000     54.000
      5 TC3       1 res   C5        5      0.000     36.000
      6 TN6       1 res   C6        6      0.000     36.000
      7 TN4a      1 res   C7        7      0.000     36.000
      8 TP1       1 res   C8        8      0.000     36.000
      9 TN6       1 res   C9        9      0.000     36.000
     10 SN6       1 res   C10      10      0.000     54.000
     11 SN4a      1 res   C11      11      0.000     54.000
     12 TC5       1 res   C12      12      0.000     36.000
     13 SP4       1 res   C13      13      0.000     54.000
     14 SN6       1 res   C14      14      0.000     54.000
     15 N4a       1 res   C15      15      0.000     72.000
     16 TC5       1 res   C16      16      0.000     36.000
     17 TC5       1 res   C17      17      0.000     36.000
     18 TC5       1 res   C18      18      0.000     36.000

[ constraints ]
;  ai    aj   funct      b0(nm)
    4     5     1      0.28402
   13    14     1      0.33184
    3     6     1      0.22940
    3    15     1      0.48699
    7     9     1      0.24927
   16    18     1      0.29777
    6     7     1      0.22650
   15    16     1      0.34883
    1     2     1      0.23872
    3     5     1      0.32527
    2     3     1      0.27169
   11    12     1      0.24537
   12    14     1      0.33421
    7     8     1      0.23023
   16    17     1      0.25614
    3     4     1      0.28127
   12    13     1      0.28273
   17    18     1      0.28812

[ bonds ]
;  ai    aj   funct      b0(nm)          k(kJ/mol/nm^2)
    9    10     1      0.30068          11259.3
    6    10     1      0.24523          16752.5
   10    11     1      0.23512           2228.4

[ angles ]
;  ai    aj    ak  funct     th0(deg)        k(kJ/mol/rad^2)
    1     2     3     1    120.88193           185.95
    2     3     4     1     75.07644          2650.71
    2     3     5     1     75.94516          3586.06
    2     3     6     1     66.82426           813.69
    2     3    15     1     46.44647          1182.51
    3     4     5     1     70.27446          1877.89
    3     5     4     1     54.46741          4341.59
    3     6     7     1     95.58885            73.72
    3     6    10     1    170.14888           387.00
    3    15    16     1    135.07860            58.60
    4     3     5     1     55.25799          3366.41
    4     3     6     1    129.46466          1111.26
    4     3    15     1     75.01726          1685.33
    5     3     6     1     83.70147          1115.22
    5     3    15     1     37.11460          2738.45
    6     3    15     1     55.05062           853.01
    6     7     8     1    160.14181           221.35
    6     7     9     1    116.37438            64.55
    6    10     9     1     94.66761           173.66
    6    10    11     1    150.52215            77.08
    7     6    10     1     78.55380           305.72
    7     9    10     1     65.16135           193.15
    8     7     9     1     70.57155           569.32
    9    10    11     1     76.37217            25.73
   10    11    12     1    147.27535           120.53
   11    12    13     1    154.58380          1411.00
   11    12    14     1     90.91581          1997.89
   12    13    14     1     65.31788          6183.48
   12    14    13     1     50.23143          8829.22
   13    12    14     1     64.45063          4843.73
   15    16    17     1    145.22897           769.76
   15    16    18     1     84.12008           863.68
   16    17    18     1     66.03603          9618.16
   16    18    17     1     51.81571         12853.69
   17    16    18     1     62.14823         10661.60

[ dihedrals ]
;  ai    aj    ak    al  funct   phi0(deg)        k(kJ/mol)   mult
    1     2     3     4     1    141.21420       11.469      1
    1     2     3     5     1     83.41343       11.479      1
    1     2     3     6     1     -6.06965       14.989      1
    1     2     3    15     1     57.01723       11.512      1
    2     3     4     5     1     97.92676        4.754      1
    2     3     5     4     1    -98.03535        4.793      1
    2     3     6     7     1     16.04631       12.196      1
    2     3     6    10     1     40.86549       17.365      1
    2     3    15    16     1    -86.79432       21.269      1
    3     6     7     8     1   -102.78340       27.835      1
    3     6     7     9     1      9.20483       24.765      1
    3     6    10     9     1    150.67274       21.374      1
    3     6    10    11     1   -151.98247       20.911      1
    3    15    16    17     1     84.92045       29.274      1
    3    15    16    18     1     89.43412       27.672      1
    4     3     6     7     1    -28.07335       13.575      1
    4     3     6    10     1     -5.27888       18.855      1
    4     3    15    16     1   -173.28190       22.929      1
    4     5     3     6     1    -30.49127        8.501      1
    4     5     3    15     1    -65.98294       10.683      1
    5     3     6     7     1    -62.02352       12.146      1
    5     3     6    10     1    -28.47715       18.785      1
    5     3    15    16     1    137.54356       25.751      1
    5     4     3     6     1    140.00491       12.137      1
    5     4     3    15     1    145.97228        6.281      1
    6     3    15    16     1      0.49393       21.738      1
    6     7     9    10     1    171.96012       20.464      1
    6    10     9     7     1   -171.63849       17.811      1
    6    10    11    12     1    -32.21079       26.038      1
    7     6     3    15     1    -35.94302       12.256      1
    7     6    10     9     1    170.07511       17.898      1
    7     6    10    11     1   -124.61079       23.674      1
    7     9    10    11     1     27.07837       15.790      1
    8     7     6    10     1     77.48375       26.662      1
    8     7     9    10     1    -28.57784       23.839      1
    9     7     6    10     1   -170.06286       23.051      1
    9    10    11    12     1     37.57530       21.221      1
   10     6     3    15     1     -9.27867       19.489      1
   10    11    12    13     1   -113.68129       26.473      1
   10    11    12    14     1   -112.40721       27.328      1
   11    12    13    14     1   -178.56837       23.438      1
   11    12    14    13     1      1.21322       12.879      1
   15    16    17    18     1   -177.28312       22.147      1
   15    16    18    17     1      1.40948       13.613      1
