1TPCN03296
10
    1res  C1    1    0.054  -0.120   0.159
    1res  C2    2   -0.041   0.143   0.186
    1res  C3    3   -0.074   0.103  -0.112
    1res  C4    4   -0.396   0.043   0.136
    1res  C5    5   -0.333  -0.020  -0.174
    1res  C6    6    0.139  -0.217  -0.153
    1res  C7    7    0.321   0.000  -0.056
    1res  C8    8    0.454  -0.000   0.113
    1res  C9    9    0.593   0.192  -0.005
    1res  C10   10    0.368  -0.252   0.063
  10.00000  10.00000  10.00000
