1TPCN00275
10
    1res  C1    1    0.215   0.205   0.099
    1res  C2    2    0.187  -0.159   0.077
    1res  C3    3    0.032  -0.093  -0.111
    1res  C4    4   -0.160  -0.004   0.088
    1res  C5    5   -0.200   0.021   0.381
    1res  C6    6   -0.237   0.223   0.175
    1res  C7    7   -0.371   0.158  -0.009
    1res  C8    8   -0.287  -0.002  -0.135
    1res  C9    9    0.184  -0.282  -0.210
    1res  C10   10    0.204   0.101  -0.193
  10.00000  10.00000  10.00000
