1TPCN04400
12
    1res  C1    1   -0.570   0.211  -0.024
    1res  C2    2   -0.298   0.156  -0.126
    1res  C3    3   -0.311  -0.140  -0.139
    1res  C4    4   -0.250  -0.014   0.201
    1res  C5    5   -0.090  -0.188   0.100
    1res  C6    6    0.074  -0.229  -0.117
    1res  C7    7    0.150  -0.108   0.172
    1res  C8    8    0.409  -0.136   0.092
    1res  C9    9    0.508   0.002  -0.148
    1res  C10   10    0.225   0.134   0.181
    1res  C11   11    0.449   0.308  -0.029
    1res  C12   12    0.199   0.275  -0.134
  10.00000  10.00000  10.00000
