[ moleculetype ]
; name        nrexcl
res           1

[ atoms ]
;    nr  type  resnr resid  atom  cgnr     charge       mass
      1 TC3       1 res   C1        1      0.000     36.000
      2 TC5       1 res   C2        2      0.000     36.000
      3 TN6a      1 res   C3        3      0.000     36.000
      4 TC5       1 res   C4        4      0.000     36.000

[ constraints ]
;  ai    aj   funct      b0(nm)
    1     2     1      0.26873
    3     4     1      0.28772
    2     3     1      0.22122
    2     4     1      0.29319

[ bonds ]
;  ai    aj   funct      b0(nm)          k(kJ/mol/nm^2)

[ angles ]
;  ai    aj    ak  funct     th0(deg)        k(kJ/mol/rad^2)
    1     2     3     1    147.93710          1639.23
    1     2     4     1     87.01779          1432.83
    2     3     4     1     68.93234         17903.27
    2     4     3     1     44.75495         11759.57
    3     2     4     1     66.31271         15135.63

[ dihedrals ]
;  ai    aj    ak    al  funct   phi0(deg)        k(kJ/mol)   mult
    1     2     3     4     1    144.80481        8.549      1
    1     2     4     3     1    -17.99218        4.769      1
