[ moleculetype ]
; name        nrexcl
res           1

[ atoms ]
;    nr  type  resnr resid  atom  cgnr     charge       mass
      1 TX1       1 res   C1        1      0.000     36.000
      2 TC5       1 res   C2        2      0.000     36.000
      3 TX3       1 res   C3        3      0.000     36.000
      4 TC5       1 res   C4        4      0.000     36.000

[ bonds ]
;  ai    aj   funct      b0(nm)          k(kJ/mol/nm^2)
    1     2     1      0.29307          99689.7
    1     4     1      0.29339          90820.9
    2     3     1      0.27942         141987.0
    3     4     1      0.27931         138010.4

[ angles ]
;  ai    aj    ak  funct     th0(deg)        k(kJ/mol/rad^2)
    1     2     3     1    108.99935          2717.45
    1     4     3     1    108.93673          2809.66
    2     1     4     1     69.01064         11292.24
    2     3     4     1     72.97522         13485.75

[ dihedrals ]
;  ai    aj    ak    al  funct   phi0(deg)        k(kJ/mol)   mult
    1     2     3     4     1    179.99080        4.775      1
    1     2     3     4     1    179.98159        4.750      2
    1     2     3     4     1    179.97236        4.709      3
    1     4     3     2     1    179.98718        4.792      1
    1     4     3     2     1    179.97434        4.767      2
    1     4     3     2     1    179.96143        4.726      3
    2     1     4     3     1    179.98991        4.773      1
    2     1     4     3     1    179.97981        4.748      2
    2     1     4     3     1    179.96968        4.707      3
    3     2     1     4     1    179.99945        4.782      1
    3     2     1     4     1    179.99890        4.757      2
    3     2     1     4     1    179.99833        4.716      3
