Generated with MDTraj, t= 0.0
 48
    1UNL     C1    1   0.543  -0.025   0.015
    1UNL     C2    2   0.424  -0.093   0.071
    1UNL     C3    3   0.435  -0.162   0.203
    1UNL     C4    4   0.307  -0.092   0.008
    1UNL     C5    5   0.284  -0.025  -0.124
    1UNL     C6    6   0.135  -0.001  -0.155
    1UNL     C7    7   0.125   0.146  -0.179
    1UNL     C8    8   0.018   0.219  -0.208
    1UNL     C9    9  -0.119   0.163  -0.222
    1UNL     O1   10  -0.201   0.184  -0.109
    1UNL    C10   11  -0.154   0.113   0.004
    1UNL     O2   12  -0.133  -0.028  -0.022
    1UNL    C11   13  -0.237  -0.114   0.026
    1UNL    C12   14  -0.228  -0.248  -0.046
    1UNL     O3   15  -0.226  -0.228  -0.184
    1UNL    C13   16  -0.377  -0.050   0.007
    1UNL     O4   17  -0.481  -0.140   0.037
    1UNL    C14   18  -0.389   0.080   0.094
    1UNL     O5   19  -0.458   0.050   0.214
    1UNL    C15   20  -0.247   0.137   0.126
    1UNL     O6   21  -0.194   0.074   0.241
    1UNL    C16   22   0.261   0.202  -0.161
    1UNL     O7   23   0.284   0.320  -0.172
    1UNL     O8   24   0.351   0.103  -0.131
    1UNL     H1   25   0.626  -0.025   0.085
    1UNL     H2   26   0.520   0.079  -0.009
    1UNL     H3   27   0.576  -0.074  -0.077
    1UNL     H4   28   0.540  -0.178   0.231
    1UNL     H5   29   0.388  -0.104   0.281
    1UNL     H6   30   0.387  -0.260   0.200
    1UNL     H7   31   0.223  -0.142   0.053
    1UNL     H8   32   0.331  -0.086  -0.203
    1UNL     H9   33   0.102  -0.057  -0.243
    1UNL    H10   34   0.072  -0.030  -0.071
    1UNL    H11   35   0.030   0.325  -0.216
    1UNL    H12   36  -0.116   0.055  -0.241
    1UNL    H13   37  -0.171   0.208  -0.308
    1UNL    H14   38  -0.055   0.154   0.028
    1UNL    H15   39  -0.220  -0.127   0.134
    1UNL    H16   40  -0.313  -0.312  -0.022
    1UNL    H17   41  -0.136  -0.301  -0.018
    1UNL    H18   42  -0.174  -0.146  -0.202
    1UNL    H19   43  -0.387  -0.025  -0.100
    1UNL    H20   44  -0.504  -0.130   0.132
    1UNL    H21   45  -0.449   0.154   0.039
    1UNL    H22   46  -0.478   0.133   0.263
    1UNL    H23   47  -0.254   0.244   0.147
    1UNL    H24   48  -0.266   0.056   0.305
   0.00000   0.00000   0.00000   0.00000   0.00000   0.00000   0.00000   0.00000   0.00000
Generated with MDTraj, t= 1.0
 48
    1UNL     C1    1   0.541  -0.069   0.004
    1UNL     C2    2   0.414  -0.099   0.075
    1UNL     C3    3   0.418  -0.154   0.215
    1UNL     C4    4   0.300  -0.066   0.016
    1UNL     C5    5   0.285  -0.016  -0.125
    1UNL     C6    6   0.136   0.015  -0.161
    1UNL     C7    7   0.138   0.165  -0.184
    1UNL     C8    8   0.028   0.239  -0.202
    1UNL     C9    9  -0.115   0.189  -0.210
    1UNL     O1   10  -0.187   0.195  -0.090
    1UNL    C10   11  -0.158   0.106   0.018
    1UNL     O2   12  -0.144  -0.034  -0.037
    1UNL    C11   13  -0.240  -0.125   0.016
    1UNL    C12   14  -0.229  -0.256  -0.066
    1UNL     O3   15  -0.187  -0.238  -0.201
    1UNL    C13   16  -0.386  -0.070   0.028
    1UNL     O4   17  -0.464  -0.150   0.117
    1UNL    C14   18  -0.394   0.077   0.078
    1UNL     O5   19  -0.489   0.086   0.183
    1UNL    C15   20  -0.255   0.113   0.136
    1UNL     O6   21  -0.223   0.034   0.248
    1UNL    C16   22   0.279   0.212  -0.174
    1UNL     O7   23   0.308   0.324  -0.207
    1UNL     O8   24   0.354   0.108  -0.139
    1UNL     H1   25   0.530   0.018  -0.065
    1UNL     H2   26   0.575  -0.141  -0.060
    1UNL     H3   27   0.633  -0.036   0.067
    1UNL     H4   28   0.505  -0.223   0.202
    1UNL     H5   29   0.454  -0.077   0.281
    1UNL     H6   30   0.328  -0.205   0.238
    1UNL     H7   31   0.210  -0.079   0.072
    1UNL     H8   32   0.333  -0.088  -0.194
    1UNL     H9   33   0.101  -0.057  -0.233
    1UNL    H10   34   0.085  -0.001  -0.064
    1UNL    H11   35   0.045   0.347  -0.215
    1UNL    H12   36  -0.112   0.082  -0.239
    1UNL    H13   37  -0.184   0.250  -0.275
    1UNL    H14   38  -0.054   0.131   0.048
    1UNL    H15   39  -0.206  -0.132   0.123
    1UNL    H16   40  -0.324  -0.316  -0.056
    1UNL    H17   41  -0.138  -0.298  -0.019
    1UNL    H18   42  -0.201  -0.141  -0.223
    1UNL    H19   43  -0.425  -0.062  -0.079
    1UNL    H20   44  -0.545  -0.100   0.138
    1UNL    H21   45  -0.418   0.148   0.000
    1UNL    H22   46  -0.486   0.174   0.227
    1UNL    H23   47  -0.261   0.216   0.162
    1UNL    H24   48  -0.311   0.030   0.306
   0.00000   0.00000   0.00000   0.00000   0.00000   0.00000   0.00000   0.00000   0.00000
Generated with MDTraj, t= 2.0
 48
    1UNL     C1    1   0.543  -0.097  -0.002
    1UNL     C2    2   0.410  -0.100   0.074
    1UNL     C3    3   0.403  -0.127   0.221
    1UNL     C4    4   0.297  -0.068   0.011
    1UNL     C5    5   0.290  -0.021  -0.124
    1UNL     C6    6   0.141   0.012  -0.162
    1UNL     C7    7   0.141   0.161  -0.185
    1UNL     C8    8   0.038   0.246  -0.194
    1UNL     C9    9  -0.112   0.221  -0.186
    1UNL     O1   10  -0.164   0.228  -0.058
    1UNL    C10   11  -0.153   0.115   0.020
    1UNL     O2   12  -0.162  -0.018  -0.058
    1UNL    C11   13  -0.224  -0.124   0.009
    1UNL    C12   14  -0.198  -0.258  -0.066
    1UNL     O3   15  -0.235  -0.238  -0.199
    1UNL    C13   16  -0.377  -0.085   0.035
    1UNL     O4   17  -0.432  -0.165   0.144
    1UNL    C14   18  -0.398   0.058   0.068
    1UNL     O5   19  -0.513   0.073   0.144
    1UNL    C15   20  -0.265   0.114   0.132
    1UNL     O6   21  -0.230   0.043   0.249
    1UNL    C16   22   0.279   0.204  -0.180
    1UNL     O7   23   0.301   0.319  -0.207
    1UNL     O8   24   0.364   0.102  -0.151
    1UNL     H1   25   0.546  -0.186  -0.067
    1UNL     H2   26   0.626  -0.100   0.066
    1UNL     H3   27   0.543  -0.003  -0.069
    1UNL     H4   28   0.470  -0.216   0.224
    1UNL     H5   29   0.458  -0.062   0.286
    1UNL     H6   30   0.311  -0.151   0.265
    1UNL     H7   31   0.204  -0.100   0.058
    1UNL     H8   32   0.326  -0.095  -0.201
    1UNL     H9   33   0.118  -0.042  -0.250
    1UNL    H10   34   0.070  -0.008  -0.077
    1UNL    H11   35   0.066   0.345  -0.212
    1UNL    H12   36  -0.148   0.113  -0.209
    1UNL    H13   37  -0.165   0.295  -0.251
    1UNL    H14   38  -0.059   0.116   0.083
    1UNL    H15   39  -0.181  -0.126   0.115
    1UNL    H16   40  -0.268  -0.332  -0.019
    1UNL    H17   41  -0.092  -0.285  -0.057
    1UNL    H18   42  -0.229  -0.142  -0.213
    1UNL    H19   43  -0.440  -0.122  -0.055
    1UNL    H20   44  -0.524  -0.141   0.175
    1UNL    H21   45  -0.420   0.106  -0.026
    1UNL    H22   46  -0.513   0.166   0.177
    1UNL    H23   47  -0.275   0.213   0.164
    1UNL    H24   48  -0.302   0.029   0.311
   0.00000   0.00000   0.00000   0.00000   0.00000   0.00000   0.00000   0.00000   0.00000
Generated with MDTraj, t= 3.0
 48
    1UNL     C1    1   0.512  -0.084  -0.017
    1UNL     C2    2   0.397  -0.092   0.074
    1UNL     C3    3   0.409  -0.120   0.219
    1UNL     C4    4   0.280  -0.059   0.018
    1UNL     C5    5   0.269  -0.035  -0.125
    1UNL     C6    6   0.123   0.019  -0.159
    1UNL     C7    7   0.146   0.164  -0.178
    1UNL     C8    8   0.055   0.260  -0.190
    1UNL     C9    9  -0.089   0.237  -0.179
    1UNL     O1   10  -0.152   0.238  -0.048
    1UNL    C10   11  -0.166   0.118   0.026
    1UNL     O2   12  -0.161   0.005  -0.063
    1UNL    C11   13  -0.197  -0.116   0.007
    1UNL    C12   14  -0.192  -0.242  -0.084
    1UNL     O3   15  -0.280  -0.239  -0.190
    1UNL    C13   16  -0.348  -0.110   0.037
    1UNL     O4   17  -0.377  -0.181   0.162
    1UNL    C14   18  -0.407   0.036   0.054
    1UNL     O5   19  -0.518   0.032   0.145
    1UNL    C15   20  -0.288   0.124   0.119
    1UNL     O6   21  -0.263   0.082   0.247
    1UNL    C16   22   0.292   0.189  -0.179
    1UNL     O7   23   0.342   0.299  -0.192
    1UNL     O8   24   0.361   0.074  -0.166
    1UNL     H1   25   0.602  -0.122   0.040
    1UNL     H2   26   0.533   0.027  -0.045
    1UNL     H3   27   0.498  -0.145  -0.104
    1UNL     H4   28   0.487  -0.197   0.236
    1UNL     H5   29   0.423  -0.044   0.294
    1UNL     H6   30   0.329  -0.174   0.261
    1UNL     H7   31   0.192  -0.082   0.072
    1UNL     H8   32   0.280  -0.123  -0.196
    1UNL     H9   33   0.080  -0.010  -0.252
    1UNL    H10   34   0.057   0.010  -0.068
    1UNL    H11   35   0.094   0.362  -0.212
    1UNL    H12   36  -0.109   0.134  -0.230
    1UNL    H13   37  -0.161   0.317  -0.222
    1UNL    H14   38  -0.080   0.116   0.100
    1UNL    H15   39  -0.118  -0.135   0.089
    1UNL    H16   40  -0.217  -0.334  -0.025
    1UNL    H17   41  -0.092  -0.248  -0.126
    1UNL    H18   42  -0.286  -0.147  -0.227
    1UNL    H19   43  -0.402  -0.163  -0.051
    1UNL    H20   44  -0.460  -0.145   0.194
    1UNL    H21   45  -0.450   0.079  -0.038
    1UNL    H22   46  -0.551   0.121   0.168
    1UNL    H23   47  -0.309   0.226   0.112
    1UNL    H24   48  -0.341   0.042   0.279
   0.00000   0.00000   0.00000   0.00000   0.00000   0.00000   0.00000   0.00000   0.00000
Generated with MDTraj, t= 4.0
 48
    1UNL     C1    1   0.518  -0.083   0.001
    1UNL     C2    2   0.395  -0.100   0.072
    1UNL     C3    3   0.396  -0.117   0.223
    1UNL     C4    4   0.275  -0.086   0.013
    1UNL     C5    5   0.253  -0.048  -0.131
    1UNL     C6    6   0.118   0.016  -0.144
    1UNL     C7    7   0.142   0.160  -0.152
    1UNL     C8    8   0.053   0.259  -0.156
    1UNL     C9    9  -0.096   0.255  -0.175
    1UNL     O1   10  -0.170   0.262  -0.051
    1UNL    C10   11  -0.180   0.129   0.004
    1UNL     O2   12  -0.187   0.008  -0.086
    1UNL    C11   13  -0.203  -0.111  -0.010
    1UNL    C12   14  -0.165  -0.230  -0.105
    1UNL     O3   15  -0.246  -0.220  -0.218
    1UNL    C13   16  -0.343  -0.117   0.057
    1UNL     O4   17  -0.323  -0.162   0.188
    1UNL    C14   18  -0.411   0.019   0.065
    1UNL     O5   19  -0.514   0.016   0.154
    1UNL    C15   20  -0.303   0.124   0.107
    1UNL     O6   21  -0.272   0.103   0.243
    1UNL    C16   22   0.292   0.176  -0.180
    1UNL     O7   23   0.343   0.286  -0.202
    1UNL     O8   24   0.352   0.048  -0.177
    1UNL     H1   25   0.585  -0.006   0.060
    1UNL     H2   26   0.514  -0.039  -0.107
    1UNL     H3   27   0.577  -0.171  -0.001
    1UNL     H4   28   0.492  -0.139   0.269
    1UNL     H5   29   0.335  -0.042   0.269
    1UNL     H6   30   0.344  -0.209   0.237
    1UNL     H7   31   0.186  -0.115   0.073
    1UNL     H8   32   0.255  -0.142  -0.195
    1UNL     H9   33   0.073  -0.023  -0.232
    1UNL    H10   34   0.068  -0.009  -0.049
    1UNL    H11   35   0.094   0.354  -0.153
    1UNL    H12   36  -0.136   0.152  -0.216
    1UNL    H13   37  -0.116   0.346  -0.244
    1UNL    H14   38  -0.094   0.130   0.076
    1UNL    H15   39  -0.124  -0.107   0.076
    1UNL    H16   40  -0.180  -0.330  -0.058
    1UNL    H17   41  -0.063  -0.227  -0.140
    1UNL    H18   42  -0.273  -0.125  -0.236
    1UNL    H19   43  -0.420  -0.184   0.008
    1UNL    H20   44  -0.410  -0.141   0.239
    1UNL    H21   45  -0.463   0.044  -0.031
    1UNL    H22   46  -0.536   0.108   0.178
    1UNL    H23   47  -0.341   0.220   0.107
    1UNL    H24   48  -0.210   0.019   0.250
   0.00000   0.00000   0.00000   0.00000   0.00000   0.00000   0.00000   0.00000   0.00000
Generated with MDTraj, t= 5.0
 48
    1UNL     C1    1   0.498  -0.056   0.008
    1UNL     C2    2   0.380  -0.110   0.082
    1UNL     C3    3   0.389  -0.157   0.228
    1UNL     C4    4   0.260  -0.102   0.017
    1UNL     C5    5   0.247  -0.051  -0.130
    1UNL     C6    6   0.109   0.001  -0.161
    1UNL     C7    7   0.122   0.147  -0.174
    1UNL     C8    8   0.045   0.257  -0.185
    1UNL     C9    9  -0.105   0.251  -0.192
    1UNL     O1   10  -0.186   0.253  -0.066
    1UNL    C10   11  -0.179   0.134   0.006
    1UNL     O2   12  -0.174   0.018  -0.073
    1UNL    C11   13  -0.182  -0.104  -0.006
    1UNL    C12   14  -0.162  -0.213  -0.111
    1UNL     O3   15  -0.231  -0.172  -0.229
    1UNL    C13   16  -0.319  -0.119   0.067
    1UNL     O4   17  -0.298  -0.165   0.201
    1UNL    C14   18  -0.396   0.010   0.067
    1UNL     O5   19  -0.494   0.007   0.161
    1UNL    C15   20  -0.303   0.129   0.098
    1UNL     O6   21  -0.265   0.135   0.232
    1UNL    C16   22   0.272   0.170  -0.171
    1UNL     O7   23   0.331   0.278  -0.182
    1UNL     O8   24   0.343   0.050  -0.150
    1UNL     H1   25   0.487   0.052  -0.033
    1UNL     H2   26   0.510  -0.115  -0.085
    1UNL     H3   27   0.595  -0.074   0.070
    1UNL     H4   28   0.487  -0.148   0.269
    1UNL     H5   29   0.308  -0.107   0.275
    1UNL     H6   30   0.370  -0.264   0.230
    1UNL     H7   31   0.174  -0.129   0.072
    1UNL     H8   32   0.273  -0.145  -0.192
    1UNL     H9   33   0.072  -0.042  -0.253
    1UNL    H10   34   0.049  -0.029  -0.078
    1UNL    H11   35   0.095   0.357  -0.190
    1UNL    H12   36  -0.122   0.153  -0.256
    1UNL    H13   37  -0.141   0.352  -0.230
    1UNL    H14   38  -0.092   0.143   0.072
    1UNL    H15   39  -0.107  -0.111   0.084
    1UNL    H16   40  -0.187  -0.319  -0.088
    1UNL    H17   41  -0.058  -0.215  -0.138
    1UNL    H18   42  -0.267  -0.083  -0.219
    1UNL    H19   43  -0.374  -0.203   0.020
    1UNL    H20   44  -0.292  -0.260   0.206
    1UNL    H21   45  -0.439   0.018  -0.037
    1UNL    H22   46  -0.457   0.004   0.251
    1UNL    H23   47  -0.351   0.219   0.082
    1UNL    H24   48  -0.259   0.044   0.268
   0.00000   0.00000   0.00000   0.00000   0.00000   0.00000   0.00000   0.00000   0.00000
Generated with MDTraj, t= 6.0
 48
    1UNL     C1    1   0.489  -0.051   0.048
    1UNL     C2    2   0.358  -0.117   0.080
    1UNL     C3    3   0.346  -0.193   0.205
    1UNL     C4    4   0.251  -0.122  -0.003
    1UNL     C5    5   0.247  -0.042  -0.133
    1UNL     C6    6   0.111   0.019  -0.155
    1UNL     C7    7   0.126   0.161  -0.179
    1UNL     C8    8   0.029   0.254  -0.202
    1UNL     C9    9  -0.122   0.241  -0.214
    1UNL     O1   10  -0.182   0.250  -0.075
    1UNL    C10   11  -0.168   0.135   0.000
    1UNL     O2   12  -0.161   0.016  -0.081
    1UNL    C11   13  -0.170  -0.114  -0.013
    1UNL    C12   14  -0.156  -0.226  -0.109
    1UNL     O3   15  -0.248  -0.206  -0.211
    1UNL    C13   16  -0.306  -0.119   0.076
    1UNL     O4   17  -0.281  -0.149   0.216
    1UNL    C14   18  -0.382   0.022   0.064
    1UNL     O5   19  -0.502   0.015   0.148
    1UNL    C15   20  -0.282   0.139   0.106
    1UNL     O6   21  -0.237   0.122   0.239
    1UNL    C16   22   0.270   0.190  -0.168
    1UNL     O7   23   0.323   0.300  -0.167
    1UNL     O8   24   0.346   0.068  -0.147
    1UNL     H1   25   0.480   0.053   0.003
    1UNL     H2   26   0.520  -0.115  -0.038
    1UNL     H3   27   0.577  -0.065   0.130
    1UNL     H4   28   0.426  -0.176   0.270
    1UNL     H5   29   0.256  -0.161   0.251
    1UNL     H6   30   0.346  -0.304   0.205
    1UNL     H7   31   0.160  -0.171   0.035
    1UNL     H8   32   0.265  -0.116  -0.221
    1UNL     H9   33   0.057  -0.014  -0.243
    1UNL    H10   34   0.040   0.006  -0.080
    1UNL    H11   35   0.057   0.354  -0.200
    1UNL    H12   36  -0.163   0.138  -0.244
    1UNL    H13   37  -0.159   0.328  -0.271
    1UNL    H14   38  -0.068   0.146   0.038
    1UNL    H15   39  -0.085  -0.111   0.067
    1UNL    H16   40  -0.183  -0.322  -0.060
    1UNL    H17   41  -0.057  -0.241  -0.150
    1UNL    H18   42  -0.265  -0.107  -0.219
    1UNL    H19   43  -0.361  -0.201   0.033
    1UNL    H20   44  -0.281  -0.244   0.221
    1UNL    H21   45  -0.427   0.041  -0.037
    1UNL    H22   46  -0.478   0.014   0.243
    1UNL    H23   47  -0.340   0.227   0.108
    1UNL    H24   48  -0.185   0.044   0.245
   0.00000   0.00000   0.00000   0.00000   0.00000   0.00000   0.00000   0.00000   0.00000
Generated with MDTraj, t= 7.0
 48
    1UNL     C1    1   0.457  -0.047   0.075
    1UNL     C2    2   0.331  -0.121   0.076
    1UNL     C3    3   0.316  -0.226   0.177
    1UNL     C4    4   0.247  -0.106  -0.031
    1UNL     C5    5   0.265  -0.019  -0.152
    1UNL     C6    6   0.128   0.028  -0.197
    1UNL     C7    7   0.132   0.176  -0.177
    1UNL     C8    8   0.038   0.273  -0.190
    1UNL     C9    9  -0.102   0.240  -0.218
    1UNL     O1   10  -0.194   0.239  -0.102
    1UNL    C10   11  -0.169   0.132  -0.024
    1UNL     O2   12  -0.159   0.003  -0.093
    1UNL    C11   13  -0.175  -0.113  -0.004
    1UNL    C12   14  -0.160  -0.245  -0.074
    1UNL     O3   15  -0.267  -0.261  -0.167
    1UNL    C13   16  -0.317  -0.111   0.073
    1UNL     O4   17  -0.301  -0.150   0.205
    1UNL    C14   18  -0.383   0.026   0.071
    1UNL     O5   19  -0.479   0.030   0.176
    1UNL    C15   20  -0.276   0.135   0.102
    1UNL     O6   21  -0.200   0.114   0.225
    1UNL    C16   22   0.280   0.205  -0.151
    1UNL     O7   23   0.333   0.315  -0.156
    1UNL     O8   24   0.350   0.095  -0.123
    1UNL     H1   25   0.448   0.067   0.083
    1UNL     H2   26   0.504  -0.063  -0.030
    1UNL     H3   27   0.535  -0.081   0.146
    1UNL     H4   28   0.387  -0.212   0.252
    1UNL     H5   29   0.219  -0.236   0.222
    1UNL     H6   30   0.341  -0.327   0.144
    1UNL     H7   31   0.152  -0.154  -0.029
    1UNL     H8   32   0.320  -0.086  -0.232
    1UNL     H9   33   0.110   0.010  -0.301
    1UNL    H10   34   0.032  -0.003  -0.155
    1UNL    H11   35   0.070   0.380  -0.184
    1UNL    H12   36  -0.107   0.137  -0.260
    1UNL    H13   37  -0.151   0.311  -0.280
    1UNL    H14   38  -0.070   0.151   0.008
    1UNL    H15   39  -0.093  -0.089   0.075
    1UNL    H16   40  -0.167  -0.322   0.007
    1UNL    H17   41  -0.061  -0.264  -0.116
    1UNL    H18   42  -0.283  -0.173  -0.206
    1UNL    H19   43  -0.388  -0.170   0.021
    1UNL    H20   44  -0.303  -0.249   0.233
    1UNL    H21   45  -0.426   0.051  -0.029
    1UNL    H22   46  -0.434   0.003   0.259
    1UNL    H23   47  -0.319   0.231   0.114
    1UNL    H24   48  -0.212   0.015   0.264
   0.00000   0.00000   0.00000   0.00000   0.00000   0.00000   0.00000   0.00000   0.00000
Generated with MDTraj, t= 8.0
 48
    1UNL     C1    1   0.437  -0.043   0.084
    1UNL     C2    2   0.316  -0.119   0.058
    1UNL     C3    3   0.270  -0.227   0.152
    1UNL     C4    4   0.256  -0.118  -0.062
    1UNL     C5    5   0.282  -0.012  -0.166
    1UNL     C6    6   0.158   0.045  -0.234
    1UNL     C7    7   0.147   0.187  -0.182
    1UNL     C8    8   0.038   0.263  -0.203
    1UNL     C9    9  -0.102   0.231  -0.238
    1UNL     O1   10  -0.182   0.230  -0.117
    1UNL    C10   11  -0.164   0.120  -0.036
    1UNL     O2   12  -0.183  -0.011  -0.091
    1UNL    C11   13  -0.188  -0.115   0.006
    1UNL    C12   14  -0.161  -0.251  -0.051
    1UNL     O3   15  -0.258  -0.291  -0.140
    1UNL    C13   16  -0.328  -0.104   0.079
    1UNL     O4   17  -0.314  -0.158   0.204
    1UNL    C14   18  -0.376   0.041   0.083
    1UNL     O5   19  -0.454   0.057   0.202
    1UNL    C15   20  -0.255   0.130   0.091
    1UNL     O6   21  -0.178   0.109   0.205
    1UNL    C16   22   0.281   0.215  -0.125
    1UNL     O7   23   0.299   0.332  -0.100
    1UNL     O8   24   0.356   0.101  -0.115
    1UNL     H1   25   0.403   0.049   0.146
    1UNL     H2   26   0.492  -0.003  -0.013
    1UNL     H3   27   0.508  -0.098   0.143
    1UNL     H4   28   0.327  -0.219   0.244
    1UNL     H5   29   0.163  -0.240   0.160
    1UNL     H6   30   0.308  -0.316   0.106
    1UNL     H7   31   0.179  -0.189  -0.080
    1UNL     H8   32   0.359  -0.077  -0.230
    1UNL     H9   33   0.152   0.037  -0.339
    1UNL    H10   34   0.071  -0.012  -0.202
    1UNL    H11   35   0.057   0.363  -0.179
    1UNL    H12   36  -0.110   0.129  -0.273
    1UNL    H13   37  -0.150   0.294  -0.306
    1UNL    H14   38  -0.063   0.122  -0.004
    1UNL    H15   39  -0.105  -0.085   0.081
    1UNL    H16   40  -0.132  -0.324   0.028
    1UNL    H17   41  -0.064  -0.234  -0.101
    1UNL    H18   42  -0.281  -0.217  -0.198
    1UNL    H19   43  -0.399  -0.157   0.018
    1UNL    H20   44  -0.286  -0.255   0.214
    1UNL    H21   45  -0.425   0.079  -0.007
    1UNL    H22   46  -0.425  -0.012   0.266
    1UNL    H23   47  -0.308   0.226   0.105
    1UNL    H24   48  -0.241   0.087   0.274
   0.00000   0.00000   0.00000   0.00000   0.00000   0.00000   0.00000   0.00000   0.00000
Generated with MDTraj, t= 9.0
 48
    1UNL     C1    1   0.407  -0.030   0.092
    1UNL     C2    2   0.299  -0.118   0.042
    1UNL     C3    3   0.244  -0.233   0.129
    1UNL     C4    4   0.258  -0.104  -0.084
    1UNL     C5    5   0.296  -0.000  -0.178
    1UNL     C6    6   0.164   0.043  -0.249
    1UNL     C7    7   0.137   0.178  -0.177
    1UNL     C8    8   0.030   0.253  -0.196
    1UNL     C9    9  -0.102   0.215  -0.245
    1UNL     O1   10  -0.193   0.204  -0.144
    1UNL    C10   11  -0.153   0.115  -0.049
    1UNL     O2   12  -0.163  -0.025  -0.080
    1UNL    C11   13  -0.174  -0.123   0.018
    1UNL    C12   14  -0.157  -0.258  -0.044
    1UNL     O3   15  -0.254  -0.275  -0.139
    1UNL    C13   16  -0.322  -0.105   0.087
    1UNL     O4   17  -0.322  -0.155   0.220
    1UNL    C14   18  -0.361   0.050   0.085
    1UNL     O5   19  -0.438   0.081   0.202
    1UNL    C15   20  -0.235   0.138   0.082
    1UNL     O6   21  -0.154   0.116   0.200
    1UNL    C16   22   0.258   0.216  -0.108
    1UNL     O7   23   0.284   0.315  -0.043
    1UNL     O8   24   0.351   0.116  -0.121
    1UNL     H1   25   0.349   0.069   0.112
    1UNL     H2   26   0.488  -0.009   0.019
    1UNL     H3   27   0.444  -0.078   0.187
    1UNL     H4   28   0.299  -0.235   0.225
    1UNL     H5   29   0.137  -0.234   0.134
    1UNL     H6   30   0.272  -0.322   0.082
    1UNL     H7   31   0.195  -0.186  -0.120
    1UNL     H8   32   0.377  -0.044  -0.253
    1UNL     H9   33   0.171   0.045  -0.354
    1UNL    H10   34   0.078  -0.024  -0.234
    1UNL    H11   35   0.036   0.356  -0.157
    1UNL    H12   36  -0.097   0.119  -0.291
    1UNL    H13   37  -0.138   0.284  -0.314
    1UNL    H14   38  -0.052   0.141  -0.025
    1UNL    H15   39  -0.103  -0.101   0.105
    1UNL    H16   40  -0.158  -0.333   0.037
    1UNL    H17   41  -0.055  -0.263  -0.086
    1UNL    H18   42  -0.272  -0.200  -0.200
    1UNL    H19   43  -0.390  -0.165   0.026
    1UNL    H20   44  -0.304  -0.247   0.220
    1UNL    H21   45  -0.422   0.072   0.000
    1UNL    H22   46  -0.480  -0.001   0.234
    1UNL    H23   47  -0.275   0.242   0.081
    1UNL    H24   48  -0.183   0.051   0.258
   0.00000   0.00000   0.00000   0.00000   0.00000   0.00000   0.00000   0.00000   0.00000
Generated with MDTraj, t= 10.0
 48
    1UNL     C1    1   0.351  -0.011   0.108
    1UNL     C2    2   0.289  -0.127   0.035
    1UNL     C3    3   0.251  -0.249   0.112
    1UNL     C4    4   0.252  -0.115  -0.092
    1UNL     C5    5   0.294  -0.006  -0.181
    1UNL     C6    6   0.169   0.052  -0.255
    1UNL     C7    7   0.143   0.182  -0.196
    1UNL     C8    8   0.033   0.261  -0.208
    1UNL     C9    9  -0.107   0.225  -0.246
    1UNL     O1   10  -0.192   0.206  -0.136
    1UNL    C10   11  -0.145   0.113  -0.044
    1UNL     O2   12  -0.141  -0.026  -0.085
    1UNL    C11   13  -0.168  -0.120   0.019
    1UNL    C12   14  -0.160  -0.266  -0.036
    1UNL     O3   15  -0.244  -0.277  -0.149
    1UNL    C13   16  -0.314  -0.104   0.096
    1UNL     O4   17  -0.305  -0.137   0.234
    1UNL    C14   18  -0.362   0.044   0.086
    1UNL     O5   19  -0.449   0.085   0.190
    1UNL    C15   20  -0.230   0.134   0.090
    1UNL     O6   21  -0.148   0.106   0.202
    1UNL    C16   22   0.260   0.209  -0.107
    1UNL     O7   23   0.262   0.309  -0.040
    1UNL     O8   24   0.352   0.109  -0.111
    1UNL     H1   25   0.304   0.092   0.095
    1UNL     H2   26   0.453   0.005   0.076
    1UNL     H3   27   0.361  -0.030   0.223
    1UNL     H4   28   0.316  -0.276   0.199
    1UNL     H5   29   0.152  -0.236   0.148
    1UNL     H6   30   0.245  -0.340   0.061
    1UNL     H7   31   0.208  -0.197  -0.141
    1UNL     H8   32   0.379  -0.031  -0.262
    1UNL     H9   33   0.180   0.071  -0.358
    1UNL    H10   34   0.075  -0.004  -0.246
    1UNL    H11   35   0.052   0.356  -0.164
    1UNL    H12   36  -0.089   0.135  -0.304
    1UNL    H13   37  -0.144   0.293  -0.315
    1UNL    H14   38  -0.046   0.149  -0.019
    1UNL    H15   39  -0.097  -0.099   0.103
    1UNL    H16   40  -0.182  -0.343   0.041
    1UNL    H17   41  -0.054  -0.284  -0.061
    1UNL    H18   42  -0.243  -0.201  -0.210
    1UNL    H19   43  -0.381  -0.179   0.048
    1UNL    H20   44  -0.270  -0.224   0.246
    1UNL    H21   45  -0.429   0.060   0.004
    1UNL    H22   46  -0.422   0.044   0.276
    1UNL    H23   47  -0.264   0.243   0.087
    1UNL    H24   48  -0.188   0.120   0.298
   0.00000   0.00000   0.00000   0.00000   0.00000   0.00000   0.00000   0.00000   0.00000
Generated with MDTraj, t= 11.0
 48
    1UNL     C1    1   0.280  -0.011   0.118
    1UNL     C2    2   0.273  -0.137   0.037
    1UNL     C3    3   0.241  -0.267   0.099
    1UNL     C4    4   0.286  -0.133  -0.095
    1UNL     C5    5   0.293  -0.010  -0.176
    1UNL     C6    6   0.151   0.037  -0.225
    1UNL     C7    7   0.143   0.182  -0.190
    1UNL     C8    8   0.035   0.261  -0.206
    1UNL     C9    9  -0.104   0.214  -0.246
    1UNL     O1   10  -0.196   0.217  -0.131
    1UNL    C10   11  -0.161   0.125  -0.034
    1UNL     O2   12  -0.145  -0.009  -0.083
    1UNL    C11   13  -0.157  -0.111   0.015
    1UNL    C12   14  -0.139  -0.250  -0.043
    1UNL     O3   15  -0.232  -0.276  -0.139
    1UNL    C13   16  -0.297  -0.096   0.094
    1UNL     O4   17  -0.275  -0.147   0.224
    1UNL    C14   18  -0.366   0.044   0.093
    1UNL     O5   19  -0.455   0.071   0.196
    1UNL    C15   20  -0.244   0.137   0.096
    1UNL     O6   21  -0.170   0.108   0.204
    1UNL    C16   22   0.274   0.220  -0.120
    1UNL     O7   23   0.297   0.331  -0.080
    1UNL     O8   24   0.356   0.103  -0.109
    1UNL     H1   25   0.191   0.055   0.135
    1UNL     H2   26   0.355   0.054   0.071
    1UNL     H3   27   0.332  -0.016   0.222
    1UNL     H4   28   0.320  -0.316   0.158
    1UNL     H5   29   0.160  -0.244   0.165
    1UNL     H6   30   0.198  -0.339   0.033
    1UNL     H7   31   0.266  -0.226  -0.151
    1UNL     H8   32   0.368  -0.021  -0.269
    1UNL     H9   33   0.139   0.031  -0.331
    1UNL    H10   34   0.078  -0.022  -0.169
    1UNL    H11   35   0.055   0.364  -0.175
    1UNL    H12   36  -0.096   0.113  -0.294
    1UNL    H13   37  -0.125   0.281  -0.328
    1UNL    H14   38  -0.063   0.165  -0.003
    1UNL    H15   39  -0.072  -0.093   0.083
    1UNL    H16   40  -0.140  -0.327   0.035
    1UNL    H17   41  -0.040  -0.262  -0.092
    1UNL    H18   42  -0.230  -0.205  -0.208
    1UNL    H19   43  -0.365  -0.160   0.030
    1UNL    H20   44  -0.240  -0.241   0.235
    1UNL    H21   45  -0.434   0.066   0.009
    1UNL    H22   46  -0.411   0.049   0.280
    1UNL    H23   47  -0.284   0.245   0.097
    1UNL    H24   48  -0.188   0.014   0.233
   0.00000   0.00000   0.00000   0.00000   0.00000   0.00000   0.00000   0.00000   0.00000
Generated with MDTraj, t= 12.0
 48
    1UNL     C1    1   0.195  -0.018   0.109
    1UNL     C2    2   0.244  -0.146   0.043
    1UNL     C3    3   0.267  -0.273   0.123
    1UNL     C4    4   0.285  -0.135  -0.082
    1UNL     C5    5   0.281  -0.013  -0.175
    1UNL     C6    6   0.132   0.026  -0.204
    1UNL     C7    7   0.140   0.176  -0.183
    1UNL     C8    8   0.048   0.272  -0.191
    1UNL     C9    9  -0.094   0.237  -0.224
    1UNL     O1   10  -0.175   0.242  -0.108
    1UNL    C10   11  -0.155   0.134  -0.024
    1UNL     O2   12  -0.148  -0.003  -0.083
    1UNL    C11   13  -0.147  -0.109   0.013
    1UNL    C12   14  -0.113  -0.238  -0.060
    1UNL     O3   15  -0.218  -0.269  -0.147
    1UNL    C13   16  -0.283  -0.115   0.094
    1UNL     O4   17  -0.252  -0.162   0.223
    1UNL    C14   18  -0.364   0.016   0.091
    1UNL     O5   19  -0.457   0.033   0.187
    1UNL    C15   20  -0.265   0.147   0.092
    1UNL     O6   21  -0.197   0.167   0.213
    1UNL    C16   22   0.276   0.212  -0.148
    1UNL     O7   23   0.326   0.319  -0.125
    1UNL     O8   24   0.357   0.095  -0.130
    1UNL     H1   25   0.106   0.020   0.059
    1UNL     H2   26   0.283   0.055   0.102
    1UNL     H3   27   0.175  -0.033   0.214
    1UNL     H4   28   0.370  -0.298   0.111
    1UNL     H5   29   0.254  -0.266   0.229
    1UNL     H6   30   0.201  -0.348   0.074
    1UNL     H7   31   0.306  -0.232  -0.119
    1UNL     H8   32   0.328  -0.034  -0.282
    1UNL     H9   33   0.110  -0.007  -0.305
    1UNL    H10   34   0.073  -0.020  -0.128
    1UNL    H11   35   0.080   0.368  -0.154
    1UNL    H12   36  -0.093   0.137  -0.280
    1UNL    H13   37  -0.141   0.315  -0.288
    1UNL    H14   38  -0.058   0.158   0.023
    1UNL    H15   39  -0.067  -0.079   0.082
    1UNL    H16   40  -0.102  -0.323   0.006
    1UNL    H17   41  -0.023  -0.231  -0.122
    1UNL    H18   42  -0.239  -0.183  -0.197
    1UNL    H19   43  -0.349  -0.185   0.035
    1UNL    H20   44  -0.194  -0.247   0.226
    1UNL    H21   45  -0.431   0.023   0.001
    1UNL    H22   46  -0.417   0.004   0.271
    1UNL    H23   47  -0.323   0.245   0.073
    1UNL    H24   48  -0.194   0.100   0.277
   0.00000   0.00000   0.00000   0.00000   0.00000   0.00000   0.00000   0.00000   0.00000
Generated with MDTraj, t= 13.0
 48
    1UNL     C1    1   0.220   0.006   0.115
    1UNL     C2    2   0.236  -0.129   0.045
    1UNL     C3    3   0.266  -0.243   0.144
    1UNL     C4    4   0.260  -0.153  -0.083
    1UNL     C5    5   0.261  -0.040  -0.189
    1UNL     C6    6   0.129   0.028  -0.224
    1UNL     C7    7   0.149   0.168  -0.192
    1UNL     C8    8   0.049   0.257  -0.175
    1UNL     C9    9  -0.100   0.240  -0.207
    1UNL     O1   10  -0.182   0.249  -0.091
    1UNL    C10   11  -0.163   0.141  -0.011
    1UNL     O2   12  -0.151   0.021  -0.080
    1UNL    C11   13  -0.139  -0.091   0.008
    1UNL    C12   14  -0.095  -0.214  -0.067
    1UNL     O3   15  -0.191  -0.234  -0.171
    1UNL    C13   16  -0.267  -0.119   0.094
    1UNL     O4   17  -0.225  -0.122   0.233
    1UNL    C14   18  -0.369  -0.003   0.080
    1UNL     O5   19  -0.465  -0.004   0.181
    1UNL    C15   20  -0.278   0.135   0.092
    1UNL     O6   21  -0.229   0.149   0.218
    1UNL    C16   22   0.292   0.187  -0.151
    1UNL     O7   23   0.328   0.299  -0.129
    1UNL     O8   24   0.347   0.060  -0.143
    1UNL     H1   25   0.184   0.085   0.052
    1UNL     H2   26   0.316   0.036   0.169
    1UNL     H3   27   0.146  -0.005   0.189
    1UNL     H4   28   0.351  -0.283   0.095
    1UNL     H5   29   0.305  -0.218   0.241
    1UNL     H6   30   0.177  -0.312   0.136
    1UNL     H7   31   0.297  -0.256  -0.104
    1UNL     H8   32   0.313  -0.085  -0.282
    1UNL     H9   33   0.106   0.027  -0.329
    1UNL    H10   34   0.052  -0.011  -0.162
    1UNL    H11   35   0.083   0.344  -0.125
    1UNL    H12   36  -0.123   0.130  -0.238
    1UNL    H13   37  -0.137   0.316  -0.282
    1UNL    H14   38  -0.070   0.162   0.048
    1UNL    H15   39  -0.063  -0.057   0.082
    1UNL    H16   40  -0.104  -0.302  -0.005
    1UNL    H17   41   0.001  -0.204  -0.117
    1UNL    H18   42  -0.233  -0.147  -0.189
    1UNL    H19   43  -0.310  -0.217   0.061
    1UNL    H20   44  -0.263  -0.200   0.278
    1UNL    H21   45  -0.432  -0.010  -0.017
    1UNL    H22   46  -0.422   0.010   0.269
    1UNL    H23   47  -0.354   0.216   0.068
    1UNL    H24   48  -0.194   0.058   0.238
   0.00000   0.00000   0.00000   0.00000   0.00000   0.00000   0.00000   0.00000   0.00000
Generated with MDTraj, t= 14.0
 48
    1UNL     C1    1   0.303   0.014   0.092
    1UNL     C2    2   0.251  -0.116   0.046
    1UNL     C3    3   0.209  -0.210   0.154
    1UNL     C4    4   0.230  -0.143  -0.082
    1UNL     C5    5   0.253  -0.042  -0.197
    1UNL     C6    6   0.116   0.017  -0.221
    1UNL     C7    7   0.138   0.161  -0.192
    1UNL     C8    8   0.045   0.261  -0.174
    1UNL     C9    9  -0.097   0.241  -0.202
    1UNL     O1   10  -0.181   0.244  -0.088
    1UNL    C10   11  -0.163   0.135  -0.005
    1UNL     O2   12  -0.122   0.014  -0.064
    1UNL    C11   13  -0.122  -0.103   0.012
    1UNL    C12   14  -0.094  -0.222  -0.073
    1UNL     O3   15  -0.174  -0.214  -0.191
    1UNL    C13   16  -0.257  -0.115   0.092
    1UNL     O4   17  -0.226  -0.115   0.234
    1UNL    C14   18  -0.367  -0.003   0.078
    1UNL     O5   19  -0.455  -0.018   0.184
    1UNL    C15   20  -0.290   0.129   0.087
    1UNL     O6   21  -0.258   0.148   0.221
    1UNL    C16   22   0.282   0.177  -0.151
    1UNL     O7   23   0.329   0.275  -0.103
    1UNL     O8   24   0.348   0.057  -0.163
    1UNL     H1   25   0.218   0.079   0.116
    1UNL     H2   26   0.370   0.062   0.029
    1UNL     H3   27   0.352   0.015   0.188
    1UNL     H4   28   0.284  -0.283   0.151
    1UNL     H5   29   0.222  -0.177   0.257
    1UNL     H6   30   0.103  -0.246   0.136
    1UNL     H7   31   0.196  -0.238  -0.112
    1UNL     H8   32   0.304  -0.091  -0.286
    1UNL     H9   33   0.072   0.012  -0.319
    1UNL    H10   34   0.040  -0.016  -0.150
    1UNL    H11   35   0.078   0.362  -0.146
    1UNL    H12   36  -0.120   0.135  -0.245
    1UNL    H13   37  -0.139   0.332  -0.255
    1UNL    H14   38  -0.087   0.175   0.070
    1UNL    H15   39  -0.045  -0.096   0.091
    1UNL    H16   40  -0.121  -0.311  -0.019
    1UNL    H17   41   0.008  -0.211  -0.110
    1UNL    H18   42  -0.216  -0.125  -0.195
    1UNL    H19   43  -0.301  -0.211   0.064
    1UNL    H20   44  -0.310  -0.121   0.274
    1UNL    H21   45  -0.407  -0.018  -0.030
    1UNL    H22   46  -0.530   0.047   0.188
    1UNL    H23   47  -0.349   0.218   0.056
    1UNL    H24   48  -0.247   0.060   0.270
   0.00000   0.00000   0.00000   0.00000   0.00000   0.00000   0.00000   0.00000   0.00000
Generated with MDTraj, t= 15.0
 48
    1UNL     C1    1   0.350   0.006   0.098
    1UNL     C2    2   0.265  -0.112   0.054
    1UNL     C3    3   0.214  -0.208   0.150
    1UNL     C4    4   0.237  -0.136  -0.071
    1UNL     C5    5   0.266  -0.044  -0.191
    1UNL     C6    6   0.140   0.021  -0.246
    1UNL     C7    7   0.150   0.166  -0.199
    1UNL     C8    8   0.050   0.252  -0.160
    1UNL     C9    9  -0.090   0.253  -0.204
    1UNL     O1   10  -0.190   0.253  -0.093
    1UNL    C10   11  -0.177   0.141  -0.005
    1UNL     O2   12  -0.151   0.010  -0.074
    1UNL    C11   13  -0.132  -0.098   0.013
    1UNL    C12   14  -0.108  -0.228  -0.070
    1UNL     O3   15  -0.209  -0.232  -0.179
    1UNL    C13   16  -0.264  -0.118   0.102
    1UNL     O4   17  -0.224  -0.132   0.233
    1UNL    C14   18  -0.364  -0.005   0.081
    1UNL     O5   19  -0.481  -0.014   0.164
    1UNL    C15   20  -0.299   0.135   0.097
    1UNL     O6   21  -0.255   0.151   0.229
    1UNL    C16   22   0.285   0.182  -0.154
    1UNL     O7   23   0.329   0.286  -0.112
    1UNL     O8   24   0.357   0.061  -0.162
    1UNL     H1   25   0.297   0.099   0.088
    1UNL     H2   26   0.429   0.002   0.031
    1UNL     H3   27   0.380  -0.003   0.201
    1UNL     H4   28   0.295  -0.250   0.202
    1UNL     H5   29   0.157  -0.160   0.231
    1UNL     H6   30   0.139  -0.283   0.118
    1UNL     H7   31   0.184  -0.228  -0.092
    1UNL     H8   32   0.327  -0.100  -0.268
    1UNL     H9   33   0.138   0.016  -0.353
    1UNL    H10   34   0.039  -0.019  -0.215
    1UNL    H11   35   0.078   0.345  -0.120
    1UNL    H12   36  -0.116   0.153  -0.255
    1UNL    H13   37  -0.115   0.350  -0.250
    1UNL    H14   38  -0.085   0.163   0.061
    1UNL    H15   39  -0.045  -0.078   0.076
    1UNL    H16   40  -0.117  -0.318  -0.009
    1UNL    H17   41  -0.013  -0.210  -0.122
    1UNL    H18   42  -0.241  -0.141  -0.191
    1UNL    H19   43  -0.319  -0.208   0.076
    1UNL    H20   44  -0.275  -0.212   0.275
    1UNL    H21   45  -0.413  -0.012  -0.021
    1UNL    H22   46  -0.461  -0.010   0.260
    1UNL    H23   47  -0.378   0.207   0.073
    1UNL    H24   48  -0.216   0.072   0.258
   0.00000   0.00000   0.00000   0.00000   0.00000   0.00000   0.00000   0.00000   0.00000
Generated with MDTraj, t= 16.0
 48
    1UNL     C1    1   0.355   0.012   0.109
    1UNL     C2    2   0.284  -0.113   0.058
    1UNL     C3    3   0.257  -0.233   0.140
    1UNL     C4    4   0.257  -0.128  -0.069
    1UNL     C5    5   0.272  -0.029  -0.185
    1UNL     C6    6   0.137   0.036  -0.222
    1UNL     C7    7   0.155   0.180  -0.191
    1UNL     C8    8   0.054   0.267  -0.172
    1UNL     C9    9  -0.084   0.244  -0.208
    1UNL     O1   10  -0.184   0.240  -0.101
    1UNL    C10   11  -0.166   0.129  -0.018
    1UNL     O2   12  -0.165   0.003  -0.085
    1UNL    C11   13  -0.157  -0.110   0.003
    1UNL    C12   14  -0.142  -0.237  -0.077
    1UNL     O3   15  -0.258  -0.271  -0.151
    1UNL    C13   16  -0.289  -0.128   0.094
    1UNL     O4   17  -0.245  -0.151   0.226
    1UNL    C14   18  -0.370   0.008   0.082
    1UNL     O5   19  -0.476   0.005   0.177
    1UNL    C15   20  -0.281   0.140   0.091
    1UNL     O6   21  -0.243   0.166   0.223
    1UNL    C16   22   0.297   0.194  -0.149
    1UNL     O7   23   0.335   0.304  -0.111
    1UNL     O8   24   0.363   0.078  -0.156
    1UNL     H1   25   0.306   0.102   0.119
    1UNL     H2   26   0.437   0.021   0.038
    1UNL     H3   27   0.396  -0.009   0.203
    1UNL     H4   28   0.323  -0.244   0.225
    1UNL     H5   29   0.151  -0.223   0.171
    1UNL     H6   30   0.243  -0.325   0.087
    1UNL     H7   31   0.209  -0.221  -0.101
    1UNL     H8   32   0.321  -0.088  -0.265
    1UNL     H9   33   0.112   0.021  -0.327
    1UNL    H10   34   0.054  -0.016  -0.169
    1UNL    H11   35   0.093   0.368  -0.141
    1UNL    H12   36  -0.099   0.143  -0.255
    1UNL    H13   37  -0.115   0.330  -0.266
    1UNL    H14   38  -0.064   0.145   0.034
    1UNL    H15   39  -0.062  -0.110   0.054
    1UNL    H16   40  -0.129  -0.318  -0.004
    1UNL    H17   41  -0.068  -0.226  -0.160
    1UNL    H18   42  -0.297  -0.191  -0.189
    1UNL    H19   43  -0.355  -0.207   0.058
    1UNL    H20   44  -0.254  -0.251   0.250
    1UNL    H21   45  -0.413   0.016  -0.021
    1UNL    H22   46  -0.438  -0.038   0.257
    1UNL    H23   47  -0.341   0.221   0.053
    1UNL    H24   48  -0.230   0.088   0.283
   0.00000   0.00000   0.00000   0.00000   0.00000   0.00000   0.00000   0.00000   0.00000
Generated with MDTraj, t= 17.0
 48
    1UNL     C1    1   0.344   0.004   0.119
    1UNL     C2    2   0.305  -0.118   0.049
    1UNL     C3    3   0.306  -0.244   0.138
    1UNL     C4    4   0.277  -0.125  -0.080
    1UNL     C5    5   0.280  -0.015  -0.180
    1UNL     C6    6   0.134   0.028  -0.188
    1UNL     C7    7   0.145   0.173  -0.169
    1UNL     C8    8   0.046   0.263  -0.181
    1UNL     C9    9  -0.088   0.233  -0.222
    1UNL     O1   10  -0.184   0.224  -0.119
    1UNL    C10   11  -0.164   0.116  -0.034
    1UNL     O2   12  -0.177  -0.004  -0.097
    1UNL    C11   13  -0.176  -0.113  -0.007
    1UNL    C12   14  -0.162  -0.247  -0.078
    1UNL     O3   15  -0.276  -0.269  -0.154
    1UNL    C13   16  -0.304  -0.116   0.087
    1UNL     O4   17  -0.264  -0.136   0.219
    1UNL    C14   18  -0.375   0.024   0.082
    1UNL     O5   19  -0.455   0.036   0.204
    1UNL    C15   20  -0.267   0.137   0.087
    1UNL     O6   21  -0.203   0.125   0.211
    1UNL    C16   22   0.285   0.204  -0.135
    1UNL     O7   23   0.321   0.317  -0.106
    1UNL     O8   24   0.363   0.096  -0.141
    1UNL     H1   25   0.271   0.070   0.146
    1UNL     H2   26   0.415   0.062   0.060
    1UNL     H3   27   0.391  -0.016   0.207
    1UNL     H4   28   0.320  -0.222   0.246
    1UNL     H5   29   0.214  -0.297   0.110
    1UNL     H6   30   0.377  -0.315   0.106
    1UNL     H7   31   0.242  -0.214  -0.125
    1UNL     H8   32   0.309  -0.047  -0.280
    1UNL     H9   33   0.073  -0.008  -0.273
    1UNL    H10   34   0.077  -0.013  -0.102
    1UNL    H11   35   0.077   0.356  -0.144
    1UNL    H12   36  -0.087   0.136  -0.275
    1UNL    H13   37  -0.128   0.306  -0.286
    1UNL    H14   38  -0.062   0.129   0.018
    1UNL    H15   39  -0.091  -0.100   0.054
    1UNL    H16   40  -0.152  -0.338  -0.013
    1UNL    H17   41  -0.087  -0.225  -0.160
    1UNL    H18   42  -0.298  -0.186  -0.203
    1UNL    H19   43  -0.375  -0.199   0.067
    1UNL    H20   44  -0.333  -0.160   0.277
    1UNL    H21   45  -0.437   0.029  -0.008
    1UNL    H22   46  -0.480   0.130   0.221
    1UNL    H23   47  -0.320   0.229   0.078
    1UNL    H24   48  -0.190   0.026   0.239
   0.00000   0.00000   0.00000   0.00000   0.00000   0.00000   0.00000   0.00000   0.00000
Generated with MDTraj, t= 18.0
 48
    1UNL     C1    1   0.319   0.002   0.129
    1UNL     C2    2   0.317  -0.129   0.050
    1UNL     C3    3   0.362  -0.247   0.127
    1UNL     C4    4   0.307  -0.141  -0.081
    1UNL     C5    5   0.290  -0.026  -0.167
    1UNL     C6    6   0.142   0.014  -0.188
    1UNL     C7    7   0.139   0.163  -0.181
    1UNL     C8    8   0.038   0.250  -0.207
    1UNL     C9    9  -0.105   0.220  -0.237
    1UNL     O1   10  -0.186   0.228  -0.124
    1UNL    C10   11  -0.164   0.115  -0.041
    1UNL     O2   12  -0.173  -0.015  -0.096
    1UNL    C11   13  -0.184  -0.115  -0.002
    1UNL    C12   14  -0.171  -0.249  -0.080
    1UNL     O3   15  -0.275  -0.235  -0.179
    1UNL    C13   16  -0.315  -0.099   0.085
    1UNL     O4   17  -0.290  -0.145   0.214
    1UNL    C14   18  -0.368   0.040   0.095
    1UNL     O5   19  -0.443   0.052   0.219
    1UNL    C15   20  -0.251   0.137   0.093
    1UNL     O6   21  -0.169   0.117   0.202
    1UNL    C16   22   0.263   0.208  -0.126
    1UNL     O7   23   0.273   0.329  -0.095
    1UNL     O8   24   0.351   0.096  -0.109
    1UNL     H1   25   0.242   0.057   0.086
    1UNL     H2   26   0.410   0.057   0.117
    1UNL     H3   27   0.297  -0.014   0.229
    1UNL     H4   28   0.331  -0.238   0.236
    1UNL     H5   29   0.345  -0.343   0.079
    1UNL     H6   30   0.468  -0.242   0.132
    1UNL     H7   31   0.325  -0.238  -0.130
    1UNL     H8   32   0.329  -0.029  -0.265
    1UNL     H9   33   0.094  -0.027  -0.281
    1UNL    H10   34   0.079  -0.025  -0.108
    1UNL    H11   35   0.066   0.349  -0.162
    1UNL    H12   36  -0.121   0.124  -0.287
    1UNL    H13   37  -0.138   0.292  -0.307
    1UNL    H14   38  -0.062   0.135   0.004
    1UNL    H15   39  -0.103  -0.098   0.061
    1UNL    H16   40  -0.211  -0.327  -0.012
    1UNL    H17   41  -0.074  -0.261  -0.134
    1UNL    H18   42  -0.263  -0.143  -0.218
    1UNL    H19   43  -0.396  -0.164   0.044
    1UNL    H20   44  -0.355  -0.112   0.287
    1UNL    H21   45  -0.427   0.062   0.009
    1UNL    H22   46  -0.440   0.143   0.255
    1UNL    H23   47  -0.302   0.232   0.095
    1UNL    H24   48  -0.185   0.027   0.228
   0.00000   0.00000   0.00000   0.00000   0.00000   0.00000   0.00000   0.00000   0.00000
Generated with MDTraj, t= 19.0
 48
    1UNL     C1    1   0.282  -0.009   0.133
    1UNL     C2    2   0.322  -0.133   0.054
    1UNL     C3    3   0.383  -0.249   0.122
    1UNL     C4    4   0.326  -0.126  -0.076
    1UNL     C5    5   0.293  -0.014  -0.161
    1UNL     C6    6   0.138   0.012  -0.184
    1UNL     C7    7   0.128   0.157  -0.191
    1UNL     C8    8   0.030   0.249  -0.215
    1UNL     C9    9  -0.114   0.199  -0.240
    1UNL     O1   10  -0.192   0.214  -0.122
    1UNL    C10   11  -0.156   0.116  -0.032
    1UNL     O2   12  -0.158  -0.016  -0.089
    1UNL    C11   13  -0.184  -0.117   0.003
    1UNL    C12   14  -0.191  -0.246  -0.079
    1UNL     O3   15  -0.276  -0.228  -0.191
    1UNL    C13   16  -0.317  -0.102   0.072
    1UNL     O4   17  -0.311  -0.153   0.207
    1UNL    C14   18  -0.362   0.050   0.097
    1UNL     O5   19  -0.445   0.067   0.216
    1UNL    C15   20  -0.230   0.141   0.107
    1UNL     O6   21  -0.138   0.124   0.208
    1UNL    C16   22   0.255   0.206  -0.130
    1UNL     O7   23   0.270   0.318  -0.083
    1UNL     O8   24   0.353   0.113  -0.118
    1UNL     H1   25   0.176  -0.018   0.139
    1UNL     H2   26   0.300   0.077   0.085
    1UNL     H3   27   0.328  -0.001   0.228
    1UNL     H4   28   0.331  -0.270   0.219
    1UNL     H5   29   0.404  -0.336   0.064
    1UNL     H6   30   0.481  -0.215   0.154
    1UNL     H7   31   0.367  -0.208  -0.127
    1UNL     H8   32   0.341  -0.021  -0.252
    1UNL     H9   33   0.108  -0.033  -0.284
    1UNL    H10   34   0.086  -0.042  -0.106
    1UNL    H11   35   0.065   0.347  -0.199
    1UNL    H12   36  -0.107   0.098  -0.279
    1UNL    H13   37  -0.154   0.255  -0.322
    1UNL    H14   38  -0.049   0.135   0.001
    1UNL    H15   39  -0.103  -0.113   0.069
    1UNL    H16   40  -0.235  -0.327  -0.019
    1UNL    H17   41  -0.094  -0.257  -0.128
    1UNL    H18   42  -0.247  -0.144  -0.229
    1UNL    H19   43  -0.393  -0.149   0.003
    1UNL    H20   44  -0.393  -0.129   0.252
    1UNL    H21   45  -0.414   0.081   0.011
    1UNL    H22   46  -0.463   0.160   0.234
    1UNL    H23   47  -0.255   0.247   0.113
    1UNL    H24   48  -0.158   0.053   0.274
   0.00000   0.00000   0.00000   0.00000   0.00000   0.00000   0.00000   0.00000   0.00000
Generated with MDTraj, t= 20.0
 48
    1UNL     C1    1   0.254  -0.008   0.121
    1UNL     C2    2   0.311  -0.122   0.050
    1UNL     C3    3   0.355  -0.248   0.120
    1UNL     C4    4   0.325  -0.126  -0.081
    1UNL     C5    5   0.299  -0.011  -0.171
    1UNL     C6    6   0.144   0.028  -0.183
    1UNL     C7    7   0.146   0.178  -0.187
    1UNL     C8    8   0.034   0.255  -0.201
    1UNL     C9    9  -0.109   0.204  -0.233
    1UNL     O1   10  -0.190   0.209  -0.119
    1UNL    C10   11  -0.146   0.114  -0.031
    1UNL     O2   12  -0.148  -0.024  -0.086
    1UNL    C11   13  -0.188  -0.116   0.011
    1UNL    C12   14  -0.184  -0.253  -0.064
    1UNL     O3   15  -0.276  -0.248  -0.167
    1UNL    C13   16  -0.332  -0.095   0.077
    1UNL     O4   17  -0.318  -0.149   0.208
    1UNL    C14   18  -0.371   0.053   0.094
    1UNL     O5   19  -0.451   0.070   0.206
    1UNL    C15   20  -0.224   0.133   0.104
    1UNL     O6   21  -0.163   0.079   0.211
    1UNL    C16   22   0.276   0.222  -0.137
    1UNL     O7   23   0.306   0.337  -0.102
    1UNL     O8   24   0.362   0.113  -0.132
    1UNL     H1   25   0.151  -0.009   0.132
    1UNL     H2   26   0.273   0.091   0.079
    1UNL     H3   27   0.302   0.003   0.213
    1UNL     H4   28   0.294  -0.266   0.207
    1UNL     H5   29   0.344  -0.336   0.058
    1UNL     H6   30   0.462  -0.239   0.148
    1UNL     H7   31   0.373  -0.215  -0.124
    1UNL     H8   32   0.329  -0.038  -0.265
    1UNL     H9   33   0.103  -0.028  -0.272
    1UNL    H10   34   0.089  -0.011  -0.099
    1UNL    H11   35   0.059   0.363  -0.195
    1UNL    H12   36  -0.104   0.104  -0.278
    1UNL    H13   37  -0.150   0.267  -0.313
    1UNL    H14   38  -0.038   0.131  -0.011
    1UNL    H15   39  -0.116  -0.119   0.087
    1UNL    H16   40  -0.226  -0.333  -0.004
    1UNL    H17   41  -0.088  -0.266  -0.112
    1UNL    H18   42  -0.260  -0.160  -0.212
    1UNL    H19   43  -0.410  -0.154   0.025
    1UNL    H20   44  -0.401  -0.124   0.259
    1UNL    H21   45  -0.432   0.080   0.013
    1UNL    H22   46  -0.417   0.141   0.264
    1UNL    H23   47  -0.244   0.240   0.117
    1UNL    H24   48  -0.210  -0.004   0.252
   0.00000   0.00000   0.00000   0.00000   0.00000   0.00000   0.00000   0.00000   0.00000
Generated with MDTraj, t= 21.0
 48
    1UNL     C1    1   0.254   0.013   0.104
    1UNL     C2    2   0.294  -0.114   0.041
    1UNL     C3    3   0.300  -0.242   0.124
    1UNL     C4    4   0.315  -0.122  -0.090
    1UNL     C5    5   0.311  -0.003  -0.182
    1UNL     C6    6   0.165   0.036  -0.221
    1UNL     C7    7   0.162   0.181  -0.199
    1UNL     C8    8   0.052   0.262  -0.189
    1UNL     C9    9  -0.091   0.230  -0.210
    1UNL     O1   10  -0.167   0.216  -0.093
    1UNL    C10   11  -0.143   0.107  -0.011
    1UNL     O2   12  -0.162  -0.021  -0.080
    1UNL    C11   13  -0.189  -0.127   0.014
    1UNL    C12   14  -0.175  -0.266  -0.053
    1UNL     O3   15  -0.265  -0.269  -0.159
    1UNL    C13   16  -0.331  -0.110   0.080
    1UNL     O4   17  -0.324  -0.161   0.212
    1UNL    C14   18  -0.379   0.035   0.091
    1UNL     O5   19  -0.456   0.070   0.201
    1UNL    C15   20  -0.241   0.121   0.110
    1UNL     O6   21  -0.189   0.088   0.228
    1UNL    C16   22   0.293   0.219  -0.149
    1UNL     O7   23   0.320   0.337  -0.139
    1UNL     O8   24   0.375   0.111  -0.128
    1UNL     H1   25   0.174   0.061   0.056
    1UNL     H2   26   0.340   0.086   0.090
    1UNL     H3   27   0.252  -0.004   0.206
    1UNL     H4   28   0.254  -0.224   0.218
    1UNL     H5   29   0.226  -0.310   0.086
    1UNL     H6   30   0.405  -0.281   0.141
    1UNL     H7   31   0.333  -0.217  -0.133
    1UNL     H8   32   0.363  -0.022  -0.268
    1UNL     H9   33   0.133   0.008  -0.324
    1UNL    H10   34   0.091  -0.008  -0.151
    1UNL    H11   35   0.072   0.359  -0.153
    1UNL    H12   36  -0.108   0.145  -0.278
    1UNL    H13   37  -0.141   0.311  -0.267
    1UNL    H14   38  -0.040   0.105   0.027
    1UNL    H15   39  -0.116  -0.126   0.092
    1UNL    H16   40  -0.205  -0.349   0.012
    1UNL    H17   41  -0.078  -0.279  -0.098
    1UNL    H18   42  -0.267  -0.178  -0.194
    1UNL    H19   43  -0.403  -0.171   0.026
    1UNL    H20   44  -0.398  -0.114   0.262
    1UNL    H21   45  -0.424   0.069  -0.000
    1UNL    H22   46  -0.500   0.155   0.175
    1UNL    H23   47  -0.270   0.230   0.114
    1UNL    H24   48  -0.199  -0.002   0.259
   0.00000   0.00000   0.00000   0.00000   0.00000   0.00000   0.00000   0.00000   0.00000
Generated with MDTraj, t= 22.0
 48
    1UNL     C1    1   0.277   0.042   0.105
    1UNL     C2    2   0.269  -0.098   0.038
    1UNL     C3    3   0.237  -0.210   0.124
    1UNL     C4    4   0.297  -0.116  -0.094
    1UNL     C5    5   0.310  -0.015  -0.205
    1UNL     C6    6   0.175   0.032  -0.247
    1UNL     C7    7   0.167   0.168  -0.191
    1UNL     C8    8   0.058   0.252  -0.173
    1UNL     C9    9  -0.077   0.213  -0.196
    1UNL     O1   10  -0.175   0.222  -0.096
    1UNL    C10   11  -0.166   0.115  -0.005
    1UNL     O2   12  -0.160  -0.017  -0.063
    1UNL    C11   13  -0.177  -0.127   0.027
    1UNL    C12   14  -0.152  -0.248  -0.056
    1UNL     O3   15  -0.253  -0.248  -0.156
    1UNL    C13   16  -0.318  -0.119   0.083
    1UNL     O4   17  -0.307  -0.176   0.220
    1UNL    C14   18  -0.377   0.029   0.086
    1UNL     O5   19  -0.480   0.047   0.179
    1UNL    C15   20  -0.260   0.127   0.118
    1UNL     O6   21  -0.203   0.102   0.242
    1UNL    C16   22   0.307   0.209  -0.155
    1UNL     O7   23   0.344   0.319  -0.123
    1UNL     O8   24   0.387   0.100  -0.163
    1UNL     H1   25   0.196   0.103   0.072
    1UNL     H2   26   0.364   0.094   0.063
    1UNL     H3   27   0.296   0.024   0.209
    1UNL     H4   28   0.228  -0.177   0.225
    1UNL     H5   29   0.134  -0.241   0.108
    1UNL     H6   30   0.320  -0.287   0.120
    1UNL     H7   31   0.284  -0.217  -0.133
    1UNL     H8   32   0.375  -0.055  -0.275
    1UNL     H9   33   0.154   0.045  -0.354
    1UNL    H10   34   0.094  -0.031  -0.201
    1UNL    H11   35   0.079   0.351  -0.128
    1UNL    H12   36  -0.087   0.108  -0.229
    1UNL    H13   37  -0.119   0.266  -0.285
    1UNL    H14   38  -0.069   0.126   0.046
    1UNL    H15   39  -0.100  -0.121   0.103
    1UNL    H16   40  -0.151  -0.345  -0.004
    1UNL    H17   41  -0.054  -0.235  -0.103
    1UNL    H18   42  -0.270  -0.156  -0.187
    1UNL    H19   43  -0.381  -0.180   0.018
    1UNL    H20   44  -0.395  -0.202   0.242
    1UNL    H21   45  -0.420   0.049  -0.014
    1UNL    H22   46  -0.457   0.024   0.274
    1UNL    H23   47  -0.303   0.231   0.124
    1UNL    H24   48  -0.224   0.005   0.272
   0.00000   0.00000   0.00000   0.00000   0.00000   0.00000   0.00000   0.00000   0.00000
Generated with MDTraj, t= 23.0
 48
    1UNL     C1    1   0.307   0.044   0.087
    1UNL     C2    2   0.250  -0.080   0.039
    1UNL     C3    3   0.213  -0.187   0.137
    1UNL     C4    4   0.255  -0.124  -0.091
    1UNL     C5    5   0.286  -0.030  -0.210
    1UNL     C6    6   0.160   0.040  -0.261
    1UNL     C7    7   0.162   0.171  -0.195
    1UNL     C8    8   0.053   0.253  -0.169
    1UNL     C9    9  -0.086   0.222  -0.193
    1UNL     O1   10  -0.159   0.232  -0.075
    1UNL    C10   11  -0.152   0.117   0.012
    1UNL     O2   12  -0.144  -0.006  -0.061
    1UNL    C11   13  -0.160  -0.124   0.020
    1UNL    C12   14  -0.135  -0.249  -0.061
    1UNL     O3   15  -0.213  -0.250  -0.187
    1UNL    C13   16  -0.301  -0.121   0.086
    1UNL     O4   17  -0.280  -0.155   0.227
    1UNL    C14   18  -0.379   0.014   0.081
    1UNL     O5   19  -0.481   0.015   0.178
    1UNL    C15   20  -0.279   0.132   0.112
    1UNL     O6   21  -0.231   0.125   0.244
    1UNL    C16   22   0.302   0.192  -0.152
    1UNL     O7   23   0.337   0.296  -0.101
    1UNL     O8   24   0.381   0.070  -0.172
    1UNL     H1   25   0.255   0.130   0.042
    1UNL     H2   26   0.406   0.061   0.060
    1UNL     H3   27   0.309   0.049   0.201
    1UNL     H4   28   0.231  -0.163   0.241
    1UNL     H5   29   0.109  -0.217   0.138
    1UNL     H6   30   0.284  -0.268   0.115
    1UNL     H7   31   0.222  -0.225  -0.114
    1UNL     H8   32   0.334  -0.092  -0.281
    1UNL     H9   33   0.172   0.055  -0.367
    1UNL    H10   34   0.060  -0.011  -0.246
    1UNL    H11   35   0.066   0.340  -0.108
    1UNL    H12   36  -0.097   0.118  -0.227
    1UNL    H13   37  -0.137   0.286  -0.269
    1UNL    H14   38  -0.063   0.138   0.070
    1UNL    H15   39  -0.090  -0.112   0.103
    1UNL    H16   40  -0.170  -0.335   0.003
    1UNL    H17   41  -0.030  -0.278  -0.084
    1UNL    H18   42  -0.232  -0.159  -0.218
    1UNL    H19   43  -0.367  -0.197   0.043
    1UNL    H20   44  -0.363  -0.195   0.276
    1UNL    H21   45  -0.428   0.013  -0.020
    1UNL    H22   46  -0.483   0.095   0.234
    1UNL    H23   47  -0.319   0.234   0.088
    1UNL    H24   48  -0.228   0.031   0.257
   0.00000   0.00000   0.00000   0.00000   0.00000   0.00000   0.00000   0.00000   0.00000
Generated with MDTraj, t= 24.0
 48
    1UNL     C1    1   0.317   0.015   0.094
    1UNL     C2    2   0.256  -0.109   0.053
    1UNL     C3    3   0.212  -0.208   0.156
    1UNL     C4    4   0.233  -0.135  -0.079
    1UNL     C5    5   0.267  -0.036  -0.194
    1UNL     C6    6   0.129   0.024  -0.237
    1UNL     C7    7   0.144   0.162  -0.177
    1UNL     C8    8   0.054   0.265  -0.165
    1UNL     C9    9  -0.092   0.251  -0.196
    1UNL     O1   10  -0.181   0.255  -0.082
    1UNL    C10   11  -0.156   0.142  -0.004
    1UNL     O2   12  -0.133   0.023  -0.073
    1UNL    C11   13  -0.141  -0.100   0.016
    1UNL    C12   14  -0.109  -0.222  -0.063
    1UNL     O3   15  -0.189  -0.228  -0.176
    1UNL    C13   16  -0.280  -0.120   0.088
    1UNL     O4   17  -0.268  -0.153   0.227
    1UNL    C14   18  -0.375  -0.001   0.077
    1UNL     O5   19  -0.480  -0.027   0.177
    1UNL    C15   20  -0.282   0.128   0.097
    1UNL     O6   21  -0.221   0.121   0.227
    1UNL    C16   22   0.290   0.187  -0.158
    1UNL     O7   23   0.347   0.292  -0.137
    1UNL     O8   24   0.358   0.066  -0.162
    1UNL     H1   25   0.235   0.083   0.128
    1UNL     H2   26   0.379   0.071   0.030
    1UNL     H3   27   0.384  -0.006   0.184
    1UNL     H4   28   0.186  -0.170   0.257
    1UNL     H5   29   0.128  -0.270   0.125
    1UNL     H6   30   0.300  -0.267   0.164
    1UNL     H7   31   0.197  -0.230  -0.110
    1UNL     H8   32   0.306  -0.108  -0.267
    1UNL     H9   33   0.120   0.030  -0.345
    1UNL    H10   34   0.043  -0.036  -0.199
    1UNL    H11   35   0.094   0.361  -0.132
    1UNL    H12   36  -0.108   0.157  -0.250
    1UNL    H13   37  -0.118   0.335  -0.262
    1UNL    H14   38  -0.071   0.156   0.060
    1UNL    H15   39  -0.058  -0.090   0.091
    1UNL    H16   40  -0.108  -0.317  -0.001
    1UNL    H17   41  -0.003  -0.218  -0.096
    1UNL    H18   42  -0.223  -0.140  -0.204
    1UNL    H19   43  -0.338  -0.204   0.047
    1UNL    H20   44  -0.350  -0.153   0.275
    1UNL    H21   45  -0.425   0.009  -0.026
    1UNL    H22   46  -0.541   0.048   0.179
    1UNL    H23   47  -0.335   0.224   0.101
    1UNL    H24   48  -0.246   0.029   0.266
   0.00000   0.00000   0.00000   0.00000   0.00000   0.00000   0.00000   0.00000   0.00000
Generated with MDTraj, t= 25.0
 48
    1UNL     C1    1   0.295   0.003   0.112
    1UNL     C2    2   0.260  -0.135   0.059
    1UNL     C3    3   0.253  -0.248   0.157
    1UNL     C4    4   0.238  -0.156  -0.075
    1UNL     C5    5   0.241  -0.040  -0.172
    1UNL     C6    6   0.111   0.031  -0.180
    1UNL     C7    7   0.132   0.170  -0.172
    1UNL     C8    8   0.038   0.267  -0.196
    1UNL     C9    9  -0.112   0.248  -0.215
    1UNL     O1   10  -0.173   0.264  -0.082
    1UNL    C10   11  -0.157   0.148   0.001
    1UNL     O2   12  -0.135   0.027  -0.078
    1UNL    C11   13  -0.129  -0.093   0.004
    1UNL    C12   14  -0.094  -0.211  -0.085
    1UNL     O3   15  -0.178  -0.239  -0.185
    1UNL    C13   16  -0.272  -0.117   0.078
    1UNL     O4   17  -0.248  -0.155   0.210
    1UNL    C14   18  -0.359   0.005   0.076
    1UNL     O5   19  -0.463  -0.008   0.172
    1UNL    C15   20  -0.274   0.133   0.100
    1UNL     O6   21  -0.227   0.142   0.234
    1UNL    C16   22   0.279   0.187  -0.154
    1UNL     O7   23   0.326   0.300  -0.145
    1UNL     O8   24   0.338   0.064  -0.150
    1UNL     H1   25   0.215   0.072   0.078
    1UNL     H2   26   0.395   0.028   0.064
    1UNL     H3   27   0.302  -0.007   0.221
    1UNL     H4   28   0.181  -0.231   0.242
    1UNL     H5   29   0.220  -0.344   0.113
    1UNL     H6   30   0.348  -0.254   0.202
    1UNL     H7   31   0.223  -0.260  -0.109
    1UNL     H8   32   0.268  -0.085  -0.273
    1UNL     H9   33   0.060   0.007  -0.277
    1UNL    H10   34   0.054   0.010  -0.089
    1UNL    H11   35   0.080   0.364  -0.172
    1UNL    H12   36  -0.146   0.155  -0.259
    1UNL    H13   37  -0.147   0.332  -0.276
    1UNL    H14   38  -0.059   0.147   0.039
    1UNL    H15   39  -0.043  -0.087   0.079
    1UNL    H16   40  -0.075  -0.300  -0.018
    1UNL    H17   41   0.009  -0.199  -0.123
    1UNL    H18   42  -0.214  -0.156  -0.228
    1UNL    H19   43  -0.323  -0.204   0.029
    1UNL    H20   44  -0.331  -0.185   0.260
    1UNL    H21   45  -0.409   0.016  -0.030
    1UNL    H22   46  -0.502   0.080   0.196
    1UNL    H23   47  -0.338   0.218   0.083
    1UNL    H24   48  -0.214   0.052   0.263
   0.00000   0.00000   0.00000   0.00000   0.00000   0.00000   0.00000   0.00000   0.00000
Generated with MDTraj, t= 26.0
 48
    1UNL     C1    1   0.250  -0.014   0.136
    1UNL     C2    2   0.270  -0.141   0.065
    1UNL     C3    3   0.310  -0.262   0.142
    1UNL     C4    4   0.270  -0.147  -0.075
    1UNL     C5    5   0.265  -0.032  -0.173
    1UNL     C6    6   0.124   0.025  -0.208
    1UNL     C7    7   0.136   0.173  -0.177
    1UNL     C8    8   0.047   0.276  -0.201
    1UNL     C9    9  -0.098   0.245  -0.214
    1UNL     O1   10  -0.182   0.248  -0.099
    1UNL    C10   11  -0.163   0.135  -0.017
    1UNL     O2   12  -0.165   0.004  -0.080
    1UNL    C11   13  -0.153  -0.103   0.009
    1UNL    C12   14  -0.122  -0.228  -0.081
    1UNL     O3   15  -0.198  -0.231  -0.197
    1UNL    C13   16  -0.289  -0.117   0.091
    1UNL     O4   17  -0.248  -0.156   0.224
    1UNL    C14   18  -0.370   0.015   0.082
    1UNL     O5   19  -0.464   0.027   0.185
    1UNL    C15   20  -0.276   0.138   0.096
    1UNL     O6   21  -0.207   0.134   0.227
    1UNL    C16   22   0.275   0.199  -0.150
    1UNL     O7   23   0.321   0.312  -0.134
    1UNL     O8   24   0.352   0.082  -0.137
    1UNL     H1   25   0.146   0.024   0.130
    1UNL     H2   26   0.332   0.047   0.075
    1UNL     H3   27   0.281  -0.027   0.238
    1UNL     H4   28   0.222  -0.292   0.202
    1UNL     H5   29   0.330  -0.349   0.077
    1UNL     H6   30   0.389  -0.238   0.210
    1UNL     H7   31   0.286  -0.240  -0.122
    1UNL     H8   32   0.315  -0.061  -0.274
    1UNL     H9   33   0.098   0.014  -0.317
    1UNL    H10   34   0.045  -0.009  -0.144
    1UNL    H11   35   0.083   0.378  -0.193
    1UNL    H12   36  -0.121   0.152  -0.263
    1UNL    H13   37  -0.141   0.326  -0.274
    1UNL    H14   38  -0.064   0.133   0.018
    1UNL    H15   39  -0.071  -0.080   0.087
    1UNL    H16   40  -0.117  -0.320  -0.019
    1UNL    H17   41  -0.015  -0.213  -0.101
    1UNL    H18   42  -0.214  -0.140  -0.228
    1UNL    H19   43  -0.364  -0.194   0.053
    1UNL    H20   44  -0.332  -0.152   0.279
    1UNL    H21   45  -0.416   0.014  -0.025
    1UNL    H22   46  -0.472   0.121   0.219
    1UNL    H23   47  -0.323   0.235   0.097
    1UNL    H24   48  -0.198   0.040   0.253
   0.00000   0.00000   0.00000   0.00000   0.00000   0.00000   0.00000   0.00000   0.00000
Generated with MDTraj, t= 27.0
 48
    1UNL     C1    1   0.242  -0.010   0.098
    1UNL     C2    2   0.287  -0.133   0.038
    1UNL     C3    3   0.295  -0.253   0.127
    1UNL     C4    4   0.323  -0.133  -0.094
    1UNL     C5    5   0.304  -0.015  -0.180
    1UNL     C6    6   0.154   0.020  -0.201
    1UNL     C7    7   0.144   0.167  -0.165
    1UNL     C8    8   0.039   0.253  -0.189
    1UNL     C9    9  -0.095   0.222  -0.233
    1UNL     O1   10  -0.188   0.234  -0.126
    1UNL    C10   11  -0.156   0.133  -0.023
    1UNL     O2   12  -0.153  -0.000  -0.074
    1UNL    C11   13  -0.165  -0.111   0.010
    1UNL    C12   14  -0.152  -0.246  -0.070
    1UNL     O3   15  -0.250  -0.232  -0.168
    1UNL    C13   16  -0.305  -0.112   0.081
    1UNL     O4   17  -0.279  -0.160   0.221
    1UNL    C14   18  -0.375   0.027   0.089
    1UNL     O5   19  -0.456   0.046   0.211
    1UNL    C15   20  -0.262   0.134   0.093
    1UNL     O6   21  -0.197   0.117   0.221
    1UNL    C16   22   0.281   0.207  -0.129
    1UNL     O7   23   0.309   0.322  -0.098
    1UNL     O8   24   0.370   0.101  -0.132
    1UNL     H1   25   0.135   0.023   0.097
    1UNL     H2   26   0.311   0.072   0.056
    1UNL     H3   27   0.264  -0.005   0.206
    1UNL     H4   28   0.196  -0.292   0.145
    1UNL     H5   29   0.346  -0.340   0.081
    1UNL     H6   30   0.337  -0.231   0.226
    1UNL     H7   31   0.350  -0.222  -0.155
    1UNL     H8   32   0.356  -0.046  -0.283
    1UNL     H9   33   0.124   0.011  -0.308
    1UNL    H10   34   0.096  -0.052  -0.145
    1UNL    H11   35   0.064   0.358  -0.178
    1UNL    H12   36  -0.100   0.118  -0.257
    1UNL    H13   37  -0.132   0.283  -0.317
    1UNL    H14   38  -0.059   0.142   0.016
    1UNL    H15   39  -0.084  -0.105   0.092
    1UNL    H16   40  -0.168  -0.327   0.003
    1UNL    H17   41  -0.052  -0.267  -0.106
    1UNL    H18   42  -0.232  -0.147  -0.217
    1UNL    H19   43  -0.367  -0.189   0.026
    1UNL    H20   44  -0.349  -0.124   0.279
    1UNL    H21   45  -0.432   0.050  -0.008
    1UNL    H22   46  -0.513   0.127   0.205
    1UNL    H23   47  -0.313   0.230   0.099
    1UNL    H24   48  -0.255   0.056   0.270
   0.00000   0.00000   0.00000   0.00000   0.00000   0.00000   0.00000   0.00000   0.00000
Generated with MDTraj, t= 28.0
 48
    1UNL     C1    1   0.265   0.002   0.109
    1UNL     C2    2   0.288  -0.121   0.031
    1UNL     C3    3   0.293  -0.247   0.106
    1UNL     C4    4   0.309  -0.124  -0.103
    1UNL     C5    5   0.315  -0.001  -0.192
    1UNL     C6    6   0.174   0.045  -0.248
    1UNL     C7    7   0.159   0.177  -0.187
    1UNL     C8    8   0.046   0.249  -0.201
    1UNL     C9    9  -0.090   0.206  -0.228
    1UNL     O1   10  -0.175   0.214  -0.115
    1UNL    C10   11  -0.145   0.109  -0.025
    1UNL     O2   12  -0.156  -0.016  -0.085
    1UNL    C11   13  -0.186  -0.120   0.009
    1UNL    C12   14  -0.184  -0.264  -0.049
    1UNL     O3   15  -0.270  -0.281  -0.151
    1UNL    C13   16  -0.318  -0.098   0.085
    1UNL     O4   17  -0.312  -0.164   0.217
    1UNL    C14   18  -0.369   0.042   0.089
    1UNL     O5   19  -0.458   0.068   0.201
    1UNL    C15   20  -0.243   0.136   0.101
    1UNL     O6   21  -0.168   0.116   0.222
    1UNL    C16   22   0.286   0.219  -0.116
    1UNL     O7   23   0.296   0.326  -0.056
    1UNL     O8   24   0.369   0.116  -0.122
    1UNL     H1   25   0.189   0.073   0.061
    1UNL     H2   26   0.362   0.052   0.124
    1UNL     H3   27   0.210  -0.021   0.212
    1UNL     H4   28   0.219  -0.320   0.087
    1UNL     H5   29   0.387  -0.298   0.083
    1UNL     H6   30   0.290  -0.230   0.218
    1UNL     H7   31   0.312  -0.220  -0.148
    1UNL     H8   32   0.389  -0.037  -0.278
    1UNL     H9   33   0.176   0.036  -0.358
    1UNL    H10   34   0.095  -0.025  -0.218
    1UNL    H11   35   0.061   0.350  -0.169
    1UNL    H12   36  -0.102   0.106  -0.265
    1UNL    H13   37  -0.135   0.275  -0.302
    1UNL    H14   38  -0.042   0.123  -0.002
    1UNL    H15   39  -0.105  -0.101   0.090
    1UNL    H16   40  -0.204  -0.344   0.024
    1UNL    H17   41  -0.086  -0.292  -0.085
    1UNL    H18   42  -0.274  -0.206  -0.213
    1UNL    H19   43  -0.392  -0.162   0.028
    1UNL    H20   44  -0.374  -0.111   0.277
    1UNL    H21   45  -0.422   0.066  -0.006
    1UNL    H22   46  -0.502   0.155   0.194
    1UNL    H23   47  -0.270   0.242   0.088
    1UNL    H24   48  -0.229   0.101   0.291
   0.00000   0.00000   0.00000   0.00000   0.00000   0.00000   0.00000   0.00000   0.00000
Generated with MDTraj, t= 29.0
 48
    1UNL     C1    1   0.290   0.008   0.118
    1UNL     C2    2   0.291  -0.117   0.029
    1UNL     C3    3   0.267  -0.258   0.088
    1UNL     C4    4   0.312  -0.104  -0.104
    1UNL     C5    5   0.321   0.015  -0.188
    1UNL     C6    6   0.184   0.061  -0.244
    1UNL     C7    7   0.158   0.189  -0.176
    1UNL     C8    8   0.044   0.264  -0.176
    1UNL     C9    9  -0.079   0.211  -0.238
    1UNL     O1   10  -0.184   0.198  -0.136
    1UNL    C10   11  -0.157   0.087  -0.044
    1UNL     O2   12  -0.174  -0.043  -0.086
    1UNL    C11   13  -0.196  -0.127   0.031
    1UNL    C12   14  -0.184  -0.271  -0.029
    1UNL     O3   15  -0.269  -0.285  -0.138
    1UNL    C13   16  -0.338  -0.095   0.089
    1UNL     O4   17  -0.348  -0.157   0.222
    1UNL    C14   18  -0.367   0.052   0.092
    1UNL     O5   19  -0.448   0.086   0.203
    1UNL    C15   20  -0.230   0.128   0.094
    1UNL     O6   21  -0.147   0.084   0.200
    1UNL    C16   22   0.287   0.221  -0.117
    1UNL     O7   23   0.308   0.326  -0.061
    1UNL     O8   24   0.382   0.125  -0.127
    1UNL     H1   25   0.175   0.029   0.127
    1UNL     H2   26   0.351   0.084   0.070
    1UNL     H3   27   0.326  -0.020   0.226
    1UNL     H4   28   0.244  -0.342   0.025
    1UNL     H5   29   0.362  -0.276   0.140
    1UNL     H6   30   0.194  -0.246   0.174
    1UNL     H7   31   0.300  -0.198  -0.161
    1UNL     H8   32   0.391   0.001  -0.283
    1UNL     H9   33   0.188   0.067  -0.354
    1UNL    H10   34   0.100  -0.009  -0.225
    1UNL    H11   35   0.038   0.361  -0.124
    1UNL    H12   36  -0.066   0.120  -0.296
    1UNL    H13   37  -0.123   0.286  -0.311
    1UNL    H14   38  -0.051   0.099  -0.019
    1UNL    H15   39  -0.119  -0.092   0.108
    1UNL    H16   40  -0.214  -0.348   0.042
    1UNL    H17   41  -0.086  -0.304  -0.064
    1UNL    H18   42  -0.271  -0.208  -0.201
    1UNL    H19   43  -0.413  -0.148   0.029
    1UNL    H20   44  -0.431  -0.126   0.256
    1UNL    H21   45  -0.432   0.078   0.009
    1UNL    H22   46  -0.422   0.167   0.248
    1UNL    H23   47  -0.232   0.239   0.108
    1UNL    H24   48  -0.211   0.051   0.275
   0.00000   0.00000   0.00000   0.00000   0.00000   0.00000   0.00000   0.00000   0.00000
Generated with MDTraj, t= 30.0
 48
    1UNL     C1    1   0.292   0.005   0.110
    1UNL     C2    2   0.300  -0.116   0.026
    1UNL     C3    3   0.257  -0.247   0.080
    1UNL     C4    4   0.326  -0.118  -0.105
    1UNL     C5    5   0.323   0.005  -0.190
    1UNL     C6    6   0.178   0.050  -0.233
    1UNL     C7    7   0.160   0.185  -0.177
    1UNL     C8    8   0.053   0.268  -0.188
    1UNL     C9    9  -0.076   0.208  -0.238
    1UNL     O1   10  -0.175   0.195  -0.131
    1UNL    C10   11  -0.149   0.090  -0.028
    1UNL     O2   12  -0.168  -0.047  -0.084
    1UNL    C11   13  -0.204  -0.143   0.017
    1UNL    C12   14  -0.195  -0.282  -0.037
    1UNL     O3   15  -0.277  -0.291  -0.143
    1UNL    C13   16  -0.343  -0.100   0.078
    1UNL     O4   17  -0.348  -0.146   0.214
    1UNL    C14   18  -0.368   0.054   0.091
    1UNL     O5   19  -0.426   0.086   0.217
    1UNL    C15   20  -0.229   0.129   0.100
    1UNL     O6   21  -0.157   0.096   0.217
    1UNL    C16   22   0.283   0.233  -0.116
    1UNL     O7   23   0.297   0.344  -0.067
    1UNL     O8   24   0.375   0.128  -0.119
    1UNL     H1   25   0.187   0.052   0.098
    1UNL     H2   26   0.375   0.083   0.086
    1UNL     H3   27   0.302  -0.008   0.222
    1UNL     H4   28   0.292  -0.334   0.021
    1UNL     H5   29   0.306  -0.252   0.178
    1UNL     H6   30   0.148  -0.244   0.100
    1UNL     H7   31   0.326  -0.210  -0.158
    1UNL     H8   32   0.398   0.003  -0.277
    1UNL     H9   33   0.152   0.057  -0.338
    1UNL    H10   34   0.115  -0.032  -0.190
    1UNL    H11   35   0.051   0.367  -0.149
    1UNL    H12   36  -0.069   0.115  -0.294
    1UNL    H13   37  -0.117   0.283  -0.312
    1UNL    H14   38  -0.040   0.095  -0.004
    1UNL    H15   39  -0.125  -0.125   0.096
    1UNL    H16   40  -0.224  -0.351   0.042
    1UNL    H17   41  -0.091  -0.307  -0.067
    1UNL    H18   42  -0.251  -0.221  -0.207
    1UNL    H19   43  -0.410  -0.161   0.019
    1UNL    H20   44  -0.437  -0.113   0.254
    1UNL    H21   45  -0.421   0.094   0.008
    1UNL    H22   46  -0.486   0.163   0.202
    1UNL    H23   47  -0.243   0.240   0.108
    1UNL    H24   48  -0.231   0.092   0.281
   0.00000   0.00000   0.00000   0.00000   0.00000   0.00000   0.00000   0.00000   0.00000
Generated with MDTraj, t= 31.0
 48
    1UNL     C1    1   0.263   0.001   0.108
    1UNL     C2    2   0.298  -0.119   0.034
    1UNL     C3    3   0.303  -0.247   0.111
    1UNL     C4    4   0.310  -0.117  -0.097
    1UNL     C5    5   0.318   0.004  -0.185
    1UNL     C6    6   0.182   0.043  -0.247
    1UNL     C7    7   0.156   0.174  -0.197
    1UNL     C8    8   0.043   0.250  -0.189
    1UNL     C9    9  -0.091   0.194  -0.230
    1UNL     O1   10  -0.180   0.207  -0.126
    1UNL    C10   11  -0.145   0.114  -0.021
    1UNL     O2   12  -0.159  -0.019  -0.079
    1UNL    C11   13  -0.191  -0.123   0.021
    1UNL    C12   14  -0.187  -0.261  -0.050
    1UNL     O3   15  -0.283  -0.253  -0.154
    1UNL    C13   16  -0.331  -0.096   0.085
    1UNL     O4   17  -0.337  -0.159   0.213
    1UNL    C14   18  -0.367   0.054   0.098
    1UNL     O5   19  -0.449   0.059   0.209
    1UNL    C15   20  -0.229   0.134   0.105
    1UNL     O6   21  -0.149   0.083   0.209
    1UNL    C16   22   0.285   0.221  -0.128
    1UNL     O7   23   0.293   0.335  -0.083
    1UNL     O8   24   0.373   0.115  -0.110
    1UNL     H1   25   0.204   0.082   0.054
    1UNL     H2   26   0.352   0.051   0.170
    1UNL     H3   27   0.191  -0.023   0.190
    1UNL     H4   28   0.409  -0.289   0.108
    1UNL     H5   29   0.273  -0.248   0.217
    1UNL     H6   30   0.235  -0.321   0.070
    1UNL     H7   31   0.326  -0.212  -0.147
    1UNL     H8   32   0.394  -0.013  -0.268
    1UNL     H9   33   0.208   0.038  -0.352
    1UNL    H10   34   0.107  -0.035  -0.221
    1UNL    H11   35   0.046   0.345  -0.132
    1UNL    H12   36  -0.091   0.091  -0.265
    1UNL    H13   37  -0.139   0.252  -0.315
    1UNL    H14   38  -0.033   0.112  -0.005
    1UNL    H15   39  -0.115  -0.107   0.100
    1UNL    H16   40  -0.217  -0.337   0.023
    1UNL    H17   41  -0.081  -0.274  -0.084
    1UNL    H18   42  -0.263  -0.167  -0.196
    1UNL    H19   43  -0.408  -0.146   0.030
    1UNL    H20   44  -0.415  -0.125   0.254
    1UNL    H21   45  -0.419   0.083   0.011
    1UNL    H22   46  -0.507   0.141   0.205
    1UNL    H23   47  -0.240   0.242   0.129
    1UNL    H24   48  -0.198   0.017   0.254
   0.00000   0.00000   0.00000   0.00000   0.00000   0.00000   0.00000   0.00000   0.00000
Generated with MDTraj, t= 32.0
 48
    1UNL     C1    1   0.235  -0.001   0.103
    1UNL     C2    2   0.297  -0.120   0.043
    1UNL     C3    3   0.316  -0.235   0.134
    1UNL     C4    4   0.320  -0.128  -0.087
    1UNL     C5    5   0.298  -0.010  -0.183
    1UNL     C6    6   0.145   0.022  -0.201
    1UNL     C7    7   0.147   0.165  -0.181
    1UNL     C8    8   0.046   0.253  -0.199
    1UNL     C9    9  -0.092   0.215  -0.217
    1UNL     O1   10  -0.163   0.226  -0.100
    1UNL    C10   11  -0.141   0.112  -0.009
    1UNL     O2   12  -0.159  -0.009  -0.082
    1UNL    C11   13  -0.184  -0.122   0.007
    1UNL    C12   14  -0.186  -0.250  -0.075
    1UNL     O3   15  -0.262  -0.244  -0.196
    1UNL    C13   16  -0.313  -0.109   0.091
    1UNL     O4   17  -0.296  -0.154   0.224
    1UNL    C14   18  -0.364   0.039   0.091
    1UNL     O5   19  -0.461   0.061   0.190
    1UNL    C15   20  -0.239   0.127   0.104
    1UNL     O6   21  -0.172   0.111   0.227
    1UNL    C16   22   0.278   0.214  -0.142
    1UNL     O7   23   0.302   0.325  -0.100
    1UNL     O8   24   0.364   0.106  -0.140
    1UNL     H1   25   0.144   0.023   0.045
    1UNL     H2   26   0.312   0.082   0.104
    1UNL     H3   27   0.200  -0.025   0.210
    1UNL     H4   28   0.414  -0.222   0.193
    1UNL     H5   29   0.236  -0.272   0.200
    1UNL     H6   30   0.332  -0.322   0.071
    1UNL     H7   31   0.369  -0.218  -0.119
    1UNL     H8   32   0.317  -0.032  -0.290
    1UNL     H9   33   0.110  -0.010  -0.299
    1UNL    H10   34   0.091  -0.032  -0.122
    1UNL    H11   35   0.061   0.353  -0.172
    1UNL    H12   36  -0.112   0.112  -0.247
    1UNL    H13   37  -0.147   0.273  -0.297
    1UNL    H14   38  -0.035   0.102   0.024
    1UNL    H15   39  -0.099  -0.128   0.076
    1UNL    H16   40  -0.225  -0.328  -0.007
    1UNL    H17   41  -0.081  -0.273  -0.105
    1UNL    H18   42  -0.280  -0.148  -0.215
    1UNL    H19   43  -0.387  -0.175   0.052
    1UNL    H20   44  -0.391  -0.147   0.266
    1UNL    H21   45  -0.408   0.056  -0.004
    1UNL    H22   46  -0.433   0.038   0.281
    1UNL    H23   47  -0.267   0.234   0.111
    1UNL    H24   48  -0.158   0.011   0.255
   0.00000   0.00000   0.00000   0.00000   0.00000   0.00000   0.00000   0.00000   0.00000
Generated with MDTraj, t= 33.0
 48
    1UNL     C1    1   0.266   0.010   0.127
    1UNL     C2    2   0.296  -0.123   0.063
    1UNL     C3    3   0.320  -0.240   0.154
    1UNL     C4    4   0.295  -0.143  -0.070
    1UNL     C5    5   0.264  -0.040  -0.175
    1UNL     C6    6   0.129   0.023  -0.193
    1UNL     C7    7   0.144   0.174  -0.181
    1UNL     C8    8   0.042   0.267  -0.173
    1UNL     C9    9  -0.096   0.235  -0.207
    1UNL     O1   10  -0.192   0.246  -0.110
    1UNL    C10   11  -0.170   0.134  -0.019
    1UNL     O2   12  -0.149   0.005  -0.081
    1UNL    C11   13  -0.157  -0.114   0.005
    1UNL    C12   14  -0.147  -0.225  -0.094
    1UNL     O3   15  -0.257  -0.213  -0.190
    1UNL    C13   16  -0.294  -0.123   0.082
    1UNL     O4   17  -0.263  -0.164   0.211
    1UNL    C14   18  -0.374   0.016   0.087
    1UNL     O5   19  -0.462   0.033   0.198
    1UNL    C15   20  -0.267   0.130   0.101
    1UNL     O6   21  -0.199   0.113   0.226
    1UNL    C16   22   0.288   0.195  -0.155
    1UNL     O7   23   0.330   0.307  -0.140
    1UNL     O8   24   0.352   0.075  -0.151
    1UNL     H1   25   0.171   0.010   0.186
    1UNL     H2   26   0.259   0.082   0.051
    1UNL     H3   27   0.351   0.052   0.195
    1UNL     H4   28   0.363  -0.198   0.249
    1UNL     H5   29   0.230  -0.303   0.164
    1UNL     H6   30   0.393  -0.303   0.101
    1UNL     H7   31   0.331  -0.233  -0.113
    1UNL     H8   32   0.305  -0.063  -0.271
    1UNL     H9   33   0.082   0.002  -0.290
    1UNL    H10   34   0.072  -0.021  -0.110
    1UNL    H11   35   0.063   0.373  -0.149
    1UNL    H12   36  -0.114   0.141  -0.256
    1UNL    H13   37  -0.135   0.305  -0.285
    1UNL    H14   38  -0.065   0.156   0.020
    1UNL    H15   39  -0.069  -0.128   0.065
    1UNL    H16   40  -0.161  -0.323  -0.048
    1UNL    H17   41  -0.050  -0.224  -0.149
    1UNL    H18   42  -0.269  -0.115  -0.209
    1UNL    H19   43  -0.353  -0.207   0.048
    1UNL    H20   44  -0.350  -0.164   0.267
    1UNL    H21   45  -0.422   0.040  -0.007
    1UNL    H22   46  -0.423   0.090   0.267
    1UNL    H23   47  -0.314   0.228   0.105
    1UNL    H24   48  -0.193   0.018   0.238
   0.00000   0.00000   0.00000   0.00000   0.00000   0.00000   0.00000   0.00000   0.00000
Generated with MDTraj, t= 34.0
 48
    1UNL     C1    1   0.323   0.011   0.119
    1UNL     C2    2   0.286  -0.124   0.076
    1UNL     C3    3   0.288  -0.237   0.175
    1UNL     C4    4   0.254  -0.147  -0.052
    1UNL     C5    5   0.243  -0.040  -0.167
    1UNL     C6    6   0.103   0.025  -0.185
    1UNL     C7    7   0.135   0.167  -0.202
    1UNL     C8    8   0.046   0.273  -0.195
    1UNL     C9    9  -0.100   0.258  -0.198
    1UNL     O1   10  -0.163   0.260  -0.070
    1UNL    C10   11  -0.164   0.135   0.003
    1UNL     O2   12  -0.170   0.022  -0.085
    1UNL    C11   13  -0.151  -0.103  -0.010
    1UNL    C12   14  -0.123  -0.220  -0.104
    1UNL     O3   15  -0.230  -0.235  -0.206
    1UNL    C13   16  -0.275  -0.123   0.078
    1UNL     O4   17  -0.226  -0.162   0.201
    1UNL    C14   18  -0.367   0.008   0.084
    1UNL     O5   19  -0.462   0.003   0.188
    1UNL    C15   20  -0.285   0.139   0.105
    1UNL     O6   21  -0.220   0.132   0.229
    1UNL    C16   22   0.276   0.184  -0.167
    1UNL     O7   23   0.332   0.290  -0.158
    1UNL     O8   24   0.340   0.069  -0.143
    1UNL     H1   25   0.333   0.030   0.230
    1UNL     H2   26   0.255   0.084   0.076
    1UNL     H3   27   0.418   0.038   0.074
    1UNL     H4   28   0.248  -0.204   0.270
    1UNL     H5   29   0.233  -0.324   0.129
    1UNL     H6   30   0.391  -0.279   0.184
    1UNL     H7   31   0.227  -0.247  -0.088
    1UNL     H8   32   0.281  -0.077  -0.258
    1UNL     H9   33   0.048  -0.031  -0.263
    1UNL    H10   34   0.039   0.016  -0.099
    1UNL    H11   35   0.086   0.370  -0.189
    1UNL    H12   36  -0.130   0.174  -0.256
    1UNL    H13   37  -0.142   0.340  -0.260
    1UNL    H14   38  -0.068   0.132   0.065
    1UNL    H15   39  -0.069  -0.086   0.054
    1UNL    H16   40  -0.128  -0.313  -0.052
    1UNL    H17   41  -0.030  -0.213  -0.163
    1UNL    H18   42  -0.245  -0.151  -0.253
    1UNL    H19   43  -0.337  -0.210   0.050
    1UNL    H20   44  -0.296  -0.176   0.260
    1UNL    H21   45  -0.425   0.023  -0.009
    1UNL    H22   46  -0.482   0.090   0.231
    1UNL    H23   47  -0.341   0.232   0.114
    1UNL    H24   48  -0.204   0.035   0.248
   0.00000   0.00000   0.00000   0.00000   0.00000   0.00000   0.00000   0.00000   0.00000
Generated with MDTraj, t= 35.0
 48
    1UNL     C1    1   0.370   0.002   0.112
    1UNL     C2    2   0.278  -0.110   0.068
    1UNL     C3    3   0.232  -0.198   0.179
    1UNL     C4    4   0.223  -0.134  -0.050
    1UNL     C5    5   0.237  -0.043  -0.173
    1UNL     C6    6   0.102   0.028  -0.194
    1UNL     C7    7   0.139   0.174  -0.191
    1UNL     C8    8   0.050   0.276  -0.162
    1UNL     C9    9  -0.098   0.254  -0.188
    1UNL     O1   10  -0.185   0.255  -0.079
    1UNL    C10   11  -0.160   0.135  -0.005
    1UNL     O2   12  -0.142   0.021  -0.087
    1UNL    C11   13  -0.148  -0.111  -0.007
    1UNL    C12   14  -0.126  -0.228  -0.097
    1UNL     O3   15  -0.220  -0.208  -0.195
    1UNL    C13   16  -0.269  -0.129   0.082
    1UNL     O4   17  -0.235  -0.164   0.212
    1UNL    C14   18  -0.359  -0.001   0.083
    1UNL     O5   19  -0.465  -0.015   0.179
    1UNL    C15   20  -0.274   0.124   0.099
    1UNL     O6   21  -0.224   0.134   0.228
    1UNL    C16   22   0.284   0.183  -0.172
    1UNL     O7   23   0.342   0.290  -0.161
    1UNL     O8   24   0.338   0.054  -0.166
    1UNL     H1   25   0.465  -0.047   0.116
    1UNL     H2   26   0.338   0.038   0.215
    1UNL     H3   27   0.366   0.079   0.043
    1UNL     H4   28   0.134  -0.170   0.208
    1UNL     H5   29   0.229  -0.308   0.153
    1UNL     H6   30   0.295  -0.208   0.272
    1UNL     H7   31   0.155  -0.214  -0.057
    1UNL     H8   32   0.249  -0.109  -0.251
    1UNL     H9   33   0.061   0.005  -0.294
    1UNL    H10   34   0.023  -0.011  -0.130
    1UNL    H11   35   0.087   0.379  -0.144
    1UNL    H12   36  -0.108   0.169  -0.250
    1UNL    H13   37  -0.132   0.333  -0.256
    1UNL    H14   38  -0.057   0.160   0.040
    1UNL    H15   39  -0.066  -0.102   0.057
    1UNL    H16   40  -0.156  -0.322  -0.057
    1UNL    H17   41  -0.032  -0.228  -0.152
    1UNL    H18   42  -0.223  -0.113  -0.220
    1UNL    H19   43  -0.320  -0.218   0.034
    1UNL    H20   44  -0.309  -0.154   0.272
    1UNL    H21   45  -0.399   0.007  -0.023
    1UNL    H22   46  -0.442   0.035   0.262
    1UNL    H23   47  -0.338   0.209   0.082
    1UNL    H24   48  -0.197   0.039   0.255
   0.00000   0.00000   0.00000   0.00000   0.00000   0.00000   0.00000   0.00000   0.00000
Generated with MDTraj, t= 36.0
 48
    1UNL     C1    1   0.384   0.003   0.087
    1UNL     C2    2   0.272  -0.096   0.067
    1UNL     C3    3   0.219  -0.168   0.180
    1UNL     C4    4   0.212  -0.110  -0.051
    1UNL     C5    5   0.259  -0.037  -0.185
    1UNL     C6    6   0.137   0.032  -0.249
    1UNL     C7    7   0.150   0.166  -0.208
    1UNL     C8    8   0.053   0.252  -0.168
    1UNL     C9    9  -0.091   0.230  -0.196
    1UNL     O1   10  -0.165   0.246  -0.075
    1UNL    C10   11  -0.164   0.125   0.000
    1UNL     O2   12  -0.153   0.014  -0.085
    1UNL    C11   13  -0.157  -0.105  -0.003
    1UNL    C12   14  -0.143  -0.225  -0.100
    1UNL     O3   15  -0.240  -0.225  -0.198
    1UNL    C13   16  -0.281  -0.123   0.080
    1UNL     O4   17  -0.246  -0.157   0.211
    1UNL    C14   18  -0.373   0.005   0.088
    1UNL     O5   19  -0.464  -0.011   0.198
    1UNL    C15   20  -0.279   0.128   0.110
    1UNL     O6   21  -0.221   0.117   0.239
    1UNL    C16   22   0.288   0.185  -0.159
    1UNL     O7   23   0.339   0.289  -0.121
    1UNL     O8   24   0.352   0.065  -0.160
    1UNL     H1   25   0.444  -0.000   0.005
    1UNL     H2   26   0.446  -0.035   0.171
    1UNL     H3   27   0.354   0.105   0.108
    1UNL     H4   28   0.116  -0.193   0.158
    1UNL     H5   29   0.283  -0.256   0.206
    1UNL     H6   30   0.225  -0.106   0.274
    1UNL     H7   31   0.127  -0.178  -0.060
    1UNL     H8   32   0.305  -0.111  -0.239
    1UNL     H9   33   0.129   0.027  -0.359
    1UNL    H10   34   0.040  -0.009  -0.215
    1UNL    H11   35   0.087   0.320  -0.094
    1UNL    H12   36  -0.113   0.139  -0.245
    1UNL    H13   37  -0.118   0.300  -0.278
    1UNL    H14   38  -0.063   0.123   0.058
    1UNL    H15   39  -0.078  -0.089   0.065
    1UNL    H16   40  -0.170  -0.311  -0.042
    1UNL    H17   41  -0.048  -0.236  -0.153
    1UNL    H18   42  -0.238  -0.131  -0.230
    1UNL    H19   43  -0.338  -0.207   0.027
    1UNL    H20   44  -0.332  -0.191   0.258
    1UNL    H21   45  -0.433   0.016  -0.009
    1UNL    H22   46  -0.425   0.033   0.276
    1UNL    H23   47  -0.347   0.213   0.119
    1UNL    H24   48  -0.158   0.049   0.237
   0.00000   0.00000   0.00000   0.00000   0.00000   0.00000   0.00000   0.00000   0.00000
Generated with MDTraj, t= 37.0
 48
    1UNL     C1    1   0.394   0.009   0.083
    1UNL     C2    2   0.288  -0.089   0.057
    1UNL     C3    3   0.210  -0.151   0.175
    1UNL     C4    4   0.243  -0.115  -0.066
    1UNL     C5    5   0.269  -0.032  -0.188
    1UNL     C6    6   0.137   0.030  -0.238
    1UNL     C7    7   0.152   0.173  -0.189
    1UNL     C8    8   0.057   0.266  -0.168
    1UNL     C9    9  -0.083   0.237  -0.201
    1UNL     O1   10  -0.170   0.235  -0.092
    1UNL    C10   11  -0.154   0.113  -0.015
    1UNL     O2   12  -0.167  -0.009  -0.088
    1UNL    C11   13  -0.171  -0.123  -0.002
    1UNL    C12   14  -0.166  -0.244  -0.103
    1UNL     O3   15  -0.279  -0.243  -0.188
    1UNL    C13   16  -0.300  -0.128   0.082
    1UNL     O4   17  -0.263  -0.170   0.215
    1UNL    C14   18  -0.369   0.015   0.094
    1UNL     O5   19  -0.459   0.020   0.201
    1UNL    C15   20  -0.258   0.127   0.105
    1UNL     O6   21  -0.189   0.106   0.226
    1UNL    C16   22   0.286   0.196  -0.139
    1UNL     O7   23   0.332   0.301  -0.096
    1UNL     O8   24   0.360   0.073  -0.160
    1UNL     H1   25   0.459   0.027   0.001
    1UNL     H2   26   0.456  -0.031   0.153
    1UNL     H3   27   0.360   0.108   0.114
    1UNL     H4   28   0.160  -0.246   0.143
    1UNL     H5   29   0.283  -0.156   0.258
    1UNL     H6   30   0.138  -0.075   0.214
    1UNL     H7   31   0.170  -0.192  -0.082
    1UNL     H8   32   0.330  -0.086  -0.253
    1UNL     H9   33   0.138   0.038  -0.348
    1UNL    H10   34   0.043  -0.013  -0.204
    1UNL    H11   35   0.096   0.347  -0.104
    1UNL    H12   36  -0.092   0.156  -0.270
    1UNL    H13   37  -0.124   0.319  -0.263
    1UNL    H14   38  -0.044   0.121   0.021
    1UNL    H15   39  -0.093  -0.117   0.071
    1UNL    H16   40  -0.173  -0.340  -0.055
    1UNL    H17   41  -0.075  -0.230  -0.164
    1UNL    H18   42  -0.270  -0.158  -0.233
    1UNL    H19   43  -0.374  -0.202   0.038
    1UNL    H20   44  -0.342  -0.156   0.265
    1UNL    H21   45  -0.417   0.041  -0.007
    1UNL    H22   46  -0.411   0.009   0.288
    1UNL    H23   47  -0.305   0.228   0.105
    1UNL    H24   48  -0.202   0.005   0.252
   0.00000   0.00000   0.00000   0.00000   0.00000   0.00000   0.00000   0.00000   0.00000
Generated with MDTraj, t= 38.0
 48
    1UNL     C1    1   0.392   0.013   0.112
    1UNL     C2    2   0.289  -0.089   0.071
    1UNL     C3    3   0.252  -0.185   0.171
    1UNL     C4    4   0.240  -0.106  -0.051
    1UNL     C5    5   0.269  -0.024  -0.174
    1UNL     C6    6   0.135   0.041  -0.237
    1UNL     C7    7   0.150   0.184  -0.184
    1UNL     C8    8   0.052   0.278  -0.176
    1UNL     C9    9  -0.087   0.250  -0.217
    1UNL     O1   10  -0.185   0.221  -0.117
    1UNL    C10   11  -0.146   0.107  -0.026
    1UNL     O2   12  -0.171  -0.016  -0.092
    1UNL    C11   13  -0.186  -0.128  -0.011
    1UNL    C12   14  -0.187  -0.250  -0.104
    1UNL     O3   15  -0.301  -0.253  -0.181
    1UNL    C13   16  -0.313  -0.122   0.077
    1UNL     O4   17  -0.287  -0.176   0.208
    1UNL    C14   18  -0.356   0.023   0.101
    1UNL     O5   19  -0.436   0.045   0.215
    1UNL    C15   20  -0.230   0.117   0.101
    1UNL     O6   21  -0.157   0.086   0.216
    1UNL    C16   22   0.286   0.202  -0.137
    1UNL     O7   23   0.318   0.313  -0.104
    1UNL     O8   24   0.363   0.079  -0.148
    1UNL     H1   25   0.491  -0.012   0.079
    1UNL     H2   26   0.390   0.012   0.213
    1UNL     H3   27   0.363   0.108   0.072
    1UNL     H4   28   0.314  -0.279   0.149
    1UNL     H5   29   0.264  -0.140   0.270
    1UNL     H6   30   0.144  -0.212   0.170
    1UNL     H7   31   0.178  -0.190  -0.075
    1UNL     H8   32   0.320  -0.078  -0.247
    1UNL     H9   33   0.107   0.051  -0.344
    1UNL    H10   34   0.051  -0.000  -0.183
    1UNL    H11   35   0.088   0.369  -0.135
    1UNL    H12   36  -0.090   0.165  -0.280
    1UNL    H13   37  -0.117   0.329  -0.290
    1UNL    H14   38  -0.033   0.116   0.001
    1UNL    H15   39  -0.103  -0.146   0.055
    1UNL    H16   40  -0.191  -0.347  -0.052
    1UNL    H17   41  -0.103  -0.249  -0.178
    1UNL    H18   42  -0.323  -0.163  -0.218
    1UNL    H19   43  -0.391  -0.188   0.034
    1UNL    H20   44  -0.372  -0.211   0.244
    1UNL    H21   45  -0.421   0.049   0.011
    1UNL    H22   46  -0.391   0.068   0.297
    1UNL    H23   47  -0.272   0.219   0.120
    1UNL    H24   48  -0.142  -0.007   0.229
   0.00000   0.00000   0.00000   0.00000   0.00000   0.00000   0.00000   0.00000   0.00000
Generated with MDTraj, t= 39.0
 48
    1UNL     C1    1   0.371   0.014   0.136
    1UNL     C2    2   0.298  -0.105   0.078
    1UNL     C3    3   0.281  -0.221   0.171
    1UNL     C4    4   0.250  -0.110  -0.044
    1UNL     C5    5   0.267  -0.011  -0.150
    1UNL     C6    6   0.127   0.024  -0.211
    1UNL     C7    7   0.136   0.176  -0.196
    1UNL     C8    8   0.039   0.268  -0.217
    1UNL     C9    9  -0.097   0.225  -0.235
    1UNL     O1   10  -0.170   0.229  -0.116
    1UNL    C10   11  -0.146   0.112  -0.032
    1UNL     O2   12  -0.175  -0.005  -0.108
    1UNL    C11   13  -0.192  -0.119  -0.023
    1UNL    C12   14  -0.199  -0.252  -0.107
    1UNL     O3   15  -0.305  -0.249  -0.200
    1UNL    C13   16  -0.318  -0.105   0.073
    1UNL     O4   17  -0.284  -0.177   0.191
    1UNL    C14   18  -0.347   0.039   0.115
    1UNL     O5   19  -0.418   0.043   0.235
    1UNL    C15   20  -0.208   0.125   0.112
    1UNL     O6   21  -0.132   0.061   0.215
    1UNL    C16   22   0.271   0.214  -0.135
    1UNL     O7   23   0.306   0.328  -0.126
    1UNL     O8   24   0.340   0.103  -0.113
    1UNL     H1   25   0.449   0.050   0.074
    1UNL     H2   26   0.415  -0.013   0.234
    1UNL     H3   27   0.301   0.087   0.149
    1UNL     H4   28   0.384  -0.263   0.200
    1UNL     H5   29   0.232  -0.194   0.264
    1UNL     H6   30   0.222  -0.312   0.149
    1UNL     H7   31   0.199  -0.200  -0.081
    1UNL     H8   32   0.338  -0.049  -0.225
    1UNL     H9   33   0.131  -0.003  -0.318
    1UNL    H10   34   0.041  -0.015  -0.156
    1UNL    H11   35   0.079   0.366  -0.192
    1UNL    H12   36  -0.098   0.129  -0.284
    1UNL    H13   37  -0.143   0.298  -0.307
    1UNL    H14   38  -0.031   0.111  -0.022
    1UNL    H15   39  -0.102  -0.135   0.038
    1UNL    H16   40  -0.209  -0.347  -0.049
    1UNL    H17   41  -0.108  -0.264  -0.171
    1UNL    H18   42  -0.330  -0.159  -0.234
    1UNL    H19   43  -0.403  -0.153   0.028
    1UNL    H20   44  -0.343  -0.139   0.266
    1UNL    H21   45  -0.409   0.091   0.038
    1UNL    H22   46  -0.468   0.125   0.243
    1UNL    H23   47  -0.220   0.235   0.137
    1UNL    H24   48  -0.173  -0.025   0.248
   0.00000   0.00000   0.00000   0.00000   0.00000   0.00000   0.00000   0.00000   0.00000
Generated with MDTraj, t= 40.0
 48
    1UNL     C1    1   0.341   0.020   0.158
    1UNL     C2    2   0.306  -0.111   0.091
    1UNL     C3    3   0.287  -0.235   0.168
    1UNL     C4    4   0.281  -0.132  -0.039
    1UNL     C5    5   0.276  -0.020  -0.145
    1UNL     C6    6   0.123   0.017  -0.186
    1UNL     C7    7   0.128   0.169  -0.181
    1UNL     C8    8   0.030   0.257  -0.212
    1UNL     C9    9  -0.111   0.228  -0.241
    1UNL     O1   10  -0.187   0.224  -0.121
    1UNL    C10   11  -0.145   0.115  -0.030
    1UNL     O2   12  -0.159  -0.007  -0.108
    1UNL    C11   13  -0.178  -0.122  -0.025
    1UNL    C12   14  -0.208  -0.239  -0.108
    1UNL     O3   15  -0.305  -0.208  -0.209
    1UNL    C13   16  -0.302  -0.102   0.071
    1UNL     O4   17  -0.277  -0.176   0.190
    1UNL    C14   18  -0.339   0.041   0.107
    1UNL     O5   19  -0.409   0.041   0.232
    1UNL    C15   20  -0.209   0.129   0.111
    1UNL     O6   21  -0.128   0.065   0.206
    1UNL    C16   22   0.257   0.210  -0.143
    1UNL     O7   23   0.287   0.326  -0.153
    1UNL     O8   24   0.337   0.106  -0.114
    1UNL     H1   25   0.361   0.096   0.091
    1UNL     H2   26   0.440   0.012   0.213
    1UNL     H3   27   0.265   0.053   0.218
    1UNL     H4   28   0.368  -0.252   0.245
    1UNL     H5   29   0.187  -0.237   0.214
    1UNL     H6   30   0.286  -0.324   0.102
    1UNL     H7   31   0.255  -0.227  -0.078
    1UNL     H8   32   0.324  -0.056  -0.241
    1UNL     H9   33   0.102  -0.021  -0.288
    1UNL    H10   34   0.055  -0.016  -0.106
    1UNL    H11   35   0.061   0.351  -0.169
    1UNL    H12   36  -0.119   0.134  -0.295
    1UNL    H13   37  -0.147   0.314  -0.304
    1UNL    H14   38  -0.032   0.131  -0.017
    1UNL    H15   39  -0.082  -0.135   0.032
    1UNL    H16   40  -0.247  -0.318  -0.041
    1UNL    H17   41  -0.111  -0.274  -0.150
    1UNL    H18   42  -0.303  -0.112  -0.228
    1UNL    H19   43  -0.388  -0.145   0.023
    1UNL    H20   44  -0.359  -0.194   0.233
    1UNL    H21   45  -0.411   0.085   0.039
    1UNL    H22   46  -0.359   0.081   0.308
    1UNL    H23   47  -0.225   0.237   0.146
    1UNL    H24   48  -0.146  -0.031   0.210
   0.00000   0.00000   0.00000   0.00000   0.00000   0.00000   0.00000   0.00000   0.00000
Generated with MDTraj, t= 41.0
 48
    1UNL     C1    1   0.286   0.038   0.139
    1UNL     C2    2   0.292  -0.101   0.079
    1UNL     C3    3   0.308  -0.219   0.171
    1UNL     C4    4   0.275  -0.126  -0.052
    1UNL     C5    5   0.265  -0.030  -0.157
    1UNL     C6    6   0.123   0.019  -0.195
    1UNL     C7    7   0.138   0.172  -0.192
    1UNL     C8    8   0.045   0.268  -0.218
    1UNL     C9    9  -0.101   0.224  -0.230
    1UNL     O1   10  -0.165   0.228  -0.104
    1UNL    C10   11  -0.148   0.110  -0.022
    1UNL     O2   12  -0.168  -0.005  -0.101
    1UNL    C11   13  -0.180  -0.130  -0.022
    1UNL    C12   14  -0.197  -0.238  -0.121
    1UNL     O3   15  -0.297  -0.199  -0.213
    1UNL    C13   16  -0.304  -0.118   0.080
    1UNL     O4   17  -0.271  -0.179   0.205
    1UNL    C14   18  -0.344   0.026   0.106
    1UNL     O5   19  -0.419   0.036   0.227
    1UNL    C15   20  -0.223   0.122   0.110
    1UNL     O6   21  -0.148   0.092   0.231
    1UNL    C16   22   0.270   0.199  -0.146
    1UNL     O7   23   0.307   0.316  -0.133
    1UNL     O8   24   0.345   0.082  -0.137
    1UNL     H1   25   0.332   0.109   0.070
    1UNL     H2   26   0.352   0.037   0.226
    1UNL     H3   27   0.182   0.066   0.158
    1UNL     H4   28   0.291  -0.195   0.276
    1UNL     H5   29   0.235  -0.294   0.130
    1UNL     H6   30   0.408  -0.262   0.150
    1UNL     H7   31   0.267  -0.232  -0.083
    1UNL     H8   32   0.310  -0.072  -0.258
    1UNL     H9   33   0.103  -0.012  -0.299
    1UNL    H10   34   0.060  -0.030  -0.116
    1UNL    H11   35   0.072   0.371  -0.194
    1UNL    H12   36  -0.105   0.122  -0.272
    1UNL    H13   37  -0.147   0.307  -0.288
    1UNL    H14   38  -0.036   0.111   0.006
    1UNL    H15   39  -0.087  -0.142   0.043
    1UNL    H16   40  -0.215  -0.328  -0.058
    1UNL    H17   41  -0.101  -0.254  -0.172
    1UNL    H18   42  -0.285  -0.099  -0.216
    1UNL    H19   43  -0.386  -0.171   0.035
    1UNL    H20   44  -0.341  -0.144   0.273
    1UNL    H21   45  -0.404   0.052   0.021
    1UNL    H22   46  -0.366   0.082   0.296
    1UNL    H23   47  -0.259   0.227   0.125
    1UNL    H24   48  -0.163  -0.001   0.257
   0.00000   0.00000   0.00000   0.00000   0.00000   0.00000   0.00000   0.00000   0.00000
Generated with MDTraj, t= 42.0
 48
    1UNL     C1    1   0.243   0.041   0.092
    1UNL     C2    2   0.282  -0.093   0.058
    1UNL     C3    3   0.278  -0.180   0.174
    1UNL     C4    4   0.291  -0.137  -0.069
    1UNL     C5    5   0.277  -0.037  -0.182
    1UNL     C6    6   0.132   0.016  -0.213
    1UNL     C7    7   0.149   0.154  -0.184
    1UNL     C8    8   0.055   0.251  -0.163
    1UNL     C9    9  -0.091   0.239  -0.201
    1UNL     O1   10  -0.176   0.242  -0.089
    1UNL    C10   11  -0.155   0.122  -0.009
    1UNL     O2   12  -0.181   0.011  -0.088
    1UNL    C11   13  -0.174  -0.118  -0.018
    1UNL    C12   14  -0.170  -0.229  -0.121
    1UNL     O3   15  -0.290  -0.230  -0.191
    1UNL    C13   16  -0.299  -0.121   0.083
    1UNL     O4   17  -0.255  -0.169   0.207
    1UNL    C14   18  -0.361   0.017   0.102
    1UNL     O5   19  -0.446   0.020   0.216
    1UNL    C15   20  -0.247   0.129   0.118
    1UNL     O6   21  -0.167   0.099   0.237
    1UNL    C16   22   0.293   0.186  -0.156
    1UNL     O7   23   0.341   0.299  -0.132
    1UNL     O8   24   0.370   0.076  -0.162
    1UNL     H1   25   0.328   0.113   0.083
    1UNL     H2   26   0.209   0.054   0.190
    1UNL     H3   27   0.161   0.073   0.018
    1UNL     H4   28   0.182  -0.186   0.222
    1UNL     H5   29   0.307  -0.282   0.130
    1UNL     H6   30   0.360  -0.158   0.245
    1UNL     H7   31   0.295  -0.240  -0.083
    1UNL     H8   32   0.323  -0.075  -0.285
    1UNL     H9   33   0.104  -0.003  -0.318
    1UNL    H10   34   0.066  -0.020  -0.128
    1UNL    H11   35   0.100   0.345  -0.132
    1UNL    H12   36  -0.100   0.136  -0.243
    1UNL    H13   37  -0.117   0.325  -0.264
    1UNL    H14   38  -0.044   0.120   0.025
    1UNL    H15   39  -0.077  -0.112   0.042
    1UNL    H16   40  -0.151  -0.329  -0.078
    1UNL    H17   41  -0.082  -0.213  -0.182
    1UNL    H18   42  -0.304  -0.141  -0.224
    1UNL    H19   43  -0.370  -0.194   0.042
    1UNL    H20   44  -0.338  -0.175   0.263
    1UNL    H21   45  -0.412   0.040   0.012
    1UNL    H22   46  -0.403   0.065   0.290
    1UNL    H23   47  -0.301   0.225   0.128
    1UNL    H24   48  -0.169  -0.004   0.234
   0.00000   0.00000   0.00000   0.00000   0.00000   0.00000   0.00000   0.00000   0.00000
Generated with MDTraj, t= 43.0
 48
    1UNL     C1    1   0.258   0.044   0.104
    1UNL     C2    2   0.261  -0.097   0.054
    1UNL     C3    3   0.238  -0.197   0.157
    1UNL     C4    4   0.261  -0.130  -0.074
    1UNL     C5    5   0.265  -0.033  -0.186
    1UNL     C6    6   0.135   0.035  -0.235
    1UNL     C7    7   0.161   0.183  -0.211
    1UNL     C8    8   0.067   0.275  -0.173
    1UNL     C9    9  -0.078   0.250  -0.187
    1UNL     O1   10  -0.155   0.249  -0.067
    1UNL    C10   11  -0.152   0.119  -0.003
    1UNL     O2   12  -0.160   0.004  -0.084
    1UNL    C11   13  -0.161  -0.118  -0.006
    1UNL    C12   14  -0.160  -0.237  -0.097
    1UNL     O3   15  -0.269  -0.247  -0.179
    1UNL    C13   16  -0.294  -0.122   0.086
    1UNL     O4   17  -0.249  -0.171   0.217
    1UNL    C14   18  -0.368   0.011   0.095
    1UNL     O5   19  -0.448  -0.001   0.216
    1UNL    C15   20  -0.268   0.125   0.107
    1UNL     O6   21  -0.218   0.119   0.239
    1UNL    C16   22   0.304   0.188  -0.173
    1UNL     O7   23   0.364   0.295  -0.144
    1UNL     O8   24   0.364   0.058  -0.165
    1UNL     H1   25   0.338   0.113   0.059
    1UNL     H2   26   0.279   0.059   0.208
    1UNL     H3   27   0.163   0.097   0.084
    1UNL     H4   28   0.182  -0.283   0.125
    1UNL     H5   29   0.336  -0.232   0.204
    1UNL     H6   30   0.193  -0.155   0.248
    1UNL     H7   31   0.260  -0.238  -0.097
    1UNL     H8   32   0.296  -0.100  -0.281
    1UNL     H9   33   0.131   0.022  -0.345
    1UNL    H10   34   0.045   0.003  -0.178
    1UNL    H11   35   0.100   0.373  -0.140
    1UNL    H12   36  -0.112   0.156  -0.239
    1UNL    H13   37  -0.117   0.339  -0.235
    1UNL    H14   38  -0.050   0.118   0.050
    1UNL    H15   39  -0.071  -0.108   0.066
    1UNL    H16   40  -0.155  -0.326  -0.032
    1UNL    H17   41  -0.071  -0.249  -0.157
    1UNL    H18   42  -0.291  -0.168  -0.232
    1UNL    H19   43  -0.366  -0.198   0.047
    1UNL    H20   44  -0.326  -0.177   0.271
    1UNL    H21   45  -0.432   0.036   0.012
    1UNL    H22   46  -0.397   0.027   0.299
    1UNL    H23   47  -0.320   0.221   0.110
    1UNL    H24   48  -0.171   0.039   0.249
   0.00000   0.00000   0.00000   0.00000   0.00000   0.00000   0.00000   0.00000   0.00000
Generated with MDTraj, t= 44.0
 48
    1UNL     C1    1   0.310   0.013   0.107
    1UNL     C2    2   0.251  -0.114   0.055
    1UNL     C3    3   0.190  -0.213   0.149
    1UNL     C4    4   0.239  -0.140  -0.076
    1UNL     C5    5   0.255  -0.035  -0.190
    1UNL     C6    6   0.121   0.037  -0.229
    1UNL     C7    7   0.145   0.181  -0.199
    1UNL     C8    8   0.052   0.274  -0.172
    1UNL     C9    9  -0.085   0.247  -0.192
    1UNL     O1   10  -0.164   0.252  -0.069
    1UNL    C10   11  -0.148   0.128   0.008
    1UNL     O2   12  -0.139   0.010  -0.078
    1UNL    C11   13  -0.141  -0.109   0.006
    1UNL    C12   14  -0.135  -0.235  -0.083
    1UNL     O3   15  -0.232  -0.231  -0.180
    1UNL    C13   16  -0.271  -0.127   0.090
    1UNL     O4   17  -0.230  -0.150   0.223
    1UNL    C14   18  -0.359  -0.002   0.084
    1UNL     O5   19  -0.466   0.009   0.182
    1UNL    C15   20  -0.267   0.120   0.115
    1UNL     O6   21  -0.210   0.117   0.246
    1UNL    C16   22   0.285   0.192  -0.174
    1UNL     O7   23   0.350   0.296  -0.160
    1UNL     O8   24   0.344   0.071  -0.163
    1UNL     H1   25   0.422   0.005   0.083
    1UNL     H2   26   0.303   0.014   0.223
    1UNL     H3   27   0.272   0.098   0.059
    1UNL     H4   28   0.251  -0.304   0.159
    1UNL     H5   29   0.146  -0.175   0.246
    1UNL     H6   30   0.094  -0.247   0.105
    1UNL     H7   31   0.202  -0.238  -0.093
    1UNL     H8   32   0.299  -0.099  -0.280
    1UNL     H9   33   0.085   0.036  -0.332
    1UNL    H10   34   0.046   0.004  -0.154
    1UNL    H11   35   0.084   0.367  -0.126
    1UNL    H12   36  -0.106   0.146  -0.233
    1UNL    H13   37  -0.137   0.320  -0.250
    1UNL    H14   38  -0.046   0.141   0.061
    1UNL    H15   39  -0.046  -0.094   0.072
    1UNL    H16   40  -0.128  -0.331  -0.028
    1UNL    H17   41  -0.040  -0.234  -0.135
    1UNL    H18   42  -0.249  -0.137  -0.216
    1UNL    H19   43  -0.314  -0.224   0.051
    1UNL    H20   44  -0.320  -0.162   0.272
    1UNL    H21   45  -0.397   0.014  -0.017
    1UNL    H22   46  -0.472   0.097   0.222
    1UNL    H23   47  -0.323   0.210   0.106
    1UNL    H24   48  -0.192   0.018   0.273
   0.00000   0.00000   0.00000   0.00000   0.00000   0.00000   0.00000   0.00000   0.00000
Generated with MDTraj, t= 45.0
 48
    1UNL     C1    1   0.313  -0.004   0.095
    1UNL     C2    2   0.255  -0.135   0.051
    1UNL     C3    3   0.220  -0.243   0.157
    1UNL     C4    4   0.216  -0.141  -0.078
    1UNL     C5    5   0.236  -0.045  -0.190
    1UNL     C6    6   0.113   0.024  -0.236
    1UNL     C7    7   0.133   0.167  -0.197
    1UNL     C8    8   0.035   0.261  -0.180
    1UNL     C9    9  -0.105   0.242  -0.203
    1UNL     O1   10  -0.182   0.257  -0.084
    1UNL    C10   11  -0.155   0.148  -0.002
    1UNL     O2   12  -0.133   0.025  -0.068
    1UNL    C11   13  -0.131  -0.090   0.014
    1UNL    C12   14  -0.097  -0.212  -0.088
    1UNL     O3   15  -0.193  -0.207  -0.182
    1UNL    C13   16  -0.267  -0.112   0.089
    1UNL     O4   17  -0.237  -0.165   0.219
    1UNL    C14   18  -0.350   0.017   0.090
    1UNL     O5   19  -0.451   0.001   0.188
    1UNL    C15   20  -0.260   0.141   0.106
    1UNL     O6   21  -0.195   0.126   0.231
    1UNL    C16   22   0.272   0.182  -0.153
    1UNL     O7   23   0.318   0.294  -0.129
    1UNL     O8   24   0.328   0.056  -0.146
    1UNL     H1   25   0.413   0.016   0.048
    1UNL     H2   26   0.332  -0.019   0.211
    1UNL     H3   27   0.248   0.078   0.072
    1UNL     H4   28   0.231  -0.192   0.256
    1UNL     H5   29   0.126  -0.290   0.131
    1UNL     H6   30   0.298  -0.322   0.154
    1UNL     H7   31   0.178  -0.236  -0.109
    1UNL     H8   32   0.301  -0.105  -0.271
    1UNL     H9   33   0.103   0.005  -0.345
    1UNL    H10   34   0.017  -0.011  -0.198
    1UNL    H11   35   0.064   0.353  -0.129
    1UNL    H12   36  -0.136   0.140  -0.242
    1UNL    H13   37  -0.138   0.319  -0.270
    1UNL    H14   38  -0.056   0.166   0.051
    1UNL    H15   39  -0.048  -0.068   0.093
    1UNL    H16   40  -0.112  -0.309  -0.034
    1UNL    H17   41   0.005  -0.215  -0.121
    1UNL    H18   42  -0.203  -0.115  -0.208
    1UNL    H19   43  -0.320  -0.198   0.039
    1UNL    H20   44  -0.322  -0.181   0.254
    1UNL    H21   45  -0.408   0.026  -0.005
    1UNL    H22   46  -0.499   0.082   0.209
    1UNL    H23   47  -0.316   0.231   0.106
    1UNL    H24   48  -0.202   0.034   0.262
   0.00000   0.00000   0.00000   0.00000   0.00000   0.00000   0.00000   0.00000   0.00000
Generated with MDTraj, t= 46.0
 48
    1UNL     C1    1   0.273  -0.010   0.108
    1UNL     C2    2   0.275  -0.138   0.040
    1UNL     C3    3   0.265  -0.259   0.124
    1UNL     C4    4   0.262  -0.153  -0.093
    1UNL     C5    5   0.249  -0.043  -0.199
    1UNL     C6    6   0.104   0.021  -0.218
    1UNL     C7    7   0.128   0.161  -0.179
    1UNL     C8    8   0.037   0.264  -0.185
    1UNL     C9    9  -0.106   0.242  -0.215
    1UNL     O1   10  -0.185   0.255  -0.099
    1UNL    C10   11  -0.155   0.146  -0.012
    1UNL     O2   12  -0.156   0.016  -0.082
    1UNL    C11   13  -0.149  -0.094   0.007
    1UNL    C12   14  -0.115  -0.224  -0.073
    1UNL     O3   15  -0.182  -0.229  -0.191
    1UNL    C13   16  -0.277  -0.107   0.085
    1UNL     O4   17  -0.259  -0.163   0.218
    1UNL    C14   18  -0.361   0.028   0.099
    1UNL     O5   19  -0.439   0.023   0.219
    1UNL    C15   20  -0.257   0.151   0.103
    1UNL     O6   21  -0.174   0.145   0.218
    1UNL    C16   22   0.267   0.185  -0.140
    1UNL     O7   23   0.298   0.287  -0.080
    1UNL     O8   24   0.339   0.070  -0.161
    1UNL     H1   25   0.331   0.063   0.047
    1UNL     H2   26   0.324  -0.003   0.207
    1UNL     H3   27   0.168   0.038   0.110
    1UNL     H4   28   0.163  -0.302   0.129
    1UNL     H5   29   0.344  -0.327   0.103
    1UNL     H6   30   0.280  -0.221   0.230
    1UNL     H7   31   0.261  -0.255  -0.131
    1UNL     H8   32   0.299  -0.081  -0.295
    1UNL     H9   33   0.031   0.008  -0.303
    1UNL    H10   34   0.040  -0.028  -0.144
    1UNL    H11   35   0.066   0.363  -0.151
    1UNL    H12   36  -0.112   0.134  -0.249
    1UNL    H13   37  -0.138   0.314  -0.290
    1UNL    H14   38  -0.053   0.163   0.032
    1UNL    H15   39  -0.064  -0.072   0.083
    1UNL    H16   40  -0.129  -0.309  -0.001
    1UNL    H17   41  -0.009  -0.222  -0.095
    1UNL    H18   42  -0.200  -0.134  -0.224
    1UNL    H19   43  -0.331  -0.193   0.038
    1UNL    H20   44  -0.346  -0.126   0.260
    1UNL    H21   45  -0.432   0.044   0.012
    1UNL    H22   46  -0.448   0.112   0.256
    1UNL    H23   47  -0.301   0.247   0.090
    1UNL    H24   48  -0.170   0.053   0.249
   0.00000   0.00000   0.00000   0.00000   0.00000   0.00000   0.00000   0.00000   0.00000
Generated with MDTraj, t= 47.0
 48
    1UNL     C1    1   0.235  -0.032   0.103
    1UNL     C2    2   0.274  -0.153   0.016
    1UNL     C3    3   0.301  -0.276   0.094
    1UNL     C4    4   0.288  -0.142  -0.117
    1UNL     C5    5   0.275  -0.017  -0.192
    1UNL     C6    6   0.133   0.035  -0.219
    1UNL     C7    7   0.139   0.183  -0.181
    1UNL     C8    8   0.038   0.277  -0.174
    1UNL     C9    9  -0.095   0.235  -0.226
    1UNL     O1   10  -0.189   0.241  -0.125
    1UNL    C10   11  -0.166   0.135  -0.029
    1UNL     O2   12  -0.159   0.001  -0.085
    1UNL    C11   13  -0.166  -0.101   0.020
    1UNL    C12   14  -0.136  -0.240  -0.050
    1UNL     O3   15  -0.222  -0.258  -0.169
    1UNL    C13   16  -0.305  -0.106   0.097
    1UNL     O4   17  -0.276  -0.137   0.236
    1UNL    C14   18  -0.367   0.037   0.107
    1UNL     O5   19  -0.441   0.049   0.221
    1UNL    C15   20  -0.249   0.136   0.103
    1UNL     O6   21  -0.160   0.124   0.211
    1UNL    C16   22   0.277   0.204  -0.132
    1UNL     O7   23   0.312   0.306  -0.078
    1UNL     O8   24   0.350   0.088  -0.135
    1UNL     H1   25   0.327   0.027   0.129
    1UNL     H2   26   0.198  -0.062   0.198
    1UNL     H3   27   0.160   0.043   0.048
    1UNL     H4   28   0.363  -0.356   0.053
    1UNL     H5   29   0.340  -0.255   0.192
    1UNL     H6   30   0.204  -0.328   0.119
    1UNL     H7   31   0.317  -0.225  -0.176
    1UNL     H8   32   0.324  -0.030  -0.294
    1UNL     H9   33   0.113   0.026  -0.331
    1UNL    H10   34   0.043  -0.026  -0.197
    1UNL    H11   35   0.060   0.377  -0.141
    1UNL    H12   36  -0.095   0.124  -0.258
    1UNL    H13   37  -0.122   0.295  -0.312
    1UNL    H14   38  -0.067   0.154   0.017
    1UNL    H15   39  -0.074  -0.072   0.084
    1UNL    H16   40  -0.157  -0.328   0.018
    1UNL    H17   41  -0.028  -0.246  -0.068
    1UNL    H18   42  -0.238  -0.178  -0.221
    1UNL    H19   43  -0.369  -0.187   0.060
    1UNL    H20   44  -0.357  -0.117   0.279
    1UNL    H21   45  -0.437   0.059   0.020
    1UNL    H22   46  -0.437   0.138   0.266
    1UNL    H23   47  -0.290   0.234   0.121
    1UNL    H24   48  -0.173   0.026   0.244
   0.00000   0.00000   0.00000   0.00000   0.00000   0.00000   0.00000   0.00000   0.00000
Generated with MDTraj, t= 48.0
 48
    1UNL     C1    1   0.228  -0.048   0.091
    1UNL     C2    2   0.280  -0.157  -0.001
    1UNL     C3    3   0.281  -0.293   0.057
    1UNL     C4    4   0.319  -0.139  -0.128
    1UNL     C5    5   0.305   0.001  -0.191
    1UNL     C6    6   0.160   0.049  -0.228
    1UNL     C7    7   0.148   0.183  -0.183
    1UNL     C8    8   0.042   0.264  -0.192
    1UNL     C9    9  -0.091   0.220  -0.230
    1UNL     O1   10  -0.175   0.221  -0.122
    1UNL    C10   11  -0.142   0.127  -0.018
    1UNL     O2   12  -0.138  -0.013  -0.069
    1UNL    C11   13  -0.168  -0.119   0.025
    1UNL    C12   14  -0.168  -0.247  -0.049
    1UNL     O3   15  -0.278  -0.278  -0.122
    1UNL    C13   16  -0.295  -0.094   0.105
    1UNL     O4   17  -0.284  -0.135   0.240
    1UNL    C14   18  -0.362   0.047   0.093
    1UNL     O5   19  -0.442   0.057   0.203
    1UNL    C15   20  -0.245   0.147   0.101
    1UNL     O6   21  -0.177   0.127   0.224
    1UNL    C16   22   0.276   0.225  -0.124
    1UNL     O7   23   0.295   0.335  -0.084
    1UNL     O8   24   0.354   0.115  -0.110
    1UNL     H1   25   0.312   0.022   0.131
    1UNL     H2   26   0.185  -0.096   0.179
    1UNL     H3   27   0.157   0.007   0.036
    1UNL     H4   28   0.363  -0.295   0.128
    1UNL     H5   29   0.188  -0.333   0.101
    1UNL     H6   30   0.303  -0.374  -0.015
    1UNL     H7   31   0.359  -0.227  -0.181
    1UNL     H8   32   0.363   0.004  -0.284
    1UNL     H9   33   0.129   0.031  -0.335
    1UNL    H10   34   0.077  -0.011  -0.187
    1UNL    H11   35   0.068   0.361  -0.148
    1UNL    H12   36  -0.106   0.120  -0.286
    1UNL    H13   37  -0.137   0.288  -0.302
    1UNL    H14   38  -0.048   0.155   0.028
    1UNL    H15   39  -0.077  -0.116   0.094
    1UNL    H16   40  -0.153  -0.329   0.027
    1UNL    H17   41  -0.086  -0.256  -0.120
    1UNL    H18   42  -0.301  -0.212  -0.193
    1UNL    H19   43  -0.368  -0.169   0.074
    1UNL    H20   44  -0.380  -0.124   0.278
    1UNL    H21   45  -0.418   0.059  -0.005
    1UNL    H22   46  -0.493   0.144   0.207
    1UNL    H23   47  -0.277   0.253   0.093
    1UNL    H24   48  -0.198   0.040   0.249
   0.00000   0.00000   0.00000   0.00000   0.00000   0.00000   0.00000   0.00000   0.00000
Generated with MDTraj, t= 49.0
 48
    1UNL     C1    1   0.241  -0.047   0.090
    1UNL     C2    2   0.284  -0.151  -0.007
    1UNL     C3    3   0.266  -0.296   0.030
    1UNL     C4    4   0.321  -0.115  -0.129
    1UNL     C5    5   0.321   0.012  -0.197
    1UNL     C6    6   0.186   0.050  -0.246
    1UNL     C7    7   0.156   0.179  -0.183
    1UNL     C8    8   0.044   0.252  -0.182
    1UNL     C9    9  -0.082   0.207  -0.232
    1UNL     O1   10  -0.177   0.210  -0.125
    1UNL    C10   11  -0.156   0.116  -0.024
    1UNL     O2   12  -0.172  -0.013  -0.080
    1UNL    C11   13  -0.172  -0.115   0.033
    1UNL    C12   14  -0.169  -0.258  -0.028
    1UNL     O3   15  -0.283  -0.267  -0.115
    1UNL    C13   16  -0.305  -0.102   0.116
    1UNL     O4   17  -0.278  -0.132   0.255
    1UNL    C14   18  -0.363   0.046   0.095
    1UNL     O5   19  -0.461   0.068   0.189
    1UNL    C15   20  -0.244   0.143   0.102
    1UNL     O6   21  -0.175   0.130   0.226
    1UNL    C16   22   0.280   0.223  -0.115
    1UNL     O7   23   0.291   0.329  -0.063
    1UNL     O8   24   0.375   0.119  -0.122
    1UNL     H1   25   0.265   0.060   0.065
    1UNL     H2   26   0.293  -0.056   0.191
    1UNL     H3   27   0.139  -0.055   0.104
    1UNL     H4   28   0.174  -0.291   0.091
    1UNL     H5   29   0.272  -0.362  -0.058
    1UNL     H6   30   0.346  -0.326   0.094
    1UNL     H7   31   0.339  -0.198  -0.191
    1UNL     H8   32   0.389   0.010  -0.281
    1UNL     H9   33   0.169   0.050  -0.358
    1UNL    H10   34   0.119  -0.031  -0.217
    1UNL    H11   35   0.060   0.348  -0.138
    1UNL    H12   36  -0.088   0.109  -0.290
    1UNL    H13   37  -0.136   0.266  -0.305
    1UNL    H14   38  -0.056   0.117   0.012
    1UNL    H15   39  -0.084  -0.087   0.099
    1UNL    H16   40  -0.179  -0.346   0.042
    1UNL    H17   41  -0.081  -0.276  -0.087
    1UNL    H18   42  -0.280  -0.184  -0.167
    1UNL    H19   43  -0.380  -0.180   0.093
    1UNL    H20   44  -0.359  -0.125   0.310
    1UNL    H21   45  -0.413   0.055  -0.004
    1UNL    H22   46  -0.490   0.160   0.206
    1UNL    H23   47  -0.276   0.252   0.094
    1UNL    H24   48  -0.197   0.039   0.265
   0.00000   0.00000   0.00000   0.00000   0.00000   0.00000   0.00000   0.00000   0.00000
Generated with MDTraj, t= 50.0
 48
    1UNL     C1    1   0.267  -0.033   0.084
    1UNL     C2    2   0.280  -0.141  -0.014
    1UNL     C3    3   0.285  -0.278   0.037
    1UNL     C4    4   0.307  -0.120  -0.142
    1UNL     C5    5   0.323   0.005  -0.220
    1UNL     C6    6   0.185   0.065  -0.263
    1UNL     C7    7   0.163   0.180  -0.174
    1UNL     C8    8   0.048   0.250  -0.162
    1UNL     C9    9  -0.072   0.209  -0.232
    1UNL     O1   10  -0.191   0.204  -0.145
    1UNL    C10   11  -0.166   0.113  -0.032
    1UNL     O2   12  -0.189  -0.029  -0.075
    1UNL    C11   13  -0.191  -0.120   0.034
    1UNL    C12   14  -0.172  -0.259  -0.022
    1UNL     O3   15  -0.251  -0.273  -0.138
    1UNL    C13   16  -0.316  -0.102   0.121
    1UNL     O4   17  -0.284  -0.127   0.251
    1UNL    C14   18  -0.378   0.042   0.106
    1UNL     O5   19  -0.455   0.072   0.222
    1UNL    C15   20  -0.259   0.142   0.095
    1UNL     O6   21  -0.200   0.158   0.227
    1UNL    C16   22   0.290   0.211  -0.107
    1UNL     O7   23   0.311   0.308  -0.039
    1UNL     O8   24   0.382   0.104  -0.128
    1UNL     H1   25   0.256   0.056   0.036
    1UNL     H2   26   0.357  -0.012   0.146
    1UNL     H3   27   0.176  -0.045   0.149
    1UNL     H4   28   0.258  -0.339  -0.052
    1UNL     H5   29   0.382  -0.293   0.087
    1UNL     H6   30   0.205  -0.295   0.101
    1UNL     H7   31   0.315  -0.216  -0.195
    1UNL     H8   32   0.386   0.001  -0.304
    1UNL     H9   33   0.168   0.094  -0.371
    1UNL    H10   34   0.112  -0.016  -0.250
    1UNL    H11   35   0.053   0.345  -0.108
    1UNL    H12   36  -0.078   0.105  -0.277
    1UNL    H13   37  -0.091   0.268  -0.319
    1UNL    H14   38  -0.066   0.114   0.002
    1UNL    H15   39  -0.096  -0.097   0.090
    1UNL    H16   40  -0.215  -0.332   0.051
    1UNL    H17   41  -0.070  -0.289  -0.036
    1UNL    H18   42  -0.244  -0.181  -0.177
    1UNL    H19   43  -0.387  -0.181   0.092
    1UNL    H20   44  -0.357  -0.098   0.309
    1UNL    H21   45  -0.438   0.056   0.016
    1UNL    H22   46  -0.444   0.163   0.250
    1UNL    H23   47  -0.301   0.247   0.074
    1UNL    H24   48  -0.211   0.074   0.284
   0.00000   0.00000   0.00000   0.00000   0.00000   0.00000   0.00000   0.00000   0.00000
Generated with MDTraj, t= 51.0
 48
    1UNL     C1    1   0.285  -0.030   0.081
    1UNL     C2    2   0.303  -0.146  -0.021
    1UNL     C3    3   0.285  -0.283   0.041
    1UNL     C4    4   0.330  -0.133  -0.151
    1UNL     C5    5   0.329  -0.004  -0.221
    1UNL     C6    6   0.186   0.042  -0.253
    1UNL     C7    7   0.161   0.166  -0.180
    1UNL     C8    8   0.053   0.252  -0.167
    1UNL     C9    9  -0.079   0.225  -0.220
    1UNL     O1   10  -0.193   0.222  -0.127
    1UNL    C10   11  -0.174   0.131  -0.020
    1UNL     O2   12  -0.188  -0.008  -0.069
    1UNL    C11   13  -0.178  -0.102   0.036
    1UNL    C12   14  -0.157  -0.241  -0.030
    1UNL     O3   15  -0.255  -0.279  -0.128
    1UNL    C13   16  -0.306  -0.094   0.114
    1UNL     O4   17  -0.282  -0.124   0.246
    1UNL    C14   18  -0.388   0.040   0.100
    1UNL     O5   19  -0.468   0.047   0.222
    1UNL    C15   20  -0.280   0.149   0.095
    1UNL     O6   21  -0.230   0.161   0.225
    1UNL    C16   22   0.292   0.199  -0.113
    1UNL     O7   23   0.302   0.303  -0.050
    1UNL     O8   24   0.382   0.095  -0.130
    1UNL     H1   25   0.176  -0.013   0.095
    1UNL     H2   26   0.316   0.062   0.048
    1UNL     H3   27   0.326  -0.057   0.183
    1UNL     H4   28   0.376  -0.344   0.044
    1UNL     H5   29   0.239  -0.282   0.138
    1UNL     H6   30   0.222  -0.346  -0.018
    1UNL     H7   31   0.340  -0.228  -0.198
    1UNL     H8   32   0.388  -0.005  -0.306
    1UNL     H9   33   0.191   0.054  -0.364
    1UNL    H10   34   0.108  -0.034  -0.236
    1UNL    H11   35   0.060   0.341  -0.107
    1UNL    H12   36  -0.083   0.135  -0.288
    1UNL    H13   37  -0.104   0.305  -0.289
    1UNL    H14   38  -0.075   0.139   0.017
    1UNL    H15   39  -0.091  -0.078   0.100
    1UNL    H16   40  -0.148  -0.324   0.043
    1UNL    H17   41  -0.065  -0.237  -0.086
    1UNL    H18   42  -0.274  -0.197  -0.178
    1UNL    H19   43  -0.373  -0.176   0.080
    1UNL    H20   44  -0.369  -0.134   0.295
    1UNL    H21   45  -0.450   0.053   0.013
    1UNL    H22   46  -0.417   0.099   0.292
    1UNL    H23   47  -0.331   0.249   0.069
    1UNL    H24   48  -0.205   0.077   0.260
   0.00000   0.00000   0.00000   0.00000   0.00000   0.00000   0.00000   0.00000   0.00000
Generated with MDTraj, t= 52.0
 48
    1UNL     C1    1   0.296  -0.053   0.089
    1UNL     C2    2   0.313  -0.166  -0.016
    1UNL     C3    3   0.313  -0.301   0.041
    1UNL     C4    4   0.311  -0.143  -0.148
    1UNL     C5    5   0.299  -0.006  -0.214
    1UNL     C6    6   0.150   0.038  -0.233
    1UNL     C7    7   0.154   0.166  -0.176
    1UNL     C8    8   0.051   0.254  -0.163
    1UNL     C9    9  -0.087   0.226  -0.212
    1UNL     O1   10  -0.192   0.237  -0.115
    1UNL    C10   11  -0.173   0.140  -0.010
    1UNL     O2   12  -0.153   0.007  -0.062
    1UNL    C11   13  -0.161  -0.097   0.036
    1UNL    C12   14  -0.135  -0.230  -0.045
    1UNL     O3   15  -0.251  -0.258  -0.121
    1UNL    C13   16  -0.299  -0.102   0.114
    1UNL     O4   17  -0.272  -0.102   0.256
    1UNL    C14   18  -0.382   0.030   0.082
    1UNL     O5   19  -0.492   0.029   0.174
    1UNL    C15   20  -0.289   0.149   0.101
    1UNL     O6   21  -0.242   0.167   0.238
    1UNL    C16   22   0.287   0.198  -0.128
    1UNL     O7   23   0.311   0.303  -0.069
    1UNL     O8   24   0.370   0.098  -0.143
    1UNL     H1   25   0.212   0.024   0.065
    1UNL     H2   26   0.375   0.016   0.092
    1UNL     H3   27   0.271  -0.081   0.193
    1UNL     H4   28   0.329  -0.305   0.148
    1UNL     H5   29   0.221  -0.348   0.016
    1UNL     H6   30   0.383  -0.375   0.003
    1UNL     H7   31   0.305  -0.234  -0.208
    1UNL     H8   32   0.338  -0.014  -0.309
    1UNL     H9   33   0.107   0.036  -0.335
    1UNL    H10   34   0.093  -0.033  -0.168
    1UNL    H11   35   0.054   0.349  -0.107
    1UNL    H12   36  -0.087   0.116  -0.231
    1UNL    H13   37  -0.110   0.283  -0.301
    1UNL    H14   38  -0.081   0.168   0.039
    1UNL    H15   39  -0.082  -0.076   0.109
    1UNL    H16   40  -0.130  -0.323   0.017
    1UNL    H17   41  -0.052  -0.230  -0.114
    1UNL    H18   42  -0.279  -0.186  -0.180
    1UNL    H19   43  -0.363  -0.192   0.096
    1UNL    H20   44  -0.349  -0.112   0.308
    1UNL    H21   45  -0.422   0.023  -0.017
    1UNL    H22   46  -0.469   0.042   0.269
    1UNL    H23   47  -0.342   0.248   0.077
    1UNL    H24   48  -0.213   0.073   0.273
   0.00000   0.00000   0.00000   0.00000   0.00000   0.00000   0.00000   0.00000   0.00000
Generated with MDTraj, t= 53.0
 48
    1UNL     C1    1   0.299  -0.068   0.089
    1UNL     C2    2   0.304  -0.175  -0.010
    1UNL     C3    3   0.346  -0.311   0.039
    1UNL     C4    4   0.281  -0.154  -0.139
    1UNL     C5    5   0.256  -0.026  -0.207
    1UNL     C6    6   0.117   0.029  -0.207
    1UNL     C7    7   0.145   0.177  -0.172
    1UNL     C8    8   0.051   0.276  -0.162
    1UNL     C9    9  -0.091   0.245  -0.202
    1UNL     O1   10  -0.170   0.245  -0.091
    1UNL    C10   11  -0.167   0.139  -0.001
    1UNL     O2   12  -0.146   0.014  -0.059
    1UNL    C11   13  -0.152  -0.092   0.039
    1UNL    C12   14  -0.119  -0.226  -0.032
    1UNL     O3   15  -0.196  -0.233  -0.141
    1UNL    C13   16  -0.286  -0.101   0.117
    1UNL     O4   17  -0.269  -0.098   0.260
    1UNL    C14   18  -0.384   0.011   0.077
    1UNL     O5   19  -0.494   0.023   0.168
    1UNL    C15   20  -0.304   0.144   0.084
    1UNL     O6   21  -0.270   0.182   0.218
    1UNL    C16   22   0.283   0.194  -0.134
    1UNL     O7   23   0.317   0.303  -0.083
    1UNL     O8   24   0.352   0.076  -0.160
    1UNL     H1   25   0.199  -0.013   0.101
    1UNL     H2   26   0.374   0.017   0.069
    1UNL     H3   27   0.319  -0.104   0.187
    1UNL     H4   28   0.261  -0.353   0.089
    1UNL     H5   29   0.380  -0.364  -0.049
    1UNL     H6   30   0.428  -0.322   0.109
    1UNL     H7   31   0.291  -0.243  -0.197
    1UNL     H8   32   0.289  -0.040  -0.307
    1UNL     H9   33   0.071   0.013  -0.305
    1UNL    H10   34   0.058  -0.023  -0.126
    1UNL    H11   35   0.063   0.375  -0.123
    1UNL    H12   36  -0.108   0.145  -0.250
    1UNL    H13   37  -0.133   0.328  -0.262
    1UNL    H14   38  -0.086   0.165   0.068
    1UNL    H15   39  -0.069  -0.080   0.108
    1UNL    H16   40  -0.138  -0.317   0.030
    1UNL    H17   41  -0.020  -0.229  -0.078
    1UNL    H18   42  -0.210  -0.142  -0.183
    1UNL    H19   43  -0.329  -0.199   0.089
    1UNL    H20   44  -0.349  -0.133   0.300
    1UNL    H21   45  -0.413  -0.015  -0.025
    1UNL    H22   46  -0.465   0.071   0.247
    1UNL    H23   47  -0.366   0.227   0.039
    1UNL    H24   48  -0.214   0.112   0.248
   0.00000   0.00000   0.00000   0.00000   0.00000   0.00000   0.00000   0.00000   0.00000
Generated with MDTraj, t= 54.0
 48
    1UNL     C1    1   0.312  -0.068   0.079
    1UNL     C2    2   0.300  -0.184  -0.008
    1UNL     C3    3   0.320  -0.319   0.051
    1UNL     C4    4   0.280  -0.176  -0.139
    1UNL     C5    5   0.259  -0.041  -0.212
    1UNL     C6    6   0.118   0.017  -0.189
    1UNL     C7    7   0.134   0.164  -0.161
    1UNL     C8    8   0.043   0.265  -0.148
    1UNL     C9    9  -0.097   0.242  -0.194
    1UNL     O1   10  -0.196   0.264  -0.093
    1UNL    C10   11  -0.187   0.162   0.007
    1UNL     O2   12  -0.151   0.038  -0.059
    1UNL    C11   13  -0.140  -0.059   0.037
    1UNL    C12   14  -0.080  -0.188  -0.024
    1UNL     O3   15  -0.154  -0.218  -0.144
    1UNL    C13   16  -0.281  -0.093   0.101
    1UNL     O4   17  -0.252  -0.123   0.243
    1UNL    C14   18  -0.384   0.020   0.078
    1UNL     O5   19  -0.486  -0.006   0.173
    1UNL    C15   20  -0.319   0.157   0.092
    1UNL     O6   21  -0.282   0.179   0.220
    1UNL    C16   22   0.276   0.179  -0.140
    1UNL     O7   23   0.320   0.288  -0.104
    1UNL     O8   24   0.350   0.069  -0.163
    1UNL     H1   25   0.221  -0.055   0.137
    1UNL     H2   26   0.327   0.025   0.006
    1UNL     H3   27   0.401  -0.079   0.140
    1UNL     H4   28   0.296  -0.386  -0.026
    1UNL     H5   29   0.423  -0.315   0.084
    1UNL     H6   30   0.245  -0.342   0.128
    1UNL     H7   31   0.273  -0.271  -0.187
    1UNL     H8   32   0.292  -0.060  -0.316
    1UNL     H9   33   0.052   0.001  -0.276
    1UNL    H10   34   0.072  -0.016  -0.092
    1UNL    H11   35   0.083   0.364  -0.127
    1UNL    H12   36  -0.121   0.138  -0.225
    1UNL    H13   37  -0.132   0.302  -0.280
    1UNL    H14   38  -0.107   0.184   0.083
    1UNL    H15   39  -0.077  -0.018   0.113
    1UNL    H16   40  -0.095  -0.273   0.045
    1UNL    H17   41   0.026  -0.177  -0.044
    1UNL    H18   42  -0.162  -0.129  -0.183
    1UNL    H19   43  -0.328  -0.181   0.056
    1UNL    H20   44  -0.341  -0.144   0.286
    1UNL    H21   45  -0.428   0.012  -0.024
    1UNL    H22   46  -0.556   0.064   0.157
    1UNL    H23   47  -0.395   0.232   0.065
    1UNL    H24   48  -0.250   0.090   0.260
   0.00000   0.00000   0.00000   0.00000   0.00000   0.00000   0.00000   0.00000   0.00000
Generated with MDTraj, t= 55.0
 48
    1UNL     C1    1   0.330  -0.063   0.075
    1UNL     C2    2   0.275  -0.177  -0.011
    1UNL     C3    3   0.283  -0.316   0.049
    1UNL     C4    4   0.242  -0.156  -0.139
    1UNL     C5    5   0.255  -0.024  -0.210
    1UNL     C6    6   0.119   0.033  -0.238
    1UNL     C7    7   0.141   0.178  -0.198
    1UNL     C8    8   0.041   0.263  -0.168
    1UNL     C9    9  -0.103   0.245  -0.200
    1UNL     O1   10  -0.189   0.257  -0.093
    1UNL    C10   11  -0.174   0.155   0.010
    1UNL     O2   12  -0.128   0.022  -0.036
    1UNL    C11   13  -0.134  -0.084   0.061
    1UNL    C12   14  -0.073  -0.213   0.001
    1UNL     O3   15  -0.111  -0.225  -0.136
    1UNL    C13   16  -0.287  -0.109   0.104
    1UNL     O4   17  -0.276  -0.117   0.244
    1UNL    C14   18  -0.382   0.014   0.072
    1UNL     O5   19  -0.504   0.027   0.150
    1UNL    C15   20  -0.302   0.148   0.099
    1UNL     O6   21  -0.270   0.165   0.238
    1UNL    C16   22   0.276   0.188  -0.143
    1UNL     O7   23   0.321   0.292  -0.095
    1UNL     O8   24   0.339   0.069  -0.151
    1UNL     H1   25   0.252   0.007   0.104
    1UNL     H2   26   0.408  -0.014   0.020
    1UNL     H3   27   0.379  -0.112   0.166
    1UNL     H4   28   0.376  -0.359   0.032
    1UNL     H5   29   0.271  -0.291   0.154
    1UNL     H6   30   0.213  -0.391   0.013
    1UNL     H7   31   0.211  -0.239  -0.203
    1UNL     H8   32   0.299  -0.057  -0.312
    1UNL     H9   33   0.093   0.041  -0.348
    1UNL    H10   34   0.034  -0.013  -0.187
    1UNL    H11   35   0.073   0.349  -0.113
    1UNL    H12   36  -0.133   0.155  -0.258
    1UNL    H13   37  -0.138   0.333  -0.259
    1UNL    H14   38  -0.082   0.190   0.068
    1UNL    H15   39  -0.086  -0.047   0.147
    1UNL    H16   40  -0.101  -0.299   0.064
    1UNL    H17   41   0.035  -0.203  -0.001
    1UNL    H18   42  -0.134  -0.130  -0.157
    1UNL    H19   43  -0.325  -0.201   0.060
    1UNL    H20   44  -0.356  -0.153   0.277
    1UNL    H21   45  -0.409  -0.001  -0.036
    1UNL    H22   46  -0.471   0.076   0.230
    1UNL    H23   47  -0.359   0.232   0.065
    1UNL    H24   48  -0.273   0.086   0.292
   0.00000   0.00000   0.00000   0.00000   0.00000   0.00000   0.00000   0.00000   0.00000
Generated with MDTraj, t= 56.0
 48
    1UNL     C1    1   0.350  -0.068   0.074
    1UNL     C2    2   0.283  -0.164  -0.013
    1UNL     C3    3   0.250  -0.297   0.044
    1UNL     C4    4   0.256  -0.154  -0.145
    1UNL     C5    5   0.272  -0.019  -0.229
    1UNL     C6    6   0.134   0.040  -0.260
    1UNL     C7    7   0.138   0.170  -0.197
    1UNL     C8    8   0.036   0.253  -0.166
    1UNL     C9    9  -0.115   0.250  -0.200
    1UNL     O1   10  -0.208   0.245  -0.097
    1UNL    C10   11  -0.168   0.155   0.010
    1UNL     O2   12  -0.117   0.028  -0.024
    1UNL    C11   13  -0.135  -0.073   0.073
    1UNL    C12   14  -0.069  -0.197   0.016
    1UNL     O3   15  -0.133  -0.247  -0.095
    1UNL    C13   16  -0.293  -0.096   0.101
    1UNL     O4   17  -0.306  -0.140   0.234
    1UNL    C14   18  -0.376   0.030   0.067
    1UNL     O5   19  -0.504   0.027   0.138
    1UNL    C15   20  -0.283   0.151   0.102
    1UNL     O6   21  -0.235   0.139   0.236
    1UNL    C16   22   0.274   0.188  -0.143
    1UNL     O7   23   0.303   0.286  -0.076
    1UNL     O8   24   0.353   0.078  -0.168
    1UNL     H1   25   0.333   0.037   0.051
    1UNL     H2   26   0.450  -0.087   0.073
    1UNL     H3   27   0.322  -0.085   0.187
    1UNL     H4   28   0.316  -0.337   0.116
    1UNL     H5   29   0.159  -0.289   0.100
    1UNL     H6   30   0.241  -0.383  -0.020
    1UNL     H7   31   0.217  -0.236  -0.198
    1UNL     H8   32   0.325  -0.042  -0.331
    1UNL     H9   33   0.089   0.036  -0.366
    1UNL    H10   34   0.054  -0.011  -0.206
    1UNL    H11   35   0.078   0.337  -0.110
    1UNL    H12   36  -0.127   0.158  -0.261
    1UNL    H13   37  -0.134   0.338  -0.265
    1UNL    H14   38  -0.083   0.198   0.074
    1UNL    H15   39  -0.078  -0.037   0.153
    1UNL    H16   40  -0.074  -0.281   0.087
    1UNL    H17   41   0.031  -0.175  -0.019
    1UNL    H18   42  -0.165  -0.178  -0.156
    1UNL    H19   43  -0.320  -0.178   0.034
    1UNL    H20   44  -0.400  -0.124   0.261
    1UNL    H21   45  -0.405   0.023  -0.043
    1UNL    H22   46  -0.505   0.090   0.210
    1UNL    H23   47  -0.337   0.241   0.092
    1UNL    H24   48  -0.301   0.077   0.278
   0.00000   0.00000   0.00000   0.00000   0.00000   0.00000   0.00000   0.00000   0.00000
Generated with MDTraj, t= 57.0
 48
    1UNL     C1    1   0.357  -0.049   0.063
    1UNL     C2    2   0.302  -0.163  -0.014
    1UNL     C3    3   0.313  -0.305   0.032
    1UNL     C4    4   0.272  -0.148  -0.143
    1UNL     C5    5   0.267  -0.022  -0.226
    1UNL     C6    6   0.125   0.026  -0.234
    1UNL     C7    7   0.129   0.172  -0.188
    1UNL     C8    8   0.031   0.263  -0.167
    1UNL     C9    9  -0.110   0.224  -0.194
    1UNL     O1   10  -0.195   0.253  -0.095
    1UNL    C10   11  -0.165   0.159   0.007
    1UNL     O2   12  -0.132   0.029  -0.046
    1UNL    C11   13  -0.153  -0.070   0.053
    1UNL    C12   14  -0.087  -0.209   0.017
    1UNL     O3   15  -0.148  -0.271  -0.096
    1UNL    C13   16  -0.310  -0.091   0.085
    1UNL     O4   17  -0.317  -0.149   0.212
    1UNL    C14   18  -0.387   0.037   0.075
    1UNL     O5   19  -0.490   0.048   0.176
    1UNL    C15   20  -0.293   0.157   0.100
    1UNL     O6   21  -0.243   0.160   0.234
    1UNL    C16   22   0.272   0.188  -0.132
    1UNL     O7   23   0.310   0.280  -0.063
    1UNL     O8   24   0.351   0.075  -0.165
    1UNL     H1   25   0.328   0.049   0.026
    1UNL     H2   26   0.462  -0.060   0.074
    1UNL     H3   27   0.324  -0.060   0.167
    1UNL     H4   28   0.400  -0.354  -0.011
    1UNL     H5   29   0.320  -0.315   0.138
    1UNL     H6   30   0.230  -0.362   0.001
    1UNL     H7   31   0.244  -0.237  -0.201
    1UNL     H8   32   0.324  -0.031  -0.331
    1UNL     H9   33   0.086   0.015  -0.342
    1UNL    H10   34   0.057  -0.043  -0.185
    1UNL    H11   35   0.062   0.355  -0.123
    1UNL    H12   36  -0.108   0.116  -0.220
    1UNL    H13   37  -0.135   0.279  -0.287
    1UNL    H14   38  -0.081   0.204   0.070
    1UNL    H15   39  -0.112  -0.032   0.140
    1UNL    H16   40  -0.089  -0.279   0.102
    1UNL    H17   41   0.013  -0.192  -0.017
    1UNL    H18   42  -0.182  -0.211  -0.167
    1UNL    H19   43  -0.352  -0.165   0.015
    1UNL    H20   44  -0.411  -0.178   0.236
    1UNL    H21   45  -0.427   0.047  -0.031
    1UNL    H22   46  -0.548   0.121   0.149
    1UNL    H23   47  -0.337   0.252   0.084
    1UNL    H24   48  -0.251   0.068   0.271
   0.00000   0.00000   0.00000   0.00000   0.00000   0.00000   0.00000   0.00000   0.00000
Generated with MDTraj, t= 58.0
 48
    1UNL     C1    1   0.350  -0.056   0.065
    1UNL     C2    2   0.336  -0.174  -0.024
    1UNL     C3    3   0.362  -0.312   0.023
    1UNL     C4    4   0.296  -0.163  -0.150
    1UNL     C5    5   0.267  -0.027  -0.211
    1UNL     C6    6   0.119   0.024  -0.197
    1UNL     C7    7   0.137   0.169  -0.165
    1UNL     C8    8   0.036   0.257  -0.164
    1UNL     C9    9  -0.103   0.243  -0.209
    1UNL     O1   10  -0.192   0.254  -0.101
    1UNL    C10   11  -0.181   0.145  -0.003
    1UNL     O2   12  -0.156   0.010  -0.052
    1UNL    C11   13  -0.170  -0.086   0.054
    1UNL    C12   14  -0.117  -0.224   0.012
    1UNL     O3   15  -0.150  -0.235  -0.121
    1UNL    C13   16  -0.322  -0.098   0.100
    1UNL     O4   17  -0.313  -0.125   0.244
    1UNL    C14   18  -0.401   0.037   0.067
    1UNL     O5   19  -0.499   0.061   0.177
    1UNL    C15   20  -0.302   0.156   0.092
    1UNL     O6   21  -0.240   0.151   0.217
    1UNL    C16   22   0.278   0.194  -0.130
    1UNL     O7   23   0.318   0.299  -0.093
    1UNL     O8   24   0.351   0.075  -0.147
    1UNL     H1   25   0.249  -0.029   0.094
    1UNL     H2   26   0.406   0.028   0.016
    1UNL     H3   27   0.412  -0.081   0.140
    1UNL     H4   28   0.349  -0.370  -0.069
    1UNL     H5   29   0.463  -0.318   0.058
    1UNL     H6   30   0.293  -0.335   0.099
    1UNL     H7   31   0.279  -0.250  -0.205
    1UNL     H8   32   0.302  -0.009  -0.324
    1UNL     H9   33   0.060   0.018  -0.294
    1UNL    H10   34   0.066  -0.033  -0.121
    1UNL    H11   35   0.060   0.347  -0.109
    1UNL    H12   36  -0.114   0.145  -0.257
    1UNL    H13   37  -0.127   0.316  -0.287
    1UNL    H14   38  -0.093   0.174   0.061
    1UNL    H15   39  -0.121  -0.059   0.141
    1UNL    H16   40  -0.170  -0.304   0.065
    1UNL    H17   41  -0.010  -0.220   0.023
    1UNL    H18   42  -0.171  -0.145  -0.157
    1UNL    H19   43  -0.365  -0.188   0.051
    1UNL    H20   44  -0.388  -0.169   0.279
    1UNL    H21   45  -0.457   0.038  -0.029
    1UNL    H22   46  -0.464   0.032   0.267
    1UNL    H23   47  -0.353   0.251   0.087
    1UNL    H24   48  -0.254   0.064   0.247
   0.00000   0.00000   0.00000   0.00000   0.00000   0.00000   0.00000   0.00000   0.00000
Generated with MDTraj, t= 59.0
 48
    1UNL     C1    1   0.348  -0.080   0.087
    1UNL     C2    2   0.354  -0.178  -0.024
    1UNL     C3    3   0.387  -0.321   0.021
    1UNL     C4    4   0.319  -0.153  -0.151
    1UNL     C5    5   0.281  -0.021  -0.200
    1UNL     C6    6   0.133   0.011  -0.176
    1UNL     C7    7   0.134   0.161  -0.167
    1UNL     C8    8   0.033   0.249  -0.176
    1UNL     C9    9  -0.109   0.223  -0.198
    1UNL     O1   10  -0.197   0.245  -0.092
    1UNL    C10   11  -0.181   0.148   0.005
    1UNL     O2   12  -0.152   0.021  -0.046
    1UNL    C11   13  -0.171  -0.088   0.053
    1UNL    C12   14  -0.122  -0.220  -0.024
    1UNL     O3   15  -0.195  -0.225  -0.142
    1UNL    C13   16  -0.319  -0.093   0.111
    1UNL     O4   17  -0.303  -0.117   0.249
    1UNL    C14   18  -0.393   0.036   0.073
    1UNL     O5   19  -0.500   0.051   0.169
    1UNL    C15   20  -0.303   0.157   0.099
    1UNL     O6   21  -0.258   0.170   0.228
    1UNL    C16   22   0.277   0.197  -0.142
    1UNL     O7   23   0.308   0.303  -0.102
    1UNL     O8   24   0.356   0.088  -0.158
    1UNL     H1   25   0.250  -0.047   0.092
    1UNL     H2   26   0.417   0.008   0.079
    1UNL     H3   27   0.374  -0.120   0.182
    1UNL     H4   28   0.297  -0.384   0.014
    1UNL     H5   29   0.461  -0.364  -0.043
    1UNL     H6   30   0.433  -0.317   0.116
    1UNL     H7   31   0.304  -0.238  -0.220
    1UNL     H8   32   0.287  -0.009  -0.316
    1UNL     H9   33   0.074  -0.034  -0.261
    1UNL    H10   34   0.103  -0.031  -0.077
    1UNL    H11   35   0.060   0.348  -0.147
    1UNL    H12   36  -0.133   0.127  -0.245
    1UNL    H13   37  -0.147   0.293  -0.271
    1UNL    H14   38  -0.090   0.178   0.060
    1UNL    H15   39  -0.110  -0.076   0.135
    1UNL    H16   40  -0.152  -0.310   0.031
    1UNL    H17   41  -0.014  -0.210  -0.043
    1UNL    H18   42  -0.221  -0.132  -0.164
    1UNL    H19   43  -0.368  -0.177   0.056
    1UNL    H20   44  -0.400  -0.108   0.284
    1UNL    H21   45  -0.429   0.037  -0.030
    1UNL    H22   46  -0.577   0.094   0.129
    1UNL    H23   47  -0.356   0.250   0.077
    1UNL    H24   48  -0.243   0.075   0.266
   0.00000   0.00000   0.00000   0.00000   0.00000   0.00000   0.00000   0.00000   0.00000
Generated with MDTraj, t= 60.0
 48
    1UNL     C1    1   0.350  -0.067   0.087
    1UNL     C2    2   0.344  -0.178  -0.016
    1UNL     C3    3   0.400  -0.304   0.030
    1UNL     C4    4   0.316  -0.158  -0.145
    1UNL     C5    5   0.292  -0.026  -0.210
    1UNL     C6    6   0.138   0.024  -0.214
    1UNL     C7    7   0.140   0.167  -0.185
    1UNL     C8    8   0.039   0.256  -0.179
    1UNL     C9    9  -0.107   0.222  -0.197
    1UNL     O1   10  -0.186   0.251  -0.083
    1UNL    C10   11  -0.168   0.147   0.014
    1UNL     O2   12  -0.153   0.016  -0.051
    1UNL    C11   13  -0.163  -0.096   0.043
    1UNL    C12   14  -0.138  -0.220  -0.037
    1UNL     O3   15  -0.241  -0.237  -0.130
    1UNL    C13   16  -0.307  -0.096   0.113
    1UNL     O4   17  -0.296  -0.106   0.249
    1UNL    C14   18  -0.393   0.027   0.077
    1UNL     O5   19  -0.510   0.046   0.157
    1UNL    C15   20  -0.303   0.154   0.101
    1UNL     O6   21  -0.280   0.178   0.235
    1UNL    C16   22   0.282   0.193  -0.139
    1UNL     O7   23   0.312   0.297  -0.090
    1UNL     O8   24   0.360   0.085  -0.148
    1UNL     H1   25   0.254  -0.035   0.100
    1UNL     H2   26   0.413   0.019   0.068
    1UNL     H3   27   0.385  -0.098   0.190
    1UNL     H4   28   0.381  -0.333   0.134
    1UNL     H5   29   0.355  -0.392  -0.014
    1UNL     H6   30   0.500  -0.310  -0.007
    1UNL     H7   31   0.317  -0.242  -0.210
    1UNL     H8   32   0.325  -0.024  -0.317
    1UNL     H9   33   0.081  -0.002  -0.306
    1UNL    H10   34   0.096  -0.024  -0.118
    1UNL    H11   35   0.063   0.358  -0.155
    1UNL    H12   36  -0.118   0.114  -0.211
    1UNL    H13   37  -0.150   0.264  -0.287
    1UNL    H14   38  -0.081   0.161   0.078
    1UNL    H15   39  -0.098  -0.088   0.125
    1UNL    H16   40  -0.146  -0.306   0.031
    1UNL    H17   41  -0.043  -0.208  -0.095
    1UNL    H18   42  -0.271  -0.149  -0.164
    1UNL    H19   43  -0.351  -0.191   0.074
    1UNL    H20   44  -0.354  -0.177   0.275
    1UNL    H21   45  -0.416   0.018  -0.027
    1UNL    H22   46  -0.479   0.076   0.244
    1UNL    H23   47  -0.363   0.242   0.068
    1UNL    H24   48  -0.262   0.094   0.279
   0.00000   0.00000   0.00000   0.00000   0.00000   0.00000   0.00000   0.00000   0.00000
Generated with MDTraj, t= 61.0
 48
    1UNL     C1    1   0.357  -0.029   0.057
    1UNL     C2    2   0.334  -0.155  -0.021
    1UNL     C3    3   0.353  -0.288   0.047
    1UNL     C4    4   0.317  -0.148  -0.152
    1UNL     C5    5   0.289  -0.024  -0.222
    1UNL     C6    6   0.139   0.025  -0.221
    1UNL     C7    7   0.151   0.159  -0.152
    1UNL     C8    8   0.051   0.248  -0.128
    1UNL     C9    9  -0.088   0.237  -0.193
    1UNL     O1   10  -0.190   0.244  -0.100
    1UNL    C10   11  -0.188   0.132  -0.014
    1UNL     O2   12  -0.178   0.002  -0.066
    1UNL    C11   13  -0.170  -0.098   0.043
    1UNL    C12   14  -0.152  -0.228  -0.023
    1UNL     O3   15  -0.246  -0.252  -0.134
    1UNL    C13   16  -0.310  -0.097   0.115
    1UNL     O4   17  -0.294  -0.101   0.255
    1UNL    C14   18  -0.399   0.030   0.082
    1UNL     O5   19  -0.508   0.030   0.176
    1UNL    C15   20  -0.302   0.152   0.095
    1UNL     O6   21  -0.253   0.171   0.220
    1UNL    C16   22   0.296   0.191  -0.124
    1UNL     O7   23   0.336   0.295  -0.076
    1UNL     O8   24   0.376   0.080  -0.168
    1UNL     H1   25   0.260   0.020   0.055
    1UNL     H2   26   0.429   0.030   0.014
    1UNL     H3   27   0.392  -0.047   0.163
    1UNL     H4   28   0.431  -0.291   0.123
    1UNL     H5   29   0.276  -0.311   0.120
    1UNL     H6   30   0.352  -0.371  -0.023
    1UNL     H7   31   0.332  -0.239  -0.209
    1UNL     H8   32   0.322  -0.033  -0.325
    1UNL     H9   33   0.109   0.038  -0.326
    1UNL    H10   34   0.071  -0.053  -0.169
    1UNL    H11   35   0.072   0.347  -0.091
    1UNL    H12   36  -0.101   0.150  -0.257
    1UNL    H13   37  -0.104   0.327  -0.252
    1UNL    H14   38  -0.096   0.134   0.039
    1UNL    H15   39  -0.102  -0.065   0.117
    1UNL    H16   40  -0.176  -0.310   0.047
    1UNL    H17   41  -0.047  -0.233  -0.062
    1UNL    H18   42  -0.255  -0.174  -0.192
    1UNL    H19   43  -0.359  -0.190   0.085
    1UNL    H20   44  -0.372  -0.141   0.290
    1UNL    H21   45  -0.438   0.028  -0.018
    1UNL    H22   46  -0.482   0.075   0.261
    1UNL    H23   47  -0.358   0.246   0.066
    1UNL    H24   48  -0.209   0.090   0.252
   0.00000   0.00000   0.00000   0.00000   0.00000   0.00000   0.00000   0.00000   0.00000
Generated with MDTraj, t= 62.0
 48
    1UNL     C1    1   0.362  -0.023   0.069
    1UNL     C2    2   0.320  -0.143  -0.010
    1UNL     C3    3   0.302  -0.274   0.055
    1UNL     C4    4   0.297  -0.134  -0.141
    1UNL     C5    5   0.301  -0.013  -0.230
    1UNL     C6    6   0.158   0.041  -0.246
    1UNL     C7    7   0.158   0.162  -0.176
    1UNL     C8    8   0.056   0.248  -0.167
    1UNL     C9    9  -0.087   0.217  -0.208
    1UNL     O1   10  -0.178   0.239  -0.101
    1UNL    C10   11  -0.176   0.133  -0.004
    1UNL     O2   12  -0.178   0.005  -0.064
    1UNL    C11   13  -0.185  -0.107   0.032
    1UNL    C12   14  -0.148  -0.234  -0.031
    1UNL     O3   15  -0.241  -0.266  -0.135
    1UNL    C13   16  -0.315  -0.104   0.111
    1UNL     O4   17  -0.292  -0.124   0.244
    1UNL    C14   18  -0.393   0.028   0.097
    1UNL     O5   19  -0.489   0.029   0.202
    1UNL    C15   20  -0.300   0.156   0.099
    1UNL     O6   21  -0.258   0.183   0.231
    1UNL    C16   22   0.293   0.190  -0.126
    1UNL     O7   23   0.339   0.276  -0.052
    1UNL     O8   24   0.381   0.091  -0.166
    1UNL     H1   25   0.268   0.035   0.097
    1UNL     H2   26   0.425   0.042   0.019
    1UNL     H3   27   0.418  -0.048   0.159
    1UNL     H4   28   0.361  -0.355   0.018
    1UNL     H5   29   0.322  -0.254   0.159
    1UNL     H6   30   0.194  -0.294   0.037
    1UNL     H7   31   0.272  -0.226  -0.192
    1UNL     H8   32   0.351  -0.041  -0.319
    1UNL     H9   33   0.131   0.046  -0.354
    1UNL    H10   34   0.080  -0.024  -0.192
    1UNL    H11   35   0.069   0.347  -0.125
    1UNL    H12   36  -0.100   0.113  -0.237
    1UNL    H13   37  -0.119   0.282  -0.290
    1UNL    H14   38  -0.091   0.137   0.058
    1UNL    H15   39  -0.108  -0.079   0.101
    1UNL    H16   40  -0.152  -0.314   0.044
    1UNL    H17   41  -0.047  -0.240  -0.077
    1UNL    H18   42  -0.234  -0.199  -0.209
    1UNL    H19   43  -0.370  -0.186   0.069
    1UNL    H20   44  -0.385  -0.115   0.289
    1UNL    H21   45  -0.452   0.036   0.007
    1UNL    H22   46  -0.496   0.110   0.258
    1UNL    H23   47  -0.354   0.248   0.058
    1UNL    H24   48  -0.269   0.092   0.282
   0.00000   0.00000   0.00000   0.00000   0.00000   0.00000   0.00000   0.00000   0.00000
Generated with MDTraj, t= 63.0
 48
    1UNL     C1    1   0.354  -0.035   0.086
    1UNL     C2    2   0.302  -0.142  -0.007
    1UNL     C3    3   0.270  -0.276   0.062
    1UNL     C4    4   0.272  -0.131  -0.135
    1UNL     C5    5   0.309  -0.018  -0.219
    1UNL     C6    6   0.178   0.042  -0.260
    1UNL     C7    7   0.152   0.160  -0.183
    1UNL     C8    8   0.041   0.236  -0.166
    1UNL     C9    9  -0.099   0.219  -0.214
    1UNL     O1   10  -0.192   0.234  -0.106
    1UNL    C10   11  -0.167   0.137  -0.007
    1UNL     O2   12  -0.166   0.013  -0.067
    1UNL    C11   13  -0.170  -0.099   0.032
    1UNL    C12   14  -0.138  -0.229  -0.034
    1UNL     O3   15  -0.239  -0.245  -0.132
    1UNL    C13   16  -0.304  -0.105   0.112
    1UNL     O4   17  -0.287  -0.122   0.252
    1UNL    C14   18  -0.377   0.028   0.097
    1UNL     O5   19  -0.487   0.038   0.181
    1UNL    C15   20  -0.282   0.148   0.109
    1UNL     O6   21  -0.222   0.143   0.234
    1UNL    C16   22   0.288   0.192  -0.126
    1UNL     O7   23   0.309   0.302  -0.073
    1UNL     O8   24   0.376   0.087  -0.149
    1UNL     H1   25   0.288   0.056   0.077
    1UNL     H2   26   0.460  -0.005   0.058
    1UNL     H3   27   0.361  -0.068   0.184
    1UNL     H4   28   0.203  -0.343   0.011
    1UNL     H5   29   0.361  -0.320   0.097
    1UNL     H6   30   0.205  -0.243   0.148
    1UNL     H7   31   0.224  -0.211  -0.188
    1UNL     H8   32   0.357  -0.061  -0.301
    1UNL     H9   33   0.175   0.078  -0.368
    1UNL    H10   34   0.098  -0.037  -0.258
    1UNL    H11   35   0.049   0.316  -0.095
    1UNL    H12   36  -0.125   0.128  -0.272
    1UNL    H13   37  -0.127   0.305  -0.278
    1UNL    H14   38  -0.076   0.155   0.043
    1UNL    H15   39  -0.092  -0.076   0.105
    1UNL    H16   40  -0.147  -0.314   0.034
    1UNL    H17   41  -0.034  -0.232  -0.072
    1UNL    H18   42  -0.236  -0.164  -0.186
    1UNL    H19   43  -0.357  -0.194   0.081
    1UNL    H20   44  -0.366  -0.154   0.297
    1UNL    H21   45  -0.426   0.037  -0.002
    1UNL    H22   46  -0.499   0.123   0.224
    1UNL    H23   47  -0.331   0.249   0.093
    1UNL    H24   48  -0.236   0.061   0.276
   0.00000   0.00000   0.00000   0.00000   0.00000   0.00000   0.00000   0.00000   0.00000
Generated with MDTraj, t= 64.0
 48
    1UNL     C1    1   0.330  -0.039   0.086
    1UNL     C2    2   0.277  -0.153   0.011
    1UNL     C3    3   0.244  -0.286   0.069
    1UNL     C4    4   0.262  -0.143  -0.119
    1UNL     C5    5   0.282  -0.015  -0.206
    1UNL     C6    6   0.142   0.041  -0.241
    1UNL     C7    7   0.136   0.177  -0.182
    1UNL     C8    8   0.043   0.273  -0.191
    1UNL     C9    9  -0.091   0.236  -0.222
    1UNL     O1   10  -0.182   0.227  -0.108
    1UNL    C10   11  -0.153   0.125  -0.012
    1UNL     O2   12  -0.134  -0.006  -0.067
    1UNL    C11   13  -0.151  -0.107   0.037
    1UNL    C12   14  -0.131  -0.240  -0.033
    1UNL     O3   15  -0.212  -0.247  -0.146
    1UNL    C13   16  -0.291  -0.108   0.108
    1UNL     O4   17  -0.281  -0.136   0.250
    1UNL    C14   18  -0.366   0.034   0.091
    1UNL     O5   19  -0.465   0.057   0.182
    1UNL    C15   20  -0.267   0.150   0.102
    1UNL     O6   21  -0.225   0.145   0.231
    1UNL    C16   22   0.273   0.202  -0.131
    1UNL     O7   23   0.306   0.311  -0.081
    1UNL     O8   24   0.358   0.093  -0.138
    1UNL     H1   25   0.266   0.049   0.062
    1UNL     H2   26   0.436  -0.019   0.039
    1UNL     H3   27   0.342  -0.065   0.188
    1UNL     H4   28   0.146  -0.283   0.116
    1UNL     H5   29   0.257  -0.365  -0.003
    1UNL     H6   30   0.304  -0.319   0.157
    1UNL     H7   31   0.218  -0.223  -0.180
    1UNL     H8   32   0.324  -0.046  -0.296
    1UNL     H9   33   0.103   0.029  -0.349
    1UNL    H10   34   0.062  -0.017  -0.190
    1UNL    H11   35   0.065   0.368  -0.148
    1UNL    H12   36  -0.105   0.138  -0.273
    1UNL    H13   37  -0.146   0.305  -0.290
    1UNL    H14   38  -0.062   0.147   0.037
    1UNL    H15   39  -0.074  -0.093   0.115
    1UNL    H16   40  -0.158  -0.314   0.039
    1UNL    H17   41  -0.025  -0.252  -0.059
    1UNL    H18   42  -0.214  -0.158  -0.188
    1UNL    H19   43  -0.347  -0.194   0.072
    1UNL    H20   44  -0.366  -0.171   0.278
    1UNL    H21   45  -0.419   0.035  -0.009
    1UNL    H22   46  -0.429   0.092   0.266
    1UNL    H23   47  -0.322   0.245   0.081
    1UNL    H24   48  -0.217   0.048   0.266
   0.00000   0.00000   0.00000   0.00000   0.00000   0.00000   0.00000   0.00000   0.00000
Generated with MDTraj, t= 65.0
 48
    1UNL     C1    1   0.280  -0.035   0.107
    1UNL     C2    2   0.251  -0.159   0.028
    1UNL     C3    3   0.263  -0.298   0.091
    1UNL     C4    4   0.253  -0.153  -0.104
    1UNL     C5    5   0.246  -0.029  -0.188
    1UNL     C6    6   0.116   0.034  -0.212
    1UNL     C7    7   0.130   0.179  -0.176
    1UNL     C8    8   0.035   0.273  -0.180
    1UNL     C9    9  -0.102   0.249  -0.225
    1UNL     O1   10  -0.196   0.255  -0.118
    1UNL    C10   11  -0.160   0.148  -0.023
    1UNL     O2   12  -0.151   0.014  -0.081
    1UNL    C11   13  -0.138  -0.085   0.022
    1UNL    C12   14  -0.099  -0.219  -0.048
    1UNL     O3   15  -0.189  -0.264  -0.142
    1UNL    C13   16  -0.273  -0.103   0.088
    1UNL     O4   17  -0.259  -0.143   0.221
    1UNL    C14   18  -0.358   0.031   0.095
    1UNL     O5   19  -0.458   0.038   0.197
    1UNL    C15   20  -0.254   0.150   0.107
    1UNL     O6   21  -0.182   0.127   0.224
    1UNL    C16   22   0.274   0.196  -0.132
    1UNL     O7   23   0.316   0.306  -0.094
    1UNL     O8   24   0.343   0.076  -0.145
    1UNL     H1   25   0.193   0.012   0.152
    1UNL     H2   26   0.333   0.039   0.047
    1UNL     H3   27   0.357  -0.067   0.190
    1UNL     H4   28   0.313  -0.290   0.187
    1UNL     H5   29   0.170  -0.355   0.100
    1UNL     H6   30   0.320  -0.372   0.033
    1UNL     H7   31   0.240  -0.236  -0.167
    1UNL     H8   32   0.293  -0.061  -0.280
    1UNL     H9   33   0.093   0.014  -0.324
    1UNL    H10   34   0.030  -0.017  -0.169
    1UNL    H11   35   0.058   0.373  -0.143
    1UNL    H12   36  -0.116   0.148  -0.269
    1UNL    H13   37  -0.142   0.322  -0.301
    1UNL    H14   38  -0.063   0.171   0.016
    1UNL    H15   39  -0.053  -0.056   0.089
    1UNL    H16   40  -0.085  -0.292   0.028
    1UNL    H17   41  -0.003  -0.198  -0.095
    1UNL    H18   42  -0.218  -0.191  -0.202
    1UNL    H19   43  -0.336  -0.179   0.036
    1UNL    H20   44  -0.352  -0.121   0.256
    1UNL    H21   45  -0.407   0.041  -0.008
    1UNL    H22   46  -0.509   0.121   0.178
    1UNL    H23   47  -0.316   0.240   0.111
    1UNL    H24   48  -0.179   0.032   0.251
   0.00000   0.00000   0.00000   0.00000   0.00000   0.00000   0.00000   0.00000   0.00000
Generated with MDTraj, t= 66.0
 48
    1UNL     C1    1   0.232  -0.034   0.102
    1UNL     C2    2   0.240  -0.161   0.032
    1UNL     C3    3   0.265  -0.279   0.116
    1UNL     C4    4   0.253  -0.165  -0.102
    1UNL     C5    5   0.249  -0.038  -0.187
    1UNL     C6    6   0.109   0.027  -0.202
    1UNL     C7    7   0.132   0.172  -0.185
    1UNL     C8    8   0.044   0.273  -0.195
    1UNL     C9    9  -0.105   0.265  -0.217
    1UNL     O1   10  -0.190   0.262  -0.103
    1UNL    C10   11  -0.155   0.153  -0.023
    1UNL     O2   12  -0.148   0.022  -0.082
    1UNL    C11   13  -0.142  -0.088   0.014
    1UNL    C12   14  -0.099  -0.220  -0.058
    1UNL     O3   15  -0.181  -0.257  -0.164
    1UNL    C13   16  -0.277  -0.108   0.078
    1UNL     O4   17  -0.250  -0.159   0.210
    1UNL    C14   18  -0.348   0.029   0.101
    1UNL     O5   19  -0.429   0.020   0.218
    1UNL    C15   20  -0.249   0.148   0.095
    1UNL     O6   21  -0.176   0.146   0.218
    1UNL    C16   22   0.268   0.191  -0.137
    1UNL     O7   23   0.307   0.300  -0.101
    1UNL     O8   24   0.336   0.076  -0.134
    1UNL     H1   25   0.138   0.021   0.082
    1UNL     H2   26   0.316   0.024   0.072
    1UNL     H3   27   0.248  -0.048   0.219
    1UNL     H4   28   0.375  -0.281   0.124
    1UNL     H5   29   0.221  -0.263   0.217
    1UNL     H6   30   0.217  -0.368   0.080
    1UNL     H7   31   0.257  -0.258  -0.161
    1UNL     H8   32   0.295  -0.060  -0.286
    1UNL     H9   33   0.044   0.016  -0.297
    1UNL    H10   34   0.048  -0.022  -0.124
    1UNL    H11   35   0.073   0.373  -0.172
    1UNL    H12   36  -0.127   0.175  -0.276
    1UNL    H13   37  -0.130   0.358  -0.277
    1UNL    H14   38  -0.060   0.177   0.028
    1UNL    H15   39  -0.065  -0.065   0.094
    1UNL    H16   40  -0.107  -0.296   0.018
    1UNL    H17   41   0.007  -0.223  -0.083
    1UNL    H18   42  -0.202  -0.181  -0.222
    1UNL    H19   43  -0.342  -0.185   0.025
    1UNL    H20   44  -0.324  -0.131   0.264
    1UNL    H21   45  -0.411   0.033   0.006
    1UNL    H22   46  -0.487   0.098   0.216
    1UNL    H23   47  -0.314   0.233   0.098
    1UNL    H24   48  -0.221   0.124   0.296
   0.00000   0.00000   0.00000   0.00000   0.00000   0.00000   0.00000   0.00000   0.00000
Generated with MDTraj, t= 67.0
 48
    1UNL     C1    1   0.220  -0.011   0.111
    1UNL     C2    2   0.235  -0.139   0.035
    1UNL     C3    3   0.225  -0.261   0.127
    1UNL     C4    4   0.249  -0.141  -0.099
    1UNL     C5    5   0.276  -0.026  -0.195
    1UNL     C6    6   0.139   0.034  -0.230
    1UNL     C7    7   0.149   0.176  -0.203
    1UNL     C8    8   0.042   0.261  -0.190
    1UNL     C9    9  -0.106   0.231  -0.218
    1UNL     O1   10  -0.191   0.235  -0.107
    1UNL    C10   11  -0.156   0.137  -0.013
    1UNL     O2   12  -0.138   0.011  -0.077
    1UNL    C11   13  -0.152  -0.104   0.016
    1UNL    C12   14  -0.127  -0.227  -0.066
    1UNL     O3   15  -0.195  -0.221  -0.187
    1UNL    C13   16  -0.285  -0.114   0.089
    1UNL     O4   17  -0.264  -0.172   0.222
    1UNL    C14   18  -0.350   0.025   0.108
    1UNL     O5   19  -0.420   0.018   0.233
    1UNL    C15   20  -0.253   0.148   0.106
    1UNL     O6   21  -0.166   0.145   0.221
    1UNL    C16   22   0.283   0.194  -0.142
    1UNL     O7   23   0.318   0.301  -0.103
    1UNL     O8   24   0.356   0.080  -0.147
    1UNL     H1   25   0.186   0.071   0.037
    1UNL     H2   26   0.319   0.012   0.150
    1UNL     H3   27   0.153  -0.023   0.195
    1UNL     H4   28   0.299  -0.336   0.094
    1UNL     H5   29   0.264  -0.226   0.226
    1UNL     H6   30   0.124  -0.289   0.149
    1UNL     H7   31   0.237  -0.233  -0.147
    1UNL     H8   32   0.318  -0.066  -0.296
    1UNL     H9   33   0.125  -0.002  -0.339
    1UNL    H10   34   0.054  -0.003  -0.166
    1UNL    H11   35   0.053   0.361  -0.148
    1UNL    H12   36  -0.111   0.133  -0.267
    1UNL    H13   37  -0.149   0.307  -0.289
    1UNL    H14   38  -0.054   0.171   0.019
    1UNL    H15   39  -0.079  -0.089   0.103
    1UNL    H16   40  -0.139  -0.327  -0.022
    1UNL    H17   41  -0.018  -0.227  -0.090
    1UNL    H18   42  -0.197  -0.126  -0.215
    1UNL    H19   43  -0.351  -0.190   0.037
    1UNL    H20   44  -0.339  -0.142   0.284
    1UNL    H21   45  -0.426   0.025   0.024
    1UNL    H22   46  -0.472   0.098   0.250
    1UNL    H23   47  -0.316   0.234   0.089
    1UNL    H24   48  -0.208   0.103   0.305
   0.00000   0.00000   0.00000   0.00000   0.00000   0.00000   0.00000   0.00000   0.00000
Generated with MDTraj, t= 68.0
 48
    1UNL     C1    1   0.231   0.021   0.094
    1UNL     C2    2   0.220  -0.116   0.037
    1UNL     C3    3   0.181  -0.230   0.122
    1UNL     C4    4   0.263  -0.141  -0.088
    1UNL     C5    5   0.285  -0.030  -0.189
    1UNL     C6    6   0.149   0.030  -0.244
    1UNL     C7    7   0.149   0.172  -0.202
    1UNL     C8    8   0.045   0.253  -0.185
    1UNL     C9    9  -0.102   0.225  -0.209
    1UNL     O1   10  -0.174   0.243  -0.088
    1UNL    C10   11  -0.148   0.128  -0.008
    1UNL     O2   12  -0.155   0.002  -0.083
    1UNL    C11   13  -0.153  -0.113   0.002
    1UNL    C12   14  -0.123  -0.234  -0.078
    1UNL     O3   15  -0.226  -0.252  -0.170
    1UNL    C13   16  -0.291  -0.114   0.086
    1UNL     O4   17  -0.270  -0.161   0.217
    1UNL    C14   18  -0.344   0.026   0.103
    1UNL     O5   19  -0.428   0.035   0.218
    1UNL    C15   20  -0.235   0.134   0.120
    1UNL     O6   21  -0.145   0.099   0.227
    1UNL    C16   22   0.285   0.205  -0.144
    1UNL     O7   23   0.320   0.315  -0.112
    1UNL     O8   24   0.356   0.087  -0.136
    1UNL     H1   25   0.149   0.085   0.062
    1UNL     H2   26   0.322   0.072   0.047
    1UNL     H3   27   0.246   0.031   0.196
    1UNL     H4   28   0.169  -0.323   0.062
    1UNL     H5   29   0.265  -0.263   0.187
    1UNL     H6   30   0.099  -0.214   0.191
    1UNL     H7   31   0.272  -0.248  -0.115
    1UNL     H8   32   0.347  -0.074  -0.279
    1UNL     H9   33   0.141   0.017  -0.357
    1UNL    H10   34   0.078  -0.030  -0.179
    1UNL    H11   35   0.073   0.345  -0.138
    1UNL    H12   36  -0.130   0.130  -0.254
    1UNL    H13   37  -0.135   0.303  -0.280
    1UNL    H14   38  -0.045   0.134   0.037
    1UNL    H15   39  -0.070  -0.087   0.076
    1UNL    H16   40  -0.134  -0.323  -0.012
    1UNL    H17   41  -0.022  -0.255  -0.124
    1UNL    H18   42  -0.239  -0.163  -0.208
    1UNL    H19   43  -0.370  -0.173   0.031
    1UNL    H20   44  -0.347  -0.141   0.268
    1UNL    H21   45  -0.402   0.071   0.021
    1UNL    H22   46  -0.445   0.129   0.242
    1UNL    H23   47  -0.281   0.230   0.142
    1UNL    H24   48  -0.187   0.059   0.304
   0.00000   0.00000   0.00000   0.00000   0.00000   0.00000   0.00000   0.00000   0.00000
Generated with MDTraj, t= 69.0
 48
    1UNL     C1    1   0.254   0.036   0.111
    1UNL     C2    2   0.218  -0.099   0.056
    1UNL     C3    3   0.196  -0.221   0.140
    1UNL     C4    4   0.226  -0.117  -0.078
    1UNL     C5    5   0.255  -0.021  -0.181
    1UNL     C6    6   0.126   0.047  -0.233
    1UNL     C7    7   0.143   0.195  -0.197
    1UNL     C8    8   0.050   0.291  -0.181
    1UNL     C9    9  -0.092   0.254  -0.208
    1UNL     O1   10  -0.170   0.234  -0.092
    1UNL    C10   11  -0.131   0.112  -0.024
    1UNL     O2   12  -0.141  -0.015  -0.093
    1UNL    C11   13  -0.142  -0.125   0.003
    1UNL    C12   14  -0.146  -0.258  -0.063
    1UNL     O3   15  -0.256  -0.272  -0.151
    1UNL    C13   16  -0.285  -0.115   0.079
    1UNL     O4   17  -0.279  -0.171   0.207
    1UNL    C14   18  -0.339   0.030   0.090
    1UNL     O5   19  -0.425   0.042   0.207
    1UNL    C15   20  -0.216   0.124   0.106
    1UNL     O6   21  -0.143   0.075   0.217
    1UNL    C16   22   0.286   0.206  -0.153
    1UNL     O7   23   0.344   0.303  -0.115
    1UNL     O8   24   0.352   0.077  -0.144
    1UNL     H1   25   0.178   0.100   0.125
    1UNL     H2   26   0.330   0.094   0.050
    1UNL     H3   27   0.298   0.029   0.207
    1UNL     H4   28   0.102  -0.272   0.109
    1UNL     H5   29   0.265  -0.301   0.113
    1UNL     H6   30   0.203  -0.211   0.250
    1UNL     H7   31   0.223  -0.217  -0.113
    1UNL     H8   32   0.301  -0.073  -0.277
    1UNL     H9   33   0.119   0.052  -0.347
    1UNL    H10   34   0.045  -0.005  -0.173
    1UNL    H11   35   0.081   0.388  -0.143
    1UNL    H12   36  -0.093   0.169  -0.273
    1UNL    H13   37  -0.148   0.327  -0.265
    1UNL    H14   38  -0.024   0.120   0.007
    1UNL    H15   39  -0.058  -0.102   0.078
    1UNL    H16   40  -0.127  -0.349   0.002
    1UNL    H17   41  -0.057  -0.260  -0.133
    1UNL    H18   42  -0.266  -0.187  -0.199
    1UNL    H19   43  -0.349  -0.181   0.015
    1UNL    H20   44  -0.368  -0.159   0.256
    1UNL    H21   45  -0.393   0.060   0.004
    1UNL    H22   46  -0.397   0.110   0.276
    1UNL    H23   47  -0.244   0.229   0.124
    1UNL    H24   48  -0.182  -0.004   0.254
   0.00000   0.00000   0.00000   0.00000   0.00000   0.00000   0.00000   0.00000   0.00000
Generated with MDTraj, t= 70.0
 48
    1UNL     C1    1   0.301   0.034   0.128
    1UNL     C2    2   0.246  -0.089   0.068
    1UNL     C3    3   0.213  -0.202   0.162
    1UNL     C4    4   0.216  -0.119  -0.062
    1UNL     C5    5   0.250  -0.030  -0.175
    1UNL     C6    6   0.121   0.034  -0.226
    1UNL     C7    7   0.138   0.175  -0.189
    1UNL     C8    8   0.045   0.271  -0.186
    1UNL     C9    9  -0.102   0.264  -0.211
    1UNL     O1   10  -0.184   0.238  -0.099
    1UNL    C10   11  -0.136   0.115  -0.026
    1UNL     O2   12  -0.151  -0.004  -0.096
    1UNL    C11   13  -0.158  -0.120  -0.016
    1UNL    C12   14  -0.159  -0.249  -0.091
    1UNL     O3   15  -0.260  -0.266  -0.182
    1UNL    C13   16  -0.291  -0.115   0.081
    1UNL     O4   17  -0.263  -0.180   0.198
    1UNL    C14   18  -0.340   0.027   0.102
    1UNL     O5   19  -0.419   0.048   0.218
    1UNL    C15   20  -0.214   0.118   0.104
    1UNL     O6   21  -0.136   0.083   0.217
    1UNL    C16   22   0.284   0.199  -0.153
    1UNL     O7   23   0.331   0.305  -0.117
    1UNL     O8   24   0.352   0.071  -0.142
    1UNL     H1   25   0.251   0.119   0.086
    1UNL     H2   26   0.398   0.040   0.102
    1UNL     H3   27   0.284   0.032   0.235
    1UNL     H4   28   0.104  -0.224   0.154
    1UNL     H5   29   0.263  -0.295   0.141
    1UNL     H6   30   0.240  -0.173   0.267
    1UNL     H7   31   0.175  -0.218  -0.081
    1UNL     H8   32   0.298  -0.078  -0.272
    1UNL     H9   33   0.111   0.020  -0.338
    1UNL    H10   34   0.032   0.006  -0.163
    1UNL    H11   35   0.083   0.363  -0.148
    1UNL    H12   36  -0.126   0.184  -0.278
    1UNL    H13   37  -0.129   0.357  -0.258
    1UNL    H14   38  -0.026   0.129  -0.016
    1UNL    H15   39  -0.070  -0.103   0.057
    1UNL    H16   40  -0.173  -0.333  -0.017
    1UNL    H17   41  -0.058  -0.269  -0.136
    1UNL    H18   42  -0.281  -0.185  -0.233
    1UNL    H19   43  -0.364  -0.176   0.029
    1UNL    H20   44  -0.344  -0.183   0.249
    1UNL    H21   45  -0.402   0.045   0.016
    1UNL    H22   46  -0.370   0.085   0.294
    1UNL    H23   47  -0.245   0.226   0.110
    1UNL    H24   48  -0.140  -0.020   0.224
   0.00000   0.00000   0.00000   0.00000   0.00000   0.00000   0.00000   0.00000   0.00000
Generated with MDTraj, t= 71.0
 48
    1UNL     C1    1   0.333   0.033   0.130
    1UNL     C2    2   0.261  -0.093   0.084
    1UNL     C3    3   0.221  -0.192   0.186
    1UNL     C4    4   0.240  -0.126  -0.046
    1UNL     C5    5   0.265  -0.037  -0.162
    1UNL     C6    6   0.128   0.012  -0.219
    1UNL     C7    7   0.137   0.160  -0.206
    1UNL     C8    8   0.041   0.252  -0.219
    1UNL     C9    9  -0.106   0.233  -0.225
    1UNL     O1   10  -0.181   0.251  -0.109
    1UNL    C10   11  -0.155   0.134  -0.021
    1UNL     O2   12  -0.172   0.014  -0.096
    1UNL    C11   13  -0.170  -0.114  -0.023
    1UNL    C12   14  -0.166  -0.231  -0.127
    1UNL     O3   15  -0.269  -0.208  -0.221
    1UNL    C13   16  -0.291  -0.126   0.083
    1UNL     O4   17  -0.238  -0.191   0.200
    1UNL    C14   18  -0.346   0.014   0.118
    1UNL     O5   19  -0.414   0.018   0.241
    1UNL    C15   20  -0.231   0.125   0.112
    1UNL     O6   21  -0.144   0.101   0.226
    1UNL    C16   22   0.278   0.185  -0.151
    1UNL     O7   23   0.310   0.298  -0.123
    1UNL     O8   24   0.346   0.073  -0.129
    1UNL     H1   25   0.327   0.120   0.062
    1UNL     H2   26   0.434   0.016   0.142
    1UNL     H3   27   0.291   0.062   0.223
    1UNL     H4   28   0.111  -0.203   0.193
    1UNL     H5   29   0.266  -0.290   0.175
    1UNL     H6   30   0.262  -0.148   0.282
    1UNL     H7   31   0.182  -0.214  -0.071
    1UNL     H8   32   0.322  -0.101  -0.240
    1UNL     H9   33   0.107  -0.017  -0.328
    1UNL    H10   34   0.054  -0.036  -0.150
    1UNL    H11   35   0.076   0.353  -0.196
    1UNL    H12   36  -0.125   0.139  -0.270
    1UNL    H13   37  -0.138   0.313  -0.292
    1UNL    H14   38  -0.048   0.132   0.010
    1UNL    H15   39  -0.075  -0.103   0.045
    1UNL    H16   40  -0.159  -0.327  -0.075
    1UNL    H17   41  -0.073  -0.213  -0.183
    1UNL    H18   42  -0.276  -0.113  -0.250
    1UNL    H19   43  -0.372  -0.176   0.035
    1UNL    H20   44  -0.313  -0.171   0.264
    1UNL    H21   45  -0.412   0.048   0.038
    1UNL    H22   46  -0.346   0.025   0.310
    1UNL    H23   47  -0.277   0.222   0.150
    1UNL    H24   48  -0.133   0.008   0.228
   0.00000   0.00000   0.00000   0.00000   0.00000   0.00000   0.00000   0.00000   0.00000
Generated with MDTraj, t= 72.0
 48
    1UNL     C1    1   0.340   0.035   0.120
    1UNL     C2    2   0.259  -0.088   0.105
    1UNL     C3    3   0.239  -0.198   0.202
    1UNL     C4    4   0.233  -0.128  -0.022
    1UNL     C5    5   0.252  -0.043  -0.145
    1UNL     C6    6   0.115   0.018  -0.199
    1UNL     C7    7   0.136   0.170  -0.188
    1UNL     C8    8   0.046   0.266  -0.199
    1UNL     C9    9  -0.101   0.250  -0.216
    1UNL     O1   10  -0.176   0.237  -0.102
    1UNL    C10   11  -0.149   0.120  -0.012
    1UNL     O2   12  -0.158  -0.000  -0.098
    1UNL    C11   13  -0.166  -0.125  -0.041
    1UNL    C12   14  -0.192  -0.229  -0.155
    1UNL     O3   15  -0.300  -0.199  -0.233
    1UNL    C13   16  -0.275  -0.131   0.078
    1UNL     O4   17  -0.205  -0.174   0.204
    1UNL    C14   18  -0.346   0.006   0.104
    1UNL     O5   19  -0.408   0.002   0.231
    1UNL    C15   20  -0.242   0.128   0.111
    1UNL     O6   21  -0.158   0.120   0.224
    1UNL    C16   22   0.275   0.185  -0.154
    1UNL     O7   23   0.322   0.297  -0.163
    1UNL     O8   24   0.334   0.068  -0.125
    1UNL     H1   25   0.290   0.123   0.086
    1UNL     H2   26   0.440   0.032   0.058
    1UNL     H3   27   0.362   0.047   0.220
    1UNL     H4   28   0.136  -0.221   0.233
    1UNL     H5   29   0.289  -0.294   0.179
    1UNL     H6   30   0.293  -0.165   0.294
    1UNL     H7   31   0.178  -0.220  -0.041
    1UNL     H8   32   0.299  -0.113  -0.220
    1UNL     H9   33   0.093  -0.015  -0.307
    1UNL    H10   34   0.031  -0.022  -0.142
    1UNL    H11   35   0.083   0.365  -0.194
    1UNL    H12   36  -0.119   0.162  -0.274
    1UNL    H13   37  -0.138   0.336  -0.275
    1UNL    H14   38  -0.043   0.133   0.018
    1UNL    H15   39  -0.066  -0.150   0.015
    1UNL    H16   40  -0.209  -0.323  -0.107
    1UNL    H17   41  -0.100  -0.229  -0.211
    1UNL    H18   42  -0.303  -0.104  -0.259
    1UNL    H19   43  -0.334  -0.215   0.053
    1UNL    H20   44  -0.267  -0.158   0.277
    1UNL    H21   45  -0.420   0.027   0.023
    1UNL    H22   46  -0.410   0.094   0.270
    1UNL    H23   47  -0.302   0.225   0.119
    1UNL    H24   48  -0.142   0.017   0.230
   0.00000   0.00000   0.00000   0.00000   0.00000   0.00000   0.00000   0.00000   0.00000
Generated with MDTraj, t= 73.0
 48
    1UNL     C1    1   0.334   0.039   0.137
    1UNL     C2    2   0.264  -0.079   0.105
    1UNL     C3    3   0.242  -0.183   0.206
    1UNL     C4    4   0.221  -0.115  -0.018
    1UNL     C5    5   0.248  -0.046  -0.154
    1UNL     C6    6   0.116   0.019  -0.198
    1UNL     C7    7   0.148   0.170  -0.183
    1UNL     C8    8   0.061   0.270  -0.186
    1UNL     C9    9  -0.089   0.257  -0.210
    1UNL     O1   10  -0.158   0.253  -0.091
    1UNL    C10   11  -0.157   0.123  -0.027
    1UNL     O2   12  -0.177   0.014  -0.114
    1UNL    C11   13  -0.171  -0.116  -0.041
    1UNL    C12   14  -0.198  -0.229  -0.154
    1UNL     O3   15  -0.329  -0.220  -0.184
    1UNL    C13   16  -0.269  -0.131   0.080
    1UNL     O4   17  -0.192  -0.166   0.195
    1UNL    C14   18  -0.350  -0.007   0.099
    1UNL     O5   19  -0.428  -0.022   0.220
    1UNL    C15   20  -0.250   0.115   0.101
    1UNL     O6   21  -0.166   0.102   0.215
    1UNL    C16   22   0.291   0.184  -0.163
    1UNL     O7   23   0.343   0.297  -0.163
    1UNL     O8   24   0.352   0.063  -0.150
    1UNL     H1   25   0.266   0.101   0.186
    1UNL     H2   26   0.373   0.088   0.039
    1UNL     H3   27   0.409   0.005   0.209
    1UNL     H4   28   0.138  -0.190   0.240
    1UNL     H5   29   0.279  -0.286   0.176
    1UNL     H6   30   0.303  -0.156   0.294
    1UNL     H7   31   0.174  -0.214  -0.029
    1UNL     H8   32   0.299  -0.108  -0.226
    1UNL     H9   33   0.092  -0.014  -0.305
    1UNL    H10   34   0.021   0.011  -0.143
    1UNL    H11   35   0.102   0.370  -0.175
    1UNL    H12   36  -0.115   0.178  -0.278
    1UNL    H13   37  -0.131   0.349  -0.259
    1UNL    H14   38  -0.051   0.123   0.007
    1UNL    H15   39  -0.061  -0.126   0.001
    1UNL    H16   40  -0.181  -0.329  -0.121
    1UNL    H17   41  -0.139  -0.211  -0.242
    1UNL    H18   42  -0.354  -0.125  -0.198
    1UNL    H19   43  -0.337  -0.213   0.056
    1UNL    H20   44  -0.253  -0.150   0.268
    1UNL    H21   45  -0.428   0.003   0.017
    1UNL    H22   46  -0.458   0.066   0.254
    1UNL    H23   47  -0.299   0.215   0.121
    1UNL    H24   48  -0.109   0.026   0.222
   0.00000   0.00000   0.00000   0.00000   0.00000   0.00000   0.00000   0.00000   0.00000
Generated with MDTraj, t= 74.0
 48
    1UNL     C1    1   0.329   0.050   0.114
    1UNL     C2    2   0.258  -0.078   0.084
    1UNL     C3    3   0.208  -0.156   0.201
    1UNL     C4    4   0.232  -0.115  -0.043
    1UNL     C5    5   0.268  -0.038  -0.168
    1UNL     C6    6   0.140   0.016  -0.211
    1UNL     C7    7   0.159   0.159  -0.184
    1UNL     C8    8   0.071   0.259  -0.180
    1UNL     C9    9  -0.081   0.242  -0.201
    1UNL     O1   10  -0.155   0.245  -0.076
    1UNL    C10   11  -0.153   0.115  -0.014
    1UNL     O2   12  -0.184   0.015  -0.115
    1UNL    C11   13  -0.177  -0.115  -0.049
    1UNL    C12   14  -0.201  -0.228  -0.149
    1UNL     O3   15  -0.335  -0.242  -0.182
    1UNL    C13   16  -0.275  -0.130   0.068
    1UNL     O4   17  -0.205  -0.177   0.178
    1UNL    C14   18  -0.354  -0.004   0.105
    1UNL     O5   19  -0.412  -0.011   0.242
    1UNL    C15   20  -0.252   0.112   0.108
    1UNL     O6   21  -0.190   0.125   0.229
    1UNL    C16   22   0.300   0.179  -0.156
    1UNL     O7   23   0.338   0.294  -0.136
    1UNL     O8   24   0.368   0.067  -0.154
    1UNL     H1   25   0.264   0.136   0.112
    1UNL     H2   26   0.407   0.071   0.051
    1UNL     H3   27   0.361   0.045   0.224
    1UNL     H4   28   0.097  -0.154   0.197
    1UNL     H5   29   0.245  -0.263   0.193
    1UNL     H6   30   0.243  -0.113   0.295
    1UNL     H7   31   0.198  -0.213  -0.071
    1UNL     H8   32   0.318  -0.101  -0.234
    1UNL     H9   33   0.112   0.008  -0.322
    1UNL    H10   34   0.058  -0.030  -0.150
    1UNL    H11   35   0.114   0.355  -0.162
    1UNL    H12   36  -0.102   0.145  -0.246
    1UNL    H13   37  -0.123   0.314  -0.280
    1UNL    H14   38  -0.049   0.106   0.023
    1UNL    H15   39  -0.068  -0.120  -0.006
    1UNL    H16   40  -0.176  -0.324  -0.106
    1UNL    H17   41  -0.144  -0.220  -0.242
    1UNL    H18   42  -0.378  -0.155  -0.199
    1UNL    H19   43  -0.345  -0.212   0.040
    1UNL    H20   44  -0.259  -0.154   0.261
    1UNL    H21   45  -0.442   0.024   0.038
    1UNL    H22   46  -0.389   0.071   0.290
    1UNL    H23   47  -0.312   0.203   0.093
    1UNL    H24   48  -0.136   0.041   0.239
   0.00000   0.00000   0.00000   0.00000   0.00000   0.00000   0.00000   0.00000   0.00000
Generated with MDTraj, t= 75.0
 48
    1UNL     C1    1   0.307   0.058   0.109
    1UNL     C2    2   0.235  -0.068   0.079
    1UNL     C3    3   0.189  -0.161   0.184
    1UNL     C4    4   0.224  -0.122  -0.043
    1UNL     C5    5   0.272  -0.038  -0.171
    1UNL     C6    6   0.154   0.032  -0.239
    1UNL     C7    7   0.162   0.172  -0.191
    1UNL     C8    8   0.066   0.262  -0.174
    1UNL     C9    9  -0.078   0.231  -0.203
    1UNL     O1   10  -0.171   0.233  -0.097
    1UNL    C10   11  -0.161   0.111  -0.026
    1UNL     O2   12  -0.186  -0.010  -0.101
    1UNL    C11   13  -0.178  -0.132  -0.028
    1UNL    C12   14  -0.204  -0.238  -0.131
    1UNL     O3   15  -0.317  -0.206  -0.213
    1UNL    C13   16  -0.276  -0.132   0.091
    1UNL     O4   17  -0.194  -0.165   0.202
    1UNL    C14   18  -0.356   0.003   0.112
    1UNL     O5   19  -0.419   0.000   0.242
    1UNL    C15   20  -0.249   0.116   0.111
    1UNL     O6   21  -0.169   0.102   0.227
    1UNL    C16   22   0.306   0.187  -0.154
    1UNL     O7   23   0.354   0.298  -0.124
    1UNL     O8   24   0.372   0.062  -0.152
    1UNL     H1   25   0.253   0.146   0.064
    1UNL     H2   26   0.396   0.058   0.057
    1UNL     H3   27   0.316   0.083   0.219
    1UNL     H4   28   0.083  -0.190   0.164
    1UNL     H5   29   0.247  -0.257   0.179
    1UNL     H6   30   0.195  -0.128   0.289
    1UNL     H7   31   0.192  -0.227  -0.057
    1UNL     H8   32   0.309  -0.113  -0.234
    1UNL     H9   33   0.162   0.030  -0.353
    1UNL    H10   34   0.065  -0.031  -0.211
    1UNL    H11   35   0.090   0.352  -0.118
    1UNL    H12   36  -0.092   0.146  -0.271
    1UNL    H13   37  -0.114   0.318  -0.271
    1UNL    H14   38  -0.064   0.109   0.022
    1UNL    H15   39  -0.070  -0.138   0.019
    1UNL    H16   40  -0.235  -0.332  -0.082
    1UNL    H17   41  -0.120  -0.267  -0.199
    1UNL    H18   42  -0.301  -0.114  -0.244
    1UNL    H19   43  -0.337  -0.229   0.081
    1UNL    H20   44  -0.246  -0.152   0.280
    1UNL    H21   45  -0.428   0.018   0.026
    1UNL    H22   46  -0.372   0.067   0.298
    1UNL    H23   47  -0.298   0.213   0.125
    1UNL    H24   48  -0.132   0.012   0.232
   0.00000   0.00000   0.00000   0.00000   0.00000   0.00000   0.00000   0.00000   0.00000
Generated with MDTraj, t= 76.0
 48
    1UNL     C1    1   0.265   0.051   0.125
    1UNL     C2    2   0.221  -0.086   0.082
    1UNL     C3    3   0.172  -0.188   0.180
    1UNL     C4    4   0.238  -0.123  -0.044
    1UNL     C5    5   0.267  -0.031  -0.169
    1UNL     C6    6   0.136   0.025  -0.229
    1UNL     C7    7   0.144   0.167  -0.205
    1UNL     C8    8   0.055   0.266  -0.204
    1UNL     C9    9  -0.088   0.252  -0.219
    1UNL     O1   10  -0.162   0.232  -0.097
    1UNL    C10   11  -0.132   0.111  -0.017
    1UNL     O2   12  -0.149  -0.010  -0.094
    1UNL    C11   13  -0.163  -0.142  -0.024
    1UNL    C12   14  -0.196  -0.243  -0.129
    1UNL     O3   15  -0.308  -0.193  -0.202
    1UNL    C13   16  -0.270  -0.134   0.089
    1UNL     O4   17  -0.207  -0.174   0.209
    1UNL    C14   18  -0.337   0.010   0.106
    1UNL     O5   19  -0.410   0.012   0.229
    1UNL    C15   20  -0.225   0.117   0.115
    1UNL     O6   21  -0.145   0.103   0.227
    1UNL    C16   22   0.286   0.195  -0.154
    1UNL     O7   23   0.335   0.305  -0.125
    1UNL     O8   24   0.357   0.070  -0.143
    1UNL     H1   25   0.178   0.119   0.138
    1UNL     H2   26   0.334   0.097   0.039
    1UNL     H3   27   0.314   0.044   0.221
    1UNL     H4   28   0.083  -0.245   0.145
    1UNL     H5   29   0.248  -0.261   0.210
    1UNL     H6   30   0.138  -0.141   0.276
    1UNL     H7   31   0.189  -0.213  -0.069
    1UNL     H8   32   0.302  -0.095  -0.249
    1UNL     H9   33   0.145  -0.007  -0.337
    1UNL    H10   34   0.041  -0.016  -0.184
    1UNL    H11   35   0.088   0.359  -0.163
    1UNL    H12   36  -0.101   0.163  -0.281
    1UNL    H13   37  -0.130   0.337  -0.285
    1UNL    H14   38  -0.029   0.115   0.014
    1UNL    H15   39  -0.061  -0.159   0.028
    1UNL    H16   40  -0.224  -0.345  -0.092
    1UNL    H17   41  -0.104  -0.254  -0.196
    1UNL    H18   42  -0.274  -0.104  -0.230
    1UNL    H19   43  -0.351  -0.216   0.075
    1UNL    H20   44  -0.289  -0.164   0.271
    1UNL    H21   45  -0.402   0.028   0.017
    1UNL    H22   46  -0.372   0.079   0.289
    1UNL    H23   47  -0.270   0.215   0.115
    1UNL    H24   48  -0.124   0.010   0.244
   0.00000   0.00000   0.00000   0.00000   0.00000   0.00000   0.00000   0.00000   0.00000
Generated with MDTraj, t= 77.0
 48
    1UNL     C1    1   0.220   0.032   0.129
    1UNL     C2    2   0.217  -0.107   0.082
    1UNL     C3    3   0.194  -0.209   0.188
    1UNL     C4    4   0.235  -0.136  -0.045
    1UNL     C5    5   0.259  -0.042  -0.159
    1UNL     C6    6   0.127   0.021  -0.215
    1UNL     C7    7   0.136   0.165  -0.201
    1UNL     C8    8   0.045   0.264  -0.216
    1UNL     C9    9  -0.105   0.250  -0.219
    1UNL     O1   10  -0.173   0.244  -0.096
    1UNL    C10   11  -0.132   0.132  -0.026
    1UNL     O2   12  -0.162   0.020  -0.106
    1UNL    C11   13  -0.161  -0.108  -0.032
    1UNL    C12   14  -0.160  -0.224  -0.134
    1UNL     O3   15  -0.286  -0.237  -0.189
    1UNL    C13   16  -0.273  -0.117   0.079
    1UNL     O4   17  -0.225  -0.189   0.191
    1UNL    C14   18  -0.318   0.026   0.113
    1UNL     O5   19  -0.396   0.022   0.231
    1UNL    C15   20  -0.194   0.121   0.115
    1UNL     O6   21  -0.101   0.091   0.212
    1UNL    C16   22   0.276   0.192  -0.144
    1UNL     O7   23   0.323   0.305  -0.141
    1UNL     O8   24   0.338   0.072  -0.109
    1UNL     H1   25   0.158   0.106   0.068
    1UNL     H2   26   0.331   0.074   0.118
    1UNL     H3   27   0.178   0.043   0.228
    1UNL     H4   28   0.191  -0.310   0.145
    1UNL     H5   29   0.270  -0.198   0.267
    1UNL     H6   30   0.093  -0.183   0.234
    1UNL     H7   31   0.197  -0.235  -0.081
    1UNL     H8   32   0.320  -0.080  -0.244
    1UNL     H9   33   0.098   0.009  -0.323
    1UNL    H10   34   0.046  -0.024  -0.149
    1UNL    H11   35   0.072   0.368  -0.201
    1UNL    H12   36  -0.135   0.166  -0.280
    1UNL    H13   37  -0.146   0.338  -0.277
    1UNL    H14   38  -0.025   0.135  -0.012
    1UNL    H15   39  -0.058  -0.126   0.018
    1UNL    H16   40  -0.140  -0.318  -0.076
    1UNL    H17   41  -0.078  -0.214  -0.213
    1UNL    H18   42  -0.316  -0.143  -0.195
    1UNL    H19   43  -0.360  -0.185   0.044
    1UNL    H20   44  -0.291  -0.166   0.256
    1UNL    H21   45  -0.388   0.059   0.035
    1UNL    H22   46  -0.394   0.102   0.284
    1UNL    H23   47  -0.240   0.217   0.135
    1UNL    H24   48  -0.098  -0.009   0.239
   0.00000   0.00000   0.00000   0.00000   0.00000   0.00000   0.00000   0.00000   0.00000
Generated with MDTraj, t= 78.0
 48
    1UNL     C1    1   0.205   0.026   0.144
    1UNL     C2    2   0.208  -0.108   0.079
    1UNL     C3    3   0.202  -0.223   0.178
    1UNL     C4    4   0.218  -0.132  -0.049
    1UNL     C5    5   0.237  -0.036  -0.160
    1UNL     C6    6   0.113   0.037  -0.207
    1UNL     C7    7   0.141   0.182  -0.192
    1UNL     C8    8   0.052   0.280  -0.209
    1UNL     C9    9  -0.100   0.264  -0.229
    1UNL     O1   10  -0.171   0.251  -0.105
    1UNL    C10   11  -0.144   0.127  -0.045
    1UNL     O2   12  -0.174   0.002  -0.117
    1UNL    C11   13  -0.161  -0.110  -0.022
    1UNL    C12   14  -0.149  -0.239  -0.102
    1UNL     O3   15  -0.251  -0.253  -0.199
    1UNL    C13   16  -0.277  -0.112   0.077
    1UNL     O4   17  -0.237  -0.188   0.190
    1UNL    C14   18  -0.326   0.031   0.121
    1UNL     O5   19  -0.369   0.030   0.254
    1UNL    C15   20  -0.203   0.132   0.103
    1UNL     O6   21  -0.097   0.095   0.198
    1UNL    C16   22   0.277   0.191  -0.144
    1UNL     O7   23   0.336   0.293  -0.133
    1UNL     O8   24   0.332   0.068  -0.124
    1UNL     H1   25   0.217   0.119   0.078
    1UNL     H2   26   0.291   0.033   0.210
    1UNL     H3   27   0.104   0.042   0.193
    1UNL     H4   28   0.290  -0.288   0.176
    1UNL     H5   29   0.190  -0.180   0.278
    1UNL     H6   30   0.106  -0.281   0.162
    1UNL     H7   31   0.205  -0.231  -0.082
    1UNL     H8   32   0.295  -0.075  -0.253
    1UNL     H9   33   0.084   0.009  -0.313
    1UNL    H10   34   0.031   0.008  -0.141
    1UNL    H11   35   0.079   0.383  -0.194
    1UNL    H12   36  -0.130   0.184  -0.290
    1UNL    H13   37  -0.143   0.347  -0.287
    1UNL    H14   38  -0.039   0.120  -0.022
    1UNL    H15   39  -0.055  -0.106   0.028
    1UNL    H16   40  -0.141  -0.328  -0.037
    1UNL    H17   41  -0.050  -0.229  -0.156
    1UNL    H18   42  -0.288  -0.167  -0.227
    1UNL    H19   43  -0.362  -0.173   0.029
    1UNL    H20   44  -0.321  -0.208   0.241
    1UNL    H21   45  -0.409   0.073   0.068
    1UNL    H22   46  -0.290   0.025   0.315
    1UNL    H23   47  -0.225   0.234   0.134
    1UNL    H24   48  -0.095   0.005   0.224
   0.00000   0.00000   0.00000   0.00000   0.00000   0.00000   0.00000   0.00000   0.00000
Generated with MDTraj, t= 79.0
 48
    1UNL     C1    1   0.241   0.028   0.122
    1UNL     C2    2   0.204  -0.108   0.061
    1UNL     C3    3   0.161  -0.212   0.152
    1UNL     C4    4   0.226  -0.138  -0.064
    1UNL     C5    5   0.257  -0.036  -0.174
    1UNL     C6    6   0.130   0.024  -0.245
    1UNL     C7    7   0.139   0.168  -0.195
    1UNL     C8    8   0.044   0.261  -0.184
    1UNL     C9    9  -0.101   0.242  -0.221
    1UNL     O1   10  -0.174   0.239  -0.099
    1UNL    C10   11  -0.141   0.124  -0.023
    1UNL     O2   12  -0.144  -0.002  -0.094
    1UNL    C11   13  -0.137  -0.115  -0.009
    1UNL    C12   14  -0.143  -0.239  -0.097
    1UNL     O3   15  -0.248  -0.226  -0.196
    1UNL    C13   16  -0.270  -0.108   0.075
    1UNL     O4   17  -0.237  -0.169   0.200
    1UNL    C14   18  -0.336   0.029   0.115
    1UNL     O5   19  -0.376   0.027   0.247
    1UNL    C15   20  -0.222   0.132   0.110
    1UNL     O6   21  -0.137   0.105   0.217
    1UNL    C16   22   0.276   0.191  -0.146
    1UNL     O7   23   0.319   0.296  -0.116
    1UNL     O8   24   0.340   0.077  -0.134
    1UNL     H1   25   0.343   0.056   0.105
    1UNL     H2   26   0.234   0.027   0.228
    1UNL     H3   27   0.173   0.105   0.063
    1UNL     H4   28   0.227  -0.225   0.238
    1UNL     H5   29   0.061  -0.190   0.195
    1UNL     H6   30   0.141  -0.311   0.103
    1UNL     H7   31   0.231  -0.246  -0.091
    1UNL     H8   32   0.320  -0.097  -0.252
    1UNL     H9   33   0.154   0.008  -0.356
    1UNL    H10   34   0.036  -0.023  -0.225
    1UNL    H11   35   0.074   0.357  -0.147
    1UNL    H12   36  -0.126   0.160  -0.282
    1UNL    H13   37  -0.150   0.321  -0.276
    1UNL    H14   38  -0.036   0.132   0.003
    1UNL    H15   39  -0.039  -0.110   0.050
    1UNL    H16   40  -0.168  -0.320  -0.031
    1UNL    H17   41  -0.051  -0.270  -0.148
    1UNL    H18   42  -0.276  -0.134  -0.217
    1UNL    H19   43  -0.345  -0.177   0.028
    1UNL    H20   44  -0.314  -0.155   0.263
    1UNL    H21   45  -0.421   0.066   0.060
    1UNL    H22   46  -0.340   0.098   0.305
    1UNL    H23   47  -0.267   0.233   0.107
    1UNL    H24   48  -0.150   0.007   0.236
   0.00000   0.00000   0.00000   0.00000   0.00000   0.00000   0.00000   0.00000   0.00000
Generated with MDTraj, t= 80.0
 48
    1UNL     C1    1   0.262   0.020   0.114
    1UNL     C2    2   0.220  -0.109   0.053
    1UNL     C3    3   0.178  -0.219   0.142
    1UNL     C4    4   0.223  -0.136  -0.077
    1UNL     C5    5   0.261  -0.035  -0.183
    1UNL     C6    6   0.136   0.029  -0.254
    1UNL     C7    7   0.149   0.175  -0.218
    1UNL     C8    8   0.050   0.266  -0.205
    1UNL     C9    9  -0.098   0.225  -0.208
    1UNL     O1   10  -0.161   0.246  -0.084
    1UNL    C10   11  -0.138   0.129  -0.012
    1UNL     O2   12  -0.166   0.010  -0.085
    1UNL    C11   13  -0.152  -0.113  -0.005
    1UNL    C12   14  -0.138  -0.228  -0.098
    1UNL     O3   15  -0.248  -0.217  -0.183
    1UNL    C13   16  -0.266  -0.116   0.096
    1UNL     O4   17  -0.223  -0.150   0.235
    1UNL    C14   18  -0.339   0.018   0.108
    1UNL     O5   19  -0.434   0.012   0.207
    1UNL    C15   20  -0.233   0.131   0.115
    1UNL     O6   21  -0.147   0.110   0.230
    1UNL    C16   22   0.288   0.185  -0.153
    1UNL     O7   23   0.316   0.289  -0.101
    1UNL     O8   24   0.351   0.068  -0.141
    1UNL     H1   25   0.368   0.042   0.109
    1UNL     H2   26   0.242   0.031   0.221
    1UNL     H3   27   0.213   0.092   0.055
    1UNL     H4   28   0.269  -0.269   0.183
    1UNL     H5   29   0.117  -0.177   0.225
    1UNL     H6   30   0.109  -0.286   0.093
    1UNL     H7   31   0.234  -0.238  -0.103
    1UNL     H8   32   0.313  -0.102  -0.264
    1UNL     H9   33   0.151   0.023  -0.365
    1UNL    H10   34   0.046  -0.030  -0.236
    1UNL    H11   35   0.076   0.366  -0.171
    1UNL    H12   36  -0.117   0.124  -0.232
    1UNL    H13   37  -0.160   0.277  -0.281
    1UNL    H14   38  -0.034   0.131   0.024
    1UNL    H15   39  -0.066  -0.090   0.057
    1UNL    H16   40  -0.136  -0.325  -0.053
    1UNL    H17   41  -0.049  -0.221  -0.158
    1UNL    H18   42  -0.286  -0.126  -0.190
    1UNL    H19   43  -0.340  -0.193   0.069
    1UNL    H20   44  -0.298  -0.133   0.292
    1UNL    H21   45  -0.393   0.025   0.013
    1UNL    H22   46  -0.507   0.077   0.204
    1UNL    H23   47  -0.275   0.233   0.123
    1UNL    H24   48  -0.150   0.012   0.256
   0.00000   0.00000   0.00000   0.00000   0.00000   0.00000   0.00000   0.00000   0.00000
Generated with MDTraj, t= 81.0
 48
    1UNL     C1    1   0.261   0.006   0.113
    1UNL     C2    2   0.251  -0.126   0.047
    1UNL     C3    3   0.224  -0.239   0.143
    1UNL     C4    4   0.233  -0.140  -0.085
    1UNL     C5    5   0.245  -0.033  -0.191
    1UNL     C6    6   0.115   0.039  -0.214
    1UNL     C7    7   0.142   0.173  -0.171
    1UNL     C8    8   0.055   0.275  -0.161
    1UNL     C9    9  -0.089   0.265  -0.204
    1UNL     O1   10  -0.182   0.233  -0.101
    1UNL    C10   11  -0.145   0.130  -0.012
    1UNL     O2   12  -0.140   0.007  -0.085
    1UNL    C11   13  -0.145  -0.110   0.001
    1UNL    C12   14  -0.138  -0.237  -0.086
    1UNL     O3   15  -0.250  -0.247  -0.169
    1UNL    C13   16  -0.274  -0.120   0.083
    1UNL     O4   17  -0.240  -0.154   0.222
    1UNL    C14   18  -0.352   0.012   0.094
    1UNL     O5   19  -0.425   0.019   0.209
    1UNL    C15   20  -0.254   0.134   0.095
    1UNL     O6   21  -0.196   0.154   0.225
    1UNL    C16   22   0.290   0.189  -0.155
    1UNL     O7   23   0.354   0.292  -0.134
    1UNL     O8   24   0.348   0.062  -0.162
    1UNL     H1   25   0.309   0.082   0.059
    1UNL     H2   26   0.325   0.000   0.201
    1UNL     H3   27   0.166   0.034   0.136
    1UNL     H4   28   0.273  -0.333   0.105
    1UNL     H5   29   0.267  -0.210   0.242
    1UNL     H6   30   0.117  -0.242   0.156
    1UNL     H7   31   0.211  -0.238  -0.129
    1UNL     H8   32   0.280  -0.071  -0.293
    1UNL     H9   33   0.069   0.027  -0.315
    1UNL    H10   34   0.032   0.002  -0.148
    1UNL    H11   35   0.084   0.367  -0.113
    1UNL    H12   36  -0.093   0.179  -0.267
    1UNL    H13   37  -0.122   0.358  -0.259
    1UNL    H14   38  -0.051   0.152   0.041
    1UNL    H15   39  -0.059  -0.100   0.067
    1UNL    H16   40  -0.140  -0.324  -0.024
    1UNL    H17   41  -0.045  -0.251  -0.139
    1UNL    H18   42  -0.269  -0.152  -0.193
    1UNL    H19   43  -0.332  -0.197   0.038
    1UNL    H20   44  -0.325  -0.165   0.274
    1UNL    H21   45  -0.421   0.032   0.009
    1UNL    H22   46  -0.369   0.056   0.283
    1UNL    H23   47  -0.317   0.224   0.072
    1UNL    H24   48  -0.145   0.077   0.242
   0.00000   0.00000   0.00000   0.00000   0.00000   0.00000   0.00000   0.00000   0.00000
Generated with MDTraj, t= 82.0
 48
    1UNL     C1    1   0.272  -0.008   0.101
    1UNL     C2    2   0.272  -0.147   0.039
    1UNL     C3    3   0.270  -0.264   0.133
    1UNL     C4    4   0.270  -0.162  -0.094
    1UNL     C5    5   0.263  -0.046  -0.192
    1UNL     C6    6   0.127   0.026  -0.200
    1UNL     C7    7   0.140   0.173  -0.183
    1UNL     C8    8   0.053   0.276  -0.194
    1UNL     C9    9  -0.093   0.257  -0.210
    1UNL     O1   10  -0.172   0.269  -0.092
    1UNL    C10   11  -0.180   0.148  -0.018
    1UNL     O2   12  -0.183   0.021  -0.096
    1UNL    C11   13  -0.163  -0.088  -0.001
    1UNL    C12   14  -0.126  -0.216  -0.071
    1UNL     O3   15  -0.210  -0.264  -0.168
    1UNL    C13   16  -0.291  -0.103   0.086
    1UNL     O4   17  -0.238  -0.139   0.215
    1UNL    C14   18  -0.378   0.026   0.101
    1UNL     O5   19  -0.445   0.011   0.226
    1UNL    C15   20  -0.274   0.145   0.103
    1UNL     O6   21  -0.207   0.129   0.231
    1UNL    C16   22   0.285   0.188  -0.150
    1UNL     O7   23   0.345   0.296  -0.133
    1UNL     O8   24   0.349   0.058  -0.144
    1UNL     H1   25   0.369   0.026   0.091
    1UNL     H2   26   0.256  -0.022   0.203
    1UNL     H3   27   0.200   0.051   0.050
    1UNL     H4   28   0.263  -0.365   0.086
    1UNL     H5   29   0.361  -0.269   0.196
    1UNL     H6   30   0.188  -0.252   0.203
    1UNL     H7   31   0.248  -0.259  -0.131
    1UNL     H8   32   0.312  -0.066  -0.287
    1UNL     H9   33   0.056   0.001  -0.283
    1UNL    H10   34   0.072  -0.009  -0.107
    1UNL    H11   35   0.085   0.373  -0.155
    1UNL    H12   36  -0.113   0.168  -0.267
    1UNL    H13   37  -0.115   0.355  -0.267
    1UNL    H14   38  -0.078   0.142   0.027
    1UNL    H15   39  -0.081  -0.057   0.064
    1UNL    H16   40  -0.104  -0.295  -0.002
    1UNL    H17   41  -0.028  -0.207  -0.120
    1UNL    H18   42  -0.247  -0.182  -0.209
    1UNL    H19   43  -0.346  -0.184   0.050
    1UNL    H20   44  -0.313  -0.149   0.275
    1UNL    H21   45  -0.461   0.042   0.025
    1UNL    H22   46  -0.477   0.097   0.262
    1UNL    H23   47  -0.334   0.239   0.107
    1UNL    H24   48  -0.171   0.034   0.239
   0.00000   0.00000   0.00000   0.00000   0.00000   0.00000   0.00000   0.00000   0.00000
Generated with MDTraj, t= 83.0
 48
    1UNL     C1    1   0.287  -0.025   0.115
    1UNL     C2    2   0.280  -0.156   0.037
    1UNL     C3    3   0.303  -0.285   0.107
    1UNL     C4    4   0.278  -0.150  -0.097
    1UNL     C5    5   0.263  -0.033  -0.191
    1UNL     C6    6   0.117   0.022  -0.220
    1UNL     C7    7   0.129   0.162  -0.183
    1UNL     C8    8   0.039   0.257  -0.189
    1UNL     C9    9  -0.101   0.238  -0.221
    1UNL     O1   10  -0.194   0.242  -0.104
    1UNL    C10   11  -0.150   0.145  -0.004
    1UNL     O2   12  -0.130   0.014  -0.068
    1UNL    C11   13  -0.139  -0.100   0.026
    1UNL    C12   14  -0.129  -0.228  -0.064
    1UNL     O3   15  -0.218  -0.215  -0.170
    1UNL    C13   16  -0.283  -0.102   0.094
    1UNL     O4   17  -0.275  -0.154   0.221
    1UNL    C14   18  -0.360   0.031   0.089
    1UNL     O5   19  -0.459   0.041   0.188
    1UNL    C15   20  -0.264   0.146   0.104
    1UNL     O6   21  -0.211   0.161   0.239
    1UNL    C16   22   0.267   0.185  -0.141
    1UNL     O7   23   0.304   0.300  -0.112
    1UNL     O8   24   0.343   0.072  -0.149
    1UNL     H1   25   0.366   0.029   0.078
    1UNL     H2   26   0.312  -0.035   0.212
    1UNL     H3   27   0.196   0.035   0.105
    1UNL     H4   28   0.252  -0.373   0.062
    1UNL     H5   29   0.408  -0.315   0.101
    1UNL     H6   30   0.274  -0.282   0.212
    1UNL     H7   31   0.271  -0.246  -0.148
    1UNL     H8   32   0.306  -0.075  -0.278
    1UNL     H9   33   0.090   0.028  -0.329
    1UNL    H10   34   0.032  -0.037  -0.178
    1UNL    H11   35   0.086   0.353  -0.181
    1UNL    H12   36  -0.108   0.138  -0.259
    1UNL    H13   37  -0.130   0.309  -0.307
    1UNL    H14   38  -0.054   0.188   0.033
    1UNL    H15   39  -0.061  -0.085   0.102
    1UNL    H16   40  -0.152  -0.322  -0.013
    1UNL    H17   41  -0.027  -0.241  -0.104
    1UNL    H18   42  -0.235  -0.119  -0.182
    1UNL    H19   43  -0.346  -0.171   0.045
    1UNL    H20   44  -0.349  -0.112   0.278
    1UNL    H21   45  -0.406   0.039  -0.014
    1UNL    H22   46  -0.473   0.134   0.213
    1UNL    H23   47  -0.314   0.243   0.084
    1UNL    H24   48  -0.179   0.076   0.287
   0.00000   0.00000   0.00000   0.00000   0.00000   0.00000   0.00000   0.00000   0.00000
Generated with MDTraj, t= 84.0
 48
    1UNL     C1    1   0.294  -0.032   0.097
    1UNL     C2    2   0.294  -0.150   0.017
    1UNL     C3    3   0.293  -0.291   0.078
    1UNL     C4    4   0.294  -0.146  -0.117
    1UNL     C5    5   0.280  -0.023  -0.202
    1UNL     C6    6   0.123   0.018  -0.214
    1UNL     C7    7   0.129   0.166  -0.176
    1UNL     C8    8   0.026   0.245  -0.193
    1UNL     C9    9  -0.105   0.198  -0.229
    1UNL     O1   10  -0.198   0.216  -0.120
    1UNL    C10   11  -0.151   0.146  -0.009
    1UNL     O2   12  -0.117   0.015  -0.038
    1UNL    C11   13  -0.159  -0.103   0.045
    1UNL    C12   14  -0.135  -0.226  -0.050
    1UNL     O3   15  -0.195  -0.204  -0.174
    1UNL    C13   16  -0.303  -0.099   0.110
    1UNL     O4   17  -0.293  -0.132   0.248
    1UNL    C14   18  -0.367   0.044   0.085
    1UNL     O5   19  -0.487   0.063   0.167
    1UNL    C15   20  -0.253   0.149   0.106
    1UNL     O6   21  -0.186   0.134   0.239
    1UNL    C16   22   0.269   0.194  -0.133
    1UNL     O7   23   0.301   0.300  -0.079
    1UNL     O8   24   0.357   0.089  -0.155
    1UNL     H1   25   0.377   0.024   0.073
    1UNL     H2   26   0.309  -0.043   0.202
    1UNL     H3   27   0.204   0.024   0.087
    1UNL     H4   28   0.198  -0.343   0.069
    1UNL     H5   29   0.361  -0.350   0.018
    1UNL     H6   30   0.325  -0.286   0.186
    1UNL     H7   31   0.279  -0.243  -0.165
    1UNL     H8   32   0.323  -0.052  -0.292
    1UNL     H9   33   0.093   0.007  -0.323
    1UNL    H10   34   0.040  -0.026  -0.159
    1UNL    H11   35   0.053   0.351  -0.194
    1UNL    H12   36  -0.113   0.099  -0.269
    1UNL    H13   37  -0.157   0.259  -0.311
    1UNL    H14   38  -0.058   0.199   0.024
    1UNL    H15   39  -0.086  -0.112   0.125
    1UNL    H16   40  -0.175  -0.319  -0.005
    1UNL    H17   41  -0.025  -0.240  -0.072
    1UNL    H18   42  -0.249  -0.121  -0.175
    1UNL    H19   43  -0.363  -0.175   0.070
    1UNL    H20   44  -0.376  -0.111   0.289
    1UNL    H21   45  -0.397   0.051  -0.022
    1UNL    H22   46  -0.543   0.140   0.149
    1UNL    H23   47  -0.312   0.242   0.108
    1UNL    H24   48  -0.204   0.045   0.261
   0.00000   0.00000   0.00000   0.00000   0.00000   0.00000   0.00000   0.00000   0.00000
Generated with MDTraj, t= 85.0
 48
    1UNL     C1    1   0.277  -0.031   0.078
    1UNL     C2    2   0.302  -0.158  -0.008
    1UNL     C3    3   0.303  -0.285   0.065
    1UNL     C4    4   0.311  -0.152  -0.142
    1UNL     C5    5   0.303  -0.026  -0.210
    1UNL     C6    6   0.162   0.013  -0.240
    1UNL     C7    7   0.140   0.155  -0.184
    1UNL     C8    8   0.040   0.245  -0.193
    1UNL     C9    9  -0.105   0.222  -0.223
    1UNL     O1   10  -0.177   0.237  -0.100
    1UNL    C10   11  -0.144   0.139   0.003
    1UNL     O2   12  -0.133   0.005  -0.043
    1UNL    C11   13  -0.166  -0.097   0.050
    1UNL    C12   14  -0.126  -0.231  -0.012
    1UNL     O3   15  -0.186  -0.255  -0.141
    1UNL    C13   16  -0.316  -0.089   0.093
    1UNL     O4   17  -0.320  -0.134   0.231
    1UNL    C14   18  -0.385   0.058   0.079
    1UNL     O5   19  -0.484   0.069   0.184
    1UNL    C15   20  -0.269   0.157   0.106
    1UNL     O6   21  -0.215   0.132   0.241
    1UNL    C16   22   0.267   0.198  -0.132
    1UNL     O7   23   0.284   0.307  -0.080
    1UNL     O8   24   0.354   0.093  -0.141
    1UNL     H1   25   0.364   0.029   0.067
    1UNL     H2   26   0.279  -0.060   0.183
    1UNL     H3   27   0.188   0.008   0.054
    1UNL     H4   28   0.209  -0.316   0.110
    1UNL     H5   29   0.328  -0.360  -0.008
    1UNL     H6   30   0.381  -0.277   0.147
    1UNL     H7   31   0.301  -0.243  -0.197
    1UNL     H8   32   0.372  -0.025  -0.291
    1UNL     H9   33   0.134   0.013  -0.350
    1UNL    H10   34   0.092  -0.049  -0.186
    1UNL    H11   35   0.061   0.341  -0.152
    1UNL    H12   36  -0.126   0.120  -0.248
    1UNL    H13   37  -0.147   0.287  -0.305
    1UNL    H14   38  -0.048   0.178   0.044
    1UNL    H15   39  -0.104  -0.079   0.138
    1UNL    H16   40  -0.164  -0.313   0.055
    1UNL    H17   41  -0.014  -0.232  -0.026
    1UNL    H18   42  -0.235  -0.182  -0.182
    1UNL    H19   43  -0.372  -0.161   0.037
    1UNL    H20   44  -0.418  -0.136   0.259
    1UNL    H21   45  -0.417   0.084  -0.022
    1UNL    H22   46  -0.476   0.156   0.232
    1UNL    H23   47  -0.302   0.260   0.108
    1UNL    H24   48  -0.257   0.046   0.272
   0.00000   0.00000   0.00000   0.00000   0.00000   0.00000   0.00000   0.00000   0.00000
Generated with MDTraj, t= 86.0
 48
    1UNL     C1    1   0.249  -0.048   0.079
    1UNL     C2    2   0.285  -0.159  -0.015
    1UNL     C3    3   0.321  -0.287   0.054
    1UNL     C4    4   0.302  -0.137  -0.148
    1UNL     C5    5   0.297  -0.012  -0.221
    1UNL     C6    6   0.151   0.041  -0.243
    1UNL     C7    7   0.161   0.170  -0.169
    1UNL     C8    8   0.061   0.261  -0.166
    1UNL     C9    9  -0.083   0.224  -0.209
    1UNL     O1   10  -0.181   0.241  -0.112
    1UNL    C10   11  -0.176   0.143  -0.009
    1UNL     O2   12  -0.146   0.007  -0.057
    1UNL    C11   13  -0.174  -0.088   0.050
    1UNL    C12   14  -0.115  -0.228   0.023
    1UNL     O3   15  -0.191  -0.289  -0.085
    1UNL    C13   16  -0.327  -0.089   0.086
    1UNL     O4   17  -0.337  -0.158   0.210
    1UNL    C14   18  -0.396   0.049   0.089
    1UNL     O5   19  -0.488   0.056   0.195
    1UNL    C15   20  -0.289   0.152   0.102
    1UNL     O6   21  -0.220   0.149   0.228
    1UNL    C16   22   0.304   0.196  -0.141
    1UNL     O7   23   0.333   0.304  -0.095
    1UNL     O8   24   0.382   0.089  -0.165
    1UNL     H1   25   0.312   0.036   0.052
    1UNL     H2   26   0.275  -0.062   0.181
    1UNL     H3   27   0.144  -0.033   0.074
    1UNL     H4   28   0.279  -0.312   0.151
    1UNL     H5   29   0.291  -0.372  -0.008
    1UNL     H6   30   0.430  -0.292   0.072
    1UNL     H7   31   0.343  -0.224  -0.202
    1UNL     H8   32   0.346  -0.023  -0.321
    1UNL     H9   33   0.107   0.051  -0.347
    1UNL    H10   34   0.085  -0.026  -0.190
    1UNL    H11   35   0.069   0.352  -0.105
    1UNL    H12   36  -0.082   0.128  -0.253
    1UNL    H13   37  -0.117   0.300  -0.283
    1UNL    H14   38  -0.082   0.177   0.037
    1UNL    H15   39  -0.127  -0.050   0.141
    1UNL    H16   40  -0.132  -0.292   0.113
    1UNL    H17   41  -0.007  -0.226  -0.008
    1UNL    H18   42  -0.232  -0.222  -0.144
    1UNL    H19   43  -0.384  -0.152   0.018
    1UNL    H20   44  -0.429  -0.160   0.236
    1UNL    H21   45  -0.453   0.065  -0.000
    1UNL    H22   46  -0.545   0.138   0.201
    1UNL    H23   47  -0.347   0.244   0.107
    1UNL    H24   48  -0.288   0.131   0.305
   0.00000   0.00000   0.00000   0.00000   0.00000   0.00000   0.00000   0.00000   0.00000
Generated with MDTraj, t= 87.0
 48
    1UNL     C1    1   0.263  -0.046   0.072
    1UNL     C2    2   0.282  -0.159  -0.019
    1UNL     C3    3   0.295  -0.301   0.038
    1UNL     C4    4   0.304  -0.140  -0.153
    1UNL     C5    5   0.303  -0.015  -0.232
    1UNL     C6    6   0.154   0.039  -0.236
    1UNL     C7    7   0.160   0.171  -0.170
    1UNL     C8    8   0.063   0.262  -0.157
    1UNL     C9    9  -0.081   0.234  -0.201
    1UNL     O1   10  -0.179   0.233  -0.103
    1UNL    C10   11  -0.165   0.136   0.002
    1UNL     O2   12  -0.146  -0.001  -0.049
    1UNL    C11   13  -0.171  -0.097   0.061
    1UNL    C12   14  -0.112  -0.232   0.033
    1UNL     O3   15  -0.168  -0.281  -0.085
    1UNL    C13   16  -0.322  -0.095   0.095
    1UNL     O4   17  -0.338  -0.157   0.222
    1UNL    C14   18  -0.396   0.044   0.082
    1UNL     O5   19  -0.501   0.053   0.177
    1UNL    C15   20  -0.287   0.156   0.094
    1UNL     O6   21  -0.245   0.170   0.227
    1UNL    C16   22   0.301   0.203  -0.141
    1UNL     O7   23   0.335   0.307  -0.092
    1UNL     O8   24   0.379   0.092  -0.174
    1UNL     H1   25   0.340   0.030   0.061
    1UNL     H2   26   0.262  -0.050   0.176
    1UNL     H3   27   0.160   0.005   0.054
    1UNL     H4   28   0.311  -0.308   0.146
    1UNL     H5   29   0.206  -0.361   0.011
    1UNL     H6   30   0.384  -0.344  -0.007
    1UNL     H7   31   0.342  -0.227  -0.201
    1UNL     H8   32   0.337  -0.038  -0.339
    1UNL     H9   33   0.138   0.044  -0.347
    1UNL    H10   34   0.072  -0.024  -0.200
    1UNL    H11   35   0.086   0.349  -0.101
    1UNL    H12   36  -0.081   0.133  -0.230
    1UNL    H13   37  -0.108   0.291  -0.290
    1UNL    H14   38  -0.074   0.171   0.048
    1UNL    H15   39  -0.111  -0.064   0.147
    1UNL    H16   40  -0.135  -0.307   0.109
    1UNL    H17   41  -0.004  -0.221   0.016
    1UNL    H18   42  -0.212  -0.204  -0.130
    1UNL    H19   43  -0.366  -0.166   0.022
    1UNL    H20   44  -0.429  -0.132   0.258
    1UNL    H21   45  -0.434   0.060  -0.016
    1UNL    H22   46  -0.552   0.137   0.166
    1UNL    H23   47  -0.331   0.251   0.064
    1UNL    H24   48  -0.315   0.195   0.283
   0.00000   0.00000   0.00000   0.00000   0.00000   0.00000   0.00000   0.00000   0.00000
Generated with MDTraj, t= 88.0
 48
    1UNL     C1    1   0.300  -0.047   0.063
    1UNL     C2    2   0.294  -0.169  -0.023
    1UNL     C3    3   0.278  -0.305   0.037
    1UNL     C4    4   0.291  -0.156  -0.157
    1UNL     C5    5   0.310  -0.024  -0.226
    1UNL     C6    6   0.169   0.034  -0.269
    1UNL     C7    7   0.151   0.162  -0.199
    1UNL     C8    8   0.047   0.240  -0.171
    1UNL     C9    9  -0.093   0.210  -0.211
    1UNL     O1   10  -0.181   0.232  -0.100
    1UNL    C10   11  -0.163   0.149   0.015
    1UNL     O2   12  -0.134   0.017  -0.027
    1UNL    C11   13  -0.155  -0.081   0.079
    1UNL    C12   14  -0.098  -0.209   0.026
    1UNL     O3   15  -0.138  -0.234  -0.110
    1UNL    C13   16  -0.314  -0.094   0.098
    1UNL     O4   17  -0.328  -0.122   0.235
    1UNL    C14   18  -0.396   0.037   0.072
    1UNL     O5   19  -0.513   0.051   0.152
    1UNL    C15   20  -0.290   0.157   0.103
    1UNL     O6   21  -0.265   0.147   0.246
    1UNL    C16   22   0.282   0.196  -0.134
    1UNL     O7   23   0.300   0.299  -0.073
    1UNL     O8   24   0.370   0.084  -0.149
    1UNL     H1   25   0.387   0.014   0.033
    1UNL     H2   26   0.309  -0.059   0.170
    1UNL     H3   27   0.200   0.008   0.052
    1UNL     H4   28   0.300  -0.310   0.145
    1UNL     H5   29   0.175  -0.342   0.017
    1UNL     H6   30   0.347  -0.367  -0.014
    1UNL     H7   31   0.291  -0.249  -0.217
    1UNL     H8   32   0.384  -0.041  -0.315
    1UNL     H9   33   0.156   0.056  -0.377
    1UNL    H10   34   0.097  -0.044  -0.235
    1UNL    H11   35   0.066   0.314  -0.090
    1UNL    H12   36  -0.099   0.111  -0.245
    1UNL    H13   37  -0.132   0.259  -0.300
    1UNL    H14   38  -0.081   0.185   0.073
    1UNL    H15   39  -0.104  -0.050   0.172
    1UNL    H16   40  -0.140  -0.288   0.084
    1UNL    H17   41   0.009  -0.211   0.025
    1UNL    H18   42  -0.191  -0.153  -0.128
    1UNL    H19   43  -0.354  -0.183   0.039
    1UNL    H20   44  -0.422  -0.144   0.258
    1UNL    H21   45  -0.437   0.045  -0.028
    1UNL    H22   46  -0.538   0.145   0.158
    1UNL    H23   47  -0.335   0.256   0.101
    1UNL    H24   48  -0.257   0.053   0.278
   0.00000   0.00000   0.00000   0.00000   0.00000   0.00000   0.00000   0.00000   0.00000
Generated with MDTraj, t= 89.0
 48
    1UNL     C1    1   0.314  -0.061   0.068
    1UNL     C2    2   0.303  -0.177  -0.028
    1UNL     C3    3   0.298  -0.315   0.028
    1UNL     C4    4   0.289  -0.152  -0.160
    1UNL     C5    5   0.286  -0.023  -0.223
    1UNL     C6    6   0.140   0.021  -0.249
    1UNL     C7    7   0.137   0.154  -0.181
    1UNL     C8    8   0.036   0.238  -0.162
    1UNL     C9    9  -0.100   0.209  -0.208
    1UNL     O1   10  -0.201   0.238  -0.108
    1UNL    C10   11  -0.173   0.163   0.014
    1UNL     O2   12  -0.113   0.030  -0.019
    1UNL    C11   13  -0.148  -0.072   0.074
    1UNL    C12   14  -0.082  -0.194   0.025
    1UNL     O3   15  -0.122  -0.217  -0.110
    1UNL    C13   16  -0.303  -0.082   0.099
    1UNL     O4   17  -0.317  -0.117   0.236
    1UNL    C14   18  -0.387   0.038   0.065
    1UNL     O5   19  -0.512   0.029   0.124
    1UNL    C15   20  -0.301   0.162   0.107
    1UNL     O6   21  -0.269   0.159   0.245
    1UNL    C16   22   0.273   0.182  -0.126
    1UNL     O7   23   0.300   0.277  -0.056
    1UNL     O8   24   0.365   0.077  -0.163
    1UNL     H1   25   0.425  -0.052   0.084
    1UNL     H2   26   0.254  -0.095   0.160
    1UNL     H3   27   0.265   0.026   0.026
    1UNL     H4   28   0.253  -0.321   0.129
    1UNL     H5   29   0.238  -0.388  -0.032
    1UNL     H6   30   0.395  -0.356   0.041
    1UNL     H7   31   0.270  -0.233  -0.222
    1UNL     H8   32   0.345  -0.024  -0.325
    1UNL     H9   33   0.092   0.031  -0.347
    1UNL    H10   34   0.078  -0.047  -0.184
    1UNL    H11   35   0.060   0.329  -0.114
    1UNL    H12   36  -0.122   0.116  -0.257
    1UNL    H13   37  -0.127   0.271  -0.294
    1UNL    H14   38  -0.093   0.224   0.054
    1UNL    H15   39  -0.103  -0.042   0.170
    1UNL    H16   40  -0.105  -0.280   0.084
    1UNL    H17   41   0.025  -0.178   0.020
    1UNL    H18   42  -0.188  -0.146  -0.129
    1UNL    H19   43  -0.345  -0.172   0.041
    1UNL    H20   44  -0.391  -0.065   0.272
    1UNL    H21   45  -0.411   0.044  -0.044
    1UNL    H22   46  -0.562   0.112   0.116
    1UNL    H23   47  -0.357   0.254   0.083
    1UNL    H24   48  -0.224   0.071   0.268
   0.00000   0.00000   0.00000   0.00000   0.00000   0.00000   0.00000   0.00000   0.00000
Generated with MDTraj, t= 90.0
 48
    1UNL     C1    1   0.314  -0.085   0.074
    1UNL     C2    2   0.304  -0.190  -0.030
    1UNL     C3    3   0.331  -0.328   0.008
    1UNL     C4    4   0.274  -0.172  -0.157
    1UNL     C5    5   0.255  -0.032  -0.216
    1UNL     C6    6   0.109   0.027  -0.210
    1UNL     C7    7   0.133   0.163  -0.163
    1UNL     C8    8   0.048   0.263  -0.169
    1UNL     C9    9  -0.095   0.254  -0.203
    1UNL     O1   10  -0.185   0.265  -0.091
    1UNL    C10   11  -0.178   0.164   0.005
    1UNL     O2   12  -0.128   0.040  -0.039
    1UNL    C11   13  -0.143  -0.060   0.062
    1UNL    C12   14  -0.065  -0.187   0.037
    1UNL     O3   15  -0.102  -0.236  -0.091
    1UNL    C13   16  -0.289  -0.096   0.096
    1UNL     O4   17  -0.302  -0.121   0.240
    1UNL    C14   18  -0.388   0.022   0.060
    1UNL     O5   19  -0.503   0.007   0.136
    1UNL    C15   20  -0.314   0.155   0.080
    1UNL     O6   21  -0.293   0.194   0.213
    1UNL    C16   22   0.272   0.177  -0.120
    1UNL     O7   23   0.311   0.279  -0.068
    1UNL     O8   24   0.342   0.063  -0.159
    1UNL     H1   25   0.364   0.010   0.033
    1UNL     H2   26   0.388  -0.125   0.154
    1UNL     H3   27   0.225  -0.065   0.133
    1UNL     H4   28   0.254  -0.369   0.076
    1UNL     H5   29   0.335  -0.396  -0.077
    1UNL     H6   30   0.430  -0.330   0.055
    1UNL     H7   31   0.255  -0.257  -0.224
    1UNL     H8   32   0.293  -0.038  -0.324
    1UNL     H9   33   0.058   0.013  -0.305
    1UNL    H10   34   0.030  -0.009  -0.136
    1UNL    H11   35   0.098   0.360  -0.153
    1UNL    H12   36  -0.119   0.161  -0.255
    1UNL    H13   37  -0.125   0.327  -0.283
    1UNL    H14   38  -0.108   0.197   0.081
    1UNL    H15   39  -0.102  -0.015   0.153
    1UNL    H16   40  -0.082  -0.267   0.108
    1UNL    H17   41   0.042  -0.166   0.032
    1UNL    H18   42  -0.145  -0.164  -0.146
    1UNL    H19   43  -0.311  -0.191   0.034
    1UNL    H20   44  -0.400  -0.106   0.260
    1UNL    H21   45  -0.414   0.019  -0.050
    1UNL    H22   46  -0.562   0.087   0.135
    1UNL    H23   47  -0.381   0.236   0.042
    1UNL    H24   48  -0.315   0.118   0.264
   0.00000   0.00000   0.00000   0.00000   0.00000   0.00000   0.00000   0.00000   0.00000
Generated with MDTraj, t= 91.0
 48
    1UNL     C1    1   0.342  -0.103   0.070
    1UNL     C2    2   0.297  -0.200  -0.031
    1UNL     C3    3   0.321  -0.345   0.000
    1UNL     C4    4   0.262  -0.176  -0.155
    1UNL     C5    5   0.260  -0.032  -0.209
    1UNL     C6    6   0.114   0.034  -0.202
    1UNL     C7    7   0.132   0.171  -0.150
    1UNL     C8    8   0.041   0.272  -0.139
    1UNL     C9    9  -0.096   0.257  -0.196
    1UNL     O1   10  -0.200   0.265  -0.107
    1UNL    C10   11  -0.195   0.174  -0.006
    1UNL     O2   12  -0.147   0.044  -0.043
    1UNL    C11   13  -0.139  -0.046   0.063
    1UNL    C12   14  -0.047  -0.171   0.032
    1UNL     O3   15  -0.088  -0.240  -0.082
    1UNL    C13   16  -0.283  -0.089   0.099
    1UNL     O4   17  -0.291  -0.095   0.241
    1UNL    C14   18  -0.401   0.010   0.056
    1UNL     O5   19  -0.515  -0.003   0.134
    1UNL    C15   20  -0.336   0.160   0.071
    1UNL     O6   21  -0.305   0.181   0.212
    1UNL    C16   22   0.279   0.175  -0.119
    1UNL     O7   23   0.336   0.278  -0.095
    1UNL     O8   24   0.343   0.058  -0.147
    1UNL     H1   25   0.289  -0.000   0.066
    1UNL     H2   26   0.449  -0.075   0.050
    1UNL     H3   27   0.342  -0.138   0.181
    1UNL     H4   28   0.232  -0.407  -0.003
    1UNL     H5   29   0.387  -0.386  -0.075
    1UNL     H6   30   0.382  -0.350   0.095
    1UNL     H7   31   0.226  -0.251  -0.220
    1UNL     H8   32   0.310  -0.042  -0.307
    1UNL     H9   33   0.076   0.041  -0.305
    1UNL    H10   34   0.036  -0.029  -0.153
    1UNL    H11   35   0.075   0.367  -0.106
    1UNL    H12   36  -0.098   0.162  -0.250
    1UNL    H13   37  -0.103   0.349  -0.261
    1UNL    H14   38  -0.117   0.210   0.064
    1UNL    H15   39  -0.106   0.006   0.155
    1UNL    H16   40  -0.064  -0.241   0.115
    1UNL    H17   41   0.061  -0.151   0.029
    1UNL    H18   42  -0.091  -0.185  -0.163
    1UNL    H19   43  -0.302  -0.194   0.059
    1UNL    H20   44  -0.377  -0.132   0.257
    1UNL    H21   45  -0.429  -0.014  -0.052
    1UNL    H22   46  -0.507   0.053   0.216
    1UNL    H23   47  -0.409   0.238   0.040
    1UNL    H24   48  -0.261   0.092   0.243
   0.00000   0.00000   0.00000   0.00000   0.00000   0.00000   0.00000   0.00000   0.00000
Generated with MDTraj, t= 92.0
 48
    1UNL     C1    1   0.392  -0.122   0.057
    1UNL     C2    2   0.301  -0.205  -0.041
    1UNL     C3    3   0.262  -0.335   0.009
    1UNL     C4    4   0.267  -0.162  -0.160
    1UNL     C5    5   0.275  -0.024  -0.220
    1UNL     C6    6   0.130   0.037  -0.248
    1UNL     C7    7   0.142   0.171  -0.186
    1UNL     C8    8   0.039   0.258  -0.171
    1UNL     C9    9  -0.103   0.235  -0.212
    1UNL     O1   10  -0.196   0.260  -0.102
    1UNL    C10   11  -0.186   0.166   0.007
    1UNL     O2   12  -0.110   0.039  -0.016
    1UNL    C11   13  -0.133  -0.059   0.086
    1UNL    C12   14  -0.049  -0.181   0.036
    1UNL     O3   15  -0.093  -0.217  -0.087
    1UNL    C13   16  -0.286  -0.091   0.116
    1UNL     O4   17  -0.307  -0.098   0.262
    1UNL    C14   18  -0.389   0.012   0.058
    1UNL     O5   19  -0.514   0.002   0.121
    1UNL    C15   20  -0.329   0.151   0.073
    1UNL     O6   21  -0.328   0.187   0.208
    1UNL    C16   22   0.270   0.184  -0.119
    1UNL     O7   23   0.305   0.278  -0.048
    1UNL     O8   24   0.347   0.076  -0.146
    1UNL     H1   25   0.324  -0.081   0.140
    1UNL     H2   26   0.445  -0.041   0.001
    1UNL     H3   27   0.469  -0.202   0.103
    1UNL     H4   28   0.220  -0.393  -0.069
    1UNL     H5   29   0.356  -0.384   0.032
    1UNL     H6   30   0.208  -0.333   0.109
    1UNL     H7   31   0.214  -0.233  -0.226
    1UNL     H8   32   0.334  -0.025  -0.307
    1UNL     H9   33   0.100   0.042  -0.356
    1UNL    H10   34   0.056  -0.020  -0.194
    1UNL    H11   35   0.052   0.361  -0.137
    1UNL    H12   36  -0.120   0.126  -0.226
    1UNL    H13   37  -0.133   0.306  -0.297
    1UNL    H14   38  -0.112   0.210   0.078
    1UNL    H15   39  -0.087  -0.014   0.178
    1UNL    H16   40  -0.056  -0.270   0.103
    1UNL    H17   41   0.055  -0.144   0.043
    1UNL    H18   42  -0.100  -0.138  -0.147
    1UNL    H19   43  -0.312  -0.192   0.073
    1UNL    H20   44  -0.400  -0.063   0.283
    1UNL    H21   45  -0.408  -0.004  -0.055
    1UNL    H22   46  -0.528   0.070   0.189
    1UNL    H23   47  -0.391   0.226   0.018
    1UNL    H24   48  -0.285   0.121   0.259
   0.00000   0.00000   0.00000   0.00000   0.00000   0.00000   0.00000   0.00000   0.00000
Generated with MDTraj, t= 93.0
 48
    1UNL     C1    1   0.418  -0.124   0.022
    1UNL     C2    2   0.313  -0.198  -0.050
    1UNL     C3    3   0.271  -0.333   0.017
    1UNL     C4    4   0.249  -0.149  -0.153
    1UNL     C5    5   0.278  -0.021  -0.225
    1UNL     C6    6   0.159   0.057  -0.288
    1UNL     C7    7   0.141   0.157  -0.178
    1UNL     C8    8   0.030   0.227  -0.145
    1UNL     C9    9  -0.102   0.221  -0.213
    1UNL     O1   10  -0.209   0.250  -0.113
    1UNL    C10   11  -0.193   0.177   0.005
    1UNL     O2   12  -0.139   0.050  -0.023
    1UNL    C11   13  -0.141  -0.042   0.089
    1UNL    C12   14  -0.054  -0.161   0.041
    1UNL     O3   15  -0.101  -0.220  -0.071
    1UNL    C13   16  -0.281  -0.088   0.122
    1UNL     O4   17  -0.292  -0.097   0.266
    1UNL    C14   18  -0.384   0.012   0.062
    1UNL     O5   19  -0.523   0.005   0.094
    1UNL    C15   20  -0.329   0.152   0.079
    1UNL     O6   21  -0.318   0.199   0.211
    1UNL    C16   22   0.269   0.168  -0.104
    1UNL     O7   23   0.287   0.261  -0.025
    1UNL     O8   24   0.352   0.062  -0.138
    1UNL     H1   25   0.374  -0.065   0.113
    1UNL     H2   26   0.472  -0.045  -0.047
    1UNL     H3   27   0.502  -0.191   0.058
    1UNL     H4   28   0.217  -0.399  -0.048
    1UNL     H5   29   0.357  -0.394   0.043
    1UNL     H6   30   0.223  -0.323   0.117
    1UNL     H7   31   0.181  -0.214  -0.205
    1UNL     H8   32   0.356  -0.035  -0.293
    1UNL     H9   33   0.188   0.106  -0.386
    1UNL    H10   34   0.069  -0.002  -0.286
    1UNL    H11   35   0.034   0.290  -0.059
    1UNL    H12   36  -0.130   0.122  -0.260
    1UNL    H13   37  -0.118   0.310  -0.283
    1UNL    H14   38  -0.127   0.224   0.083
    1UNL    H15   39  -0.095   0.011   0.176
    1UNL    H16   40  -0.033  -0.228   0.130
    1UNL    H17   41   0.047  -0.120   0.017
    1UNL    H18   42  -0.115  -0.149  -0.138
    1UNL    H19   43  -0.287  -0.189   0.077
    1UNL    H20   44  -0.381  -0.133   0.290
    1UNL    H21   45  -0.389  -0.004  -0.052
    1UNL    H22   46  -0.552   0.063   0.169
    1UNL    H23   47  -0.404   0.221   0.034
    1UNL    H24   48  -0.266   0.134   0.266
   0.00000   0.00000   0.00000   0.00000   0.00000   0.00000   0.00000   0.00000   0.00000
Generated with MDTraj, t= 94.0
 48
    1UNL     C1    1   0.451  -0.144  -0.011
    1UNL     C2    2   0.330  -0.207  -0.068
    1UNL     C3    3   0.283  -0.334   0.001
    1UNL     C4    4   0.257  -0.155  -0.162
    1UNL     C5    5   0.276  -0.020  -0.227
    1UNL     C6    6   0.134   0.046  -0.246
    1UNL     C7    7   0.133   0.168  -0.159
    1UNL     C8    8   0.038   0.261  -0.147
    1UNL     C9    9  -0.092   0.238  -0.205
    1UNL     O1   10  -0.208   0.255  -0.125
    1UNL    C10   11  -0.195   0.169  -0.015
    1UNL     O2   12  -0.140   0.036  -0.033
    1UNL    C11   13  -0.148  -0.047   0.083
    1UNL    C12   14  -0.051  -0.159   0.069
    1UNL     O3   15  -0.081  -0.231  -0.046
    1UNL    C13   16  -0.296  -0.089   0.117
    1UNL     O4   17  -0.298  -0.086   0.258
    1UNL    C14   18  -0.401   0.008   0.054
    1UNL     O5   19  -0.518   0.013   0.136
    1UNL    C15   20  -0.346   0.160   0.046
    1UNL     O6   21  -0.334   0.198   0.185
    1UNL    C16   22   0.268   0.173  -0.094
    1UNL     O7   23   0.290   0.248   0.001
    1UNL     O8   24   0.348   0.073  -0.140
    1UNL     H1   25   0.473  -0.031  -0.034
    1UNL     H2   26   0.552  -0.195  -0.043
    1UNL     H3   27   0.459  -0.148   0.100
    1UNL     H4   28   0.179  -0.342  -0.032
    1UNL     H5   29   0.328  -0.425  -0.038
    1UNL     H6   30   0.293  -0.329   0.108
    1UNL     H7   31   0.177  -0.212  -0.207
    1UNL     H8   32   0.328  -0.039  -0.317
    1UNL     H9   33   0.110   0.082  -0.350
    1UNL    H10   34   0.065  -0.025  -0.206
    1UNL    H11   35   0.062   0.331  -0.069
    1UNL    H12   36  -0.111   0.131  -0.230
    1UNL    H13   37  -0.112   0.290  -0.303
    1UNL    H14   38  -0.135   0.227   0.060
    1UNL    H15   39  -0.119   0.026   0.161
    1UNL    H16   40  -0.055  -0.232   0.155
    1UNL    H17   41   0.055  -0.126   0.079
    1UNL    H18   42  -0.100  -0.171  -0.121
    1UNL    H19   43  -0.311  -0.193   0.093
    1UNL    H20   44  -0.381  -0.115   0.294
    1UNL    H21   45  -0.435  -0.028  -0.047
    1UNL    H22   46  -0.499   0.056   0.222
    1UNL    H23   47  -0.403   0.231  -0.017
    1UNL    H24   48  -0.292   0.118   0.228
   0.00000   0.00000   0.00000   0.00000   0.00000   0.00000   0.00000   0.00000   0.00000
Generated with MDTraj, t= 95.0
 48
    1UNL     C1    1   0.469  -0.153  -0.041
    1UNL     C2    2   0.339  -0.223  -0.078
    1UNL     C3    3   0.325  -0.367  -0.033
    1UNL     C4    4   0.245  -0.165  -0.146
    1UNL     C5    5   0.263  -0.030  -0.201
    1UNL     C6    6   0.126   0.044  -0.226
    1UNL     C7    7   0.128   0.171  -0.145
    1UNL     C8    8   0.033   0.265  -0.137
    1UNL     C9    9  -0.091   0.253  -0.210
    1UNL     O1   10  -0.209   0.251  -0.127
    1UNL    C10   11  -0.212   0.165  -0.015
    1UNL     O2   12  -0.142   0.044  -0.033
    1UNL    C11   13  -0.141  -0.040   0.082
    1UNL    C12   14  -0.044  -0.153   0.069
    1UNL     O3   15  -0.056  -0.241  -0.044
    1UNL    C13   16  -0.289  -0.084   0.111
    1UNL     O4   17  -0.300  -0.080   0.253
    1UNL    C14   18  -0.400   0.010   0.053
    1UNL     O5   19  -0.514   0.012   0.142
    1UNL    C15   20  -0.355   0.158   0.044
    1UNL     O6   21  -0.354   0.221   0.167
    1UNL    C16   22   0.258   0.177  -0.082
    1UNL     O7   23   0.291   0.269  -0.006
    1UNL     O8   24   0.335   0.061  -0.112
    1UNL     H1   25   0.539  -0.151  -0.129
    1UNL     H2   26   0.516  -0.203   0.047
    1UNL     H3   27   0.441  -0.045  -0.016
    1UNL     H4   28   0.235  -0.369   0.029
    1UNL     H5   29   0.294  -0.433  -0.116
    1UNL     H6   30   0.407  -0.409   0.018
    1UNL     H7   31   0.147  -0.216  -0.159
    1UNL     H8   32   0.309  -0.044  -0.299
    1UNL     H9   33   0.136   0.071  -0.334
    1UNL    H10   34   0.035  -0.011  -0.209
    1UNL    H11   35   0.045   0.340  -0.061
    1UNL    H12   36  -0.094   0.157  -0.263
    1UNL    H13   37  -0.109   0.329  -0.290
    1UNL    H14   38  -0.162   0.218   0.068
    1UNL    H15   39  -0.119   0.035   0.164
    1UNL    H16   40  -0.044  -0.209   0.165
    1UNL    H17   41   0.061  -0.128   0.068
    1UNL    H18   42  -0.149  -0.277  -0.056
    1UNL    H19   43  -0.307  -0.185   0.082
    1UNL    H20   44  -0.399  -0.073   0.278
    1UNL    H21   45  -0.434  -0.030  -0.043
    1UNL    H22   46  -0.544   0.101   0.167
    1UNL    H23   47  -0.423   0.217  -0.020
    1UNL    H24   48  -0.301   0.178   0.232
   0.00000   0.00000   0.00000   0.00000   0.00000   0.00000   0.00000   0.00000   0.00000
Generated with MDTraj, t= 96.0
 48
    1UNL     C1    1   0.495  -0.195  -0.072
    1UNL     C2    2   0.355  -0.246  -0.087
    1UNL     C3    3   0.342  -0.389  -0.051
    1UNL     C4    4   0.254  -0.174  -0.129
    1UNL     C5    5   0.258  -0.030  -0.165
    1UNL     C6    6   0.120   0.028  -0.197
    1UNL     C7    7   0.119   0.164  -0.146
    1UNL     C8    8   0.029   0.264  -0.158
    1UNL     C9    9  -0.107   0.244  -0.219
    1UNL     O1   10  -0.218   0.262  -0.135
    1UNL    C10   11  -0.217   0.182  -0.017
    1UNL     O2   12  -0.143   0.059  -0.041
    1UNL    C11   13  -0.132  -0.022   0.081
    1UNL    C12   14  -0.034  -0.130   0.060
    1UNL     O3   15  -0.070  -0.205  -0.051
    1UNL    C13   16  -0.281  -0.063   0.125
    1UNL     O4   17  -0.297  -0.053   0.263
    1UNL    C14   18  -0.393   0.008   0.054
    1UNL     O5   19  -0.524  -0.032   0.099
    1UNL    C15   20  -0.357   0.161   0.057
    1UNL     O6   21  -0.346   0.210   0.186
    1UNL    C16   22   0.246   0.177  -0.075
    1UNL     O7   23   0.277   0.279  -0.015
    1UNL     O8   24   0.324   0.062  -0.074
    1UNL     H1   25   0.561  -0.226  -0.153
    1UNL     H2   26   0.537  -0.208   0.030
    1UNL     H3   27   0.472  -0.084  -0.096
    1UNL     H4   28   0.323  -0.399   0.056
    1UNL     H5   29   0.250  -0.432  -0.092
    1UNL     H6   30   0.423  -0.452  -0.078
    1UNL     H7   31   0.159  -0.216  -0.113
    1UNL     H8   32   0.315  -0.023  -0.262
    1UNL     H9   33   0.080   0.011  -0.299
    1UNL    H10   34   0.049  -0.031  -0.136
    1UNL    H11   35   0.051   0.357  -0.110
    1UNL    H12   36  -0.106   0.150  -0.271
    1UNL    H13   37  -0.107   0.326  -0.292
    1UNL    H14   38  -0.159   0.238   0.057
    1UNL    H15   39  -0.090   0.058   0.150
    1UNL    H16   40  -0.009  -0.197   0.143
    1UNL    H17   41   0.062  -0.084   0.047
    1UNL    H18   42  -0.110  -0.140  -0.116
    1UNL    H19   43  -0.295  -0.165   0.096
    1UNL    H20   44  -0.382  -0.093   0.283
    1UNL    H21   45  -0.378  -0.024  -0.048
    1UNL    H22   46  -0.550   0.019   0.180
    1UNL    H23   47  -0.435   0.211  -0.002
    1UNL    H24   48  -0.323   0.131   0.248
   0.00000   0.00000   0.00000   0.00000   0.00000   0.00000   0.00000   0.00000   0.00000
Generated with MDTraj, t= 97.0
 48
    1UNL     C1    1   0.486  -0.186  -0.126
    1UNL     C2    2   0.355  -0.242  -0.089
    1UNL     C3    3   0.348  -0.385  -0.040
    1UNL     C4    4   0.248  -0.170  -0.118
    1UNL     C5    5   0.247  -0.034  -0.162
    1UNL     C6    6   0.121   0.021  -0.207
    1UNL     C7    7   0.123   0.155  -0.153
    1UNL     C8    8   0.026   0.250  -0.162
    1UNL     C9    9  -0.113   0.230  -0.221
    1UNL     O1   10  -0.212   0.252  -0.130
    1UNL    C10   11  -0.195   0.189  -0.002
    1UNL     O2   12  -0.113   0.073  -0.017
    1UNL    C11   13  -0.122  -0.022   0.093
    1UNL    C12   14  -0.029  -0.142   0.067
    1UNL     O3   15  -0.051  -0.203  -0.058
    1UNL    C13   16  -0.279  -0.070   0.128
    1UNL     O4   17  -0.309  -0.045   0.263
    1UNL    C14   18  -0.386   0.009   0.045
    1UNL     O5   19  -0.522  -0.017   0.092
    1UNL    C15   20  -0.345   0.165   0.046
    1UNL     O6   21  -0.376   0.215   0.172
    1UNL    C16   22   0.240   0.172  -0.060
    1UNL     O7   23   0.254   0.275   0.004
    1UNL     O8   24   0.312   0.058  -0.065
    1UNL     H1   25   0.512  -0.177  -0.234
    1UNL     H2   26   0.575  -0.228  -0.077
    1UNL     H3   27   0.486  -0.080  -0.101
    1UNL     H4   28   0.361  -0.392   0.068
    1UNL     H5   29   0.248  -0.420  -0.058
    1UNL     H6   30   0.419  -0.445  -0.098
    1UNL     H7   31   0.145  -0.195  -0.087
    1UNL     H8   32   0.323  -0.029  -0.249
    1UNL     H9   33   0.104   0.015  -0.315
    1UNL    H10   34   0.033  -0.036  -0.165
    1UNL    H11   35   0.056   0.351  -0.132
    1UNL    H12   36  -0.111   0.130  -0.255
    1UNL    H13   37  -0.120   0.298  -0.303
    1UNL    H14   38  -0.144   0.257   0.066
    1UNL    H15   39  -0.088   0.038   0.185
    1UNL    H16   40  -0.040  -0.206   0.154
    1UNL    H17   41   0.073  -0.118   0.072
    1UNL    H18   42  -0.133  -0.166  -0.096
    1UNL    H19   43  -0.291  -0.176   0.119
    1UNL    H20   44  -0.405  -0.044   0.270
    1UNL    H21   45  -0.372  -0.028  -0.053
    1UNL    H22   46  -0.562   0.063   0.130
    1UNL    H23   47  -0.412   0.215  -0.023
    1UNL    H24   48  -0.337   0.159   0.245
   0.00000   0.00000   0.00000   0.00000   0.00000   0.00000   0.00000   0.00000   0.00000
Generated with MDTraj, t= 98.0
 48
    1UNL     C1    1   0.507  -0.186  -0.134
    1UNL     C2    2   0.371  -0.238  -0.104
    1UNL     C3    3   0.350  -0.377  -0.033
    1UNL     C4    4   0.263  -0.170  -0.133
    1UNL     C5    5   0.262  -0.034  -0.193
    1UNL     C6    6   0.116   0.029  -0.210
    1UNL     C7    7   0.121   0.156  -0.131
    1UNL     C8    8   0.033   0.257  -0.139
    1UNL     C9    9  -0.096   0.258  -0.217
    1UNL     O1   10  -0.211   0.267  -0.142
    1UNL    C10   11  -0.219   0.178  -0.027
    1UNL     O2   12  -0.143   0.059  -0.027
    1UNL    C11   13  -0.143  -0.007   0.097
    1UNL    C12   14  -0.039  -0.117   0.093
    1UNL     O3   15  -0.059  -0.221  -0.001
    1UNL    C13   16  -0.286  -0.074   0.124
    1UNL     O4   17  -0.315  -0.061   0.262
    1UNL    C14   18  -0.397   0.004   0.044
    1UNL     O5   19  -0.527  -0.008   0.111
    1UNL    C15   20  -0.362   0.161   0.033
    1UNL     O6   21  -0.371   0.211   0.165
    1UNL    C16   22   0.247   0.161  -0.062
    1UNL     O7   23   0.275   0.251   0.012
    1UNL     O8   24   0.335   0.058  -0.093
    1UNL     H1   25   0.507  -0.104  -0.211
    1UNL     H2   26   0.575  -0.269  -0.155
    1UNL     H3   27   0.536  -0.128  -0.052
    1UNL     H4   28   0.362  -0.369   0.074
    1UNL     H5   29   0.249  -0.407  -0.042
    1UNL     H6   30   0.416  -0.456  -0.076
    1UNL     H7   31   0.166  -0.207  -0.115
    1UNL     H8   32   0.321  -0.039  -0.293
    1UNL     H9   33   0.082   0.033  -0.313
    1UNL    H10   34   0.031  -0.029  -0.162
    1UNL    H11   35   0.064   0.345  -0.090
    1UNL    H12   36  -0.107   0.174  -0.280
    1UNL    H13   37  -0.099   0.346  -0.278
    1UNL    H14   38  -0.164   0.242   0.042
    1UNL    H15   39  -0.118   0.073   0.177
    1UNL    H16   40  -0.026  -0.165   0.191
    1UNL    H17   41   0.056  -0.067   0.077
    1UNL    H18   42  -0.110  -0.191  -0.080
    1UNL    H19   43  -0.291  -0.182   0.103
    1UNL    H20   44  -0.410  -0.095   0.278
    1UNL    H21   45  -0.405  -0.034  -0.054
    1UNL    H22   46  -0.595   0.050   0.074
    1UNL    H23   47  -0.432   0.219  -0.027
    1UNL    H24   48  -0.339   0.142   0.227
   0.00000   0.00000   0.00000   0.00000   0.00000   0.00000   0.00000   0.00000   0.00000
Generated with MDTraj, t= 99.0
 48
    1UNL     C1    1   0.502  -0.168  -0.121
    1UNL     C2    2   0.362  -0.227  -0.112
    1UNL     C3    3   0.349  -0.361  -0.051
    1UNL     C4    4   0.255  -0.159  -0.145
    1UNL     C5    5   0.268  -0.030  -0.201
    1UNL     C6    6   0.133   0.041  -0.228
    1UNL     C7    7   0.133   0.159  -0.133
    1UNL     C8    8   0.038   0.251  -0.126
    1UNL     C9    9  -0.085   0.247  -0.210
    1UNL     O1   10  -0.211   0.259  -0.139
    1UNL    C10   11  -0.220   0.171  -0.021
    1UNL     O2   12  -0.152   0.041  -0.019
    1UNL    C11   13  -0.158  -0.019   0.107
    1UNL    C12   14  -0.048  -0.127   0.120
    1UNL     O3   15  -0.066  -0.222   0.020
    1UNL    C13   16  -0.302  -0.069   0.134
    1UNL     O4   17  -0.321  -0.056   0.269
    1UNL    C14   18  -0.399   0.002   0.046
    1UNL     O5   19  -0.534   0.007   0.089
    1UNL    C15   20  -0.366   0.151   0.028
    1UNL     O6   21  -0.373   0.211   0.152
    1UNL    C16   22   0.263   0.160  -0.068
    1UNL     O7   23   0.299   0.240   0.012
    1UNL     O8   24   0.340   0.059  -0.117
    1UNL     H1   25   0.507  -0.102  -0.204
    1UNL     H2   26   0.564  -0.255  -0.121
    1UNL     H3   27   0.511  -0.102  -0.038
    1UNL     H4   28   0.336  -0.346   0.055
    1UNL     H5   29   0.264  -0.418  -0.077
    1UNL     H6   30   0.439  -0.427  -0.062
    1UNL     H7   31   0.156  -0.203  -0.143
    1UNL     H8   32   0.319  -0.058  -0.302
    1UNL     H9   33   0.128   0.079  -0.331
    1UNL    H10   34   0.047  -0.027  -0.208
    1UNL    H11   35   0.066   0.338  -0.066
    1UNL    H12   36  -0.103   0.155  -0.258
    1UNL    H13   37  -0.097   0.314  -0.290
    1UNL    H14   38  -0.177   0.235   0.057
    1UNL    H15   39  -0.126   0.059   0.187
    1UNL    H16   40  -0.034  -0.165   0.225
    1UNL    H17   41   0.048  -0.076   0.095
    1UNL    H18   42  -0.089  -0.176  -0.065
    1UNL    H19   43  -0.299  -0.178   0.109
    1UNL    H20   44  -0.410  -0.078   0.292
    1UNL    H21   45  -0.398  -0.038  -0.051
    1UNL    H22   46  -0.541   0.056   0.175
    1UNL    H23   47  -0.442   0.205  -0.029
    1UNL    H24   48  -0.334   0.147   0.220
   0.00000   0.00000   0.00000   0.00000   0.00000   0.00000   0.00000   0.00000   0.00000
