[ moleculetype ]
; name        nrexcl
res           1

[ atoms ]
;    nr  type  resnr resid  atom  cgnr     charge       mass
      1 TC5       1 res   C1        1      0.000     36.000
      2 TC3       1 res   C2        2      0.000     36.000
      3 TN6d      1 res   C3        3      0.000     36.000
      4 TC3       1 res   C4        4      0.000     36.000
      5 TC5       1 res   C5        5      0.000     36.000
      6 TN6d      1 res   C6        6      0.000     36.000
      7 TC5       1 res   C7        7      0.000     36.000
      8 TC5       1 res   C8        8      0.000     36.000
      9 TC5       1 res   C9        9      0.000     36.000
     10 TN2a      1 res   C10      10      0.000     36.000
     11 TC3       1 res   C11      11      0.000     36.000
     12 TC5       1 res   C12      12      0.000     36.000
     13 TP1d      1 res   C13      13      0.000     36.000
     14 N4a       1 res   C14      14      0.000     72.000

[ constraints ]
;  ai    aj   funct      b0(nm)
    3     5     1      0.21530
    2     3     1      0.28612
   11    12     1      0.28235
    4     5     1      0.24760
    3    11     1      0.21590
    5     7     1      0.18302
    7     9     1      0.25713
    3     4     1      0.26675
    7     8     1      0.25043
    5     6     1      0.21912
   12    13     1      0.26487
    6     7     1      0.21914
    2    11     1      0.28793
    8     9     1      0.25893

[ bonds ]
;  ai    aj   funct      b0(nm)          k(kJ/mol/nm^2)
    1     2     1      0.26940          19963.0
   12    14     1      0.39252          18304.6
    9    10     1      0.24155          19917.3

[ angles ]
;  ai    aj    ak  funct     th0(deg)        k(kJ/mol/rad^2)
    1     2     3     1    110.58594            33.60
    1     2    11     1     81.50451            96.63
    2     3     4     1     81.25117           770.86
    2     3     5     1     94.68985           322.95
    2     3    11     1     68.34395          3760.22
    2    11     3     1     67.47669          2723.25
    2    11    12     1     85.93591           274.72
    3     2    11     1     44.17940          6244.85
    3     4     5     1     49.30762          5727.33
    3     5     4     1     69.96919          2669.07
    3     5     6     1     95.32150          1277.36
    3     5     7     1    159.82095          1316.76
    3    11    12     1    135.08605           498.44
    4     3     5     1     60.72323          2397.55
    4     3    11     1    148.49638           521.43
    4     5     6     1    164.32027          1125.60
    4     5     7     1    128.95285          1549.02
    5     3    11     1    113.63991          1090.42
    5     6     7     1     49.37012          7709.83
    5     7     6     1     65.31009          4808.62
    5     7     8     1    161.33966          1414.93
    5     7     9     1    136.37249          1886.39
    6     5     7     1     65.31984          4951.59
    6     7     8     1     96.57628          1985.89
    6     7     9     1    157.12518          1426.73
    7     8     9     1     60.61026          8695.02
    7     9     8     1     58.05620         10733.41
    7     9    10     1    112.87510           336.05
    8     7     9     1     61.33353          7911.58
    8     9    10     1    166.25914           140.12
   11    12    13     1    164.95270           147.94
   11    12    14     1     66.71889           145.42
   13    12    14     1    108.37519            86.82

[ dihedrals ]
;  ai    aj    ak    al  funct   phi0(deg)        k(kJ/mol)   mult
    1     2     3     4     1    -49.72597       20.276      1
    1     2     3     5     1   -107.99453       19.593      1
    1     2     3    11     1    137.93147       20.255      1
    1     2    11     3     1    -42.81534       22.097      1
    1     2    11    12     1    102.58859       21.592      1
    2     3     4     5     1     76.71700       10.006      1
    2     3     5     4     1   -104.87063        8.551      1
    2     3     5     6     1     75.16487       12.932      1
    2     3     5     7     1     72.47501       23.712      1
    2     3    11    12     1    124.14641       17.068      1
    2    11     3     4     1    166.69539       15.624      1
    2    11     3     5     1     92.67565       10.030      1
    2    11    12    13     1     -7.17612       27.799      1
    2    11    12    14     1    -65.58102       15.021      1
    3     2    11    12     1    -36.96185       11.572      1
    3     4     5     6     1    178.66741       25.993      1
    3     4     5     7     1      1.00069       14.316      1
    3     5     6     7     1      1.86032       10.754      1
    3     5     7     6     1   -175.89723       22.800      1
    3     5     7     8     1   -172.27408       28.410      1
    3     5     7     9     1      4.66738       24.586      1
    3    11    12    13     1     45.08998       28.965      1
    3    11    12    14     1     -9.52137       16.285      1
    4     3     2    11     1     -7.42910        9.968      1
    4     3     5     6     1     -0.99257       11.452      1
    4     3     5     7     1     -4.44933       22.501      1
    4     3    11    12     1    110.36073       22.746      1
    4     5     3    11     1    -34.03022        7.844      1
    4     5     6     7     1      3.52963       27.205      1
    4     5     7     6     1     -1.80688       14.964      1
    4     5     7     8     1     -2.02849       21.963      1
    4     5     7     9     1    177.14621       18.391      1
    5     3     2    11     1    -66.00790        6.318      1
    5     3    11    12     1     37.97350       19.195      1
    5     4     3    11     1     90.06379       12.163      1
    5     6     7     8     1      0.00076       10.667      1
    5     6     7     9     1      1.85729       23.970      1
    5     7     8     9     1     -0.97328       21.997      1
    5     7     9     8     1     -0.83313       15.668      1
    5     7     9    10     1   -177.51846       23.327      1
    6     5     3    11     1    144.22039       12.231      1
    6     5     7     8     1   -178.08960       20.770      1
    6     5     7     9     1     -0.72283       15.708      1
    6     7     8     9     1     -0.97233       12.891      1
    6     7     9     8     1    178.44584       23.403      1
    6     7     9    10     1     -3.07725       23.673      1
    7     5     3    11     1    141.76737       24.402      1
    7     8     9    10     1   -171.14569       27.562      1
    8     7     9    10     1     -0.08100       18.302      1
