1TPCN04530
16
    1res  C1    1    0.947   0.330  -0.040
    1res  C2    2    0.908   0.050   0.034
    1res  C3    3    0.705  -0.104   0.109
    1res  C4    4    0.282   0.124   0.059
    1res  C5    5    0.005  -0.021   0.134
    1res  C6    6   -0.209   0.153   0.057
    1res  C7    7   -0.403   0.057  -0.130
    1res  C8    8   -0.416  -0.165   0.147
    1res  C9    9   -0.606   0.149   0.149
    1res  C10   10   -0.998   0.021  -0.058
    1res  C11   11   -0.351  -0.224  -0.110
    1res  C12   12   -0.021  -0.230  -0.077
    1res  C13   13    0.188  -0.152   0.040
    1res  C14   14    0.336  -0.122  -0.170
    1res  C15   15    1.079  -0.148  -0.115
    1res  C16   16    1.148   0.137  -0.238
  10.00000  10.00000  10.00000
