1TPCN05287
32
    1res  C1    1    1.147   0.340  -0.007
    1res  C2    2    1.002   0.012  -0.164
    1res  C3    3    0.815   0.134  -0.059
    1res  C4    4    0.662   0.017  -0.146
    1res  C5    5    0.648   0.272  -0.186
    1res  C6    6    0.519   0.187   0.136
    1res  C7    7    0.379   0.118  -0.221
    1res  C8    8    0.186   0.085   0.117
    1res  C9    9    0.077  -0.026  -0.145
    1res  C10   10   -0.035  -0.175   0.024
    1res  C11   11   -0.224  -0.128   0.257
    1res  C12   12   -0.244   0.146   0.220
    1res  C13   13   -0.471  -0.095   0.288
    1res  C14   14   -0.475  -0.106   0.071
    1res  C15   15   -0.631   0.078  -0.050
    1res  C16   16   -0.795   0.249  -0.186
    1res  C17   17   -0.959   0.477  -0.039
    1res  C18   18   -1.082   0.592   0.151
    1res  C19   19   -1.217   0.384   0.115
    1res  C20   20   -1.015   0.202   0.124
    1res  C21   21   -0.491   0.308  -0.143
    1res  C22   22   -0.408   0.139  -0.306
    1res  C23   23   -0.581  -0.070  -0.268
    1res  C24   24   -0.329  -0.253   0.046
    1res  C25   25   -0.328  -0.450  -0.026
    1res  C26   26   -0.472  -0.654  -0.189
    1res  C27   27   -0.480  -0.781   0.045
    1res  C28   28   -0.311  -0.701   0.214
    1res  C29   29   -0.184  -0.584   0.094
    1res  C30   30    0.140  -0.245   0.196
    1res  C31   31    0.417  -0.150  -0.059
    1res  C32   32    0.909  -0.103   0.050
  10.00000  10.00000  10.00000
