1TPCN02222
29
    1res  C1    1    0.429  -0.219  -0.260
    1res  C2    2    0.214  -0.100  -0.148
    1res  C3    3    0.039   0.034  -0.345
    1res  C4    4   -0.071  -0.198  -0.293
    1res  C5    5   -0.305   0.087  -0.219
    1res  C6    6   -0.300  -0.024   0.031
    1res  C7    7   -0.433  -0.121   0.278
    1res  C8    8   -0.547  -0.377   0.304
    1res  C9    9   -0.528  -0.057   0.480
    1res  C10   10   -0.745  -0.032   0.341
    1res  C11   11   -0.637  -0.030   0.127
    1res  C12   12   -0.823   0.069   0.061
    1res  C13   13   -0.874   0.381   0.117
    1res  C14   14   -0.862   0.388  -0.131
    1res  C15   15   -0.947   0.157  -0.210
    1res  C16   16   -0.755   0.026  -0.153
    1res  C17   17   -0.275  -0.268  -0.163
    1res  C18   18    0.194  -0.252   0.032
    1res  C19   19    0.398  -0.003   0.081
    1res  C20   20    0.421   0.024   0.308
    1res  C21   21    0.536  -0.055   0.478
    1res  C22   22    0.564   0.230   0.365
    1res  C23   23    0.433   0.335   0.181
    1res  C24   24    0.501   0.181   0.047
    1res  C25   25    0.723   0.085  -0.137
    1res  C26   26    0.923  -0.173  -0.132
    1res  C27   27    0.989   0.097  -0.032
    1res  C28   28    0.938   0.312  -0.022
    1res  C29   29    0.703   0.337  -0.142
  10.00000  10.00000  10.00000
