1TPCN06203
33
    1res  C1    1   -1.032   0.038  -0.344
    1res  C2    2   -0.947  -0.160  -0.128
    1res  C3    3   -0.801  -0.169   0.008
    1res  C4    4   -0.711   0.007   0.070
    1res  C5    5   -0.759   0.247  -0.003
    1res  C6    6   -0.458   0.176  -0.057
    1res  C7    7   -0.215  -0.014  -0.005
    1res  C8    8   -0.048   0.063  -0.186
    1res  C9    9    0.195   0.232   0.027
    1res  C10   10    0.203   0.052  -0.219
    1res  C11   11    0.214  -0.121   0.117
    1res  C12   12    0.408  -0.112  -0.166
    1res  C13   13    0.649  -0.058   0.123
    1res  C14   14    0.769  -0.350   0.153
    1res  C15   15    0.839  -0.112  -0.037
    1res  C16   16    1.091  -0.047   0.039
    1res  C17   17    1.214   0.238   0.011
    1res  C18   18    1.184   0.011   0.310
    1res  C19   19    1.359  -0.110   0.190
    1res  C20   20    1.212  -0.278   0.101
    1res  C21   21    0.565   0.145  -0.105
    1res  C22   22   -0.177   0.366   0.003
    1res  C23   23   -0.176   0.201   0.236
    1res  C24   24   -0.554   0.400  -0.167
    1res  C25   25   -0.497   0.367  -0.420
    1res  C26   26   -0.740   0.267  -0.270
    1res  C27   27   -0.611  -0.074   0.263
    1res  C28   28   -0.462  -0.164   0.401
    1res  C29   29   -0.777  -0.255   0.329
    1res  C30   30   -0.684  -0.325   0.110
    1res  C31   31   -1.151  -0.279  -0.025
    1res  C32   32   -1.272  -0.104  -0.039
    1res  C33   33   -1.220   0.081  -0.189
  10.00000  10.00000  10.00000
