1TPCN04254
21
    1res  C1    1    0.583  -0.301  -0.088
    1res  C2    2    0.959  -0.253  -0.305
    1res  C3    3    0.312  -0.183  -0.152
    1res  C4    4    0.110  -0.198  -0.003
    1res  C5    5    0.371   0.027   0.179
    1res  C6    6    0.069   0.019   0.174
    1res  C7    7    0.057   0.291   0.172
    1res  C8    8    0.213   0.442  -0.003
    1res  C9    9    0.016   0.615   0.026
    1res  C10   10   -0.185   0.469   0.036
    1res  C11   11   -0.140   0.095   0.027
    1res  C12   12   -0.471   0.261   0.083
    1res  C13   13   -0.569   0.326   0.319
    1res  C14   14   -0.683   0.150   0.111
    1res  C15   15   -0.666   0.108  -0.120
    1res  C16   16   -0.453   0.022  -0.047
    1res  C17   17   -0.394  -0.193  -0.026
    1res  C18   18   -0.256  -0.435   0.077
    1res  C19   19   -0.408  -0.462  -0.145
    1res  C20   20   -0.643  -0.423  -0.068
    1res  C21   21   -0.618  -0.217  -0.147
  10.00000  10.00000  10.00000
