1TPCN05465
13
    1res  C1    1    0.519   0.026   0.275
    1res  C2    2    0.603   0.084  -0.003
    1res  C3    3    0.348   0.069   0.036
    1res  C4    4    0.312   0.174  -0.200
    1res  C5    5    0.305  -0.173  -0.129
    1res  C6    6    0.148  -0.208   0.098
    1res  C7    7    0.010   0.059   0.219
    1res  C8    8   -0.085  -0.200  -0.045
    1res  C9    9   -0.302   0.033   0.149
    1res  C10   10   -0.440  -0.160  -0.003
    1res  C11   11   -0.562   0.032  -0.176
    1res  C12   12   -0.456   0.230  -0.064
    1res  C13   13   -0.101   0.057  -0.168
  10.00000  10.00000  10.00000
