[ moleculetype ]
; name        nrexcl
res           1

[ atoms ]
;    nr  type  resnr resid  atom  cgnr     charge       mass
      1 SC4       1 res   C1        1      0.000     54.000
      2 TN6a      1 res   C2        2      0.000     36.000
      3 TN4a      1 res   C3        3      0.000     36.000
      4 SP1       1 res   C4        4      0.000     54.000
      5 P1        1 res   C5        5      0.000     72.000

[ constraints ]
;  ai    aj   funct      b0(nm)
    1     2     1      0.35317
    2     3     1      0.26588
    4     5     1      0.27270
    3     4     1      0.27876
    1     3     1      0.27339

[ bonds ]
;  ai    aj   funct      b0(nm)          k(kJ/mol/nm^2)

[ angles ]
;  ai    aj    ak  funct     th0(deg)        k(kJ/mol/rad^2)
    1     2     3     1     50.00648          4751.23
    1     3     2     1     81.83117          2502.92
    1     3     4     1     79.99410           362.78
    2     1     3     1     48.16240          5135.32
    2     3     4     1    103.63681           117.03
    3     4     5     1     98.28806           125.41

[ dihedrals ]
;  ai    aj    ak    al  funct   phi0(deg)        k(kJ/mol)   mult
    1     2     3     4     1   -102.31144        9.311      1
    1     3     4     5     1    -47.93310       20.562      1
    2     1     3     4     1     72.76527       14.341      1
    2     3     4     5     1   -125.46602       19.253      1
