[ moleculetype ]
; name        nrexcl
res           1

[ atoms ]
;    nr  type  resnr resid  atom  cgnr     charge       mass
      1 SC4       1 res   C1        1      0.000     54.000
      2 TC5       1 res   C2        2      0.000     36.000
      3 SC2       1 res   C3        3      0.000     54.000
      4 SN6       1 res   C4        4      0.000     54.000
      5 SN4a      1 res   C5        5      0.000     54.000
      6 TP1       1 res   C6        6      0.000     36.000
      7 TN6       1 res   C7        7      0.000     36.000
      8 TN6       1 res   C8        8      0.000     36.000
      9 TN6       1 res   C9        9      0.000     36.000

[ bonds ]
;  ai    aj   funct      b0(nm)          k(kJ/mol/nm^2)
    1     2     1      0.34503         130693.9
    1     4     1      0.31521          78572.7
    2     3     1      0.28499          50816.2
    2     4     1      0.30646         190259.4
    4     5     1      0.31227           1297.8
    5     6     1      0.29259          12868.3
    5     7     1      0.25202          83447.8
    5     9     1      0.27405          13732.9
    7     8     1      0.25240          19504.0
    8     9     1      0.24372           7516.4

[ angles ]
;  ai    aj    ak  funct     th0(deg)        k(kJ/mol/rad^2)
    1     2     3     1    136.93069           688.27
    1     2     4     1     57.50334          6624.08
    1     4     2     1     67.40729          6879.33
    1     4     5     1    104.14448            18.93
    2     1     4     1     55.08937          9312.45
    2     4     5     1    150.00953            38.93
    3     2     4     1     80.24438           763.99
    4     5     6     1    102.50075            36.17
    4     5     7     1     92.57320            59.06
    4     5     9     1     66.50748            26.97
    5     7     8     1     70.78941           139.04
    5     9     8     1     68.80143            79.22
    6     5     7     1     56.95685          1396.32
    6     5     9     1    128.00798            66.78
    7     5     9     1     75.03672           108.83
    7     8     9     1     80.39176           118.67
