1TPCN00426
11
    1res  C1    1   -0.269  -0.008  -0.128
    1res  C2    2   -0.299  -0.015   0.155
    1res  C3    3   -0.077   0.001   0.084
    1res  C4    4    0.102   0.154   0.137
    1res  C5    5    0.294   0.098  -0.117
    1res  C6    6    0.228  -0.096  -0.025
    1res  C7    7    0.461  -0.184  -0.007
    1res  C8    8    0.221  -0.314   0.099
    1res  C9    9   -0.043  -0.161  -0.149
    1res  C10   10   -0.065   0.227  -0.093
    1res  C11   11    0.135   0.358  -0.176
  10.00000  10.00000  10.00000
