Generated with MDTraj, t= 0.0
 54
    1UNL     C1    1  -0.323   0.276   0.064
    1UNL     C2    2  -0.195   0.249  -0.013
    1UNL     C3    3  -0.189   0.108  -0.075
    1UNL     C4    4  -0.085   0.097  -0.189
    1UNL     N1    5   0.056   0.081  -0.140
    1UNL     C5    6   0.133   0.205  -0.108
    1UNL     C6    7   0.284   0.178  -0.101
    1UNL     C7    8   0.312   0.052  -0.026
    1UNL     C8    9   0.217  -0.043   0.001
    1UNL     N2   10   0.274  -0.147   0.071
    1UNL     C9   11   0.408  -0.119   0.090
    1UNL    C10   12   0.510  -0.190   0.155
    1UNL    C11   13   0.636  -0.136   0.158
    1UNL    C12   14   0.663  -0.012   0.098
    1UNL    C13   15   0.565   0.060   0.035
    1UNL    C14   16   0.435   0.006   0.031
    1UNL    C15   17   0.074  -0.031  -0.042
    1UNL    C16   18  -0.021  -0.012   0.076
    1UNL    C17   19  -0.169  -0.004   0.032
    1UNL    C18   20  -0.227  -0.139  -0.017
    1UNL    C19   21  -0.213  -0.253   0.084
    1UNL     O1   22  -0.254  -0.377   0.029
    1UNL    C20   23  -0.372  -0.121  -0.055
    1UNL     O2   24  -0.401  -0.096  -0.170
    1UNL     O3   25  -0.461  -0.129   0.048
    1UNL    C21   26  -0.590  -0.111  -0.002
    1UNL     H1   27  -0.411   0.262   0.001
    1UNL     H2   28  -0.333   0.208   0.149
    1UNL     H3   29  -0.326   0.377   0.103
    1UNL     H4   30  -0.184   0.323  -0.093
    1UNL     H5   31  -0.108   0.264   0.051
    1UNL     H6   32  -0.288   0.090  -0.121
    1UNL     H7   33  -0.107   0.011  -0.253
    1UNL     H8   34  -0.090   0.184  -0.253
    1UNL     H9   35   0.097   0.245  -0.013
    1UNL    H10   36   0.110   0.280  -0.185
    1UNL    H11   37   0.336   0.262  -0.053
    1UNL    H12   38   0.326   0.170  -0.202
    1UNL    H13   39   0.226  -0.231   0.103
    1UNL    H14   40   0.488  -0.285   0.200
    1UNL    H15   41   0.715  -0.190   0.207
    1UNL    H16   42   0.763   0.028   0.103
    1UNL    H17   43   0.585   0.155  -0.011
    1UNL    H18   44   0.047  -0.123  -0.096
    1UNL    H19   45   0.007   0.080   0.129
    1UNL    H20   46  -0.005  -0.092   0.150
    1UNL    H21   47  -0.229   0.023   0.120
    1UNL    H22   48  -0.174  -0.169  -0.109
    1UNL    H23   49  -0.275  -0.231   0.172
    1UNL    H24   50  -0.110  -0.264   0.118
    1UNL    H25   51  -0.257  -0.447   0.098
    1UNL    H26   52  -0.598  -0.012  -0.047
    1UNL    H27   53  -0.609  -0.187  -0.078
    1UNL    H28   54  -0.662  -0.121   0.080
   0.00000   0.00000   0.00000   0.00000   0.00000   0.00000   0.00000   0.00000   0.00000
Generated with MDTraj, t= 1.0
 54
    1UNL     C1    1  -0.268   0.245   0.098
    1UNL     C2    2  -0.211   0.239  -0.048
    1UNL     C3    3  -0.187   0.106  -0.105
    1UNL     C4    4  -0.066   0.102  -0.206
    1UNL     N1    5   0.065   0.093  -0.143
    1UNL     C5    6   0.135   0.215  -0.096
    1UNL     C6    7   0.285   0.195  -0.073
    1UNL     C7    8   0.309   0.066   0.002
    1UNL     C8    9   0.219  -0.035   0.010
    1UNL     N2   10   0.276  -0.139   0.070
    1UNL     C9   11   0.411  -0.115   0.083
    1UNL    C10   12   0.509  -0.196   0.136
    1UNL    C11   13   0.640  -0.143   0.147
    1UNL    C12   14   0.663  -0.015   0.095
    1UNL    C13   15   0.567   0.061   0.039
    1UNL    C14   16   0.437   0.016   0.041
    1UNL    C15   17   0.075  -0.026  -0.044
    1UNL    C16   18  -0.023  -0.008   0.074
    1UNL    C17   19  -0.176  -0.001   0.010
    1UNL    C18   20  -0.233  -0.142  -0.025
    1UNL    C19   21  -0.224  -0.259   0.089
    1UNL     O1   22  -0.285  -0.383   0.050
    1UNL    C20   23  -0.378  -0.130  -0.055
    1UNL     O2   24  -0.410  -0.123  -0.175
    1UNL     O3   25  -0.465  -0.118   0.050
    1UNL    C21   26  -0.594  -0.108   0.005
    1UNL     H1   27  -0.364   0.201   0.118
    1UNL     H2   28  -0.196   0.204   0.168
    1UNL     H3   29  -0.296   0.353   0.108
    1UNL     H4   30  -0.290   0.284  -0.112
    1UNL     H5   31  -0.125   0.297  -0.064
    1UNL     H6   32  -0.273   0.081  -0.167
    1UNL     H7   33  -0.076   0.007  -0.260
    1UNL     H8   34  -0.072   0.185  -0.276
    1UNL     H9   35   0.088   0.238  -0.000
    1UNL    H10   36   0.112   0.295  -0.169
    1UNL    H11   37   0.335   0.276  -0.017
    1UNL    H12   38   0.343   0.190  -0.165
    1UNL    H13   39   0.228  -0.208   0.128
    1UNL    H14   40   0.485  -0.291   0.191
    1UNL    H15   41   0.712  -0.206   0.206
    1UNL    H16   42   0.766   0.021   0.093
    1UNL    H17   43   0.582   0.169   0.013
    1UNL    H18   44   0.048  -0.110  -0.110
    1UNL    H19   45  -0.007   0.088   0.119
    1UNL    H20   46  -0.000  -0.086   0.155
    1UNL    H21   47  -0.254   0.025   0.084
    1UNL    H22   48  -0.196  -0.193  -0.115
    1UNL    H23   49  -0.263  -0.222   0.185
    1UNL    H24   50  -0.122  -0.288   0.116
    1UNL    H25   51  -0.273  -0.441   0.122
    1UNL    H26   52  -0.598  -0.134  -0.103
    1UNL    H27   53  -0.658  -0.162   0.071
    1UNL    H28   54  -0.625   0.002   0.014
   0.00000   0.00000   0.00000   0.00000   0.00000   0.00000   0.00000   0.00000   0.00000
Generated with MDTraj, t= 2.0
 54
    1UNL     C1    1  -0.284   0.272   0.088
    1UNL     C2    2  -0.198   0.261  -0.035
    1UNL     C3    3  -0.192   0.111  -0.080
    1UNL     C4    4  -0.077   0.092  -0.188
    1UNL     N1    5   0.068   0.078  -0.142
    1UNL     C5    6   0.127   0.205  -0.100
    1UNL     C6    7   0.274   0.195  -0.079
    1UNL     C7    8   0.308   0.063  -0.005
    1UNL     C8    9   0.214  -0.041   0.015
    1UNL     N2   10   0.272  -0.157   0.057
    1UNL     C9   11   0.411  -0.122   0.086
    1UNL    C10   12   0.518  -0.198   0.129
    1UNL    C11   13   0.645  -0.135   0.140
    1UNL    C12   14   0.667  -0.003   0.100
    1UNL    C13   15   0.559   0.074   0.058
    1UNL    C14   16   0.429   0.012   0.045
    1UNL    C15   17   0.077  -0.030  -0.042
    1UNL    C16   18  -0.025  -0.010   0.063
    1UNL    C17   19  -0.169  -0.008   0.016
    1UNL    C18   20  -0.227  -0.148  -0.025
    1UNL    C19   21  -0.206  -0.265   0.077
    1UNL     O1   22  -0.299  -0.367   0.057
    1UNL    C20   23  -0.372  -0.130  -0.057
    1UNL     O2   24  -0.400  -0.137  -0.179
    1UNL     O3   25  -0.459  -0.112   0.044
    1UNL    C21   26  -0.595  -0.100   0.008
    1UNL     H1   27  -0.380   0.225   0.080
    1UNL     H2   28  -0.226   0.218   0.162
    1UNL     H3   29  -0.320   0.377   0.112
    1UNL     H4   30  -0.218   0.324  -0.126
    1UNL     H5   31  -0.104   0.285  -0.001
    1UNL     H6   32  -0.292   0.099  -0.123
    1UNL     H7   33  -0.103  -0.000  -0.242
    1UNL     H8   34  -0.085   0.169  -0.264
    1UNL     H9   35   0.079   0.224  -0.005
    1UNL    H10   36   0.089   0.274  -0.177
    1UNL    H11   37   0.311   0.273  -0.013
    1UNL    H12   38   0.338   0.205  -0.166
    1UNL    H13   39   0.242  -0.247   0.023
    1UNL    H14   40   0.499  -0.296   0.158
    1UNL    H15   41   0.726  -0.195   0.161
    1UNL    H16   42   0.766   0.040   0.103
    1UNL    H17   43   0.570   0.168   0.019
    1UNL    H18   44   0.062  -0.127  -0.092
    1UNL    H19   45   0.010   0.074   0.119
    1UNL    H20   46  -0.021  -0.096   0.143
    1UNL    H21   47  -0.234   0.019   0.101
    1UNL    H22   48  -0.166  -0.175  -0.115
    1UNL    H23   49  -0.230  -0.230   0.179
    1UNL    H24   50  -0.100  -0.292   0.080
    1UNL    H25   51  -0.270  -0.424  -0.020
    1UNL    H26   52  -0.663  -0.174   0.053
    1UNL    H27   53  -0.620   0.003   0.022
    1UNL    H28   54  -0.597  -0.129  -0.108
   0.00000   0.00000   0.00000   0.00000   0.00000   0.00000   0.00000   0.00000   0.00000
Generated with MDTraj, t= 3.0
 54
    1UNL     C1    1  -0.344   0.278   0.049
    1UNL     C2    2  -0.199   0.245   0.017
    1UNL     C3    3  -0.188   0.105  -0.060
    1UNL     C4    4  -0.082   0.092  -0.177
    1UNL     N1    5   0.056   0.082  -0.137
    1UNL     C5    6   0.135   0.210  -0.103
    1UNL     C6    7   0.286   0.183  -0.094
    1UNL     C7    8   0.310   0.053  -0.023
    1UNL     C8    9   0.217  -0.050  -0.016
    1UNL     N2   10   0.285  -0.153   0.051
    1UNL     C9   11   0.420  -0.124   0.075
    1UNL    C10   12   0.520  -0.198   0.140
    1UNL    C11   13   0.643  -0.136   0.150
    1UNL    C12   14   0.653   0.005   0.111
    1UNL    C13   15   0.557   0.071   0.043
    1UNL    C14   16   0.434   0.005   0.023
    1UNL    C15   17   0.070  -0.035  -0.042
    1UNL    C16   18  -0.009  -0.024   0.085
    1UNL    C17   19  -0.161  -0.006   0.045
    1UNL    C18   20  -0.230  -0.135  -0.009
    1UNL    C19   21  -0.230  -0.258   0.087
    1UNL     O1   22  -0.259  -0.384   0.031
    1UNL    C20   23  -0.366  -0.118  -0.061
    1UNL     O2   24  -0.387  -0.134  -0.184
    1UNL     O3   25  -0.459  -0.091   0.039
    1UNL    C21   26  -0.596  -0.089  -0.001
    1UNL     H1   27  -0.396   0.297  -0.044
    1UNL     H2   28  -0.379   0.189   0.096
    1UNL     H3   29  -0.376   0.378   0.097
    1UNL     H4   30  -0.158   0.326  -0.045
    1UNL     H5   31  -0.134   0.240   0.101
    1UNL     H6   32  -0.288   0.097  -0.100
    1UNL     H7   33  -0.104   0.007  -0.245
    1UNL     H8   34  -0.097   0.180  -0.239
    1UNL     H9   35   0.091   0.227  -0.006
    1UNL    H10   36   0.108   0.290  -0.174
    1UNL    H11   37   0.341   0.264  -0.046
    1UNL    H12   38   0.338   0.175  -0.188
    1UNL    H13   39   0.254  -0.249   0.059
    1UNL    H14   40   0.506  -0.306   0.166
    1UNL    H15   41   0.726  -0.194   0.203
    1UNL    H16   42   0.747   0.050   0.133
    1UNL    H17   43   0.575   0.176   0.005
    1UNL    H18   44   0.031  -0.129  -0.088
    1UNL    H19   45   0.023   0.049   0.157
    1UNL    H20   46   0.021  -0.122   0.144
    1UNL    H21   47  -0.219   0.037   0.130
    1UNL    H22   48  -0.164  -0.162  -0.093
    1UNL    H23   49  -0.306  -0.237   0.165
    1UNL    H24   50  -0.135  -0.266   0.140
    1UNL    H25   51  -0.348  -0.440   0.042
    1UNL    H26   52  -0.644   0.007  -0.015
    1UNL    H27   53  -0.593  -0.144  -0.096
    1UNL    H28   54  -0.657  -0.151   0.085
   0.00000   0.00000   0.00000   0.00000   0.00000   0.00000   0.00000   0.00000   0.00000
Generated with MDTraj, t= 4.0
 54
    1UNL     C1    1  -0.362   0.278   0.024
    1UNL     C2    2  -0.213   0.234   0.033
    1UNL     C3    3  -0.188   0.105  -0.048
    1UNL     C4    4  -0.088   0.106  -0.158
    1UNL     N1    5   0.050   0.099  -0.123
    1UNL     C5    6   0.138   0.224  -0.084
    1UNL     C6    7   0.282   0.177  -0.104
    1UNL     C7    8   0.317   0.045  -0.043
    1UNL     C8    9   0.223  -0.049  -0.018
    1UNL     N2   10   0.272  -0.152   0.055
    1UNL     C9   11   0.405  -0.122   0.078
    1UNL    C10   12   0.507  -0.189   0.150
    1UNL    C11   13   0.630  -0.127   0.163
    1UNL    C12   14   0.667  -0.004   0.095
    1UNL    C13   15   0.567   0.059   0.029
    1UNL    C14   16   0.435   0.004   0.018
    1UNL    C15   17   0.078  -0.034  -0.050
    1UNL    C16   18  -0.006  -0.035   0.076
    1UNL    C17   19  -0.161  -0.019   0.045
    1UNL    C18   20  -0.228  -0.152  -0.005
    1UNL    C19   21  -0.215  -0.271   0.098
    1UNL     O1   22  -0.244  -0.388   0.026
    1UNL    C20   23  -0.372  -0.132  -0.054
    1UNL     O2   24  -0.379  -0.136  -0.178
    1UNL     O3   25  -0.467  -0.093   0.035
    1UNL    C21   26  -0.588  -0.047  -0.016
    1UNL     H1   27  -0.393   0.304  -0.075
    1UNL     H2   28  -0.419   0.204   0.076
    1UNL     H3   29  -0.370   0.383   0.071
    1UNL     H4   30  -0.147   0.310  -0.011
    1UNL     H5   31  -0.180   0.225   0.136
    1UNL     H6   32  -0.278   0.084  -0.106
    1UNL     H7   33  -0.120   0.021  -0.222
    1UNL     H8   34  -0.104   0.192  -0.223
    1UNL     H9   35   0.120   0.258   0.017
    1UNL    H10   36   0.116   0.299  -0.163
    1UNL    H11   37   0.350   0.254  -0.067
    1UNL    H12   38   0.309   0.176  -0.209
    1UNL    H13   39   0.226  -0.211   0.124
    1UNL    H14   40   0.492  -0.287   0.185
    1UNL    H15   41   0.702  -0.170   0.223
    1UNL    H16   42   0.775   0.023   0.103
    1UNL    H17   43   0.592   0.146  -0.028
    1UNL    H18   44   0.040  -0.111  -0.119
    1UNL    H19   45   0.034   0.042   0.140
    1UNL    H20   46   0.006  -0.128   0.140
    1UNL    H21   47  -0.228  -0.013   0.137
    1UNL    H22   48  -0.168  -0.187  -0.091
    1UNL    H23   49  -0.287  -0.242   0.178
    1UNL    H24   50  -0.116  -0.275   0.141
    1UNL    H25   51  -0.168  -0.438  -0.006
    1UNL    H26   52  -0.593  -0.060  -0.122
    1UNL    H27   53  -0.669  -0.113   0.027
    1UNL    H28   54  -0.605   0.062   0.025
   0.00000   0.00000   0.00000   0.00000   0.00000   0.00000   0.00000   0.00000   0.00000
Generated with MDTraj, t= 5.0
 54
    1UNL     C1    1  -0.342   0.290   0.048
    1UNL     C2    2  -0.206   0.233   0.027
    1UNL     C3    3  -0.210   0.099  -0.052
    1UNL     C4    4  -0.099   0.103  -0.165
    1UNL     N1    5   0.047   0.090  -0.123
    1UNL     C5    6   0.128   0.217  -0.099
    1UNL     C6    7   0.280   0.180  -0.098
    1UNL     C7    8   0.312   0.053  -0.026
    1UNL     C8    9   0.215  -0.040   0.009
    1UNL     N2   10   0.273  -0.144   0.078
    1UNL     C9   11   0.410  -0.118   0.090
    1UNL    C10   12   0.515  -0.192   0.151
    1UNL    C11   13   0.639  -0.133   0.150
    1UNL    C12   14   0.663  -0.015   0.081
    1UNL    C13   15   0.563   0.056   0.017
    1UNL    C14   16   0.433   0.004   0.021
    1UNL    C15   17   0.071  -0.032  -0.040
    1UNL    C16   18  -0.022  -0.026   0.077
    1UNL    C17   19  -0.170  -0.017   0.051
    1UNL    C18   20  -0.219  -0.151  -0.012
    1UNL    C19   21  -0.217  -0.268   0.085
    1UNL     O1   22  -0.239  -0.393   0.022
    1UNL    C20   23  -0.357  -0.127  -0.072
    1UNL     O2   24  -0.377  -0.139  -0.191
    1UNL     O3   25  -0.450  -0.085   0.027
    1UNL    C21   26  -0.579  -0.066  -0.012
    1UNL     H1   27  -0.395   0.327  -0.037
    1UNL     H2   28  -0.396   0.215   0.103
    1UNL     H3   29  -0.332   0.381   0.115
    1UNL     H4   30  -0.155   0.312  -0.029
    1UNL     H5   31  -0.145   0.219   0.118
    1UNL     H6   32  -0.308   0.078  -0.096
    1UNL     H7   33  -0.113   0.013  -0.228
    1UNL     H8   34  -0.122   0.183  -0.236
    1UNL     H9   35   0.108   0.257   0.001
    1UNL    H10   36   0.104   0.279  -0.189
    1UNL    H11   37   0.339   0.264  -0.058
    1UNL    H12   38   0.321   0.175  -0.198
    1UNL    H13   39   0.224  -0.230   0.100
    1UNL    H14   40   0.480  -0.278   0.206
    1UNL    H15   41   0.720  -0.189   0.202
    1UNL    H16   42   0.759   0.022   0.085
    1UNL    H17   43   0.583   0.149  -0.027
    1UNL    H18   44   0.054  -0.127  -0.096
    1UNL    H19   45  -0.005   0.065   0.137
    1UNL    H20   46   0.011  -0.104   0.148
    1UNL    H21   47  -0.231  -0.010   0.146
    1UNL    H22   48  -0.148  -0.174  -0.094
    1UNL    H23   49  -0.278  -0.244   0.175
    1UNL    H24   50  -0.115  -0.254   0.114
    1UNL    H25   51  -0.333  -0.405   0.027
    1UNL    H26   52  -0.631  -0.156   0.016
    1UNL    H27   53  -0.622   0.027   0.037
    1UNL    H28   54  -0.580  -0.037  -0.119
   0.00000   0.00000   0.00000   0.00000   0.00000   0.00000   0.00000   0.00000   0.00000
Generated with MDTraj, t= 6.0
 54
    1UNL     C1    1  -0.303   0.280   0.099
    1UNL     C2    2  -0.185   0.254  -0.003
    1UNL     C3    3  -0.191   0.103  -0.067
    1UNL     C4    4  -0.092   0.092  -0.181
    1UNL     N1    5   0.050   0.083  -0.131
    1UNL     C5    6   0.136   0.207  -0.106
    1UNL     C6    7   0.288   0.175  -0.089
    1UNL     C7    8   0.309   0.057  -0.005
    1UNL     C8    9   0.212  -0.033   0.022
    1UNL     N2   10   0.270  -0.141   0.091
    1UNL     C9   11   0.413  -0.114   0.100
    1UNL    C10   12   0.527  -0.188   0.138
    1UNL    C11   13   0.653  -0.137   0.122
    1UNL    C12   14   0.667  -0.008   0.074
    1UNL    C13   15   0.558   0.060   0.023
    1UNL    C14   16   0.435   0.007   0.039
    1UNL    C15   17   0.066  -0.023  -0.024
    1UNL    C16   18  -0.030  -0.013   0.096
    1UNL    C17   19  -0.172  -0.005   0.046
    1UNL    C18   20  -0.221  -0.137  -0.015
    1UNL    C19   21  -0.210  -0.260   0.071
    1UNL     O1   22  -0.272  -0.364   0.003
    1UNL    C20   23  -0.371  -0.132  -0.064
    1UNL     O2   24  -0.391  -0.176  -0.170
    1UNL     O3   25  -0.472  -0.093   0.022
    1UNL    C21   26  -0.600  -0.103  -0.034
    1UNL     H1   27  -0.401   0.252   0.071
    1UNL     H2   28  -0.290   0.220   0.191
    1UNL     H3   29  -0.306   0.384   0.139
    1UNL     H4   30  -0.187   0.321  -0.086
    1UNL     H5   31  -0.090   0.282   0.051
    1UNL     H6   32  -0.292   0.102  -0.115
    1UNL     H7   33  -0.118   0.008  -0.249
    1UNL     H8   34  -0.099   0.177  -0.249
    1UNL     H9   35   0.099   0.231  -0.006
    1UNL    H10   36   0.122   0.286  -0.185
    1UNL    H11   37   0.341   0.264  -0.049
    1UNL    H12   38   0.338   0.165  -0.184
    1UNL    H13   39   0.228  -0.234   0.085
    1UNL    H14   40   0.513  -0.282   0.196
    1UNL    H15   41   0.731  -0.193   0.167
    1UNL    H16   42   0.768   0.040   0.066
    1UNL    H17   43   0.578   0.165  -0.008
    1UNL    H18   44   0.049  -0.114  -0.084
    1UNL    H19   45   0.001   0.082   0.148
    1UNL    H20   46  -0.024  -0.089   0.171
    1UNL    H21   47  -0.237   0.024   0.135
    1UNL    H22   48  -0.162  -0.148  -0.107
    1UNL    H23   49  -0.269  -0.241   0.163
    1UNL    H24   50  -0.116  -0.304   0.107
    1UNL    H25   51  -0.346  -0.355  -0.071
    1UNL    H26   52  -0.660  -0.016   0.005
    1UNL    H27   53  -0.597  -0.118  -0.144
    1UNL    H28   54  -0.651  -0.190   0.003
   0.00000   0.00000   0.00000   0.00000   0.00000   0.00000   0.00000   0.00000   0.00000
Generated with MDTraj, t= 7.0
 54
    1UNL     C1    1  -0.260   0.251   0.125
    1UNL     C2    2  -0.200   0.246  -0.015
    1UNL     C3    3  -0.199   0.101  -0.077
    1UNL     C4    4  -0.086   0.100  -0.184
    1UNL     N1    5   0.052   0.097  -0.122
    1UNL     C5    6   0.128   0.220  -0.083
    1UNL     C6    7   0.278   0.194  -0.088
    1UNL     C7    8   0.311   0.066  -0.008
    1UNL     C8    9   0.217  -0.025   0.023
    1UNL     N2   10   0.270  -0.140   0.088
    1UNL     C9   11   0.407  -0.117   0.092
    1UNL    C10   12   0.512  -0.196   0.142
    1UNL    C11   13   0.639  -0.138   0.138
    1UNL    C12   14   0.674  -0.019   0.076
    1UNL    C13   15   0.568   0.060   0.023
    1UNL    C14   16   0.436   0.012   0.034
    1UNL    C15   17   0.076  -0.021  -0.031
    1UNL    C16   18  -0.034  -0.012   0.077
    1UNL    C17   19  -0.189  -0.008   0.028
    1UNL    C18   20  -0.239  -0.148  -0.030
    1UNL    C19   21  -0.228  -0.255   0.081
    1UNL     O1   22  -0.247  -0.381   0.024
    1UNL    C20   23  -0.380  -0.136  -0.082
    1UNL     O2   24  -0.407  -0.192  -0.181
    1UNL     O3   25  -0.455  -0.067   0.011
    1UNL    C21   26  -0.590  -0.097  -0.014
    1UNL     H1   27  -0.350   0.197   0.147
    1UNL     H2   28  -0.192   0.196   0.196
    1UNL     H3   29  -0.249   0.356   0.159
    1UNL     H4   30  -0.251   0.317  -0.076
    1UNL     H5   31  -0.094   0.293  -0.014
    1UNL     H6   32  -0.298   0.104  -0.130
    1UNL     H7   33  -0.098   0.021  -0.261
    1UNL     H8   34  -0.095   0.189  -0.246
    1UNL     H9   35   0.114   0.257   0.020
    1UNL    H10   36   0.097   0.292  -0.162
    1UNL    H11   37   0.342   0.281  -0.060
    1UNL    H12   38   0.315   0.175  -0.188
    1UNL    H13   39   0.225  -0.204   0.155
    1UNL    H14   40   0.498  -0.289   0.183
    1UNL    H15   41   0.728  -0.187   0.179
    1UNL    H16   42   0.777   0.012   0.065
    1UNL    H17   43   0.599   0.140  -0.037
    1UNL    H18   44   0.064  -0.103  -0.104
    1UNL    H19   45  -0.025   0.078   0.144
    1UNL    H20   46  -0.010  -0.092   0.138
    1UNL    H21   47  -0.251   0.023   0.119
    1UNL    H22   48  -0.172  -0.171  -0.115
    1UNL    H23   49  -0.296  -0.246   0.170
    1UNL    H24   50  -0.130  -0.255   0.124
    1UNL    H25   51  -0.309  -0.368  -0.048
    1UNL    H26   52  -0.613  -0.139  -0.121
    1UNL    H27   53  -0.629  -0.168   0.057
    1UNL    H28   54  -0.650  -0.010  -0.014
   0.00000   0.00000   0.00000   0.00000   0.00000   0.00000   0.00000   0.00000   0.00000
Generated with MDTraj, t= 8.0
 54
    1UNL     C1    1  -0.305   0.257   0.131
    1UNL     C2    2  -0.205   0.249   0.015
    1UNL     C3    3  -0.196   0.107  -0.051
    1UNL     C4    4  -0.101   0.113  -0.174
    1UNL     N1    5   0.041   0.099  -0.133
    1UNL     C5    6   0.127   0.219  -0.110
    1UNL     C6    7   0.283   0.190  -0.093
    1UNL     C7    8   0.302   0.062  -0.019
    1UNL     C8    9   0.211  -0.042  -0.010
    1UNL     N2   10   0.269  -0.143   0.067
    1UNL     C9   11   0.398  -0.112   0.087
    1UNL    C10   12   0.503  -0.186   0.155
    1UNL    C11   13   0.627  -0.141   0.156
    1UNL    C12   14   0.658  -0.021   0.090
    1UNL    C13   15   0.560   0.057   0.034
    1UNL    C14   16   0.429   0.008   0.030
    1UNL    C15   17   0.066  -0.026  -0.052
    1UNL    C16   18  -0.017  -0.013   0.072
    1UNL    C17   19  -0.167  -0.012   0.038
    1UNL    C18   20  -0.213  -0.145  -0.017
    1UNL    C19   21  -0.177  -0.274   0.062
    1UNL     O1   22  -0.260  -0.388   0.015
    1UNL    C20   23  -0.360  -0.144  -0.059
    1UNL     O2   24  -0.398  -0.218  -0.144
    1UNL     O3   25  -0.446  -0.058   0.014
    1UNL    C21   26  -0.572  -0.049  -0.050
    1UNL     H1   27  -0.387   0.188   0.122
    1UNL     H2   28  -0.265   0.206   0.224
    1UNL     H3   29  -0.320   0.365   0.140
    1UNL     H4   30  -0.243   0.318  -0.058
    1UNL     H5   31  -0.104   0.298   0.041
    1UNL     H6   32  -0.299   0.096  -0.095
    1UNL     H7   33  -0.129   0.035  -0.248
    1UNL     H8   34  -0.111   0.203  -0.233
    1UNL     H9   35   0.085   0.264  -0.022
    1UNL    H10   36   0.108   0.289  -0.195
    1UNL    H11   37   0.354   0.266  -0.049
    1UNL    H12   38   0.329   0.188  -0.192
    1UNL    H13   39   0.233  -0.235   0.095
    1UNL    H14   40   0.478  -0.285   0.199
    1UNL    H15   41   0.702  -0.198   0.208
    1UNL    H16   42   0.759   0.005   0.082
    1UNL    H17   43   0.591   0.142  -0.029
    1UNL    H18   44   0.035  -0.114  -0.109
    1UNL    H19   45   0.007   0.091   0.111
    1UNL    H20   46  -0.006  -0.085   0.146
    1UNL    H21   47  -0.224  -0.010   0.137
    1UNL    H22   48  -0.164  -0.153  -0.116
    1UNL    H23   49  -0.214  -0.258   0.166
    1UNL    H24   50  -0.071  -0.293   0.074
    1UNL    H25   51  -0.305  -0.348  -0.064
    1UNL    H26   52  -0.667  -0.091   0.010
    1UNL    H27   53  -0.600   0.052  -0.055
    1UNL    H28   54  -0.568  -0.086  -0.149
   0.00000   0.00000   0.00000   0.00000   0.00000   0.00000   0.00000   0.00000   0.00000
Generated with MDTraj, t= 9.0
 54
    1UNL     C1    1  -0.346   0.252   0.102
    1UNL     C2    2  -0.205   0.233   0.051
    1UNL     C3    3  -0.189   0.107  -0.036
    1UNL     C4    4  -0.096   0.128  -0.161
    1UNL     N1    5   0.046   0.104  -0.126
    1UNL     C5    6   0.138   0.217  -0.101
    1UNL     C6    7   0.279   0.168  -0.132
    1UNL     C7    8   0.312   0.046  -0.045
    1UNL     C8    9   0.215  -0.047  -0.017
    1UNL     N2   10   0.271  -0.157   0.051
    1UNL     C9   11   0.402  -0.128   0.075
    1UNL    C10   12   0.511  -0.191   0.142
    1UNL    C11   13   0.623  -0.128   0.165
    1UNL    C12   14   0.641   0.007   0.121
    1UNL    C13   15   0.551   0.067   0.040
    1UNL    C14   16   0.432  -0.000   0.013
    1UNL    C15   17   0.069  -0.025  -0.049
    1UNL    C16   18  -0.014  -0.027   0.087
    1UNL    C17   19  -0.161  -0.014   0.050
    1UNL    C18   20  -0.218  -0.140  -0.019
    1UNL    C19   21  -0.201  -0.268   0.066
    1UNL     O1   22  -0.218  -0.395   0.003
    1UNL    C20   23  -0.366  -0.134  -0.059
    1UNL     O2   24  -0.411  -0.228  -0.117
    1UNL     O3   25  -0.434  -0.025  -0.015
    1UNL    C21   26  -0.570  -0.031  -0.044
    1UNL     H1   27  -0.413   0.292   0.027
    1UNL     H2   28  -0.408   0.157   0.116
    1UNL     H3   29  -0.350   0.319   0.184
    1UNL     H4   30  -0.161   0.318  -0.000
    1UNL     H5   31  -0.129   0.230   0.137
    1UNL     H6   32  -0.292   0.095  -0.081
    1UNL     H7   33  -0.121   0.056  -0.241
    1UNL     H8   34  -0.113   0.226  -0.203
    1UNL     H9   35   0.127   0.244   0.004
    1UNL    H10   36   0.110   0.306  -0.161
    1UNL    H11   37   0.346   0.255  -0.110
    1UNL    H12   38   0.314   0.139  -0.232
    1UNL    H13   39   0.224  -0.248   0.053
    1UNL    H14   40   0.484  -0.289   0.179
    1UNL    H15   41   0.696  -0.171   0.232
    1UNL    H16   42   0.742   0.052   0.141
    1UNL    H17   43   0.566   0.165   0.003
    1UNL    H18   44   0.038  -0.122  -0.095
    1UNL    H19   45   0.010   0.056   0.158
    1UNL    H20   46   0.003  -0.123   0.129
    1UNL    H21   47  -0.222  -0.021   0.146
    1UNL    H22   48  -0.169  -0.165  -0.114
    1UNL    H23   49  -0.262  -0.260   0.159
    1UNL    H24   50  -0.100  -0.269   0.102
    1UNL    H25   51  -0.304  -0.397  -0.047
    1UNL    H26   52  -0.620   0.078  -0.036
    1UNL    H27   53  -0.585  -0.064  -0.142
    1UNL    H28   54  -0.624  -0.107   0.012
   0.00000   0.00000   0.00000   0.00000   0.00000   0.00000   0.00000   0.00000   0.00000
Generated with MDTraj, t= 10.0
 54
    1UNL     C1    1  -0.340   0.259   0.096
    1UNL     C2    2  -0.202   0.242   0.039
    1UNL     C3    3  -0.191   0.108  -0.039
    1UNL     C4    4  -0.087   0.117  -0.158
    1UNL     N1    5   0.054   0.098  -0.128
    1UNL     C5    6   0.131   0.209  -0.079
    1UNL     C6    7   0.278   0.193  -0.095
    1UNL     C7    8   0.320   0.056  -0.048
    1UNL     C8    9   0.229  -0.042  -0.022
    1UNL     N2   10   0.279  -0.151   0.044
    1UNL     C9   11   0.410  -0.120   0.075
    1UNL    C10   12   0.510  -0.189   0.156
    1UNL    C11   13   0.626  -0.119   0.179
    1UNL    C12   14   0.663  -0.001   0.109
    1UNL    C13   15   0.572   0.059   0.026
    1UNL    C14   16   0.442   0.003   0.008
    1UNL    C15   17   0.079  -0.032  -0.054
    1UNL    C16   18  -0.012  -0.036   0.069
    1UNL    C17   19  -0.162  -0.026   0.040
    1UNL    C18   20  -0.228  -0.147  -0.026
    1UNL    C19   21  -0.206  -0.274   0.055
    1UNL     O1   22  -0.233  -0.393  -0.018
    1UNL    C20   23  -0.378  -0.139  -0.042
    1UNL     O2   24  -0.435  -0.233  -0.099
    1UNL     O3   25  -0.456  -0.030   0.000
    1UNL    C21   26  -0.585  -0.032  -0.048
    1UNL     H1   27  -0.409   0.247   0.012
    1UNL     H2   28  -0.378   0.197   0.183
    1UNL     H3   29  -0.355   0.359   0.119
    1UNL     H4   30  -0.174   0.334  -0.014
    1UNL     H5   31  -0.120   0.242   0.117
    1UNL     H6   32  -0.294   0.110  -0.087
    1UNL     H7   33  -0.123   0.041  -0.230
    1UNL     H8   34  -0.096   0.214  -0.205
    1UNL     H9   35   0.099   0.233   0.020
    1UNL    H10   36   0.097   0.297  -0.140
    1UNL    H11   37   0.348   0.261  -0.038
    1UNL    H12   38   0.288   0.226  -0.200
    1UNL    H13   39   0.223  -0.225   0.090
    1UNL    H14   40   0.482  -0.268   0.222
    1UNL    H15   41   0.706  -0.150   0.252
    1UNL    H16   42   0.758   0.039   0.123
    1UNL    H17   43   0.595   0.150  -0.027
    1UNL    H18   44   0.064  -0.109  -0.131
    1UNL    H19   45   0.028   0.051   0.127
    1UNL    H20   46   0.020  -0.129   0.121
    1UNL    H21   47  -0.212  -0.021   0.142
    1UNL    H22   48  -0.189  -0.152  -0.129
    1UNL    H23   49  -0.262  -0.270   0.151
    1UNL    H24   50  -0.101  -0.275   0.086
    1UNL    H25   51  -0.332  -0.408  -0.024
    1UNL    H26   52  -0.586  -0.087  -0.151
    1UNL    H27   53  -0.648  -0.071   0.027
    1UNL    H28   54  -0.628   0.071  -0.069
   0.00000   0.00000   0.00000   0.00000   0.00000   0.00000   0.00000   0.00000   0.00000
Generated with MDTraj, t= 11.0
 54
    1UNL     C1    1  -0.308   0.246   0.117
    1UNL     C2    2  -0.197   0.240   0.005
    1UNL     C3    3  -0.190   0.103  -0.072
    1UNL     C4    4  -0.077   0.100  -0.183
    1UNL     N1    5   0.050   0.091  -0.128
    1UNL     C5    6   0.127   0.223  -0.096
    1UNL     C6    7   0.281   0.184  -0.079
    1UNL     C7    8   0.300   0.063  -0.003
    1UNL     C8    9   0.210  -0.042   0.007
    1UNL     N2   10   0.276  -0.140   0.081
    1UNL     C9   11   0.408  -0.106   0.094
    1UNL    C10   12   0.510  -0.191   0.132
    1UNL    C11   13   0.638  -0.136   0.130
    1UNL    C12   14   0.657  -0.003   0.089
    1UNL    C13   15   0.553   0.081   0.049
    1UNL    C14   16   0.425   0.024   0.046
    1UNL    C15   17   0.073  -0.034  -0.043
    1UNL    C16   18  -0.026  -0.031   0.073
    1UNL    C17   19  -0.165  -0.023   0.020
    1UNL    C18   20  -0.225  -0.157  -0.051
    1UNL    C19   21  -0.195  -0.279   0.032
    1UNL     O1   22  -0.258  -0.400  -0.001
    1UNL    C20   23  -0.378  -0.142  -0.055
    1UNL     O2   24  -0.448  -0.224  -0.118
    1UNL     O3   25  -0.422  -0.034   0.002
    1UNL    C21   26  -0.561  -0.024  -0.002
    1UNL     H1   27  -0.396   0.272   0.059
    1UNL     H2   28  -0.308   0.165   0.196
    1UNL     H3   29  -0.294   0.327   0.182
    1UNL     H4   30  -0.198   0.330  -0.058
    1UNL     H5   31  -0.105   0.256   0.060
    1UNL     H6   32  -0.288   0.104  -0.128
    1UNL     H7   33  -0.092   0.013  -0.249
    1UNL     H8   34  -0.087   0.194  -0.237
    1UNL     H9   35   0.094   0.271  -0.007
    1UNL    H10   36   0.103   0.303  -0.172
    1UNL    H11   37   0.327   0.280  -0.040
    1UNL    H12   38   0.339   0.152  -0.167
    1UNL    H13   39   0.228  -0.227   0.109
    1UNL    H14   40   0.495  -0.290   0.174
    1UNL    H15   41   0.716  -0.187   0.167
    1UNL    H16   42   0.757   0.042   0.073
    1UNL    H17   43   0.579   0.180   0.017
    1UNL    H18   44   0.056  -0.121  -0.108
    1UNL    H19   45   0.008   0.054   0.132
    1UNL    H20   46  -0.001  -0.124   0.136
    1UNL    H21   47  -0.231  -0.005   0.111
    1UNL    H22   48  -0.181  -0.157  -0.151
    1UNL    H23   49  -0.227  -0.258   0.135
    1UNL    H24   50  -0.087  -0.296   0.039
    1UNL    H25   51  -0.341  -0.376  -0.052
    1UNL    H26   52  -0.598  -0.036   0.103
    1UNL    H27   53  -0.589   0.070  -0.048
    1UNL    H28   54  -0.606  -0.114  -0.057
   0.00000   0.00000   0.00000   0.00000   0.00000   0.00000   0.00000   0.00000   0.00000
Generated with MDTraj, t= 12.0
 54
    1UNL     C1    1  -0.310   0.241   0.097
    1UNL     C2    2  -0.193   0.243  -0.004
    1UNL     C3    3  -0.187   0.098  -0.070
    1UNL     C4    4  -0.071   0.088  -0.176
    1UNL     N1    5   0.070   0.082  -0.125
    1UNL     C5    6   0.134   0.216  -0.105
    1UNL     C6    7   0.285   0.200  -0.077
    1UNL     C7    8   0.310   0.070  -0.005
    1UNL     C8    9   0.222  -0.033   0.016
    1UNL     N2   10   0.280  -0.145   0.065
    1UNL     C9   11   0.416  -0.112   0.094
    1UNL    C10   12   0.524  -0.192   0.132
    1UNL    C11   13   0.650  -0.133   0.126
    1UNL    C12   14   0.670   0.000   0.095
    1UNL    C13   15   0.562   0.078   0.054
    1UNL    C14   16   0.436   0.019   0.047
    1UNL    C15   17   0.082  -0.033  -0.034
    1UNL    C16   18  -0.027  -0.029   0.078
    1UNL    C17   19  -0.168  -0.016   0.026
    1UNL    C18   20  -0.241  -0.148  -0.029
    1UNL    C19   21  -0.212  -0.276   0.049
    1UNL     O1   22  -0.261  -0.383  -0.029
    1UNL    C20   23  -0.389  -0.130  -0.052
    1UNL     O2   24  -0.444  -0.201  -0.141
    1UNL     O3   25  -0.458  -0.045   0.030
    1UNL    C21   26  -0.599  -0.060   0.006
    1UNL     H1   27  -0.399   0.207   0.045
    1UNL     H2   28  -0.278   0.206   0.198
    1UNL     H3   29  -0.340   0.340   0.125
    1UNL     H4   30  -0.199   0.319  -0.085
    1UNL     H5   31  -0.103   0.267   0.045
    1UNL     H6   32  -0.286   0.077  -0.120
    1UNL     H7   33  -0.088  -0.007  -0.231
    1UNL     H8   34  -0.078   0.167  -0.251
    1UNL     H9   35   0.070   0.281  -0.049
    1UNL    H10   36   0.120   0.269  -0.205
    1UNL    H11   37   0.315   0.273   0.004
    1UNL    H12   38   0.329   0.215  -0.177
    1UNL    H13   39   0.238  -0.238   0.055
    1UNL    H14   40   0.513  -0.296   0.151
    1UNL    H15   41   0.740  -0.202   0.152
    1UNL    H16   42   0.766   0.042   0.086
    1UNL    H17   43   0.571   0.173   0.004
    1UNL    H18   44   0.060  -0.130  -0.082
    1UNL    H19   45  -0.002   0.053   0.145
    1UNL    H20   46  -0.019  -0.124   0.147
    1UNL    H21   47  -0.232  -0.006   0.120
    1UNL    H22   48  -0.204  -0.165  -0.131
    1UNL    H23   49  -0.258  -0.279   0.148
    1UNL    H24   50  -0.106  -0.298   0.064
    1UNL    H25   51  -0.330  -0.356  -0.092
    1UNL    H26   52  -0.631   0.011  -0.071
    1UNL    H27   53  -0.614  -0.165  -0.035
    1UNL    H28   54  -0.647  -0.042   0.106
   0.00000   0.00000   0.00000   0.00000   0.00000   0.00000   0.00000   0.00000   0.00000
Generated with MDTraj, t= 13.0
 54
    1UNL     C1    1  -0.344   0.273   0.058
    1UNL     C2    2  -0.201   0.247   0.014
    1UNL     C3    3  -0.188   0.112  -0.058
    1UNL     C4    4  -0.080   0.108  -0.170
    1UNL     N1    5   0.060   0.089  -0.125
    1UNL     C5    6   0.132   0.205  -0.067
    1UNL     C6    7   0.280   0.192  -0.074
    1UNL     C7    8   0.312   0.053  -0.029
    1UNL     C8    9   0.221  -0.050  -0.008
    1UNL     N2   10   0.288  -0.157   0.051
    1UNL     C9   11   0.417  -0.123   0.080
    1UNL    C10   12   0.521  -0.185   0.144
    1UNL    C11   13   0.647  -0.125   0.153
    1UNL    C12   14   0.664  -0.001   0.093
    1UNL    C13   15   0.564   0.070   0.036
    1UNL    C14   16   0.437   0.010   0.025
    1UNL    C15   17   0.072  -0.032  -0.038
    1UNL    C16   18  -0.022  -0.032   0.091
    1UNL    C17   19  -0.171  -0.008   0.038
    1UNL    C18   20  -0.232  -0.138  -0.035
    1UNL    C19   21  -0.205  -0.271   0.052
    1UNL     O1   22  -0.254  -0.389  -0.014
    1UNL    C20   23  -0.381  -0.127  -0.061
    1UNL     O2   24  -0.425  -0.175  -0.167
    1UNL     O3   25  -0.449  -0.079   0.043
    1UNL    C21   26  -0.587  -0.075   0.012
    1UNL     H1   27  -0.409   0.289  -0.026
    1UNL     H2   28  -0.372   0.217   0.146
    1UNL     H3   29  -0.335   0.374   0.103
    1UNL     H4   30  -0.164   0.328  -0.053
    1UNL     H5   31  -0.128   0.236   0.089
    1UNL     H6   32  -0.287   0.095  -0.107
    1UNL     H7   33  -0.092   0.019  -0.237
    1UNL     H8   34  -0.088   0.194  -0.237
    1UNL     H9   35   0.107   0.224   0.035
    1UNL    H10   36   0.084   0.296  -0.114
    1UNL    H11   37   0.332   0.283  -0.029
    1UNL    H12   38   0.302   0.173  -0.181
    1UNL    H13   39   0.247  -0.247   0.077
    1UNL    H14   40   0.495  -0.283   0.191
    1UNL    H15   41   0.726  -0.177   0.208
    1UNL    H16   42   0.764   0.044   0.100
    1UNL    H17   43   0.575   0.164  -0.014
    1UNL    H18   44   0.034  -0.112  -0.103
    1UNL    H19   45   0.006   0.041   0.167
    1UNL    H20   46  -0.014  -0.132   0.151
    1UNL    H21   47  -0.232  -0.004   0.133
    1UNL    H22   48  -0.183  -0.152  -0.132
    1UNL    H23   49  -0.256  -0.256   0.148
    1UNL    H24   50  -0.100  -0.289   0.075
    1UNL    H25   51  -0.351  -0.375  -0.040
    1UNL    H26   52  -0.623  -0.176   0.017
    1UNL    H27   53  -0.638   0.001   0.085
    1UNL    H28   54  -0.593  -0.027  -0.085
   0.00000   0.00000   0.00000   0.00000   0.00000   0.00000   0.00000   0.00000   0.00000
Generated with MDTraj, t= 14.0
 54
    1UNL     C1    1  -0.356   0.289   0.043
    1UNL     C2    2  -0.208   0.238   0.043
    1UNL     C3    3  -0.201   0.104  -0.042
    1UNL     C4    4  -0.098   0.119  -0.157
    1UNL     N1    5   0.050   0.102  -0.128
    1UNL     C5    6   0.137   0.220  -0.102
    1UNL     C6    7   0.290   0.190  -0.090
    1UNL     C7    8   0.313   0.064  -0.022
    1UNL     C8    9   0.217  -0.036  -0.015
    1UNL     N2   10   0.267  -0.144   0.046
    1UNL     C9   11   0.403  -0.115   0.074
    1UNL    C10   12   0.498  -0.193   0.140
    1UNL    C11   13   0.624  -0.145   0.153
    1UNL    C12   14   0.658  -0.014   0.102
    1UNL    C13   15   0.564   0.063   0.044
    1UNL    C14   16   0.434   0.010   0.027
    1UNL    C15   17   0.076  -0.027  -0.049
    1UNL    C16   18  -0.010  -0.015   0.078
    1UNL    C17   19  -0.164  -0.024   0.039
    1UNL    C18   20  -0.212  -0.158  -0.033
    1UNL    C19   21  -0.198  -0.287   0.056
    1UNL     O1   22  -0.265  -0.399  -0.005
    1UNL    C20   23  -0.357  -0.135  -0.056
    1UNL     O2   24  -0.400  -0.159  -0.166
    1UNL     O3   25  -0.427  -0.088   0.046
    1UNL    C21   26  -0.569  -0.079   0.013
    1UNL     H1   27  -0.369   0.357  -0.037
    1UNL     H2   28  -0.421   0.207   0.051
    1UNL     H3   29  -0.373   0.347   0.138
    1UNL     H4   30  -0.138   0.308  -0.007
    1UNL     H5   31  -0.175   0.221   0.142
    1UNL     H6   32  -0.300   0.099  -0.089
    1UNL     H7   33  -0.122   0.055  -0.245
    1UNL     H8   34  -0.100   0.219  -0.203
    1UNL     H9   35   0.089   0.255  -0.013
    1UNL    H10   36   0.127   0.311  -0.165
    1UNL    H11   37   0.333   0.259  -0.011
    1UNL    H12   38   0.348   0.203  -0.183
    1UNL    H13   39   0.221  -0.224   0.091
    1UNL    H14   40   0.482  -0.285   0.188
    1UNL    H15   41   0.693  -0.198   0.206
    1UNL    H16   42   0.759   0.018   0.105
    1UNL    H17   43   0.573   0.169   0.023
    1UNL    H18   44   0.055  -0.109  -0.120
    1UNL    H19   45   0.006   0.076   0.138
    1UNL    H20   46   0.010  -0.096   0.155
    1UNL    H21   47  -0.209  -0.002   0.140
    1UNL    H22   48  -0.156  -0.160  -0.128
    1UNL    H23   49  -0.246  -0.270   0.154
    1UNL    H24   50  -0.091  -0.299   0.076
    1UNL    H25   51  -0.344  -0.364  -0.044
    1UNL    H26   52  -0.602   0.019   0.041
    1UNL    H27   53  -0.570  -0.105  -0.101
    1UNL    H28   54  -0.629  -0.149   0.056
   0.00000   0.00000   0.00000   0.00000   0.00000   0.00000   0.00000   0.00000   0.00000
Generated with MDTraj, t= 15.0
 54
    1UNL     C1    1  -0.345   0.301   0.045
    1UNL     C2    2  -0.205   0.242   0.042
    1UNL     C3    3  -0.196   0.104  -0.038
    1UNL     C4    4  -0.089   0.126  -0.153
    1UNL     N1    5   0.050   0.110  -0.117
    1UNL     C5    6   0.140   0.227  -0.099
    1UNL     C6    7   0.293   0.193  -0.092
    1UNL     C7    8   0.313   0.061  -0.032
    1UNL     C8    9   0.214  -0.034  -0.012
    1UNL     N2   10   0.273  -0.149   0.050
    1UNL     C9   11   0.406  -0.123   0.071
    1UNL    C10   12   0.502  -0.204   0.128
    1UNL    C11   13   0.626  -0.145   0.149
    1UNL    C12   14   0.656  -0.010   0.111
    1UNL    C13   15   0.563   0.069   0.051
    1UNL    C14   16   0.433   0.008   0.022
    1UNL    C15   17   0.074  -0.019  -0.050
    1UNL    C16   18  -0.011  -0.031   0.071
    1UNL    C17   19  -0.164  -0.022   0.047
    1UNL    C18   20  -0.226  -0.147  -0.013
    1UNL    C19   21  -0.194  -0.277   0.056
    1UNL     O1   22  -0.235  -0.397  -0.015
    1UNL    C20   23  -0.371  -0.139  -0.051
    1UNL     O2   24  -0.413  -0.184  -0.153
    1UNL     O3   25  -0.449  -0.076   0.037
    1UNL    C21   26  -0.583  -0.088  -0.007
    1UNL     H1   27  -0.386   0.304  -0.052
    1UNL     H2   28  -0.402   0.234   0.100
    1UNL     H3   29  -0.352   0.399   0.100
    1UNL     H4   30  -0.137   0.318  -0.002
    1UNL     H5   31  -0.169   0.216   0.138
    1UNL     H6   32  -0.290   0.082  -0.089
    1UNL     H7   33  -0.100   0.060  -0.242
    1UNL     H8   34  -0.099   0.228  -0.193
    1UNL     H9   35   0.121   0.273  -0.005
    1UNL    H10   36   0.105   0.300  -0.173
    1UNL    H11   37   0.352   0.265  -0.026
    1UNL    H12   38   0.350   0.187  -0.185
    1UNL    H13   39   0.224  -0.238   0.054
    1UNL    H14   40   0.474  -0.306   0.162
    1UNL    H15   41   0.720  -0.202   0.190
    1UNL    H16   42   0.756   0.028   0.133
    1UNL    H17   43   0.588   0.175   0.039
    1UNL    H18   44   0.048  -0.101  -0.119
    1UNL    H19   45   0.014   0.051   0.143
    1UNL    H20   46   0.006  -0.123   0.126
    1UNL    H21   47  -0.213  -0.009   0.145
    1UNL    H22   48  -0.186  -0.161  -0.117
    1UNL    H23   49  -0.245  -0.279   0.153
    1UNL    H24   50  -0.088  -0.300   0.074
    1UNL    H25   51  -0.325  -0.389  -0.060
    1UNL    H26   52  -0.593  -0.118  -0.111
    1UNL    H27   53  -0.618  -0.168   0.065
    1UNL    H28   54  -0.629   0.000   0.001
   0.00000   0.00000   0.00000   0.00000   0.00000   0.00000   0.00000   0.00000   0.00000
Generated with MDTraj, t= 16.0
 54
    1UNL     C1    1  -0.336   0.300   0.076
    1UNL     C2    2  -0.199   0.246   0.031
    1UNL     C3    3  -0.188   0.118  -0.051
    1UNL     C4    4  -0.086   0.115  -0.171
    1UNL     N1    5   0.045   0.090  -0.118
    1UNL     C5    6   0.115   0.209  -0.065
    1UNL     C6    7   0.267   0.193  -0.066
    1UNL     C7    8   0.306   0.056  -0.018
    1UNL     C8    9   0.213  -0.045  -0.002
    1UNL     N2   10   0.277  -0.155   0.053
    1UNL     C9   11   0.416  -0.127   0.073
    1UNL    C10   12   0.525  -0.201   0.131
    1UNL    C11   13   0.643  -0.135   0.146
    1UNL    C12   14   0.662  -0.005   0.097
    1UNL    C13   15   0.558   0.063   0.034
    1UNL    C14   16   0.434   0.006   0.027
    1UNL    C15   17   0.062  -0.032  -0.037
    1UNL    C16   18  -0.030  -0.026   0.085
    1UNL    C17   19  -0.171  -0.011   0.031
    1UNL    C18   20  -0.218  -0.139  -0.044
    1UNL    C19   21  -0.185  -0.260   0.041
    1UNL     O1   22  -0.220  -0.379  -0.023
    1UNL    C20   23  -0.372  -0.145  -0.060
    1UNL     O2   24  -0.430  -0.231  -0.120
    1UNL     O3   25  -0.442  -0.044   0.006
    1UNL    C21   26  -0.578  -0.070  -0.007
    1UNL     H1   27  -0.400   0.310  -0.008
    1UNL     H2   28  -0.397   0.239   0.136
    1UNL     H3   29  -0.326   0.392   0.141
    1UNL     H4   30  -0.146   0.317  -0.037
    1UNL     H5   31  -0.141   0.242   0.121
    1UNL     H6   32  -0.282   0.103  -0.106
    1UNL     H7   33  -0.110   0.030  -0.238
    1UNL     H8   34  -0.084   0.208  -0.229
    1UNL     H9   35   0.068   0.218   0.030
    1UNL    H10   36   0.100   0.302  -0.122
    1UNL    H11   37   0.316   0.276  -0.002
    1UNL    H12   38   0.298   0.218  -0.168
    1UNL    H13   39   0.234  -0.244   0.077
    1UNL    H14   40   0.520  -0.305   0.159
    1UNL    H15   41   0.722  -0.188   0.189
    1UNL    H16   42   0.757   0.042   0.113
    1UNL    H17   43   0.565   0.159  -0.012
    1UNL    H18   44   0.035  -0.122  -0.095
    1UNL    H19   45  -0.006   0.056   0.160
    1UNL    H20   46  -0.019  -0.114   0.137
    1UNL    H21   47  -0.246  -0.009   0.110
    1UNL    H22   48  -0.182  -0.164  -0.147
    1UNL    H23   49  -0.241  -0.270   0.135
    1UNL    H24   50  -0.077  -0.275   0.057
    1UNL    H25   51  -0.298  -0.369  -0.083
    1UNL    H26   52  -0.590  -0.177   0.001
    1UNL    H27   53  -0.621  -0.032   0.089
    1UNL    H28   54  -0.614  -0.032  -0.096
   0.00000   0.00000   0.00000   0.00000   0.00000   0.00000   0.00000   0.00000   0.00000
Generated with MDTraj, t= 17.0
 54
    1UNL     C1    1  -0.320   0.232   0.106
    1UNL     C2    2  -0.208   0.230   0.001
    1UNL     C3    3  -0.195   0.104  -0.073
    1UNL     C4    4  -0.080   0.094  -0.175
    1UNL     N1    5   0.053   0.101  -0.112
    1UNL     C5    6   0.126   0.232  -0.093
    1UNL     C6    7   0.271   0.204  -0.062
    1UNL     C7    8   0.306   0.074   0.008
    1UNL     C8    9   0.221  -0.032   0.019
    1UNL     N2   10   0.279  -0.147   0.066
    1UNL     C9   11   0.406  -0.119   0.089
    1UNL    C10   12   0.510  -0.201   0.124
    1UNL    C11   13   0.638  -0.149   0.114
    1UNL    C12   14   0.661  -0.017   0.079
    1UNL    C13   15   0.561   0.069   0.044
    1UNL    C14   16   0.428   0.023   0.056
    1UNL    C15   17   0.077  -0.022  -0.030
    1UNL    C16   18  -0.033  -0.025   0.081
    1UNL    C17   19  -0.175  -0.018   0.027
    1UNL    C18   20  -0.227  -0.144  -0.036
    1UNL    C19   21  -0.197  -0.276   0.038
    1UNL     O1   22  -0.223  -0.382  -0.049
    1UNL    C20   23  -0.380  -0.142  -0.045
    1UNL     O2   24  -0.435  -0.236  -0.093
    1UNL     O3   25  -0.436  -0.032   0.015
    1UNL    C21   26  -0.567  -0.033  -0.032
    1UNL     H1   27  -0.412   0.193   0.067
    1UNL     H2   28  -0.316   0.176   0.197
    1UNL     H3   29  -0.334   0.332   0.152
    1UNL     H4   30  -0.235   0.314  -0.066
    1UNL     H5   31  -0.112   0.258   0.045
    1UNL     H6   32  -0.295   0.094  -0.119
    1UNL     H7   33  -0.095   0.007  -0.241
    1UNL     H8   34  -0.090   0.186  -0.234
    1UNL     H9   35   0.093   0.302  -0.016
    1UNL    H10   36   0.115   0.279  -0.193
    1UNL    H11   37   0.299   0.301  -0.003
    1UNL    H12   38   0.335   0.219  -0.150
    1UNL    H13   39   0.229  -0.234   0.076
    1UNL    H14   40   0.478  -0.302   0.135
    1UNL    H15   41   0.716  -0.217   0.137
    1UNL    H16   42   0.759   0.025   0.071
    1UNL    H17   43   0.588   0.165  -0.002
    1UNL    H18   44   0.060  -0.105  -0.101
    1UNL    H19   45   0.001   0.070   0.135
    1UNL    H20   46  -0.023  -0.102   0.149
    1UNL    H21   47  -0.244   0.014   0.103
    1UNL    H22   48  -0.179  -0.153  -0.136
    1UNL    H23   49  -0.260  -0.280   0.128
    1UNL    H24   50  -0.089  -0.286   0.057
    1UNL    H25   51  -0.321  -0.378  -0.055
    1UNL    H26   52  -0.623   0.039   0.030
    1UNL    H27   53  -0.569   0.001  -0.137
    1UNL    H28   54  -0.600  -0.135  -0.029
   0.00000   0.00000   0.00000   0.00000   0.00000   0.00000   0.00000   0.00000   0.00000
Generated with MDTraj, t= 18.0
 54
    1UNL     C1    1  -0.328   0.232   0.126
    1UNL     C2    2  -0.220   0.240   0.014
    1UNL     C3    3  -0.200   0.109  -0.063
    1UNL     C4    4  -0.084   0.115  -0.169
    1UNL     N1    5   0.047   0.109  -0.099
    1UNL     C5    6   0.136   0.233  -0.078
    1UNL     C6    7   0.287   0.193  -0.078
    1UNL     C7    8   0.310   0.063  -0.006
    1UNL     C8    9   0.215  -0.039   0.010
    1UNL     N2   10   0.274  -0.145   0.071
    1UNL     C9   11   0.409  -0.108   0.082
    1UNL    C10   12   0.520  -0.190   0.126
    1UNL    C11   13   0.648  -0.147   0.120
    1UNL    C12   14   0.674  -0.016   0.081
    1UNL    C13   15   0.566   0.065   0.043
    1UNL    C14   16   0.435   0.020   0.045
    1UNL    C15   17   0.070  -0.024  -0.035
    1UNL    C16   18  -0.031  -0.035   0.078
    1UNL    C17   19  -0.177  -0.025   0.034
    1UNL    C18   20  -0.228  -0.148  -0.050
    1UNL    C19   21  -0.189  -0.272   0.033
    1UNL     O1   22  -0.235  -0.391  -0.017
    1UNL    C20   23  -0.377  -0.141  -0.067
    1UNL     O2   24  -0.439  -0.238  -0.100
    1UNL     O3   25  -0.440  -0.025  -0.018
    1UNL    C21   26  -0.579  -0.040  -0.035
    1UNL     H1   27  -0.414   0.181   0.084
    1UNL     H2   28  -0.302   0.164   0.205
    1UNL     H3   29  -0.343   0.325   0.180
    1UNL     H4   30  -0.250   0.324  -0.049
    1UNL     H5   31  -0.132   0.274   0.073
    1UNL     H6   32  -0.295   0.087  -0.113
    1UNL     H7   33  -0.088   0.030  -0.239
    1UNL     H8   34  -0.092   0.207  -0.230
    1UNL     H9   35   0.099   0.271   0.017
    1UNL    H10   36   0.113   0.310  -0.154
    1UNL    H11   37   0.362   0.277  -0.044
    1UNL    H12   38   0.315   0.205  -0.184
    1UNL    H13   39   0.239  -0.239   0.084
    1UNL    H14   40   0.502  -0.293   0.166
    1UNL    H15   41   0.739  -0.214   0.142
    1UNL    H16   42   0.777   0.024   0.096
    1UNL    H17   43   0.582   0.166   0.013
    1UNL    H18   44   0.055  -0.100  -0.113
    1UNL    H19   45  -0.004   0.050   0.147
    1UNL    H20   46   0.006  -0.123   0.124
    1UNL    H21   47  -0.238  -0.019   0.122
    1UNL    H22   48  -0.178  -0.158  -0.148
    1UNL    H23   49  -0.236  -0.260   0.130
    1UNL    H24   50  -0.079  -0.279   0.035
    1UNL    H25   51  -0.330  -0.375  -0.038
    1UNL    H26   52  -0.594  -0.058  -0.141
    1UNL    H27   53  -0.622  -0.110   0.040
    1UNL    H28   54  -0.621   0.060  -0.011
   0.00000   0.00000   0.00000   0.00000   0.00000   0.00000   0.00000   0.00000   0.00000
Generated with MDTraj, t= 19.0
 54
    1UNL     C1    1  -0.336   0.260   0.122
    1UNL     C2    2  -0.199   0.242   0.056
    1UNL     C3    3  -0.196   0.113  -0.041
    1UNL     C4    4  -0.101   0.129  -0.158
    1UNL     N1    5   0.047   0.105  -0.112
    1UNL     C5    6   0.134   0.221  -0.059
    1UNL     C6    7   0.285   0.200  -0.073
    1UNL     C7    8   0.316   0.054  -0.049
    1UNL     C8    9   0.221  -0.037  -0.017
    1UNL     N2   10   0.277  -0.146   0.058
    1UNL     C9   11   0.410  -0.123   0.072
    1UNL    C10   12   0.510  -0.190   0.147
    1UNL    C11   13   0.634  -0.132   0.155
    1UNL    C12   14   0.659  -0.006   0.087
    1UNL    C13   15   0.564   0.059   0.014
    1UNL    C14   16   0.434   0.003   0.009
    1UNL    C15   17   0.076  -0.026  -0.044
    1UNL    C16   18  -0.021  -0.044   0.078
    1UNL    C17   19  -0.177  -0.022   0.043
    1UNL    C18   20  -0.227  -0.145  -0.032
    1UNL    C19   21  -0.202  -0.268   0.059
    1UNL     O1   22  -0.229  -0.394  -0.008
    1UNL    C20   23  -0.374  -0.141  -0.070
    1UNL     O2   24  -0.417  -0.229  -0.141
    1UNL     O3   25  -0.445  -0.039  -0.014
    1UNL    C21   26  -0.580  -0.050  -0.047
    1UNL     H1   27  -0.415   0.251   0.046
    1UNL     H2   28  -0.363   0.171   0.184
    1UNL     H3   29  -0.341   0.339   0.189
    1UNL     H4   30  -0.173   0.337   0.005
    1UNL     H5   31  -0.120   0.228   0.136
    1UNL     H6   32  -0.297   0.087  -0.077
    1UNL     H7   33  -0.129   0.055  -0.232
    1UNL     H8   34  -0.108   0.224  -0.212
    1UNL     H9   35   0.108   0.233   0.046
    1UNL    H10   36   0.093   0.310  -0.108
    1UNL    H11   37   0.341   0.275  -0.001
    1UNL    H12   38   0.346   0.229  -0.160
    1UNL    H13   39   0.214  -0.205   0.111
    1UNL    H14   40   0.481  -0.280   0.190
    1UNL    H15   41   0.715  -0.174   0.197
    1UNL    H16   42   0.751   0.042   0.098
    1UNL    H17   43   0.592   0.161  -0.011
    1UNL    H18   44   0.057  -0.109  -0.114
    1UNL    H19   45   0.019   0.037   0.141
    1UNL    H20   46  -0.001  -0.136   0.131
    1UNL    H21   47  -0.236  -0.030   0.134
    1UNL    H22   48  -0.166  -0.163  -0.123
    1UNL    H23   49  -0.274  -0.262   0.140
    1UNL    H24   50  -0.100  -0.286   0.099
    1UNL    H25   51  -0.308  -0.401  -0.063
    1UNL    H26   52  -0.636  -0.089   0.032
    1UNL    H27   53  -0.612   0.050  -0.089
    1UNL    H28   54  -0.584  -0.131  -0.125
   0.00000   0.00000   0.00000   0.00000   0.00000   0.00000   0.00000   0.00000   0.00000
Generated with MDTraj, t= 20.0
 54
    1UNL     C1    1  -0.329   0.258   0.128
    1UNL     C2    2  -0.194   0.234   0.066
    1UNL     C3    3  -0.187   0.101  -0.021
    1UNL     C4    4  -0.104   0.111  -0.146
    1UNL     N1    5   0.040   0.093  -0.125
    1UNL     C5    6   0.123   0.222  -0.100
    1UNL     C6    7   0.273   0.189  -0.104
    1UNL     C7    8   0.311   0.057  -0.040
    1UNL     C8    9   0.214  -0.039  -0.013
    1UNL     N2   10   0.265  -0.148   0.048
    1UNL     C9   11   0.401  -0.116   0.064
    1UNL    C10   12   0.503  -0.187   0.130
    1UNL    C11   13   0.625  -0.134   0.139
    1UNL    C12   14   0.657  -0.001   0.104
    1UNL    C13   15   0.557   0.074   0.048
    1UNL    C14   16   0.435   0.011   0.021
    1UNL    C15   17   0.066  -0.033  -0.045
    1UNL    C16   18  -0.012  -0.034   0.091
    1UNL    C17   19  -0.175  -0.025   0.060
    1UNL    C18   20  -0.219  -0.155  -0.012
    1UNL    C19   21  -0.210  -0.283   0.072
    1UNL     O1   22  -0.236  -0.400  -0.009
    1UNL    C20   23  -0.357  -0.130  -0.065
    1UNL     O2   24  -0.375  -0.178  -0.176
    1UNL     O3   25  -0.447  -0.057   0.006
    1UNL    C21   26  -0.569  -0.041  -0.063
    1UNL     H1   27  -0.398   0.256   0.044
    1UNL     H2   28  -0.374   0.177   0.191
    1UNL     H3   29  -0.335   0.342   0.187
    1UNL     H4   30  -0.164   0.312  -0.003
    1UNL     H5   31  -0.113   0.235   0.146
    1UNL     H6   32  -0.293   0.097  -0.055
    1UNL     H7   33  -0.124   0.038  -0.223
    1UNL     H8   34  -0.125   0.204  -0.199
    1UNL     H9   35   0.092   0.258  -0.001
    1UNL    H10   36   0.093   0.292  -0.179
    1UNL    H11   37   0.359   0.259  -0.067
    1UNL    H12   38   0.293   0.193  -0.211
    1UNL    H13   39   0.229  -0.242   0.068
    1UNL    H14   40   0.492  -0.295   0.151
    1UNL    H15   41   0.708  -0.207   0.165
    1UNL    H16   42   0.759   0.041   0.130
    1UNL    H17   43   0.554   0.181   0.034
    1UNL    H18   44   0.034  -0.120  -0.105
    1UNL    H19   45   0.010   0.054   0.149
    1UNL    H20   46   0.022  -0.119   0.156
    1UNL    H21   47  -0.224  -0.006   0.153
    1UNL    H22   48  -0.156  -0.157  -0.104
    1UNL    H23   49  -0.279  -0.278   0.156
    1UNL    H24   50  -0.106  -0.287   0.110
    1UNL    H25   51  -0.288  -0.369  -0.091
    1UNL    H26   52  -0.565   0.032  -0.134
    1UNL    H27   53  -0.593  -0.138  -0.119
    1UNL    H28   54  -0.644  -0.020   0.015
   0.00000   0.00000   0.00000   0.00000   0.00000   0.00000   0.00000   0.00000   0.00000
Generated with MDTraj, t= 21.0
 54
    1UNL     C1    1  -0.294   0.246   0.165
    1UNL     C2    2  -0.196   0.239   0.046
    1UNL     C3    3  -0.194   0.108  -0.036
    1UNL     C4    4  -0.099   0.112  -0.164
    1UNL     N1    5   0.047   0.080  -0.126
    1UNL     C5    6   0.124   0.208  -0.094
    1UNL     C6    7   0.271   0.191  -0.087
    1UNL     C7    8   0.299   0.063  -0.016
    1UNL     C8    9   0.209  -0.045  -0.000
    1UNL     N2   10   0.286  -0.150   0.044
    1UNL     C9   11   0.417  -0.123   0.070
    1UNL    C10   12   0.517  -0.188   0.135
    1UNL    C11   13   0.642  -0.123   0.137
    1UNL    C12   14   0.658   0.005   0.085
    1UNL    C13   15   0.556   0.086   0.040
    1UNL    C14   16   0.431   0.017   0.031
    1UNL    C15   17   0.062  -0.034  -0.032
    1UNL    C16   18  -0.020  -0.017   0.087
    1UNL    C17   19  -0.177  -0.015   0.053
    1UNL    C18   20  -0.216  -0.152  -0.015
    1UNL    C19   21  -0.226  -0.287   0.062
    1UNL     O1   22  -0.286  -0.395  -0.009
    1UNL    C20   23  -0.356  -0.133  -0.078
    1UNL     O2   24  -0.378  -0.181  -0.188
    1UNL     O3   25  -0.442  -0.071   0.001
    1UNL    C21   26  -0.571  -0.053  -0.055
    1UNL     H1   27  -0.392   0.229   0.123
    1UNL     H2   28  -0.277   0.167   0.237
    1UNL     H3   29  -0.278   0.338   0.217
    1UNL     H4   30  -0.209   0.328  -0.016
    1UNL     H5   31  -0.091   0.253   0.089
    1UNL     H6   32  -0.299   0.094  -0.071
    1UNL     H7   33  -0.134   0.040  -0.236
    1UNL     H8   34  -0.104   0.206  -0.219
    1UNL     H9   35   0.089   0.254   0.002
    1UNL    H10   36   0.108   0.272  -0.183
    1UNL    H11   37   0.319   0.288  -0.045
    1UNL    H12   38   0.331   0.175  -0.177
    1UNL    H13   39   0.251  -0.243   0.070
    1UNL    H14   40   0.495  -0.287   0.164
    1UNL    H15   41   0.724  -0.176   0.182
    1UNL    H16   42   0.750   0.051   0.103
    1UNL    H17   43   0.569   0.189   0.010
    1UNL    H18   44   0.021  -0.116  -0.091
    1UNL    H19   45   0.010   0.072   0.133
    1UNL    H20   46  -0.005  -0.094   0.171
    1UNL    H21   47  -0.232  -0.002   0.145
    1UNL    H22   48  -0.149  -0.158  -0.102
    1UNL    H23   49  -0.282  -0.276   0.154
    1UNL    H24   50  -0.120  -0.315   0.084
    1UNL    H25   51  -0.319  -0.353  -0.091
    1UNL    H26   52  -0.619  -0.142  -0.064
    1UNL    H27   53  -0.636   0.006   0.021
    1UNL    H28   54  -0.571   0.009  -0.143
   0.00000   0.00000   0.00000   0.00000   0.00000   0.00000   0.00000   0.00000   0.00000
Generated with MDTraj, t= 22.0
 54
    1UNL     C1    1  -0.278   0.220   0.167
    1UNL     C2    2  -0.193   0.229   0.037
    1UNL     C3    3  -0.189   0.108  -0.053
    1UNL     C4    4  -0.079   0.116  -0.159
    1UNL     N1    5   0.059   0.098  -0.112
    1UNL     C5    6   0.128   0.220  -0.063
    1UNL     C6    7   0.277   0.198  -0.086
    1UNL     C7    8   0.318   0.069  -0.018
    1UNL     C8    9   0.224  -0.027   0.011
    1UNL     N2   10   0.284  -0.138   0.064
    1UNL     C9   11   0.424  -0.103   0.084
    1UNL    C10   12   0.526  -0.177   0.141
    1UNL    C11   13   0.651  -0.124   0.135
    1UNL    C12   14   0.674   0.001   0.075
    1UNL    C13   15   0.574   0.076   0.021
    1UNL    C14   16   0.444   0.026   0.036
    1UNL    C15   17   0.082  -0.029  -0.036
    1UNL    C16   18  -0.025  -0.053   0.067
    1UNL    C17   19  -0.178  -0.028   0.030
    1UNL    C18   20  -0.241  -0.161  -0.030
    1UNL    C19   21  -0.252  -0.281   0.068
    1UNL     O1   22  -0.281  -0.396  -0.003
    1UNL    C20   23  -0.384  -0.135  -0.084
    1UNL     O2   24  -0.415  -0.200  -0.184
    1UNL     O3   25  -0.467  -0.047  -0.014
    1UNL    C21   26  -0.603  -0.055  -0.045
    1UNL     H1   27  -0.370   0.173   0.137
    1UNL     H2   28  -0.236   0.153   0.239
    1UNL     H3   29  -0.285   0.317   0.220
    1UNL     H4   30  -0.219   0.318  -0.021
    1UNL     H5   31  -0.089   0.257   0.069
    1UNL     H6   32  -0.284   0.094  -0.108
    1UNL     H7   33  -0.105   0.047  -0.236
    1UNL     H8   34  -0.087   0.219  -0.197
    1UNL     H9   35   0.122   0.208   0.047
    1UNL    H10   36   0.084   0.314  -0.102
    1UNL    H11   37   0.343   0.271  -0.027
    1UNL    H12   38   0.297   0.220  -0.192
    1UNL    H13   39   0.244  -0.221   0.110
    1UNL    H14   40   0.518  -0.275   0.189
    1UNL    H15   41   0.725  -0.176   0.188
    1UNL    H16   42   0.776   0.041   0.077
    1UNL    H17   43   0.583   0.166  -0.038
    1UNL    H18   44   0.073  -0.114  -0.106
    1UNL    H19   45  -0.010   0.008   0.150
    1UNL    H20   46  -0.011  -0.158   0.113
    1UNL    H21   47  -0.228  -0.022   0.124
    1UNL    H22   48  -0.185  -0.197  -0.118
    1UNL    H23   49  -0.335  -0.265   0.136
    1UNL    H24   50  -0.161  -0.314   0.125
    1UNL    H25   51  -0.347  -0.379  -0.079
    1UNL    H26   52  -0.655   0.003   0.024
    1UNL    H27   53  -0.620  -0.022  -0.156
    1UNL    H28   54  -0.636  -0.155  -0.042
   0.00000   0.00000   0.00000   0.00000   0.00000   0.00000   0.00000   0.00000   0.00000
Generated with MDTraj, t= 23.0
 54
    1UNL     C1    1  -0.333   0.214   0.143
    1UNL     C2    2  -0.208   0.214   0.058
    1UNL     C3    3  -0.189   0.098  -0.041
    1UNL     C4    4  -0.083   0.118  -0.144
    1UNL     N1    5   0.052   0.101  -0.102
    1UNL     C5    6   0.138   0.226  -0.088
    1UNL     C6    7   0.285   0.194  -0.091
    1UNL     C7    8   0.314   0.066  -0.020
    1UNL     C8    9   0.218  -0.034   0.003
    1UNL     N2   10   0.280  -0.136   0.082
    1UNL     C9   11   0.417  -0.107   0.080
    1UNL    C10   12   0.521  -0.177   0.131
    1UNL    C11   13   0.648  -0.120   0.135
    1UNL    C12   14   0.672   0.010   0.083
    1UNL    C13   15   0.575   0.070   0.017
    1UNL    C14   16   0.436   0.022   0.024
    1UNL    C15   17   0.075  -0.029  -0.032
    1UNL    C16   18  -0.019  -0.062   0.083
    1UNL    C17   19  -0.168  -0.037   0.044
    1UNL    C18   20  -0.232  -0.156  -0.035
    1UNL    C19   21  -0.212  -0.290   0.035
    1UNL     O1   22  -0.296  -0.399  -0.009
    1UNL    C20   23  -0.376  -0.131  -0.075
    1UNL     O2   24  -0.420  -0.209  -0.158
    1UNL     O3   25  -0.445  -0.026  -0.016
    1UNL    C21   26  -0.573  -0.020  -0.052
    1UNL     H1   27  -0.413   0.186   0.080
    1UNL     H2   28  -0.334   0.138   0.214
    1UNL     H3   29  -0.352   0.307   0.205
    1UNL     H4   30  -0.206   0.306  -0.002
    1UNL     H5   31  -0.114   0.229   0.113
    1UNL     H6   32  -0.285   0.087  -0.095
    1UNL     H7   33  -0.101   0.039  -0.215
    1UNL     H8   34  -0.104   0.217  -0.185
    1UNL     H9   35   0.111   0.278   0.005
    1UNL    H10   36   0.119   0.292  -0.175
    1UNL    H11   37   0.333   0.290  -0.049
    1UNL    H12   38   0.331   0.177  -0.190
    1UNL    H13   39   0.233  -0.227   0.074
    1UNL    H14   40   0.494  -0.268   0.186
    1UNL    H15   41   0.743  -0.174   0.175
    1UNL    H16   42   0.770   0.053   0.096
    1UNL    H17   43   0.600   0.170  -0.019
    1UNL    H18   44   0.059  -0.101  -0.114
    1UNL    H19   45   0.015  -0.012   0.169
    1UNL    H20   46  -0.012  -0.172   0.116
    1UNL    H21   47  -0.218  -0.038   0.140
    1UNL    H22   48  -0.183  -0.172  -0.132
    1UNL    H23   49  -0.234  -0.287   0.141
    1UNL    H24   50  -0.106  -0.325   0.016
    1UNL    H25   51  -0.350  -0.372  -0.079
    1UNL    H26   52  -0.583   0.042  -0.140
    1UNL    H27   53  -0.617  -0.125  -0.070
    1UNL    H28   54  -0.628   0.027   0.026
   0.00000   0.00000   0.00000   0.00000   0.00000   0.00000   0.00000   0.00000   0.00000
Generated with MDTraj, t= 24.0
 54
    1UNL     C1    1  -0.346   0.249   0.127
    1UNL     C2    2  -0.207   0.227   0.068
    1UNL     C3    3  -0.201   0.106  -0.028
    1UNL     C4    4  -0.103   0.125  -0.144
    1UNL     N1    5   0.039   0.094  -0.116
    1UNL     C5    6   0.126   0.210  -0.074
    1UNL     C6    7   0.279   0.186  -0.091
    1UNL     C7    8   0.308   0.058  -0.029
    1UNL     C8    9   0.219  -0.046  -0.008
    1UNL     N2   10   0.282  -0.142   0.062
    1UNL     C9   11   0.417  -0.107   0.081
    1UNL    C10   12   0.520  -0.189   0.139
    1UNL    C11   13   0.640  -0.126   0.147
    1UNL    C12   14   0.658   0.003   0.088
    1UNL    C13   15   0.559   0.073   0.026
    1UNL    C14   16   0.429   0.020   0.026
    1UNL    C15   17   0.072  -0.035  -0.045
    1UNL    C16   18  -0.017  -0.041   0.076
    1UNL    C17   19  -0.168  -0.031   0.037
    1UNL    C18   20  -0.218  -0.157  -0.040
    1UNL    C19   21  -0.199  -0.282   0.042
    1UNL     O1   22  -0.253  -0.399  -0.027
    1UNL    C20   23  -0.371  -0.144  -0.066
    1UNL     O2   24  -0.411  -0.215  -0.153
    1UNL     O3   25  -0.435  -0.050   0.009
    1UNL    C21   26  -0.553  -0.002  -0.048
    1UNL     H1   27  -0.409   0.298   0.056
    1UNL     H2   28  -0.388   0.154   0.136
    1UNL     H3   29  -0.336   0.294   0.229
    1UNL     H4   30  -0.183   0.319   0.013
    1UNL     H5   31  -0.131   0.215   0.144
    1UNL     H6   32  -0.304   0.094  -0.069
    1UNL     H7   33  -0.146   0.057  -0.215
    1UNL     H8   34  -0.111   0.228  -0.181
    1UNL     H9   35   0.100   0.232   0.031
    1UNL    H10   36   0.095   0.297  -0.136
    1UNL    H11   37   0.335   0.269  -0.040
    1UNL    H12   38   0.287   0.201  -0.200
    1UNL    H13   39   0.234  -0.229   0.091
    1UNL    H14   40   0.514  -0.292   0.163
    1UNL    H15   41   0.722  -0.182   0.166
    1UNL    H16   42   0.761   0.037   0.090
    1UNL    H17   43   0.567   0.172  -0.018
    1UNL    H18   44   0.056  -0.117  -0.118
    1UNL    H19   45   0.002   0.034   0.147
    1UNL    H20   46   0.011  -0.135   0.132
    1UNL    H21   47  -0.222  -0.018   0.130
    1UNL    H22   48  -0.161  -0.166  -0.135
    1UNL    H23   49  -0.246  -0.269   0.140
    1UNL    H24   50  -0.089  -0.299   0.051
    1UNL    H25   51  -0.316  -0.353  -0.097
    1UNL    H26   52  -0.577  -0.059  -0.141
    1UNL    H27   53  -0.641  -0.016   0.016
    1UNL    H28   54  -0.546   0.104  -0.078
   0.00000   0.00000   0.00000   0.00000   0.00000   0.00000   0.00000   0.00000   0.00000
Generated with MDTraj, t= 25.0
 54
    1UNL     C1    1  -0.308   0.259   0.126
    1UNL     C2    2  -0.190   0.234   0.035
    1UNL     C3    3  -0.195   0.100  -0.040
    1UNL     C4    4  -0.090   0.105  -0.158
    1UNL     N1    5   0.047   0.095  -0.115
    1UNL     C5    6   0.114   0.225  -0.067
    1UNL     C6    7   0.270   0.196  -0.073
    1UNL     C7    8   0.308   0.058  -0.029
    1UNL     C8    9   0.215  -0.039  -0.017
    1UNL     N2   10   0.273  -0.151   0.031
    1UNL     C9   11   0.404  -0.125   0.061
    1UNL    C10   12   0.507  -0.185   0.131
    1UNL    C11   13   0.633  -0.130   0.156
    1UNL    C12   14   0.658  -0.005   0.104
    1UNL    C13   15   0.562   0.065   0.035
    1UNL    C14   16   0.431   0.010   0.016
    1UNL    C15   17   0.070  -0.024  -0.040
    1UNL    C16   18  -0.014  -0.039   0.087
    1UNL    C17   19  -0.172  -0.021   0.051
    1UNL    C18   20  -0.235  -0.144  -0.019
    1UNL    C19   21  -0.222  -0.278   0.057
    1UNL     O1   22  -0.182  -0.383  -0.026
    1UNL    C20   23  -0.372  -0.127  -0.073
    1UNL     O2   24  -0.406  -0.176  -0.177
    1UNL     O3   25  -0.458  -0.059   0.016
    1UNL    C21   26  -0.591  -0.069  -0.023
    1UNL     H1   27  -0.398   0.226   0.083
    1UNL     H2   28  -0.304   0.197   0.214
    1UNL     H3   29  -0.313   0.361   0.167
    1UNL     H4   30  -0.180   0.310  -0.045
    1UNL     H5   31  -0.100   0.237   0.095
    1UNL     H6   32  -0.300   0.098  -0.074
    1UNL     H7   33  -0.104   0.030  -0.234
    1UNL     H8   34  -0.110   0.203  -0.205
    1UNL     H9   35   0.090   0.246   0.039
    1UNL    H10   36   0.071   0.311  -0.123
    1UNL    H11   37   0.313   0.274  -0.006
    1UNL    H12   38   0.307   0.213  -0.177
    1UNL    H13   39   0.218  -0.231   0.063
    1UNL    H14   40   0.488  -0.296   0.137
    1UNL    H15   41   0.709  -0.192   0.209
    1UNL    H16   42   0.752   0.044   0.119
    1UNL    H17   43   0.589   0.164   0.011
    1UNL    H18   44   0.039  -0.102  -0.112
    1UNL    H19   45   0.027   0.025   0.163
    1UNL    H20   46  -0.004  -0.138   0.133
    1UNL    H21   47  -0.229  -0.000   0.141
    1UNL    H22   48  -0.182  -0.150  -0.116
    1UNL    H23   49  -0.323  -0.310   0.083
    1UNL    H24   50  -0.156  -0.274   0.146
    1UNL    H25   51  -0.250  -0.385  -0.102
    1UNL    H26   52  -0.640  -0.143   0.048
    1UNL    H27   53  -0.643   0.021  -0.010
    1UNL    H28   54  -0.602  -0.103  -0.134
   0.00000   0.00000   0.00000   0.00000   0.00000   0.00000   0.00000   0.00000   0.00000
Generated with MDTraj, t= 26.0
 54
    1UNL     C1    1  -0.307   0.248   0.136
    1UNL     C2    2  -0.197   0.250   0.030
    1UNL     C3    3  -0.201   0.120  -0.053
    1UNL     C4    4  -0.093   0.130  -0.172
    1UNL     N1    5   0.051   0.106  -0.129
    1UNL     C5    6   0.134   0.222  -0.096
    1UNL     C6    7   0.276   0.184  -0.079
    1UNL     C7    8   0.296   0.054  -0.010
    1UNL     C8    9   0.208  -0.047  -0.009
    1UNL     N2   10   0.274  -0.163   0.044
    1UNL     C9   11   0.408  -0.132   0.072
    1UNL    C10   12   0.516  -0.211   0.119
    1UNL    C11   13   0.635  -0.146   0.124
    1UNL    C12   14   0.648  -0.009   0.101
    1UNL    C13   15   0.537   0.071   0.069
    1UNL    C14   16   0.421   0.003   0.048
    1UNL    C15   17   0.066  -0.015  -0.050
    1UNL    C16   18  -0.024  -0.006   0.075
    1UNL    C17   19  -0.174  -0.005   0.035
    1UNL    C18   20  -0.223  -0.142  -0.029
    1UNL    C19   21  -0.204  -0.265   0.069
    1UNL     O1   22  -0.168  -0.372  -0.010
    1UNL    C20   23  -0.374  -0.130  -0.070
    1UNL     O2   24  -0.408  -0.140  -0.185
    1UNL     O3   25  -0.457  -0.102   0.034
    1UNL    C21   26  -0.594  -0.110  -0.013
    1UNL     H1   27  -0.403   0.214   0.103
    1UNL     H2   28  -0.283   0.172   0.212
    1UNL     H3   29  -0.316   0.336   0.195
    1UNL     H4   30  -0.207   0.333  -0.043
    1UNL     H5   31  -0.106   0.258   0.085
    1UNL     H6   32  -0.306   0.106  -0.081
    1UNL     H7   33  -0.130   0.060  -0.247
    1UNL     H8   34  -0.090   0.228  -0.225
    1UNL     H9   35   0.080   0.278  -0.017
    1UNL    H10   36   0.127   0.287  -0.187
    1UNL    H11   37   0.328   0.265  -0.024
    1UNL    H12   38   0.316   0.184  -0.185
    1UNL    H13   39   0.251  -0.263   0.040
    1UNL    H14   40   0.511  -0.314   0.136
    1UNL    H15   41   0.722  -0.204   0.162
    1UNL    H16   42   0.737   0.040   0.141
    1UNL    H17   43   0.542   0.181   0.065
    1UNL    H18   44   0.035  -0.098  -0.117
    1UNL    H19   45  -0.006   0.088   0.124
    1UNL    H20   46   0.001  -0.077   0.149
    1UNL    H21   47  -0.251  -0.001   0.114
    1UNL    H22   48  -0.168  -0.169  -0.120
    1UNL    H23   49  -0.291  -0.297   0.127
    1UNL    H24   50  -0.110  -0.254   0.126
    1UNL    H25   51  -0.237  -0.401  -0.068
    1UNL    H26   52  -0.657  -0.024   0.020
    1UNL    H27   53  -0.594  -0.115  -0.117
    1UNL    H28   54  -0.639  -0.217   0.015
   0.00000   0.00000   0.00000   0.00000   0.00000   0.00000   0.00000   0.00000   0.00000
Generated with MDTraj, t= 27.0
 54
    1UNL     C1    1  -0.325   0.267   0.113
    1UNL     C2    2  -0.211   0.248   0.010
    1UNL     C3    3  -0.206   0.114  -0.055
    1UNL     C4    4  -0.102   0.116  -0.174
    1UNL     N1    5   0.036   0.110  -0.131
    1UNL     C5    6   0.118   0.235  -0.087
    1UNL     C6    7   0.268   0.211  -0.064
    1UNL     C7    8   0.310   0.073  -0.019
    1UNL     C8    9   0.209  -0.014  -0.000
    1UNL     N2   10   0.264  -0.138   0.047
    1UNL     C9   11   0.399  -0.127   0.062
    1UNL    C10   12   0.496  -0.212   0.120
    1UNL    C11   13   0.626  -0.176   0.137
    1UNL    C12   14   0.662  -0.044   0.106
    1UNL    C13   15   0.567   0.047   0.053
    1UNL    C14   16   0.433   0.004   0.035
    1UNL    C15   17   0.068  -0.006  -0.041
    1UNL    C16   18  -0.024   0.008   0.081
    1UNL    C17   19  -0.170  -0.003   0.042
    1UNL    C18   20  -0.212  -0.140  -0.024
    1UNL    C19   21  -0.189  -0.269   0.058
    1UNL     O1   22  -0.204  -0.392  -0.019
    1UNL    C20   23  -0.354  -0.134  -0.060
    1UNL     O2   24  -0.386  -0.105  -0.172
    1UNL     O3   25  -0.446  -0.157   0.038
    1UNL    C21   26  -0.572  -0.125  -0.008
    1UNL     H1   27  -0.418   0.229   0.073
    1UNL     H2   28  -0.301   0.196   0.194
    1UNL     H3   29  -0.332   0.362   0.153
    1UNL     H4   30  -0.243   0.324  -0.065
    1UNL     H5   31  -0.117   0.270   0.052
    1UNL     H6   32  -0.307   0.096  -0.093
    1UNL     H7   33  -0.113   0.035  -0.247
    1UNL     H8   34  -0.131   0.204  -0.237
    1UNL     H9   35   0.078   0.280   0.006
    1UNL    H10   36   0.087   0.310  -0.163
    1UNL    H11   37   0.315   0.285  -0.000
    1UNL    H12   38   0.326   0.215  -0.163
    1UNL    H13   39   0.216  -0.218   0.087
    1UNL    H14   40   0.462  -0.309   0.157
    1UNL    H15   41   0.698  -0.235   0.178
    1UNL    H16   42   0.760  -0.006   0.131
    1UNL    H17   43   0.599   0.149   0.037
    1UNL    H18   44   0.042  -0.091  -0.105
    1UNL    H19   45  -0.001   0.103   0.132
    1UNL    H20   46   0.002  -0.057   0.156
    1UNL    H21   47  -0.232   0.009   0.131
    1UNL    H22   48  -0.154  -0.149  -0.116
    1UNL    H23   49  -0.265  -0.266   0.137
    1UNL    H24   50  -0.089  -0.269   0.100
    1UNL    H25   51  -0.289  -0.385  -0.056
    1UNL    H26   52  -0.566  -0.051  -0.090
    1UNL    H27   53  -0.618  -0.217  -0.026
    1UNL    H28   54  -0.623  -0.085   0.092
   0.00000   0.00000   0.00000   0.00000   0.00000   0.00000   0.00000   0.00000   0.00000
Generated with MDTraj, t= 28.0
 54
    1UNL     C1    1  -0.357   0.247   0.077
    1UNL     C2    2  -0.211   0.250   0.035
    1UNL     C3    3  -0.186   0.132  -0.060
    1UNL     C4    4  -0.078   0.149  -0.167
    1UNL     N1    5   0.055   0.125  -0.120
    1UNL     C5    6   0.143   0.237  -0.064
    1UNL     C6    7   0.291   0.189  -0.069
    1UNL     C7    8   0.307   0.052  -0.015
    1UNL     C8    9   0.210  -0.042   0.004
    1UNL     N2   10   0.262  -0.154   0.069
    1UNL     C9   11   0.397  -0.133   0.083
    1UNL    C10   12   0.513  -0.204   0.138
    1UNL    C11   13   0.634  -0.152   0.129
    1UNL    C12   14   0.663  -0.021   0.074
    1UNL    C13   15   0.563   0.053   0.023
    1UNL    C14   16   0.432  -0.001   0.038
    1UNL    C15   17   0.073  -0.007  -0.038
    1UNL    C16   18  -0.028  -0.008   0.078
    1UNL    C17   19  -0.168  -0.003   0.025
    1UNL    C18   20  -0.216  -0.130  -0.043
    1UNL    C19   21  -0.181  -0.252   0.045
    1UNL     O1   22  -0.258  -0.371   0.008
    1UNL    C20   23  -0.366  -0.126  -0.066
    1UNL     O2   24  -0.408  -0.078  -0.171
    1UNL     O3   25  -0.439  -0.178   0.035
    1UNL    C21   26  -0.576  -0.179  -0.005
    1UNL     H1   27  -0.426   0.219  -0.003
    1UNL     H2   28  -0.375   0.165   0.146
    1UNL     H3   29  -0.399   0.329   0.124
    1UNL     H4   30  -0.188   0.337  -0.030
    1UNL     H5   31  -0.151   0.262   0.123
    1UNL     H6   32  -0.278   0.115  -0.118
    1UNL     H7   33  -0.114   0.093  -0.256
    1UNL     H8   34  -0.070   0.250  -0.216
    1UNL     H9   35   0.095   0.255   0.035
    1UNL    H10   36   0.132   0.328  -0.124
    1UNL    H11   37   0.354   0.248  -0.004
    1UNL    H12   38   0.332   0.195  -0.178
    1UNL    H13   39   0.219  -0.240   0.104
    1UNL    H14   40   0.493  -0.296   0.187
    1UNL    H15   41   0.725  -0.218   0.158
    1UNL    H16   42   0.763   0.010   0.061
    1UNL    H17   43   0.572   0.147  -0.027
    1UNL    H18   44   0.045  -0.081  -0.115
    1UNL    H19   45  -0.010   0.073   0.150
    1UNL    H20   46  -0.019  -0.087   0.145
    1UNL    H21   47  -0.230   0.004   0.117
    1UNL    H22   48  -0.161  -0.139  -0.137
    1UNL    H23   49  -0.207  -0.228   0.149
    1UNL    H24   50  -0.077  -0.282   0.035
    1UNL    H25   51  -0.359  -0.356   0.027
    1UNL    H26   52  -0.573  -0.175  -0.113
    1UNL    H27   53  -0.628  -0.260   0.035
    1UNL    H28   54  -0.618  -0.080   0.038
   0.00000   0.00000   0.00000   0.00000   0.00000   0.00000   0.00000   0.00000   0.00000
Generated with MDTraj, t= 29.0
 54
    1UNL     C1    1  -0.368   0.249   0.065
    1UNL     C2    2  -0.226   0.250   0.009
    1UNL     C3    3  -0.195   0.123  -0.065
    1UNL     C4    4  -0.071   0.129  -0.161
    1UNL     N1    5   0.052   0.124  -0.093
    1UNL     C5    6   0.154   0.242  -0.071
    1UNL     C6    7   0.302   0.202  -0.092
    1UNL     C7    8   0.324   0.073  -0.010
    1UNL     C8    9   0.229  -0.026   0.006
    1UNL     N2   10   0.287  -0.137   0.069
    1UNL     C9   11   0.423  -0.121   0.080
    1UNL    C10   12   0.524  -0.206   0.134
    1UNL    C11   13   0.648  -0.161   0.136
    1UNL    C12   14   0.683  -0.032   0.085
    1UNL    C13   15   0.589   0.047   0.030
    1UNL    C14   16   0.454   0.010   0.028
    1UNL    C15   17   0.080  -0.006  -0.040
    1UNL    C16   18  -0.024  -0.022   0.081
    1UNL    C17   19  -0.177  -0.003   0.035
    1UNL    C18   20  -0.240  -0.136  -0.022
    1UNL    C19   21  -0.201  -0.266   0.046
    1UNL     O1   22  -0.261  -0.378  -0.009
    1UNL    C20   23  -0.389  -0.120  -0.047
    1UNL     O2   24  -0.429  -0.043  -0.136
    1UNL     O3   25  -0.472  -0.201   0.022
    1UNL    C21   26  -0.607  -0.185  -0.023
    1UNL     H1   27  -0.444   0.248  -0.011
    1UNL     H2   28  -0.384   0.157   0.115
    1UNL     H3   29  -0.385   0.330   0.136
    1UNL     H4   30  -0.214   0.343  -0.049
    1UNL     H5   31  -0.145   0.254   0.079
    1UNL     H6   32  -0.282   0.094  -0.124
    1UNL     H7   33  -0.066   0.058  -0.246
    1UNL     H8   34  -0.083   0.220  -0.226
    1UNL     H9   35   0.146   0.283   0.032
    1UNL    H10   36   0.116   0.318  -0.141
    1UNL    H11   37   0.361   0.283  -0.050
    1UNL    H12   38   0.336   0.178  -0.201
    1UNL    H13   39   0.239  -0.227   0.064
    1UNL    H14   40   0.484  -0.302   0.167
    1UNL    H15   41   0.730  -0.225   0.161
    1UNL    H16   42   0.791   0.000   0.093
    1UNL    H17   43   0.603   0.147  -0.012
    1UNL    H18   44   0.058  -0.088  -0.110
    1UNL    H19   45  -0.011   0.048   0.163
    1UNL    H20   46  -0.009  -0.112   0.135
    1UNL    H21   47  -0.230   0.013   0.131
    1UNL    H22   48  -0.196  -0.152  -0.121
    1UNL    H23   49  -0.250  -0.272   0.146
    1UNL    H24   50  -0.094  -0.284   0.049
    1UNL    H25   51  -0.354  -0.365  -0.030
    1UNL    H26   52  -0.640  -0.278  -0.065
    1UNL    H27   53  -0.667  -0.150   0.057
    1UNL    H28   54  -0.605  -0.107  -0.103
   0.00000   0.00000   0.00000   0.00000   0.00000   0.00000   0.00000   0.00000   0.00000
Generated with MDTraj, t= 30.0
 54
    1UNL     C1    1  -0.353   0.249   0.074
    1UNL     C2    2  -0.212   0.252   0.008
    1UNL     C3    3  -0.185   0.120  -0.065
    1UNL     C4    4  -0.074   0.121  -0.175
    1UNL     N1    5   0.059   0.102  -0.125
    1UNL     C5    6   0.135   0.226  -0.084
    1UNL     C6    7   0.283   0.202  -0.063
    1UNL     C7    8   0.312   0.062  -0.005
    1UNL     C8    9   0.218  -0.036   0.017
    1UNL     N2   10   0.279  -0.147   0.076
    1UNL     C9   11   0.413  -0.112   0.093
    1UNL    C10   12   0.517  -0.197   0.131
    1UNL    C11   13   0.647  -0.147   0.131
    1UNL    C12   14   0.679  -0.023   0.075
    1UNL    C13   15   0.574   0.054   0.032
    1UNL    C14   16   0.439   0.012   0.043
    1UNL    C15   17   0.079  -0.023  -0.045
    1UNL    C16   18  -0.021  -0.030   0.073
    1UNL    C17   19  -0.167  -0.009   0.024
    1UNL    C18   20  -0.228  -0.136  -0.035
    1UNL    C19   21  -0.204  -0.262   0.044
    1UNL     O1   22  -0.254  -0.379  -0.012
    1UNL    C20   23  -0.375  -0.116  -0.053
    1UNL     O2   24  -0.422  -0.006  -0.086
    1UNL     O3   25  -0.461  -0.210  -0.007
    1UNL    C21   26  -0.594  -0.171  -0.013
    1UNL     H1   27  -0.426   0.227   0.000
    1UNL     H2   28  -0.358   0.176   0.147
    1UNL     H3   29  -0.368   0.350   0.121
    1UNL     H4   30  -0.203   0.329  -0.069
    1UNL     H5   31  -0.146   0.288   0.084
    1UNL     H6   32  -0.280   0.099  -0.111
    1UNL     H7   33  -0.105   0.043  -0.246
    1UNL     H8   34  -0.068   0.202  -0.253
    1UNL     H9   35   0.089   0.237   0.016
    1UNL    H10   36   0.114   0.317  -0.141
    1UNL    H11   37   0.332   0.271   0.005
    1UNL    H12   38   0.328   0.214  -0.169
    1UNL    H13   39   0.218  -0.224   0.103
    1UNL    H14   40   0.498  -0.301   0.133
    1UNL    H15   41   0.729  -0.204   0.168
    1UNL    H16   42   0.773   0.016   0.064
    1UNL    H17   43   0.596   0.152  -0.006
    1UNL    H18   44   0.054  -0.104  -0.116
    1UNL    H19   45   0.008   0.042   0.147
    1UNL    H20   46  -0.016  -0.125   0.131
    1UNL    H21   47  -0.215   0.014   0.121
    1UNL    H22   48  -0.176  -0.148  -0.131
    1UNL    H23   49  -0.245  -0.249   0.147
    1UNL    H24   50  -0.097  -0.287   0.043
    1UNL    H25   51  -0.352  -0.368  -0.039
    1UNL    H26   52  -0.651  -0.233   0.055
    1UNL    H27   53  -0.606  -0.067   0.010
    1UNL    H28   54  -0.626  -0.192  -0.115
   0.00000   0.00000   0.00000   0.00000   0.00000   0.00000   0.00000   0.00000   0.00000
Generated with MDTraj, t= 31.0
 54
    1UNL     C1    1  -0.297   0.286   0.076
    1UNL     C2    2  -0.170   0.260  -0.002
    1UNL     C3    3  -0.179   0.129  -0.076
    1UNL     C4    4  -0.068   0.119  -0.183
    1UNL     N1    5   0.064   0.101  -0.115
    1UNL     C5    6   0.142   0.228  -0.078
    1UNL     C6    7   0.288   0.200  -0.061
    1UNL     C7    8   0.311   0.060  -0.005
    1UNL     C8    9   0.216  -0.039   0.008
    1UNL     N2   10   0.272  -0.155   0.057
    1UNL     C9   11   0.412  -0.131   0.073
    1UNL    C10   12   0.517  -0.209   0.120
    1UNL    C11   13   0.639  -0.137   0.138
    1UNL    C12   14   0.654  -0.002   0.104
    1UNL    C13   15   0.551   0.070   0.046
    1UNL    C14   16   0.432   0.002   0.033
    1UNL    C15   17   0.076  -0.029  -0.042
    1UNL    C16   18  -0.034  -0.023   0.074
    1UNL    C17   19  -0.176   0.003   0.017
    1UNL    C18   20  -0.238  -0.128  -0.044
    1UNL    C19   21  -0.194  -0.252   0.035
    1UNL     O1   22  -0.243  -0.378  -0.014
    1UNL    C20   23  -0.394  -0.120  -0.036
    1UNL     O2   24  -0.439  -0.008  -0.068
    1UNL     O3   25  -0.468  -0.235  -0.007
    1UNL    C21   26  -0.604  -0.217  -0.010
    1UNL     H1   27  -0.387   0.263   0.027
    1UNL     H2   28  -0.303   0.232   0.166
    1UNL     H3   29  -0.303   0.392   0.111
    1UNL     H4   30  -0.155   0.349  -0.063
    1UNL     H5   31  -0.078   0.260   0.057
    1UNL     H6   32  -0.284   0.122  -0.107
    1UNL     H7   33  -0.083   0.036  -0.254
    1UNL     H8   34  -0.084   0.203  -0.256
    1UNL     H9   35   0.105   0.274   0.016
    1UNL    H10   36   0.120   0.299  -0.156
    1UNL    H11   37   0.329   0.285  -0.007
    1UNL    H12   38   0.343   0.195  -0.162
    1UNL    H13   39   0.220  -0.242   0.064
    1UNL    H14   40   0.529  -0.312   0.147
    1UNL    H15   41   0.723  -0.189   0.190
    1UNL    H16   42   0.743   0.058   0.136
    1UNL    H17   43   0.559   0.177   0.030
    1UNL    H18   44   0.061  -0.106  -0.120
    1UNL    H19   45  -0.013   0.057   0.140
    1UNL    H20   46  -0.013  -0.119   0.133
    1UNL    H21   47  -0.236   0.024   0.109
    1UNL    H22   48  -0.202  -0.137  -0.147
    1UNL    H23   49  -0.236  -0.248   0.139
    1UNL    H24   50  -0.086  -0.252   0.032
    1UNL    H25   51  -0.345  -0.370  -0.018
    1UNL    H26   52  -0.650  -0.239   0.090
    1UNL    H27   53  -0.625  -0.110  -0.025
    1UNL    H28   54  -0.645  -0.268  -0.088
   0.00000   0.00000   0.00000   0.00000   0.00000   0.00000   0.00000   0.00000   0.00000
Generated with MDTraj, t= 32.0
 54
    1UNL     C1    1  -0.312   0.308   0.079
    1UNL     C2    2  -0.180   0.269   0.008
    1UNL     C3    3  -0.180   0.123  -0.057
    1UNL     C4    4  -0.089   0.108  -0.178
    1UNL     N1    5   0.056   0.096  -0.149
    1UNL     C5    6   0.122   0.221  -0.111
    1UNL     C6    7   0.280   0.195  -0.081
    1UNL     C7    8   0.312   0.066  -0.015
    1UNL     C8    9   0.218  -0.037  -0.017
    1UNL     N2   10   0.278  -0.148   0.032
    1UNL     C9   11   0.408  -0.123   0.071
    1UNL    C10   12   0.496  -0.205   0.132
    1UNL    C11   13   0.627  -0.160   0.158
    1UNL    C12   14   0.656  -0.029   0.129
    1UNL    C13   15   0.568   0.065   0.078
    1UNL    C14   16   0.433   0.015   0.046
    1UNL    C15   17   0.074  -0.024  -0.062
    1UNL    C16   18  -0.012  -0.014   0.073
    1UNL    C17   19  -0.167  -0.000   0.042
    1UNL    C18   20  -0.233  -0.125  -0.021
    1UNL    C19   21  -0.176  -0.254   0.036
    1UNL     O1   22  -0.225  -0.362  -0.047
    1UNL    C20   23  -0.386  -0.118  -0.021
    1UNL     O2   24  -0.441  -0.015  -0.059
    1UNL     O3   25  -0.460  -0.229   0.015
    1UNL    C21   26  -0.596  -0.224  -0.021
    1UNL     H1   27  -0.388   0.334   0.012
    1UNL     H2   28  -0.359   0.225   0.132
    1UNL     H3   29  -0.305   0.390   0.152
    1UNL     H4   30  -0.152   0.338  -0.071
    1UNL     H5   31  -0.105   0.302   0.084
    1UNL     H6   32  -0.285   0.113  -0.090
    1UNL     H7   33  -0.133   0.029  -0.239
    1UNL     H8   34  -0.107   0.194  -0.247
    1UNL     H9   35   0.064   0.274  -0.030
    1UNL    H10   36   0.110   0.284  -0.198
    1UNL    H11   37   0.330   0.269  -0.017
    1UNL    H12   38   0.323   0.203  -0.186
    1UNL    H13   39   0.249  -0.246   0.029
    1UNL    H14   40   0.456  -0.306   0.166
    1UNL    H15   41   0.699  -0.228   0.197
    1UNL    H16   42   0.758  -0.001   0.153
    1UNL    H17   43   0.599   0.164   0.050
    1UNL    H18   44   0.051  -0.112  -0.125
    1UNL    H19   45   0.034   0.071   0.117
    1UNL    H20   46   0.007  -0.110   0.137
    1UNL    H21   47  -0.222   0.009   0.139
    1UNL    H22   48  -0.221  -0.120  -0.131
    1UNL    H23   49  -0.208  -0.265   0.143
    1UNL    H24   50  -0.069  -0.268   0.024
    1UNL    H25   51  -0.318  -0.359  -0.042
    1UNL    H26   52  -0.660  -0.286   0.051
    1UNL    H27   53  -0.639  -0.122  -0.001
    1UNL    H28   54  -0.607  -0.247  -0.118
   0.00000   0.00000   0.00000   0.00000   0.00000   0.00000   0.00000   0.00000   0.00000
Generated with MDTraj, t= 33.0
 54
    1UNL     C1    1  -0.339   0.275   0.087
    1UNL     C2    2  -0.205   0.263   0.015
    1UNL     C3    3  -0.184   0.134  -0.068
    1UNL     C4    4  -0.077   0.147  -0.179
    1UNL     N1    5   0.058   0.111  -0.128
    1UNL     C5    6   0.146   0.227  -0.090
    1UNL     C6    7   0.293   0.179  -0.095
    1UNL     C7    8   0.308   0.043  -0.042
    1UNL     C8    9   0.209  -0.052  -0.026
    1UNL     N2   10   0.254  -0.163   0.038
    1UNL     C9   11   0.391  -0.143   0.071
    1UNL    C10   12   0.488  -0.204   0.157
    1UNL    C11   13   0.606  -0.138   0.174
    1UNL    C12   14   0.633  -0.008   0.126
    1UNL    C13   15   0.542   0.053   0.049
    1UNL    C14   16   0.416  -0.011   0.024
    1UNL    C15   17   0.071  -0.019  -0.058
    1UNL    C16   18  -0.012  -0.009   0.066
    1UNL    C17   19  -0.160   0.011   0.029
    1UNL    C18   20  -0.218  -0.120  -0.033
    1UNL    C19   21  -0.170  -0.254   0.030
    1UNL     O1   22  -0.210  -0.377  -0.032
    1UNL    C20   23  -0.368  -0.116  -0.039
    1UNL     O2   24  -0.416  -0.010  -0.064
    1UNL     O3   25  -0.436  -0.229  -0.010
    1UNL    C21   26  -0.570  -0.202   0.030
    1UNL     H1   27  -0.413   0.258   0.013
    1UNL     H2   28  -0.352   0.191   0.157
    1UNL     H3   29  -0.348   0.368   0.139
    1UNL     H4   30  -0.199   0.362  -0.032
    1UNL     H5   31  -0.118   0.274   0.082
    1UNL     H6   32  -0.283   0.114  -0.112
    1UNL     H7   33  -0.100   0.095  -0.271
    1UNL     H8   34  -0.091   0.255  -0.206
    1UNL     H9   35   0.113   0.255   0.014
    1UNL    H10   36   0.128   0.317  -0.146
    1UNL    H11   37   0.352   0.258  -0.043
    1UNL    H12   38   0.335   0.171  -0.198
    1UNL    H13   39   0.214  -0.233   0.099
    1UNL    H14   40   0.474  -0.292   0.210
    1UNL    H15   41   0.676  -0.197   0.234
    1UNL    H16   42   0.728   0.029   0.134
    1UNL    H17   43   0.554   0.144  -0.005
    1UNL    H18   44   0.035  -0.108  -0.113
    1UNL    H19   45   0.020   0.078   0.120
    1UNL    H20   46   0.012  -0.103   0.129
    1UNL    H21   47  -0.218   0.041   0.119
    1UNL    H22   48  -0.192  -0.107  -0.140
    1UNL    H23   49  -0.206  -0.272   0.134
    1UNL    H24   50  -0.063  -0.250   0.021
    1UNL    H25   51  -0.310  -0.367  -0.059
    1UNL    H26   52  -0.639  -0.294   0.026
    1UNL    H27   53  -0.571  -0.184   0.143
    1UNL    H28   54  -0.612  -0.121  -0.017
   0.00000   0.00000   0.00000   0.00000   0.00000   0.00000   0.00000   0.00000   0.00000
Generated with MDTraj, t= 34.0
 54
    1UNL     C1    1  -0.334   0.241   0.106
    1UNL     C2    2  -0.214   0.256   0.009
    1UNL     C3    3  -0.191   0.131  -0.077
    1UNL     C4    4  -0.076   0.157  -0.182
    1UNL     N1    5   0.067   0.128  -0.143
    1UNL     C5    6   0.161   0.236  -0.110
    1UNL     C6    7   0.304   0.191  -0.107
    1UNL     C7    8   0.325   0.059  -0.041
    1UNL     C8    9   0.220  -0.027  -0.018
    1UNL     N2   10   0.260  -0.136   0.061
    1UNL     C9   11   0.394  -0.121   0.083
    1UNL    C10   12   0.475  -0.198   0.166
    1UNL    C11   13   0.606  -0.160   0.195
    1UNL    C12   14   0.652  -0.043   0.124
    1UNL    C13   15   0.579   0.029   0.043
    1UNL    C14   16   0.440  -0.004   0.019
    1UNL    C15   17   0.079   0.000  -0.062
    1UNL    C16   18  -0.020  -0.003   0.052
    1UNL    C17   19  -0.170  -0.000   0.011
    1UNL    C18   20  -0.233  -0.129  -0.045
    1UNL    C19   21  -0.177  -0.262   0.028
    1UNL     O1   22  -0.219  -0.370  -0.042
    1UNL    C20   23  -0.387  -0.113  -0.028
    1UNL     O2   24  -0.446  -0.015  -0.059
    1UNL     O3   25  -0.444  -0.230   0.020
    1UNL    C21   26  -0.584  -0.220   0.026
    1UNL     H1   27  -0.406   0.176   0.058
    1UNL     H2   28  -0.316   0.185   0.201
    1UNL     H3   29  -0.377   0.330   0.134
    1UNL     H4   30  -0.208   0.346  -0.052
    1UNL     H5   31  -0.129   0.279   0.077
    1UNL     H6   32  -0.284   0.116  -0.139
    1UNL     H7   33  -0.103   0.104  -0.272
    1UNL     H8   34  -0.087   0.261  -0.217
    1UNL     H9   35   0.140   0.274  -0.006
    1UNL    H10   36   0.142   0.321  -0.173
    1UNL    H11   37   0.378   0.258  -0.053
    1UNL    H12   38   0.333   0.194  -0.213
    1UNL    H13   39   0.211  -0.224   0.073
    1UNL    H14   40   0.424  -0.282   0.218
    1UNL    H15   41   0.673  -0.210   0.261
    1UNL    H16   42   0.761  -0.013   0.150
    1UNL    H17   43   0.627   0.118  -0.001
    1UNL    H18   44   0.034  -0.080  -0.123
    1UNL    H19   45   0.010   0.080   0.118
    1UNL    H20   46  -0.005  -0.104   0.100
    1UNL    H21   47  -0.227   0.011   0.106
    1UNL    H22   48  -0.223  -0.137  -0.155
    1UNL    H23   49  -0.226  -0.266   0.128
    1UNL    H24   50  -0.070  -0.272   0.030
    1UNL    H25   51  -0.313  -0.372  -0.041
    1UNL    H26   52  -0.634  -0.321   0.045
    1UNL    H27   53  -0.608  -0.166   0.123
    1UNL    H28   54  -0.624  -0.166  -0.056
   0.00000   0.00000   0.00000   0.00000   0.00000   0.00000   0.00000   0.00000   0.00000
Generated with MDTraj, t= 35.0
 54
    1UNL     C1    1  -0.327   0.263   0.099
    1UNL     C2    2  -0.206   0.257   0.009
    1UNL     C3    3  -0.193   0.125  -0.070
    1UNL     C4    4  -0.083   0.137  -0.172
    1UNL     N1    5   0.053   0.117  -0.124
    1UNL     C5    6   0.157   0.219  -0.137
    1UNL     C6    7   0.305   0.181  -0.110
    1UNL     C7    8   0.318   0.066  -0.007
    1UNL     C8    9   0.217  -0.028  -0.001
    1UNL     N2   10   0.257  -0.135   0.075
    1UNL     C9   11   0.395  -0.107   0.111
    1UNL    C10   12   0.493  -0.199   0.158
    1UNL    C11   13   0.624  -0.165   0.154
    1UNL    C12   14   0.665  -0.041   0.102
    1UNL    C13   15   0.568   0.048   0.055
    1UNL    C14   16   0.434   0.012   0.049
    1UNL    C15   17   0.072  -0.009  -0.048
    1UNL    C16   18  -0.022  -0.013   0.070
    1UNL    C17   19  -0.171   0.001   0.016
    1UNL    C18   20  -0.235  -0.119  -0.054
    1UNL    C19   21  -0.176  -0.258  -0.008
    1UNL     O1   22  -0.240  -0.379  -0.055
    1UNL    C20   23  -0.385  -0.113  -0.033
    1UNL     O2   24  -0.434  -0.010  -0.059
    1UNL     O3   25  -0.443  -0.228   0.022
    1UNL    C21   26  -0.579  -0.220   0.021
    1UNL     H1   27  -0.414   0.228   0.044
    1UNL     H2   28  -0.332   0.210   0.195
    1UNL     H3   29  -0.339   0.364   0.122
    1UNL     H4   30  -0.211   0.344  -0.055
    1UNL     H5   31  -0.106   0.268   0.054
    1UNL     H6   32  -0.286   0.108  -0.133
    1UNL     H7   33  -0.099   0.065  -0.251
    1UNL     H8   34  -0.096   0.230  -0.232
    1UNL     H9   35   0.124   0.308  -0.079
    1UNL    H10   36   0.163   0.256  -0.237
    1UNL    H11   37   0.348   0.280  -0.075
    1UNL    H12   38   0.369   0.153  -0.193
    1UNL    H13   39   0.203  -0.221   0.081
    1UNL    H14   40   0.468  -0.298   0.188
    1UNL    H15   41   0.708  -0.227   0.192
    1UNL    H16   42   0.764  -0.013   0.113
    1UNL    H17   43   0.584   0.148   0.028
    1UNL    H18   44   0.042  -0.084  -0.123
    1UNL    H19   45  -0.005   0.078   0.131
    1UNL    H20   46   0.006  -0.107   0.124
    1UNL    H21   47  -0.234   0.012   0.108
    1UNL    H22   48  -0.212  -0.119  -0.163
    1UNL    H23   49  -0.172  -0.271   0.102
    1UNL    H24   50  -0.079  -0.259  -0.052
    1UNL    H25   51  -0.340  -0.366  -0.047
    1UNL    H26   52  -0.619  -0.257   0.119
    1UNL    H27   53  -0.609  -0.114   0.015
    1UNL    H28   54  -0.615  -0.272  -0.070
   0.00000   0.00000   0.00000   0.00000   0.00000   0.00000   0.00000   0.00000   0.00000
Generated with MDTraj, t= 36.0
 54
    1UNL     C1    1  -0.301   0.297   0.077
    1UNL     C2    2  -0.172   0.262   0.009
    1UNL     C3    3  -0.188   0.123  -0.064
    1UNL     C4    4  -0.083   0.117  -0.172
    1UNL     N1    5   0.054   0.099  -0.116
    1UNL     C5    6   0.137   0.214  -0.079
    1UNL     C6    7   0.286   0.176  -0.090
    1UNL     C7    8   0.308   0.047  -0.028
    1UNL     C8    9   0.214  -0.044   0.010
    1UNL     N2   10   0.274  -0.148   0.079
    1UNL     C9   11   0.407  -0.116   0.101
    1UNL    C10   12   0.510  -0.191   0.160
    1UNL    C11   13   0.637  -0.137   0.154
    1UNL    C12   14   0.662  -0.016   0.085
    1UNL    C13   15   0.560   0.057   0.031
    1UNL    C14   16   0.431   0.006   0.034
    1UNL    C15   17   0.069  -0.024  -0.029
    1UNL    C16   18  -0.031  -0.007   0.085
    1UNL    C17   19  -0.179  -0.003   0.030
    1UNL    C18   20  -0.241  -0.124  -0.041
    1UNL    C19   21  -0.190  -0.262   0.018
    1UNL     O1   22  -0.210  -0.361  -0.085
    1UNL    C20   23  -0.393  -0.118  -0.051
    1UNL     O2   24  -0.446  -0.026  -0.101
    1UNL     O3   25  -0.462  -0.226   0.007
    1UNL    C21   26  -0.594  -0.202   0.040
    1UNL     H1   27  -0.367   0.332  -0.004
    1UNL     H2   28  -0.352   0.220   0.129
    1UNL     H3   29  -0.268   0.376   0.141
    1UNL     H4   30  -0.145   0.332  -0.067
    1UNL     H5   31  -0.092   0.259   0.086
    1UNL     H6   32  -0.285   0.135  -0.122
    1UNL     H7   33  -0.103   0.038  -0.241
    1UNL     H8   34  -0.091   0.199  -0.247
    1UNL     H9   35   0.132   0.241   0.029
    1UNL    H10   36   0.109   0.304  -0.132
    1UNL    H11   37   0.366   0.241  -0.038
    1UNL    H12   38   0.310   0.176  -0.194
    1UNL    H13   39   0.209  -0.209   0.127
    1UNL    H14   40   0.484  -0.292   0.182
    1UNL    H15   41   0.707  -0.196   0.202
    1UNL    H16   42   0.757   0.029   0.062
    1UNL    H17   43   0.589   0.152  -0.014
    1UNL    H18   44   0.045  -0.109  -0.093
    1UNL    H19   45  -0.004   0.088   0.143
    1UNL    H20   46  -0.032  -0.102   0.141
    1UNL    H21   47  -0.238   0.025   0.119
    1UNL    H22   48  -0.196  -0.123  -0.143
    1UNL    H23   49  -0.250  -0.287   0.107
    1UNL    H24   50  -0.086  -0.273   0.041
    1UNL    H25   51  -0.306  -0.361  -0.109
    1UNL    H26   52  -0.617  -0.253   0.133
    1UNL    H27   53  -0.610  -0.097   0.044
    1UNL    H28   54  -0.652  -0.251  -0.049
   0.00000   0.00000   0.00000   0.00000   0.00000   0.00000   0.00000   0.00000   0.00000
Generated with MDTraj, t= 37.0
 54
    1UNL     C1    1  -0.317   0.298   0.077
    1UNL     C2    2  -0.176   0.259   0.027
    1UNL     C3    3  -0.186   0.119  -0.055
    1UNL     C4    4  -0.086   0.107  -0.169
    1UNL     N1    5   0.056   0.087  -0.127
    1UNL     C5    6   0.122   0.210  -0.088
    1UNL     C6    7   0.275   0.188  -0.068
    1UNL     C7    8   0.306   0.050  -0.027
    1UNL     C8    9   0.210  -0.045  -0.001
    1UNL     N2   10   0.269  -0.138   0.080
    1UNL     C9   11   0.409  -0.121   0.085
    1UNL    C10   12   0.515  -0.188   0.156
    1UNL    C11   13   0.643  -0.134   0.153
    1UNL    C12   14   0.668  -0.011   0.093
    1UNL    C13   15   0.563   0.056   0.023
    1UNL    C14   16   0.437   0.001   0.020
    1UNL    C15   17   0.065  -0.029  -0.036
    1UNL    C16   18  -0.026  -0.018   0.088
    1UNL    C17   19  -0.171  -0.003   0.049
    1UNL    C18   20  -0.230  -0.124  -0.029
    1UNL    C19   21  -0.185  -0.268   0.011
    1UNL     O1   22  -0.235  -0.377  -0.070
    1UNL    C20   23  -0.379  -0.110  -0.042
    1UNL     O2   24  -0.422  -0.032  -0.124
    1UNL     O3   25  -0.459  -0.194   0.034
    1UNL    C21   26  -0.600  -0.190  -0.002
    1UNL     H1   27  -0.391   0.295  -0.003
    1UNL     H2   28  -0.356   0.243   0.154
    1UNL     H3   29  -0.303   0.399   0.115
    1UNL     H4   30  -0.134   0.338  -0.033
    1UNL     H5   31  -0.109   0.230   0.113
    1UNL     H6   32  -0.290   0.112  -0.099
    1UNL     H7   33  -0.113   0.032  -0.240
    1UNL     H8   34  -0.096   0.200  -0.227
    1UNL     H9   35   0.078   0.248   0.004
    1UNL    H10   36   0.117   0.293  -0.159
    1UNL    H11   37   0.323   0.276  -0.009
    1UNL    H12   38   0.325   0.192  -0.163
    1UNL    H13   39   0.229  -0.231   0.093
    1UNL    H14   40   0.492  -0.276   0.220
    1UNL    H15   41   0.731  -0.193   0.189
    1UNL    H16   42   0.777   0.030   0.102
    1UNL    H17   43   0.577   0.147  -0.034
    1UNL    H18   44   0.037  -0.118  -0.093
    1UNL    H19   45   0.002   0.074   0.152
    1UNL    H20   46  -0.016  -0.110   0.145
    1UNL    H21   47  -0.242   0.003   0.134
    1UNL    H22   48  -0.191  -0.114  -0.133
    1UNL    H23   49  -0.225  -0.298   0.111
    1UNL    H24   50  -0.080  -0.282   0.017
    1UNL    H25   51  -0.329  -0.372  -0.074
    1UNL    H26   52  -0.651  -0.282   0.020
    1UNL    H27   53  -0.639  -0.103   0.041
    1UNL    H28   54  -0.602  -0.178  -0.119
   0.00000   0.00000   0.00000   0.00000   0.00000   0.00000   0.00000   0.00000   0.00000
Generated with MDTraj, t= 38.0
 54
    1UNL     C1    1  -0.339   0.254   0.107
    1UNL     C2    2  -0.201   0.251   0.044
    1UNL     C3    3  -0.198   0.124  -0.056
    1UNL     C4    4  -0.086   0.141  -0.164
    1UNL     N1    5   0.060   0.117  -0.128
    1UNL     C5    6   0.150   0.226  -0.106
    1UNL     C6    7   0.295   0.180  -0.111
    1UNL     C7    8   0.322   0.060  -0.017
    1UNL     C8    9   0.222  -0.027   0.005
    1UNL     N2   10   0.277  -0.145   0.056
    1UNL     C9   11   0.408  -0.123   0.077
    1UNL    C10   12   0.513  -0.203   0.126
    1UNL    C11   13   0.638  -0.150   0.137
    1UNL    C12   14   0.663  -0.011   0.113
    1UNL    C13   15   0.567   0.073   0.061
    1UNL    C14   16   0.439   0.011   0.050
    1UNL    C15   17   0.081  -0.014  -0.048
    1UNL    C16   18  -0.024  -0.022   0.068
    1UNL    C17   19  -0.173  -0.015   0.024
    1UNL    C18   20  -0.234  -0.150  -0.037
    1UNL    C19   21  -0.209  -0.276   0.053
    1UNL     O1   22  -0.259  -0.395   0.005
    1UNL    C20   23  -0.375  -0.125  -0.065
    1UNL     O2   24  -0.404  -0.042  -0.150
    1UNL     O3   25  -0.460  -0.188   0.011
    1UNL    C21   26  -0.598  -0.154  -0.007
    1UNL     H1   27  -0.416   0.253   0.033
    1UNL     H2   28  -0.369   0.184   0.176
    1UNL     H3   29  -0.350   0.347   0.164
    1UNL     H4   30  -0.187   0.334  -0.023
    1UNL     H5   31  -0.121   0.243   0.123
    1UNL     H6   32  -0.299   0.120  -0.105
    1UNL     H7   33  -0.110   0.083  -0.251
    1UNL     H8   34  -0.098   0.247  -0.191
    1UNL     H9   35   0.131   0.281  -0.014
    1UNL    H10   36   0.124   0.300  -0.183
    1UNL    H11   37   0.376   0.257  -0.081
    1UNL    H12   38   0.325   0.161  -0.211
    1UNL    H13   39   0.236  -0.233   0.087
    1UNL    H14   40   0.496  -0.300   0.158
    1UNL    H15   41   0.721  -0.206   0.165
    1UNL    H16   42   0.755   0.028   0.118
    1UNL    H17   43   0.594   0.169   0.020
    1UNL    H18   44   0.058  -0.101  -0.110
    1UNL    H19   45  -0.007   0.068   0.140
    1UNL    H20   46  -0.006  -0.109   0.127
    1UNL    H21   47  -0.247  -0.008   0.107
    1UNL    H22   48  -0.187  -0.157  -0.138
    1UNL    H23   49  -0.259  -0.255   0.152
    1UNL    H24   50  -0.107  -0.293   0.076
    1UNL    H25   51  -0.358  -0.381  -0.011
    1UNL    H26   52  -0.648  -0.221   0.055
    1UNL    H27   53  -0.603  -0.053   0.019
    1UNL    H28   54  -0.633  -0.177  -0.116
   0.00000   0.00000   0.00000   0.00000   0.00000   0.00000   0.00000   0.00000   0.00000
Generated with MDTraj, t= 39.0
 54
    1UNL     C1    1  -0.331   0.211   0.129
    1UNL     C2    2  -0.223   0.236   0.025
    1UNL     C3    3  -0.183   0.109  -0.054
    1UNL     C4    4  -0.081   0.137  -0.175
    1UNL     N1    5   0.058   0.115  -0.127
    1UNL     C5    6   0.132   0.231  -0.061
    1UNL     C6    7   0.284   0.210  -0.064
    1UNL     C7    8   0.314   0.068  -0.027
    1UNL     C8    9   0.219  -0.035  -0.028
    1UNL     N2   10   0.281  -0.148   0.020
    1UNL     C9   11   0.409  -0.121   0.059
    1UNL    C10   12   0.502  -0.191   0.141
    1UNL    C11   13   0.626  -0.144   0.164
    1UNL    C12   14   0.664  -0.023   0.100
    1UNL    C13   15   0.572   0.052   0.035
    1UNL    C14   16   0.438   0.009   0.024
    1UNL    C15   17   0.077  -0.019  -0.062
    1UNL    C16   18  -0.006  -0.022   0.065
    1UNL    C17   19  -0.152  -0.016   0.026
    1UNL    C18   20  -0.219  -0.144  -0.031
    1UNL    C19   21  -0.211  -0.264   0.072
    1UNL     O1   22  -0.295  -0.374   0.045
    1UNL    C20   23  -0.362  -0.121  -0.067
    1UNL     O2   24  -0.380  -0.066  -0.179
    1UNL     O3   25  -0.462  -0.157   0.025
    1UNL    C21   26  -0.591  -0.146  -0.034
    1UNL     H1   27  -0.416   0.157   0.100
    1UNL     H2   28  -0.291   0.170   0.220
    1UNL     H3   29  -0.362   0.310   0.162
    1UNL     H4   30  -0.260   0.312  -0.041
    1UNL     H5   31  -0.130   0.269   0.079
    1UNL     H6   32  -0.279   0.084  -0.106
    1UNL     H7   33  -0.098   0.067  -0.255
    1UNL     H8   34  -0.103   0.240  -0.209
    1UNL     H9   35   0.089   0.245   0.036
    1UNL    H10   36   0.109   0.329  -0.107
    1UNL    H11   37   0.341   0.288  -0.001
    1UNL    H12   38   0.332   0.228  -0.158
    1UNL    H13   39   0.229  -0.229   0.053
    1UNL    H14   40   0.471  -0.284   0.197
    1UNL    H15   41   0.690  -0.188   0.242
    1UNL    H16   42   0.762   0.020   0.127
    1UNL    H17   43   0.601   0.153   0.005
    1UNL    H18   44   0.047  -0.104  -0.124
    1UNL    H19   45   0.025   0.070   0.129
    1UNL    H20   46   0.019  -0.101   0.133
    1UNL    H21   47  -0.217   0.007   0.113
    1UNL    H22   48  -0.158  -0.155  -0.124
    1UNL    H23   49  -0.227  -0.229   0.179
    1UNL    H24   50  -0.109  -0.298   0.067
    1UNL    H25   51  -0.385  -0.343   0.024
    1UNL    H26   52  -0.659  -0.189   0.033
    1UNL    H27   53  -0.596  -0.043  -0.056
    1UNL    H28   54  -0.597  -0.211  -0.130
   0.00000   0.00000   0.00000   0.00000   0.00000   0.00000   0.00000   0.00000   0.00000
Generated with MDTraj, t= 40.0
 54
    1UNL     C1    1  -0.330   0.236   0.124
    1UNL     C2    2  -0.198   0.237   0.036
    1UNL     C3    3  -0.188   0.104  -0.044
    1UNL     C4    4  -0.079   0.131  -0.161
    1UNL     N1    5   0.057   0.114  -0.121
    1UNL     C5    6   0.127   0.231  -0.064
    1UNL     C6    7   0.279   0.209  -0.062
    1UNL     C7    8   0.308   0.065  -0.025
    1UNL     C8    9   0.224  -0.044  -0.023
    1UNL     N2   10   0.285  -0.161   0.021
    1UNL     C9   11   0.414  -0.126   0.054
    1UNL    C10   12   0.517  -0.206   0.108
    1UNL    C11   13   0.632  -0.138   0.133
    1UNL    C12   14   0.651  -0.004   0.111
    1UNL    C13   15   0.552   0.076   0.060
    1UNL    C14   16   0.432   0.015   0.023
    1UNL    C15   17   0.077  -0.021  -0.055
    1UNL    C16   18  -0.006  -0.030   0.071
    1UNL    C17   19  -0.160  -0.020   0.044
    1UNL    C18   20  -0.220  -0.144  -0.016
    1UNL    C19   21  -0.217  -0.260   0.092
    1UNL     O1   22  -0.294  -0.366   0.043
    1UNL    C20   23  -0.363  -0.131  -0.076
    1UNL     O2   24  -0.373  -0.129  -0.201
    1UNL     O3   25  -0.464  -0.131   0.011
    1UNL    C21   26  -0.589  -0.114  -0.048
    1UNL     H1   27  -0.416   0.245   0.069
    1UNL     H2   28  -0.342   0.149   0.192
    1UNL     H3   29  -0.326   0.318   0.192
    1UNL     H4   30  -0.202   0.318  -0.035
    1UNL     H5   31  -0.110   0.253   0.103
    1UNL     H6   32  -0.282   0.089  -0.102
    1UNL     H7   33  -0.099   0.057  -0.237
    1UNL     H8   34  -0.088   0.231  -0.208
    1UNL     H9   35   0.100   0.237   0.038
    1UNL    H10   36   0.096   0.325  -0.114
    1UNL    H11   37   0.338   0.286  -0.003
    1UNL    H12   38   0.310   0.231  -0.163
    1UNL    H13   39   0.250  -0.255   0.002
    1UNL    H14   40   0.499  -0.309   0.114
    1UNL    H15   41   0.720  -0.185   0.179
    1UNL    H16   42   0.745   0.040   0.160
    1UNL    H17   43   0.548   0.183   0.054
    1UNL    H18   44   0.053  -0.105  -0.122
    1UNL    H19   45   0.033   0.034   0.157
    1UNL    H20   46   0.013  -0.127   0.114
    1UNL    H21   47  -0.217  -0.003   0.138
    1UNL    H22   48  -0.144  -0.184  -0.087
    1UNL    H23   49  -0.276  -0.222   0.180
    1UNL    H24   50  -0.121  -0.293   0.133
    1UNL    H25   51  -0.388  -0.342   0.017
    1UNL    H26   52  -0.657  -0.121   0.033
    1UNL    H27   53  -0.583  -0.019  -0.097
    1UNL    H28   54  -0.608  -0.202  -0.121
   0.00000   0.00000   0.00000   0.00000   0.00000   0.00000   0.00000   0.00000   0.00000
Generated with MDTraj, t= 41.0
 54
    1UNL     C1    1  -0.331   0.272   0.108
    1UNL     C2    2  -0.196   0.234   0.043
    1UNL     C3    3  -0.196   0.094  -0.033
    1UNL     C4    4  -0.095   0.101  -0.150
    1UNL     N1    5   0.045   0.091  -0.118
    1UNL     C5    6   0.114   0.219  -0.084
    1UNL     C6    7   0.269   0.207  -0.053
    1UNL     C7    8   0.307   0.072   0.002
    1UNL     C8    9   0.226  -0.040  -0.010
    1UNL     N2   10   0.283  -0.157   0.031
    1UNL     C9   11   0.418  -0.127   0.050
    1UNL    C10   12   0.535  -0.200   0.072
    1UNL    C11   13   0.651  -0.133   0.103
    1UNL    C12   14   0.660   0.008   0.113
    1UNL    C13   15   0.557   0.084   0.077
    1UNL    C14   16   0.433   0.019   0.040
    1UNL    C15   17   0.078  -0.036  -0.043
    1UNL    C16   18  -0.011  -0.051   0.078
    1UNL    C17   19  -0.163  -0.032   0.052
    1UNL    C18   20  -0.229  -0.155  -0.009
    1UNL    C19   21  -0.249  -0.267   0.094
    1UNL     O1   22  -0.257  -0.395   0.036
    1UNL    C20   23  -0.356  -0.131  -0.077
    1UNL     O2   24  -0.370  -0.142  -0.201
    1UNL     O3   25  -0.464  -0.087   0.002
    1UNL    C21   26  -0.590  -0.061  -0.068
    1UNL     H1   27  -0.414   0.284   0.046
    1UNL     H2   28  -0.360   0.202   0.190
    1UNL     H3   29  -0.319   0.362   0.161
    1UNL     H4   30  -0.165   0.312  -0.025
    1UNL     H5   31  -0.114   0.228   0.119
    1UNL     H6   32  -0.295   0.094  -0.082
    1UNL     H7   33  -0.111   0.030  -0.232
    1UNL     H8   34  -0.112   0.199  -0.199
    1UNL     H9   35   0.067   0.264  -0.003
    1UNL    H10   36   0.109   0.285  -0.174
    1UNL    H11   37   0.288   0.288   0.022
    1UNL    H12   38   0.331   0.243  -0.135
    1UNL    H13   39   0.230  -0.243   0.044
    1UNL    H14   40   0.543  -0.307   0.045
    1UNL    H15   41   0.740  -0.189   0.108
    1UNL    H16   42   0.742   0.062   0.128
    1UNL    H17   43   0.568   0.191   0.084
    1UNL    H18   44   0.064  -0.115  -0.119
    1UNL    H19   45   0.014   0.017   0.161
    1UNL    H20   46   0.007  -0.148   0.127
    1UNL    H21   47  -0.207  -0.018   0.153
    1UNL    H22   48  -0.153  -0.204  -0.074
    1UNL    H23   49  -0.336  -0.238   0.160
    1UNL    H24   50  -0.165  -0.268   0.162
    1UNL    H25   51  -0.332  -0.400  -0.035
    1UNL    H26   52  -0.659  -0.024   0.008
    1UNL    H27   53  -0.573   0.013  -0.149
    1UNL    H28   54  -0.615  -0.162  -0.109
   0.00000   0.00000   0.00000   0.00000   0.00000   0.00000   0.00000   0.00000   0.00000
Generated with MDTraj, t= 42.0
 54
    1UNL     C1    1  -0.340   0.255   0.107
    1UNL     C2    2  -0.209   0.232   0.031
    1UNL     C3    3  -0.196   0.092  -0.043
    1UNL     C4    4  -0.091   0.087  -0.160
    1UNL     N1    5   0.047   0.080  -0.114
    1UNL     C5    6   0.108   0.207  -0.055
    1UNL     C6    7   0.255   0.196  -0.009
    1UNL     C7    8   0.296   0.057   0.008
    1UNL     C8    9   0.212  -0.053   0.011
    1UNL     N2   10   0.296  -0.162   0.048
    1UNL     C9   11   0.428  -0.117   0.052
    1UNL    C10   12   0.539  -0.192   0.088
    1UNL    C11   13   0.655  -0.119   0.105
    1UNL    C12   14   0.662   0.014   0.067
    1UNL    C13   15   0.551   0.085   0.025
    1UNL    C14   16   0.430   0.017   0.029
    1UNL    C15   17   0.068  -0.046  -0.023
    1UNL    C16   18  -0.021  -0.037   0.099
    1UNL    C17   19  -0.169  -0.029   0.059
    1UNL    C18   20  -0.223  -0.153  -0.011
    1UNL    C19   21  -0.230  -0.276   0.076
    1UNL     O1   22  -0.261  -0.394   0.017
    1UNL    C20   23  -0.359  -0.127  -0.074
    1UNL     O2   24  -0.373  -0.167  -0.187
    1UNL     O3   25  -0.450  -0.054  -0.008
    1UNL    C21   26  -0.564  -0.019  -0.084
    1UNL     H1   27  -0.424   0.291   0.049
    1UNL     H2   28  -0.362   0.170   0.174
    1UNL     H3   29  -0.313   0.329   0.175
    1UNL     H4   30  -0.204   0.314  -0.039
    1UNL     H5   31  -0.116   0.240   0.093
    1UNL     H6   32  -0.294   0.090  -0.092
    1UNL     H7   33  -0.113   0.003  -0.228
    1UNL     H8   34  -0.090   0.173  -0.231
    1UNL     H9   35   0.048   0.243   0.026
    1UNL    H10   36   0.100   0.284  -0.135
    1UNL    H11   37   0.275   0.260   0.079
    1UNL    H12   38   0.322   0.246  -0.081
    1UNL    H13   39   0.264  -0.258   0.066
    1UNL    H14   40   0.548  -0.295   0.116
    1UNL    H15   41   0.754  -0.170   0.125
    1UNL    H16   42   0.770   0.057   0.064
    1UNL    H17   43   0.553   0.186  -0.012
    1UNL    H18   44   0.048  -0.138  -0.080
    1UNL    H19   45   0.003   0.047   0.161
    1UNL    H20   46  -0.010  -0.124   0.168
    1UNL    H21   47  -0.229  -0.010   0.150
    1UNL    H22   48  -0.155  -0.173  -0.097
    1UNL    H23   49  -0.299  -0.254   0.161
    1UNL    H24   50  -0.135  -0.282   0.128
    1UNL    H25   51  -0.342  -0.376  -0.043
    1UNL    H26   52  -0.629   0.036  -0.011
    1UNL    H27   53  -0.539   0.047  -0.174
    1UNL    H28   54  -0.600  -0.115  -0.118
   0.00000   0.00000   0.00000   0.00000   0.00000   0.00000   0.00000   0.00000   0.00000
Generated with MDTraj, t= 43.0
 54
    1UNL     C1    1  -0.370   0.231   0.097
    1UNL     C2    2  -0.217   0.225   0.050
    1UNL     C3    3  -0.197   0.098  -0.041
    1UNL     C4    4  -0.084   0.121  -0.145
    1UNL     N1    5   0.052   0.107  -0.084
    1UNL     C5    6   0.134   0.229  -0.044
    1UNL     C6    7   0.276   0.197  -0.063
    1UNL     C7    8   0.311   0.074   0.014
    1UNL     C8    9   0.220  -0.024   0.038
    1UNL     N2   10   0.287  -0.143   0.069
    1UNL     C9   11   0.422  -0.115   0.082
    1UNL    C10   12   0.532  -0.194   0.094
    1UNL    C11   13   0.661  -0.143   0.076
    1UNL    C12   14   0.677  -0.006   0.046
    1UNL    C13   15   0.569   0.077   0.026
    1UNL    C14   16   0.437   0.021   0.052
    1UNL    C15   17   0.080  -0.026  -0.019
    1UNL    C16   18  -0.024  -0.035   0.092
    1UNL    C17   19  -0.171  -0.030   0.048
    1UNL    C18   20  -0.222  -0.159  -0.026
    1UNL    C19   21  -0.220  -0.288   0.058
    1UNL     O1   22  -0.292  -0.393  -0.002
    1UNL    C20   23  -0.371  -0.141  -0.075
    1UNL     O2   24  -0.410  -0.223  -0.153
    1UNL     O3   25  -0.440  -0.031  -0.027
    1UNL    C21   26  -0.562  -0.033  -0.090
    1UNL     H1   27  -0.443   0.221   0.016
    1UNL     H2   28  -0.383   0.170   0.186
    1UNL     H3   29  -0.384   0.325   0.139
    1UNL     H4   30  -0.192   0.310  -0.012
    1UNL     H5   31  -0.144   0.232   0.135
    1UNL     H6   32  -0.288   0.098  -0.103
    1UNL     H7   33  -0.077   0.052  -0.230
    1UNL     H8   34  -0.096   0.221  -0.192
    1UNL     H9   35   0.112   0.251   0.061
    1UNL    H10   36   0.099   0.314  -0.105
    1UNL    H11   37   0.350   0.278  -0.056
    1UNL    H12   38   0.291   0.174  -0.171
    1UNL    H13   39   0.246  -0.233   0.040
    1UNL    H14   40   0.515  -0.293   0.129
    1UNL    H15   41   0.747  -0.195   0.095
    1UNL    H16   42   0.778   0.033   0.039
    1UNL    H17   43   0.586   0.179  -0.011
    1UNL    H18   44   0.075  -0.107  -0.095
    1UNL    H19   45  -0.013   0.047   0.154
    1UNL    H20   46  -0.009  -0.123   0.161
    1UNL    H21   47  -0.240  -0.026   0.134
    1UNL    H22   48  -0.173  -0.171  -0.125
    1UNL    H23   49  -0.253  -0.279   0.163
    1UNL    H24   50  -0.119  -0.323   0.078
    1UNL    H25   51  -0.376  -0.368  -0.036
    1UNL    H26   52  -0.629   0.046  -0.043
    1UNL    H27   53  -0.553  -0.013  -0.204
    1UNL    H28   54  -0.594  -0.132  -0.076
   0.00000   0.00000   0.00000   0.00000   0.00000   0.00000   0.00000   0.00000   0.00000
Generated with MDTraj, t= 44.0
 54
    1UNL     C1    1  -0.363   0.209   0.112
    1UNL     C2    2  -0.222   0.216   0.057
    1UNL     C3    3  -0.197   0.097  -0.052
    1UNL     C4    4  -0.080   0.141  -0.149
    1UNL     N1    5   0.053   0.138  -0.080
    1UNL     C5    6   0.141   0.260  -0.056
    1UNL     C6    7   0.294   0.222  -0.045
    1UNL     C7    8   0.324   0.081   0.009
    1UNL     C8    9   0.224  -0.017   0.026
    1UNL     N2   10   0.279  -0.131   0.073
    1UNL     C9   11   0.415  -0.113   0.079
    1UNL    C10   12   0.522  -0.200   0.119
    1UNL    C11   13   0.650  -0.164   0.105
    1UNL    C12   14   0.685  -0.037   0.042
    1UNL    C13   15   0.586   0.051   0.001
    1UNL    C14   16   0.451   0.020   0.029
    1UNL    C15   17   0.081   0.002  -0.020
    1UNL    C16   18  -0.029  -0.041   0.085
    1UNL    C17   19  -0.175  -0.027   0.025
    1UNL    C18   20  -0.235  -0.157  -0.038
    1UNL    C19   21  -0.232  -0.273   0.063
    1UNL     O1   22  -0.238  -0.398  -0.006
    1UNL    C20   23  -0.383  -0.150  -0.083
    1UNL     O2   24  -0.435  -0.244  -0.134
    1UNL     O3   25  -0.448  -0.035  -0.037
    1UNL    C21   26  -0.585  -0.048  -0.074
    1UNL     H1   27  -0.442   0.230   0.039
    1UNL     H2   28  -0.379   0.128   0.175
    1UNL     H3   29  -0.375   0.282   0.189
    1UNL     H4   30  -0.203   0.316   0.020
    1UNL     H5   31  -0.142   0.202   0.134
    1UNL     H6   32  -0.285   0.088  -0.115
    1UNL     H7   33  -0.073   0.067  -0.231
    1UNL     H8   34  -0.090   0.242  -0.194
    1UNL     H9   35   0.101   0.309   0.036
    1UNL    H10   36   0.124   0.328  -0.140
    1UNL    H11   37   0.344   0.301   0.010
    1UNL    H12   38   0.344   0.238  -0.144
    1UNL    H13   39   0.232  -0.216   0.106
    1UNL    H14   40   0.504  -0.292   0.176
    1UNL    H15   41   0.714  -0.229   0.171
    1UNL    H16   42   0.782  -0.010   0.038
    1UNL    H17   43   0.602   0.142  -0.050
    1UNL    H18   44   0.074  -0.065  -0.109
    1UNL    H19   45  -0.023   0.014   0.173
    1UNL    H20   46  -0.017  -0.147   0.118
    1UNL    H21   47  -0.247  -0.015   0.107
    1UNL    H22   48  -0.181  -0.178  -0.133
    1UNL    H23   49  -0.309  -0.267   0.143
    1UNL    H24   50  -0.148  -0.276   0.132
    1UNL    H25   51  -0.303  -0.396  -0.088
    1UNL    H26   52  -0.632   0.056  -0.084
    1UNL    H27   53  -0.597  -0.099  -0.176
    1UNL    H28   54  -0.635  -0.107  -0.006
   0.00000   0.00000   0.00000   0.00000   0.00000   0.00000   0.00000   0.00000   0.00000
Generated with MDTraj, t= 45.0
 54
    1UNL     C1    1  -0.359   0.227   0.132
    1UNL     C2    2  -0.237   0.246   0.045
    1UNL     C3    3  -0.207   0.114  -0.032
    1UNL     C4    4  -0.099   0.143  -0.146
    1UNL     N1    5   0.039   0.114  -0.102
    1UNL     C5    6   0.127   0.225  -0.045
    1UNL     C6    7   0.277   0.194  -0.081
    1UNL     C7    8   0.305   0.057  -0.028
    1UNL     C8    9   0.209  -0.035   0.001
    1UNL     N2   10   0.270  -0.141   0.067
    1UNL     C9   11   0.404  -0.127   0.080
    1UNL    C10   12   0.510  -0.210   0.124
    1UNL    C11   13   0.639  -0.155   0.119
    1UNL    C12   14   0.663  -0.025   0.071
    1UNL    C13   15   0.559   0.057   0.035
    1UNL    C14   16   0.429   0.001   0.026
    1UNL    C15   17   0.065  -0.013  -0.035
    1UNL    C16   18  -0.021  -0.017   0.093
    1UNL    C17   19  -0.173  -0.010   0.049
    1UNL    C18   20  -0.209  -0.136  -0.036
    1UNL    C19   21  -0.168  -0.268   0.034
    1UNL     O1   22  -0.219  -0.382  -0.026
    1UNL    C20   23  -0.357  -0.140  -0.071
    1UNL     O2   24  -0.399  -0.229  -0.131
    1UNL     O3   25  -0.429  -0.040  -0.022
    1UNL    C21   26  -0.561  -0.064  -0.070
    1UNL     H1   27  -0.447   0.192   0.078
    1UNL     H2   28  -0.340   0.187   0.226
    1UNL     H3   29  -0.393   0.325   0.163
    1UNL     H4   30  -0.249   0.322  -0.031
    1UNL     H5   31  -0.157   0.290   0.111
    1UNL     H6   32  -0.295   0.101  -0.094
    1UNL     H7   33  -0.117   0.074  -0.231
    1UNL     H8   34  -0.105   0.248  -0.180
    1UNL     H9   35   0.120   0.217   0.068
    1UNL    H10   36   0.087   0.318  -0.081
    1UNL    H11   37   0.348   0.263  -0.039
    1UNL    H12   38   0.291   0.205  -0.193
    1UNL    H13   39   0.220  -0.217   0.115
    1UNL    H14   40   0.465  -0.303   0.154
    1UNL    H15   41   0.726  -0.212   0.137
    1UNL    H16   42   0.776   0.008   0.061
    1UNL    H17   43   0.581   0.152  -0.014
    1UNL    H18   44   0.040  -0.094  -0.107
    1UNL    H19   45   0.004   0.061   0.160
    1UNL    H20   46   0.003  -0.109   0.148
    1UNL    H21   47  -0.236  -0.015   0.138
    1UNL    H22   48  -0.149  -0.133  -0.130
    1UNL    H23   49  -0.202  -0.262   0.137
    1UNL    H24   50  -0.061  -0.273   0.053
    1UNL    H25   51  -0.305  -0.359  -0.055
    1UNL    H26   52  -0.622   0.029  -0.055
    1UNL    H27   53  -0.567  -0.076  -0.182
    1UNL    H28   54  -0.607  -0.143  -0.028
   0.00000   0.00000   0.00000   0.00000   0.00000   0.00000   0.00000   0.00000   0.00000
Generated with MDTraj, t= 46.0
 54
    1UNL     C1    1  -0.323   0.252   0.145
    1UNL     C2    2  -0.200   0.246   0.044
    1UNL     C3    3  -0.202   0.115  -0.029
    1UNL     C4    4  -0.107   0.125  -0.150
    1UNL     N1    5   0.035   0.110  -0.118
    1UNL     C5    6   0.131   0.226  -0.110
    1UNL     C6    7   0.275   0.195  -0.071
    1UNL     C7    8   0.303   0.055  -0.025
    1UNL     C8    9   0.203  -0.032  -0.006
    1UNL     N2   10   0.256  -0.151   0.046
    1UNL     C9   11   0.396  -0.127   0.063
    1UNL    C10   12   0.495  -0.210   0.126
    1UNL    C11   13   0.618  -0.154   0.136
    1UNL    C12   14   0.649  -0.017   0.114
    1UNL    C13   15   0.545   0.061   0.053
    1UNL    C14   16   0.427   0.000   0.016
    1UNL    C15   17   0.063  -0.012  -0.038
    1UNL    C16   18  -0.025  -0.009   0.089
    1UNL    C17   19  -0.172  -0.009   0.055
    1UNL    C18   20  -0.217  -0.136  -0.023
    1UNL    C19   21  -0.181  -0.273   0.041
    1UNL     O1   22  -0.160  -0.374  -0.052
    1UNL    C20   23  -0.359  -0.150  -0.061
    1UNL     O2   24  -0.396  -0.214  -0.154
    1UNL     O3   25  -0.446  -0.066   0.016
    1UNL    C21   26  -0.572  -0.066  -0.048
    1UNL     H1   27  -0.413   0.287   0.097
    1UNL     H2   28  -0.330   0.166   0.206
    1UNL     H3   29  -0.309   0.327   0.222
    1UNL     H4   30  -0.201   0.341  -0.007
    1UNL     H5   31  -0.103   0.247   0.097
    1UNL     H6   32  -0.299   0.104  -0.076
    1UNL     H7   33  -0.132   0.042  -0.219
    1UNL     H8   34  -0.124   0.222  -0.200
    1UNL     H9   35   0.084   0.289  -0.027
    1UNL    H10   36   0.129   0.276  -0.204
    1UNL    H11   37   0.306   0.267   0.002
    1UNL    H12   38   0.347   0.209  -0.159
    1UNL    H13   39   0.213  -0.244   0.053
    1UNL    H14   40   0.482  -0.317   0.151
    1UNL    H15   41   0.701  -0.224   0.161
    1UNL    H16   42   0.745   0.023   0.114
    1UNL    H17   43   0.554   0.167   0.040
    1UNL    H18   44   0.030  -0.098  -0.100
    1UNL    H19   45  -0.002   0.079   0.148
    1UNL    H20   46   0.004  -0.088   0.156
    1UNL    H21   47  -0.220  -0.014   0.153
    1UNL    H22   48  -0.156  -0.136  -0.117
    1UNL    H23   49  -0.265  -0.291   0.109
    1UNL    H24   50  -0.103  -0.262   0.115
    1UNL    H25   51  -0.226  -0.351  -0.128
    1UNL    H26   52  -0.654  -0.041   0.018
    1UNL    H27   53  -0.572   0.016  -0.122
    1UNL    H28   54  -0.598  -0.156  -0.089
   0.00000   0.00000   0.00000   0.00000   0.00000   0.00000   0.00000   0.00000   0.00000
Generated with MDTraj, t= 47.0
 54
    1UNL     C1    1  -0.278   0.267   0.151
    1UNL     C2    2  -0.168   0.244   0.050
    1UNL     C3    3  -0.195   0.120  -0.040
    1UNL     C4    4  -0.099   0.119  -0.164
    1UNL     N1    5   0.045   0.106  -0.134
    1UNL     C5    6   0.117   0.226  -0.095
    1UNL     C6    7   0.266   0.199  -0.074
    1UNL     C7    8   0.299   0.069  -0.011
    1UNL     C8    9   0.216  -0.038  -0.025
    1UNL     N2   10   0.269  -0.155   0.029
    1UNL     C9   11   0.395  -0.123   0.075
    1UNL    C10   12   0.495  -0.200   0.134
    1UNL    C11   13   0.621  -0.150   0.158
    1UNL    C12   14   0.644  -0.014   0.111
    1UNL    C13   15   0.547   0.069   0.064
    1UNL    C14   16   0.422   0.012   0.043
    1UNL    C15   17   0.067  -0.022  -0.053
    1UNL    C16   18  -0.021  -0.021   0.074
    1UNL    C17   19  -0.168  -0.013   0.036
    1UNL    C18   20  -0.224  -0.138  -0.043
    1UNL    C19   21  -0.188  -0.270   0.031
    1UNL     O1   22  -0.182  -0.381  -0.051
    1UNL    C20   23  -0.377  -0.136  -0.068
    1UNL     O2   24  -0.416  -0.186  -0.169
    1UNL     O3   25  -0.457  -0.081   0.026
    1UNL    C21   26  -0.586  -0.107  -0.004
    1UNL     H1   27  -0.368   0.261   0.097
    1UNL     H2   28  -0.274   0.206   0.240
    1UNL     H3   29  -0.293   0.367   0.190
    1UNL     H4   30  -0.164   0.330  -0.016
    1UNL     H5   31  -0.073   0.252   0.106
    1UNL     H6   32  -0.294   0.137  -0.080
    1UNL     H7   33  -0.126   0.034  -0.230
    1UNL     H8   34  -0.108   0.206  -0.231
    1UNL     H9   35   0.073   0.257   0.006
    1UNL    H10   36   0.105   0.298  -0.172
    1UNL    H11   37   0.308   0.269  -0.004
    1UNL    H12   38   0.324   0.210  -0.172
    1UNL    H13   39   0.217  -0.243   0.038
    1UNL    H14   40   0.464  -0.294   0.170
    1UNL    H15   41   0.693  -0.205   0.211
    1UNL    H16   42   0.743   0.029   0.121
    1UNL    H17   43   0.583   0.171   0.056
    1UNL    H18   44   0.023  -0.102  -0.116
    1UNL    H19   45   0.002   0.065   0.137
    1UNL    H20   46  -0.004  -0.105   0.131
    1UNL    H21   47  -0.216  -0.022   0.135
    1UNL    H22   48  -0.172  -0.159  -0.141
    1UNL    H23   49  -0.245  -0.281   0.124
    1UNL    H24   50  -0.089  -0.264   0.074
    1UNL    H25   51  -0.261  -0.401  -0.107
    1UNL    H26   52  -0.653  -0.057   0.063
    1UNL    H27   53  -0.607  -0.068  -0.103
    1UNL    H28   54  -0.611  -0.210   0.009
   0.00000   0.00000   0.00000   0.00000   0.00000   0.00000   0.00000   0.00000   0.00000
Generated with MDTraj, t= 48.0
 54
    1UNL     C1    1  -0.309   0.240   0.144
    1UNL     C2    2  -0.204   0.244   0.034
    1UNL     C3    3  -0.189   0.119  -0.058
    1UNL     C4    4  -0.084   0.129  -0.164
    1UNL     N1    5   0.052   0.110  -0.119
    1UNL     C5    6   0.134   0.227  -0.073
    1UNL     C6    7   0.282   0.192  -0.097
    1UNL     C7    8   0.312   0.059  -0.031
    1UNL     C8    9   0.222  -0.045  -0.013
    1UNL     N2   10   0.282  -0.160   0.040
    1UNL     C9   11   0.410  -0.119   0.077
    1UNL    C10   12   0.518  -0.194   0.141
    1UNL    C11   13   0.630  -0.125   0.173
    1UNL    C12   14   0.651   0.004   0.131
    1UNL    C13   15   0.553   0.067   0.058
    1UNL    C14   16   0.428   0.014   0.030
    1UNL    C15   17   0.072  -0.020  -0.046
    1UNL    C16   18  -0.019  -0.026   0.073
    1UNL    C17   19  -0.163  -0.014   0.026
    1UNL    C18   20  -0.220  -0.135  -0.061
    1UNL    C19   21  -0.196  -0.282  -0.004
    1UNL     O1   22  -0.284  -0.381  -0.055
    1UNL    C20   23  -0.371  -0.125  -0.069
    1UNL     O2   24  -0.425  -0.169  -0.171
    1UNL     O3   25  -0.439  -0.093   0.047
    1UNL    C21   26  -0.570  -0.116   0.030
    1UNL     H1   27  -0.402   0.224   0.101
    1UNL     H2   28  -0.279   0.170   0.225
    1UNL     H3   29  -0.323   0.335   0.191
    1UNL     H4   30  -0.212   0.339  -0.017
    1UNL     H5   31  -0.105   0.253   0.077
    1UNL     H6   32  -0.288   0.122  -0.101
    1UNL     H7   33  -0.097   0.061  -0.250
    1UNL     H8   34  -0.085   0.226  -0.214
    1UNL     H9   35   0.117   0.245   0.037
    1UNL    H10   36   0.109   0.310  -0.134
    1UNL    H11   37   0.345   0.269  -0.058
    1UNL    H12   38   0.307   0.175  -0.207
    1UNL    H13   39   0.233  -0.239   0.081
    1UNL    H14   40   0.490  -0.294   0.178
    1UNL    H15   41   0.705  -0.173   0.239
    1UNL    H16   42   0.747   0.047   0.174
    1UNL    H17   43   0.552   0.165   0.013
    1UNL    H18   44   0.036  -0.100  -0.114
    1UNL    H19   45   0.003   0.062   0.136
    1UNL    H20   46  -0.010  -0.116   0.124
    1UNL    H21   47  -0.227  -0.013   0.114
    1UNL    H22   48  -0.181  -0.127  -0.166
    1UNL    H23   49  -0.189  -0.286   0.106
    1UNL    H24   50  -0.091  -0.306  -0.024
    1UNL    H25   51  -0.363  -0.341  -0.087
    1UNL    H26   52  -0.627  -0.061   0.104
    1UNL    H27   53  -0.600  -0.081  -0.068
    1UNL    H28   54  -0.600  -0.220   0.055
   0.00000   0.00000   0.00000   0.00000   0.00000   0.00000   0.00000   0.00000   0.00000
Generated with MDTraj, t= 49.0
 54
    1UNL     C1    1  -0.345   0.192   0.121
    1UNL     C2    2  -0.206   0.214   0.051
    1UNL     C3    3  -0.182   0.105  -0.056
    1UNL     C4    4  -0.078   0.137  -0.169
    1UNL     N1    5   0.065   0.112  -0.133
    1UNL     C5    6   0.144   0.234  -0.085
    1UNL     C6    7   0.295   0.199  -0.083
    1UNL     C7    8   0.324   0.067  -0.030
    1UNL     C8    9   0.230  -0.032  -0.009
    1UNL     N2   10   0.274  -0.132   0.071
    1UNL     C9   11   0.410  -0.105   0.099
    1UNL    C10   12   0.507  -0.178   0.169
    1UNL    C11   13   0.635  -0.126   0.176
    1UNL    C12   14   0.667   0.003   0.119
    1UNL    C13   15   0.578   0.065   0.043
    1UNL    C14   16   0.442   0.020   0.031
    1UNL    C15   17   0.093  -0.023  -0.072
    1UNL    C16   18  -0.006  -0.059   0.035
    1UNL    C17   19  -0.158  -0.031   0.011
    1UNL    C18   20  -0.237  -0.153  -0.058
    1UNL    C19   21  -0.219  -0.292  -0.000
    1UNL     O1   22  -0.288  -0.388  -0.072
    1UNL    C20   23  -0.383  -0.126  -0.055
    1UNL     O2   24  -0.450  -0.142  -0.161
    1UNL     O3   25  -0.441  -0.086   0.064
    1UNL    C21   26  -0.584  -0.074   0.049
    1UNL     H1   27  -0.413   0.205   0.042
    1UNL     H2   28  -0.356   0.094   0.175
    1UNL     H3   29  -0.364   0.272   0.186
    1UNL     H4   30  -0.199   0.312   0.004
    1UNL     H5   31  -0.129   0.216   0.124
    1UNL     H6   32  -0.283   0.097  -0.098
    1UNL     H7   33  -0.106   0.082  -0.261
    1UNL     H8   34  -0.075   0.239  -0.207
    1UNL     H9   35   0.107   0.254   0.018
    1UNL    H10   36   0.129   0.316  -0.152
    1UNL    H11   37   0.357   0.266  -0.025
    1UNL    H12   38   0.333   0.198  -0.190
    1UNL    H13   39   0.234  -0.225   0.072
    1UNL    H14   40   0.484  -0.276   0.200
    1UNL    H15   41   0.711  -0.178   0.232
    1UNL    H16   42   0.760   0.043   0.115
    1UNL    H17   43   0.622   0.147  -0.011
    1UNL    H18   44   0.091  -0.097  -0.155
    1UNL    H19   45   0.026   0.003   0.121
    1UNL    H20   46   0.008  -0.163   0.050
    1UNL    H21   47  -0.208  -0.029   0.107
    1UNL    H22   48  -0.207  -0.150  -0.165
    1UNL    H23   49  -0.242  -0.282   0.109
    1UNL    H24   50  -0.112  -0.319   0.017
    1UNL    H25   51  -0.381  -0.348  -0.091
    1UNL    H26   52  -0.640  -0.089   0.141
    1UNL    H27   53  -0.607   0.021   0.003
    1UNL    H28   54  -0.626  -0.156  -0.017
   0.00000   0.00000   0.00000   0.00000   0.00000   0.00000   0.00000   0.00000   0.00000
Generated with MDTraj, t= 50.0
 54
    1UNL     C1    1  -0.324   0.225   0.120
    1UNL     C2    2  -0.195   0.221   0.036
    1UNL     C3    3  -0.192   0.092  -0.052
    1UNL     C4    4  -0.086   0.116  -0.161
    1UNL     N1    5   0.051   0.105  -0.099
    1UNL     C5    6   0.139   0.227  -0.069
    1UNL     C6    7   0.289   0.190  -0.093
    1UNL     C7    8   0.326   0.065  -0.021
    1UNL     C8    9   0.227  -0.031  -0.009
    1UNL     N2   10   0.283  -0.134   0.069
    1UNL     C9   11   0.422  -0.108   0.083
    1UNL    C10   12   0.520  -0.179   0.157
    1UNL    C11   13   0.642  -0.109   0.179
    1UNL    C12   14   0.662   0.014   0.118
    1UNL    C13   15   0.568   0.084   0.048
    1UNL    C14   16   0.445   0.019   0.032
    1UNL    C15   17   0.079  -0.029  -0.056
    1UNL    C16   18  -0.022  -0.077   0.052
    1UNL    C17   19  -0.171  -0.042   0.018
    1UNL    C18   20  -0.242  -0.160  -0.064
    1UNL    C19   21  -0.211  -0.300  -0.025
    1UNL     O1   22  -0.298  -0.395  -0.086
    1UNL    C20   23  -0.386  -0.130  -0.057
    1UNL     O2   24  -0.455  -0.150  -0.158
    1UNL     O3   25  -0.427  -0.073   0.051
    1UNL    C21   26  -0.567  -0.041   0.047
    1UNL     H1   27  -0.403   0.229   0.050
    1UNL     H2   28  -0.341   0.138   0.186
    1UNL     H3   29  -0.333   0.308   0.185
    1UNL     H4   30  -0.178   0.313  -0.019
    1UNL     H5   31  -0.110   0.221   0.100
    1UNL     H6   32  -0.293   0.078  -0.095
    1UNL     H7   33  -0.080   0.042  -0.241
    1UNL     H8   34  -0.105   0.210  -0.210
    1UNL     H9   35   0.130   0.258   0.037
    1UNL    H10   36   0.105   0.305  -0.137
    1UNL    H11   37   0.356   0.271  -0.069
    1UNL    H12   38   0.302   0.166  -0.202
    1UNL    H13   39   0.239  -0.221   0.096
    1UNL    H14   40   0.518  -0.276   0.206
    1UNL    H15   41   0.723  -0.154   0.229
    1UNL    H16   42   0.769   0.055   0.132
    1UNL    H17   43   0.587   0.177  -0.004
    1UNL    H18   44   0.070  -0.091  -0.147
    1UNL    H19   45   0.011  -0.019   0.138
    1UNL    H20   46  -0.008  -0.187   0.061
    1UNL    H21   47  -0.229  -0.050   0.108
    1UNL    H22   48  -0.210  -0.154  -0.171
    1UNL    H23   49  -0.229  -0.306   0.086
    1UNL    H24   50  -0.102  -0.331  -0.013
    1UNL    H25   51  -0.361  -0.353  -0.146
    1UNL    H26   52  -0.597   0.001   0.143
    1UNL    H27   53  -0.588   0.022  -0.040
    1UNL    H28   54  -0.633  -0.137   0.036
   0.00000   0.00000   0.00000   0.00000   0.00000   0.00000   0.00000   0.00000   0.00000
Generated with MDTraj, t= 51.0
 54
    1UNL     C1    1  -0.292   0.239   0.148
    1UNL     C2    2  -0.169   0.225   0.057
    1UNL     C3    3  -0.184   0.102  -0.035
    1UNL     C4    4  -0.096   0.111  -0.164
    1UNL     N1    5   0.058   0.084  -0.134
    1UNL     C5    6   0.122   0.203  -0.083
    1UNL     C6    7   0.271   0.181  -0.074
    1UNL     C7    8   0.308   0.054  -0.016
    1UNL     C8    9   0.223  -0.053  -0.006
    1UNL     N2   10   0.294  -0.161   0.046
    1UNL     C9   11   0.417  -0.114   0.092
    1UNL    C10   12   0.525  -0.168   0.152
    1UNL    C11   13   0.648  -0.099   0.160
    1UNL    C12   14   0.662   0.028   0.111
    1UNL    C13   15   0.550   0.091   0.058
    1UNL    C14   16   0.427   0.019   0.049
    1UNL    C15   17   0.078  -0.046  -0.059
    1UNL    C16   18  -0.018  -0.064   0.067
    1UNL    C17   19  -0.167  -0.036   0.035
    1UNL    C18   20  -0.240  -0.142  -0.059
    1UNL    C19   21  -0.210  -0.284  -0.008
    1UNL     O1   22  -0.263  -0.381  -0.099
    1UNL    C20   23  -0.385  -0.123  -0.065
    1UNL     O2   24  -0.453  -0.188  -0.148
    1UNL     O3   25  -0.448  -0.034   0.020
    1UNL    C21   26  -0.587  -0.051   0.017
    1UNL     H1   27  -0.375   0.183   0.109
    1UNL     H2   28  -0.283   0.208   0.251
    1UNL     H3   29  -0.329   0.338   0.162
    1UNL     H4   30  -0.149   0.318   0.003
    1UNL     H5   31  -0.088   0.214   0.123
    1UNL     H6   32  -0.291   0.095  -0.067
    1UNL     H7   33  -0.136   0.043  -0.240
    1UNL     H8   34  -0.094   0.209  -0.208
    1UNL     H9   35   0.078   0.216   0.015
    1UNL    H10   36   0.099   0.287  -0.150
    1UNL    H11   37   0.316   0.257  -0.009
    1UNL    H12   38   0.315   0.194  -0.175
    1UNL    H13   39   0.257  -0.247   0.085
    1UNL    H14   40   0.520  -0.268   0.195
    1UNL    H15   41   0.743  -0.147   0.207
    1UNL    H16   42   0.756   0.071   0.114
    1UNL    H17   43   0.561   0.191   0.022
    1UNL    H18   44   0.060  -0.129  -0.129
    1UNL    H19   45   0.015   0.013   0.136
    1UNL    H20   46  -0.006  -0.170   0.106
    1UNL    H21   47  -0.224  -0.024   0.126
    1UNL    H22   48  -0.205  -0.127  -0.164
    1UNL    H23   49  -0.225  -0.301   0.100
    1UNL    H24   50  -0.096  -0.298  -0.003
    1UNL    H25   51  -0.358  -0.352  -0.130
    1UNL    H26   52  -0.627   0.017   0.092
    1UNL    H27   53  -0.621  -0.043  -0.088
    1UNL    H28   54  -0.612  -0.162   0.056
   0.00000   0.00000   0.00000   0.00000   0.00000   0.00000   0.00000   0.00000   0.00000
Generated with MDTraj, t= 52.0
 54
    1UNL     C1    1  -0.273   0.227   0.175
    1UNL     C2    2  -0.179   0.219   0.054
    1UNL     C3    3  -0.195   0.106  -0.041
    1UNL     C4    4  -0.102   0.120  -0.162
    1UNL     N1    5   0.044   0.100  -0.117
    1UNL     C5    6   0.126   0.228  -0.090
    1UNL     C6    7   0.277   0.199  -0.096
    1UNL     C7    8   0.309   0.071  -0.032
    1UNL     C8    9   0.216  -0.031  -0.007
    1UNL     N2   10   0.278  -0.143   0.040
    1UNL     C9   11   0.409  -0.117   0.068
    1UNL    C10   12   0.510  -0.191   0.134
    1UNL    C11   13   0.631  -0.133   0.158
    1UNL    C12   14   0.647   0.004   0.130
    1UNL    C13   15   0.553   0.078   0.065
    1UNL    C14   16   0.430   0.019   0.025
    1UNL    C15   17   0.071  -0.022  -0.043
    1UNL    C16   18  -0.023  -0.035   0.079
    1UNL    C17   19  -0.173  -0.034   0.040
    1UNL    C18   20  -0.232  -0.157  -0.042
    1UNL    C19   21  -0.204  -0.297   0.026
    1UNL     O1   22  -0.216  -0.395  -0.076
    1UNL    C20   23  -0.387  -0.137  -0.068
    1UNL     O2   24  -0.443  -0.215  -0.146
    1UNL     O3   25  -0.445  -0.046   0.008
    1UNL    C21   26  -0.576  -0.022  -0.028
    1UNL     H1   27  -0.370   0.269   0.142
    1UNL     H2   28  -0.291   0.137   0.223
    1UNL     H3   29  -0.230   0.287   0.253
    1UNL     H4   30  -0.191   0.315   0.005
    1UNL     H5   31  -0.079   0.216   0.092
    1UNL     H6   32  -0.297   0.107  -0.087
    1UNL     H7   33  -0.115   0.048  -0.243
    1UNL     H8   34  -0.111   0.221  -0.197
    1UNL     H9   35   0.104   0.249   0.011
    1UNL    H10   36   0.089   0.314  -0.149
    1UNL    H11   37   0.338   0.284  -0.060
    1UNL    H12   38   0.311   0.187  -0.199
    1UNL    H13   39   0.243  -0.238   0.047
    1UNL    H14   40   0.492  -0.286   0.176
    1UNL    H15   41   0.689  -0.193   0.214
    1UNL    H16   42   0.732   0.062   0.170
    1UNL    H17   43   0.558   0.185   0.067
    1UNL    H18   44   0.048  -0.105  -0.112
    1UNL    H19   45   0.008   0.053   0.135
    1UNL    H20   46  -0.009  -0.130   0.143
    1UNL    H21   47  -0.230  -0.018   0.129
    1UNL    H22   48  -0.180  -0.162  -0.140
    1UNL    H23   49  -0.266  -0.317   0.113
    1UNL    H24   50  -0.102  -0.310   0.077
    1UNL    H25   51  -0.290  -0.373  -0.128
    1UNL    H26   52  -0.612   0.066   0.025
    1UNL    H27   53  -0.575  -0.027  -0.138
    1UNL    H28   54  -0.637  -0.121   0.001
   0.00000   0.00000   0.00000   0.00000   0.00000   0.00000   0.00000   0.00000   0.00000
Generated with MDTraj, t= 53.0
 54
    1UNL     C1    1  -0.322   0.222   0.185
    1UNL     C2    2  -0.206   0.230   0.085
    1UNL     C3    3  -0.193   0.116  -0.019
    1UNL     C4    4  -0.101   0.149  -0.139
    1UNL     N1    5   0.045   0.115  -0.128
    1UNL     C5    6   0.126   0.232  -0.081
    1UNL     C6    7   0.276   0.201  -0.082
    1UNL     C7    8   0.302   0.057  -0.041
    1UNL     C8    9   0.212  -0.047  -0.034
    1UNL     N2   10   0.259  -0.152   0.042
    1UNL     C9   11   0.391  -0.119   0.073
    1UNL    C10   12   0.487  -0.198   0.144
    1UNL    C11   13   0.613  -0.142   0.151
    1UNL    C12   14   0.647  -0.016   0.096
    1UNL    C13   15   0.552   0.069   0.046
    1UNL    C14   16   0.423   0.011   0.023
    1UNL    C15   17   0.066  -0.018  -0.057
    1UNL    C16   18  -0.010  -0.018   0.076
    1UNL    C17   19  -0.160  -0.024   0.052
    1UNL    C18   20  -0.207  -0.147  -0.039
    1UNL    C19   21  -0.159  -0.286   0.016
    1UNL     O1   22  -0.245  -0.390  -0.013
    1UNL    C20   23  -0.353  -0.140  -0.075
    1UNL     O2   24  -0.404  -0.230  -0.142
    1UNL     O3   25  -0.430  -0.034  -0.022
    1UNL    C21   26  -0.560  -0.048  -0.070
    1UNL     H1   27  -0.408   0.184   0.125
    1UNL     H2   28  -0.309   0.154   0.264
    1UNL     H3   29  -0.352   0.313   0.235
    1UNL     H4   30  -0.219   0.316   0.021
    1UNL     H5   31  -0.109   0.242   0.136
    1UNL     H6   32  -0.287   0.095  -0.075
    1UNL     H7   33  -0.139   0.097  -0.227
    1UNL     H8   34  -0.093   0.255  -0.159
    1UNL     H9   35   0.088   0.258   0.014
    1UNL    H10   36   0.097   0.314  -0.149
    1UNL    H11   37   0.339   0.264  -0.013
    1UNL    H12   38   0.318   0.225  -0.178
    1UNL    H13   39   0.214  -0.238   0.075
    1UNL    H14   40   0.453  -0.295   0.179
    1UNL    H15   41   0.703  -0.194   0.197
    1UNL    H16   42   0.750   0.014   0.113
    1UNL    H17   43   0.561   0.169   0.005
    1UNL    H18   44   0.021  -0.095  -0.120
    1UNL    H19   45   0.012   0.071   0.134
    1UNL    H20   46   0.034  -0.108   0.135
    1UNL    H21   47  -0.207  -0.020   0.149
    1UNL    H22   48  -0.158  -0.144  -0.139
    1UNL    H23   49  -0.160  -0.288   0.124
    1UNL    H24   50  -0.048  -0.305  -0.011
    1UNL    H25   51  -0.304  -0.361  -0.092
    1UNL    H26   52  -0.631   0.004  -0.004
    1UNL    H27   53  -0.553  -0.024  -0.174
    1UNL    H28   54  -0.577  -0.163  -0.074
   0.00000   0.00000   0.00000   0.00000   0.00000   0.00000   0.00000   0.00000   0.00000
Generated with MDTraj, t= 54.0
 54
    1UNL     C1    1  -0.342   0.219   0.159
    1UNL     C2    2  -0.223   0.233   0.067
    1UNL     C3    3  -0.199   0.117  -0.032
    1UNL     C4    4  -0.095   0.157  -0.137
    1UNL     N1    5   0.044   0.135  -0.093
    1UNL     C5    6   0.145   0.245  -0.047
    1UNL     C6    7   0.288   0.205  -0.088
    1UNL     C7    8   0.318   0.065  -0.033
    1UNL     C8    9   0.217  -0.028  -0.014
    1UNL     N2   10   0.268  -0.145   0.039
    1UNL     C9   11   0.405  -0.126   0.055
    1UNL    C10   12   0.497  -0.205   0.120
    1UNL    C11   13   0.620  -0.155   0.135
    1UNL    C12   14   0.663  -0.021   0.097
    1UNL    C13   15   0.573   0.053   0.030
    1UNL    C14   16   0.442   0.004   0.012
    1UNL    C15   17   0.070  -0.004  -0.035
    1UNL    C16   18  -0.024  -0.015   0.087
    1UNL    C17   19  -0.172  -0.021   0.038
    1UNL    C18   20  -0.217  -0.146  -0.033
    1UNL    C19   21  -0.212  -0.269   0.062
    1UNL     O1   22  -0.233  -0.396   0.003
    1UNL    C20   23  -0.359  -0.151  -0.083
    1UNL     O2   24  -0.397  -0.226  -0.168
    1UNL     O3   25  -0.444  -0.058  -0.024
    1UNL    C21   26  -0.573  -0.069  -0.075
    1UNL     H1   27  -0.430   0.200   0.095
    1UNL     H2   28  -0.332   0.128   0.217
    1UNL     H3   29  -0.362   0.303   0.224
    1UNL     H4   30  -0.222   0.321   0.008
    1UNL     H5   31  -0.123   0.229   0.118
    1UNL     H6   32  -0.293   0.098  -0.088
    1UNL     H7   33  -0.091   0.100  -0.230
    1UNL     H8   34  -0.104   0.262  -0.161
    1UNL     H9   35   0.138   0.259   0.059
    1UNL    H10   36   0.117   0.340  -0.095
    1UNL    H11   37   0.354   0.278  -0.032
    1UNL    H12   38   0.321   0.213  -0.189
    1UNL    H13   39   0.208  -0.213   0.086
    1UNL    H14   40   0.469  -0.308   0.130
    1UNL    H15   41   0.702  -0.216   0.170
    1UNL    H16   42   0.765   0.014   0.091
    1UNL    H17   43   0.603   0.146  -0.014
    1UNL    H18   44   0.031  -0.066  -0.116
    1UNL    H19   45   0.007   0.071   0.149
    1UNL    H20   46   0.001  -0.104   0.154
    1UNL    H21   47  -0.232  -0.014   0.127
    1UNL    H22   48  -0.151  -0.172  -0.117
    1UNL    H23   49  -0.286  -0.245   0.136
    1UNL    H24   50  -0.109  -0.284   0.109
    1UNL    H25   51  -0.318  -0.385  -0.040
    1UNL    H26   52  -0.628   0.021  -0.050
    1UNL    H27   53  -0.561  -0.092  -0.178
    1UNL    H28   54  -0.611  -0.165  -0.030
   0.00000   0.00000   0.00000   0.00000   0.00000   0.00000   0.00000   0.00000   0.00000
Generated with MDTraj, t= 55.0
 54
    1UNL     C1    1  -0.368   0.225   0.117
    1UNL     C2    2  -0.235   0.236   0.045
    1UNL     C3    3  -0.203   0.109  -0.032
    1UNL     C4    4  -0.093   0.127  -0.147
    1UNL     N1    5   0.045   0.113  -0.099
    1UNL     C5    6   0.134   0.234  -0.057
    1UNL     C6    7   0.284   0.212  -0.047
    1UNL     C7    8   0.311   0.073   0.006
    1UNL     C8    9   0.216  -0.026   0.016
    1UNL     N2   10   0.281  -0.145   0.054
    1UNL     C9   11   0.418  -0.120   0.071
    1UNL    C10   12   0.527  -0.212   0.095
    1UNL    C11   13   0.650  -0.164   0.090
    1UNL    C12   14   0.676  -0.029   0.058
    1UNL    C13   15   0.570   0.061   0.029
    1UNL    C14   16   0.442   0.013   0.043
    1UNL    C15   17   0.072  -0.018  -0.023
    1UNL    C16   18  -0.020  -0.030   0.095
    1UNL    C17   19  -0.175  -0.018   0.054
    1UNL    C18   20  -0.220  -0.136  -0.022
    1UNL    C19   21  -0.214  -0.259   0.068
    1UNL     O1   22  -0.248  -0.385   0.004
    1UNL    C20   23  -0.361  -0.133  -0.076
    1UNL     O2   24  -0.386  -0.188  -0.176
    1UNL     O3   25  -0.457  -0.059  -0.017
    1UNL    C21   26  -0.579  -0.080  -0.083
    1UNL     H1   27  -0.439   0.195   0.041
    1UNL     H2   28  -0.369   0.140   0.191
    1UNL     H3   29  -0.394   0.320   0.160
    1UNL     H4   30  -0.228   0.307  -0.033
    1UNL     H5   31  -0.151   0.254   0.118
    1UNL     H6   32  -0.300   0.081  -0.077
    1UNL     H7   33  -0.101   0.047  -0.222
    1UNL     H8   34  -0.084   0.222  -0.200
    1UNL     H9   35   0.107   0.252   0.045
    1UNL    H10   36   0.105   0.324  -0.115
    1UNL    H11   37   0.332   0.290   0.021
    1UNL    H12   38   0.323   0.229  -0.144
    1UNL    H13   39   0.246  -0.235   0.018
    1UNL    H14   40   0.509  -0.317   0.115
    1UNL    H15   41   0.724  -0.239   0.097
    1UNL    H16   42   0.777   0.011   0.049
    1UNL    H17   43   0.585   0.162  -0.009
    1UNL    H18   44   0.047  -0.101  -0.088
    1UNL    H19   45   0.003   0.051   0.169
    1UNL    H20   46   0.017  -0.120   0.154
    1UNL    H21   47  -0.240  -0.007   0.140
    1UNL    H22   48  -0.154  -0.160  -0.109
    1UNL    H23   49  -0.285  -0.261   0.148
    1UNL    H24   50  -0.108  -0.268   0.107
    1UNL    H25   51  -0.285  -0.365  -0.089
    1UNL    H26   52  -0.651  -0.009  -0.038
    1UNL    H27   53  -0.564  -0.065  -0.186
    1UNL    H28   54  -0.599  -0.186  -0.067
   0.00000   0.00000   0.00000   0.00000   0.00000   0.00000   0.00000   0.00000   0.00000
Generated with MDTraj, t= 56.0
 54
    1UNL     C1    1  -0.356   0.266   0.071
    1UNL     C2    2  -0.215   0.245   0.013
    1UNL     C3    3  -0.191   0.105  -0.049
    1UNL     C4    4  -0.076   0.108  -0.151
    1UNL     N1    5   0.055   0.104  -0.082
    1UNL     C5    6   0.121   0.231  -0.034
    1UNL     C6    7   0.268   0.208  -0.003
    1UNL     C7    8   0.297   0.063   0.035
    1UNL     C8    9   0.209  -0.040   0.043
    1UNL     N2   10   0.277  -0.158   0.064
    1UNL     C9   11   0.411  -0.132   0.065
    1UNL    C10   12   0.529  -0.201   0.068
    1UNL    C11   13   0.654  -0.139   0.059
    1UNL    C12   14   0.667  -0.005   0.030
    1UNL    C13   15   0.551   0.077   0.018
    1UNL    C14   16   0.430   0.011   0.049
    1UNL    C15   17   0.071  -0.024  -0.004
    1UNL    C16   18  -0.035  -0.039   0.102
    1UNL    C17   19  -0.177  -0.024   0.046
    1UNL    C18   20  -0.214  -0.152  -0.021
    1UNL    C19   21  -0.213  -0.277   0.067
    1UNL     O1   22  -0.271  -0.390  -0.006
    1UNL    C20   23  -0.351  -0.142  -0.081
    1UNL     O2   24  -0.386  -0.191  -0.183
    1UNL     O3   25  -0.434  -0.064   0.004
    1UNL    C21   26  -0.556  -0.051  -0.059
    1UNL     H1   27  -0.435   0.258   0.002
    1UNL     H2   28  -0.376   0.181   0.146
    1UNL     H3   29  -0.365   0.361   0.122
    1UNL     H4   30  -0.189   0.320  -0.056
    1UNL     H5   31  -0.138   0.244   0.097
    1UNL     H6   32  -0.288   0.080  -0.093
    1UNL     H7   33  -0.067   0.018  -0.215
    1UNL     H8   34  -0.080   0.197  -0.214
    1UNL     H9   35   0.070   0.270   0.053
    1UNL    H10   36   0.116   0.308  -0.112
    1UNL    H11   37   0.300   0.284   0.076
    1UNL    H12   38   0.325   0.225  -0.091
    1UNL    H13   39   0.237  -0.252   0.080
    1UNL    H14   40   0.503  -0.305   0.090
    1UNL    H15   41   0.753  -0.194   0.076
    1UNL    H16   42   0.766   0.035   0.038
    1UNL    H17   43   0.563   0.183   0.011
    1UNL    H18   44   0.055  -0.105  -0.075
    1UNL    H19   45  -0.012   0.041   0.183
    1UNL    H20   46  -0.025  -0.130   0.165
    1UNL    H21   47  -0.253  -0.007   0.123
    1UNL    H22   48  -0.155  -0.167  -0.116
    1UNL    H23   49  -0.274  -0.265   0.155
    1UNL    H24   50  -0.114  -0.326   0.088
    1UNL    H25   51  -0.315  -0.354  -0.083
    1UNL    H26   52  -0.647  -0.041   0.005
    1UNL    H27   53  -0.547   0.041  -0.112
    1UNL    H28   54  -0.557  -0.134  -0.124
   0.00000   0.00000   0.00000   0.00000   0.00000   0.00000   0.00000   0.00000   0.00000
Generated with MDTraj, t= 57.0
 54
    1UNL     C1    1  -0.354   0.274   0.041
    1UNL     C2    2  -0.206   0.232   0.031
    1UNL     C3    3  -0.192   0.099  -0.055
    1UNL     C4    4  -0.077   0.094  -0.153
    1UNL     N1    5   0.060   0.094  -0.088
    1UNL     C5    6   0.108   0.218  -0.025
    1UNL     C6    7   0.261   0.214   0.008
    1UNL     C7    8   0.309   0.072   0.047
    1UNL     C8    9   0.221  -0.035   0.048
    1UNL     N2   10   0.297  -0.145   0.069
    1UNL     C9   11   0.430  -0.116   0.054
    1UNL    C10   12   0.545  -0.204   0.052
    1UNL    C11   13   0.665  -0.147   0.041
    1UNL    C12   14   0.681  -0.004   0.045
    1UNL    C13   15   0.569   0.076   0.045
    1UNL    C14   16   0.443   0.021   0.050
    1UNL    C15   17   0.085  -0.033  -0.013
    1UNL    C16   18  -0.028  -0.048   0.092
    1UNL    C17   19  -0.180  -0.028   0.043
    1UNL    C18   20  -0.236  -0.151  -0.026
    1UNL    C19   21  -0.228  -0.275   0.066
    1UNL     O1   22  -0.253  -0.384  -0.013
    1UNL    C20   23  -0.383  -0.131  -0.074
    1UNL     O2   24  -0.416  -0.201  -0.163
    1UNL     O3   25  -0.460  -0.049   0.000
    1UNL    C21   26  -0.580  -0.050  -0.057
    1UNL     H1   27  -0.393   0.313  -0.050
    1UNL     H2   28  -0.420   0.184   0.060
    1UNL     H3   29  -0.372   0.349   0.119
    1UNL     H4   30  -0.151   0.300  -0.026
    1UNL     H5   31  -0.162   0.238   0.137
    1UNL     H6   32  -0.285   0.079  -0.106
    1UNL     H7   33  -0.078   0.004  -0.219
    1UNL     H8   34  -0.080   0.186  -0.212
    1UNL     H9   35   0.050   0.250   0.061
    1UNL    H10   36   0.094   0.291  -0.106
    1UNL    H11   37   0.281   0.278   0.100
    1UNL    H12   38   0.313   0.258  -0.074
    1UNL    H13   39   0.268  -0.243   0.086
    1UNL    H14   40   0.543  -0.311   0.047
    1UNL    H15   41   0.739  -0.217   0.045
    1UNL    H16   42   0.780   0.044   0.059
    1UNL    H17   43   0.576   0.184   0.060
    1UNL    H18   44   0.092  -0.116  -0.084
    1UNL    H19   45  -0.003   0.018   0.186
    1UNL    H20   46  -0.019  -0.144   0.144
    1UNL    H21   47  -0.244  -0.005   0.129
    1UNL    H22   48  -0.179  -0.169  -0.122
    1UNL    H23   49  -0.308  -0.287   0.139
    1UNL    H24   50  -0.130  -0.299   0.112
    1UNL    H25   51  -0.336  -0.359  -0.068
    1UNL    H26   52  -0.657   0.030  -0.025
    1UNL    H27   53  -0.552  -0.019  -0.158
    1UNL    H28   54  -0.612  -0.148  -0.059
   0.00000   0.00000   0.00000   0.00000   0.00000   0.00000   0.00000   0.00000   0.00000
Generated with MDTraj, t= 58.0
 54
    1UNL     C1    1  -0.370   0.257   0.053
    1UNL     C2    2  -0.222   0.228   0.032
    1UNL     C3    3  -0.187   0.103  -0.053
    1UNL     C4    4  -0.077   0.118  -0.152
    1UNL     N1    5   0.057   0.108  -0.094
    1UNL     C5    6   0.120   0.223  -0.021
    1UNL     C6    7   0.272   0.203  -0.002
    1UNL     C7    8   0.305   0.059   0.027
    1UNL     C8    9   0.219  -0.048   0.017
    1UNL     N2   10   0.298  -0.161   0.029
    1UNL     C9   11   0.434  -0.131   0.045
    1UNL    C10   12   0.554  -0.201   0.071
    1UNL    C11   13   0.677  -0.134   0.079
    1UNL    C12   14   0.675   0.007   0.065
    1UNL    C13   15   0.559   0.079   0.065
    1UNL    C14   16   0.434   0.007   0.046
    1UNL    C15   17   0.076  -0.023  -0.022
    1UNL    C16   18  -0.026  -0.035   0.091
    1UNL    C17   19  -0.173  -0.026   0.037
    1UNL    C18   20  -0.226  -0.152  -0.031
    1UNL    C19   21  -0.221  -0.274   0.058
    1UNL     O1   22  -0.271  -0.389  -0.009
    1UNL    C20   23  -0.371  -0.138  -0.073
    1UNL     O2   24  -0.429  -0.221  -0.134
    1UNL     O3   25  -0.444  -0.028  -0.022
    1UNL    C21   26  -0.580  -0.043  -0.040
    1UNL     H1   27  -0.435   0.243  -0.034
    1UNL     H2   28  -0.412   0.186   0.125
    1UNL     H3   29  -0.379   0.360   0.089
    1UNL     H4   30  -0.190   0.319  -0.013
    1UNL     H5   31  -0.163   0.223   0.129
    1UNL     H6   32  -0.274   0.068  -0.106
    1UNL     H7   33  -0.082   0.037  -0.228
    1UNL     H8   34  -0.089   0.218  -0.197
    1UNL     H9   35   0.068   0.236   0.075
    1UNL    H10   36   0.100   0.315  -0.077
    1UNL    H11   37   0.316   0.268   0.079
    1UNL    H12   38   0.331   0.222  -0.090
    1UNL    H13   39   0.258  -0.244  -0.019
    1UNL    H14   40   0.540  -0.309   0.065
    1UNL    H15   41   0.778  -0.187   0.064
    1UNL    H16   42   0.768   0.054   0.067
    1UNL    H17   43   0.576   0.184   0.061
    1UNL    H18   44   0.058  -0.097  -0.101
    1UNL    H19   45  -0.002   0.027   0.187
    1UNL    H20   46  -0.008  -0.131   0.140
    1UNL    H21   47  -0.228  -0.001   0.130
    1UNL    H22   48  -0.167  -0.162  -0.127
    1UNL    H23   49  -0.281  -0.258   0.149
    1UNL    H24   50  -0.115  -0.295   0.085
    1UNL    H25   51  -0.337  -0.357  -0.071
    1UNL    H26   52  -0.648   0.054  -0.040
    1UNL    H27   53  -0.585  -0.079  -0.145
    1UNL    H28   54  -0.616  -0.113   0.025
   0.00000   0.00000   0.00000   0.00000   0.00000   0.00000   0.00000   0.00000   0.00000
Generated with MDTraj, t= 59.0
 54
    1UNL     C1    1  -0.336   0.219   0.103
    1UNL     C2    2  -0.212   0.221   0.020
    1UNL     C3    3  -0.195   0.099  -0.067
    1UNL     C4    4  -0.084   0.122  -0.166
    1UNL     N1    5   0.052   0.121  -0.105
    1UNL     C5    6   0.115   0.240  -0.038
    1UNL     C6    7   0.264   0.219  -0.008
    1UNL     C7    8   0.308   0.072   0.011
    1UNL     C8    9   0.224  -0.030  -0.021
    1UNL     N2   10   0.282  -0.153  -0.007
    1UNL     C9   11   0.417  -0.126   0.045
    1UNL    C10   12   0.521  -0.209   0.090
    1UNL    C11   13   0.642  -0.151   0.113
    1UNL    C12   14   0.659  -0.012   0.107
    1UNL    C13   15   0.555   0.070   0.072
    1UNL    C14   16   0.430   0.015   0.046
    1UNL    C15   17   0.081  -0.006  -0.048
    1UNL    C16   18  -0.012  -0.026   0.067
    1UNL    C17   19  -0.165  -0.028   0.023
    1UNL    C18   20  -0.220  -0.154  -0.029
    1UNL    C19   21  -0.193  -0.280   0.049
    1UNL     O1   22  -0.264  -0.400   0.010
    1UNL    C20   23  -0.371  -0.143  -0.051
    1UNL     O2   24  -0.425  -0.224  -0.121
    1UNL     O3   25  -0.437  -0.038  -0.001
    1UNL    C21   26  -0.564  -0.023  -0.049
    1UNL     H1   27  -0.434   0.239   0.053
    1UNL     H2   28  -0.356   0.123   0.143
    1UNL     H3   29  -0.326   0.296   0.183
    1UNL     H4   30  -0.205   0.304  -0.048
    1UNL     H5   31  -0.127   0.242   0.088
    1UNL     H6   32  -0.284   0.065  -0.121
    1UNL     H7   33  -0.082   0.041  -0.241
    1UNL     H8   34  -0.103   0.217  -0.218
    1UNL     H9   35   0.063   0.254   0.057
    1UNL    H10   36   0.092   0.329  -0.098
    1UNL    H11   37   0.298   0.278   0.080
    1UNL    H12   38   0.316   0.260  -0.094
    1UNL    H13   39   0.226  -0.240   0.002
    1UNL    H14   40   0.522  -0.315   0.079
    1UNL    H15   41   0.727  -0.210   0.121
    1UNL    H16   42   0.770   0.011   0.117
    1UNL    H17   43   0.551   0.179   0.072
    1UNL    H18   44   0.054  -0.079  -0.126
    1UNL    H19   45   0.009   0.049   0.153
    1UNL    H20   46   0.020  -0.115   0.122
    1UNL    H21   47  -0.210  -0.011   0.123
    1UNL    H22   48  -0.180  -0.169  -0.133
    1UNL    H23   49  -0.221  -0.253   0.152
    1UNL    H24   50  -0.085  -0.303   0.050
    1UNL    H25   51  -0.343  -0.379  -0.042
    1UNL    H26   52  -0.639   0.047   0.009
    1UNL    H27   53  -0.551   0.004  -0.159
    1UNL    H28   54  -0.612  -0.116  -0.048
   0.00000   0.00000   0.00000   0.00000   0.00000   0.00000   0.00000   0.00000   0.00000
Generated with MDTraj, t= 60.0
 54
    1UNL     C1    1  -0.338   0.222   0.145
    1UNL     C2    2  -0.204   0.228   0.064
    1UNL     C3    3  -0.195   0.110  -0.039
    1UNL     C4    4  -0.101   0.141  -0.157
    1UNL     N1    5   0.049   0.121  -0.135
    1UNL     C5    6   0.128   0.239  -0.086
    1UNL     C6    7   0.276   0.207  -0.066
    1UNL     C7    8   0.312   0.068  -0.026
    1UNL     C8    9   0.225  -0.037  -0.045
    1UNL     N2   10   0.284  -0.148   0.011
    1UNL     C9   11   0.415  -0.125   0.050
    1UNL    C10   12   0.514  -0.207   0.093
    1UNL    C11   13   0.629  -0.156   0.148
    1UNL    C12   14   0.639  -0.018   0.149
    1UNL    C13   15   0.553   0.067   0.096
    1UNL    C14   16   0.428   0.016   0.044
    1UNL    C15   17   0.078  -0.014  -0.079
    1UNL    C16   18  -0.002  -0.023   0.053
    1UNL    C17   19  -0.164  -0.027   0.026
    1UNL    C18   20  -0.217  -0.152  -0.035
    1UNL    C19   21  -0.203  -0.275   0.055
    1UNL     O1   22  -0.233  -0.400  -0.005
    1UNL    C20   23  -0.368  -0.139  -0.061
    1UNL     O2   24  -0.417  -0.218  -0.138
    1UNL     O3   25  -0.442  -0.039  -0.003
    1UNL    C21   26  -0.576  -0.045  -0.022
    1UNL     H1   27  -0.425   0.173   0.094
    1UNL     H2   28  -0.324   0.158   0.227
    1UNL     H3   29  -0.367   0.326   0.171
    1UNL     H4   30  -0.198   0.319   0.006
    1UNL     H5   31  -0.115   0.236   0.127
    1UNL     H6   32  -0.295   0.088  -0.078
    1UNL     H7   33  -0.131   0.076  -0.241
    1UNL     H8   34  -0.118   0.244  -0.192
    1UNL     H9   35   0.079   0.273   0.007
    1UNL    H10   36   0.117   0.318  -0.161
    1UNL    H11   37   0.305   0.274   0.016
    1UNL    H12   38   0.334   0.238  -0.155
    1UNL    H13   39   0.241  -0.241   0.018
    1UNL    H14   40   0.492  -0.314   0.089
    1UNL    H15   41   0.697  -0.232   0.189
    1UNL    H16   42   0.711   0.033   0.200
    1UNL    H17   43   0.575   0.170   0.116
    1UNL    H18   44   0.033  -0.087  -0.149
    1UNL    H19   45   0.034   0.049   0.134
    1UNL    H20   46   0.036  -0.111   0.105
    1UNL    H21   47  -0.207  -0.024   0.127
    1UNL    H22   48  -0.176  -0.181  -0.136
    1UNL    H23   49  -0.271  -0.275   0.142
    1UNL    H24   50  -0.101  -0.275   0.098
    1UNL    H25   51  -0.315  -0.395  -0.066
    1UNL    H26   52  -0.635   0.008   0.062
    1UNL    H27   53  -0.609  -0.013  -0.127
    1UNL    H28   54  -0.602  -0.146  -0.019
   0.00000   0.00000   0.00000   0.00000   0.00000   0.00000   0.00000   0.00000   0.00000
Generated with MDTraj, t= 61.0
 54
    1UNL     C1    1  -0.303   0.243   0.163
    1UNL     C2    2  -0.191   0.238   0.058
    1UNL     C3    3  -0.190   0.116  -0.036
    1UNL     C4    4  -0.100   0.136  -0.159
    1UNL     N1    5   0.044   0.110  -0.128
    1UNL     C5    6   0.125   0.223  -0.065
    1UNL     C6    7   0.274   0.193  -0.076
    1UNL     C7    8   0.310   0.051  -0.059
    1UNL     C8    9   0.210  -0.048  -0.044
    1UNL     N2   10   0.266  -0.158   0.018
    1UNL     C9   11   0.404  -0.131   0.051
    1UNL    C10   12   0.499  -0.198   0.131
    1UNL    C11   13   0.606  -0.123   0.183
    1UNL    C12   14   0.624   0.004   0.149
    1UNL    C13   15   0.543   0.067   0.053
    1UNL    C14   16   0.428   0.003   0.010
    1UNL    C15   17   0.067  -0.024  -0.063
    1UNL    C16   18  -0.002  -0.027   0.072
    1UNL    C17   19  -0.159  -0.019   0.037
    1UNL    C18   20  -0.209  -0.139  -0.030
    1UNL    C19   21  -0.186  -0.283   0.028
    1UNL     O1   22  -0.235  -0.393  -0.050
    1UNL    C20   23  -0.361  -0.130  -0.064
    1UNL     O2   24  -0.401  -0.192  -0.164
    1UNL     O3   25  -0.439  -0.064   0.031
    1UNL    C21   26  -0.569  -0.066  -0.012
    1UNL     H1   27  -0.409   0.250   0.125
    1UNL     H2   28  -0.299   0.151   0.216
    1UNL     H3   29  -0.285   0.333   0.225
    1UNL     H4   30  -0.196   0.329  -0.000
    1UNL     H5   31  -0.095   0.237   0.105
    1UNL     H6   32  -0.295   0.103  -0.067
    1UNL     H7   33  -0.128   0.075  -0.246
    1UNL     H8   34  -0.114   0.240  -0.193
    1UNL     H9   35   0.100   0.237   0.041
    1UNL    H10   36   0.094   0.313  -0.119
    1UNL    H11   37   0.324   0.255  -0.003
    1UNL    H12   38   0.304   0.236  -0.174
    1UNL    H13   39   0.234  -0.253   0.040
    1UNL    H14   40   0.485  -0.296   0.175
    1UNL    H15   41   0.674  -0.165   0.258
    1UNL    H16   42   0.693   0.066   0.215
    1UNL    H17   43   0.553   0.167   0.011
    1UNL    H18   44   0.017  -0.097  -0.131
    1UNL    H19   45   0.041   0.055   0.132
    1UNL    H20   46   0.036  -0.112   0.132
    1UNL    H21   47  -0.205  -0.012   0.137
    1UNL    H22   48  -0.174  -0.134  -0.136
    1UNL    H23   49  -0.234  -0.282   0.128
    1UNL    H24   50  -0.081  -0.314   0.047
    1UNL    H25   51  -0.296  -0.354  -0.110
    1UNL    H26   52  -0.633   0.027  -0.005
    1UNL    H27   53  -0.583  -0.113  -0.115
    1UNL    H28   54  -0.607  -0.145   0.046
   0.00000   0.00000   0.00000   0.00000   0.00000   0.00000   0.00000   0.00000   0.00000
Generated with MDTraj, t= 62.0
 54
    1UNL     C1    1  -0.286   0.241   0.160
    1UNL     C2    2  -0.170   0.229   0.071
    1UNL     C3    3  -0.194   0.111  -0.030
    1UNL     C4    4  -0.100   0.127  -0.150
    1UNL     N1    5   0.046   0.100  -0.129
    1UNL     C5    6   0.127   0.224  -0.098
    1UNL     C6    7   0.275   0.185  -0.113
    1UNL     C7    8   0.309   0.058  -0.043
    1UNL     C8    9   0.217  -0.036  -0.018
    1UNL     N2   10   0.274  -0.149   0.047
    1UNL     C9   11   0.399  -0.109   0.096
    1UNL    C10   12   0.489  -0.176   0.177
    1UNL    C11   13   0.619  -0.121   0.178
    1UNL    C12   14   0.650  -0.001   0.113
    1UNL    C13   15   0.560   0.068   0.040
    1UNL    C14   16   0.425   0.018   0.037
    1UNL    C15   17   0.072  -0.032  -0.052
    1UNL    C16   18  -0.023  -0.041   0.069
    1UNL    C17   19  -0.171  -0.032   0.033
    1UNL    C18   20  -0.219  -0.146  -0.045
    1UNL    C19   21  -0.191  -0.288   0.003
    1UNL     O1   22  -0.232  -0.385  -0.091
    1UNL    C20   23  -0.374  -0.126  -0.067
    1UNL     O2   24  -0.425  -0.164  -0.174
    1UNL     O3   25  -0.442  -0.086   0.042
    1UNL    C21   26  -0.578  -0.065   0.015
    1UNL     H1   27  -0.385   0.263   0.114
    1UNL     H2   28  -0.309   0.143   0.206
    1UNL     H3   29  -0.274   0.322   0.234
    1UNL     H4   30  -0.157   0.312   0.002
    1UNL     H5   31  -0.086   0.217   0.131
    1UNL     H6   32  -0.301   0.117  -0.060
    1UNL     H7   33  -0.137   0.061  -0.229
    1UNL     H8   34  -0.108   0.228  -0.196
    1UNL     H9   35   0.101   0.240   0.008
    1UNL    H10   36   0.096   0.313  -0.154
    1UNL    H11   37   0.339   0.266  -0.088
    1UNL    H12   38   0.293   0.166  -0.223
    1UNL    H13   39   0.221  -0.229   0.081
    1UNL    H14   40   0.468  -0.279   0.204
    1UNL    H15   41   0.699  -0.174   0.225
    1UNL    H16   42   0.748   0.033   0.106
    1UNL    H17   43   0.593   0.151  -0.022
    1UNL    H18   44   0.046  -0.116  -0.120
    1UNL    H19   45   0.012   0.033   0.134
    1UNL    H20   46   0.006  -0.138   0.113
    1UNL    H21   47  -0.224  -0.042   0.130
    1UNL    H22   48  -0.180  -0.136  -0.149
    1UNL    H23   49  -0.231  -0.330   0.097
    1UNL    H24   50  -0.081  -0.290   0.010
    1UNL    H25   51  -0.316  -0.338  -0.130
    1UNL    H26   52  -0.616   0.033   0.051
    1UNL    H27   53  -0.601  -0.065  -0.096
    1UNL    H28   54  -0.631  -0.151   0.048
   0.00000   0.00000   0.00000   0.00000   0.00000   0.00000   0.00000   0.00000   0.00000
Generated with MDTraj, t= 63.0
 54
    1UNL     C1    1  -0.295   0.219   0.168
    1UNL     C2    2  -0.179   0.224   0.064
    1UNL     C3    3  -0.185   0.108  -0.039
    1UNL     C4    4  -0.088   0.124  -0.154
    1UNL     N1    5   0.049   0.093  -0.117
    1UNL     C5    6   0.150   0.210  -0.121
    1UNL     C6    7   0.295   0.161  -0.121
    1UNL     C7    8   0.313   0.066  -0.013
    1UNL     C8    9   0.216  -0.031   0.018
    1UNL     N2   10   0.275  -0.123   0.103
    1UNL     C9   11   0.414  -0.096   0.106
    1UNL    C10   12   0.515  -0.157   0.186
    1UNL    C11   13   0.636  -0.109   0.172
    1UNL    C12   14   0.677   0.002   0.083
    1UNL    C13   15   0.575   0.070   0.024
    1UNL    C14   16   0.442   0.021   0.031
    1UNL    C15   17   0.071  -0.036  -0.035
    1UNL    C16   18  -0.031  -0.066   0.090
    1UNL    C17   19  -0.179  -0.033   0.029
    1UNL    C18   20  -0.235  -0.139  -0.065
    1UNL    C19   21  -0.211  -0.284  -0.033
    1UNL     O1   22  -0.268  -0.375  -0.126
    1UNL    C20   23  -0.389  -0.127  -0.075
    1UNL     O2   24  -0.458  -0.166  -0.170
    1UNL     O3   25  -0.447  -0.069   0.031
    1UNL    C21   26  -0.585  -0.083   0.038
    1UNL     H1   27  -0.389   0.175   0.135
    1UNL     H2   28  -0.264   0.144   0.249
    1UNL     H3   29  -0.315   0.320   0.206
    1UNL     H4   30  -0.198   0.321   0.017
    1UNL     H5   31  -0.084   0.215   0.105
    1UNL     H6   32  -0.289   0.111  -0.082
    1UNL     H7   33  -0.112   0.056  -0.235
    1UNL     H8   34  -0.102   0.227  -0.192
    1UNL     H9   35   0.126   0.283  -0.041
    1UNL    H10   36   0.123   0.260  -0.215
    1UNL    H11   37   0.367   0.238  -0.109
    1UNL    H12   38   0.326   0.113  -0.220
    1UNL    H13   39   0.234  -0.213   0.126
    1UNL    H14   40   0.501  -0.243   0.246
    1UNL    H15   41   0.718  -0.163   0.218
    1UNL    H16   42   0.779   0.037   0.076
    1UNL    H17   43   0.590   0.163  -0.024
    1UNL    H18   44   0.061  -0.122  -0.105
    1UNL    H19   45  -0.001  -0.005   0.169
    1UNL    H20   46  -0.024  -0.174   0.114
    1UNL    H21   47  -0.240  -0.029   0.121
    1UNL    H22   48  -0.208  -0.114  -0.171
    1UNL    H23   49  -0.260  -0.301   0.065
    1UNL    H24   50  -0.110  -0.324  -0.025
    1UNL    H25   51  -0.340  -0.325  -0.160
    1UNL    H26   52  -0.618  -0.085   0.140
    1UNL    H27   53  -0.625   0.013  -0.001
    1UNL    H28   54  -0.621  -0.170  -0.014
   0.00000   0.00000   0.00000   0.00000   0.00000   0.00000   0.00000   0.00000   0.00000
Generated with MDTraj, t= 64.0
 54
    1UNL     C1    1  -0.287   0.206   0.167
    1UNL     C2    2  -0.192   0.223   0.053
    1UNL     C3    3  -0.195   0.103  -0.043
    1UNL     C4    4  -0.077   0.130  -0.140
    1UNL     N1    5   0.056   0.106  -0.083
    1UNL     C5    6   0.164   0.216  -0.095
    1UNL     C6    7   0.302   0.161  -0.140
    1UNL     C7    8   0.321   0.045  -0.043
    1UNL     C8    9   0.222  -0.020   0.027
    1UNL     N2   10   0.275  -0.112   0.115
    1UNL     C9   11   0.406  -0.088   0.114
    1UNL    C10   12   0.511  -0.142   0.198
    1UNL    C11   13   0.640  -0.098   0.176
    1UNL    C12   14   0.671   0.000   0.082
    1UNL    C13   15   0.573   0.061   0.007
    1UNL    C14   16   0.442   0.011   0.020
    1UNL    C15   17   0.084  -0.034  -0.040
    1UNL    C16   18  -0.029  -0.075   0.065
    1UNL    C17   19  -0.178  -0.042   0.020
    1UNL    C18   20  -0.245  -0.145  -0.070
    1UNL    C19   21  -0.210  -0.287  -0.041
    1UNL     O1   22  -0.280  -0.378  -0.131
    1UNL    C20   23  -0.396  -0.138  -0.060
    1UNL     O2   24  -0.455  -0.169  -0.164
    1UNL     O3   25  -0.452  -0.073   0.044
    1UNL    C21   26  -0.594  -0.063   0.028
    1UNL     H1   27  -0.394   0.205   0.148
    1UNL     H2   28  -0.279   0.099   0.210
    1UNL     H3   29  -0.268   0.285   0.241
    1UNL     H4   30  -0.221   0.307  -0.009
    1UNL     H5   31  -0.099   0.235   0.100
    1UNL     H6   32  -0.290   0.096  -0.103
    1UNL     H7   33  -0.089   0.069  -0.228
    1UNL     H8   34  -0.080   0.235  -0.172
    1UNL     H9   35   0.170   0.252   0.010
    1UNL    H10   36   0.131   0.300  -0.155
    1UNL    H11   37   0.381   0.230  -0.131
    1UNL    H12   38   0.300   0.122  -0.248
    1UNL    H13   39   0.218  -0.164   0.180
    1UNL    H14   40   0.475  -0.224   0.266
    1UNL    H15   41   0.726  -0.136   0.232
    1UNL    H16   42   0.780   0.033   0.083
    1UNL    H17   43   0.586   0.150  -0.057
    1UNL    H18   44   0.088  -0.105  -0.125
    1UNL    H19   45  -0.014  -0.018   0.151
    1UNL    H20   46  -0.021  -0.183   0.086
    1UNL    H21   47  -0.220  -0.044   0.124
    1UNL    H22   48  -0.209  -0.130  -0.175
    1UNL    H23   49  -0.238  -0.328   0.058
    1UNL    H24   50  -0.104  -0.304  -0.052
    1UNL    H25   51  -0.369  -0.335  -0.157
    1UNL    H26   52  -0.652  -0.088   0.112
    1UNL    H27   53  -0.612   0.044   0.006
    1UNL    H28   54  -0.618  -0.132  -0.053
   0.00000   0.00000   0.00000   0.00000   0.00000   0.00000   0.00000   0.00000   0.00000
Generated with MDTraj, t= 65.0
 54
    1UNL     C1    1  -0.325   0.208   0.186
    1UNL     C2    2  -0.203   0.215   0.094
    1UNL     C3    3  -0.191   0.105  -0.021
    1UNL     C4    4  -0.090   0.144  -0.142
    1UNL     N1    5   0.050   0.103  -0.109
    1UNL     C5    6   0.155   0.216  -0.125
    1UNL     C6    7   0.299   0.167  -0.136
    1UNL     C7    8   0.318   0.041  -0.053
    1UNL     C8    9   0.216  -0.039  -0.006
    1UNL     N2   10   0.267  -0.123   0.085
    1UNL     C9   11   0.399  -0.096   0.103
    1UNL    C10   12   0.489  -0.148   0.197
    1UNL    C11   13   0.616  -0.097   0.195
    1UNL    C12   14   0.663  -0.000   0.098
    1UNL    C13   15   0.572   0.049   0.003
    1UNL    C14   16   0.442   0.010   0.015
    1UNL    C15   17   0.075  -0.027  -0.045
    1UNL    C16   18  -0.018  -0.076   0.071
    1UNL    C17   19  -0.161  -0.047   0.030
    1UNL    C18   20  -0.232  -0.142  -0.067
    1UNL    C19   21  -0.203  -0.289  -0.020
    1UNL     O1   22  -0.252  -0.384  -0.112
    1UNL    C20   23  -0.375  -0.121  -0.075
    1UNL     O2   24  -0.438  -0.163  -0.171
    1UNL     O3   25  -0.434  -0.064   0.033
    1UNL    C21   26  -0.571  -0.052   0.025
    1UNL     H1   27  -0.427   0.201   0.150
    1UNL     H2   28  -0.328   0.111   0.249
    1UNL     H3   29  -0.328   0.291   0.258
    1UNL     H4   30  -0.205   0.315   0.055
    1UNL     H5   31  -0.112   0.201   0.146
    1UNL     H6   32  -0.293   0.094  -0.064
    1UNL     H7   33  -0.118   0.102  -0.238
    1UNL     H8   34  -0.096   0.254  -0.153
    1UNL     H9   35   0.146   0.277  -0.032
    1UNL    H10   36   0.130   0.280  -0.210
    1UNL    H11   37   0.370   0.240  -0.103
    1UNL    H12   38   0.314   0.142  -0.246
    1UNL    H13   39   0.221  -0.184   0.151
    1UNL    H14   40   0.459  -0.214   0.272
    1UNL    H15   41   0.675  -0.122   0.280
    1UNL    H16   42   0.755   0.041   0.094
    1UNL    H17   43   0.610   0.119  -0.064
    1UNL    H18   44   0.055  -0.098  -0.128
    1UNL    H19   45   0.009  -0.026   0.159
    1UNL    H20   46  -0.003  -0.182   0.096
    1UNL    H21   47  -0.205  -0.049   0.133
    1UNL    H22   48  -0.189  -0.126  -0.170
    1UNL    H23   49  -0.254  -0.310   0.076
    1UNL    H24   50  -0.099  -0.317  -0.016
    1UNL    H25   51  -0.328  -0.347  -0.158
    1UNL    H26   52  -0.602   0.026   0.085
    1UNL    H27   53  -0.589  -0.015  -0.079
    1UNL    H28   54  -0.615  -0.147   0.060
   0.00000   0.00000   0.00000   0.00000   0.00000   0.00000   0.00000   0.00000   0.00000
Generated with MDTraj, t= 66.0
 54
    1UNL     C1    1  -0.317   0.207   0.196
    1UNL     C2    2  -0.191   0.223   0.103
    1UNL     C3    3  -0.194   0.116  -0.008
    1UNL     C4    4  -0.092   0.138  -0.127
    1UNL     N1    5   0.048   0.096  -0.112
    1UNL     C5    6   0.146   0.213  -0.131
    1UNL     C6    7   0.281   0.152  -0.162
    1UNL     C7    8   0.312   0.050  -0.051
    1UNL     C8    9   0.217  -0.044  -0.017
    1UNL     N2   10   0.274  -0.144   0.057
    1UNL     C9   11   0.405  -0.110   0.082
    1UNL    C10   12   0.495  -0.176   0.167
    1UNL    C11   13   0.614  -0.110   0.186
    1UNL    C12   14   0.644   0.013   0.125
    1UNL    C13   15   0.553   0.075   0.038
    1UNL    C14   16   0.431   0.011   0.022
    1UNL    C15   17   0.070  -0.038  -0.051
    1UNL    C16   18  -0.023  -0.046   0.083
    1UNL    C17   19  -0.169  -0.029   0.050
    1UNL    C18   20  -0.218  -0.136  -0.053
    1UNL    C19   21  -0.189  -0.283  -0.000
    1UNL     O1   22  -0.237  -0.376  -0.093
    1UNL    C20   23  -0.367  -0.120  -0.076
    1UNL     O2   24  -0.415  -0.181  -0.170
    1UNL     O3   25  -0.438  -0.051   0.019
    1UNL    C21   26  -0.579  -0.055  -0.011
    1UNL     H1   27  -0.409   0.219   0.140
    1UNL     H2   28  -0.335   0.106   0.243
    1UNL     H3   29  -0.313   0.289   0.271
    1UNL     H4   30  -0.187   0.316   0.050
    1UNL     H5   31  -0.107   0.219   0.170
    1UNL     H6   32  -0.295   0.106  -0.056
    1UNL     H7   33  -0.133   0.097  -0.218
    1UNL     H8   34  -0.085   0.246  -0.150
    1UNL     H9   35   0.152   0.279  -0.041
    1UNL    H10   36   0.116   0.273  -0.216
    1UNL    H11   37   0.359   0.226  -0.161
    1UNL    H12   38   0.279   0.094  -0.259
    1UNL    H13   39   0.229  -0.233   0.078
    1UNL    H14   40   0.458  -0.260   0.226
    1UNL    H15   41   0.688  -0.155   0.250
    1UNL    H16   42   0.744   0.067   0.146
    1UNL    H17   43   0.579   0.165  -0.024
    1UNL    H18   44   0.044  -0.117  -0.123
    1UNL    H19   45   0.015   0.022   0.156
    1UNL    H20   46   0.001  -0.137   0.136
    1UNL    H21   47  -0.237  -0.039   0.138
    1UNL    H22   48  -0.164  -0.125  -0.151
    1UNL    H23   49  -0.249  -0.298   0.093
    1UNL    H24   50  -0.083  -0.303   0.006
    1UNL    H25   51  -0.316  -0.332  -0.134
    1UNL    H26   52  -0.627   0.033   0.003
    1UNL    H27   53  -0.568  -0.060  -0.123
    1UNL    H28   54  -0.634  -0.143   0.028
   0.00000   0.00000   0.00000   0.00000   0.00000   0.00000   0.00000   0.00000   0.00000
Generated with MDTraj, t= 67.0
 54
    1UNL     C1    1  -0.268   0.228   0.194
    1UNL     C2    2  -0.178   0.235   0.072
    1UNL     C3    3  -0.190   0.116  -0.019
    1UNL     C4    4  -0.098   0.125  -0.143
    1UNL     N1    5   0.041   0.100  -0.111
    1UNL     C5    6   0.130   0.221  -0.072
    1UNL     C6    7   0.280   0.189  -0.100
    1UNL     C7    8   0.305   0.054  -0.041
    1UNL     C8    9   0.212  -0.046  -0.014
    1UNL     N2   10   0.271  -0.160   0.039
    1UNL     C9   11   0.400  -0.117   0.071
    1UNL    C10   12   0.494  -0.174   0.153
    1UNL    C11   13   0.616  -0.112   0.172
    1UNL    C12   14   0.650   0.012   0.109
    1UNL    C13   15   0.554   0.072   0.029
    1UNL    C14   16   0.427   0.012   0.018
    1UNL    C15   17   0.066  -0.033  -0.046
    1UNL    C16   18  -0.024  -0.037   0.081
    1UNL    C17   19  -0.169  -0.020   0.050
    1UNL    C18   20  -0.226  -0.141  -0.032
    1UNL    C19   21  -0.200  -0.287   0.023
    1UNL     O1   22  -0.224  -0.388  -0.081
    1UNL    C20   23  -0.373  -0.135  -0.073
    1UNL     O2   24  -0.418  -0.210  -0.161
    1UNL     O3   25  -0.449  -0.051   0.003
    1UNL    C21   26  -0.578  -0.049  -0.050
    1UNL     H1   27  -0.373   0.227   0.159
    1UNL     H2   28  -0.256   0.142   0.259
    1UNL     H3   29  -0.246   0.326   0.246
    1UNL     H4   30  -0.199   0.326   0.020
    1UNL     H5   31  -0.073   0.242   0.098
    1UNL     H6   32  -0.292   0.101  -0.060
    1UNL     H7   33  -0.120   0.054  -0.222
    1UNL     H8   34  -0.110   0.219  -0.199
    1UNL     H9   35   0.118   0.254   0.033
    1UNL    H10   36   0.111   0.309  -0.133
    1UNL    H11   37   0.361   0.250  -0.059
    1UNL    H12   38   0.292   0.172  -0.210
    1UNL    H13   39   0.219  -0.245   0.062
    1UNL    H14   40   0.466  -0.271   0.192
    1UNL    H15   41   0.695  -0.166   0.225
    1UNL    H16   42   0.752   0.034   0.110
    1UNL    H17   43   0.575   0.156  -0.033
    1UNL    H18   44   0.041  -0.108  -0.123
    1UNL    H19   45   0.015   0.037   0.148
    1UNL    H20   46  -0.005  -0.122   0.142
    1UNL    H21   47  -0.240  -0.019   0.135
    1UNL    H22   48  -0.171  -0.135  -0.130
    1UNL    H23   49  -0.289  -0.305   0.091
    1UNL    H24   50  -0.101  -0.293   0.064
    1UNL    H25   51  -0.308  -0.363  -0.129
    1UNL    H26   52  -0.649  -0.031   0.021
    1UNL    H27   53  -0.571   0.034  -0.126
    1UNL    H28   54  -0.602  -0.141  -0.112
   0.00000   0.00000   0.00000   0.00000   0.00000   0.00000   0.00000   0.00000   0.00000
Generated with MDTraj, t= 68.0
 54
    1UNL     C1    1  -0.291   0.227   0.180
    1UNL     C2    2  -0.203   0.242   0.058
    1UNL     C3    3  -0.197   0.111  -0.029
    1UNL     C4    4  -0.100   0.127  -0.153
    1UNL     N1    5   0.039   0.108  -0.114
    1UNL     C5    6   0.125   0.224  -0.065
    1UNL     C6    7   0.277   0.203  -0.067
    1UNL     C7    8   0.305   0.065  -0.014
    1UNL     C8    9   0.213  -0.038  -0.008
    1UNL     N2   10   0.271  -0.141   0.059
    1UNL     C9   11   0.407  -0.113   0.086
    1UNL    C10   12   0.515  -0.198   0.123
    1UNL    C11   13   0.639  -0.142   0.126
    1UNL    C12   14   0.663  -0.006   0.081
    1UNL    C13   15   0.561   0.074   0.044
    1UNL    C14   16   0.429   0.020   0.037
    1UNL    C15   17   0.066  -0.023  -0.041
    1UNL    C16   18  -0.026  -0.037   0.081
    1UNL    C17   19  -0.174  -0.034   0.041
    1UNL    C18   20  -0.223  -0.154  -0.041
    1UNL    C19   21  -0.199  -0.285   0.035
    1UNL     O1   22  -0.242  -0.403  -0.037
    1UNL    C20   23  -0.366  -0.141  -0.083
    1UNL     O2   24  -0.420  -0.210  -0.166
    1UNL     O3   25  -0.436  -0.044  -0.017
    1UNL    C21   26  -0.573  -0.039  -0.055
    1UNL     H1   27  -0.387   0.183   0.141
    1UNL     H2   28  -0.266   0.168   0.262
    1UNL     H3   29  -0.318   0.328   0.222
    1UNL     H4   30  -0.237   0.318  -0.010
    1UNL     H5   31  -0.100   0.284   0.075
    1UNL     H6   32  -0.296   0.098  -0.074
    1UNL     H7   33  -0.118   0.058  -0.235
    1UNL     H8   34  -0.110   0.220  -0.212
    1UNL     H9   35   0.097   0.240   0.042
    1UNL    H10   36   0.105   0.316  -0.117
    1UNL    H11   37   0.328   0.275  -0.001
    1UNL    H12   38   0.319   0.198  -0.168
    1UNL    H13   39   0.229  -0.230   0.087
    1UNL    H14   40   0.505  -0.301   0.140
    1UNL    H15   41   0.713  -0.209   0.162
    1UNL    H16   42   0.760   0.035   0.079
    1UNL    H17   43   0.579   0.179   0.026
    1UNL    H18   44   0.052  -0.104  -0.114
    1UNL    H19   45  -0.012   0.039   0.156
    1UNL    H20   46   0.003  -0.123   0.133
    1UNL    H21   47  -0.238  -0.030   0.131
    1UNL    H22   48  -0.169  -0.150  -0.139
    1UNL    H23   49  -0.248  -0.264   0.135
    1UNL    H24   50  -0.093  -0.304   0.038
    1UNL    H25   51  -0.311  -0.387  -0.102
    1UNL    H26   52  -0.615   0.017   0.022
    1UNL    H27   53  -0.580   0.001  -0.161
    1UNL    H28   54  -0.622  -0.142  -0.060
   0.00000   0.00000   0.00000   0.00000   0.00000   0.00000   0.00000   0.00000   0.00000
Generated with MDTraj, t= 69.0
 54
    1UNL     C1    1  -0.378   0.198   0.122
    1UNL     C2    2  -0.242   0.226   0.052
    1UNL     C3    3  -0.199   0.104  -0.032
    1UNL     C4    4  -0.085   0.129  -0.137
    1UNL     N1    5   0.051   0.126  -0.084
    1UNL     C5    6   0.141   0.242  -0.070
    1UNL     C6    7   0.289   0.211  -0.071
    1UNL     C7    8   0.324   0.076  -0.001
    1UNL     C8    9   0.226  -0.022   0.020
    1UNL     N2   10   0.283  -0.141   0.066
    1UNL     C9   11   0.418  -0.124   0.075
    1UNL    C10   12   0.527  -0.211   0.089
    1UNL    C11   13   0.657  -0.154   0.090
    1UNL    C12   14   0.675  -0.021   0.074
    1UNL    C13   15   0.573   0.065   0.050
    1UNL    C14   16   0.443   0.007   0.031
    1UNL    C15   17   0.080  -0.008  -0.022
    1UNL    C16   18  -0.027  -0.028   0.089
    1UNL    C17   19  -0.174  -0.031   0.046
    1UNL    C18   20  -0.230  -0.151  -0.033
    1UNL    C19   21  -0.210  -0.278   0.053
    1UNL     O1   22  -0.255  -0.397  -0.013
    1UNL    C20   23  -0.376  -0.137  -0.080
    1UNL     O2   24  -0.403  -0.199  -0.177
    1UNL     O3   25  -0.449  -0.044  -0.018
    1UNL    C21   26  -0.581  -0.043  -0.060
    1UNL     H1   27  -0.447   0.173   0.037
    1UNL     H2   28  -0.380   0.112   0.182
    1UNL     H3   29  -0.415   0.287   0.179
    1UNL     H4   30  -0.232   0.324   0.006
    1UNL     H5   31  -0.164   0.235   0.134
    1UNL     H6   32  -0.283   0.085  -0.101
    1UNL     H7   33  -0.089   0.072  -0.229
    1UNL     H8   34  -0.099   0.231  -0.175
    1UNL     H9   35   0.114   0.296   0.024
    1UNL    H10   36   0.121   0.308  -0.154
    1UNL    H11   37   0.337   0.288  -0.007
    1UNL    H12   38   0.326   0.212  -0.172
    1UNL    H13   39   0.237  -0.232   0.079
    1UNL    H14   40   0.508  -0.321   0.098
    1UNL    H15   41   0.745  -0.218   0.113
    1UNL    H16   42   0.784   0.014   0.099
    1UNL    H17   43   0.587   0.176   0.057
    1UNL    H18   44   0.072  -0.087  -0.098
    1UNL    H19   45  -0.013   0.052   0.160
    1UNL    H20   46  -0.014  -0.110   0.153
    1UNL    H21   47  -0.236  -0.026   0.138
    1UNL    H22   48  -0.165  -0.161  -0.126
    1UNL    H23   49  -0.271  -0.293   0.146
    1UNL    H24   50  -0.106  -0.283   0.071
    1UNL    H25   51  -0.328  -0.377  -0.083
    1UNL    H26   52  -0.622   0.055  -0.052
    1UNL    H27   53  -0.593  -0.104  -0.154
    1UNL    H28   54  -0.639  -0.108   0.015
   0.00000   0.00000   0.00000   0.00000   0.00000   0.00000   0.00000   0.00000   0.00000
Generated with MDTraj, t= 70.0
 54
    1UNL     C1    1  -0.390   0.240   0.067
    1UNL     C2    2  -0.239   0.231   0.048
    1UNL     C3    3  -0.194   0.114  -0.037
    1UNL     C4    4  -0.079   0.148  -0.147
    1UNL     N1    5   0.054   0.136  -0.081
    1UNL     C5    6   0.123   0.241   0.001
    1UNL     C6    7   0.275   0.211  -0.015
    1UNL     C7    8   0.310   0.063  -0.002
    1UNL     C8    9   0.217  -0.040   0.006
    1UNL     N2   10   0.279  -0.155   0.048
    1UNL     C9   11   0.417  -0.126   0.061
    1UNL    C10   12   0.526  -0.199   0.103
    1UNL    C11   13   0.656  -0.158   0.091
    1UNL    C12   14   0.675  -0.028   0.043
    1UNL    C13   15   0.566   0.054   0.013
    1UNL    C14   16   0.434   0.006   0.021
    1UNL    C15   17   0.074  -0.001  -0.026
    1UNL    C16   18  -0.015  -0.021   0.094
    1UNL    C17   19  -0.163  -0.016   0.052
    1UNL    C18   20  -0.215  -0.148  -0.021
    1UNL    C19   21  -0.217  -0.279   0.070
    1UNL     O1   22  -0.254  -0.393  -0.009
    1UNL    C20   23  -0.354  -0.143  -0.076
    1UNL     O2   24  -0.386  -0.212  -0.167
    1UNL     O3   25  -0.447  -0.059  -0.010
    1UNL    C21   26  -0.577  -0.069  -0.072
    1UNL     H1   27  -0.422   0.271  -0.036
    1UNL     H2   28  -0.449   0.151   0.087
    1UNL     H3   29  -0.417   0.325   0.131
    1UNL     H4   30  -0.207   0.327   0.009
    1UNL     H5   31  -0.181   0.226   0.145
    1UNL     H6   32  -0.277   0.092  -0.103
    1UNL     H7   33  -0.086   0.082  -0.233
    1UNL     H8   34  -0.083   0.249  -0.190
    1UNL     H9   35   0.091   0.234   0.107
    1UNL    H10   36   0.091   0.338  -0.039
    1UNL    H11   37   0.330   0.273   0.060
    1UNL    H12   38   0.302   0.246  -0.112
    1UNL    H13   39   0.237  -0.248   0.062
    1UNL    H14   40   0.523  -0.290   0.154
    1UNL    H15   41   0.736  -0.216   0.127
    1UNL    H16   42   0.770  -0.006   0.021
    1UNL    H17   43   0.590   0.147  -0.026
    1UNL    H18   44   0.044  -0.076  -0.100
    1UNL    H19   45   0.005   0.045   0.177
    1UNL    H20   46   0.005  -0.117   0.134
    1UNL    H21   47  -0.218  -0.000   0.146
    1UNL    H22   48  -0.147  -0.162  -0.109
    1UNL    H23   49  -0.301  -0.257   0.139
    1UNL    H24   50  -0.135  -0.321   0.124
    1UNL    H25   51  -0.310  -0.358  -0.076
    1UNL    H26   52  -0.660  -0.032  -0.015
    1UNL    H27   53  -0.566  -0.043  -0.180
    1UNL    H28   54  -0.597  -0.180  -0.078
   0.00000   0.00000   0.00000   0.00000   0.00000   0.00000   0.00000   0.00000   0.00000
Generated with MDTraj, t= 71.0
 54
    1UNL     C1    1  -0.373   0.275   0.062
    1UNL     C2    2  -0.228   0.237   0.040
    1UNL     C3    3  -0.206   0.107  -0.039
    1UNL     C4    4  -0.097   0.129  -0.140
    1UNL     N1    5   0.046   0.111  -0.088
    1UNL     C5    6   0.112   0.236  -0.029
    1UNL     C6    7   0.267   0.214  -0.010
    1UNL     C7    8   0.305   0.073   0.034
    1UNL     C8    9   0.216  -0.029   0.028
    1UNL     N2   10   0.283  -0.153   0.039
    1UNL     C9   11   0.419  -0.135   0.041
    1UNL    C10   12   0.529  -0.223   0.055
    1UNL    C11   13   0.654  -0.165   0.063
    1UNL    C12   14   0.666  -0.027   0.059
    1UNL    C13   15   0.564   0.059   0.047
    1UNL    C14   16   0.429   0.007   0.043
    1UNL    C15   17   0.070  -0.006  -0.005
    1UNL    C16   18  -0.033  -0.004   0.106
    1UNL    C17   19  -0.176  -0.014   0.049
    1UNL    C18   20  -0.210  -0.144  -0.028
    1UNL    C19   21  -0.191  -0.268   0.068
    1UNL     O1   22  -0.240  -0.393   0.004
    1UNL    C20   23  -0.349  -0.142  -0.083
    1UNL     O2   24  -0.378  -0.217  -0.168
    1UNL     O3   25  -0.442  -0.069  -0.012
    1UNL    C21   26  -0.569  -0.069  -0.071
    1UNL     H1   27  -0.419   0.293  -0.036
    1UNL     H2   28  -0.450   0.207   0.108
    1UNL     H3   29  -0.379   0.370   0.112
    1UNL     H4   30  -0.164   0.316   0.003
    1UNL     H5   31  -0.181   0.215   0.142
    1UNL     H6   32  -0.294   0.085  -0.099
    1UNL     H7   33  -0.107   0.055  -0.219
    1UNL     H8   34  -0.108   0.229  -0.184
    1UNL     H9   35   0.057   0.260   0.062
    1UNL    H10   36   0.098   0.324  -0.094
    1UNL    H11   37   0.317   0.301   0.041
    1UNL    H12   38   0.304   0.222  -0.109
    1UNL    H13   39   0.228  -0.235   0.070
    1UNL    H14   40   0.519  -0.328   0.091
    1UNL    H15   41   0.743  -0.230   0.070
    1UNL    H16   42   0.768   0.016   0.045
    1UNL    H17   43   0.585   0.161   0.007
    1UNL    H18   44   0.044  -0.083  -0.077
    1UNL    H19   45  -0.021   0.086   0.163
    1UNL    H20   46  -0.017  -0.086   0.174
    1UNL    H21   47  -0.245  -0.018   0.135
    1UNL    H22   48  -0.137  -0.157  -0.111
    1UNL    H23   49  -0.254  -0.275   0.158
    1UNL    H24   50  -0.090  -0.278   0.097
    1UNL    H25   51  -0.306  -0.351  -0.063
    1UNL    H26   52  -0.637  -0.144  -0.032
    1UNL    H27   53  -0.609   0.032  -0.080
    1UNL    H28   54  -0.562  -0.100  -0.178
   0.00000   0.00000   0.00000   0.00000   0.00000   0.00000   0.00000   0.00000   0.00000
Generated with MDTraj, t= 72.0
 54
    1UNL     C1    1  -0.343   0.258   0.083
    1UNL     C2    2  -0.203   0.235   0.032
    1UNL     C3    3  -0.195   0.100  -0.048
    1UNL     C4    4  -0.083   0.119  -0.154
    1UNL     N1    5   0.059   0.108  -0.102
    1UNL     C5    6   0.122   0.233  -0.056
    1UNL     C6    7   0.267   0.201  -0.007
    1UNL     C7    8   0.295   0.067   0.043
    1UNL     C8    9   0.205  -0.038   0.033
    1UNL     N2   10   0.266  -0.158   0.048
    1UNL     C9   11   0.405  -0.129   0.055
    1UNL    C10   12   0.521  -0.209   0.044
    1UNL    C11   13   0.645  -0.150   0.049
    1UNL    C12   14   0.663  -0.012   0.065
    1UNL    C13   15   0.556   0.069   0.066
    1UNL    C14   16   0.427   0.012   0.057
    1UNL    C15   17   0.069  -0.017  -0.024
    1UNL    C16   18  -0.024  -0.013   0.101
    1UNL    C17   19  -0.174  -0.016   0.051
    1UNL    C18   20  -0.225  -0.146  -0.018
    1UNL    C19   21  -0.209  -0.268   0.074
    1UNL     O1   22  -0.202  -0.385  -0.009
    1UNL    C20   23  -0.366  -0.139  -0.070
    1UNL     O2   24  -0.387  -0.216  -0.159
    1UNL     O3   25  -0.454  -0.051  -0.013
    1UNL    C21   26  -0.580  -0.066  -0.067
    1UNL     H1   27  -0.406   0.236  -0.003
    1UNL     H2   28  -0.384   0.190   0.166
    1UNL     H3   29  -0.355   0.361   0.108
    1UNL     H4   30  -0.174   0.316  -0.035
    1UNL     H5   31  -0.132   0.233   0.120
    1UNL     H6   32  -0.290   0.078  -0.097
    1UNL     H7   33  -0.095   0.043  -0.230
    1UNL     H8   34  -0.091   0.218  -0.200
    1UNL     H9   35   0.066   0.279   0.025
    1UNL    H10   36   0.104   0.301  -0.141
    1UNL    H11   37   0.293   0.271   0.078
    1UNL    H12   38   0.331   0.235  -0.083
    1UNL    H13   39   0.227  -0.248   0.015
    1UNL    H14   40   0.507  -0.314   0.049
    1UNL    H15   41   0.735  -0.206   0.053
    1UNL    H16   42   0.772   0.026   0.059
    1UNL    H17   43   0.555   0.174   0.060
    1UNL    H18   44   0.054  -0.100  -0.093
    1UNL    H19   45  -0.013   0.077   0.156
    1UNL    H20   46  -0.005  -0.106   0.156
    1UNL    H21   47  -0.242   0.003   0.135
    1UNL    H22   48  -0.162  -0.166  -0.109
    1UNL    H23   49  -0.282  -0.273   0.158
    1UNL    H24   50  -0.112  -0.268   0.119
    1UNL    H25   51  -0.263  -0.366  -0.080
    1UNL    H26   52  -0.582  -0.156  -0.133
    1UNL    H27   53  -0.660  -0.064   0.003
    1UNL    H28   54  -0.601   0.013  -0.140
   0.00000   0.00000   0.00000   0.00000   0.00000   0.00000   0.00000   0.00000   0.00000
Generated with MDTraj, t= 73.0
 54
    1UNL     C1    1  -0.329   0.253   0.123
    1UNL     C2    2  -0.240   0.244   0.000
    1UNL     C3    3  -0.201   0.106  -0.064
    1UNL     C4    4  -0.087   0.124  -0.162
    1UNL     N1    5   0.052   0.104  -0.101
    1UNL     C5    6   0.117   0.218  -0.025
    1UNL     C6    7   0.268   0.198   0.003
    1UNL     C7    8   0.299   0.063   0.014
    1UNL     C8    9   0.208  -0.039   0.011
    1UNL     N2   10   0.288  -0.153   0.044
    1UNL     C9   11   0.423  -0.126   0.061
    1UNL    C10   12   0.535  -0.209   0.081
    1UNL    C11   13   0.656  -0.147   0.099
    1UNL    C12   14   0.666  -0.007   0.071
    1UNL    C13   15   0.562   0.071   0.035
    1UNL    C14   16   0.435   0.012   0.027
    1UNL    C15   17   0.067  -0.023  -0.029
    1UNL    C16   18  -0.028  -0.022   0.093
    1UNL    C17   19  -0.174  -0.014   0.042
    1UNL    C18   20  -0.220  -0.147  -0.022
    1UNL    C19   21  -0.191  -0.276   0.056
    1UNL     O1   22  -0.238  -0.382  -0.023
    1UNL    C20   23  -0.369  -0.148  -0.060
    1UNL     O2   24  -0.408  -0.222  -0.150
    1UNL     O3   25  -0.445  -0.038  -0.015
    1UNL    C21   26  -0.577  -0.054  -0.055
    1UNL     H1   27  -0.425   0.209   0.103
    1UNL     H2   28  -0.289   0.200   0.216
    1UNL     H3   29  -0.345   0.355   0.151
    1UNL     H4   30  -0.280   0.316  -0.072
    1UNL     H5   31  -0.147   0.283   0.045
    1UNL     H6   32  -0.295   0.078  -0.113
    1UNL     H7   33  -0.093   0.052  -0.244
    1UNL     H8   34  -0.092   0.227  -0.198
    1UNL     H9   35   0.059   0.219   0.062
    1UNL    H10   36   0.094   0.315  -0.072
    1UNL    H11   37   0.294   0.259   0.095
    1UNL    H12   38   0.338   0.237  -0.067
    1UNL    H13   39   0.255  -0.251   0.039
    1UNL    H14   40   0.522  -0.316   0.082
    1UNL    H15   41   0.741  -0.197   0.147
    1UNL    H16   42   0.750   0.046   0.079
    1UNL    H17   43   0.571   0.179   0.023
    1UNL    H18   44   0.039  -0.093  -0.109
    1UNL    H19   45  -0.011   0.069   0.145
    1UNL    H20   46  -0.023  -0.116   0.152
    1UNL    H21   47  -0.243   0.009   0.123
    1UNL    H22   48  -0.170  -0.146  -0.122
    1UNL    H23   49  -0.257  -0.274   0.145
    1UNL    H24   50  -0.087  -0.288   0.086
    1UNL    H25   51  -0.321  -0.351  -0.075
    1UNL    H26   52  -0.582  -0.125  -0.142
    1UNL    H27   53  -0.634  -0.095   0.024
    1UNL    H28   54  -0.615   0.037  -0.103
   0.00000   0.00000   0.00000   0.00000   0.00000   0.00000   0.00000   0.00000   0.00000
Generated with MDTraj, t= 74.0
 54
    1UNL     C1    1  -0.336   0.204   0.138
    1UNL     C2    2  -0.214   0.210   0.049
    1UNL     C3    3  -0.205   0.105  -0.060
    1UNL     C4    4  -0.087   0.132  -0.156
    1UNL     N1    5   0.058   0.114  -0.113
    1UNL     C5    6   0.133   0.237  -0.064
    1UNL     C6    7   0.283   0.210  -0.062
    1UNL     C7    8   0.312   0.082  -0.001
    1UNL     C8    9   0.220  -0.017   0.007
    1UNL     N2   10   0.280  -0.140   0.041
    1UNL     C9   11   0.412  -0.114   0.077
    1UNL    C10   12   0.522  -0.204   0.099
    1UNL    C11   13   0.646  -0.148   0.125
    1UNL    C12   14   0.676  -0.014   0.097
    1UNL    C13   15   0.572   0.072   0.056
    1UNL    C14   16   0.440   0.019   0.043
    1UNL    C15   17   0.077  -0.016  -0.045
    1UNL    C16   18  -0.025  -0.035   0.064
    1UNL    C17   19  -0.177  -0.030   0.024
    1UNL    C18   20  -0.234  -0.159  -0.036
    1UNL    C19   21  -0.207  -0.280   0.049
    1UNL     O1   22  -0.252  -0.388  -0.018
    1UNL    C20   23  -0.381  -0.144  -0.068
    1UNL     O2   24  -0.436  -0.222  -0.142
    1UNL     O3   25  -0.434  -0.040  -0.008
    1UNL    C21   26  -0.571  -0.035  -0.037
    1UNL     H1   27  -0.427   0.199   0.083
    1UNL     H2   28  -0.348   0.119   0.210
    1UNL     H3   29  -0.347   0.292   0.201
    1UNL     H4   30  -0.206   0.310   0.005
    1UNL     H5   31  -0.128   0.199   0.114
    1UNL     H6   32  -0.303   0.102  -0.111
    1UNL     H7   33  -0.100   0.058  -0.236
    1UNL     H8   34  -0.095   0.235  -0.192
    1UNL     H9   35   0.100   0.248   0.034
    1UNL    H10   36   0.092   0.322  -0.121
    1UNL    H11   37   0.352   0.291  -0.026
    1UNL    H12   38   0.307   0.206  -0.166
    1UNL    H13   39   0.235  -0.229   0.066
    1UNL    H14   40   0.518  -0.313   0.094
    1UNL    H15   41   0.728  -0.211   0.154
    1UNL    H16   42   0.778   0.033   0.103
    1UNL    H17   43   0.585   0.176   0.034
    1UNL    H18   44   0.054  -0.089  -0.124
    1UNL    H19   45  -0.016   0.037   0.141
    1UNL    H20   46  -0.006  -0.140   0.098
    1UNL    H21   47  -0.240  -0.020   0.113
    1UNL    H22   48  -0.182  -0.172  -0.134
    1UNL    H23   49  -0.251  -0.278   0.151
    1UNL    H24   50  -0.099  -0.298   0.058
    1UNL    H25   51  -0.312  -0.372  -0.094
    1UNL    H26   52  -0.591   0.024  -0.134
    1UNL    H27   53  -0.607  -0.134  -0.051
    1UNL    H28   54  -0.615   0.037   0.033
   0.00000   0.00000   0.00000   0.00000   0.00000   0.00000   0.00000   0.00000   0.00000
Generated with MDTraj, t= 75.0
 54
    1UNL     C1    1  -0.330   0.227   0.150
    1UNL     C2    2  -0.190   0.210   0.075
    1UNL     C3    3  -0.193   0.101  -0.032
    1UNL     C4    4  -0.097   0.127  -0.148
    1UNL     N1    5   0.053   0.115  -0.117
    1UNL     C5    6   0.142   0.239  -0.082
    1UNL     C6    7   0.288   0.196  -0.084
    1UNL     C7    8   0.310   0.068  -0.024
    1UNL     C8    9   0.222  -0.039  -0.029
    1UNL     N2   10   0.280  -0.151   0.032
    1UNL     C9   11   0.407  -0.112   0.072
    1UNL    C10   12   0.503  -0.177   0.143
    1UNL    C11   13   0.629  -0.120   0.159
    1UNL    C12   14   0.659   0.003   0.108
    1UNL    C13   15   0.560   0.080   0.046
    1UNL    C14   16   0.436   0.021   0.028
    1UNL    C15   17   0.075  -0.027  -0.058
    1UNL    C16   18  -0.009  -0.061   0.068
    1UNL    C17   19  -0.157  -0.035   0.036
    1UNL    C18   20  -0.225  -0.155  -0.033
    1UNL    C19   21  -0.204  -0.294   0.031
    1UNL     O1   22  -0.271  -0.395  -0.047
    1UNL    C20   23  -0.369  -0.134  -0.066
    1UNL     O2   24  -0.426  -0.205  -0.147
    1UNL     O3   25  -0.441  -0.039   0.006
    1UNL    C21   26  -0.579  -0.042  -0.031
    1UNL     H1   27  -0.391   0.307   0.111
    1UNL     H2   28  -0.383   0.136   0.137
    1UNL     H3   29  -0.322   0.252   0.258
    1UNL     H4   30  -0.168   0.309   0.029
    1UNL     H5   31  -0.110   0.191   0.145
    1UNL     H6   32  -0.296   0.085  -0.072
    1UNL     H7   33  -0.121   0.056  -0.228
    1UNL     H8   34  -0.117   0.227  -0.186
    1UNL     H9   35   0.111   0.277   0.011
    1UNL    H10   36   0.125   0.313  -0.162
    1UNL    H11   37   0.342   0.277  -0.028
    1UNL    H12   38   0.337   0.193  -0.181
    1UNL    H13   39   0.242  -0.246   0.024
    1UNL    H14   40   0.465  -0.262   0.191
    1UNL    H15   41   0.702  -0.173   0.219
    1UNL    H16   42   0.767   0.041   0.104
    1UNL    H17   43   0.583   0.176   0.000
    1UNL    H18   44   0.041  -0.095  -0.138
    1UNL    H19   45   0.027   0.001   0.145
    1UNL    H20   46   0.007  -0.167   0.102
    1UNL    H21   47  -0.212  -0.046   0.130
    1UNL    H22   48  -0.166  -0.154  -0.128
    1UNL    H23   49  -0.248  -0.300   0.133
    1UNL    H24   50  -0.098  -0.325   0.034
    1UNL    H25   51  -0.361  -0.370  -0.081
    1UNL    H26   52  -0.599   0.062  -0.080
    1UNL    H27   53  -0.597  -0.119  -0.102
    1UNL    H28   54  -0.636  -0.034   0.062
   0.00000   0.00000   0.00000   0.00000   0.00000   0.00000   0.00000   0.00000   0.00000
Generated with MDTraj, t= 76.0
 54
    1UNL     C1    1  -0.286   0.240   0.181
    1UNL     C2    2  -0.183   0.230   0.067
    1UNL     C3    3  -0.196   0.106  -0.020
    1UNL     C4    4  -0.104   0.110  -0.147
    1UNL     N1    5   0.042   0.084  -0.120
    1UNL     C5    6   0.129   0.206  -0.067
    1UNL     C6    7   0.279   0.180  -0.114
    1UNL     C7    8   0.311   0.046  -0.056
    1UNL     C8    9   0.221  -0.057  -0.027
    1UNL     N2   10   0.282  -0.157   0.045
    1UNL     C9   11   0.414  -0.117   0.071
    1UNL    C10   12   0.511  -0.172   0.164
    1UNL    C11   13   0.624  -0.097   0.176
    1UNL    C12   14   0.635   0.036   0.124
    1UNL    C13   15   0.538   0.088   0.044
    1UNL    C14   16   0.431   0.012   0.012
    1UNL    C15   17   0.071  -0.050  -0.059
    1UNL    C16   18  -0.012  -0.058   0.071
    1UNL    C17   19  -0.167  -0.037   0.041
    1UNL    C18   20  -0.224  -0.147  -0.055
    1UNL    C19   21  -0.210  -0.288   0.012
    1UNL     O1   22  -0.244  -0.395  -0.075
    1UNL    C20   23  -0.375  -0.122  -0.070
    1UNL     O2   24  -0.413  -0.168  -0.176
    1UNL     O3   25  -0.441  -0.057   0.034
    1UNL    C21   26  -0.575  -0.033  -0.009
    1UNL     H1   27  -0.378   0.189   0.162
    1UNL     H2   28  -0.242   0.192   0.262
    1UNL     H3   29  -0.314   0.347   0.199
    1UNL     H4   30  -0.191   0.318  -0.000
    1UNL     H5   31  -0.085   0.240   0.112
    1UNL     H6   32  -0.304   0.107  -0.053
    1UNL     H7   33  -0.135   0.042  -0.227
    1UNL     H8   34  -0.112   0.206  -0.197
    1UNL     H9   35   0.125   0.198   0.038
    1UNL    H10   36   0.084   0.299  -0.103
    1UNL    H11   37   0.352   0.262  -0.087
    1UNL    H12   38   0.276   0.183  -0.221
    1UNL    H13   39   0.240  -0.232   0.098
    1UNL    H14   40   0.477  -0.248   0.239
    1UNL    H15   41   0.694  -0.132   0.249
    1UNL    H16   42   0.721   0.086   0.128
    1UNL    H17   43   0.554   0.179  -0.015
    1UNL    H18   44   0.050  -0.134  -0.127
    1UNL    H19   45   0.019   0.013   0.145
    1UNL    H20   46   0.017  -0.155   0.117
    1UNL    H21   47  -0.221  -0.054   0.133
    1UNL    H22   48  -0.156  -0.136  -0.144
    1UNL    H23   49  -0.279  -0.284   0.099
    1UNL    H24   50  -0.107  -0.309   0.045
    1UNL    H25   51  -0.304  -0.353  -0.141
    1UNL    H26   52  -0.568   0.025  -0.112
    1UNL    H27   53  -0.627  -0.122  -0.034
    1UNL    H28   54  -0.622   0.023   0.076
   0.00000   0.00000   0.00000   0.00000   0.00000   0.00000   0.00000   0.00000   0.00000
Generated with MDTraj, t= 77.0
 54
    1UNL     C1    1  -0.247   0.211   0.208
    1UNL     C2    2  -0.162   0.217   0.083
    1UNL     C3    3  -0.183   0.102  -0.025
    1UNL     C4    4  -0.103   0.101  -0.163
    1UNL     N1    5   0.039   0.077  -0.141
    1UNL     C5    6   0.117   0.203  -0.134
    1UNL     C6    7   0.272   0.176  -0.129
    1UNL     C7    8   0.308   0.053  -0.048
    1UNL     C8    9   0.214  -0.037  -0.006
    1UNL     N2   10   0.270  -0.135   0.071
    1UNL     C9   11   0.400  -0.106   0.090
    1UNL    C10   12   0.504  -0.171   0.168
    1UNL    C11   13   0.625  -0.102   0.180
    1UNL    C12   14   0.653   0.029   0.127
    1UNL    C13   15   0.553   0.088   0.056
    1UNL    C14   16   0.431   0.016   0.018
    1UNL    C15   17   0.074  -0.038  -0.050
    1UNL    C16   18  -0.013  -0.054   0.078
    1UNL    C17   19  -0.167  -0.036   0.043
    1UNL    C18   20  -0.230  -0.139  -0.055
    1UNL    C19   21  -0.214  -0.284  -0.002
    1UNL     O1   22  -0.251  -0.384  -0.099
    1UNL    C20   23  -0.376  -0.119  -0.073
    1UNL     O2   24  -0.424  -0.164  -0.175
    1UNL     O3   25  -0.446  -0.062   0.033
    1UNL    C21   26  -0.583  -0.050   0.003
    1UNL     H1   27  -0.354   0.197   0.202
    1UNL     H2   28  -0.213   0.132   0.266
    1UNL     H3   29  -0.242   0.301   0.271
    1UNL     H4   30  -0.172   0.316   0.033
    1UNL     H5   31  -0.056   0.222   0.102
    1UNL     H6   32  -0.290   0.115  -0.057
    1UNL     H7   33  -0.142   0.029  -0.237
    1UNL     H8   34  -0.114   0.190  -0.225
    1UNL     H9   35   0.083   0.264  -0.053
    1UNL    H10   36   0.088   0.256  -0.225
    1UNL    H11   37   0.326   0.268  -0.094
    1UNL    H12   38   0.310   0.153  -0.229
    1UNL    H13   39   0.219  -0.202   0.127
    1UNL    H14   40   0.474  -0.254   0.224
    1UNL    H15   41   0.703  -0.136   0.245
    1UNL    H16   42   0.754   0.078   0.141
    1UNL    H17   43   0.586   0.176   0.008
    1UNL    H18   44   0.057  -0.125  -0.116
    1UNL    H19   45   0.019   0.027   0.144
    1UNL    H20   46   0.000  -0.146   0.137
    1UNL    H21   47  -0.221  -0.039   0.136
    1UNL    H22   48  -0.178  -0.125  -0.152
    1UNL    H23   49  -0.285  -0.298   0.081
    1UNL    H24   50  -0.109  -0.307   0.028
    1UNL    H25   51  -0.337  -0.362  -0.142
    1UNL    H26   52  -0.605  -0.018  -0.110
    1UNL    H27   53  -0.632  -0.142   0.018
    1UNL    H28   54  -0.623   0.014   0.084
   0.00000   0.00000   0.00000   0.00000   0.00000   0.00000   0.00000   0.00000   0.00000
Generated with MDTraj, t= 78.0
 54
    1UNL     C1    1  -0.228   0.208   0.218
    1UNL     C2    2  -0.148   0.219   0.078
    1UNL     C3    3  -0.187   0.105  -0.029
    1UNL     C4    4  -0.092   0.124  -0.152
    1UNL     N1    5   0.049   0.118  -0.109
    1UNL     C5    6   0.144   0.233  -0.143
    1UNL     C6    7   0.285   0.170  -0.137
    1UNL     C7    8   0.311   0.058  -0.033
    1UNL     C8    9   0.217  -0.035  -0.001
    1UNL     N2   10   0.270  -0.127   0.093
    1UNL     C9   11   0.400  -0.085   0.120
    1UNL    C10   12   0.500  -0.155   0.191
    1UNL    C11   13   0.622  -0.105   0.177
    1UNL    C12   14   0.650   0.009   0.095
    1UNL    C13   15   0.550   0.078   0.030
    1UNL    C14   16   0.426   0.018   0.033
    1UNL    C15   17   0.076  -0.029  -0.063
    1UNL    C16   18  -0.024  -0.065   0.054
    1UNL    C17   19  -0.169  -0.037   0.025
    1UNL    C18   20  -0.230  -0.153  -0.061
    1UNL    C19   21  -0.208  -0.297  -0.016
    1UNL     O1   22  -0.281  -0.392  -0.092
    1UNL    C20   23  -0.382  -0.139  -0.073
    1UNL     O2   24  -0.449  -0.193  -0.160
    1UNL     O3   25  -0.447  -0.063   0.017
    1UNL    C21   26  -0.592  -0.060   0.003
    1UNL     H1   27  -0.327   0.247   0.209
    1UNL     H2   28  -0.235   0.103   0.237
    1UNL     H3   29  -0.184   0.266   0.299
    1UNL     H4   30  -0.168   0.320   0.035
    1UNL     H5   31  -0.041   0.228   0.096
    1UNL     H6   32  -0.292   0.122  -0.064
    1UNL     H7   33  -0.104   0.041  -0.224
    1UNL     H8   34  -0.116   0.210  -0.214
    1UNL     H9   35   0.126   0.303  -0.062
    1UNL    H10   36   0.128   0.283  -0.237
    1UNL    H11   37   0.360   0.247  -0.108
    1UNL    H12   38   0.309   0.130  -0.235
    1UNL    H13   39   0.226  -0.214   0.121
    1UNL    H14   40   0.485  -0.242   0.259
    1UNL    H15   41   0.703  -0.132   0.246
    1UNL    H16   42   0.757   0.031   0.090
    1UNL    H17   43   0.565   0.175  -0.026
    1UNL    H18   44   0.068  -0.101  -0.147
    1UNL    H19   45  -0.008   0.002   0.143
    1UNL    H20   46  -0.015  -0.167   0.089
    1UNL    H21   47  -0.224  -0.036   0.119
    1UNL    H22   48  -0.194  -0.148  -0.166
    1UNL    H23   49  -0.232  -0.313   0.090
    1UNL    H24   50  -0.104  -0.324  -0.046
    1UNL    H25   51  -0.364  -0.358  -0.136
    1UNL    H26   52  -0.636   0.021  -0.072
    1UNL    H27   53  -0.631  -0.150  -0.034
    1UNL    H28   54  -0.632  -0.057   0.103
   0.00000   0.00000   0.00000   0.00000   0.00000   0.00000   0.00000   0.00000   0.00000
Generated with MDTraj, t= 79.0
 54
    1UNL     C1    1  -0.275   0.190   0.202
    1UNL     C2    2  -0.179   0.216   0.084
    1UNL     C3    3  -0.191   0.106  -0.023
    1UNL     C4    4  -0.101   0.122  -0.154
    1UNL     N1    5   0.041   0.097  -0.120
    1UNL     C5    6   0.141   0.216  -0.104
    1UNL     C6    7   0.281   0.169  -0.145
    1UNL     C7    8   0.319   0.060  -0.042
    1UNL     C8    9   0.218  -0.028  -0.001
    1UNL     N2   10   0.271  -0.120   0.093
    1UNL     C9   11   0.407  -0.089   0.119
    1UNL    C10   12   0.511  -0.145   0.197
    1UNL    C11   13   0.636  -0.087   0.194
    1UNL    C12   14   0.672   0.008   0.094
    1UNL    C13   15   0.577   0.055   0.007
    1UNL    C14   16   0.442   0.005   0.017
    1UNL    C15   17   0.074  -0.031  -0.059
    1UNL    C16   18  -0.016  -0.060   0.062
    1UNL    C17   19  -0.164  -0.039   0.035
    1UNL    C18   20  -0.239  -0.150  -0.055
    1UNL    C19   21  -0.207  -0.295  -0.020
    1UNL     O1   22  -0.267  -0.389  -0.103
    1UNL    C20   23  -0.393  -0.129  -0.074
    1UNL     O2   24  -0.456  -0.180  -0.165
    1UNL     O3   25  -0.447  -0.054   0.018
    1UNL    C21   26  -0.583  -0.049   0.004
    1UNL     H1   27  -0.376   0.160   0.185
    1UNL     H2   28  -0.228   0.111   0.265
    1UNL     H3   29  -0.286   0.285   0.251
    1UNL     H4   30  -0.203   0.316   0.037
    1UNL     H5   31  -0.076   0.230   0.119
    1UNL     H6   32  -0.297   0.116  -0.057
    1UNL     H7   33  -0.133   0.049  -0.230
    1UNL     H8   34  -0.112   0.219  -0.203
    1UNL     H9   35   0.155   0.253  -0.001
    1UNL    H10   36   0.108   0.293  -0.169
    1UNL    H11   37   0.358   0.247  -0.144
    1UNL    H12   38   0.275   0.110  -0.239
    1UNL    H13   39   0.214  -0.182   0.149
    1UNL    H14   40   0.487  -0.218   0.271
    1UNL    H15   41   0.703  -0.115   0.269
    1UNL    H16   42   0.771   0.035   0.088
    1UNL    H17   43   0.616   0.127  -0.056
    1UNL    H18   44   0.070  -0.114  -0.132
    1UNL    H19   45   0.019   0.021   0.135
    1UNL    H20   46  -0.003  -0.157   0.108
    1UNL    H21   47  -0.213  -0.045   0.133
    1UNL    H22   48  -0.201  -0.136  -0.158
    1UNL    H23   49  -0.258  -0.315   0.075
    1UNL    H24   50  -0.098  -0.316  -0.031
    1UNL    H25   51  -0.338  -0.345  -0.152
    1UNL    H26   52  -0.622  -0.051  -0.106
    1UNL    H27   53  -0.626  -0.124   0.061
    1UNL    H28   54  -0.616   0.037   0.059
   0.00000   0.00000   0.00000   0.00000   0.00000   0.00000   0.00000   0.00000   0.00000
Generated with MDTraj, t= 80.0
 54
    1UNL     C1    1  -0.319   0.205   0.165
    1UNL     C2    2  -0.194   0.220   0.085
    1UNL     C3    3  -0.196   0.098  -0.012
    1UNL     C4    4  -0.104   0.118  -0.138
    1UNL     N1    5   0.037   0.101  -0.109
    1UNL     C5    6   0.145   0.216  -0.096
    1UNL     C6    7   0.282   0.156  -0.141
    1UNL     C7    8   0.311   0.034  -0.048
    1UNL     C8    9   0.217  -0.053   0.003
    1UNL     N2   10   0.273  -0.142   0.090
    1UNL     C9   11   0.408  -0.103   0.102
    1UNL    C10   12   0.518  -0.159   0.173
    1UNL    C11   13   0.632  -0.073   0.179
    1UNL    C12   14   0.657   0.029   0.095
    1UNL    C13   15   0.559   0.068   0.007
    1UNL    C14   16   0.434   0.003   0.014
    1UNL    C15   17   0.073  -0.033  -0.043
    1UNL    C16   18  -0.020  -0.057   0.079
    1UNL    C17   19  -0.170  -0.045   0.048
    1UNL    C18   20  -0.226  -0.153  -0.058
    1UNL    C19   21  -0.203  -0.290  -0.007
    1UNL     O1   22  -0.237  -0.384  -0.108
    1UNL    C20   23  -0.377  -0.122  -0.078
    1UNL     O2   24  -0.437  -0.173  -0.173
    1UNL     O3   25  -0.433  -0.040   0.029
    1UNL    C21   26  -0.569  -0.030   0.002
    1UNL     H1   27  -0.416   0.182   0.124
    1UNL     H2   28  -0.313   0.125   0.245
    1UNL     H3   29  -0.343   0.298   0.208
    1UNL     H4   30  -0.196   0.313   0.024
    1UNL     H5   31  -0.100   0.225   0.141
    1UNL     H6   32  -0.301   0.108  -0.051
    1UNL     H7   33  -0.131   0.050  -0.221
    1UNL     H8   34  -0.119   0.220  -0.173
    1UNL     H9   35   0.147   0.233   0.013
    1UNL    H10   36   0.137   0.311  -0.143
    1UNL    H11   37   0.366   0.223  -0.127
    1UNL    H12   38   0.273   0.116  -0.245
    1UNL    H13   39   0.245  -0.227   0.141
    1UNL    H14   40   0.503  -0.243   0.239
    1UNL    H15   41   0.706  -0.107   0.255
    1UNL    H16   42   0.768   0.057   0.074
    1UNL    H17   43   0.580   0.122  -0.090
    1UNL    H18   44   0.060  -0.102  -0.128
    1UNL    H19   45   0.005   0.019   0.162
    1UNL    H20   46   0.013  -0.153   0.117
    1UNL    H21   47  -0.228  -0.056   0.140
    1UNL    H22   48  -0.171  -0.136  -0.152
    1UNL    H23   49  -0.268  -0.302   0.078
    1UNL    H24   50  -0.092  -0.301   0.008
    1UNL    H25   51  -0.334  -0.360  -0.129
    1UNL    H26   52  -0.582  -0.001  -0.108
    1UNL    H27   53  -0.620  -0.116   0.031
    1UNL    H28   54  -0.618   0.044   0.062
   0.00000   0.00000   0.00000   0.00000   0.00000   0.00000   0.00000   0.00000   0.00000
Generated with MDTraj, t= 81.0
 54
    1UNL     C1    1  -0.327   0.258   0.157
    1UNL     C2    2  -0.189   0.225   0.087
    1UNL     C3    3  -0.195   0.100  -0.006
    1UNL     C4    4  -0.105   0.129  -0.130
    1UNL     N1    5   0.039   0.108  -0.105
    1UNL     C5    6   0.144   0.217  -0.095
    1UNL     C6    7   0.291   0.178  -0.129
    1UNL     C7    8   0.312   0.055  -0.040
    1UNL     C8    9   0.220  -0.046  -0.025
    1UNL     N2   10   0.273  -0.136   0.062
    1UNL     C9   11   0.407  -0.112   0.097
    1UNL    C10   12   0.515  -0.173   0.157
    1UNL    C11   13   0.639  -0.109   0.157
    1UNL    C12   14   0.658   0.019   0.102
    1UNL    C13   15   0.556   0.069   0.023
    1UNL    C14   16   0.432   0.007   0.024
    1UNL    C15   17   0.073  -0.031  -0.050
    1UNL    C16   18  -0.013  -0.052   0.085
    1UNL    C17   19  -0.161  -0.036   0.055
    1UNL    C18   20  -0.225  -0.149  -0.035
    1UNL    C19   21  -0.198  -0.287   0.009
    1UNL     O1   22  -0.248  -0.388  -0.086
    1UNL    C20   23  -0.378  -0.133  -0.070
    1UNL     O2   24  -0.418  -0.200  -0.163
    1UNL     O3   25  -0.457  -0.069   0.020
    1UNL    C21   26  -0.579  -0.051  -0.037
    1UNL     H1   27  -0.385   0.336   0.109
    1UNL     H2   28  -0.388   0.162   0.147
    1UNL     H3   29  -0.311   0.295   0.254
    1UNL     H4   30  -0.162   0.316   0.030
    1UNL     H5   31  -0.115   0.212   0.167
    1UNL     H6   32  -0.300   0.096  -0.043
    1UNL     H7   33  -0.138   0.054  -0.205
    1UNL     H8   34  -0.125   0.227  -0.175
    1UNL     H9   35   0.146   0.257   0.009
    1UNL    H10   36   0.112   0.296  -0.155
    1UNL    H11   37   0.366   0.249  -0.104
    1UNL    H12   38   0.304   0.136  -0.234
    1UNL    H13   39   0.234  -0.230   0.077
    1UNL    H14   40   0.494  -0.256   0.228
    1UNL    H15   41   0.712  -0.145   0.223
    1UNL    H16   42   0.755   0.052   0.096
    1UNL    H17   43   0.585   0.142  -0.051
    1UNL    H18   44   0.041  -0.105  -0.124
    1UNL    H19   45   0.026   0.035   0.149
    1UNL    H20   46   0.013  -0.142   0.141
    1UNL    H21   47  -0.220  -0.049   0.147
    1UNL    H22   48  -0.168  -0.139  -0.129
    1UNL    H23   49  -0.256  -0.297   0.099
    1UNL    H24   50  -0.088  -0.307   0.020
    1UNL    H25   51  -0.316  -0.344  -0.136
    1UNL    H26   52  -0.577   0.056  -0.077
    1UNL    H27   53  -0.617  -0.126  -0.102
    1UNL    H28   54  -0.648  -0.050   0.044
   0.00000   0.00000   0.00000   0.00000   0.00000   0.00000   0.00000   0.00000   0.00000
Generated with MDTraj, t= 82.0
 54
    1UNL     C1    1  -0.311   0.263   0.152
    1UNL     C2    2  -0.188   0.231   0.064
    1UNL     C3    3  -0.197   0.104  -0.024
    1UNL     C4    4  -0.102   0.117  -0.148
    1UNL     N1    5   0.044   0.114  -0.112
    1UNL     C5    6   0.116   0.232  -0.067
    1UNL     C6    7   0.265   0.209  -0.069
    1UNL     C7    8   0.308   0.062  -0.030
    1UNL     C8    9   0.215  -0.035  -0.004
    1UNL     N2   10   0.274  -0.148   0.050
    1UNL     C9   11   0.404  -0.107   0.080
    1UNL    C10   12   0.506  -0.191   0.125
    1UNL    C11   13   0.628  -0.141   0.143
    1UNL    C12   14   0.657  -0.011   0.091
    1UNL    C13   15   0.564   0.073   0.034
    1UNL    C14   16   0.433   0.016   0.022
    1UNL    C15   17   0.077  -0.020  -0.050
    1UNL    C16   18  -0.013  -0.036   0.078
    1UNL    C17   19  -0.164  -0.029   0.046
    1UNL    C18   20  -0.220  -0.155  -0.042
    1UNL    C19   21  -0.211  -0.276   0.043
    1UNL     O1   22  -0.232  -0.389  -0.036
    1UNL    C20   23  -0.362  -0.141  -0.090
    1UNL     O2   24  -0.410  -0.191  -0.189
    1UNL     O3   25  -0.438  -0.069   0.003
    1UNL    C21   26  -0.578  -0.080  -0.019
    1UNL     H1   27  -0.400   0.284   0.090
    1UNL     H2   28  -0.337   0.170   0.210
    1UNL     H3   29  -0.297   0.350   0.210
    1UNL     H4   30  -0.185   0.316  -0.009
    1UNL     H5   31  -0.099   0.228   0.129
    1UNL     H6   32  -0.303   0.099  -0.055
    1UNL     H7   33  -0.114   0.033  -0.219
    1UNL     H8   34  -0.129   0.205  -0.209
    1UNL     H9   35   0.072   0.258   0.032
    1UNL    H10   36   0.092   0.313  -0.129
    1UNL    H11   37   0.322   0.273  -0.007
    1UNL    H12   38   0.300   0.219  -0.177
    1UNL    H13   39   0.223  -0.234   0.077
    1UNL    H14   40   0.485  -0.284   0.162
    1UNL    H15   41   0.697  -0.203   0.202
    1UNL    H16   42   0.765   0.014   0.094
    1UNL    H17   43   0.594   0.161  -0.017
    1UNL    H18   44   0.053  -0.106  -0.115
    1UNL    H19   45   0.012   0.045   0.153
    1UNL    H20   46   0.016  -0.134   0.125
    1UNL    H21   47  -0.218  -0.038   0.143
    1UNL    H22   48  -0.159  -0.173  -0.133
    1UNL    H23   49  -0.285  -0.276   0.120
    1UNL    H24   50  -0.101  -0.284   0.073
    1UNL    H25   51  -0.317  -0.395  -0.095
    1UNL    H26   52  -0.610  -0.039  -0.116
    1UNL    H27   53  -0.619  -0.176   0.009
    1UNL    H28   54  -0.627  -0.011   0.049
   0.00000   0.00000   0.00000   0.00000   0.00000   0.00000   0.00000   0.00000   0.00000
Generated with MDTraj, t= 83.0
 54
    1UNL     C1    1  -0.327   0.228   0.142
    1UNL     C2    2  -0.224   0.238   0.027
    1UNL     C3    3  -0.190   0.111  -0.056
    1UNL     C4    4  -0.079   0.115  -0.160
    1UNL     N1    5   0.055   0.110  -0.105
    1UNL     C5    6   0.122   0.234  -0.055
    1UNL     C6    7   0.269   0.211  -0.036
    1UNL     C7    8   0.303   0.067   0.009
    1UNL     C8    9   0.214  -0.037   0.003
    1UNL     N2   10   0.277  -0.150   0.039
    1UNL     C9   11   0.412  -0.129   0.059
    1UNL    C10   12   0.527  -0.209   0.076
    1UNL    C11   13   0.646  -0.151   0.101
    1UNL    C12   14   0.657  -0.008   0.089
    1UNL    C13   15   0.549   0.073   0.065
    1UNL    C14   16   0.429   0.008   0.032
    1UNL    C15   17   0.077  -0.016  -0.031
    1UNL    C16   18  -0.015  -0.012   0.085
    1UNL    C17   19  -0.170  -0.009   0.042
    1UNL    C18   20  -0.221  -0.141  -0.033
    1UNL    C19   21  -0.187  -0.267   0.051
    1UNL     O1   22  -0.252  -0.378  -0.004
    1UNL    C20   23  -0.367  -0.143  -0.074
    1UNL     O2   24  -0.399  -0.199  -0.175
    1UNL     O3   25  -0.451  -0.078   0.005
    1UNL    C21   26  -0.589  -0.080  -0.044
    1UNL     H1   27  -0.403   0.146   0.138
    1UNL     H2   28  -0.282   0.213   0.238
    1UNL     H3   29  -0.387   0.317   0.142
    1UNL     H4   30  -0.249   0.314  -0.050
    1UNL     H5   31  -0.125   0.266   0.068
    1UNL     H6   32  -0.285   0.084  -0.104
    1UNL     H7   33  -0.098   0.052  -0.250
    1UNL     H8   34  -0.075   0.217  -0.203
    1UNL     H9   35   0.076   0.270   0.040
    1UNL    H10   36   0.095   0.311  -0.122
    1UNL    H11   37   0.313   0.285   0.026
    1UNL    H12   38   0.321   0.215  -0.137
    1UNL    H13   39   0.225  -0.238   0.055
    1UNL    H14   40   0.509  -0.321   0.089
    1UNL    H15   41   0.732  -0.200   0.144
    1UNL    H16   42   0.761   0.026   0.105
    1UNL    H17   43   0.553   0.186   0.066
    1UNL    H18   44   0.050  -0.096  -0.101
    1UNL    H19   45   0.009   0.088   0.127
    1UNL    H20   46   0.002  -0.091   0.166
    1UNL    H21   47  -0.222   0.003   0.139
    1UNL    H22   48  -0.159  -0.142  -0.125
    1UNL    H23   49  -0.240  -0.242   0.142
    1UNL    H24   50  -0.074  -0.281   0.063
    1UNL    H25   51  -0.313  -0.354  -0.072
    1UNL    H26   52  -0.605  -0.130  -0.140
    1UNL    H27   53  -0.650  -0.130   0.032
    1UNL    H28   54  -0.621   0.025  -0.064
   0.00000   0.00000   0.00000   0.00000   0.00000   0.00000   0.00000   0.00000   0.00000
Generated with MDTraj, t= 84.0
 54
    1UNL     C1    1  -0.377   0.235   0.092
    1UNL     C2    2  -0.235   0.232   0.027
    1UNL     C3    3  -0.194   0.102  -0.051
    1UNL     C4    4  -0.077   0.131  -0.156
    1UNL     N1    5   0.068   0.122  -0.117
    1UNL     C5    6   0.127   0.239  -0.046
    1UNL     C6    7   0.277   0.216  -0.004
    1UNL     C7    8   0.308   0.071   0.026
    1UNL     C8    9   0.218  -0.029   0.007
    1UNL     N2   10   0.284  -0.148   0.022
    1UNL     C9   11   0.416  -0.130   0.052
    1UNL    C10   12   0.527  -0.214   0.064
    1UNL    C11   13   0.652  -0.155   0.073
    1UNL    C12   14   0.667  -0.014   0.083
    1UNL    C13   15   0.561   0.067   0.072
    1UNL    C14   16   0.436   0.009   0.043
    1UNL    C15   17   0.079  -0.000  -0.029
    1UNL    C16   18  -0.023  -0.013   0.087
    1UNL    C17   19  -0.173  -0.020   0.042
    1UNL    C18   20  -0.214  -0.156  -0.032
    1UNL    C19   21  -0.211  -0.273   0.071
    1UNL     O1   22  -0.256  -0.392   0.001
    1UNL    C20   23  -0.363  -0.144  -0.068
    1UNL     O2   24  -0.398  -0.226  -0.150
    1UNL     O3   25  -0.444  -0.053  -0.003
    1UNL    C21   26  -0.580  -0.063  -0.043
    1UNL     H1   27  -0.440   0.195   0.009
    1UNL     H2   28  -0.389   0.174   0.179
    1UNL     H3   29  -0.411   0.338   0.108
    1UNL     H4   30  -0.230   0.318  -0.044
    1UNL     H5   31  -0.158   0.245   0.106
    1UNL     H6   32  -0.281   0.064  -0.106
    1UNL     H7   33  -0.083   0.067  -0.246
    1UNL     H8   34  -0.097   0.231  -0.199
    1UNL     H9   35   0.060   0.271   0.036
    1UNL    H10   36   0.130   0.320  -0.114
    1UNL    H11   37   0.295   0.269   0.086
    1UNL    H12   38   0.339   0.260  -0.089
    1UNL    H13   39   0.240  -0.238  -0.002
    1UNL    H14   40   0.511  -0.318   0.067
    1UNL    H15   41   0.733  -0.223   0.090
    1UNL    H16   42   0.757   0.036   0.073
    1UNL    H17   43   0.572   0.169   0.071
    1UNL    H18   44   0.055  -0.076  -0.105
    1UNL    H19   45  -0.015   0.065   0.165
    1UNL    H20   46   0.008  -0.111   0.140
    1UNL    H21   47  -0.233  -0.008   0.136
    1UNL    H22   48  -0.145  -0.169  -0.119
    1UNL    H23   49  -0.278  -0.256   0.156
    1UNL    H24   50  -0.103  -0.294   0.104
    1UNL    H25   51  -0.304  -0.361  -0.084
    1UNL    H26   52  -0.599  -0.160  -0.085
    1UNL    H27   53  -0.645  -0.056   0.049
    1UNL    H28   54  -0.593   0.019  -0.121
   0.00000   0.00000   0.00000   0.00000   0.00000   0.00000   0.00000   0.00000   0.00000
Generated with MDTraj, t= 85.0
 54
    1UNL     C1    1  -0.381   0.261   0.050
    1UNL     C2    2  -0.235   0.224   0.039
    1UNL     C3    3  -0.198   0.105  -0.055
    1UNL     C4    4  -0.083   0.131  -0.151
    1UNL     N1    5   0.054   0.116  -0.091
    1UNL     C5    6   0.115   0.222   0.001
    1UNL     C6    7   0.270   0.215   0.011
    1UNL     C7    8   0.310   0.074   0.024
    1UNL     C8    9   0.219  -0.029   0.008
    1UNL     N2   10   0.284  -0.152   0.012
    1UNL     C9   11   0.422  -0.123   0.035
    1UNL    C10   12   0.529  -0.208   0.061
    1UNL    C11   13   0.655  -0.154   0.081
    1UNL    C12   14   0.675  -0.017   0.072
    1UNL    C13   15   0.566   0.069   0.056
    1UNL    C14   16   0.441   0.016   0.033
    1UNL    C15   17   0.078  -0.015  -0.031
    1UNL    C16   18  -0.022  -0.023   0.078
    1UNL    C17   19  -0.169  -0.017   0.035
    1UNL    C18   20  -0.225  -0.154  -0.023
    1UNL    C19   21  -0.203  -0.273   0.075
    1UNL     O1   22  -0.234  -0.404   0.011
    1UNL    C20   23  -0.367  -0.144  -0.069
    1UNL     O2   24  -0.406  -0.228  -0.150
    1UNL     O3   25  -0.445  -0.049  -0.008
    1UNL    C21   26  -0.573  -0.045  -0.055
    1UNL     H1   27  -0.403   0.261  -0.060
    1UNL     H2   28  -0.446   0.196   0.099
    1UNL     H3   29  -0.403   0.366   0.083
    1UNL     H4   30  -0.169   0.310   0.015
    1UNL     H5   31  -0.214   0.198   0.144
    1UNL     H6   32  -0.283   0.069  -0.114
    1UNL     H7   33  -0.090   0.049  -0.225
    1UNL     H8   34  -0.098   0.226  -0.206
    1UNL     H9   35   0.080   0.219   0.105
    1UNL    H10   36   0.079   0.315  -0.038
    1UNL    H11   37   0.292   0.282   0.091
    1UNL    H12   38   0.310   0.253  -0.087
    1UNL    H13   39   0.236  -0.244   0.009
    1UNL    H14   40   0.513  -0.308   0.090
    1UNL    H15   41   0.740  -0.219   0.101
    1UNL    H16   42   0.778   0.029   0.064
    1UNL    H17   43   0.576   0.176   0.024
    1UNL    H18   44   0.053  -0.091  -0.106
    1UNL    H19   45  -0.001   0.060   0.149
    1UNL    H20   46  -0.004  -0.112   0.150
    1UNL    H21   47  -0.228  -0.003   0.129
    1UNL    H22   48  -0.168  -0.175  -0.116
    1UNL    H23   49  -0.256  -0.271   0.171
    1UNL    H24   50  -0.097  -0.304   0.101
    1UNL    H25   51  -0.320  -0.399  -0.028
    1UNL    H26   52  -0.640  -0.083   0.021
    1UNL    H27   53  -0.598   0.069  -0.059
    1UNL    H28   54  -0.564  -0.091  -0.159
   0.00000   0.00000   0.00000   0.00000   0.00000   0.00000   0.00000   0.00000   0.00000
Generated with MDTraj, t= 86.0
 54
    1UNL     C1    1  -0.363   0.278   0.048
    1UNL     C2    2  -0.218   0.225   0.061
    1UNL     C3    3  -0.197   0.103  -0.029
    1UNL     C4    4  -0.087   0.116  -0.137
    1UNL     N1    5   0.056   0.106  -0.099
    1UNL     C5    6   0.134   0.234  -0.051
    1UNL     C6    7   0.277   0.206  -0.004
    1UNL     C7    8   0.299   0.070   0.026
    1UNL     C8    9   0.214  -0.039   0.015
    1UNL     N2   10   0.290  -0.159   0.029
    1UNL     C9   11   0.423  -0.120   0.042
    1UNL    C10   12   0.533  -0.200   0.049
    1UNL    C11   13   0.658  -0.143   0.070
    1UNL    C12   14   0.667  -0.004   0.075
    1UNL    C13   15   0.558   0.083   0.057
    1UNL    C14   16   0.433   0.019   0.043
    1UNL    C15   17   0.070  -0.022  -0.019
    1UNL    C16   18  -0.025  -0.028   0.095
    1UNL    C17   19  -0.177  -0.026   0.058
    1UNL    C18   20  -0.220  -0.155  -0.018
    1UNL    C19   21  -0.203  -0.289   0.058
    1UNL     O1   22  -0.254  -0.399  -0.014
    1UNL    C20   23  -0.366  -0.139  -0.058
    1UNL     O2   24  -0.396  -0.221  -0.144
    1UNL     O3   25  -0.449  -0.040  -0.017
    1UNL    C21   26  -0.582  -0.061  -0.067
    1UNL     H1   27  -0.357   0.338  -0.045
    1UNL     H2   28  -0.447   0.213   0.044
    1UNL     H3   29  -0.407   0.357   0.116
    1UNL     H4   30  -0.149   0.308   0.039
    1UNL     H5   31  -0.194   0.196   0.164
    1UNL     H6   32  -0.293   0.081  -0.078
    1UNL     H7   33  -0.108   0.035  -0.209
    1UNL     H8   34  -0.102   0.213  -0.187
    1UNL     H9   35   0.071   0.264   0.033
    1UNL    H10   36   0.125   0.318  -0.119
    1UNL    H11   37   0.301   0.257   0.086
    1UNL    H12   38   0.341   0.240  -0.090
    1UNL    H13   39   0.245  -0.251   0.026
    1UNL    H14   40   0.517  -0.313   0.065
    1UNL    H15   41   0.746  -0.196   0.100
    1UNL    H16   42   0.760   0.042   0.070
    1UNL    H17   43   0.573   0.189   0.041
    1UNL    H18   44   0.035  -0.102  -0.085
    1UNL    H19   45  -0.004   0.057   0.164
    1UNL    H20   46  -0.005  -0.115   0.163
    1UNL    H21   47  -0.247  -0.011   0.144
    1UNL    H22   48  -0.168  -0.169  -0.115
    1UNL    H23   49  -0.257  -0.294   0.153
    1UNL    H24   50  -0.095  -0.317   0.078
    1UNL    H25   51  -0.328  -0.368  -0.080
    1UNL    H26   52  -0.657  -0.003  -0.017
    1UNL    H27   53  -0.574  -0.028  -0.182
    1UNL    H28   54  -0.589  -0.171  -0.072
   0.00000   0.00000   0.00000   0.00000   0.00000   0.00000   0.00000   0.00000   0.00000
Generated with MDTraj, t= 87.0
 54
    1UNL     C1    1  -0.341   0.298   0.078
    1UNL     C2    2  -0.205   0.236   0.044
    1UNL     C3    3  -0.207   0.107  -0.035
    1UNL     C4    4  -0.097   0.113  -0.146
    1UNL     N1    5   0.047   0.102  -0.098
    1UNL     C5    6   0.109   0.218  -0.021
    1UNL     C6    7   0.263   0.208  -0.030
    1UNL     C7    8   0.304   0.070   0.012
    1UNL     C8    9   0.216  -0.034   0.008
    1UNL     N2   10   0.278  -0.150   0.051
    1UNL     C9   11   0.412  -0.123   0.073
    1UNL    C10   12   0.533  -0.201   0.070
    1UNL    C11   13   0.652  -0.136   0.073
    1UNL    C12   14   0.671   0.005   0.070
    1UNL    C13   15   0.559   0.078   0.044
    1UNL    C14   16   0.431   0.015   0.041
    1UNL    C15   17   0.064  -0.028  -0.028
    1UNL    C16   18  -0.022  -0.044   0.089
    1UNL    C17   19  -0.174  -0.032   0.050
    1UNL    C18   20  -0.223  -0.160  -0.023
    1UNL    C19   21  -0.215  -0.293   0.059
    1UNL     O1   22  -0.232  -0.406  -0.019
    1UNL    C20   23  -0.363  -0.147  -0.072
    1UNL     O2   24  -0.391  -0.206  -0.177
    1UNL     O3   25  -0.439  -0.059  -0.001
    1UNL    C21   26  -0.568  -0.041  -0.049
    1UNL     H1   27  -0.400   0.307  -0.015
    1UNL     H2   28  -0.395   0.243   0.156
    1UNL     H3   29  -0.346   0.407   0.106
    1UNL     H4   30  -0.140   0.310  -0.007
    1UNL     H5   31  -0.154   0.223   0.141
    1UNL     H6   32  -0.307   0.097  -0.078
    1UNL     H7   33  -0.114   0.039  -0.224
    1UNL     H8   34  -0.112   0.210  -0.195
    1UNL     H9   35   0.066   0.224   0.077
    1UNL    H10   36   0.063   0.306  -0.067
    1UNL    H11   37   0.300   0.283   0.037
    1UNL    H12   38   0.307   0.223  -0.131
    1UNL    H13   39   0.240  -0.244   0.042
    1UNL    H14   40   0.539  -0.302   0.079
    1UNL    H15   41   0.740  -0.198   0.095
    1UNL    H16   42   0.769   0.058   0.076
    1UNL    H17   43   0.551   0.180   0.025
    1UNL    H18   44   0.043  -0.102  -0.104
    1UNL    H19   45   0.000   0.029   0.173
    1UNL    H20   46  -0.010  -0.139   0.139
    1UNL    H21   47  -0.227  -0.010   0.146
    1UNL    H22   48  -0.169  -0.173  -0.119
    1UNL    H23   49  -0.291  -0.287   0.137
    1UNL    H24   50  -0.115  -0.285   0.107
    1UNL    H25   51  -0.274  -0.377  -0.098
    1UNL    H26   52  -0.569   0.039  -0.119
    1UNL    H27   53  -0.593  -0.146  -0.097
    1UNL    H28   54  -0.633  -0.032   0.035
   0.00000   0.00000   0.00000   0.00000   0.00000   0.00000   0.00000   0.00000   0.00000
Generated with MDTraj, t= 88.0
 54
    1UNL     C1    1  -0.346   0.236   0.127
    1UNL     C2    2  -0.211   0.225   0.056
    1UNL     C3    3  -0.198   0.106  -0.034
    1UNL     C4    4  -0.093   0.113  -0.149
    1UNL     N1    5   0.052   0.101  -0.109
    1UNL     C5    6   0.115   0.224  -0.065
    1UNL     C6    7   0.266   0.205  -0.038
    1UNL     C7    8   0.305   0.069  -0.010
    1UNL     C8    9   0.218  -0.034   0.014
    1UNL     N2   10   0.291  -0.148   0.053
    1UNL     C9   11   0.421  -0.120   0.066
    1UNL    C10   12   0.531  -0.198   0.107
    1UNL    C11   13   0.651  -0.131   0.128
    1UNL    C12   14   0.670  -0.002   0.070
    1UNL    C13   15   0.570   0.071   0.023
    1UNL    C14   16   0.440   0.014   0.013
    1UNL    C15   17   0.069  -0.030  -0.023
    1UNL    C16   18  -0.020  -0.030   0.098
    1UNL    C17   19  -0.168  -0.022   0.049
    1UNL    C18   20  -0.223  -0.143  -0.028
    1UNL    C19   21  -0.197  -0.278   0.044
    1UNL     O1   22  -0.253  -0.384  -0.030
    1UNL    C20   23  -0.371  -0.132  -0.078
    1UNL     O2   24  -0.398  -0.196  -0.178
    1UNL     O3   25  -0.458  -0.059  -0.004
    1UNL    C21   26  -0.591  -0.061  -0.049
    1UNL     H1   27  -0.426   0.264   0.060
    1UNL     H2   28  -0.354   0.132   0.172
    1UNL     H3   29  -0.344   0.311   0.209
    1UNL     H4   30  -0.192   0.323   0.009
    1UNL     H5   31  -0.130   0.219   0.130
    1UNL     H6   32  -0.295   0.080  -0.081
    1UNL     H7   33  -0.115   0.041  -0.228
    1UNL     H8   34  -0.107   0.210  -0.199
    1UNL     H9   35   0.056   0.254   0.018
    1UNL    H10   36   0.082   0.303  -0.137
    1UNL    H11   37   0.305   0.263   0.045
    1UNL    H12   38   0.316   0.235  -0.131
    1UNL    H13   39   0.256  -0.241   0.073
    1UNL    H14   40   0.509  -0.304   0.132
    1UNL    H15   41   0.739  -0.177   0.170
    1UNL    H16   42   0.770   0.030   0.070
    1UNL    H17   43   0.590   0.175  -0.022
    1UNL    H18   44   0.060  -0.116  -0.090
    1UNL    H19   45   0.006   0.056   0.170
    1UNL    H20   46  -0.014  -0.115   0.164
    1UNL    H21   47  -0.230  -0.023   0.141
    1UNL    H22   48  -0.168  -0.159  -0.123
    1UNL    H23   49  -0.235  -0.267   0.145
    1UNL    H24   50  -0.088  -0.296   0.050
    1UNL    H25   51  -0.350  -0.355  -0.057
    1UNL    H26   52  -0.594  -0.090  -0.151
    1UNL    H27   53  -0.645  -0.140   0.017
    1UNL    H28   54  -0.634   0.034  -0.034
   0.00000   0.00000   0.00000   0.00000   0.00000   0.00000   0.00000   0.00000   0.00000
Generated with MDTraj, t= 89.0
 54
    1UNL     C1    1  -0.322   0.196   0.161
    1UNL     C2    2  -0.213   0.220   0.057
    1UNL     C3    3  -0.194   0.106  -0.043
    1UNL     C4    4  -0.085   0.143  -0.143
    1UNL     N1    5   0.051   0.129  -0.094
    1UNL     C5    6   0.145   0.246  -0.078
    1UNL     C6    7   0.281   0.183  -0.104
    1UNL     C7    8   0.307   0.073  -0.016
    1UNL     C8    9   0.213  -0.030  -0.003
    1UNL     N2   10   0.271  -0.140   0.059
    1UNL     C9   11   0.407  -0.106   0.085
    1UNL    C10   12   0.514  -0.194   0.132
    1UNL    C11   13   0.640  -0.141   0.125
    1UNL    C12   14   0.662  -0.008   0.085
    1UNL    C13   15   0.560   0.079   0.045
    1UNL    C14   16   0.428   0.026   0.035
    1UNL    C15   17   0.074  -0.017  -0.049
    1UNL    C16   18  -0.013  -0.038   0.078
    1UNL    C17   19  -0.165  -0.027   0.033
    1UNL    C18   20  -0.221  -0.154  -0.041
    1UNL    C19   21  -0.219  -0.279   0.042
    1UNL     O1   22  -0.259  -0.390  -0.040
    1UNL    C20   23  -0.365  -0.140  -0.080
    1UNL     O2   24  -0.408  -0.215  -0.165
    1UNL     O3   25  -0.441  -0.050  -0.003
    1UNL    C21   26  -0.583  -0.061  -0.022
    1UNL     H1   27  -0.399   0.127   0.128
    1UNL     H2   28  -0.263   0.157   0.254
    1UNL     H3   29  -0.372   0.288   0.193
    1UNL     H4   30  -0.236   0.303  -0.011
    1UNL     H5   31  -0.118   0.256   0.100
    1UNL     H6   32  -0.292   0.093  -0.096
    1UNL     H7   33  -0.087   0.084  -0.233
    1UNL     H8   34  -0.098   0.246  -0.180
    1UNL     H9   35   0.125   0.273   0.023
    1UNL    H10   36   0.118   0.337  -0.138
    1UNL    H11   37   0.357   0.259  -0.113
    1UNL    H12   38   0.269   0.127  -0.199
    1UNL    H13   39   0.236  -0.232   0.081
    1UNL    H14   40   0.510  -0.301   0.164
    1UNL    H15   41   0.726  -0.194   0.164
    1UNL    H16   42   0.763   0.028   0.061
    1UNL    H17   43   0.577   0.175   0.013
    1UNL    H18   44   0.064  -0.091  -0.129
    1UNL    H19   45   0.015   0.038   0.161
    1UNL    H20   46   0.017  -0.126   0.133
    1UNL    H21   47  -0.225  -0.036   0.128
    1UNL    H22   48  -0.169  -0.183  -0.135
    1UNL    H23   49  -0.285  -0.275   0.127
    1UNL    H24   50  -0.122  -0.304   0.088
    1UNL    H25   51  -0.336  -0.363  -0.085
    1UNL    H26   52  -0.607  -0.030  -0.120
    1UNL    H27   53  -0.616  -0.169  -0.012
    1UNL    H28   54  -0.637   0.004   0.043
   0.00000   0.00000   0.00000   0.00000   0.00000   0.00000   0.00000   0.00000   0.00000
Generated with MDTraj, t= 90.0
 54
    1UNL     C1    1  -0.309   0.214   0.186
    1UNL     C2    2  -0.207   0.222   0.071
    1UNL     C3    3  -0.209   0.102  -0.030
    1UNL     C4    4  -0.110   0.138  -0.147
    1UNL     N1    5   0.042   0.116  -0.114
    1UNL     C5    6   0.125   0.238  -0.092
    1UNL     C6    7   0.283   0.200  -0.095
    1UNL     C7    8   0.320   0.067  -0.037
    1UNL     C8    9   0.225  -0.026  -0.009
    1UNL     N2   10   0.275  -0.137   0.056
    1UNL     C9   11   0.407  -0.113   0.080
    1UNL    C10   12   0.495  -0.178   0.162
    1UNL    C11   13   0.627  -0.123   0.169
    1UNL    C12   14   0.667  -0.010   0.098
    1UNL    C13   15   0.576   0.053   0.020
    1UNL    C14   16   0.440   0.006   0.011
    1UNL    C15   17   0.077  -0.013  -0.047
    1UNL    C16   18  -0.014  -0.036   0.072
    1UNL    C17   19  -0.165  -0.029   0.030
    1UNL    C18   20  -0.224  -0.151  -0.052
    1UNL    C19   21  -0.182  -0.282   0.006
    1UNL     O1   22  -0.255  -0.398  -0.043
    1UNL    C20   23  -0.376  -0.147  -0.075
    1UNL     O2   24  -0.420  -0.212  -0.165
    1UNL     O3   25  -0.449  -0.076   0.016
    1UNL    C21   26  -0.574  -0.035  -0.027
    1UNL     H1   27  -0.415   0.216   0.165
    1UNL     H2   28  -0.275   0.118   0.241
    1UNL     H3   29  -0.286   0.288   0.264
    1UNL     H4   30  -0.216   0.316   0.014
    1UNL     H5   31  -0.102   0.226   0.104
    1UNL     H6   32  -0.318   0.098  -0.056
    1UNL     H7   33  -0.134   0.081  -0.235
    1UNL     H8   34  -0.120   0.241  -0.183
    1UNL     H9   35   0.092   0.293  -0.006
    1UNL    H10   36   0.098   0.306  -0.178
    1UNL    H11   37   0.328   0.270  -0.025
    1UNL    H12   38   0.318   0.219  -0.196
    1UNL    H13   39   0.220  -0.216   0.088
    1UNL    H14   40   0.465  -0.242   0.235
    1UNL    H15   41   0.700  -0.158   0.240
    1UNL    H16   42   0.766   0.032   0.097
    1UNL    H17   43   0.617   0.132  -0.043
    1UNL    H18   44   0.046  -0.087  -0.123
    1UNL    H19   45   0.019   0.037   0.153
    1UNL    H20   46   0.012  -0.124   0.127
    1UNL    H21   47  -0.223  -0.036   0.124
    1UNL    H22   48  -0.180  -0.142  -0.153
    1UNL    H23   49  -0.206  -0.275   0.111
    1UNL    H24   50  -0.074  -0.305   0.011
    1UNL    H25   51  -0.327  -0.353  -0.103
    1UNL    H26   52  -0.559   0.020  -0.117
    1UNL    H27   53  -0.641  -0.117  -0.057
    1UNL    H28   54  -0.627   0.027   0.043
   0.00000   0.00000   0.00000   0.00000   0.00000   0.00000   0.00000   0.00000   0.00000
Generated with MDTraj, t= 91.0
 54
    1UNL     C1    1  -0.294   0.234   0.167
    1UNL     C2    2  -0.172   0.223   0.070
    1UNL     C3    3  -0.192   0.095  -0.016
    1UNL     C4    4  -0.104   0.114  -0.152
    1UNL     N1    5   0.040   0.096  -0.121
    1UNL     C5    6   0.126   0.216  -0.078
    1UNL     C6    7   0.272   0.173  -0.120
    1UNL     C7    8   0.305   0.047  -0.048
    1UNL     C8    9   0.210  -0.047  -0.014
    1UNL     N2   10   0.265  -0.140   0.074
    1UNL     C9   11   0.401  -0.110   0.091
    1UNL    C10   12   0.510  -0.177   0.148
    1UNL    C11   13   0.630  -0.111   0.156
    1UNL    C12   14   0.642   0.018   0.104
    1UNL    C13   15   0.538   0.080   0.041
    1UNL    C14   16   0.421   0.016   0.025
    1UNL    C15   17   0.062  -0.033  -0.054
    1UNL    C16   18  -0.014  -0.052   0.078
    1UNL    C17   19  -0.163  -0.039   0.053
    1UNL    C18   20  -0.218  -0.144  -0.042
    1UNL    C19   21  -0.198  -0.284   0.008
    1UNL     O1   22  -0.223  -0.381  -0.089
    1UNL    C20   23  -0.366  -0.120  -0.075
    1UNL     O2   24  -0.411  -0.180  -0.168
    1UNL     O3   25  -0.441  -0.039   0.012
    1UNL    C21   26  -0.575  -0.066   0.003
    1UNL     H1   27  -0.388   0.245   0.114
    1UNL     H2   28  -0.291   0.140   0.229
    1UNL     H3   29  -0.274   0.314   0.240
    1UNL     H4   30  -0.177   0.307  -0.001
    1UNL     H5   31  -0.075   0.228   0.120
    1UNL     H6   32  -0.300   0.104  -0.044
    1UNL     H7   33  -0.129   0.047  -0.232
    1UNL     H8   34  -0.116   0.215  -0.192
    1UNL     H9   35   0.122   0.226   0.030
    1UNL    H10   36   0.101   0.319  -0.116
    1UNL    H11   37   0.338   0.257  -0.093
    1UNL    H12   38   0.273   0.154  -0.226
    1UNL    H13   39   0.217  -0.219   0.113
    1UNL    H14   40   0.492  -0.267   0.220
    1UNL    H15   41   0.712  -0.159   0.208
    1UNL    H16   42   0.739   0.063   0.116
    1UNL    H17   43   0.544   0.175  -0.014
    1UNL    H18   44   0.019  -0.107  -0.124
    1UNL    H19   45   0.023   0.022   0.153
    1UNL    H20   46   0.016  -0.141   0.128
    1UNL    H21   47  -0.217  -0.040   0.150
    1UNL    H22   48  -0.167  -0.138  -0.140
    1UNL    H23   49  -0.256  -0.305   0.097
    1UNL    H24   50  -0.091  -0.286   0.043
    1UNL    H25   51  -0.277  -0.346  -0.157
    1UNL    H26   52  -0.603  -0.042  -0.101
    1UNL    H27   53  -0.595  -0.170   0.008
    1UNL    H28   54  -0.646  -0.011   0.067
   0.00000   0.00000   0.00000   0.00000   0.00000   0.00000   0.00000   0.00000   0.00000
Generated with MDTraj, t= 92.0
 54
    1UNL     C1    1  -0.284   0.255   0.169
    1UNL     C2    2  -0.169   0.231   0.073
    1UNL     C3    3  -0.192   0.110  -0.019
    1UNL     C4    4  -0.107   0.112  -0.149
    1UNL     N1    5   0.037   0.087  -0.122
    1UNL     C5    6   0.132   0.206  -0.110
    1UNL     C6    7   0.280   0.183  -0.092
    1UNL     C7    8   0.311   0.058  -0.031
    1UNL     C8    9   0.221  -0.049  -0.011
    1UNL     N2   10   0.281  -0.157   0.057
    1UNL     C9   11   0.418  -0.117   0.081
    1UNL    C10   12   0.529  -0.175   0.150
    1UNL    C11   13   0.641  -0.102   0.169
    1UNL    C12   14   0.653   0.032   0.120
    1UNL    C13   15   0.558   0.089   0.043
    1UNL    C14   16   0.435   0.013   0.024
    1UNL    C15   17   0.074  -0.042  -0.052
    1UNL    C16   18  -0.020  -0.050   0.072
    1UNL    C17   19  -0.175  -0.031   0.048
    1UNL    C18   20  -0.238  -0.144  -0.038
    1UNL    C19   21  -0.196  -0.293  -0.004
    1UNL     O1   22  -0.234  -0.375  -0.105
    1UNL    C20   23  -0.389  -0.135  -0.065
    1UNL     O2   24  -0.440  -0.183  -0.161
    1UNL     O3   25  -0.466  -0.069   0.028
    1UNL    C21   26  -0.592  -0.063  -0.007
    1UNL     H1   27  -0.387   0.252   0.129
    1UNL     H2   28  -0.274   0.183   0.249
    1UNL     H3   29  -0.264   0.348   0.230
    1UNL     H4   30  -0.160   0.316   0.003
    1UNL     H5   31  -0.073   0.227   0.125
    1UNL     H6   32  -0.297   0.117  -0.057
    1UNL     H7   33  -0.153   0.043  -0.217
    1UNL     H8   34  -0.112   0.214  -0.189
    1UNL     H9   35   0.105   0.275  -0.031
    1UNL    H10   36   0.126   0.271  -0.202
    1UNL    H11   37   0.333   0.261  -0.035
    1UNL    H12   38   0.323   0.166  -0.190
    1UNL    H13   39   0.233  -0.242   0.087
    1UNL    H14   40   0.509  -0.275   0.174
    1UNL    H15   41   0.718  -0.144   0.231
    1UNL    H16   42   0.749   0.082   0.116
    1UNL    H17   43   0.570   0.184   0.006
    1UNL    H18   44   0.056  -0.124  -0.125
    1UNL    H19   45   0.008   0.039   0.126
    1UNL    H20   46   0.003  -0.135   0.134
    1UNL    H21   47  -0.226  -0.029   0.147
    1UNL    H22   48  -0.203  -0.143  -0.143
    1UNL    H23   49  -0.247  -0.322   0.088
    1UNL    H24   50  -0.087  -0.304   0.016
    1UNL    H25   51  -0.334  -0.368  -0.138
    1UNL    H26   52  -0.600  -0.039  -0.118
    1UNL    H27   53  -0.638  -0.154   0.002
    1UNL    H28   54  -0.651   0.017   0.049
   0.00000   0.00000   0.00000   0.00000   0.00000   0.00000   0.00000   0.00000   0.00000
Generated with MDTraj, t= 93.0
 54
    1UNL     C1    1  -0.280   0.223   0.166
    1UNL     C2    2  -0.174   0.216   0.061
    1UNL     C3    3  -0.193   0.105  -0.047
    1UNL     C4    4  -0.097   0.122  -0.173
    1UNL     N1    5   0.045   0.109  -0.132
    1UNL     C5    6   0.120   0.223  -0.079
    1UNL     C6    7   0.270   0.198  -0.093
    1UNL     C7    8   0.309   0.076  -0.013
    1UNL     C8    9   0.220  -0.029  -0.007
    1UNL     N2   10   0.278  -0.141   0.058
    1UNL     C9   11   0.404  -0.100   0.096
    1UNL    C10   12   0.507  -0.178   0.149
    1UNL    C11   13   0.630  -0.121   0.167
    1UNL    C12   14   0.665   0.002   0.106
    1UNL    C13   15   0.564   0.075   0.049
    1UNL    C14   16   0.433   0.027   0.041
    1UNL    C15   17   0.076  -0.027  -0.059
    1UNL    C16   18  -0.026  -0.046   0.056
    1UNL    C17   19  -0.176  -0.037   0.026
    1UNL    C18   20  -0.227  -0.157  -0.056
    1UNL    C19   21  -0.200  -0.295   0.003
    1UNL     O1   22  -0.264  -0.392  -0.069
    1UNL    C20   23  -0.378  -0.140  -0.077
    1UNL     O2   24  -0.449  -0.194  -0.156
    1UNL     O3   25  -0.429  -0.055   0.018
    1UNL    C21   26  -0.565  -0.057   0.023
    1UNL     H1   27  -0.383   0.233   0.124
    1UNL     H2   28  -0.285   0.135   0.223
    1UNL     H3   29  -0.266   0.292   0.256
    1UNL     H4   30  -0.180   0.313   0.010
    1UNL     H5   31  -0.073   0.207   0.101
    1UNL     H6   32  -0.296   0.105  -0.090
    1UNL     H7   33  -0.110   0.038  -0.239
    1UNL     H8   34  -0.126   0.216  -0.220
    1UNL     H9   35   0.095   0.250   0.026
    1UNL    H10   36   0.096   0.318  -0.133
    1UNL    H11   37   0.341   0.277  -0.062
    1UNL    H12   38   0.290   0.171  -0.194
    1UNL    H13   39   0.255  -0.240   0.066
    1UNL    H14   40   0.489  -0.280   0.167
    1UNL    H15   41   0.709  -0.179   0.213
    1UNL    H16   42   0.767   0.035   0.112
    1UNL    H17   43   0.582   0.173  -0.006
    1UNL    H18   44   0.069  -0.102  -0.140
    1UNL    H19   45   0.002   0.018   0.134
    1UNL    H20   46  -0.013  -0.150   0.083
    1UNL    H21   47  -0.229  -0.039   0.122
    1UNL    H22   48  -0.182  -0.162  -0.157
    1UNL    H23   49  -0.224  -0.300   0.110
    1UNL    H24   50  -0.089  -0.316   0.004
    1UNL    H25   51  -0.350  -0.366  -0.096
    1UNL    H26   52  -0.612   0.013  -0.056
    1UNL    H27   53  -0.598  -0.148  -0.012
    1UNL    H28   54  -0.617  -0.034   0.124
   0.00000   0.00000   0.00000   0.00000   0.00000   0.00000   0.00000   0.00000   0.00000
Generated with MDTraj, t= 94.0
 54
    1UNL     C1    1  -0.328   0.188   0.143
    1UNL     C2    2  -0.207   0.215   0.046
    1UNL     C3    3  -0.184   0.098  -0.055
    1UNL     C4    4  -0.078   0.134  -0.167
    1UNL     N1    5   0.057   0.123  -0.115
    1UNL     C5    6   0.142   0.237  -0.072
    1UNL     C6    7   0.298   0.212  -0.084
    1UNL     C7    8   0.313   0.072  -0.020
    1UNL     C8    9   0.223  -0.031  -0.018
    1UNL     N2   10   0.280  -0.144   0.042
    1UNL     C9   11   0.406  -0.114   0.081
    1UNL    C10   12   0.512  -0.183   0.143
    1UNL    C11   13   0.635  -0.124   0.166
    1UNL    C12   14   0.658   0.005   0.111
    1UNL    C13   15   0.557   0.073   0.041
    1UNL    C14   16   0.432   0.014   0.035
    1UNL    C15   17   0.080  -0.015  -0.058
    1UNL    C16   18  -0.014  -0.050   0.058
    1UNL    C17   19  -0.162  -0.036   0.022
    1UNL    C18   20  -0.229  -0.153  -0.052
    1UNL    C19   21  -0.204  -0.289   0.010
    1UNL     O1   22  -0.279  -0.394  -0.057
    1UNL    C20   23  -0.376  -0.132  -0.059
    1UNL     O2   24  -0.442  -0.199  -0.135
    1UNL     O3   25  -0.440  -0.043   0.024
    1UNL    C21   26  -0.574  -0.063   0.017
    1UNL     H1   27  -0.404   0.136   0.078
    1UNL     H2   28  -0.300   0.131   0.225
    1UNL     H3   29  -0.372   0.276   0.199
    1UNL     H4   30  -0.225   0.306  -0.012
    1UNL     H5   31  -0.125   0.241   0.115
    1UNL     H6   32  -0.279   0.081  -0.109
    1UNL     H7   33  -0.091   0.071  -0.255
    1UNL     H8   34  -0.092   0.241  -0.186
    1UNL     H9   35   0.112   0.273   0.030
    1UNL    H10   36   0.112   0.326  -0.133
    1UNL    H11   37   0.355   0.291  -0.032
    1UNL    H12   38   0.348   0.199  -0.176
    1UNL    H13   39   0.250  -0.241   0.061
    1UNL    H14   40   0.499  -0.294   0.178
    1UNL    H15   41   0.710  -0.168   0.230
    1UNL    H16   42   0.751   0.057   0.134
    1UNL    H17   43   0.578   0.166   0.003
    1UNL    H18   44   0.052  -0.087  -0.139
    1UNL    H19   45   0.008   0.021   0.129
    1UNL    H20   46   0.015  -0.147   0.098
    1UNL    H21   47  -0.210  -0.024   0.120
    1UNL    H22   48  -0.184  -0.140  -0.152
    1UNL    H23   49  -0.241  -0.290   0.114
    1UNL    H24   50  -0.097  -0.319   0.029
    1UNL    H25   51  -0.344  -0.346  -0.122
    1UNL    H26   52  -0.615  -0.038  -0.088
    1UNL    H27   53  -0.592  -0.164   0.028
    1UNL    H28   54  -0.635  -0.003   0.092
   0.00000   0.00000   0.00000   0.00000   0.00000   0.00000   0.00000   0.00000   0.00000
Generated with MDTraj, t= 95.0
 54
    1UNL     C1    1  -0.358   0.247   0.114
    1UNL     C2    2  -0.218   0.229   0.049
    1UNL     C3    3  -0.198   0.105  -0.037
    1UNL     C4    4  -0.098   0.129  -0.158
    1UNL     N1    5   0.048   0.108  -0.113
    1UNL     C5    6   0.130   0.222  -0.058
    1UNL     C6    7   0.279   0.201  -0.071
    1UNL     C7    8   0.319   0.060  -0.027
    1UNL     C8    9   0.228  -0.044  -0.014
    1UNL     N2   10   0.287  -0.155   0.036
    1UNL     C9   11   0.418  -0.123   0.053
    1UNL    C10   12   0.524  -0.196   0.119
    1UNL    C11   13   0.641  -0.132   0.152
    1UNL    C12   14   0.661   0.006   0.129
    1UNL    C13   15   0.567   0.083   0.057
    1UNL    C14   16   0.445   0.015   0.025
    1UNL    C15   17   0.086  -0.023  -0.057
    1UNL    C16   18  -0.008  -0.038   0.062
    1UNL    C17   19  -0.170  -0.026   0.029
    1UNL    C18   20  -0.234  -0.147  -0.052
    1UNL    C19   21  -0.196  -0.278   0.021
    1UNL     O1   22  -0.227  -0.394  -0.051
    1UNL    C20   23  -0.383  -0.137  -0.056
    1UNL     O2   24  -0.426  -0.202  -0.148
    1UNL     O3   25  -0.453  -0.064   0.033
    1UNL    C21   26  -0.591  -0.051   0.001
    1UNL     H1   27  -0.431   0.286   0.038
    1UNL     H2   28  -0.397   0.158   0.163
    1UNL     H3   29  -0.346   0.312   0.204
    1UNL     H4   30  -0.196   0.323  -0.006
    1UNL     H5   31  -0.138   0.228   0.124
    1UNL     H6   32  -0.300   0.089  -0.074
    1UNL     H7   33  -0.113   0.065  -0.245
    1UNL     H8   34  -0.109   0.235  -0.185
    1UNL     H9   35   0.111   0.225   0.053
    1UNL    H10   36   0.101   0.323  -0.095
    1UNL    H11   37   0.344   0.259  -0.004
    1UNL    H12   38   0.304   0.228  -0.169
    1UNL    H13   39   0.238  -0.244   0.056
    1UNL    H14   40   0.501  -0.291   0.144
    1UNL    H15   41   0.713  -0.187   0.210
    1UNL    H16   42   0.751   0.057   0.153
    1UNL    H17   43   0.585   0.191   0.036
    1UNL    H18   44   0.066  -0.114  -0.116
    1UNL    H19   45   0.023   0.032   0.131
    1UNL    H20   46   0.014  -0.132   0.112
    1UNL    H21   47  -0.225  -0.034   0.124
    1UNL    H22   48  -0.186  -0.144  -0.152
    1UNL    H23   49  -0.235  -0.285   0.123
    1UNL    H24   50  -0.088  -0.289   0.040
    1UNL    H25   51  -0.320  -0.395  -0.067
    1UNL    H26   52  -0.608  -0.064  -0.109
    1UNL    H27   53  -0.639  -0.132   0.047
    1UNL    H28   54  -0.634   0.046   0.037
   0.00000   0.00000   0.00000   0.00000   0.00000   0.00000   0.00000   0.00000   0.00000
Generated with MDTraj, t= 96.0
 54
    1UNL     C1    1  -0.335   0.298   0.076
    1UNL     C2    2  -0.201   0.238   0.053
    1UNL     C3    3  -0.192   0.101  -0.027
    1UNL     C4    4  -0.100   0.111  -0.148
    1UNL     N1    5   0.044   0.104  -0.116
    1UNL     C5    6   0.104   0.220  -0.060
    1UNL     C6    7   0.255   0.216  -0.034
    1UNL     C7    8   0.298   0.068  -0.002
    1UNL     C8    9   0.213  -0.040  -0.010
    1UNL     N2   10   0.274  -0.147   0.042
    1UNL     C9   11   0.406  -0.124   0.056
    1UNL    C10   12   0.512  -0.205   0.094
    1UNL    C11   13   0.633  -0.145   0.113
    1UNL    C12   14   0.649  -0.003   0.096
    1UNL    C13   15   0.545   0.076   0.064
    1UNL    C14   16   0.426   0.016   0.042
    1UNL    C15   17   0.068  -0.027  -0.049
    1UNL    C16   18  -0.010  -0.037   0.084
    1UNL    C17   19  -0.161  -0.026   0.053
    1UNL    C18   20  -0.210  -0.148  -0.034
    1UNL    C19   21  -0.186  -0.287   0.029
    1UNL     O1   22  -0.227  -0.396  -0.053
    1UNL    C20   23  -0.352  -0.141  -0.066
    1UNL     O2   24  -0.397  -0.215  -0.153
    1UNL     O3   25  -0.429  -0.052   0.009
    1UNL    C21   26  -0.573  -0.067  -0.003
    1UNL     H1   27  -0.373   0.327  -0.023
    1UNL     H2   28  -0.415   0.238   0.127
    1UNL     H3   29  -0.331   0.387   0.141
    1UNL     H4   30  -0.129   0.304   0.003
    1UNL     H5   31  -0.150   0.231   0.152
    1UNL     H6   32  -0.293   0.087  -0.069
    1UNL     H7   33  -0.112   0.027  -0.217
    1UNL     H8   34  -0.115   0.200  -0.210
    1UNL     H9   35   0.055   0.248   0.039
    1UNL    H10   36   0.088   0.304  -0.130
    1UNL    H11   37   0.281   0.306   0.027
    1UNL    H12   38   0.301   0.231  -0.126
    1UNL    H13   39   0.228  -0.238   0.056
    1UNL    H14   40   0.493  -0.307   0.129
    1UNL    H15   41   0.721  -0.206   0.123
    1UNL    H16   42   0.750   0.035   0.116
    1UNL    H17   43   0.550   0.182   0.043
    1UNL    H18   44   0.043  -0.108  -0.118
    1UNL    H19   45   0.015   0.053   0.134
    1UNL    H20   46   0.029  -0.115   0.148
    1UNL    H21   47  -0.215  -0.027   0.149
    1UNL    H22   48  -0.148  -0.152  -0.127
    1UNL    H23   49  -0.238  -0.292   0.125
    1UNL    H24   50  -0.079  -0.295   0.056
    1UNL    H25   51  -0.307  -0.366  -0.107
    1UNL    H26   52  -0.608  -0.020  -0.094
    1UNL    H27   53  -0.588  -0.174  -0.011
    1UNL    H28   54  -0.621  -0.025   0.084
   0.00000   0.00000   0.00000   0.00000   0.00000   0.00000   0.00000   0.00000   0.00000
Generated with MDTraj, t= 97.0
 54
    1UNL     C1    1  -0.349   0.293   0.058
    1UNL     C2    2  -0.206   0.241   0.054
    1UNL     C3    3  -0.191   0.112  -0.041
    1UNL     C4    4  -0.078   0.132  -0.147
    1UNL     N1    5   0.063   0.122  -0.093
    1UNL     C5    6   0.128   0.242  -0.040
    1UNL     C6    7   0.279   0.208  -0.035
    1UNL     C7    8   0.303   0.062   0.006
    1UNL     C8    9   0.210  -0.036   0.012
    1UNL     N2   10   0.282  -0.152   0.030
    1UNL     C9   11   0.418  -0.132   0.052
    1UNL    C10   12   0.525  -0.209   0.087
    1UNL    C11   13   0.645  -0.143   0.097
    1UNL    C12   14   0.660  -0.002   0.081
    1UNL    C13   15   0.553   0.074   0.049
    1UNL    C14   16   0.429   0.005   0.037
    1UNL    C15   17   0.070  -0.018  -0.021
    1UNL    C16   18  -0.031  -0.029   0.094
    1UNL    C17   19  -0.176  -0.019   0.047
    1UNL    C18   20  -0.227  -0.148  -0.028
    1UNL    C19   21  -0.183  -0.280   0.050
    1UNL     O1   22  -0.217  -0.390  -0.029
    1UNL    C20   23  -0.378  -0.158  -0.066
    1UNL     O2   24  -0.414  -0.227  -0.162
    1UNL     O3   25  -0.465  -0.088   0.013
    1UNL    C21   26  -0.592  -0.068  -0.040
    1UNL     H1   27  -0.368   0.328  -0.043
    1UNL     H2   28  -0.429   0.213   0.085
    1UNL     H3   29  -0.360   0.372   0.131
    1UNL     H4   30  -0.137   0.325   0.034
    1UNL     H5   31  -0.163   0.213   0.154
    1UNL     H6   32  -0.283   0.108  -0.099
    1UNL     H7   33  -0.082   0.049  -0.220
    1UNL     H8   34  -0.086   0.217  -0.216
    1UNL     H9   35   0.093   0.273   0.065
    1UNL    H10   36   0.105   0.330  -0.102
    1UNL    H11   37   0.338   0.264   0.040
    1UNL    H12   38   0.318   0.235  -0.128
    1UNL    H13   39   0.221  -0.236   0.023
    1UNL    H14   40   0.516  -0.321   0.091
    1UNL    H15   41   0.734  -0.201   0.121
    1UNL    H16   42   0.753   0.047   0.084
    1UNL    H17   43   0.563   0.177   0.039
    1UNL    H18   44   0.050  -0.085  -0.104
    1UNL    H19   45   0.003   0.044   0.168
    1UNL    H20   46  -0.017  -0.121   0.144
    1UNL    H21   47  -0.242  -0.006   0.134
    1UNL    H22   48  -0.168  -0.160  -0.122
    1UNL    H23   49  -0.237  -0.275   0.144
    1UNL    H24   50  -0.076  -0.285   0.068
    1UNL    H25   51  -0.278  -0.364  -0.100
    1UNL    H26   52  -0.576  -0.025  -0.137
    1UNL    H27   53  -0.639  -0.168  -0.042
    1UNL    H28   54  -0.638   0.000   0.026
   0.00000   0.00000   0.00000   0.00000   0.00000   0.00000   0.00000   0.00000   0.00000
Generated with MDTraj, t= 98.0
 54
    1UNL     C1    1  -0.399   0.242   0.061
    1UNL     C2    2  -0.244   0.240   0.036
    1UNL     C3    3  -0.202   0.112  -0.043
    1UNL     C4    4  -0.091   0.122  -0.140
    1UNL     N1    5   0.054   0.114  -0.095
    1UNL     C5    6   0.116   0.233  -0.024
    1UNL     C6    7   0.276   0.214  -0.027
    1UNL     C7    8   0.315   0.076   0.016
    1UNL     C8    9   0.218  -0.025   0.018
    1UNL     N2   10   0.277  -0.145   0.044
    1UNL     C9   11   0.421  -0.118   0.069
    1UNL    C10   12   0.525  -0.213   0.096
    1UNL    C11   13   0.652  -0.167   0.085
    1UNL    C12   14   0.684  -0.034   0.053
    1UNL    C13   15   0.583   0.062   0.032
    1UNL    C14   16   0.445   0.018   0.042
    1UNL    C15   17   0.078  -0.013  -0.022
    1UNL    C16   18  -0.022  -0.022   0.093
    1UNL    C17   19  -0.170  -0.013   0.054
    1UNL    C18   20  -0.221  -0.142  -0.024
    1UNL    C19   21  -0.199  -0.272   0.056
    1UNL     O1   22  -0.239  -0.380  -0.023
    1UNL    C20   23  -0.363  -0.137  -0.083
    1UNL     O2   24  -0.394  -0.218  -0.173
    1UNL     O3   25  -0.446  -0.050  -0.017
    1UNL    C21   26  -0.580  -0.089  -0.021
    1UNL     H1   27  -0.447   0.240  -0.036
    1UNL     H2   28  -0.441   0.156   0.127
    1UNL     H3   29  -0.419   0.334   0.114
    1UNL     H4   30  -0.212   0.336  -0.006
    1UNL     H5   31  -0.186   0.241   0.132
    1UNL     H6   32  -0.286   0.098  -0.112
    1UNL     H7   33  -0.105   0.053  -0.226
    1UNL     H8   34  -0.098   0.222  -0.186
    1UNL     H9   35   0.082   0.242   0.085
    1UNL    H10   36   0.084   0.330  -0.066
    1UNL    H11   37   0.319   0.290   0.041
    1UNL    H12   38   0.322   0.233  -0.120
    1UNL    H13   39   0.217  -0.228   0.031
    1UNL    H14   40   0.512  -0.312   0.105
    1UNL    H15   41   0.732  -0.232   0.111
    1UNL    H16   42   0.791  -0.008   0.065
    1UNL    H17   43   0.606   0.173   0.014
    1UNL    H18   44   0.069  -0.098  -0.090
    1UNL    H19   45   0.002   0.057   0.166
    1UNL    H20   46   0.003  -0.108   0.146
    1UNL    H21   47  -0.243   0.001   0.134
    1UNL    H22   48  -0.157  -0.154  -0.116
    1UNL    H23   49  -0.255  -0.272   0.150
    1UNL    H24   50  -0.092  -0.281   0.076
    1UNL    H25   51  -0.324  -0.360  -0.069
    1UNL    H26   52  -0.602  -0.080  -0.126
    1UNL    H27   53  -0.590  -0.191   0.025
    1UNL    H28   54  -0.629  -0.018   0.040
   0.00000   0.00000   0.00000   0.00000   0.00000   0.00000   0.00000   0.00000   0.00000
Generated with MDTraj, t= 99.0
 54
    1UNL     C1    1  -0.363   0.204   0.097
    1UNL     C2    2  -0.242   0.233   0.024
    1UNL     C3    3  -0.202   0.107  -0.061
    1UNL     C4    4  -0.080   0.140  -0.146
    1UNL     N1    5   0.060   0.128  -0.097
    1UNL     C5    6   0.147   0.243  -0.045
    1UNL     C6    7   0.295   0.216  -0.016
    1UNL     C7    8   0.303   0.073   0.026
    1UNL     C8    9   0.209  -0.026   0.027
    1UNL     N2   10   0.272  -0.145   0.069
    1UNL     C9   11   0.406  -0.128   0.068
    1UNL    C10   12   0.512  -0.211   0.083
    1UNL    C11   13   0.641  -0.155   0.082
    1UNL    C12   14   0.661  -0.024   0.043
    1UNL    C13   15   0.560   0.059   0.026
    1UNL    C14   16   0.428   0.013   0.043
    1UNL    C15   17   0.067  -0.001  -0.021
    1UNL    C16   18  -0.029  -0.010   0.091
    1UNL    C17   19  -0.173  -0.019   0.032
    1UNL    C18   20  -0.212  -0.154  -0.033
    1UNL    C19   21  -0.195  -0.270   0.055
    1UNL     O1   22  -0.241  -0.390  -0.006
    1UNL    C20   23  -0.360  -0.150  -0.069
    1UNL     O2   24  -0.392  -0.214  -0.168
    1UNL     O3   25  -0.442  -0.072   0.009
    1UNL    C21   26  -0.570  -0.055  -0.055
    1UNL     H1   27  -0.441   0.185   0.023
    1UNL     H2   28  -0.371   0.117   0.172
    1UNL     H3   29  -0.397   0.287   0.158
    1UNL     H4   30  -0.261   0.325  -0.035
    1UNL     H5   31  -0.157   0.271   0.086
    1UNL     H6   32  -0.279   0.091  -0.138
    1UNL     H7   33  -0.084   0.075  -0.237
    1UNL     H8   34  -0.092   0.243  -0.181
    1UNL     H9   35   0.101   0.280   0.051
    1UNL    H10   36   0.139   0.332  -0.109
    1UNL    H11   37   0.341   0.284   0.057
    1UNL    H12   38   0.346   0.232  -0.109
    1UNL    H13   39   0.230  -0.237   0.082
    1UNL    H14   40   0.492  -0.322   0.099
    1UNL    H15   41   0.726  -0.220   0.102
    1UNL    H16   42   0.758   0.016   0.058
    1UNL    H17   43   0.586   0.158   0.014
    1UNL    H18   44   0.038  -0.076  -0.093
    1UNL    H19   45  -0.022   0.081   0.153
    1UNL    H20   46  -0.012  -0.090   0.157
    1UNL    H21   47  -0.253  -0.017   0.106
    1UNL    H22   48  -0.161  -0.168  -0.132
    1UNL    H23   49  -0.254  -0.259   0.146
    1UNL    H24   50  -0.093  -0.295   0.084
    1UNL    H25   51  -0.293  -0.356  -0.084
    1UNL    H26   52  -0.540  -0.022  -0.155
    1UNL    H27   53  -0.627  -0.156  -0.046
    1UNL    H28   54  -0.617   0.022  -0.003
   0.00000   0.00000   0.00000   0.00000   0.00000   0.00000   0.00000   0.00000   0.00000
