1TPCN02299
12
    1res  C1    1   -0.006  -0.012   0.164
    1res  C2    2   -0.265   0.109  -0.038
    1res  C3    3   -0.310   0.337   0.147
    1res  C4    4   -0.476   0.002   0.025
    1res  C5    5   -0.339  -0.277  -0.028
    1res  C6    6   -0.052  -0.382  -0.004
    1res  C7    7    0.154  -0.148  -0.091
    1res  C8    8    0.373   0.074  -0.125
    1res  C9    9    0.496   0.348  -0.025
    1res  C10   10    0.648   0.122  -0.119
    1res  C11   11    0.632  -0.004  -0.302
    1res  C12   12    0.469  -0.159  -0.154
  10.00000  10.00000  10.00000
