1TPCN04435
24
    1res  C1    1    0.526   0.096  -0.330
    1res  C2    2    0.429  -0.123  -0.152
    1res  C3    3    0.221  -0.054  -0.098
    1res  C4    4    0.058   0.127  -0.000
    1res  C5    5   -0.057  -0.112   0.023
    1res  C6    6   -0.248  -0.231  -0.184
    1res  C7    7   -0.306  -0.188   0.088
    1res  C8    8   -0.373   0.156  -0.055
    1res  C9    9   -0.572  -0.081  -0.093
    1res  C10   10   -0.479   0.039   0.206
    1res  C11   11   -0.633   0.070   0.237
    1res  C12   12   -0.953   0.094   0.218
    1res  C13   13   -0.891   0.254  -0.013
    1res  C14   14   -0.711  -0.201   0.124
    1res  C15   15    0.114  -0.246  -0.219
    1res  C16   16    0.076   0.012  -0.378
    1res  C17   17    0.446   0.005   0.072
    1res  C18   18    0.692   0.057  -0.102
    1res  C19   19    0.787  -0.008   0.086
    1res  C20   20    0.992   0.148   0.128
    1res  C21   21    1.174   0.201  -0.023
    1res  C22   22    1.163  -0.046   0.170
    1res  C23   23    1.038  -0.087   0.350
    1res  C24   24    0.803  -0.073   0.281
  10.00000  10.00000  10.00000
