[ moleculetype ]
; name        nrexcl
res           1

[ atoms ]
;    nr  type resnr resid  atom  cgnr     charge       mass
      1 TC4       1 res   C1        1      0.000     36.000
      2 TN4a      1 res   C2        2      0.000     36.000
      3 TN6       1 res   C3        3      0.000     36.000
      4 SN4a      1 res   C4        4      0.000     54.000
      5 SN4a      1 res   C5        5      0.000     54.000
      6 SC5       1 res   C6        6      0.000     54.000
      7 TC3       1 res   C7        7      0.000     36.000
      8 SC4       1 res   C8        8      0.000     54.000
      9 SC4       1 res   C9        9      0.000     54.000
     10 TC3       1 res   C10      10      0.000     36.000
     11 SC4       1 res   C11      11      0.000     54.000
     12 SC4       1 res   C12      12      0.000     54.000
     13 SN6       1 res   C13      13      0.000     54.000
     14 SN6       1 res   C14      14      0.000     54.000
     15 SN4a      1 res   C15      15      0.000     54.000
     16 TN3r      1 res   C16      16      0.000     36.000
     17 SN4a      1 res   C17      17      0.000     54.000
     18 TP1       1 res   C18      18      0.000     36.000
     19 TN6       1 res   C19      19      0.000     36.000
     20 TN6       1 res   C20      20      0.000     36.000
     21 TN6       1 res   C21      21      0.000     36.000
     22 TN6       1 res   C22      22      0.000     36.000
     23 TN6       1 res   C23      23      0.000     36.000
     24 TN6       1 res   C24      24      0.000     36.000
     25 TP1       1 res   C25      25      0.000     36.000
     26 TP1       1 res   C26      26      0.000     36.000
     27 TC3       1 res   C27      27      0.000     36.000
     28 SN6       1 res   C28      28      0.000     54.000
     29 TN6       1 res   C29      29      0.000     36.000
     30 TN6       1 res   C30      30      0.000     36.000
     31 TN6       1 res   C31      31      0.000     36.000
     32 SN6       1 res   C32      32      0.000     54.000
     33 TN6       1 res   C33      33      0.000     36.000
     34 TN4a      1 res   C34      34      0.000     36.000
     35 TN6       1 res   C35      35      0.000     36.000
     36 TN6       1 res   C36      36      0.000     36.000
     37 TN6       1 res   C37      37      0.000     36.000

[ bonds ]
;  ai    aj   funct      b0(nm)        k
    1     2     1      0.29772    20000
    1    32     1      0.31257    20000
    2     3     1      0.21423    20000
    2    31     1      0.25966    20000
    3     4     1      0.25019    20000
    3    30     1      0.23970    20000
    4     5     1      0.30435    20000
    4    29     1      0.28338    20000
    5     6     1      0.29108    20000
    6     7     1      0.29759    20000
    6     8     1      0.30444    20000
    6     9     1      0.35033    20000
    6    28     1      0.38740    20000
    7     8     1      0.29186    20000
    9    10     1      0.30524    20000
    9    11     1      0.28544    20000
    9    28     1      0.33338    20000
   10    11     1      0.34619    20000
   11    12     1      0.40038    20000
   11    27     1      0.26545    20000
   12    13     1      0.34468    20000
   12    14     1      0.39471    20000
   12    27     1      0.31361    20000
   13    14     1      0.26701    20000
   14    15     1      0.31661    20000
   14    25     1      0.29273    20000
   14    26     1      0.26801    20000
   15    16     1      0.23421    20000
   15    22     1      0.25167    20000
   15    24     1      0.27719    20000
   16    17     1      0.28258    20000
   17    18     1      0.29240    20000
   17    19     1      0.29535    20000
   17    21     1      0.28413    20000
   19    20     1      0.26134    20000
   20    21     1      0.24882    20000
   22    23     1      0.23565    20000
   23    24     1      0.22493    20000
   29    30     1      0.22511    20000
   31    32     1      0.25152    20000
   32    33     1      0.23209    20000
   33    34     1      0.26286    20000
   33    37     1      0.21329    20000
   34    35     1      0.24954    20000
   35    36     1      0.23791    20000
   36    37     1      0.21780    20000
