1TPCN04372
37
    1res  C1    1    1.124  -0.055  -0.210
    1res  C2    2    0.936   0.077  -0.021
    1res  C3    3    0.746   0.064   0.076
    1res  C4    4    0.675  -0.085   0.265
    1res  C5    5    0.446  -0.162   0.079
    1res  C6    6    0.216  -0.313   0.174
    1res  C7    7    0.256  -0.045   0.297
    1res  C8    8    0.164  -0.262   0.469
    1res  C9    9    0.020  -0.351  -0.114
    1res  C10   10   -0.167  -0.361   0.128
    1res  C11   11   -0.223  -0.216  -0.182
    1res  C12   12   -0.264  -0.033   0.172
    1res  C13   13   -0.563  -0.192   0.108
    1res  C14   14   -0.602   0.041  -0.018
    1res  C15   15   -0.869  -0.068  -0.148
    1res  C16   16   -1.037  -0.040   0.013
    1res  C17   17   -1.310  -0.036   0.084
    1res  C18   18   -1.568  -0.155   0.155
    1res  C19   19   -1.546   0.079  -0.052
    1res  C20   20   -1.433   0.241   0.120
    1res  C21   21   -1.207   0.220   0.017
    1res  C22   22   -1.077  -0.055  -0.289
    1res  C23   23   -0.920  -0.049  -0.464
    1res  C24   24   -0.757   0.068  -0.362
    1res  C25   25   -0.546   0.197   0.223
    1res  C26   26   -0.503   0.271  -0.112
    1res  C27   27   -0.199   0.042  -0.126
    1res  C28   28    0.172  -0.055  -0.111
    1res  C29   29    0.579   0.148   0.395
    1res  C30   30    0.678   0.245   0.217
    1res  C31   31    1.043   0.211   0.174
    1res  C32   32    1.206   0.174  -0.014
    1res  C33   33    1.293   0.270  -0.206
    1res  C34   34    1.532   0.240  -0.100
    1res  C35   35    1.710   0.315  -0.257
    1res  C36   36    1.528   0.441  -0.343
    1res  C37   37    1.366   0.308  -0.403
  10.00000  10.00000  10.00000
