Generated with MDTraj, t= 0.0
 53
    1UNL     C1    1  -0.335  -0.164   0.188
    1UNL     C2    2  -0.299  -0.042   0.105
    1UNL     C3    3  -0.223  -0.060  -0.030
    1UNL     C4    4  -0.217   0.082  -0.094
    1UNL     C5    5  -0.128   0.176  -0.016
    1UNL     C6    6  -0.152   0.319  -0.033
    1UNL     O1    7  -0.248   0.357  -0.098
    1UNL     O2    8  -0.062   0.406   0.025
    1UNL     C7    9  -0.101   0.537  -0.000
    1UNL     C8   10  -0.017   0.129   0.049
    1UNL     N1   11   0.103   0.199   0.058
    1UNL     C9   12   0.212   0.115   0.024
    1UNL    C10   13   0.342   0.147  -0.008
    1UNL    C11   14   0.429   0.047  -0.052
    1UNL     O3   15   0.560   0.085  -0.083
    1UNL    C12   16   0.643  -0.018  -0.130
    1UNL    C13   17   0.380  -0.085  -0.063
    1UNL    C14   18   0.250  -0.116  -0.032
    1UNL    C15   19   0.165  -0.016   0.011
    1UNL    C16   20   0.021  -0.019   0.060
    1UNL    C17   21   0.021  -0.082   0.203
    1UNL    C18   22  -0.002  -0.232   0.180
    1UNL     N2   23  -0.072  -0.243   0.049
    1UNL    C19   24  -0.170  -0.338   0.023
    1UNL     O4   25  -0.186  -0.435   0.094
    1UNL    C20   26  -0.261  -0.311  -0.095
    1UNL     O5   27  -0.386  -0.251  -0.062
    1UNL    C21   28  -0.295  -0.162  -0.123
    1UNL    C22   29  -0.075  -0.112  -0.020
    1UNL     H1   30  -0.247  -0.221   0.217
    1UNL     H2   31  -0.399  -0.232   0.132
    1UNL     H3   32  -0.388  -0.137   0.279
    1UNL     H4   33  -0.242   0.028   0.167
    1UNL     H5   34  -0.392   0.012   0.082
    1UNL     H6   35  -0.179   0.075  -0.196
    1UNL     H7   36  -0.317   0.125  -0.102
    1UNL     H8   37  -0.202   0.552   0.038
    1UNL     H9   38  -0.100   0.553  -0.108
    1UNL    H10   39  -0.032   0.605   0.049
    1UNL    H11   40   0.105   0.298   0.032
    1UNL    H12   41   0.377   0.248  -0.000
    1UNL    H13   42   0.741   0.024  -0.152
    1UNL    H14   43   0.654  -0.095  -0.054
    1UNL    H15   44   0.601  -0.060  -0.222
    1UNL    H16   45   0.446  -0.163  -0.096
    1UNL    H17   46   0.213  -0.217  -0.040
    1UNL    H18   47   0.116  -0.062   0.254
    1UNL    H19   48  -0.058  -0.037   0.265
    1UNL    H20   49  -0.061  -0.281   0.259
    1UNL    H21   50   0.092  -0.287   0.172
    1UNL    H22   51  -0.266  -0.386  -0.174
    1UNL    H23   52  -0.321  -0.130  -0.224
    1UNL    H24   53  -0.036  -0.126  -0.121
   0.00000   0.00000   0.00000   0.00000   0.00000   0.00000   0.00000   0.00000   0.00000
Generated with MDTraj, t= 1.0
 53
    1UNL     C1    1  -0.353  -0.148   0.174
    1UNL     C2    2  -0.294  -0.027   0.100
    1UNL     C3    3  -0.223  -0.058  -0.032
    1UNL     C4    4  -0.207   0.080  -0.105
    1UNL     C5    5  -0.121   0.174  -0.017
    1UNL     C6    6  -0.158   0.317  -0.035
    1UNL     O1    7  -0.269   0.350  -0.076
    1UNL     O2    8  -0.067   0.409   0.011
    1UNL     C7    9  -0.133   0.536   0.017
    1UNL     C8   10  -0.007   0.126   0.049
    1UNL     N1   11   0.112   0.196   0.058
    1UNL     C9   12   0.221   0.113   0.009
    1UNL    C10   13   0.353   0.142  -0.012
    1UNL    C11   14   0.441   0.043  -0.049
    1UNL     O3   15   0.570   0.088  -0.074
    1UNL    C12   16   0.650  -0.017  -0.130
    1UNL    C13   17   0.397  -0.090  -0.054
    1UNL    C14   18   0.265  -0.119  -0.028
    1UNL    C15   19   0.175  -0.021  -0.002
    1UNL    C16   20   0.028  -0.020   0.058
    1UNL    C17   21   0.029  -0.084   0.203
    1UNL    C18   22  -0.024  -0.229   0.182
    1UNL     N2   23  -0.074  -0.243   0.048
    1UNL    C19   24  -0.165  -0.340   0.020
    1UNL     O4   25  -0.185  -0.437   0.089
    1UNL    C20   26  -0.268  -0.313  -0.091
    1UNL     O5   27  -0.391  -0.249  -0.049
    1UNL    C21   28  -0.307  -0.163  -0.119
    1UNL    C22   29  -0.083  -0.107  -0.023
    1UNL     H1   30  -0.295  -0.238   0.170
    1UNL     H2   31  -0.440  -0.177   0.136
    1UNL     H3   32  -0.373  -0.132   0.286
    1UNL     H4   33  -0.224   0.033   0.159
    1UNL     H5   34  -0.378   0.040   0.072
    1UNL     H6   35  -0.152   0.070  -0.199
    1UNL     H7   36  -0.301   0.123  -0.134
    1UNL     H8   37  -0.074   0.620   0.058
    1UNL     H9   38  -0.230   0.511   0.063
    1UNL    H10   39  -0.160   0.575  -0.084
    1UNL    H11   40   0.110   0.303   0.044
    1UNL    H12   41   0.394   0.241  -0.003
    1UNL    H13   42   0.745   0.035  -0.141
    1UNL    H14   43   0.661  -0.105  -0.064
    1UNL    H15   44   0.608  -0.066  -0.219
    1UNL    H16   45   0.460  -0.176  -0.073
    1UNL    H17   46   0.223  -0.222  -0.019
    1UNL    H18   47   0.133  -0.081   0.252
    1UNL    H19   48  -0.027  -0.022   0.258
    1UNL    H20   49  -0.093  -0.242   0.255
    1UNL    H21   50   0.062  -0.302   0.190
    1UNL    H22   51  -0.275  -0.383  -0.163
    1UNL    H23   52  -0.349  -0.131  -0.209
    1UNL    H24   53  -0.046  -0.130  -0.122
   0.00000   0.00000   0.00000   0.00000   0.00000   0.00000   0.00000   0.00000   0.00000
Generated with MDTraj, t= 2.0
 53
    1UNL     C1    1  -0.348  -0.154   0.175
    1UNL     C2    2  -0.300  -0.035   0.093
    1UNL     C3    3  -0.219  -0.061  -0.034
    1UNL     C4    4  -0.215   0.083  -0.102
    1UNL     C5    5  -0.128   0.180  -0.030
    1UNL     C6    6  -0.176   0.320  -0.026
    1UNL     O1    7  -0.286   0.362  -0.057
    1UNL     O2    8  -0.076   0.387   0.028
    1UNL     C7    9  -0.098   0.524   0.022
    1UNL     C8   10  -0.012   0.134   0.030
    1UNL     N1   11   0.109   0.198   0.029
    1UNL     C9   12   0.216   0.111   0.011
    1UNL    C10   13   0.350   0.141  -0.005
    1UNL    C11   14   0.443   0.041  -0.043
    1UNL     O3   15   0.572   0.084  -0.071
    1UNL    C12   16   0.654  -0.025  -0.122
    1UNL    C13   17   0.392  -0.090  -0.065
    1UNL    C14   18   0.254  -0.122  -0.032
    1UNL    C15   19   0.165  -0.018   0.001
    1UNL    C16   20   0.025  -0.014   0.048
    1UNL    C17   21   0.025  -0.068   0.198
    1UNL    C18   22  -0.006  -0.217   0.190
    1UNL     N2   23  -0.077  -0.233   0.058
    1UNL    C19   24  -0.170  -0.335   0.033
    1UNL     O4   25  -0.185  -0.433   0.103
    1UNL    C20   26  -0.258  -0.317  -0.090
    1UNL     O5   27  -0.385  -0.252  -0.069
    1UNL    C21   28  -0.290  -0.166  -0.128
    1UNL    C22   29  -0.076  -0.108  -0.024
    1UNL     H1   30  -0.265  -0.217   0.200
    1UNL     H2   31  -0.411  -0.218   0.116
    1UNL     H3   32  -0.403  -0.119   0.268
    1UNL     H4   33  -0.242   0.035   0.158
    1UNL     H5   34  -0.396   0.016   0.067
    1UNL     H6   35  -0.162   0.070  -0.198
    1UNL     H7   36  -0.309   0.120  -0.130
    1UNL     H8   37  -0.033   0.561  -0.063
    1UNL     H9   38  -0.079   0.565   0.125
    1UNL    H10   39  -0.206   0.542   0.001
    1UNL    H11   40   0.115   0.298  -0.016
    1UNL    H12   41   0.385   0.246  -0.007
    1UNL    H13   42   0.749   0.021  -0.135
    1UNL    H14   43   0.664  -0.109  -0.049
    1UNL    H15   44   0.614  -0.076  -0.211
    1UNL    H16   45   0.460  -0.163  -0.107
    1UNL    H17   46   0.223  -0.219  -0.040
    1UNL    H18   47   0.126  -0.053   0.247
    1UNL    H19   48  -0.041  -0.008   0.259
    1UNL    H20   49  -0.070  -0.242   0.263
    1UNL    H21   50   0.085  -0.285   0.180
    1UNL    H22   51  -0.264  -0.399  -0.158
    1UNL    H23   52  -0.313  -0.138  -0.225
    1UNL    H24   53  -0.034  -0.120  -0.122
   0.00000   0.00000   0.00000   0.00000   0.00000   0.00000   0.00000   0.00000   0.00000
Generated with MDTraj, t= 3.0
 53
    1UNL     C1    1  -0.330  -0.169   0.185
    1UNL     C2    2  -0.313  -0.052   0.099
    1UNL     C3    3  -0.220  -0.061  -0.032
    1UNL     C4    4  -0.218   0.087  -0.093
    1UNL     C5    5  -0.136   0.182  -0.013
    1UNL     C6    6  -0.155   0.329  -0.032
    1UNL     O1    7  -0.255   0.369  -0.088
    1UNL     O2    8  -0.063   0.412   0.029
    1UNL     C7    9  -0.115   0.547   0.031
    1UNL     C8   10  -0.016   0.134   0.034
    1UNL     N1   11   0.105   0.201   0.043
    1UNL     C9   12   0.214   0.117   0.007
    1UNL    C10   13   0.344   0.144  -0.030
    1UNL    C11   14   0.428   0.035  -0.061
    1UNL     O3   15   0.561   0.079  -0.073
    1UNL    C12   16   0.639  -0.029  -0.101
    1UNL    C13   17   0.381  -0.097  -0.063
    1UNL    C14   18   0.249  -0.116  -0.038
    1UNL    C15   19   0.164  -0.014   0.002
    1UNL    C16   20   0.025  -0.018   0.055
    1UNL    C17   21   0.024  -0.079   0.200
    1UNL    C18   22   0.001  -0.230   0.184
    1UNL     N2   23  -0.068  -0.243   0.047
    1UNL    C19   24  -0.170  -0.338   0.031
    1UNL     O4   25  -0.199  -0.423   0.114
    1UNL    C20   26  -0.251  -0.317  -0.095
    1UNL     O5   27  -0.373  -0.261  -0.080
    1UNL    C21   28  -0.279  -0.168  -0.128
    1UNL    C22   29  -0.076  -0.111  -0.018
    1UNL     H1   30  -0.236  -0.203   0.234
    1UNL     H2   31  -0.353  -0.270   0.121
    1UNL     H3   32  -0.402  -0.161   0.266
    1UNL     H4   33  -0.264   0.030   0.161
    1UNL     H5   34  -0.410  -0.010   0.061
    1UNL     H6   35  -0.181   0.084  -0.198
    1UNL     H7   36  -0.312   0.125  -0.105
    1UNL     H8   37  -0.206   0.543  -0.036
    1UNL     H9   38  -0.042   0.617  -0.013
    1UNL    H10   39  -0.141   0.567   0.136
    1UNL    H11   40   0.106   0.308   0.029
    1UNL    H12   41   0.368   0.244  -0.032
    1UNL    H13   42   0.732   0.019  -0.120
    1UNL    H14   43   0.652  -0.093  -0.011
    1UNL    H15   44   0.603  -0.086  -0.191
    1UNL    H16   45   0.453  -0.172  -0.083
    1UNL    H17   46   0.218  -0.225  -0.031
    1UNL    H18   47   0.117  -0.052   0.251
    1UNL    H19   48  -0.060  -0.027   0.268
    1UNL    H20   49  -0.072  -0.280   0.249
    1UNL    H21   50   0.092  -0.289   0.165
    1UNL    H22   51  -0.243  -0.395  -0.180
    1UNL    H23   52  -0.300  -0.131  -0.229
    1UNL    H24   53  -0.030  -0.109  -0.115
   0.00000   0.00000   0.00000   0.00000   0.00000   0.00000   0.00000   0.00000   0.00000
Generated with MDTraj, t= 4.0
 53
    1UNL     C1    1  -0.341  -0.160   0.190
    1UNL     C2    2  -0.302  -0.037   0.108
    1UNL     C3    3  -0.226  -0.057  -0.025
    1UNL     C4    4  -0.215   0.085  -0.091
    1UNL     C5    5  -0.124   0.176  -0.015
    1UNL     C6    6  -0.150   0.319  -0.035
    1UNL     O1    7  -0.239   0.353  -0.110
    1UNL     O2    8  -0.085   0.406   0.043
    1UNL     C7    9  -0.118   0.534  -0.002
    1UNL     C8   10  -0.010   0.128   0.050
    1UNL     N1   11   0.113   0.201   0.068
    1UNL     C9   12   0.220   0.115   0.033
    1UNL    C10   13   0.343   0.150  -0.021
    1UNL    C11   14   0.424   0.043  -0.062
    1UNL     O3   15   0.553   0.074  -0.108
    1UNL    C12   16   0.651  -0.025  -0.088
    1UNL    C13   17   0.377  -0.090  -0.063
    1UNL    C14   18   0.250  -0.117  -0.022
    1UNL    C15   19   0.172  -0.014   0.020
    1UNL    C16   20   0.027  -0.018   0.060
    1UNL    C17   21   0.021  -0.080   0.197
    1UNL    C18   22  -0.011  -0.229   0.170
    1UNL     N2   23  -0.073  -0.242   0.040
    1UNL    C19   24  -0.165  -0.338   0.015
    1UNL     O4   25  -0.165  -0.442   0.077
    1UNL    C20   26  -0.262  -0.306  -0.096
    1UNL     O5   27  -0.388  -0.248  -0.053
    1UNL    C21   28  -0.300  -0.156  -0.120
    1UNL    C22   29  -0.078  -0.111  -0.024
    1UNL     H1   30  -0.260  -0.241   0.180
    1UNL     H2   31  -0.425  -0.207   0.124
    1UNL     H3   32  -0.371  -0.140   0.294
    1UNL     H4   33  -0.240   0.038   0.168
    1UNL     H5   34  -0.394   0.021   0.076
    1UNL     H6   35  -0.175   0.083  -0.196
    1UNL     H7   36  -0.308   0.122  -0.114
    1UNL     H8   37  -0.209   0.559   0.058
    1UNL     H9   38  -0.146   0.530  -0.108
    1UNL    H10   39  -0.034   0.592   0.032
    1UNL    H11   40   0.128   0.295   0.028
    1UNL    H12   41   0.374   0.258  -0.020
    1UNL    H13   42   0.746   0.022  -0.092
    1UNL    H14   43   0.640  -0.067   0.014
    1UNL    H15   44   0.638  -0.098  -0.176
    1UNL    H16   45   0.452  -0.168  -0.088
    1UNL    H17   46   0.200  -0.208  -0.023
    1UNL    H18   47   0.118  -0.053   0.246
    1UNL    H19   48  -0.053  -0.026   0.270
    1UNL    H20   49  -0.085  -0.281   0.247
    1UNL    H21   50   0.086  -0.275   0.164
    1UNL    H22   51  -0.265  -0.380  -0.187
    1UNL    H23   52  -0.341  -0.119  -0.222
    1UNL    H24   53  -0.033  -0.144  -0.117
   0.00000   0.00000   0.00000   0.00000   0.00000   0.00000   0.00000   0.00000   0.00000
Generated with MDTraj, t= 5.0
 53
    1UNL     C1    1  -0.344  -0.152   0.199
    1UNL     C2    2  -0.296  -0.033   0.116
    1UNL     C3    3  -0.226  -0.057  -0.022
    1UNL     C4    4  -0.217   0.081  -0.089
    1UNL     C5    5  -0.124   0.176  -0.021
    1UNL     C6    6  -0.142   0.316  -0.047
    1UNL     O1    7  -0.238   0.356  -0.111
    1UNL     O2    8  -0.053   0.400   0.024
    1UNL     C7    9  -0.088   0.538   0.002
    1UNL     C8   10  -0.019   0.132   0.049
    1UNL     N1   11   0.101   0.207   0.058
    1UNL     C9   12   0.204   0.117   0.018
    1UNL    C10   13   0.332   0.148  -0.023
    1UNL    C11   14   0.423   0.044  -0.058
    1UNL     O3   15   0.552   0.091  -0.073
    1UNL    C12   16   0.651  -0.009  -0.100
    1UNL    C13   17   0.371  -0.082  -0.067
    1UNL    C14   18   0.244  -0.117  -0.034
    1UNL    C15   19   0.164  -0.017   0.017
    1UNL    C16   20   0.011  -0.019   0.065
    1UNL    C17   21   0.021  -0.088   0.205
    1UNL    C18   22  -0.002  -0.239   0.185
    1UNL     N2   23  -0.085  -0.242   0.057
    1UNL    C19   24  -0.165  -0.345   0.014
    1UNL     O4   25  -0.160  -0.460   0.053
    1UNL    C20   26  -0.260  -0.305  -0.102
    1UNL     O5   27  -0.381  -0.257  -0.055
    1UNL    C21   28  -0.304  -0.158  -0.114
    1UNL    C22   29  -0.087  -0.109  -0.015
    1UNL     H1   30  -0.267  -0.229   0.202
    1UNL     H2   31  -0.419  -0.194   0.137
    1UNL     H3   32  -0.386  -0.120   0.304
    1UNL     H4   33  -0.224   0.035   0.171
    1UNL     H5   34  -0.388   0.034   0.112
    1UNL     H6   35  -0.189   0.061  -0.195
    1UNL     H7   36  -0.305   0.133  -0.108
    1UNL     H8   37  -0.158   0.553   0.087
    1UNL     H9   38  -0.142   0.538  -0.091
    1UNL    H10   39  -0.007   0.601   0.029
    1UNL    H11   40   0.111   0.293   0.013
    1UNL    H12   41   0.377   0.244  -0.021
    1UNL    H13   42   0.742   0.039  -0.112
    1UNL    H14   43   0.657  -0.079  -0.014
    1UNL    H15   44   0.612  -0.053  -0.200
    1UNL    H16   45   0.435  -0.157  -0.101
    1UNL    H17   46   0.207  -0.220  -0.041
    1UNL    H18   47   0.126  -0.066   0.247
    1UNL    H19   48  -0.033  -0.036   0.281
    1UNL    H20   49  -0.070  -0.285   0.271
    1UNL    H21   50   0.094  -0.285   0.180
    1UNL    H22   51  -0.269  -0.379  -0.182
    1UNL    H23   52  -0.327  -0.122  -0.222
    1UNL    H24   53  -0.040  -0.127  -0.112
   0.00000   0.00000   0.00000   0.00000   0.00000   0.00000   0.00000   0.00000   0.00000
Generated with MDTraj, t= 6.0
 53
    1UNL     C1    1  -0.341  -0.176   0.195
    1UNL     C2    2  -0.303  -0.060   0.109
    1UNL     C3    3  -0.228  -0.065  -0.028
    1UNL     C4    4  -0.235   0.081  -0.081
    1UNL     C5    5  -0.135   0.183  -0.024
    1UNL     C6    6  -0.147   0.331  -0.030
    1UNL     O1    7  -0.250   0.366  -0.084
    1UNL     O2    8  -0.053   0.418   0.020
    1UNL     C7    9  -0.074   0.550  -0.029
    1UNL     C8   10  -0.021   0.134   0.040
    1UNL     N1   11   0.102   0.199   0.059
    1UNL     C9   12   0.215   0.122   0.026
    1UNL    C10   13   0.351   0.143   0.019
    1UNL    C11   14   0.431   0.043  -0.035
    1UNL     O3   15   0.562   0.086  -0.063
    1UNL    C12   16   0.647  -0.013  -0.131
    1UNL    C13   17   0.378  -0.083  -0.066
    1UNL    C14   18   0.244  -0.112  -0.041
    1UNL    C15   19   0.162  -0.013   0.010
    1UNL    C16   20   0.020  -0.014   0.052
    1UNL    C17   21   0.012  -0.078   0.197
    1UNL    C18   22   0.004  -0.229   0.173
    1UNL     N2   23  -0.072  -0.244   0.040
    1UNL    C19   24  -0.167  -0.347   0.013
    1UNL     O4   25  -0.178  -0.442   0.088
    1UNL    C20   26  -0.265  -0.324  -0.097
    1UNL     O5   27  -0.390  -0.259  -0.059
    1UNL    C21   28  -0.298  -0.170  -0.119
    1UNL    C22   29  -0.075  -0.112  -0.027
    1UNL     H1   30  -0.265  -0.244   0.213
    1UNL     H2   31  -0.405  -0.240   0.145
    1UNL     H3   32  -0.394  -0.157   0.299
    1UNL     H4   33  -0.243   0.015   0.168
    1UNL     H5   34  -0.396   0.005   0.100
    1UNL     H6   35  -0.214   0.091  -0.188
    1UNL     H7   36  -0.337   0.117  -0.085
    1UNL     H8   37  -0.186   0.562  -0.031
    1UNL     H9   38  -0.032   0.552  -0.128
    1UNL    H10   39  -0.044   0.617   0.049
    1UNL    H11   40   0.104   0.295   0.051
    1UNL    H12   41   0.395   0.237   0.047
    1UNL    H13   42   0.740   0.023  -0.160
    1UNL    H14   43   0.660  -0.096  -0.060
    1UNL    H15   44   0.580  -0.035  -0.222
    1UNL    H16   45   0.450  -0.161  -0.098
    1UNL    H17   46   0.210  -0.213  -0.059
    1UNL    H18   47   0.099  -0.048   0.269
    1UNL    H19   48  -0.062  -0.049   0.260
    1UNL    H20   49  -0.058  -0.286   0.253
    1UNL    H21   50   0.095  -0.283   0.151
    1UNL    H22   51  -0.279  -0.401  -0.163
    1UNL    H23   52  -0.325  -0.142  -0.220
    1UNL    H24   53  -0.039  -0.120  -0.130
   0.00000   0.00000   0.00000   0.00000   0.00000   0.00000   0.00000   0.00000   0.00000
Generated with MDTraj, t= 7.0
 53
    1UNL     C1    1  -0.331  -0.169   0.202
    1UNL     C2    2  -0.298  -0.054   0.104
    1UNL     C3    3  -0.220  -0.060  -0.032
    1UNL     C4    4  -0.221   0.080  -0.084
    1UNL     C5    5  -0.127   0.171  -0.002
    1UNL     C6    6  -0.155   0.316  -0.028
    1UNL     O1    7  -0.266   0.338  -0.076
    1UNL     O2    8  -0.056   0.404   0.001
    1UNL     C7    9  -0.098   0.527  -0.035
    1UNL     C8   10  -0.012   0.133   0.068
    1UNL     N1   11   0.108   0.203   0.067
    1UNL     C9   12   0.210   0.117   0.014
    1UNL    C10   13   0.343   0.144  -0.001
    1UNL    C11   14   0.430   0.046  -0.036
    1UNL     O3   15   0.568   0.072  -0.051
    1UNL    C12   16   0.644  -0.001  -0.146
    1UNL    C13   17   0.376  -0.085  -0.053
    1UNL    C14   18   0.243  -0.117  -0.031
    1UNL    C15   19   0.159  -0.012  -0.000
    1UNL    C16   20   0.025  -0.018   0.064
    1UNL    C17   21   0.032  -0.089   0.200
    1UNL    C18   22   0.004  -0.236   0.175
    1UNL     N2   23  -0.068  -0.241   0.045
    1UNL    C19   24  -0.170  -0.331   0.016
    1UNL     O4   25  -0.203  -0.420   0.090
    1UNL    C20   26  -0.261  -0.302  -0.106
    1UNL     O5   27  -0.389  -0.240  -0.079
    1UNL    C21   28  -0.293  -0.157  -0.132
    1UNL    C22   29  -0.073  -0.106  -0.019
    1UNL     H1   30  -0.239  -0.221   0.236
    1UNL     H2   31  -0.386  -0.236   0.141
    1UNL     H3   32  -0.391  -0.142   0.284
    1UNL     H4   33  -0.257   0.013   0.185
    1UNL     H5   34  -0.393   0.001   0.079
    1UNL     H6   35  -0.203   0.084  -0.191
    1UNL     H7   36  -0.319   0.131  -0.090
    1UNL     H8   37  -0.201   0.538   0.018
    1UNL     H9   38  -0.095   0.524  -0.146
    1UNL    H10   39  -0.032   0.602   0.004
    1UNL    H11   40   0.085   0.296   0.034
    1UNL    H12   41   0.375   0.245   0.025
    1UNL    H13   42   0.742   0.035  -0.152
    1UNL    H14   43   0.641  -0.103  -0.110
    1UNL    H15   44   0.585   0.018  -0.241
    1UNL    H16   45   0.442  -0.170  -0.056
    1UNL    H17   46   0.217  -0.220  -0.024
    1UNL    H18   47   0.130  -0.076   0.259
    1UNL    H19   48  -0.036  -0.050   0.271
    1UNL    H20   49  -0.055  -0.283   0.259
    1UNL    H21   50   0.096  -0.294   0.150
    1UNL    H22   51  -0.262  -0.378  -0.178
    1UNL    H23   52  -0.307  -0.126  -0.229
    1UNL    H24   53  -0.029  -0.112  -0.121
   0.00000   0.00000   0.00000   0.00000   0.00000   0.00000   0.00000   0.00000   0.00000
Generated with MDTraj, t= 8.0
 53
    1UNL     C1    1  -0.340  -0.155   0.187
    1UNL     C2    2  -0.301  -0.042   0.096
    1UNL     C3    3  -0.223  -0.061  -0.039
    1UNL     C4    4  -0.216   0.080  -0.102
    1UNL     C5    5  -0.125   0.172  -0.021
    1UNL     C6    6  -0.150   0.318  -0.031
    1UNL     O1    7  -0.262   0.352  -0.070
    1UNL     O2    8  -0.050   0.410  -0.001
    1UNL     C7    9  -0.097   0.549  -0.006
    1UNL     C8   10  -0.017   0.128   0.045
    1UNL     N1   11   0.103   0.196   0.062
    1UNL     C9   12   0.210   0.110   0.040
    1UNL    C10   13   0.351   0.143   0.018
    1UNL    C11   14   0.439   0.047  -0.034
    1UNL     O3   15   0.562   0.092  -0.086
    1UNL    C12   16   0.649   0.004  -0.146
    1UNL    C13   17   0.390  -0.090  -0.051
    1UNL    C14   18   0.256  -0.126  -0.023
    1UNL    C15   19   0.170  -0.022   0.022
    1UNL    C16   20   0.018  -0.018   0.059
    1UNL    C17   21   0.014  -0.079   0.204
    1UNL    C18   22  -0.013  -0.236   0.179
    1UNL     N2   23  -0.078  -0.243   0.049
    1UNL    C19   24  -0.176  -0.339   0.020
    1UNL     O4   25  -0.184  -0.439   0.086
    1UNL    C20   26  -0.267  -0.315  -0.100
    1UNL     O5   27  -0.386  -0.252  -0.056
    1UNL    C21   28  -0.303  -0.164  -0.134
    1UNL    C22   29  -0.074  -0.111  -0.027
    1UNL     H1   30  -0.251  -0.207   0.218
    1UNL     H2   31  -0.404  -0.226   0.135
    1UNL     H3   32  -0.392  -0.130   0.268
    1UNL     H4   33  -0.246   0.040   0.150
    1UNL     H5   34  -0.398   0.014   0.074
    1UNL     H6   35  -0.182   0.085  -0.204
    1UNL     H7   36  -0.320   0.120  -0.119
    1UNL     H8   37  -0.130   0.568   0.105
    1UNL     H9   38  -0.175   0.547  -0.086
    1UNL    H10   39  -0.021   0.616  -0.040
    1UNL    H11   40   0.110   0.296   0.024
    1UNL    H12   41   0.392   0.240   0.006
    1UNL    H13   42   0.726   0.056  -0.200
    1UNL    H14   43   0.687  -0.052  -0.062
    1UNL    H15   44   0.582  -0.056  -0.213
    1UNL    H16   45   0.445  -0.174  -0.091
    1UNL    H17   46   0.222  -0.232  -0.034
    1UNL    H18   47   0.100  -0.054   0.273
    1UNL    H19   48  -0.070  -0.035   0.266
    1UNL    H20   49  -0.081  -0.266   0.256
    1UNL    H21   50   0.089  -0.293   0.188
    1UNL    H22   51  -0.285  -0.397  -0.176
    1UNL    H23   52  -0.340  -0.142  -0.230
    1UNL    H24   53  -0.040  -0.142  -0.128
   0.00000   0.00000   0.00000   0.00000   0.00000   0.00000   0.00000   0.00000   0.00000
Generated with MDTraj, t= 9.0
 53
    1UNL     C1    1  -0.352  -0.151   0.175
    1UNL     C2    2  -0.295  -0.034   0.098
    1UNL     C3    3  -0.215  -0.061  -0.040
    1UNL     C4    4  -0.207   0.078  -0.109
    1UNL     C5    5  -0.133   0.175  -0.021
    1UNL     C6    6  -0.148   0.322  -0.033
    1UNL     O1    7  -0.252   0.360  -0.086
    1UNL     O2    8  -0.049   0.406   0.013
    1UNL     C7    9  -0.087   0.541   0.022
    1UNL     C8   10  -0.024   0.125   0.050
    1UNL     N1   11   0.096   0.201   0.052
    1UNL     C9   12   0.210   0.121   0.029
    1UNL    C10   13   0.335   0.156  -0.018
    1UNL    C11   14   0.422   0.058  -0.055
    1UNL     O3   15   0.559   0.088  -0.082
    1UNL    C12   16   0.643  -0.020  -0.126
    1UNL    C13   17   0.374  -0.077  -0.065
    1UNL    C14   18   0.249  -0.114  -0.029
    1UNL    C15   19   0.171  -0.017   0.020
    1UNL    C16   20   0.022  -0.022   0.064
    1UNL    C17   21   0.019  -0.087   0.211
    1UNL    C18   22  -0.016  -0.236   0.189
    1UNL     N2   23  -0.082  -0.243   0.057
    1UNL    C19   24  -0.173  -0.342   0.024
    1UNL     O4   25  -0.179  -0.448   0.086
    1UNL    C20   26  -0.256  -0.316  -0.100
    1UNL     O5   27  -0.375  -0.260  -0.057
    1UNL    C21   28  -0.292  -0.171  -0.127
    1UNL    C22   29  -0.070  -0.117  -0.014
    1UNL     H1   30  -0.278  -0.211   0.208
    1UNL     H2   31  -0.424  -0.209   0.121
    1UNL     H3   32  -0.405  -0.113   0.267
    1UNL     H4   33  -0.233   0.042   0.154
    1UNL     H5   34  -0.385   0.033   0.077
    1UNL     H6   35  -0.159   0.067  -0.203
    1UNL     H7   36  -0.304   0.129  -0.145
    1UNL     H8   37  -0.186   0.537   0.084
    1UNL     H9   38  -0.087   0.578  -0.082
    1UNL    H10   39  -0.009   0.590   0.074
    1UNL    H11   40   0.091   0.301   0.015
    1UNL    H12   41   0.354   0.265  -0.025
    1UNL    H13   42   0.749   0.005  -0.120
    1UNL    H14   43   0.628  -0.098  -0.053
    1UNL    H15   44   0.615  -0.044  -0.230
    1UNL    H16   45   0.436  -0.168  -0.086
    1UNL    H17   46   0.208  -0.210  -0.016
    1UNL    H18   47   0.109  -0.078   0.272
    1UNL    H19   48  -0.066  -0.031   0.274
    1UNL    H20   49  -0.071  -0.284   0.267
    1UNL    H21   50   0.093  -0.281   0.170
    1UNL    H22   51  -0.270  -0.406  -0.173
    1UNL    H23   52  -0.328  -0.138  -0.229
    1UNL    H24   53  -0.024  -0.134  -0.115
   0.00000   0.00000   0.00000   0.00000   0.00000   0.00000   0.00000   0.00000   0.00000
Generated with MDTraj, t= 10.0
 53
    1UNL     C1    1  -0.349  -0.185   0.180
    1UNL     C2    2  -0.305  -0.049   0.103
    1UNL     C3    3  -0.227  -0.055  -0.032
    1UNL     C4    4  -0.216   0.088  -0.085
    1UNL     C5    5  -0.134   0.179  -0.004
    1UNL     C6    6  -0.159   0.320  -0.031
    1UNL     O1    7  -0.239   0.349  -0.120
    1UNL     O2    8  -0.091   0.409   0.050
    1UNL     C7    9  -0.118   0.536   0.006
    1UNL     C8   10  -0.015   0.128   0.051
    1UNL     N1   11   0.112   0.199   0.058
    1UNL     C9   12   0.218   0.106   0.033
    1UNL    C10   13   0.346   0.137  -0.007
    1UNL    C11   14   0.430   0.037  -0.060
    1UNL     O3   15   0.560   0.079  -0.097
    1UNL    C12   16   0.655  -0.029  -0.110
    1UNL    C13   17   0.379  -0.090  -0.077
    1UNL    C14   18   0.245  -0.125  -0.045
    1UNL    C15   19   0.167  -0.023   0.012
    1UNL    C16   20   0.027  -0.018   0.062
    1UNL    C17   21   0.027  -0.069   0.202
    1UNL    C18   22  -0.008  -0.218   0.187
    1UNL     N2   23  -0.077  -0.229   0.058
    1UNL    C19   24  -0.164  -0.331   0.023
    1UNL     O4   25  -0.182  -0.425   0.101
    1UNL    C20   26  -0.243  -0.299  -0.104
    1UNL     O5   27  -0.377  -0.249  -0.077
    1UNL    C21   28  -0.290  -0.151  -0.130
    1UNL    C22   29  -0.075  -0.110  -0.016
    1UNL     H1   30  -0.255  -0.231   0.226
    1UNL     H2   31  -0.389  -0.255   0.117
    1UNL     H3   32  -0.413  -0.156   0.269
    1UNL     H4   33  -0.247   0.003   0.183
    1UNL     H5   34  -0.393   0.019   0.087
    1UNL     H6   35  -0.199   0.100  -0.189
    1UNL     H7   36  -0.323   0.130  -0.079
    1UNL     H8   37  -0.233   0.533  -0.002
    1UNL     H9   38  -0.063   0.543  -0.086
    1UNL    H10   39  -0.074   0.601   0.074
    1UNL    H11   40   0.110   0.306   0.038
    1UNL    H12   41   0.381   0.235  -0.020
    1UNL    H13   42   0.752   0.012  -0.148
    1UNL    H14   43   0.679  -0.057  -0.010
    1UNL    H15   44   0.625  -0.107  -0.180
    1UNL    H16   45   0.444  -0.160  -0.115
    1UNL    H17   46   0.223  -0.235  -0.049
    1UNL    H18   47   0.126  -0.052   0.243
    1UNL    H19   48  -0.053  -0.021   0.270
    1UNL    H20   49  -0.081  -0.252   0.257
    1UNL    H21   50   0.090  -0.287   0.182
    1UNL    H22   51  -0.240  -0.374  -0.187
    1UNL    H23   52  -0.321  -0.119  -0.239
    1UNL    H24   53  -0.045  -0.134  -0.122
   0.00000   0.00000   0.00000   0.00000   0.00000   0.00000   0.00000   0.00000   0.00000
Generated with MDTraj, t= 11.0
 53
    1UNL     C1    1  -0.338  -0.173   0.175
    1UNL     C2    2  -0.296  -0.050   0.106
    1UNL     C3    3  -0.227  -0.057  -0.033
    1UNL     C4    4  -0.216   0.086  -0.084
    1UNL     C5    5  -0.133   0.180  -0.009
    1UNL     C6    6  -0.150   0.317  -0.034
    1UNL     O1    7  -0.226   0.363  -0.121
    1UNL     O2    8  -0.069   0.411   0.037
    1UNL     C7    9  -0.121   0.543   0.027
    1UNL     C8   10  -0.022   0.131   0.056
    1UNL     N1   11   0.099   0.200   0.056
    1UNL     C9   12   0.205   0.123   0.006
    1UNL    C10   13   0.334   0.150  -0.030
    1UNL    C11   14   0.427   0.046  -0.059
    1UNL     O3   15   0.557   0.081  -0.088
    1UNL    C12   16   0.631  -0.042  -0.103
    1UNL    C13   17   0.376  -0.089  -0.064
    1UNL    C14   18   0.251  -0.122  -0.017
    1UNL    C15   19   0.168  -0.013   0.012
    1UNL    C16   20   0.021  -0.017   0.062
    1UNL    C17   21   0.024  -0.085   0.203
    1UNL    C18   22   0.002  -0.236   0.177
    1UNL     N2   23  -0.077  -0.232   0.052
    1UNL    C19   24  -0.163  -0.334   0.022
    1UNL     O4   25  -0.179  -0.430   0.095
    1UNL    C20   26  -0.251  -0.309  -0.098
    1UNL     O5   27  -0.373  -0.253  -0.064
    1UNL    C21   28  -0.292  -0.164  -0.132
    1UNL    C22   29  -0.073  -0.106  -0.025
    1UNL     H1   30  -0.256  -0.244   0.212
    1UNL     H2   31  -0.405  -0.245   0.126
    1UNL     H3   32  -0.381  -0.145   0.274
    1UNL     H4   33  -0.237   0.008   0.181
    1UNL     H5   34  -0.381   0.024   0.086
    1UNL     H6   35  -0.179   0.071  -0.183
    1UNL     H7   36  -0.318   0.130  -0.116
    1UNL     H8   37  -0.225   0.526   0.069
    1UNL     H9   38  -0.122   0.563  -0.077
    1UNL    H10   39  -0.055   0.604   0.076
    1UNL    H11   40   0.101   0.306   0.048
    1UNL    H12   41   0.365   0.254  -0.047
    1UNL    H13   42   0.743  -0.023  -0.092
    1UNL    H14   43   0.615  -0.100  -0.013
    1UNL    H15   44   0.613  -0.093  -0.195
    1UNL    H16   45   0.442  -0.178  -0.093
    1UNL    H17   46   0.222  -0.221  -0.007
    1UNL    H18   47   0.120  -0.062   0.255
    1UNL    H19   48  -0.052  -0.044   0.256
    1UNL    H20   49  -0.050  -0.287   0.258
    1UNL    H21   50   0.103  -0.291   0.159
    1UNL    H22   51  -0.248  -0.383  -0.173
    1UNL    H23   52  -0.310  -0.140  -0.242
    1UNL    H24   53  -0.038  -0.115  -0.132
   0.00000   0.00000   0.00000   0.00000   0.00000   0.00000   0.00000   0.00000   0.00000
Generated with MDTraj, t= 12.0
 53
    1UNL     C1    1  -0.334  -0.144   0.195
    1UNL     C2    2  -0.304  -0.031   0.098
    1UNL     C3    3  -0.230  -0.058  -0.037
    1UNL     C4    4  -0.212   0.085  -0.103
    1UNL     C5    5  -0.130   0.179  -0.025
    1UNL     C6    6  -0.157   0.325  -0.033
    1UNL     O1    7  -0.256   0.366  -0.092
    1UNL     O2    8  -0.067   0.400   0.033
    1UNL     C7    9  -0.092   0.536   0.017
    1UNL     C8   10  -0.020   0.125   0.040
    1UNL     N1   11   0.102   0.198   0.048
    1UNL     C9   12   0.214   0.106   0.029
    1UNL    C10   13   0.346   0.138   0.006
    1UNL    C11   14   0.430   0.049  -0.057
    1UNL     O3   15   0.564   0.090  -0.097
    1UNL    C12   16   0.657  -0.013  -0.101
    1UNL    C13   17   0.384  -0.089  -0.075
    1UNL    C14   18   0.260  -0.128  -0.027
    1UNL    C15   19   0.168  -0.028   0.016
    1UNL    C16   20   0.017  -0.017   0.051
    1UNL    C17   21   0.007  -0.071   0.204
    1UNL    C18   22  -0.017  -0.219   0.181
    1UNL     N2   23  -0.089  -0.236   0.054
    1UNL    C19   24  -0.164  -0.348   0.015
    1UNL     O4   25  -0.168  -0.455   0.071
    1UNL    C20   26  -0.256  -0.318  -0.100
    1UNL     O5   27  -0.375  -0.256  -0.045
    1UNL    C21   28  -0.302  -0.168  -0.126
    1UNL    C22   29  -0.083  -0.109  -0.024
    1UNL     H1   30  -0.251  -0.175   0.251
    1UNL     H2   31  -0.379  -0.246   0.148
    1UNL     H3   32  -0.401  -0.095   0.271
    1UNL     H4   33  -0.254   0.053   0.151
    1UNL     H5   34  -0.413   0.001   0.085
    1UNL     H6   35  -0.183   0.071  -0.205
    1UNL     H7   36  -0.318   0.126  -0.118
    1UNL     H8   37  -0.195   0.550   0.064
    1UNL     H9   38  -0.101   0.551  -0.090
    1UNL    H10   39  -0.009   0.584   0.055
    1UNL    H11   40   0.113   0.299   0.030
    1UNL    H12   41   0.378   0.240   0.016
    1UNL    H13   42   0.750   0.029  -0.156
    1UNL    H14   43   0.696  -0.035  -0.001
    1UNL    H15   44   0.630  -0.098  -0.157
    1UNL    H16   45   0.450  -0.168  -0.088
    1UNL    H17   46   0.217  -0.227  -0.007
    1UNL    H18   47   0.092  -0.048   0.271
    1UNL    H19   48  -0.074  -0.031   0.250
    1UNL    H20   49  -0.060  -0.259   0.275
    1UNL    H21   50   0.079  -0.276   0.178
    1UNL    H22   51  -0.275  -0.394  -0.167
    1UNL    H23   52  -0.356  -0.140  -0.211
    1UNL    H24   53  -0.051  -0.131  -0.130
   0.00000   0.00000   0.00000   0.00000   0.00000   0.00000   0.00000   0.00000   0.00000
Generated with MDTraj, t= 13.0
 53
    1UNL     C1    1  -0.337  -0.155   0.195
    1UNL     C2    2  -0.301  -0.034   0.101
    1UNL     C3    3  -0.221  -0.054  -0.034
    1UNL     C4    4  -0.204   0.084  -0.100
    1UNL     C5    5  -0.128   0.172  -0.004
    1UNL     C6    6  -0.156   0.316  -0.034
    1UNL     O1    7  -0.270   0.347  -0.076
    1UNL     O2    8  -0.055   0.404  -0.002
    1UNL     C7    9  -0.099   0.536  -0.007
    1UNL     C8   10  -0.014   0.123   0.056
    1UNL     N1   11   0.101   0.199   0.061
    1UNL     C9   12   0.206   0.113   0.013
    1UNL    C10   13   0.336   0.150  -0.011
    1UNL    C11   14   0.431   0.051  -0.052
    1UNL     O3   15   0.566   0.089  -0.066
    1UNL    C12   16   0.651  -0.014  -0.100
    1UNL    C13   17   0.375  -0.083  -0.072
    1UNL    C14   18   0.247  -0.118  -0.037
    1UNL    C15   19   0.166  -0.015   0.008
    1UNL    C16   20   0.024  -0.021   0.062
    1UNL    C17   21   0.033  -0.089   0.200
    1UNL    C18   22   0.006  -0.240   0.168
    1UNL     N2   23  -0.078  -0.244   0.053
    1UNL    C19   24  -0.174  -0.340   0.018
    1UNL     O4   25  -0.190  -0.442   0.080
    1UNL    C20   26  -0.269  -0.308  -0.095
    1UNL     O5   27  -0.384  -0.235  -0.056
    1UNL    C21   28  -0.292  -0.160  -0.130
    1UNL    C22   29  -0.074  -0.116  -0.016
    1UNL     H1   30  -0.249  -0.202   0.243
    1UNL     H2   31  -0.393  -0.242   0.150
    1UNL     H3   32  -0.391  -0.113   0.285
    1UNL     H4   33  -0.238   0.037   0.160
    1UNL     H5   34  -0.397   0.025   0.078
    1UNL     H6   35  -0.150   0.069  -0.193
    1UNL     H7   36  -0.304   0.126  -0.133
    1UNL     H8   37  -0.208   0.534   0.033
    1UNL     H9   38  -0.110   0.555  -0.115
    1UNL    H10   39  -0.028   0.594   0.047
    1UNL    H11   40   0.090   0.297   0.067
    1UNL    H12   41   0.371   0.250  -0.012
    1UNL    H13   42   0.758   0.027  -0.082
    1UNL    H14   43   0.644  -0.105  -0.041
    1UNL    H15   44   0.642  -0.031  -0.203
    1UNL    H16   45   0.436  -0.167  -0.102
    1UNL    H17   46   0.217  -0.221  -0.026
    1UNL    H18   47   0.126  -0.075   0.243
    1UNL    H19   48  -0.041  -0.043   0.267
    1UNL    H20   49  -0.043  -0.294   0.254
    1UNL    H21   50   0.085  -0.308   0.139
    1UNL    H22   51  -0.294  -0.391  -0.159
    1UNL    H23   52  -0.332  -0.125  -0.217
    1UNL    H24   53  -0.039  -0.137  -0.121
   0.00000   0.00000   0.00000   0.00000   0.00000   0.00000   0.00000   0.00000   0.00000
Generated with MDTraj, t= 14.0
 53
    1UNL     C1    1  -0.337  -0.182   0.200
    1UNL     C2    2  -0.299  -0.056   0.112
    1UNL     C3    3  -0.228  -0.063  -0.029
    1UNL     C4    4  -0.225   0.078  -0.079
    1UNL     C5    5  -0.131   0.175  -0.007
    1UNL     C6    6  -0.153   0.317  -0.029
    1UNL     O1    7  -0.261   0.351  -0.072
    1UNL     O2    8  -0.063   0.414   0.008
    1UNL     C7    9  -0.099   0.544  -0.031
    1UNL     C8   10  -0.012   0.132   0.046
    1UNL     N1   11   0.102   0.198   0.069
    1UNL     C9   12   0.217   0.119   0.040
    1UNL    C10   13   0.350   0.142   0.012
    1UNL    C11   14   0.441   0.043  -0.037
    1UNL     O3   15   0.567   0.087  -0.066
    1UNL    C12   16   0.653  -0.016  -0.106
    1UNL    C13   17   0.388  -0.087  -0.070
    1UNL    C14   18   0.251  -0.115  -0.051
    1UNL    C15   19   0.170  -0.013   0.003
    1UNL    C16   20   0.028  -0.014   0.038
    1UNL    C17   21   0.025  -0.082   0.181
    1UNL    C18   22   0.002  -0.232   0.161
    1UNL     N2   23  -0.070  -0.244   0.033
    1UNL    C19   24  -0.180  -0.328   0.021
    1UNL     O4   25  -0.199  -0.415   0.102
    1UNL    C20   26  -0.268  -0.308  -0.099
    1UNL     O5   27  -0.391  -0.258  -0.061
    1UNL    C21   28  -0.302  -0.161  -0.124
    1UNL    C22   29  -0.075  -0.113  -0.038
    1UNL     H1   30  -0.246  -0.228   0.256
    1UNL     H2   31  -0.378  -0.264   0.152
    1UNL     H3   32  -0.402  -0.143   0.288
    1UNL     H4   33  -0.239   0.007   0.180
    1UNL     H5   34  -0.386   0.010   0.078
    1UNL     H6   35  -0.198   0.073  -0.187
    1UNL     H7   36  -0.325   0.125  -0.071
    1UNL     H8   37  -0.183   0.583   0.038
    1UNL     H9   38  -0.151   0.533  -0.131
    1UNL    H10   39  -0.008   0.600  -0.027
    1UNL    H11   40   0.095   0.291   0.042
    1UNL    H12   41   0.387   0.246   0.020
    1UNL    H13   42   0.761   0.024  -0.117
    1UNL    H14   43   0.659  -0.102  -0.040
    1UNL    H15   44   0.623  -0.043  -0.203
    1UNL    H16   45   0.455  -0.172  -0.098
    1UNL    H17   46   0.214  -0.216  -0.054
    1UNL    H18   47   0.111  -0.062   0.228
    1UNL    H19   48  -0.064  -0.031   0.232
    1UNL    H20   49  -0.056  -0.282   0.247
    1UNL    H21   50   0.087  -0.292   0.155
    1UNL    H22   51  -0.263  -0.374  -0.192
    1UNL    H23   52  -0.337  -0.127  -0.225
    1UNL    H24   53  -0.044  -0.120  -0.145
   0.00000   0.00000   0.00000   0.00000   0.00000   0.00000   0.00000   0.00000   0.00000
Generated with MDTraj, t= 15.0
 53
    1UNL     C1    1  -0.324  -0.168   0.204
    1UNL     C2    2  -0.289  -0.051   0.113
    1UNL     C3    3  -0.230  -0.060  -0.033
    1UNL     C4    4  -0.223   0.087  -0.090
    1UNL     C5    5  -0.135   0.179  -0.014
    1UNL     C6    6  -0.149   0.325  -0.035
    1UNL     O1    7  -0.258   0.364  -0.074
    1UNL     O2    8  -0.048   0.406   0.004
    1UNL     C7    9  -0.081   0.541  -0.008
    1UNL     C8   10  -0.015   0.131   0.039
    1UNL     N1   11   0.106   0.206   0.044
    1UNL     C9   12   0.212   0.118   0.012
    1UNL    C10   13   0.338   0.155  -0.020
    1UNL    C11   14   0.422   0.048  -0.042
    1UNL     O3   15   0.560   0.085  -0.044
    1UNL    C12   16   0.647  -0.009  -0.111
    1UNL    C13   17   0.375  -0.083  -0.056
    1UNL    C14   18   0.242  -0.121  -0.039
    1UNL    C15   19   0.160  -0.021   0.007
    1UNL    C16   20   0.020  -0.017   0.054
    1UNL    C17   21   0.030  -0.086   0.198
    1UNL    C18   22   0.001  -0.235   0.175
    1UNL     N2   23  -0.084  -0.244   0.054
    1UNL    C19   24  -0.173  -0.343   0.019
    1UNL     O4   25  -0.175  -0.451   0.075
    1UNL    C20   26  -0.268  -0.314  -0.102
    1UNL     O5   27  -0.392  -0.253  -0.066
    1UNL    C21   28  -0.303  -0.166  -0.125
    1UNL    C22   29  -0.082  -0.110  -0.019
    1UNL     H1   30  -0.239  -0.227   0.225
    1UNL     H2   31  -0.394  -0.232   0.157
    1UNL     H3   32  -0.358  -0.111   0.302
    1UNL     H4   33  -0.230   0.027   0.167
    1UNL     H5   34  -0.393  -0.009   0.092
    1UNL     H6   35  -0.179   0.088  -0.196
    1UNL     H7   36  -0.323   0.131  -0.082
    1UNL     H8   37  -0.186   0.560   0.036
    1UNL     H9   38  -0.102   0.560  -0.116
    1UNL    H10   39  -0.006   0.601   0.039
    1UNL    H11   40   0.103   0.301   0.017
    1UNL    H12   41   0.373   0.252  -0.026
    1UNL    H13   42   0.742   0.045  -0.143
    1UNL    H14   43   0.682  -0.091  -0.049
    1UNL    H15   44   0.597  -0.041  -0.198
    1UNL    H16   45   0.445  -0.158  -0.066
    1UNL    H17   46   0.214  -0.228  -0.028
    1UNL    H18   47   0.130  -0.076   0.239
    1UNL    H19   48  -0.054  -0.043   0.261
    1UNL    H20   49  -0.050  -0.283   0.267
    1UNL    H21   50   0.090  -0.290   0.167
    1UNL    H22   51  -0.271  -0.399  -0.180
    1UNL    H23   52  -0.326  -0.132  -0.236
    1UNL    H24   53  -0.033  -0.130  -0.116
   0.00000   0.00000   0.00000   0.00000   0.00000   0.00000   0.00000   0.00000   0.00000
Generated with MDTraj, t= 16.0
 53
    1UNL     C1    1  -0.358  -0.148   0.193
    1UNL     C2    2  -0.303  -0.037   0.111
    1UNL     C3    3  -0.228  -0.060  -0.024
    1UNL     C4    4  -0.230   0.083  -0.093
    1UNL     C5    5  -0.129   0.172  -0.022
    1UNL     C6    6  -0.155   0.315  -0.038
    1UNL     O1    7  -0.258   0.354  -0.095
    1UNL     O2    8  -0.068   0.405   0.030
    1UNL     C7    9  -0.100   0.534  -0.004
    1UNL     C8   10  -0.016   0.133   0.045
    1UNL     N1   11   0.106   0.206   0.050
    1UNL     C9   12   0.219   0.116   0.032
    1UNL    C10   13   0.354   0.144   0.002
    1UNL    C11   14   0.437   0.039  -0.045
    1UNL     O3   15   0.562   0.083  -0.085
    1UNL    C12   16   0.647  -0.026  -0.118
    1UNL    C13   17   0.381  -0.091  -0.058
    1UNL    C14   18   0.253  -0.118  -0.020
    1UNL    C15   19   0.177  -0.014   0.026
    1UNL    C16   20   0.023  -0.014   0.064
    1UNL    C17   21   0.018  -0.080   0.199
    1UNL    C18   22  -0.003  -0.232   0.162
    1UNL     N2   23  -0.076  -0.233   0.036
    1UNL    C19   24  -0.156  -0.339  -0.001
    1UNL     O4   25  -0.155  -0.439   0.069
    1UNL    C20   26  -0.268  -0.317  -0.099
    1UNL     O5   27  -0.391  -0.259  -0.050
    1UNL    C21   28  -0.305  -0.163  -0.111
    1UNL    C22   29  -0.078  -0.099  -0.022
    1UNL     H1   30  -0.296  -0.234   0.195
    1UNL     H2   31  -0.448  -0.200   0.154
    1UNL     H3   32  -0.375  -0.113   0.295
    1UNL     H4   33  -0.234   0.037   0.156
    1UNL     H5   34  -0.392   0.029   0.088
    1UNL     H6   35  -0.190   0.059  -0.200
    1UNL     H7   36  -0.327   0.133  -0.090
    1UNL     H8   37  -0.203   0.560   0.032
    1UNL     H9   38  -0.105   0.538  -0.112
    1UNL    H10   39  -0.030   0.601   0.042
    1UNL    H11   40   0.105   0.304   0.014
    1UNL    H12   41   0.402   0.244  -0.005
    1UNL    H13   42   0.753   0.006  -0.125
    1UNL    H14   43   0.641  -0.098  -0.036
    1UNL    H15   44   0.607  -0.072  -0.206
    1UNL    H16   45   0.443  -0.180  -0.090
    1UNL    H17   46   0.218  -0.216  -0.024
    1UNL    H18   47   0.123  -0.064   0.258
    1UNL    H19   48  -0.073  -0.046   0.249
    1UNL    H20   49  -0.059  -0.299   0.234
    1UNL    H21   50   0.091  -0.284   0.153
    1UNL    H22   51  -0.292  -0.399  -0.174
    1UNL    H23   52  -0.335  -0.130  -0.216
    1UNL    H24   53  -0.029  -0.114  -0.120
   0.00000   0.00000   0.00000   0.00000   0.00000   0.00000   0.00000   0.00000   0.00000
Generated with MDTraj, t= 17.0
 53
    1UNL     C1    1  -0.330  -0.169   0.189
    1UNL     C2    2  -0.298  -0.045   0.096
    1UNL     C3    3  -0.224  -0.059  -0.030
    1UNL     C4    4  -0.210   0.089  -0.092
    1UNL     C5    5  -0.125   0.184  -0.013
    1UNL     C6    6  -0.145   0.324  -0.036
    1UNL     O1    7  -0.238   0.356  -0.109
    1UNL     O2    8  -0.074   0.420   0.034
    1UNL     C7    9  -0.125   0.543   0.009
    1UNL     C8   10  -0.015   0.139   0.056
    1UNL     N1   11   0.109   0.202   0.063
    1UNL     C9   12   0.207   0.118   0.011
    1UNL    C10   13   0.343   0.144  -0.021
    1UNL    C11   14   0.423   0.041  -0.057
    1UNL     O3   15   0.554   0.076  -0.076
    1UNL    C12   16   0.636  -0.025  -0.120
    1UNL    C13   17   0.371  -0.092  -0.068
    1UNL    C14   18   0.239  -0.127  -0.031
    1UNL    C15   19   0.159  -0.017   0.008
    1UNL    C16   20   0.022  -0.014   0.068
    1UNL    C17   21   0.038  -0.087   0.205
    1UNL    C18   22  -0.015  -0.233   0.197
    1UNL     N2   23  -0.077  -0.238   0.061
    1UNL    C19   24  -0.163  -0.339   0.020
    1UNL     O4   25  -0.181  -0.443   0.081
    1UNL    C20   26  -0.248  -0.307  -0.104
    1UNL     O5   27  -0.373  -0.254  -0.075
    1UNL    C21   28  -0.285  -0.162  -0.130
    1UNL    C22   29  -0.082  -0.102  -0.012
    1UNL     H1   30  -0.248  -0.244   0.187
    1UNL     H2   31  -0.409  -0.235   0.143
    1UNL     H3   32  -0.350  -0.144   0.283
    1UNL     H4   33  -0.232   0.012   0.165
    1UNL     H5   34  -0.387   0.023   0.081
    1UNL     H6   35  -0.158   0.075  -0.196
    1UNL     H7   36  -0.311   0.125  -0.101
    1UNL     H8   37  -0.226   0.555   0.051
    1UNL     H9   38  -0.127   0.561  -0.094
    1UNL    H10   39  -0.067   0.615   0.064
    1UNL    H11   40   0.120   0.300   0.021
    1UNL    H12   41   0.369   0.246  -0.019
    1UNL    H13   42   0.738   0.008  -0.137
    1UNL    H14   43   0.635  -0.093  -0.034
    1UNL    H15   44   0.585  -0.071  -0.205
    1UNL    H16   45   0.441  -0.168  -0.085
    1UNL    H17   46   0.198  -0.230  -0.015
    1UNL    H18   47   0.156  -0.087   0.229
    1UNL    H19   48  -0.022  -0.040   0.284
    1UNL    H20   49  -0.078  -0.266   0.280
    1UNL    H21   50   0.060  -0.314   0.195
    1UNL    H22   51  -0.267  -0.389  -0.173
    1UNL    H23   52  -0.288  -0.134  -0.231
    1UNL    H24   53  -0.039  -0.127  -0.109
   0.00000   0.00000   0.00000   0.00000   0.00000   0.00000   0.00000   0.00000   0.00000
Generated with MDTraj, t= 18.0
 53
    1UNL     C1    1  -0.366  -0.173   0.173
    1UNL     C2    2  -0.313  -0.052   0.088
    1UNL     C3    3  -0.221  -0.067  -0.034
    1UNL     C4    4  -0.219   0.084  -0.095
    1UNL     C5    5  -0.125   0.177  -0.025
    1UNL     C6    6  -0.152   0.321  -0.035
    1UNL     O1    7  -0.244   0.362  -0.105
    1UNL     O2    8  -0.077   0.397   0.053
    1UNL     C7    9  -0.092   0.531   0.024
    1UNL     C8   10  -0.015   0.134   0.045
    1UNL     N1   11   0.109   0.202   0.055
    1UNL     C9   12   0.221   0.119   0.029
    1UNL    C10   13   0.349   0.151  -0.006
    1UNL    C11   14   0.422   0.046  -0.056
    1UNL     O3   15   0.562   0.079  -0.099
    1UNL    C12   16   0.643  -0.029  -0.132
    1UNL    C13   17   0.372  -0.081  -0.073
    1UNL    C14   18   0.251  -0.115  -0.028
    1UNL    C15   19   0.176  -0.013   0.025
    1UNL    C16   20   0.023  -0.015   0.059
    1UNL    C17   21   0.012  -0.070   0.204
    1UNL    C18   22  -0.013  -0.220   0.183
    1UNL     N2   23  -0.065  -0.244   0.048
    1UNL    C19   24  -0.166  -0.336   0.030
    1UNL     O4   25  -0.191  -0.420   0.112
    1UNL    C20   26  -0.246  -0.316  -0.103
    1UNL     O5   27  -0.373  -0.260  -0.065
    1UNL    C21   28  -0.286  -0.168  -0.133
    1UNL    C22   29  -0.074  -0.111  -0.015
    1UNL     H1   30  -0.294  -0.207   0.249
    1UNL     H2   31  -0.373  -0.262   0.111
    1UNL     H3   32  -0.460  -0.150   0.223
    1UNL     H4   33  -0.285   0.026   0.163
    1UNL     H5   34  -0.404  -0.007   0.039
    1UNL     H6   35  -0.176   0.069  -0.200
    1UNL     H7   36  -0.320   0.124  -0.099
    1UNL     H8   37  -0.196   0.563   0.044
    1UNL     H9   38  -0.075   0.548  -0.078
    1UNL    H10   39  -0.037   0.601   0.087
    1UNL    H11   40   0.100   0.304   0.026
    1UNL    H12   41   0.379   0.254   0.001
    1UNL    H13   42   0.743   0.004  -0.142
    1UNL    H14   43   0.642  -0.090  -0.039
    1UNL    H15   44   0.599  -0.078  -0.222
    1UNL    H16   45   0.443  -0.155  -0.108
    1UNL    H17   46   0.230  -0.217  -0.034
    1UNL    H18   47   0.106  -0.054   0.261
    1UNL    H19   48  -0.073  -0.017   0.259
    1UNL    H20   49  -0.074  -0.261   0.258
    1UNL    H21   50   0.080  -0.284   0.192
    1UNL    H22   51  -0.243  -0.381  -0.185
    1UNL    H23   52  -0.321  -0.125  -0.219
    1UNL    H24   53  -0.023  -0.113  -0.110
   0.00000   0.00000   0.00000   0.00000   0.00000   0.00000   0.00000   0.00000   0.00000
Generated with MDTraj, t= 19.0
 53
    1UNL     C1    1  -0.337  -0.152   0.170
    1UNL     C2    2  -0.300  -0.034   0.089
    1UNL     C3    3  -0.215  -0.062  -0.041
    1UNL     C4    4  -0.204   0.081  -0.110
    1UNL     C5    5  -0.127   0.177  -0.021
    1UNL     C6    6  -0.150   0.323  -0.035
    1UNL     O1    7  -0.251   0.357  -0.095
    1UNL     O2    8  -0.060   0.402   0.034
    1UNL     C7    9  -0.099   0.531   0.023
    1UNL     C8   10  -0.020   0.125   0.046
    1UNL     N1   11   0.096   0.200   0.060
    1UNL     C9   12   0.207   0.114   0.018
    1UNL    C10   13   0.336   0.145  -0.025
    1UNL    C11   14   0.429   0.041  -0.058
    1UNL     O3   15   0.554   0.091  -0.085
    1UNL    C12   16   0.643  -0.001  -0.146
    1UNL    C13   17   0.385  -0.089  -0.055
    1UNL    C14   18   0.250  -0.121  -0.015
    1UNL    C15   19   0.167  -0.020   0.021
    1UNL    C16   20   0.023  -0.022   0.065
    1UNL    C17   21   0.021  -0.087   0.210
    1UNL    C18   22  -0.004  -0.242   0.187
    1UNL     N2   23  -0.088  -0.241   0.071
    1UNL    C19   24  -0.179  -0.334   0.037
    1UNL     O4   25  -0.202  -0.435   0.097
    1UNL    C20   26  -0.249  -0.312  -0.091
    1UNL     O5   27  -0.371  -0.246  -0.076
    1UNL    C21   28  -0.278  -0.165  -0.134
    1UNL    C22   29  -0.076  -0.118  -0.007
    1UNL     H1   30  -0.255  -0.212   0.198
    1UNL     H2   31  -0.397  -0.220   0.116
    1UNL     H3   32  -0.395  -0.126   0.273
    1UNL     H4   33  -0.249   0.053   0.137
    1UNL     H5   34  -0.397   0.018   0.065
    1UNL     H6   35  -0.146   0.081  -0.206
    1UNL     H7   36  -0.309   0.115  -0.122
    1UNL     H8   37  -0.206   0.541   0.054
    1UNL     H9   38  -0.091   0.568  -0.077
    1UNL    H10   39  -0.054   0.607   0.092
    1UNL    H11   40   0.108   0.296   0.030
    1UNL    H12   41   0.379   0.244  -0.031
    1UNL    H13   42   0.733   0.044  -0.174
    1UNL    H14   43   0.664  -0.072  -0.063
    1UNL    H15   44   0.582  -0.052  -0.226
    1UNL    H16   45   0.463  -0.166  -0.070
    1UNL    H17   46   0.222  -0.227   0.001
    1UNL    H18   47   0.110  -0.064   0.257
    1UNL    H19   48  -0.068  -0.037   0.268
    1UNL    H20   49  -0.067  -0.283   0.258
    1UNL    H21   50   0.090  -0.307   0.178
    1UNL    H22   51  -0.248  -0.390  -0.161
    1UNL    H23   52  -0.282  -0.146  -0.242
    1UNL    H24   53  -0.038  -0.152  -0.101
   0.00000   0.00000   0.00000   0.00000   0.00000   0.00000   0.00000   0.00000   0.00000
Generated with MDTraj, t= 20.0
 53
    1UNL     C1    1  -0.343  -0.143   0.189
    1UNL     C2    2  -0.300  -0.032   0.092
    1UNL     C3    3  -0.223  -0.058  -0.035
    1UNL     C4    4  -0.207   0.082  -0.096
    1UNL     C5    5  -0.113   0.174  -0.016
    1UNL     C6    6  -0.154   0.313  -0.031
    1UNL     O1    7  -0.253   0.337  -0.100
    1UNL     O2    8  -0.073   0.406   0.026
    1UNL     C7    9  -0.125   0.525  -0.005
    1UNL     C8   10  -0.006   0.124   0.051
    1UNL     N1   11   0.105   0.190   0.077
    1UNL     C9   12   0.223   0.110   0.040
    1UNL    C10   13   0.353   0.146   0.014
    1UNL    C11   14   0.441   0.050  -0.040
    1UNL     O3   15   0.568   0.088  -0.088
    1UNL    C12   16   0.645  -0.013  -0.162
    1UNL    C13   17   0.389  -0.081  -0.054
    1UNL    C14   18   0.259  -0.115  -0.032
    1UNL    C15   19   0.178  -0.024   0.021
    1UNL    C16   20   0.026  -0.022   0.063
    1UNL    C17   21   0.012  -0.078   0.202
    1UNL    C18   22  -0.023  -0.223   0.184
    1UNL     N2   23  -0.084  -0.243   0.047
    1UNL    C19   24  -0.178  -0.341   0.020
    1UNL     O4   25  -0.187  -0.443   0.088
    1UNL    C20   26  -0.265  -0.307  -0.102
    1UNL     O5   27  -0.382  -0.248  -0.060
    1UNL    C21   28  -0.295  -0.154  -0.133
    1UNL    C22   29  -0.075  -0.112  -0.021
    1UNL     H1   30  -0.254  -0.173   0.250
    1UNL     H2   31  -0.367  -0.226   0.129
    1UNL     H3   32  -0.429  -0.102   0.257
    1UNL     H4   33  -0.232   0.035   0.149
    1UNL     H5   34  -0.388   0.034   0.081
    1UNL     H6   35  -0.160   0.066  -0.192
    1UNL     H7   36  -0.306   0.135  -0.107
    1UNL     H8   37  -0.212   0.550   0.060
    1UNL     H9   38  -0.156   0.533  -0.110
    1UNL    H10   39  -0.053   0.612   0.010
    1UNL    H11   40   0.105   0.282   0.048
    1UNL    H12   41   0.376   0.250   0.026
    1UNL    H13   42   0.735   0.027  -0.194
    1UNL    H14   43   0.670  -0.098  -0.094
    1UNL    H15   44   0.576  -0.055  -0.242
    1UNL    H16   45   0.445  -0.164  -0.083
    1UNL    H17   46   0.219  -0.216  -0.045
    1UNL    H18   47   0.101  -0.061   0.252
    1UNL    H19   48  -0.069  -0.008   0.241
    1UNL    H20   49  -0.084  -0.265   0.258
    1UNL    H21   50   0.079  -0.272   0.185
    1UNL    H22   51  -0.273  -0.392  -0.173
    1UNL    H23   52  -0.356  -0.116  -0.226
    1UNL    H24   53  -0.036  -0.127  -0.119
   0.00000   0.00000   0.00000   0.00000   0.00000   0.00000   0.00000   0.00000   0.00000
Generated with MDTraj, t= 21.0
 53
    1UNL     C1    1  -0.326  -0.158   0.187
    1UNL     C2    2  -0.290  -0.044   0.100
    1UNL     C3    3  -0.225  -0.059  -0.038
    1UNL     C4    4  -0.213   0.082  -0.094
    1UNL     C5    5  -0.135   0.178  -0.010
    1UNL     C6    6  -0.146   0.326  -0.034
    1UNL     O1    7  -0.244   0.357  -0.099
    1UNL     O2    8  -0.047   0.405   0.007
    1UNL     C7    9  -0.097   0.536   0.002
    1UNL     C8   10  -0.028   0.127   0.055
    1UNL     N1   11   0.092   0.201   0.066
    1UNL     C9   12   0.203   0.115   0.024
    1UNL    C10   13   0.339   0.147  -0.002
    1UNL    C11   14   0.423   0.041  -0.037
    1UNL     O3   15   0.563   0.078  -0.053
    1UNL    C12   16   0.627  -0.006  -0.145
    1UNL    C13   17   0.373  -0.093  -0.058
    1UNL    C14   18   0.238  -0.118  -0.039
    1UNL    C15   19   0.155  -0.012   0.005
    1UNL    C16   20   0.016  -0.019   0.059
    1UNL    C17   21   0.013  -0.086   0.205
    1UNL    C18   22   0.004  -0.236   0.167
    1UNL     N2   23  -0.070  -0.240   0.042
    1UNL    C19   24  -0.162  -0.338   0.023
    1UNL     O4   25  -0.178  -0.435   0.096
    1UNL    C20   26  -0.257  -0.314  -0.088
    1UNL     O5   27  -0.380  -0.245  -0.058
    1UNL    C21   28  -0.287  -0.171  -0.126
    1UNL    C22   29  -0.076  -0.110  -0.024
    1UNL     H1   30  -0.238  -0.225   0.219
    1UNL     H2   31  -0.386  -0.230   0.127
    1UNL     H3   32  -0.378  -0.133   0.277
    1UNL     H4   33  -0.236   0.034   0.158
    1UNL     H5   34  -0.375   0.024   0.076
    1UNL     H6   35  -0.169   0.083  -0.190
    1UNL     H7   36  -0.317   0.129  -0.097
    1UNL     H8   37  -0.204   0.537   0.025
    1UNL     H9   38  -0.093   0.582  -0.098
    1UNL    H10   39  -0.050   0.622   0.065
    1UNL    H11   40   0.089   0.292   0.029
    1UNL    H12   41   0.389   0.244   0.008
    1UNL    H13   42   0.723   0.033  -0.150
    1UNL    H14   43   0.636  -0.113  -0.116
    1UNL    H15   44   0.570   0.004  -0.243
    1UNL    H16   45   0.454  -0.169  -0.058
    1UNL    H17   46   0.205  -0.216  -0.038
    1UNL    H18   47   0.099  -0.058   0.264
    1UNL    H19   48  -0.067  -0.063   0.264
    1UNL    H20   49  -0.053  -0.286   0.243
    1UNL    H21   50   0.097  -0.293   0.151
    1UNL    H22   51  -0.277  -0.405  -0.158
    1UNL    H23   52  -0.309  -0.148  -0.238
    1UNL    H24   53  -0.037  -0.125  -0.122
   0.00000   0.00000   0.00000   0.00000   0.00000   0.00000   0.00000   0.00000   0.00000
Generated with MDTraj, t= 22.0
 53
    1UNL     C1    1  -0.327  -0.177   0.195
    1UNL     C2    2  -0.303  -0.053   0.108
    1UNL     C3    3  -0.235  -0.060  -0.024
    1UNL     C4    4  -0.233   0.084  -0.078
    1UNL     C5    5  -0.139   0.181  -0.004
    1UNL     C6    6  -0.158   0.325  -0.030
    1UNL     O1    7  -0.241   0.362  -0.112
    1UNL     O2    8  -0.060   0.405   0.034
    1UNL     C7    9  -0.074   0.527  -0.019
    1UNL     C8   10  -0.021   0.131   0.045
    1UNL     N1   11   0.098   0.198   0.034
    1UNL     C9   12   0.212   0.116   0.024
    1UNL    C10   13   0.348   0.140   0.020
    1UNL    C11   14   0.439   0.046  -0.032
    1UNL     O3   15   0.565   0.092  -0.073
    1UNL    C12   16   0.650  -0.006  -0.125
    1UNL    C13   17   0.387  -0.085  -0.062
    1UNL    C14   18   0.253  -0.118  -0.044
    1UNL    C15   19   0.167  -0.013   0.005
    1UNL    C16   20   0.018  -0.021   0.053
    1UNL    C17   21   0.015  -0.075   0.201
    1UNL    C18   22  -0.001  -0.229   0.174
    1UNL     N2   23  -0.082  -0.240   0.053
    1UNL    C19   24  -0.169  -0.339   0.018
    1UNL     O4   25  -0.186  -0.439   0.083
    1UNL    C20   26  -0.257  -0.313  -0.103
    1UNL     O5   27  -0.385  -0.257  -0.060
    1UNL    C21   28  -0.308  -0.162  -0.122
    1UNL    C22   29  -0.087  -0.109  -0.017
    1UNL     H1   30  -0.242  -0.224   0.237
    1UNL     H2   31  -0.379  -0.256   0.124
    1UNL     H3   32  -0.392  -0.151   0.271
    1UNL     H4   33  -0.261   0.026   0.175
    1UNL     H5   34  -0.402  -0.008   0.092
    1UNL     H6   35  -0.207   0.080  -0.180
    1UNL     H7   36  -0.339   0.126  -0.079
    1UNL     H8   37  -0.166   0.574   0.006
    1UNL     H9   38  -0.065   0.531  -0.126
    1UNL    H10   39   0.012   0.599   0.008
    1UNL    H11   40   0.095   0.299   0.035
    1UNL    H12   41   0.365   0.246   0.017
    1UNL    H13   42   0.732   0.047  -0.162
    1UNL    H14   43   0.687  -0.085  -0.057
    1UNL    H15   44   0.596  -0.056  -0.210
    1UNL    H16   45   0.454  -0.157  -0.101
    1UNL    H17   46   0.212  -0.225  -0.057
    1UNL    H18   47   0.109  -0.063   0.251
    1UNL    H19   48  -0.052  -0.033   0.265
    1UNL    H20   49  -0.041  -0.287   0.259
    1UNL    H21   50   0.093  -0.269   0.144
    1UNL    H22   51  -0.268  -0.385  -0.192
    1UNL    H23   52  -0.337  -0.126  -0.220
    1UNL    H24   53  -0.052  -0.109  -0.119
   0.00000   0.00000   0.00000   0.00000   0.00000   0.00000   0.00000   0.00000   0.00000
Generated with MDTraj, t= 23.0
 53
    1UNL     C1    1  -0.357  -0.175   0.182
    1UNL     C2    2  -0.295  -0.052   0.118
    1UNL     C3    3  -0.222  -0.064  -0.021
    1UNL     C4    4  -0.212   0.081  -0.080
    1UNL     C5    5  -0.126   0.178  -0.004
    1UNL     C6    6  -0.145   0.319  -0.039
    1UNL     O1    7  -0.238   0.352  -0.109
    1UNL     O2    8  -0.048   0.410   0.005
    1UNL     C7    9  -0.099   0.534  -0.016
    1UNL     C8   10  -0.016   0.132   0.067
    1UNL     N1   11   0.103   0.201   0.061
    1UNL     C9   12   0.208   0.121   0.016
    1UNL    C10   13   0.335   0.158  -0.021
    1UNL    C11   14   0.425   0.058  -0.055
    1UNL     O3   15   0.561   0.096  -0.090
    1UNL    C12   16   0.650  -0.014  -0.092
    1UNL    C13   17   0.377  -0.078  -0.063
    1UNL    C14   18   0.250  -0.117  -0.027
    1UNL    C15   19   0.162  -0.016   0.005
    1UNL    C16   20   0.022  -0.020   0.071
    1UNL    C17   21   0.032  -0.096   0.203
    1UNL    C18   22  -0.005  -0.245   0.174
    1UNL     N2   23  -0.074  -0.247   0.047
    1UNL    C19   24  -0.171  -0.338   0.012
    1UNL     O4   25  -0.183  -0.443   0.070
    1UNL    C20   26  -0.268  -0.300  -0.101
    1UNL     O5   27  -0.388  -0.252  -0.049
    1UNL    C21   28  -0.309  -0.154  -0.116
    1UNL    C22   29  -0.081  -0.109  -0.016
    1UNL     H1   30  -0.297  -0.262   0.190
    1UNL     H2   31  -0.452  -0.202   0.125
    1UNL     H3   32  -0.386  -0.153   0.279
    1UNL     H4   33  -0.210  -0.023   0.185
    1UNL     H5   34  -0.362   0.032   0.141
    1UNL     H6   35  -0.169   0.071  -0.176
    1UNL     H7   36  -0.313   0.123  -0.104
    1UNL     H8   37  -0.199   0.540   0.011
    1UNL     H9   38  -0.084   0.580  -0.110
    1UNL    H10   39  -0.034   0.601   0.048
    1UNL    H11   40   0.103   0.298   0.018
    1UNL    H12   41   0.367   0.261  -0.036
    1UNL    H13   42   0.746   0.031  -0.081
    1UNL    H14   43   0.639  -0.092  -0.016
    1UNL    H15   44   0.646  -0.067  -0.190
    1UNL    H16   45   0.444  -0.161  -0.083
    1UNL    H17   46   0.217  -0.213  -0.013
    1UNL    H18   47   0.123  -0.090   0.255
    1UNL    H19   48  -0.042  -0.065   0.284
    1UNL    H20   49  -0.085  -0.280   0.245
    1UNL    H21   50   0.076  -0.309   0.177
    1UNL    H22   51  -0.276  -0.374  -0.179
    1UNL    H23   52  -0.337  -0.114  -0.206
    1UNL    H24   53  -0.056  -0.132  -0.119
   0.00000   0.00000   0.00000   0.00000   0.00000   0.00000   0.00000   0.00000   0.00000
Generated with MDTraj, t= 24.0
 53
    1UNL     C1    1  -0.362  -0.166   0.184
    1UNL     C2    2  -0.301  -0.044   0.112
    1UNL     C3    3  -0.222  -0.058  -0.025
    1UNL     C4    4  -0.217   0.079  -0.098
    1UNL     C5    5  -0.132   0.173  -0.019
    1UNL     C6    6  -0.157   0.321  -0.028
    1UNL     O1    7  -0.253   0.356  -0.094
    1UNL     O2    8  -0.064   0.408   0.038
    1UNL     C7    9  -0.092   0.541  -0.015
    1UNL     C8   10  -0.019   0.126   0.047
    1UNL     N1   11   0.104   0.202   0.067
    1UNL     C9   12   0.214   0.111   0.023
    1UNL    C10   13   0.342   0.142  -0.010
    1UNL    C11   14   0.430   0.040  -0.063
    1UNL     O3   15   0.557   0.084  -0.096
    1UNL    C12   16   0.660  -0.012  -0.082
    1UNL    C13   17   0.375  -0.089  -0.079
    1UNL    C14   18   0.242  -0.121  -0.043
    1UNL    C15   19   0.169  -0.019   0.007
    1UNL    C16   20   0.023  -0.018   0.060
    1UNL    C17   21   0.022  -0.074   0.200
    1UNL    C18   22  -0.014  -0.229   0.181
    1UNL     N2   23  -0.071  -0.238   0.041
    1UNL    C19   24  -0.163  -0.338   0.016
    1UNL     O4   25  -0.163  -0.439   0.083
    1UNL    C20   26  -0.258  -0.306  -0.096
    1UNL     O5   27  -0.384  -0.256  -0.054
    1UNL    C21   28  -0.297  -0.159  -0.122
    1UNL    C22   29  -0.073  -0.105  -0.015
    1UNL     H1   30  -0.292  -0.246   0.217
    1UNL     H2   31  -0.433  -0.214   0.133
    1UNL     H3   32  -0.412  -0.148   0.276
    1UNL     H4   33  -0.230   0.011   0.179
    1UNL     H5   34  -0.375   0.036   0.100
    1UNL     H6   35  -0.178   0.072  -0.198
    1UNL     H7   36  -0.318   0.117  -0.119
    1UNL     H8   37  -0.184   0.576   0.017
    1UNL     H9   38  -0.104   0.547  -0.119
    1UNL    H10   39  -0.014   0.619   0.007
    1UNL    H11   40   0.098   0.304   0.031
    1UNL    H12   41   0.382   0.240  -0.007
    1UNL    H13   42   0.752   0.041  -0.108
    1UNL    H14   43   0.671  -0.050   0.019
    1UNL    H15   44   0.646  -0.101  -0.145
    1UNL    H16   45   0.436  -0.168  -0.122
    1UNL    H17   46   0.204  -0.223  -0.036
    1UNL    H18   47   0.107  -0.062   0.259
    1UNL    H19   48  -0.060  -0.025   0.268
    1UNL    H20   49  -0.080  -0.279   0.259
    1UNL    H21   50   0.073  -0.285   0.180
    1UNL    H22   51  -0.265  -0.374  -0.172
    1UNL    H23   52  -0.345  -0.132  -0.212
    1UNL    H24   53  -0.029  -0.128  -0.114
   0.00000   0.00000   0.00000   0.00000   0.00000   0.00000   0.00000   0.00000   0.00000
Generated with MDTraj, t= 25.0
 53
    1UNL     C1    1  -0.339  -0.165   0.202
    1UNL     C2    2  -0.302  -0.043   0.110
    1UNL     C3    3  -0.225  -0.057  -0.028
    1UNL     C4    4  -0.222   0.082  -0.096
    1UNL     C5    5  -0.132   0.184  -0.032
    1UNL     C6    6  -0.155   0.326  -0.037
    1UNL     O1    7  -0.260   0.364  -0.080
    1UNL     O2    8  -0.059   0.404   0.025
    1UNL     C7    9  -0.100   0.535   0.021
    1UNL     C8   10  -0.023   0.135   0.034
    1UNL     N1   11   0.099   0.200   0.046
    1UNL     C9   12   0.207   0.119   0.008
    1UNL    C10   13   0.338   0.155  -0.030
    1UNL    C11   14   0.428   0.048  -0.059
    1UNL     O3   15   0.566   0.077  -0.078
    1UNL    C12   16   0.648  -0.040  -0.096
    1UNL    C13   17   0.374  -0.083  -0.068
    1UNL    C14   18   0.246  -0.119  -0.031
    1UNL    C15   19   0.163  -0.018   0.012
    1UNL    C16   20   0.022  -0.019   0.054
    1UNL    C17   21   0.024  -0.073   0.201
    1UNL    C18   22   0.000  -0.227   0.187
    1UNL     N2   23  -0.077  -0.239   0.059
    1UNL    C19   24  -0.165  -0.337   0.027
    1UNL     O4   25  -0.181  -0.439   0.093
    1UNL    C20   26  -0.243  -0.313  -0.105
    1UNL     O5   27  -0.374  -0.259  -0.083
    1UNL    C21   28  -0.291  -0.163  -0.132
    1UNL    C22   29  -0.075  -0.115  -0.014
    1UNL     H1   30  -0.246  -0.194   0.246
    1UNL     H2   31  -0.382  -0.234   0.139
    1UNL     H3   32  -0.405  -0.135   0.280
    1UNL     H4   33  -0.262   0.034   0.180
    1UNL     H5   34  -0.398  -0.005   0.077
    1UNL     H6   35  -0.203   0.067  -0.202
    1UNL     H7   36  -0.318   0.126  -0.106
    1UNL     H8   37  -0.197   0.548   0.063
    1UNL     H9   38  -0.106   0.579  -0.077
    1UNL    H10   39  -0.022   0.592   0.083
    1UNL    H11   40   0.103   0.303   0.018
    1UNL    H12   41   0.371   0.260  -0.034
    1UNL    H13   42   0.757  -0.016  -0.081
    1UNL    H14   43   0.626  -0.112  -0.019
    1UNL    H15   44   0.635  -0.091  -0.191
    1UNL    H16   45   0.439  -0.162  -0.099
    1UNL    H17   46   0.212  -0.226  -0.021
    1UNL    H18   47   0.118  -0.048   0.254
    1UNL    H19   48  -0.059  -0.032   0.265
    1UNL    H20   49  -0.061  -0.270   0.270
    1UNL    H21   50   0.090  -0.282   0.182
    1UNL    H22   51  -0.242  -0.397  -0.169
    1UNL    H23   52  -0.306  -0.126  -0.237
    1UNL    H24   53  -0.036  -0.131  -0.116
   0.00000   0.00000   0.00000   0.00000   0.00000   0.00000   0.00000   0.00000   0.00000
Generated with MDTraj, t= 26.0
 53
    1UNL     C1    1  -0.329  -0.164   0.197
    1UNL     C2    2  -0.305  -0.050   0.101
    1UNL     C3    3  -0.225  -0.057  -0.035
    1UNL     C4    4  -0.226   0.078  -0.100
    1UNL     C5    5  -0.128   0.178  -0.032
    1UNL     C6    6  -0.160   0.326  -0.033
    1UNL     O1    7  -0.268   0.360  -0.078
    1UNL     O2    8  -0.075   0.413   0.031
    1UNL     C7    9  -0.131   0.541   0.020
    1UNL     C8   10  -0.014   0.133   0.033
    1UNL     N1   11   0.107   0.203   0.046
    1UNL     C9   12   0.216   0.115   0.021
    1UNL    C10   13   0.351   0.142  -0.014
    1UNL    C11   14   0.435   0.037  -0.050
    1UNL     O3   15   0.572   0.070  -0.080
    1UNL    C12   16   0.652  -0.039  -0.119
    1UNL    C13   17   0.386  -0.095  -0.048
    1UNL    C14   18   0.256  -0.127  -0.018
    1UNL    C15   19   0.169  -0.019   0.013
    1UNL    C16   20   0.023  -0.017   0.052
    1UNL    C17   21   0.010  -0.076   0.194
    1UNL    C18   22   0.001  -0.224   0.173
    1UNL     N2   23  -0.066  -0.237   0.046
    1UNL    C19   24  -0.168  -0.332   0.025
    1UNL     O4   25  -0.181  -0.425   0.103
    1UNL    C20   26  -0.257  -0.312  -0.097
    1UNL     O5   27  -0.383  -0.246  -0.069
    1UNL    C21   28  -0.287  -0.163  -0.129
    1UNL    C22   29  -0.074  -0.102  -0.033
    1UNL     H1   30  -0.238  -0.204   0.220
    1UNL     H2   31  -0.402  -0.245   0.153
    1UNL     H3   32  -0.369  -0.132   0.287
    1UNL     H4   33  -0.252   0.033   0.152
    1UNL     H5   34  -0.398  -0.002   0.070
    1UNL     H6   35  -0.204   0.071  -0.208
    1UNL     H7   36  -0.324   0.110  -0.108
    1UNL     H8   37  -0.225   0.547   0.075
    1UNL     H9   38  -0.168   0.563  -0.083
    1UNL    H10   39  -0.054   0.620   0.060
    1UNL    H11   40   0.109   0.302   0.021
    1UNL    H12   41   0.386   0.242  -0.005
    1UNL    H13   42   0.747  -0.005  -0.174
    1UNL    H14   43   0.687  -0.085  -0.028
    1UNL    H15   44   0.600  -0.112  -0.176
    1UNL    H16   45   0.462  -0.173  -0.044
    1UNL    H17   46   0.232  -0.225  -0.014
    1UNL    H18   47   0.113  -0.046   0.247
    1UNL    H19   48  -0.069  -0.027   0.245
    1UNL    H20   49  -0.057  -0.279   0.247
    1UNL    H21   50   0.098  -0.271   0.174
    1UNL    H22   51  -0.256  -0.376  -0.191
    1UNL    H23   52  -0.298  -0.140  -0.243
    1UNL    H24   53  -0.049  -0.106  -0.142
   0.00000   0.00000   0.00000   0.00000   0.00000   0.00000   0.00000   0.00000   0.00000
Generated with MDTraj, t= 27.0
 53
    1UNL     C1    1  -0.347  -0.148   0.192
    1UNL     C2    2  -0.301  -0.034   0.101
    1UNL     C3    3  -0.219  -0.056  -0.038
    1UNL     C4    4  -0.205   0.079  -0.106
    1UNL     C5    5  -0.123   0.172  -0.022
    1UNL     C6    6  -0.161   0.317  -0.036
    1UNL     O1    7  -0.269   0.348  -0.082
    1UNL     O2    8  -0.078   0.399   0.029
    1UNL     C7    9  -0.131   0.532   0.013
    1UNL     C8   10  -0.014   0.131   0.049
    1UNL     N1   11   0.107   0.205   0.047
    1UNL     C9   12   0.213   0.114  -0.000
    1UNL    C10   13   0.346   0.142  -0.017
    1UNL    C11   14   0.434   0.040  -0.043
    1UNL     O3   15   0.572   0.071  -0.059
    1UNL    C12   16   0.647  -0.018  -0.136
    1UNL    C13   17   0.389  -0.093  -0.051
    1UNL    C14   18   0.254  -0.123  -0.028
    1UNL    C15   19   0.176  -0.016   0.008
    1UNL    C16   20   0.025  -0.018   0.058
    1UNL    C17   21   0.034  -0.081   0.206
    1UNL    C18   22  -0.011  -0.231   0.181
    1UNL     N2   23  -0.068  -0.240   0.048
    1UNL    C19   24  -0.163  -0.336   0.017
    1UNL     O4   25  -0.184  -0.430   0.093
    1UNL    C20   26  -0.264  -0.304  -0.099
    1UNL     O5   27  -0.387  -0.239  -0.059
    1UNL    C21   28  -0.295  -0.159  -0.127
    1UNL    C22   29  -0.074  -0.114  -0.022
    1UNL     H1   30  -0.258  -0.185   0.251
    1UNL     H2   31  -0.399  -0.234   0.138
    1UNL     H3   32  -0.415  -0.115   0.263
    1UNL     H4   33  -0.225   0.027   0.155
    1UNL     H5   34  -0.382   0.038   0.083
    1UNL     H6   35  -0.145   0.059  -0.197
    1UNL     H7   36  -0.291   0.115  -0.149
    1UNL     H8   37  -0.227   0.546   0.065
    1UNL     H9   38  -0.163   0.548  -0.093
    1UNL    H10   39  -0.055   0.608   0.053
    1UNL    H11   40   0.102   0.302   0.025
    1UNL    H12   41   0.384   0.244  -0.019
    1UNL    H13   42   0.762   0.008  -0.139
    1UNL    H14   43   0.640  -0.110  -0.082
    1UNL    H15   44   0.603  -0.031  -0.232
    1UNL    H16   45   0.460  -0.169  -0.067
    1UNL    H17   46   0.205  -0.226  -0.029
    1UNL    H18   47   0.139  -0.074   0.262
    1UNL    H19   48  -0.035  -0.016   0.252
    1UNL    H20   49  -0.082  -0.260   0.256
    1UNL    H21   50   0.067  -0.309   0.187
    1UNL    H22   51  -0.279  -0.389  -0.179
    1UNL    H23   52  -0.319  -0.123  -0.233
    1UNL    H24   53  -0.032  -0.134  -0.124
   0.00000   0.00000   0.00000   0.00000   0.00000   0.00000   0.00000   0.00000   0.00000
Generated with MDTraj, t= 28.0
 53
    1UNL     C1    1  -0.346  -0.166   0.179
    1UNL     C2    2  -0.300  -0.038   0.098
    1UNL     C3    3  -0.222  -0.061  -0.039
    1UNL     C4    4  -0.206   0.079  -0.110
    1UNL     C5    5  -0.122   0.179  -0.027
    1UNL     C6    6  -0.149   0.326  -0.047
    1UNL     O1    7  -0.252   0.371  -0.093
    1UNL     O2    8  -0.061   0.402   0.026
    1UNL     C7    9  -0.100   0.538   0.018
    1UNL     C8   10  -0.014   0.126   0.039
    1UNL     N1   11   0.103   0.196   0.055
    1UNL     C9   12   0.213   0.108   0.037
    1UNL    C10   13   0.350   0.136   0.020
    1UNL    C11   14   0.437   0.046  -0.042
    1UNL     O3   15   0.566   0.097  -0.078
    1UNL    C12   16   0.647  -0.001  -0.140
    1UNL    C13   17   0.381  -0.082  -0.067
    1UNL    C14   18   0.248  -0.118  -0.042
    1UNL    C15   19   0.162  -0.023   0.007
    1UNL    C16   20   0.022  -0.019   0.052
    1UNL    C17   21   0.026  -0.080   0.199
    1UNL    C18   22  -0.007  -0.227   0.191
    1UNL     N2   23  -0.084  -0.237   0.058
    1UNL    C19   24  -0.174  -0.338   0.028
    1UNL     O4   25  -0.189  -0.436   0.098
    1UNL    C20   26  -0.265  -0.318  -0.092
    1UNL     O5   27  -0.389  -0.261  -0.054
    1UNL    C21   28  -0.305  -0.170  -0.126
    1UNL    C22   29  -0.077  -0.114  -0.022
    1UNL     H1   30  -0.256  -0.236   0.195
    1UNL     H2   31  -0.425  -0.214   0.126
    1UNL     H3   32  -0.387  -0.136   0.280
    1UNL     H4   33  -0.239   0.025   0.164
    1UNL     H5   34  -0.395   0.014   0.079
    1UNL     H6   35  -0.156   0.075  -0.207
    1UNL     H7   36  -0.303   0.108  -0.137
    1UNL     H8   37  -0.205   0.550   0.047
    1UNL     H9   38  -0.095   0.564  -0.091
    1UNL    H10   39  -0.030   0.593   0.083
    1UNL    H11   40   0.125   0.283   0.019
    1UNL    H12   41   0.389   0.234   0.038
    1UNL    H13   42   0.752   0.035  -0.177
    1UNL    H14   43   0.663  -0.074  -0.062
    1UNL    H15   44   0.591  -0.051  -0.215
    1UNL    H16   45   0.441  -0.173  -0.084
    1UNL    H17   46   0.221  -0.220  -0.056
    1UNL    H18   47   0.128  -0.068   0.236
    1UNL    H19   48  -0.045  -0.032   0.266
    1UNL    H20   49  -0.051  -0.256   0.283
    1UNL    H21   50   0.082  -0.295   0.177
    1UNL    H22   51  -0.276  -0.405  -0.164
    1UNL    H23   52  -0.324  -0.162  -0.231
    1UNL    H24   53  -0.035  -0.142  -0.123
   0.00000   0.00000   0.00000   0.00000   0.00000   0.00000   0.00000   0.00000   0.00000
Generated with MDTraj, t= 29.0
 53
    1UNL     C1    1  -0.342  -0.164   0.183
    1UNL     C2    2  -0.311  -0.043   0.100
    1UNL     C3    3  -0.223  -0.060  -0.031
    1UNL     C4    4  -0.209   0.079  -0.101
    1UNL     C5    5  -0.135   0.175  -0.005
    1UNL     C6    6  -0.143   0.313  -0.038
    1UNL     O1    7  -0.221   0.357  -0.116
    1UNL     O2    8  -0.060   0.398   0.036
    1UNL     C7    9  -0.074   0.529  -0.010
    1UNL     C8   10  -0.022   0.128   0.063
    1UNL     N1   11   0.096   0.203   0.065
    1UNL     C9   12   0.209   0.120   0.026
    1UNL    C10   13   0.337   0.152  -0.010
    1UNL    C11   14   0.423   0.052  -0.054
    1UNL     O3   15   0.554   0.098  -0.076
    1UNL    C12   16   0.640   0.006  -0.138
    1UNL    C13   17   0.379  -0.079  -0.075
    1UNL    C14   18   0.248  -0.115  -0.041
    1UNL    C15   19   0.168  -0.019   0.023
    1UNL    C16   20   0.024  -0.023   0.078
    1UNL    C17   21   0.020  -0.095   0.220
    1UNL    C18   22   0.004  -0.243   0.177
    1UNL     N2   23  -0.076  -0.246   0.051
    1UNL    C19   24  -0.180  -0.340   0.025
    1UNL     O4   25  -0.201  -0.433   0.099
    1UNL    C20   26  -0.262  -0.311  -0.098
    1UNL     O5   27  -0.386  -0.255  -0.067
    1UNL    C21   28  -0.299  -0.163  -0.130
    1UNL    C22   29  -0.071  -0.110  -0.011
    1UNL     H1   30  -0.265  -0.226   0.223
    1UNL     H2   31  -0.405  -0.231   0.132
    1UNL     H3   32  -0.414  -0.145   0.278
    1UNL     H4   33  -0.263   0.033   0.161
    1UNL     H5   34  -0.400   0.007   0.058
    1UNL     H6   35  -0.154   0.063  -0.192
    1UNL     H7   36  -0.295   0.134  -0.132
    1UNL     H8   37  -0.170   0.568   0.017
    1UNL     H9   38  -0.058   0.522  -0.120
    1UNL    H10   39   0.008   0.580   0.040
    1UNL    H11   40   0.089   0.301   0.049
    1UNL    H12   41   0.364   0.255  -0.011
    1UNL    H13   42   0.742   0.055  -0.158
    1UNL    H14   43   0.659  -0.074  -0.068
    1UNL    H15   44   0.592  -0.028  -0.227
    1UNL    H16   45   0.452  -0.147  -0.110
    1UNL    H17   46   0.225  -0.218  -0.040
    1UNL    H18   47   0.103  -0.075   0.270
    1UNL    H19   48  -0.075  -0.067   0.274
    1UNL    H20   49  -0.053  -0.303   0.241
    1UNL    H21   50   0.104  -0.297   0.167
    1UNL    H22   51  -0.241  -0.378  -0.176
    1UNL    H23   52  -0.341  -0.129  -0.218
    1UNL    H24   53  -0.018  -0.105  -0.111
   0.00000   0.00000   0.00000   0.00000   0.00000   0.00000   0.00000   0.00000   0.00000
Generated with MDTraj, t= 30.0
 53
    1UNL     C1    1  -0.331  -0.177   0.194
    1UNL     C2    2  -0.299  -0.051   0.110
    1UNL     C3    3  -0.224  -0.063  -0.026
    1UNL     C4    4  -0.215   0.081  -0.081
    1UNL     C5    5  -0.127   0.172  -0.001
    1UNL     C6    6  -0.135   0.315  -0.043
    1UNL     O1    7  -0.213   0.348  -0.128
    1UNL     O2    8  -0.058   0.404   0.027
    1UNL     C7    9  -0.092   0.533  -0.025
    1UNL     C8   10  -0.021   0.123   0.069
    1UNL     N1   11   0.108   0.196   0.081
    1UNL     C9   12   0.213   0.109   0.048
    1UNL    C10   13   0.337   0.153   0.007
    1UNL    C11   14   0.424   0.060  -0.048
    1UNL     O3   15   0.549   0.104  -0.107
    1UNL    C12   16   0.631  -0.008  -0.139
    1UNL    C13   17   0.375  -0.074  -0.061
    1UNL    C14   18   0.247  -0.117  -0.028
    1UNL    C15   19   0.163  -0.016   0.019
    1UNL    C16   20   0.024  -0.025   0.065
    1UNL    C17   21   0.013  -0.086   0.207
    1UNL    C18   22  -0.011  -0.240   0.183
    1UNL     N2   23  -0.078  -0.244   0.053
    1UNL    C19   24  -0.177  -0.336   0.020
    1UNL     O4   25  -0.194  -0.435   0.084
    1UNL    C20   26  -0.263  -0.302  -0.099
    1UNL     O5   27  -0.391  -0.244  -0.080
    1UNL    C21   28  -0.289  -0.154  -0.130
    1UNL    C22   29  -0.074  -0.115  -0.019
    1UNL     H1   30  -0.244  -0.226   0.231
    1UNL     H2   31  -0.390  -0.241   0.129
    1UNL     H3   32  -0.399  -0.148   0.283
    1UNL     H4   33  -0.235   0.005   0.176
    1UNL     H5   34  -0.397   0.002   0.098
    1UNL     H6   35  -0.180   0.086  -0.181
    1UNL     H7   36  -0.314   0.125  -0.075
    1UNL     H8   37  -0.198   0.544  -0.028
    1UNL     H9   38  -0.042   0.531  -0.123
    1UNL    H10   39  -0.051   0.609   0.037
    1UNL    H11   40   0.113   0.301   0.071
    1UNL    H12   41   0.358   0.260  -0.002
    1UNL    H13   42   0.733   0.027  -0.174
    1UNL    H14   43   0.646  -0.072  -0.053
    1UNL    H15   44   0.579  -0.057  -0.218
    1UNL    H16   45   0.448  -0.140  -0.107
    1UNL    H17   46   0.219  -0.226  -0.018
    1UNL    H18   47   0.099  -0.061   0.261
    1UNL    H19   48  -0.075  -0.046   0.259
    1UNL    H20   49  -0.067  -0.298   0.252
    1UNL    H21   50   0.092  -0.290   0.183
    1UNL    H22   51  -0.273  -0.375  -0.170
    1UNL    H23   52  -0.308  -0.120  -0.227
    1UNL    H24   53  -0.029  -0.140  -0.119
   0.00000   0.00000   0.00000   0.00000   0.00000   0.00000   0.00000   0.00000   0.00000
Generated with MDTraj, t= 31.0
 53
    1UNL     C1    1  -0.347  -0.154   0.194
    1UNL     C2    2  -0.300  -0.036   0.113
    1UNL     C3    3  -0.222  -0.057  -0.027
    1UNL     C4    4  -0.218   0.086  -0.091
    1UNL     C5    5  -0.129   0.178  -0.014
    1UNL     C6    6  -0.138   0.323  -0.038
    1UNL     O1    7  -0.219   0.362  -0.118
    1UNL     O2    8  -0.049   0.412   0.025
    1UNL     C7    9  -0.089   0.543  -0.012
    1UNL     C8   10  -0.027   0.130   0.061
    1UNL     N1   11   0.091   0.195   0.077
    1UNL     C9   12   0.199   0.112   0.037
    1UNL    C10   13   0.332   0.143   0.006
    1UNL    C11   14   0.423   0.047  -0.040
    1UNL     O3   15   0.550   0.090  -0.077
    1UNL    C12   16   0.623  -0.006  -0.151
    1UNL    C13   17   0.373  -0.087  -0.058
    1UNL    C14   18   0.249  -0.122  -0.033
    1UNL    C15   19   0.160  -0.022   0.006
    1UNL    C16   20   0.016  -0.020   0.061
    1UNL    C17   21   0.015  -0.082   0.202
    1UNL    C18   22  -0.008  -0.232   0.185
    1UNL     N2   23  -0.072  -0.245   0.048
    1UNL    C19   24  -0.159  -0.347   0.018
    1UNL     O4   25  -0.167  -0.452   0.082
    1UNL    C20   26  -0.253  -0.314  -0.105
    1UNL     O5   27  -0.378  -0.256  -0.067
    1UNL    C21   28  -0.288  -0.165  -0.121
    1UNL    C22   29  -0.080  -0.114  -0.016
    1UNL     H1   30  -0.269  -0.230   0.226
    1UNL     H2   31  -0.425  -0.209   0.133
    1UNL     H3   32  -0.397  -0.125   0.277
    1UNL     H4   33  -0.238   0.035   0.165
    1UNL     H5   34  -0.390   0.028   0.089
    1UNL     H6   35  -0.177   0.076  -0.186
    1UNL     H7   36  -0.322   0.121  -0.093
    1UNL     H8   37  -0.184   0.565   0.035
    1UNL     H9   38  -0.072   0.541  -0.124
    1UNL    H10   39  -0.017   0.607   0.030
    1UNL    H11   40   0.104   0.300   0.057
    1UNL    H12   41   0.355   0.246  -0.004
    1UNL    H13   42   0.720   0.044  -0.168
    1UNL    H14   43   0.636  -0.104  -0.106
    1UNL    H15   44   0.568  -0.015  -0.245
    1UNL    H16   45   0.428  -0.174  -0.094
    1UNL    H17   46   0.210  -0.217  -0.032
    1UNL    H18   47   0.111  -0.061   0.262
    1UNL    H19   48  -0.060  -0.039   0.259
    1UNL    H20   49  -0.065  -0.272   0.268
    1UNL    H21   50   0.089  -0.289   0.185
    1UNL    H22   51  -0.250  -0.378  -0.196
    1UNL    H23   52  -0.307  -0.121  -0.221
    1UNL    H24   53  -0.030  -0.134  -0.115
   0.00000   0.00000   0.00000   0.00000   0.00000   0.00000   0.00000   0.00000   0.00000
Generated with MDTraj, t= 32.0
 53
    1UNL     C1    1  -0.345  -0.165   0.188
    1UNL     C2    2  -0.309  -0.039   0.106
    1UNL     C3    3  -0.230  -0.056  -0.030
    1UNL     C4    4  -0.221   0.083  -0.102
    1UNL     C5    5  -0.138   0.173  -0.020
    1UNL     C6    6  -0.161   0.321  -0.030
    1UNL     O1    7  -0.251   0.359  -0.098
    1UNL     O2    8  -0.064   0.398   0.022
    1UNL     C7    9  -0.087   0.536  -0.001
    1UNL     C8   10  -0.017   0.131   0.036
    1UNL     N1   11   0.101   0.200   0.051
    1UNL     C9   12   0.218   0.119   0.030
    1UNL    C10   13   0.352   0.150   0.008
    1UNL    C11   14   0.434   0.044  -0.040
    1UNL     O3   15   0.572   0.063  -0.059
    1UNL    C12   16   0.640  -0.010  -0.160
    1UNL    C13   17   0.381  -0.087  -0.059
    1UNL    C14   18   0.243  -0.118  -0.026
    1UNL    C15   19   0.167  -0.013   0.019
    1UNL    C16   20   0.020  -0.013   0.064
    1UNL    C17   21   0.011  -0.071   0.208
    1UNL    C18   22   0.000  -0.226   0.186
    1UNL     N2   23  -0.078  -0.239   0.060
    1UNL    C19   24  -0.162  -0.342   0.017
    1UNL     O4   25  -0.166  -0.451   0.074
    1UNL    C20   26  -0.257  -0.314  -0.099
    1UNL     O5   27  -0.384  -0.248  -0.060
    1UNL    C21   28  -0.295  -0.161  -0.124
    1UNL    C22   29  -0.081  -0.104  -0.013
    1UNL     H1   30  -0.260  -0.234   0.200
    1UNL     H2   31  -0.426  -0.218   0.127
    1UNL     H3   32  -0.388  -0.145   0.280
    1UNL     H4   33  -0.261   0.038   0.164
    1UNL     H5   34  -0.406   0.009   0.074
    1UNL     H6   35  -0.169   0.064  -0.190
    1UNL     H7   36  -0.322   0.124  -0.119
    1UNL     H8   37  -0.179   0.559   0.057
    1UNL     H9   38  -0.081   0.548  -0.116
    1UNL    H10   39  -0.009   0.589   0.042
    1UNL    H11   40   0.105   0.306   0.030
    1UNL    H12   41   0.395   0.250   0.002
    1UNL    H13   42   0.711   0.059  -0.200
    1UNL    H14   43   0.692  -0.101  -0.126
    1UNL    H15   44   0.565  -0.033  -0.237
    1UNL    H16   45   0.451  -0.162  -0.083
    1UNL    H17   46   0.195  -0.219  -0.035
    1UNL    H18   47   0.100  -0.041   0.278
    1UNL    H19   48  -0.072  -0.029   0.255
    1UNL    H20   49  -0.059  -0.272   0.268
    1UNL    H21   50   0.093  -0.284   0.167
    1UNL    H22   51  -0.257  -0.384  -0.194
    1UNL    H23   52  -0.314  -0.140  -0.236
    1UNL    H24   53  -0.043  -0.124  -0.117
   0.00000   0.00000   0.00000   0.00000   0.00000   0.00000   0.00000   0.00000   0.00000
Generated with MDTraj, t= 33.0
 53
    1UNL     C1    1  -0.334  -0.169   0.186
    1UNL     C2    2  -0.304  -0.047   0.098
    1UNL     C3    3  -0.220  -0.058  -0.027
    1UNL     C4    4  -0.208   0.081  -0.100
    1UNL     C5    5  -0.123   0.178  -0.018
    1UNL     C6    6  -0.157   0.327  -0.033
    1UNL     O1    7  -0.268   0.357  -0.077
    1UNL     O2    8  -0.066   0.420   0.012
    1UNL     C7    9  -0.124   0.549   0.004
    1UNL     C8   10  -0.015   0.131   0.051
    1UNL     N1   11   0.108   0.201   0.053
    1UNL     C9   12   0.213   0.115   0.021
    1UNL    C10   13   0.344   0.138  -0.003
    1UNL    C11   14   0.436   0.034  -0.045
    1UNL     O3   15   0.571   0.078  -0.077
    1UNL    C12   16   0.649  -0.025  -0.140
    1UNL    C13   17   0.384  -0.094  -0.044
    1UNL    C14   18   0.250  -0.122  -0.013
    1UNL    C15   19   0.163  -0.018   0.012
    1UNL    C16   20   0.022  -0.018   0.055
    1UNL    C17   21   0.027  -0.080   0.195
    1UNL    C18   22  -0.002  -0.229   0.177
    1UNL     N2   23  -0.067  -0.246   0.046
    1UNL    C19   24  -0.169  -0.334   0.020
    1UNL     O4   25  -0.197  -0.427   0.093
    1UNL    C20   26  -0.258  -0.301  -0.099
    1UNL     O5   27  -0.380  -0.255  -0.067
    1UNL    C21   28  -0.298  -0.158  -0.122
    1UNL    C22   29  -0.074  -0.113  -0.023
    1UNL     H1   30  -0.259  -0.176   0.259
    1UNL     H2   31  -0.329  -0.256   0.123
    1UNL     H3   32  -0.437  -0.171   0.233
    1UNL     H4   33  -0.258   0.023   0.166
    1UNL     H5   34  -0.403  -0.002   0.069
    1UNL     H6   35  -0.168   0.068  -0.195
    1UNL     H7   36  -0.306   0.131  -0.102
    1UNL     H8   37  -0.221   0.530   0.060
    1UNL     H9   38  -0.132   0.576  -0.109
    1UNL    H10   39  -0.068   0.619   0.058
    1UNL    H11   40   0.096   0.294   0.008
    1UNL    H12   41   0.379   0.238   0.000
    1UNL    H13   42   0.740   0.019  -0.167
    1UNL    H14   43   0.677  -0.112  -0.077
    1UNL    H15   44   0.601  -0.059  -0.235
    1UNL    H16   45   0.457  -0.180  -0.049
    1UNL    H17   46   0.229  -0.224  -0.027
    1UNL    H18   47   0.125  -0.060   0.250
    1UNL    H19   48  -0.048  -0.018   0.255
    1UNL    H20   49  -0.075  -0.273   0.252
    1UNL    H21   50   0.089  -0.287   0.161
    1UNL    H22   51  -0.266  -0.390  -0.172
    1UNL    H23   52  -0.331  -0.118  -0.226
    1UNL    H24   53  -0.035  -0.119  -0.128
   0.00000   0.00000   0.00000   0.00000   0.00000   0.00000   0.00000   0.00000   0.00000
Generated with MDTraj, t= 34.0
 53
    1UNL     C1    1  -0.334  -0.154   0.182
    1UNL     C2    2  -0.294  -0.043   0.096
    1UNL     C3    3  -0.218  -0.061  -0.040
    1UNL     C4    4  -0.210   0.079  -0.108
    1UNL     C5    5  -0.129   0.175  -0.022
    1UNL     C6    6  -0.162   0.316  -0.020
    1UNL     O1    7  -0.267   0.352  -0.067
    1UNL     O2    8  -0.071   0.403   0.036
    1UNL     C7    9  -0.109   0.535   0.005
    1UNL     C8   10  -0.015   0.134   0.041
    1UNL     N1   11   0.103   0.206   0.041
    1UNL     C9   12   0.208   0.119   0.008
    1UNL    C10   13   0.346   0.144  -0.014
    1UNL    C11   14   0.430   0.042  -0.052
    1UNL     O3   15   0.557   0.079  -0.086
    1UNL    C12   16   0.647  -0.028  -0.104
    1UNL    C13   17   0.387  -0.092  -0.058
    1UNL    C14   18   0.255  -0.122  -0.026
    1UNL    C15   19   0.168  -0.021   0.010
    1UNL    C16   20   0.027  -0.017   0.053
    1UNL    C17   21   0.023  -0.076   0.201
    1UNL    C18   22  -0.011  -0.223   0.185
    1UNL     N2   23  -0.064  -0.244   0.044
    1UNL    C19   24  -0.170  -0.329   0.027
    1UNL     O4   25  -0.189  -0.424   0.096
    1UNL    C20   26  -0.259  -0.310  -0.095
    1UNL     O5   27  -0.388  -0.247  -0.069
    1UNL    C21   28  -0.292  -0.161  -0.130
    1UNL    C22   29  -0.070  -0.118  -0.022
    1UNL     H1   30  -0.264  -0.234   0.185
    1UNL     H2   31  -0.419  -0.204   0.160
    1UNL     H3   32  -0.346  -0.128   0.296
    1UNL     H4   33  -0.228   0.018   0.156
    1UNL     H5   34  -0.378   0.028   0.076
    1UNL     H6   35  -0.154   0.070  -0.199
    1UNL     H7   36  -0.307   0.122  -0.132
    1UNL     H8   37  -0.187   0.551   0.084
    1UNL     H9   38  -0.148   0.538  -0.105
    1UNL    H10   39  -0.025   0.595   0.019
    1UNL    H11   40   0.113   0.301   0.061
    1UNL    H12   41   0.385   0.242   0.007
    1UNL    H13   42   0.743   0.003  -0.082
    1UNL    H14   43   0.629  -0.110  -0.030
    1UNL    H15   44   0.651  -0.072  -0.207
    1UNL    H16   45   0.453  -0.167  -0.086
    1UNL    H17   46   0.208  -0.222  -0.026
    1UNL    H18   47   0.119  -0.052   0.251
    1UNL    H19   48  -0.057  -0.025   0.277
    1UNL    H20   49  -0.091  -0.254   0.262
    1UNL    H21   50   0.077  -0.283   0.194
    1UNL    H22   51  -0.269  -0.387  -0.171
    1UNL    H23   52  -0.332  -0.122  -0.227
    1UNL    H24   53  -0.021  -0.130  -0.120
   0.00000   0.00000   0.00000   0.00000   0.00000   0.00000   0.00000   0.00000   0.00000
Generated with MDTraj, t= 35.0
 53
    1UNL     C1    1  -0.368  -0.154   0.186
    1UNL     C2    2  -0.317  -0.033   0.101
    1UNL     C3    3  -0.229  -0.061  -0.026
    1UNL     C4    4  -0.223   0.079  -0.088
    1UNL     C5    5  -0.127   0.171  -0.021
    1UNL     C6    6  -0.149   0.320  -0.033
    1UNL     O1    7  -0.251   0.361  -0.085
    1UNL     O2    8  -0.058   0.402   0.026
    1UNL     C7    9  -0.113   0.533   0.032
    1UNL     C8   10  -0.013   0.121   0.032
    1UNL     N1   11   0.110   0.191   0.029
    1UNL     C9   12   0.220   0.108   0.003
    1UNL    C10   13   0.353   0.150  -0.023
    1UNL    C11   14   0.435   0.048  -0.063
    1UNL     O3   15   0.569   0.084  -0.090
    1UNL    C12   16   0.661  -0.018  -0.072
    1UNL    C13   17   0.382  -0.084  -0.073
    1UNL    C14   18   0.254  -0.121  -0.049
    1UNL    C15   19   0.171  -0.018  -0.002
    1UNL    C16   20   0.019  -0.016   0.057
    1UNL    C17   21   0.025  -0.074   0.200
    1UNL    C18   22  -0.005  -0.227   0.192
    1UNL     N2   23  -0.081  -0.233   0.061
    1UNL    C19   24  -0.166  -0.337   0.025
    1UNL     O4   25  -0.167  -0.439   0.085
    1UNL    C20   26  -0.265  -0.316  -0.094
    1UNL     O5   27  -0.391  -0.252  -0.067
    1UNL    C21   28  -0.297  -0.170  -0.123
    1UNL    C22   29  -0.084  -0.104  -0.010
    1UNL     H1   30  -0.288  -0.232   0.190
    1UNL     H2   31  -0.455  -0.196   0.139
    1UNL     H3   32  -0.393  -0.116   0.289
    1UNL     H4   33  -0.268   0.038   0.167
    1UNL     H5   34  -0.412   0.018   0.071
    1UNL     H6   35  -0.195   0.078  -0.194
    1UNL     H7   36  -0.323   0.118  -0.086
    1UNL     H8   37  -0.212   0.512   0.073
    1UNL     H9   38  -0.127   0.570  -0.074
    1UNL    H10   39  -0.051   0.592   0.091
    1UNL    H11   40   0.112   0.291   0.048
    1UNL    H12   41   0.381   0.251   0.005
    1UNL    H13   42   0.756   0.017  -0.085
    1UNL    H14   43   0.652  -0.043   0.036
    1UNL    H15   44   0.651  -0.112  -0.133
    1UNL    H16   45   0.448  -0.164  -0.114
    1UNL    H17   46   0.222  -0.223  -0.042
    1UNL    H18   47   0.131  -0.054   0.233
    1UNL    H19   48  -0.040  -0.018   0.272
    1UNL    H20   49  -0.075  -0.275   0.271
    1UNL    H21   50   0.088  -0.281   0.183
    1UNL    H22   51  -0.238  -0.368  -0.179
    1UNL    H23   52  -0.321  -0.136  -0.220
    1UNL    H24   53  -0.040  -0.133  -0.106
   0.00000   0.00000   0.00000   0.00000   0.00000   0.00000   0.00000   0.00000   0.00000
Generated with MDTraj, t= 36.0
 53
    1UNL     C1    1  -0.324  -0.161   0.200
    1UNL     C2    2  -0.281  -0.043   0.115
    1UNL     C3    3  -0.225  -0.060  -0.028
    1UNL     C4    4  -0.225   0.090  -0.083
    1UNL     C5    5  -0.130   0.185  -0.018
    1UNL     C6    6  -0.153   0.328  -0.032
    1UNL     O1    7  -0.241   0.368  -0.104
    1UNL     O2    8  -0.078   0.409   0.048
    1UNL     C7    9  -0.109   0.540   0.015
    1UNL     C8   10  -0.023   0.134   0.047
    1UNL     N1   11   0.100   0.202   0.039
    1UNL     C9   12   0.206   0.116   0.010
    1UNL    C10   13   0.334   0.140  -0.033
    1UNL    C11   14   0.424   0.038  -0.060
    1UNL     O3   15   0.560   0.070  -0.088
    1UNL    C12   16   0.651  -0.027  -0.060
    1UNL    C13   17   0.386  -0.092  -0.067
    1UNL    C14   18   0.252  -0.115  -0.041
    1UNL    C15   19   0.163  -0.014  -0.006
    1UNL    C16   20   0.020  -0.017   0.050
    1UNL    C17   21   0.025  -0.078   0.193
    1UNL    C18   22  -0.001  -0.228   0.176
    1UNL     N2   23  -0.065  -0.244   0.046
    1UNL    C19   24  -0.161  -0.340   0.021
    1UNL     O4   25  -0.187  -0.432   0.093
    1UNL    C20   26  -0.255  -0.313  -0.098
    1UNL     O5   27  -0.389  -0.262  -0.071
    1UNL    C21   28  -0.298  -0.162  -0.126
    1UNL    C22   29  -0.081  -0.113  -0.023
    1UNL     H1   30  -0.260  -0.253   0.191
    1UNL     H2   31  -0.433  -0.203   0.170
    1UNL     H3   32  -0.334  -0.134   0.304
    1UNL     H4   33  -0.207   0.023   0.162
    1UNL     H5   34  -0.368   0.027   0.103
    1UNL     H6   35  -0.196   0.076  -0.191
    1UNL     H7   36  -0.322   0.130  -0.088
    1UNL     H8   37  -0.213   0.550   0.042
    1UNL     H9   38  -0.105   0.549  -0.095
    1UNL    H10   39  -0.031   0.594   0.063
    1UNL    H11   40   0.102   0.300  -0.001
    1UNL    H12   41   0.379   0.238  -0.031
    1UNL    H13   42   0.732   0.018  -0.013
    1UNL    H14   43   0.607  -0.094   0.017
    1UNL    H15   44   0.691  -0.083  -0.148
    1UNL    H16   45   0.461  -0.162  -0.099
    1UNL    H17   46   0.216  -0.218  -0.045
    1UNL    H18   47   0.122  -0.047   0.245
    1UNL    H19   48  -0.050  -0.040   0.250
    1UNL    H20   49  -0.073  -0.272   0.252
    1UNL    H21   50   0.088  -0.292   0.179
    1UNL    H22   51  -0.253  -0.381  -0.178
    1UNL    H23   52  -0.322  -0.128  -0.221
    1UNL    H24   53  -0.054  -0.132  -0.126
   0.00000   0.00000   0.00000   0.00000   0.00000   0.00000   0.00000   0.00000   0.00000
Generated with MDTraj, t= 37.0
 53
    1UNL     C1    1  -0.322  -0.172   0.196
    1UNL     C2    2  -0.301  -0.050   0.107
    1UNL     C3    3  -0.226  -0.060  -0.020
    1UNL     C4    4  -0.223   0.078  -0.087
    1UNL     C5    5  -0.134   0.175  -0.012
    1UNL     C6    6  -0.157   0.317  -0.040
    1UNL     O1    7  -0.249   0.360  -0.107
    1UNL     O2    8  -0.067   0.405   0.027
    1UNL     C7    9  -0.110   0.541   0.006
    1UNL     C8   10  -0.015   0.127   0.041
    1UNL     N1   11   0.108   0.196   0.065
    1UNL     C9   12   0.217   0.126   0.019
    1UNL    C10   13   0.344   0.149  -0.019
    1UNL    C11   14   0.432   0.045  -0.056
    1UNL     O3   15   0.567   0.073  -0.075
    1UNL    C12   16   0.660  -0.035  -0.076
    1UNL    C13   17   0.376  -0.082  -0.063
    1UNL    C14   18   0.240  -0.109  -0.044
    1UNL    C15   19   0.162  -0.010  -0.002
    1UNL    C16   20   0.021  -0.020   0.050
    1UNL    C17   21   0.025  -0.080   0.195
    1UNL    C18   22   0.002  -0.227   0.164
    1UNL     N2   23  -0.070  -0.243   0.029
    1UNL    C19   24  -0.169  -0.334   0.015
    1UNL     O4   25  -0.172  -0.436   0.084
    1UNL    C20   26  -0.276  -0.304  -0.089
    1UNL     O5   27  -0.394  -0.240  -0.050
    1UNL    C21   28  -0.299  -0.160  -0.111
    1UNL    C22   29  -0.079  -0.108  -0.027
    1UNL     H1   30  -0.249  -0.164   0.281
    1UNL     H2   31  -0.305  -0.277   0.154
    1UNL     H3   32  -0.425  -0.168   0.236
    1UNL     H4   33  -0.251   0.027   0.169
    1UNL     H5   34  -0.402  -0.011   0.075
    1UNL     H6   35  -0.189   0.064  -0.194
    1UNL     H7   36  -0.320   0.115  -0.099
    1UNL     H8   37  -0.218   0.537   0.006
    1UNL     H9   38  -0.086   0.560  -0.100
    1UNL    H10   39  -0.052   0.600   0.073
    1UNL    H11   40   0.121   0.302   0.064
    1UNL    H12   41   0.369   0.253  -0.023
    1UNL    H13   42   0.759  -0.012  -0.111
    1UNL    H14   43   0.663  -0.070   0.029
    1UNL    H15   44   0.621  -0.119  -0.134
    1UNL    H16   45   0.433  -0.163  -0.102
    1UNL    H17   46   0.203  -0.208  -0.070
    1UNL    H18   47   0.127  -0.061   0.238
    1UNL    H19   48  -0.047  -0.038   0.258
    1UNL    H20   49  -0.053  -0.274   0.245
    1UNL    H21   50   0.094  -0.291   0.154
    1UNL    H22   51  -0.286  -0.373  -0.177
    1UNL    H23   52  -0.317  -0.130  -0.211
    1UNL    H24   53  -0.051  -0.098  -0.131
   0.00000   0.00000   0.00000   0.00000   0.00000   0.00000   0.00000   0.00000   0.00000
Generated with MDTraj, t= 38.0
 53
    1UNL     C1    1  -0.333  -0.148   0.195
    1UNL     C2    2  -0.302  -0.026   0.112
    1UNL     C3    3  -0.235  -0.051  -0.025
    1UNL     C4    4  -0.217   0.088  -0.099
    1UNL     C5    5  -0.132   0.177  -0.023
    1UNL     C6    6  -0.155   0.320  -0.037
    1UNL     O1    7  -0.256   0.362  -0.085
    1UNL     O2    8  -0.059   0.402   0.008
    1UNL     C7    9  -0.094   0.540  -0.007
    1UNL     C8   10  -0.021   0.125   0.038
    1UNL     N1   11   0.098   0.199   0.056
    1UNL     C9   12   0.212   0.108   0.027
    1UNL    C10   13   0.344   0.138  -0.001
    1UNL    C11   14   0.428   0.036  -0.048
    1UNL     O3   15   0.564   0.082  -0.054
    1UNL    C12   16   0.664   0.003  -0.109
    1UNL    C13   17   0.386  -0.090  -0.069
    1UNL    C14   18   0.253  -0.119  -0.037
    1UNL    C15   19   0.165  -0.020   0.006
    1UNL    C16   20   0.018  -0.021   0.057
    1UNL    C17   21   0.021  -0.085   0.201
    1UNL    C18   22   0.006  -0.237   0.168
    1UNL     N2   23  -0.078  -0.246   0.047
    1UNL    C19   24  -0.167  -0.344   0.015
    1UNL     O4   25  -0.168  -0.457   0.067
    1UNL    C20   26  -0.263  -0.306  -0.096
    1UNL     O5   27  -0.390  -0.255  -0.046
    1UNL    C21   28  -0.318  -0.151  -0.109
    1UNL    C22   29  -0.087  -0.112  -0.018
    1UNL     H1   30  -0.248  -0.217   0.189
    1UNL     H2   31  -0.415  -0.204   0.173
    1UNL     H3   32  -0.348  -0.109   0.303
    1UNL     H4   33  -0.241   0.043   0.176
    1UNL     H5   34  -0.398   0.023   0.083
    1UNL     H6   35  -0.167   0.074  -0.198
    1UNL     H7   36  -0.308   0.139  -0.122
    1UNL     H8   37  -0.188   0.565   0.044
    1UNL     H9   38  -0.117   0.548  -0.116
    1UNL    H10   39  -0.001   0.590   0.021
    1UNL    H11   40   0.092   0.290   0.005
    1UNL    H12   41   0.396   0.235   0.007
    1UNL    H13   42   0.762   0.031  -0.067
    1UNL    H14   43   0.641  -0.103  -0.097
    1UNL    H15   44   0.660   0.026  -0.215
    1UNL    H16   45   0.451  -0.173  -0.107
    1UNL    H17   46   0.215  -0.217  -0.063
    1UNL    H18   47   0.111  -0.063   0.249
    1UNL    H19   48  -0.064  -0.051   0.263
    1UNL    H20   49  -0.038  -0.291   0.246
    1UNL    H21   50   0.106  -0.292   0.149
    1UNL    H22   51  -0.274  -0.390  -0.177
    1UNL    H23   52  -0.360  -0.113  -0.207
    1UNL    H24   53  -0.055  -0.130  -0.118
   0.00000   0.00000   0.00000   0.00000   0.00000   0.00000   0.00000   0.00000   0.00000
Generated with MDTraj, t= 39.0
 53
    1UNL     C1    1  -0.346  -0.162   0.188
    1UNL     C2    2  -0.292  -0.038   0.117
    1UNL     C3    3  -0.224  -0.062  -0.024
    1UNL     C4    4  -0.217   0.080  -0.088
    1UNL     C5    5  -0.128   0.177  -0.015
    1UNL     C6    6  -0.151   0.322  -0.036
    1UNL     O1    7  -0.259   0.363  -0.076
    1UNL     O2    8  -0.050   0.406   0.008
    1UNL     C7    9  -0.083   0.537  -0.023
    1UNL     C8   10  -0.016   0.125   0.037
    1UNL     N1   11   0.103   0.194   0.048
    1UNL     C9   12   0.213   0.110   0.027
    1UNL    C10   13   0.349   0.150   0.021
    1UNL    C11   14   0.438   0.058  -0.022
    1UNL     O3   15   0.571   0.082  -0.048
    1UNL    C12   16   0.626  -0.003  -0.148
    1UNL    C13   17   0.386  -0.075  -0.051
    1UNL    C14   18   0.257  -0.113  -0.029
    1UNL    C15   19   0.163  -0.016  -0.004
    1UNL    C16   20   0.020  -0.021   0.048
    1UNL    C17   21   0.032  -0.086   0.189
    1UNL    C18   22  -0.011  -0.237   0.177
    1UNL     N2   23  -0.075  -0.249   0.045
    1UNL    C19   24  -0.171  -0.343   0.012
    1UNL     O4   25  -0.190  -0.446   0.077
    1UNL    C20   26  -0.269  -0.308  -0.096
    1UNL     O5   27  -0.393  -0.254  -0.059
    1UNL    C21   28  -0.303  -0.161  -0.114
    1UNL    C22   29  -0.078  -0.116  -0.022
    1UNL     H1   30  -0.280  -0.244   0.195
    1UNL     H2   31  -0.432  -0.207   0.150
    1UNL     H3   32  -0.382  -0.135   0.293
    1UNL     H4   33  -0.227   0.032   0.177
    1UNL     H5   34  -0.379   0.024   0.090
    1UNL     H6   35  -0.183   0.083  -0.193
    1UNL     H7   36  -0.319   0.121  -0.089
    1UNL     H8   37  -0.155   0.584   0.047
    1UNL     H9   38  -0.126   0.527  -0.126
    1UNL    H10   39   0.016   0.588  -0.029
    1UNL    H11   40   0.100   0.295   0.050
    1UNL    H12   41   0.378   0.245   0.049
    1UNL    H13   42   0.696   0.054  -0.216
    1UNL    H14   43   0.665  -0.095  -0.108
    1UNL    H15   44   0.539  -0.028  -0.204
    1UNL    H16   45   0.448  -0.151  -0.083
    1UNL    H17   46   0.218  -0.211  -0.052
    1UNL    H18   47   0.129  -0.093   0.213
    1UNL    H19   48  -0.031  -0.019   0.255
    1UNL    H20   49  -0.070  -0.276   0.255
    1UNL    H21   50   0.087  -0.296   0.181
    1UNL    H22   51  -0.276  -0.370  -0.191
    1UNL    H23   52  -0.337  -0.126  -0.221
    1UNL    H24   53  -0.045  -0.138  -0.121
   0.00000   0.00000   0.00000   0.00000   0.00000   0.00000   0.00000   0.00000   0.00000
Generated with MDTraj, t= 40.0
 53
    1UNL     C1    1  -0.343  -0.185   0.184
    1UNL     C2    2  -0.316  -0.055   0.100
    1UNL     C3    3  -0.228  -0.062  -0.026
    1UNL     C4    4  -0.224   0.084  -0.079
    1UNL     C5    5  -0.126   0.175  -0.004
    1UNL     C6    6  -0.142   0.318  -0.032
    1UNL     O1    7  -0.248   0.350  -0.083
    1UNL     O2    8  -0.043   0.410   0.002
    1UNL     C7    9  -0.096   0.540  -0.022
    1UNL     C8   10  -0.015   0.131   0.061
    1UNL     N1   11   0.107   0.197   0.061
    1UNL     C9   12   0.210   0.112   0.026
    1UNL    C10   13   0.342   0.142  -0.008
    1UNL    C11   14   0.427   0.044  -0.048
    1UNL     O3   15   0.557   0.083  -0.069
    1UNL    C12   16   0.636   0.008  -0.159
    1UNL    C13   17   0.389  -0.093  -0.053
    1UNL    C14   18   0.263  -0.123  -0.014
    1UNL    C15   19   0.168  -0.024   0.028
    1UNL    C16   20   0.023  -0.019   0.071
    1UNL    C17   21   0.003  -0.084   0.213
    1UNL    C18   22  -0.006  -0.236   0.179
    1UNL     N2   23  -0.062  -0.246   0.039
    1UNL    C19   24  -0.168  -0.335   0.016
    1UNL     O4   25  -0.190  -0.419   0.099
    1UNL    C20   26  -0.267  -0.309  -0.101
    1UNL     O5   27  -0.392  -0.236  -0.084
    1UNL    C21   28  -0.285  -0.158  -0.128
    1UNL    C22   29  -0.071  -0.110  -0.017
    1UNL     H1   30  -0.254  -0.212   0.232
    1UNL     H2   31  -0.375  -0.269   0.118
    1UNL     H3   32  -0.425  -0.160   0.247
    1UNL     H4   33  -0.273   0.023   0.170
    1UNL     H5   34  -0.417  -0.019   0.078
    1UNL     H6   35  -0.196   0.075  -0.183
    1UNL     H7   36  -0.324   0.139  -0.080
    1UNL     H8   37  -0.201   0.550   0.010
    1UNL     H9   38  -0.083   0.554  -0.131
    1UNL    H10   39  -0.033   0.615   0.037
    1UNL    H11   40   0.114   0.294   0.045
    1UNL    H12   41   0.382   0.244   0.011
    1UNL    H13   42   0.734   0.066  -0.170
    1UNL    H14   43   0.648  -0.096  -0.135
    1UNL    H15   44   0.579   0.018  -0.249
    1UNL    H16   45   0.442  -0.175  -0.107
    1UNL    H17   46   0.232  -0.225  -0.027
    1UNL    H18   47   0.075  -0.059   0.288
    1UNL    H19   48  -0.100  -0.053   0.244
    1UNL    H20   49  -0.069  -0.282   0.254
    1UNL    H21   50   0.089  -0.294   0.191
    1UNL    H22   51  -0.264  -0.381  -0.181
    1UNL    H23   52  -0.297  -0.110  -0.232
    1UNL    H24   53  -0.038  -0.113  -0.119
   0.00000   0.00000   0.00000   0.00000   0.00000   0.00000   0.00000   0.00000   0.00000
Generated with MDTraj, t= 41.0
 53
    1UNL     C1    1  -0.339  -0.155   0.175
    1UNL     C2    2  -0.298  -0.036   0.096
    1UNL     C3    3  -0.220  -0.060  -0.037
    1UNL     C4    4  -0.202   0.081  -0.103
    1UNL     C5    5  -0.128   0.173  -0.010
    1UNL     C6    6  -0.153   0.318  -0.025
    1UNL     O1    7  -0.241   0.357  -0.098
    1UNL     O2    8  -0.065   0.404   0.039
    1UNL     C7    9  -0.077   0.538  -0.013
    1UNL     C8   10  -0.022   0.128   0.067
    1UNL     N1   11   0.102   0.199   0.081
    1UNL     C9   12   0.211   0.115   0.037
    1UNL    C10   13   0.337   0.148   0.000
    1UNL    C11   14   0.420   0.050  -0.055
    1UNL     O3   15   0.550   0.085  -0.103
    1UNL    C12   16   0.616  -0.028  -0.154
    1UNL    C13   17   0.374  -0.081  -0.053
    1UNL    C14   18   0.236  -0.115  -0.022
    1UNL    C15   19   0.159  -0.010   0.017
    1UNL    C16   20   0.016  -0.020   0.072
    1UNL    C17   21   0.023  -0.078   0.215
    1UNL    C18   22  -0.013  -0.224   0.199
    1UNL     N2   23  -0.079  -0.238   0.066
    1UNL    C19   24  -0.168  -0.340   0.026
    1UNL     O4   25  -0.184  -0.442   0.085
    1UNL    C20   26  -0.240  -0.310  -0.107
    1UNL     O5   27  -0.374  -0.266  -0.096
    1UNL    C21   28  -0.288  -0.161  -0.130
    1UNL    C22   29  -0.069  -0.112  -0.016
    1UNL     H1   30  -0.259  -0.226   0.205
    1UNL     H2   31  -0.412  -0.226   0.123
    1UNL     H3   32  -0.392  -0.128   0.254
    1UNL     H4   33  -0.238   0.035   0.161
    1UNL     H5   34  -0.380   0.030   0.067
    1UNL     H6   35  -0.149   0.074  -0.196
    1UNL     H7   36  -0.305   0.126  -0.125
    1UNL     H8   37  -0.166   0.585   0.025
    1UNL     H9   38  -0.071   0.531  -0.120
    1UNL    H10   39   0.007   0.605   0.028
    1UNL    H11   40   0.094   0.291   0.049
    1UNL    H12   41   0.384   0.236   0.034
    1UNL    H13   42   0.703   0.015  -0.218
    1UNL    H14   43   0.658  -0.090  -0.077
    1UNL    H15   44   0.544  -0.077  -0.217
    1UNL    H16   45   0.439  -0.164  -0.079
    1UNL    H17   46   0.199  -0.214  -0.040
    1UNL    H18   47   0.130  -0.057   0.260
    1UNL    H19   48  -0.046  -0.030   0.281
    1UNL    H20   49  -0.065  -0.266   0.288
    1UNL    H21   50   0.068  -0.296   0.196
    1UNL    H22   51  -0.229  -0.378  -0.184
    1UNL    H23   52  -0.277  -0.137  -0.235
    1UNL    H24   53  -0.027  -0.122  -0.115
   0.00000   0.00000   0.00000   0.00000   0.00000   0.00000   0.00000   0.00000   0.00000
Generated with MDTraj, t= 42.0
 53
    1UNL     C1    1  -0.373  -0.158   0.166
    1UNL     C2    2  -0.310  -0.035   0.097
    1UNL     C3    3  -0.219  -0.061  -0.033
    1UNL     C4    4  -0.205   0.084  -0.101
    1UNL     C5    5  -0.121   0.180  -0.017
    1UNL     C6    6  -0.139   0.324  -0.041
    1UNL     O1    7  -0.220   0.365  -0.120
    1UNL     O2    8  -0.060   0.413   0.029
    1UNL     C7    9  -0.110   0.542   0.029
    1UNL     C8   10  -0.012   0.131   0.050
    1UNL     N1   11   0.107   0.202   0.067
    1UNL     C9   12   0.212   0.115   0.043
    1UNL    C10   13   0.338   0.142  -0.006
    1UNL    C11   14   0.421   0.044  -0.059
    1UNL     O3   15   0.545   0.085  -0.117
    1UNL    C12   16   0.637  -0.020  -0.159
    1UNL    C13   17   0.372  -0.090  -0.063
    1UNL    C14   18   0.243  -0.123  -0.017
    1UNL    C15   19   0.169  -0.023   0.040
    1UNL    C16   20   0.014  -0.016   0.081
    1UNL    C17   21  -0.002  -0.074   0.226
    1UNL    C18   22  -0.021  -0.226   0.205
    1UNL     N2   23  -0.073  -0.242   0.068
    1UNL    C19   24  -0.155  -0.346   0.020
    1UNL     O4   25  -0.164  -0.451   0.080
    1UNL    C20   26  -0.244  -0.313  -0.106
    1UNL     O5   27  -0.374  -0.264  -0.073
    1UNL    C21   28  -0.290  -0.165  -0.128
    1UNL    C22   29  -0.069  -0.113  -0.007
    1UNL     H1   30  -0.303  -0.242   0.177
    1UNL     H2   31  -0.460  -0.195   0.106
    1UNL     H3   32  -0.421  -0.126   0.257
    1UNL     H4   33  -0.260   0.029   0.178
    1UNL     H5   34  -0.392   0.033   0.067
    1UNL     H6   35  -0.162   0.082  -0.199
    1UNL     H7   36  -0.309   0.131  -0.112
    1UNL     H8   37  -0.206   0.543   0.071
    1UNL     H9   38  -0.099   0.592  -0.065
    1UNL    H10   39  -0.055   0.597   0.114
    1UNL    H11   40   0.116   0.296   0.027
    1UNL    H12   41   0.368   0.245   0.005
    1UNL    H13   42   0.743   0.021  -0.129
    1UNL    H14   43   0.626  -0.109  -0.102
    1UNL    H15   44   0.627  -0.033  -0.266
    1UNL    H16   45   0.420  -0.156  -0.128
    1UNL    H17   46   0.197  -0.215  -0.055
    1UNL    H18   47   0.101  -0.053   0.283
    1UNL    H19   48  -0.082  -0.028   0.279
    1UNL    H20   49  -0.079  -0.286   0.281
    1UNL    H21   50   0.072  -0.274   0.203
    1UNL    H22   51  -0.246  -0.387  -0.181
    1UNL    H23   52  -0.301  -0.135  -0.226
    1UNL    H24   53  -0.022  -0.131  -0.103
   0.00000   0.00000   0.00000   0.00000   0.00000   0.00000   0.00000   0.00000   0.00000
Generated with MDTraj, t= 43.0
 53
    1UNL     C1    1  -0.351  -0.165   0.175
    1UNL     C2    2  -0.317  -0.038   0.088
    1UNL     C3    3  -0.217  -0.059  -0.033
    1UNL     C4    4  -0.208   0.082  -0.102
    1UNL     C5    5  -0.126   0.173  -0.009
    1UNL     C6    6  -0.151   0.317  -0.029
    1UNL     O1    7  -0.225   0.352  -0.120
    1UNL     O2    8  -0.086   0.404   0.057
    1UNL     C7    9  -0.108   0.538   0.016
    1UNL     C8   10  -0.021   0.131   0.062
    1UNL     N1   11   0.103   0.200   0.052
    1UNL     C9   12   0.210   0.117   0.025
    1UNL    C10   13   0.344   0.147  -0.023
    1UNL    C11   14   0.426   0.041  -0.060
    1UNL     O3   15   0.559   0.076  -0.087
    1UNL    C12   16   0.630  -0.028  -0.152
    1UNL    C13   17   0.381  -0.091  -0.051
    1UNL    C14   18   0.249  -0.120  -0.028
    1UNL    C15   19   0.165  -0.015   0.010
    1UNL    C16   20   0.023  -0.016   0.072
    1UNL    C17   21   0.023  -0.077   0.220
    1UNL    C18   22  -0.018  -0.228   0.205
    1UNL     N2   23  -0.069  -0.239   0.061
    1UNL    C19   24  -0.163  -0.334   0.021
    1UNL     O4   25  -0.177  -0.439   0.084
    1UNL    C20   26  -0.255  -0.306  -0.098
    1UNL     O5   27  -0.379  -0.243  -0.076
    1UNL    C21   28  -0.275  -0.159  -0.134
    1UNL    C22   29  -0.070  -0.111  -0.006
    1UNL     H1   30  -0.261  -0.219   0.198
    1UNL     H2   31  -0.414  -0.228   0.117
    1UNL     H3   32  -0.417  -0.134   0.269
    1UNL     H4   33  -0.282   0.046   0.155
    1UNL     H5   34  -0.416   0.004   0.060
    1UNL     H6   35  -0.157   0.074  -0.199
    1UNL     H7   36  -0.311   0.122  -0.123
    1UNL     H8   37  -0.207   0.560   0.044
    1UNL     H9   38  -0.088   0.557  -0.086
    1UNL    H10   39  -0.054   0.616   0.083
    1UNL    H11   40   0.114   0.306   0.044
    1UNL    H12   41   0.378   0.250  -0.033
    1UNL    H13   42   0.697   0.031  -0.228
    1UNL    H14   43   0.705  -0.060  -0.081
    1UNL    H15   44   0.568  -0.100  -0.205
    1UNL    H16   45   0.449  -0.175  -0.079
    1UNL    H17   46   0.202  -0.214  -0.039
    1UNL    H18   47   0.125  -0.064   0.265
    1UNL    H19   48  -0.055  -0.025   0.282
    1UNL    H20   49  -0.098  -0.263   0.279
    1UNL    H21   50   0.063  -0.289   0.223
    1UNL    H22   51  -0.251  -0.375  -0.186
    1UNL    H23   52  -0.280  -0.130  -0.235
    1UNL    H24   53  -0.027  -0.134  -0.105
   0.00000   0.00000   0.00000   0.00000   0.00000   0.00000   0.00000   0.00000   0.00000
Generated with MDTraj, t= 44.0
 53
    1UNL     C1    1  -0.329  -0.165   0.181
    1UNL     C2    2  -0.300  -0.043   0.099
    1UNL     C3    3  -0.222  -0.061  -0.033
    1UNL     C4    4  -0.220   0.080  -0.098
    1UNL     C5    5  -0.126   0.176  -0.029
    1UNL     C6    6  -0.154   0.323  -0.034
    1UNL     O1    7  -0.250   0.364  -0.094
    1UNL     O2    8  -0.070   0.403   0.038
    1UNL     C7    9  -0.104   0.537   0.018
    1UNL     C8   10  -0.017   0.128   0.043
    1UNL     N1   11   0.106   0.198   0.049
    1UNL     C9   12   0.212   0.103   0.033
    1UNL    C10   13   0.342   0.144  -0.000
    1UNL    C11   14   0.431   0.042  -0.039
    1UNL     O3   15   0.560   0.080  -0.080
    1UNL    C12   16   0.636  -0.018  -0.154
    1UNL    C13   17   0.384  -0.090  -0.038
    1UNL    C14   18   0.252  -0.118  -0.015
    1UNL    C15   19   0.163  -0.018   0.002
    1UNL    C16   20   0.021  -0.024   0.052
    1UNL    C17   21   0.029  -0.078   0.200
    1UNL    C18   22  -0.001  -0.227   0.183
    1UNL     N2   23  -0.066  -0.245   0.042
    1UNL    C19   24  -0.170  -0.330   0.023
    1UNL     O4   25  -0.199  -0.411   0.111
    1UNL    C20   26  -0.254  -0.310  -0.101
    1UNL     O5   27  -0.383  -0.257  -0.077
    1UNL    C21   28  -0.295  -0.163  -0.129
    1UNL    C22   29  -0.070  -0.114  -0.025
    1UNL     H1   30  -0.241  -0.225   0.198
    1UNL     H2   31  -0.392  -0.237   0.137
    1UNL     H3   32  -0.387  -0.154   0.284
    1UNL     H4   33  -0.243   0.035   0.157
    1UNL     H5   34  -0.388   0.022   0.081
    1UNL     H6   35  -0.200   0.074  -0.210
    1UNL     H7   36  -0.324   0.119  -0.093
    1UNL     H8   37  -0.209   0.543   0.037
    1UNL     H9   38  -0.082   0.579  -0.078
    1UNL    H10   39  -0.058   0.605   0.100
    1UNL    H11   40   0.106   0.305   0.035
    1UNL    H12   41   0.354   0.249   0.001
    1UNL    H13   42   0.746  -0.009  -0.121
    1UNL    H14   43   0.622  -0.118  -0.115
    1UNL    H15   44   0.623  -0.006  -0.261
    1UNL    H16   45   0.445  -0.170  -0.064
    1UNL    H17   46   0.216  -0.219  -0.039
    1UNL    H18   47   0.118  -0.061   0.250
    1UNL    H19   48  -0.059  -0.027   0.259
    1UNL    H20   49  -0.074  -0.261   0.262
    1UNL    H21   50   0.087  -0.283   0.199
    1UNL    H22   51  -0.251  -0.391  -0.185
    1UNL    H23   52  -0.318  -0.128  -0.233
    1UNL    H24   53  -0.029  -0.123  -0.128
   0.00000   0.00000   0.00000   0.00000   0.00000   0.00000   0.00000   0.00000   0.00000
Generated with MDTraj, t= 45.0
 53
    1UNL     C1    1  -0.340  -0.151   0.186
    1UNL     C2    2  -0.303  -0.031   0.098
    1UNL     C3    3  -0.223  -0.057  -0.035
    1UNL     C4    4  -0.214   0.079  -0.109
    1UNL     C5    5  -0.126   0.174  -0.033
    1UNL     C6    6  -0.154   0.317  -0.029
    1UNL     O1    7  -0.260   0.357  -0.070
    1UNL     O2    8  -0.057   0.408   0.001
    1UNL     C7    9  -0.108   0.536   0.015
    1UNL     C8   10  -0.012   0.126   0.029
    1UNL     N1   11   0.102   0.199   0.049
    1UNL     C9   12   0.212   0.116   0.021
    1UNL    C10   13   0.348   0.145   0.003
    1UNL    C11   14   0.440   0.047  -0.036
    1UNL     O3   15   0.580   0.073  -0.043
    1UNL    C12   16   0.652   0.004  -0.141
    1UNL    C13   17   0.393  -0.081  -0.065
    1UNL    C14   18   0.260  -0.114  -0.040
    1UNL    C15   19   0.169  -0.022   0.005
    1UNL    C16   20   0.029  -0.028   0.056
    1UNL    C17   21   0.018  -0.089   0.203
    1UNL    C18   22  -0.007  -0.239   0.179
    1UNL     N2   23  -0.079  -0.247   0.052
    1UNL    C19   24  -0.176  -0.343   0.029
    1UNL     O4   25  -0.186  -0.445   0.094
    1UNL    C20   26  -0.275  -0.313  -0.085
    1UNL     O5   27  -0.401  -0.238  -0.061
    1UNL    C21   28  -0.308  -0.162  -0.122
    1UNL    C22   29  -0.074  -0.113  -0.023
    1UNL     H1   30  -0.240  -0.197   0.212
    1UNL     H2   31  -0.392  -0.222   0.122
    1UNL     H3   32  -0.408  -0.127   0.271
    1UNL     H4   33  -0.265   0.044   0.171
    1UNL     H5   34  -0.399   0.018   0.076
    1UNL     H6   35  -0.181   0.065  -0.220
    1UNL     H7   36  -0.314   0.122  -0.121
    1UNL     H8   37  -0.181   0.536   0.096
    1UNL     H9   38  -0.160   0.578  -0.070
    1UNL    H10   39  -0.024   0.614   0.040
    1UNL    H11   40   0.117   0.298   0.019
    1UNL    H12   41   0.392   0.243   0.023
    1UNL    H13   42   0.708   0.076  -0.207
    1UNL    H14   43   0.737  -0.041  -0.090
    1UNL    H15   44   0.596  -0.061  -0.205
    1UNL    H16   45   0.449  -0.147  -0.133
    1UNL    H17   46   0.231  -0.215  -0.062
    1UNL    H18   47   0.110  -0.081   0.251
    1UNL    H19   48  -0.054  -0.036   0.274
    1UNL    H20   49  -0.067  -0.286   0.257
    1UNL    H21   50   0.082  -0.298   0.170
    1UNL    H22   51  -0.292  -0.402  -0.155
    1UNL    H23   52  -0.338  -0.132  -0.232
    1UNL    H24   53  -0.040  -0.136  -0.127
   0.00000   0.00000   0.00000   0.00000   0.00000   0.00000   0.00000   0.00000   0.00000
Generated with MDTraj, t= 46.0
 53
    1UNL     C1    1  -0.335  -0.140   0.190
    1UNL     C2    2  -0.288  -0.024   0.111
    1UNL     C3    3  -0.219  -0.050  -0.030
    1UNL     C4    4  -0.214   0.080  -0.104
    1UNL     C5    5  -0.122   0.169  -0.030
    1UNL     C6    6  -0.163   0.310  -0.023
    1UNL     O1    7  -0.269   0.351  -0.066
    1UNL     O2    8  -0.062   0.400   0.014
    1UNL     C7    9  -0.095   0.534  -0.022
    1UNL     C8   10  -0.018   0.119   0.041
    1UNL     N1   11   0.104   0.186   0.054
    1UNL     C9   12   0.218   0.106   0.028
    1UNL    C10   13   0.345   0.146   0.008
    1UNL    C11   14   0.439   0.052  -0.042
    1UNL     O3   15   0.572   0.092  -0.049
    1UNL    C12   16   0.648   0.001  -0.124
    1UNL    C13   17   0.389  -0.080  -0.062
    1UNL    C14   18   0.259  -0.123  -0.037
    1UNL    C15   19   0.168  -0.023  -0.005
    1UNL    C16   20   0.019  -0.030   0.049
    1UNL    C17   21   0.023  -0.089   0.196
    1UNL    C18   22   0.000  -0.241   0.171
    1UNL     N2   23  -0.076  -0.245   0.041
    1UNL    C19   24  -0.173  -0.340   0.018
    1UNL     O4   25  -0.185  -0.439   0.088
    1UNL    C20   26  -0.278  -0.302  -0.093
    1UNL     O5   27  -0.399  -0.246  -0.050
    1UNL    C21   28  -0.310  -0.154  -0.115
    1UNL    C22   29  -0.080  -0.115  -0.034
    1UNL     H1   30  -0.249  -0.209   0.200
    1UNL     H2   31  -0.417  -0.199   0.132
    1UNL     H3   32  -0.384  -0.122   0.281
    1UNL     H4   33  -0.226   0.046   0.169
    1UNL     H5   34  -0.372   0.048   0.098
    1UNL     H6   35  -0.177   0.072  -0.215
    1UNL     H7   36  -0.315   0.121  -0.115
    1UNL     H8   37  -0.132   0.589   0.065
    1UNL     H9   38  -0.178   0.554  -0.089
    1UNL    H10   39  -0.005   0.592  -0.069
    1UNL    H11   40   0.104   0.282   0.025
    1UNL    H12   41   0.382   0.235   0.052
    1UNL    H13   42   0.753   0.031  -0.147
    1UNL    H14   43   0.652  -0.093  -0.071
    1UNL    H15   44   0.598  -0.017  -0.216
    1UNL    H16   45   0.453  -0.160  -0.094
    1UNL    H17   46   0.228  -0.226  -0.039
    1UNL    H18   47   0.121  -0.083   0.241
    1UNL    H19   48  -0.037  -0.029   0.259
    1UNL    H20   49  -0.052  -0.292   0.244
    1UNL    H21   50   0.089  -0.303   0.150
    1UNL    H22   51  -0.283  -0.366  -0.182
    1UNL    H23   52  -0.336  -0.119  -0.222
    1UNL    H24   53  -0.042  -0.130  -0.138
   0.00000   0.00000   0.00000   0.00000   0.00000   0.00000   0.00000   0.00000   0.00000
Generated with MDTraj, t= 47.0
 53
    1UNL     C1    1  -0.314  -0.186   0.191
    1UNL     C2    2  -0.302  -0.052   0.119
    1UNL     C3    3  -0.230  -0.055  -0.023
    1UNL     C4    4  -0.230   0.090  -0.079
    1UNL     C5    5  -0.128   0.181  -0.015
    1UNL     C6    6  -0.147   0.329  -0.037
    1UNL     O1    7  -0.254   0.357  -0.086
    1UNL     O2    8  -0.045   0.411  -0.007
    1UNL     C7    9  -0.093   0.535  -0.016
    1UNL     C8   10  -0.020   0.128   0.057
    1UNL     N1   11   0.104   0.200   0.071
    1UNL     C9   12   0.203   0.108   0.022
    1UNL    C10   13   0.333   0.144  -0.003
    1UNL    C11   14   0.426   0.049  -0.045
    1UNL     O3   15   0.556   0.085  -0.074
    1UNL    C12   16   0.652  -0.015  -0.096
    1UNL    C13   17   0.389  -0.083  -0.064
    1UNL    C14   18   0.257  -0.116  -0.044
    1UNL    C15   19   0.159  -0.020   0.001
    1UNL    C16   20   0.022  -0.024   0.055
    1UNL    C17   21   0.027  -0.088   0.197
    1UNL    C18   22   0.008  -0.237   0.169
    1UNL     N2   23  -0.073  -0.246   0.038
    1UNL    C19   24  -0.172  -0.335   0.017
    1UNL     O4   25  -0.190  -0.425   0.093
    1UNL    C20   26  -0.268  -0.306  -0.101
    1UNL     O5   27  -0.396  -0.247  -0.063
    1UNL    C21   28  -0.301  -0.155  -0.119
    1UNL    C22   29  -0.088  -0.112  -0.023
    1UNL     H1   30  -0.215  -0.222   0.208
    1UNL     H2   31  -0.370  -0.265   0.126
    1UNL     H3   32  -0.373  -0.188   0.278
    1UNL     H4   33  -0.238   0.015   0.175
    1UNL     H5   34  -0.394   0.009   0.122
    1UNL     H6   35  -0.203   0.090  -0.190
    1UNL     H7   36  -0.330   0.138  -0.080
    1UNL     H8   37  -0.192   0.544   0.028
    1UNL     H9   38  -0.112   0.573  -0.114
    1UNL    H10   39  -0.016   0.611   0.023
    1UNL    H11   40   0.112   0.298   0.073
    1UNL    H12   41   0.380   0.241   0.019
    1UNL    H13   42   0.745   0.022  -0.135
    1UNL    H14   43   0.671  -0.080  -0.011
    1UNL    H15   44   0.616  -0.078  -0.175
    1UNL    H16   45   0.457  -0.151  -0.109
    1UNL    H17   46   0.216  -0.208  -0.082
    1UNL    H18   47   0.121  -0.061   0.244
    1UNL    H19   48  -0.047  -0.056   0.256
    1UNL    H20   49  -0.036  -0.289   0.244
    1UNL    H21   50   0.105  -0.288   0.149
    1UNL    H22   51  -0.264  -0.364  -0.190
    1UNL    H23   52  -0.323  -0.123  -0.220
    1UNL    H24   53  -0.057  -0.129  -0.130
   0.00000   0.00000   0.00000   0.00000   0.00000   0.00000   0.00000   0.00000   0.00000
Generated with MDTraj, t= 48.0
 53
    1UNL     C1    1  -0.335  -0.178   0.193
    1UNL     C2    2  -0.314  -0.045   0.114
    1UNL     C3    3  -0.229  -0.061  -0.016
    1UNL     C4    4  -0.226   0.082  -0.078
    1UNL     C5    5  -0.141   0.178   0.001
    1UNL     C6    6  -0.157   0.323  -0.022
    1UNL     O1    7  -0.238   0.362  -0.101
    1UNL     O2    8  -0.063   0.411   0.038
    1UNL     C7    9  -0.064   0.535  -0.024
    1UNL     C8   10  -0.024   0.133   0.060
    1UNL     N1   11   0.099   0.196   0.048
    1UNL     C9   12   0.211   0.120   0.014
    1UNL    C10   13   0.341   0.150  -0.028
    1UNL    C11   14   0.428   0.052  -0.075
    1UNL     O3   15   0.566   0.080  -0.101
    1UNL    C12   16   0.650  -0.029  -0.070
    1UNL    C13   17   0.373  -0.079  -0.066
    1UNL    C14   18   0.247  -0.106  -0.041
    1UNL    C15   19   0.159  -0.010   0.014
    1UNL    C16   20   0.012  -0.017   0.060
    1UNL    C17   21   0.011  -0.083   0.203
    1UNL    C18   22  -0.007  -0.233   0.178
    1UNL     N2   23  -0.071  -0.242   0.043
    1UNL    C19   24  -0.161  -0.339   0.014
    1UNL     O4   25  -0.167  -0.447   0.068
    1UNL    C20   26  -0.258  -0.308  -0.099
    1UNL     O5   27  -0.383  -0.255  -0.057
    1UNL    C21   28  -0.304  -0.160  -0.116
    1UNL    C22   29  -0.079  -0.107  -0.016
    1UNL     H1   30  -0.235  -0.217   0.208
    1UNL     H2   31  -0.387  -0.243   0.128
    1UNL     H3   32  -0.398  -0.172   0.282
    1UNL     H4   33  -0.267   0.023   0.182
    1UNL     H5   34  -0.410   0.005   0.095
    1UNL     H6   35  -0.199   0.078  -0.186
    1UNL     H7   36  -0.332   0.118  -0.078
    1UNL     H8   37  -0.160   0.578  -0.044
    1UNL     H9   38  -0.018   0.528  -0.120
    1UNL    H10   39   0.003   0.613   0.024
    1UNL    H11   40   0.102   0.294   0.054
    1UNL    H12   41   0.372   0.250  -0.020
    1UNL    H13   42   0.749   0.002  -0.053
    1UNL    H14   43   0.615  -0.101   0.006
    1UNL    H15   44   0.656  -0.089  -0.161
    1UNL    H16   45   0.434  -0.164  -0.105
    1UNL    H17   46   0.213  -0.205  -0.073
    1UNL    H18   47   0.102  -0.055   0.249
    1UNL    H19   48  -0.077  -0.046   0.257
    1UNL    H20   49  -0.065  -0.291   0.242
    1UNL    H21   50   0.094  -0.277   0.169
    1UNL    H22   51  -0.252  -0.373  -0.181
    1UNL    H23   52  -0.329  -0.134  -0.212
    1UNL    H24   53  -0.029  -0.113  -0.118
   0.00000   0.00000   0.00000   0.00000   0.00000   0.00000   0.00000   0.00000   0.00000
Generated with MDTraj, t= 49.0
 53
    1UNL     C1    1  -0.349  -0.163   0.186
    1UNL     C2    2  -0.292  -0.042   0.127
    1UNL     C3    3  -0.226  -0.055  -0.019
    1UNL     C4    4  -0.221   0.092  -0.081
    1UNL     C5    5  -0.134   0.183  -0.008
    1UNL     C6    6  -0.153   0.326  -0.033
    1UNL     O1    7  -0.230   0.368  -0.115
    1UNL     O2    8  -0.059   0.406   0.024
    1UNL     C7    9  -0.093   0.544   0.012
    1UNL     C8   10  -0.025   0.132   0.051
    1UNL     N1   11   0.097   0.203   0.048
    1UNL     C9   12   0.202   0.113   0.011
    1UNL    C10   13   0.330   0.146  -0.022
    1UNL    C11   14   0.417   0.041  -0.056
    1UNL     O3   15   0.545   0.069  -0.097
    1UNL    C12   16   0.654  -0.020  -0.090
    1UNL    C13   17   0.374  -0.093  -0.064
    1UNL    C14   18   0.235  -0.121  -0.043
    1UNL    C15   19   0.152  -0.018   0.001
    1UNL    C16   20   0.015  -0.016   0.062
    1UNL    C17   21   0.025  -0.079   0.211
    1UNL    C18   22  -0.009  -0.229   0.190
    1UNL     N2   23  -0.066  -0.244   0.054
    1UNL    C19   24  -0.153  -0.347   0.017
    1UNL     O4   25  -0.152  -0.460   0.066
    1UNL    C20   26  -0.247  -0.303  -0.102
    1UNL     O5   27  -0.377  -0.256  -0.063
    1UNL    C21   28  -0.300  -0.152  -0.122
    1UNL    C22   29  -0.079  -0.108  -0.014
    1UNL     H1   30  -0.284  -0.251   0.189
    1UNL     H2   31  -0.429  -0.193   0.135
    1UNL     H3   32  -0.398  -0.158   0.284
    1UNL     H4   33  -0.229   0.016   0.190
    1UNL     H5   34  -0.374   0.028   0.106
    1UNL     H6   35  -0.189   0.082  -0.185
    1UNL     H7   36  -0.328   0.133  -0.086
    1UNL     H8   37  -0.193   0.572   0.034
    1UNL     H9   38  -0.081   0.571  -0.090
    1UNL    H10   39  -0.027   0.616   0.067
    1UNL    H11   40   0.096   0.291  -0.004
    1UNL    H12   41   0.376   0.241   0.009
    1UNL    H13   42   0.740   0.028  -0.120
    1UNL    H14   43   0.658  -0.071   0.010
    1UNL    H15   44   0.638  -0.104  -0.161
    1UNL    H16   45   0.452  -0.165  -0.066
    1UNL    H17   46   0.189  -0.214  -0.063
    1UNL    H18   47   0.120  -0.057   0.245
    1UNL    H19   48  -0.058  -0.045   0.287
    1UNL    H20   49  -0.081  -0.278   0.253
    1UNL    H21   50   0.078  -0.293   0.193
    1UNL    H22   51  -0.259  -0.378  -0.179
    1UNL    H23   52  -0.348  -0.108  -0.205
    1UNL    H24   53  -0.035  -0.128  -0.116
   0.00000   0.00000   0.00000   0.00000   0.00000   0.00000   0.00000   0.00000   0.00000
Generated with MDTraj, t= 50.0
 53
    1UNL     C1    1  -0.342  -0.173   0.181
    1UNL     C2    2  -0.303  -0.044   0.106
    1UNL     C3    3  -0.220  -0.057  -0.024
    1UNL     C4    4  -0.220   0.081  -0.092
    1UNL     C5    5  -0.126   0.175  -0.015
    1UNL     C6    6  -0.158   0.317  -0.028
    1UNL     O1    7  -0.250   0.348  -0.102
    1UNL     O2    8  -0.070   0.409   0.032
    1UNL     C7    9  -0.121   0.532   0.017
    1UNL     C8   10  -0.009   0.128   0.038
    1UNL     N1   11   0.108   0.201   0.051
    1UNL     C9   12   0.218   0.116   0.018
    1UNL    C10   13   0.352   0.143  -0.007
    1UNL    C11   14   0.439   0.040  -0.047
    1UNL     O3   15   0.570   0.075  -0.095
    1UNL    C12   16   0.647  -0.041  -0.127
    1UNL    C13   17   0.383  -0.086  -0.052
    1UNL    C14   18   0.249  -0.109  -0.027
    1UNL    C15   19   0.167  -0.013   0.013
    1UNL    C16   20   0.020  -0.014   0.061
    1UNL    C17   21   0.013  -0.071   0.206
    1UNL    C18   22  -0.011  -0.220   0.185
    1UNL     N2   23  -0.072  -0.237   0.050
    1UNL    C19   24  -0.165  -0.333   0.018
    1UNL     O4   25  -0.174  -0.434   0.082
    1UNL    C20   26  -0.261  -0.304  -0.096
    1UNL     O5   27  -0.389  -0.246  -0.067
    1UNL    C21   28  -0.290  -0.156  -0.115
    1UNL    C22   29  -0.077  -0.108  -0.024
    1UNL     H1   30  -0.260  -0.237   0.193
    1UNL     H2   31  -0.419  -0.222   0.123
    1UNL     H3   32  -0.394  -0.146   0.274
    1UNL     H4   33  -0.256   0.024   0.173
    1UNL     H5   34  -0.401  -0.000   0.081
    1UNL     H6   35  -0.189   0.066  -0.194
    1UNL     H7   36  -0.329   0.121  -0.097
    1UNL     H8   37  -0.210   0.553   0.075
    1UNL     H9   38  -0.143   0.546  -0.088
    1UNL    H10   39  -0.047   0.608   0.048
    1UNL    H11   40   0.109   0.306   0.034
    1UNL    H12   41   0.387   0.245  -0.013
    1UNL    H13   42   0.746  -0.009  -0.129
    1UNL    H14   43   0.625  -0.124  -0.051
    1UNL    H15   44   0.625  -0.085  -0.229
    1UNL    H16   45   0.427  -0.164  -0.114
    1UNL    H17   46   0.216  -0.211  -0.036
    1UNL    H18   47   0.104  -0.052   0.262
    1UNL    H19   48  -0.074  -0.021   0.261
    1UNL    H20   49  -0.063  -0.276   0.265
    1UNL    H21   50   0.080  -0.270   0.183
    1UNL    H22   51  -0.254  -0.362  -0.193
    1UNL    H23   52  -0.303  -0.108  -0.217
    1UNL    H24   53  -0.034  -0.123  -0.127
   0.00000   0.00000   0.00000   0.00000   0.00000   0.00000   0.00000   0.00000   0.00000
Generated with MDTraj, t= 51.0
 53
    1UNL     C1    1  -0.327  -0.148   0.177
    1UNL     C2    2  -0.307  -0.027   0.084
    1UNL     C3    3  -0.226  -0.056  -0.043
    1UNL     C4    4  -0.201   0.084  -0.111
    1UNL     C5    5  -0.117   0.176  -0.024
    1UNL     C6    6  -0.156   0.316  -0.020
    1UNL     O1    7  -0.263   0.350  -0.065
    1UNL     O2    8  -0.070   0.415   0.036
    1UNL     C7    9  -0.120   0.540   0.013
    1UNL     C8   10  -0.014   0.128   0.055
    1UNL     N1   11   0.106   0.196   0.050
    1UNL     C9   12   0.211   0.114   0.013
    1UNL    C10   13   0.346   0.141  -0.017
    1UNL    C11   14   0.432   0.037  -0.042
    1UNL     O3   15   0.565   0.068  -0.061
    1UNL    C12   16   0.634  -0.013  -0.155
    1UNL    C13   17   0.392  -0.094  -0.048
    1UNL    C14   18   0.255  -0.118  -0.022
    1UNL    C15   19   0.161  -0.017  -0.002
    1UNL    C16   20   0.019  -0.017   0.057
    1UNL    C17   21   0.016  -0.083   0.201
    1UNL    C18   22   0.008  -0.234   0.179
    1UNL     N2   23  -0.068  -0.248   0.052
    1UNL    C19   24  -0.172  -0.334   0.031
    1UNL     O4   25  -0.206  -0.412   0.116
    1UNL    C20   26  -0.252  -0.316  -0.095
    1UNL     O5   27  -0.379  -0.257  -0.082
    1UNL    C21   28  -0.289  -0.166  -0.130
    1UNL    C22   29  -0.076  -0.116  -0.019
    1UNL     H1   30  -0.235  -0.187   0.211
    1UNL     H2   31  -0.384  -0.234   0.125
    1UNL     H3   32  -0.386  -0.122   0.262
    1UNL     H4   33  -0.245   0.047   0.133
    1UNL     H5   34  -0.403   0.022   0.060
    1UNL     H6   35  -0.148   0.067  -0.203
    1UNL     H7   36  -0.303   0.131  -0.135
    1UNL     H8   37  -0.223   0.551   0.055
    1UNL     H9   38  -0.121   0.561  -0.096
    1UNL    H10   39  -0.070   0.621   0.069
    1UNL    H11   40   0.111   0.294   0.007
    1UNL    H12   41   0.377   0.241  -0.030
    1UNL    H13   42   0.698   0.056  -0.199
    1UNL    H14   43   0.693  -0.093  -0.097
    1UNL    H15   44   0.571  -0.061  -0.236
    1UNL    H16   45   0.465  -0.173  -0.075
    1UNL    H17   46   0.220  -0.221  -0.008
    1UNL    H18   47   0.112  -0.058   0.263
    1UNL    H19   48  -0.070  -0.034   0.249
    1UNL    H20   49  -0.041  -0.286   0.266
    1UNL    H21   50   0.094  -0.288   0.173
    1UNL    H22   51  -0.260  -0.402  -0.173
    1UNL    H23   52  -0.303  -0.136  -0.242
    1UNL    H24   53  -0.028  -0.140  -0.118
   0.00000   0.00000   0.00000   0.00000   0.00000   0.00000   0.00000   0.00000   0.00000
Generated with MDTraj, t= 52.0
 53
    1UNL     C1    1  -0.347  -0.158   0.173
    1UNL     C2    2  -0.293  -0.037   0.096
    1UNL     C3    3  -0.218  -0.061  -0.037
    1UNL     C4    4  -0.203   0.076  -0.111
    1UNL     C5    5  -0.117   0.167  -0.042
    1UNL     C6    6  -0.153   0.309  -0.034
    1UNL     O1    7  -0.265   0.345  -0.065
    1UNL     O2    8  -0.060   0.394   0.016
    1UNL     C7    9  -0.103   0.528   0.028
    1UNL     C8   10  -0.010   0.126   0.021
    1UNL     N1   11   0.115   0.189   0.047
    1UNL     C9   12   0.223   0.102   0.035
    1UNL    C10   13   0.354   0.148   0.020
    1UNL    C11   14   0.440   0.054  -0.039
    1UNL     O3   15   0.567   0.087  -0.080
    1UNL    C12   16   0.641   0.001  -0.167
    1UNL    C13   17   0.392  -0.077  -0.061
    1UNL    C14   18   0.261  -0.118  -0.024
    1UNL    C15   19   0.172  -0.022   0.014
    1UNL    C16   20   0.022  -0.016   0.054
    1UNL    C17   21   0.010  -0.070   0.206
    1UNL    C18   22  -0.019  -0.222   0.190
    1UNL     N2   23  -0.079  -0.247   0.056
    1UNL    C19   24  -0.185  -0.336   0.036
    1UNL     O4   25  -0.212  -0.429   0.111
    1UNL    C20   26  -0.270  -0.311  -0.088
    1UNL     O5   27  -0.395  -0.239  -0.075
    1UNL    C21   28  -0.285  -0.164  -0.131
    1UNL    C22   29  -0.072  -0.114  -0.019
    1UNL     H1   30  -0.269  -0.216   0.231
    1UNL     H2   31  -0.397  -0.239   0.108
    1UNL     H3   32  -0.418  -0.132   0.244
    1UNL     H4   33  -0.245   0.033   0.161
    1UNL     H5   34  -0.379   0.020   0.057
    1UNL     H6   35  -0.167   0.049  -0.212
    1UNL     H7   36  -0.299   0.133  -0.115
    1UNL     H8   37  -0.185   0.533   0.103
    1UNL     H9   38  -0.140   0.567  -0.071
    1UNL    H10   39  -0.028   0.596   0.068
    1UNL    H11   40   0.122   0.292   0.044
    1UNL    H12   41   0.364   0.259   0.035
    1UNL    H13   42   0.731   0.054  -0.177
    1UNL    H14   43   0.657  -0.099  -0.114
    1UNL    H15   44   0.591  -0.012  -0.267
    1UNL    H16   45   0.459  -0.150  -0.089
    1UNL    H17   46   0.232  -0.217  -0.038
    1UNL    H18   47   0.122  -0.062   0.250
    1UNL    H19   48  -0.060  -0.012   0.265
    1UNL    H20   49  -0.084  -0.262   0.270
    1UNL    H21   50   0.066  -0.280   0.190
    1UNL    H22   51  -0.251  -0.392  -0.166
    1UNL    H23   52  -0.296  -0.132  -0.241
    1UNL    H24   53  -0.032  -0.128  -0.123
   0.00000   0.00000   0.00000   0.00000   0.00000   0.00000   0.00000   0.00000   0.00000
Generated with MDTraj, t= 53.0
 53
    1UNL     C1    1  -0.362  -0.138   0.174
    1UNL     C2    2  -0.308  -0.021   0.092
    1UNL     C3    3  -0.222  -0.060  -0.029
    1UNL     C4    4  -0.198   0.077  -0.105
    1UNL     C5    5  -0.122   0.167  -0.019
    1UNL     C6    6  -0.146   0.314  -0.035
    1UNL     O1    7  -0.242   0.351  -0.099
    1UNL     O2    8  -0.063   0.406   0.030
    1UNL     C7    9  -0.094   0.536   0.010
    1UNL     C8   10  -0.019   0.121   0.057
    1UNL     N1   11   0.096   0.194   0.074
    1UNL     C9   12   0.204   0.113   0.021
    1UNL    C10   13   0.342   0.137  -0.008
    1UNL    C11   14   0.432   0.043  -0.054
    1UNL     O3   15   0.563   0.094  -0.076
    1UNL    C12   16   0.645   0.011  -0.153
    1UNL    C13   17   0.386  -0.090  -0.066
    1UNL    C14   18   0.254  -0.107  -0.034
    1UNL    C15   19   0.165  -0.017   0.012
    1UNL    C16   20   0.023  -0.027   0.064
    1UNL    C17   21   0.034  -0.097   0.204
    1UNL    C18   22  -0.015  -0.239   0.190
    1UNL     N2   23  -0.077  -0.249   0.055
    1UNL    C19   24  -0.174  -0.342   0.029
    1UNL     O4   25  -0.193  -0.435   0.103
    1UNL    C20   26  -0.260  -0.307  -0.092
    1UNL     O5   27  -0.383  -0.251  -0.070
    1UNL    C21   28  -0.289  -0.159  -0.124
    1UNL    C22   29  -0.077  -0.121  -0.014
    1UNL     H1   30  -0.273  -0.191   0.219
    1UNL     H2   31  -0.420  -0.209   0.110
    1UNL     H3   32  -0.424  -0.099   0.253
    1UNL     H4   33  -0.267   0.055   0.157
    1UNL     H5   34  -0.396   0.023   0.044
    1UNL     H6   35  -0.135   0.069  -0.198
    1UNL     H7   36  -0.296   0.118  -0.131
    1UNL     H8   37  -0.171   0.559   0.087
    1UNL     H9   38  -0.130   0.553  -0.096
    1UNL    H10   39  -0.007   0.592   0.034
    1UNL    H11   40   0.093   0.293   0.065
    1UNL    H12   41   0.374   0.235  -0.005
    1UNL    H13   42   0.724   0.074  -0.180
    1UNL    H14   43   0.686  -0.066  -0.081
    1UNL    H15   44   0.593  -0.031  -0.242
    1UNL    H16   45   0.444  -0.181  -0.100
    1UNL    H17   46   0.215  -0.211  -0.045
    1UNL    H18   47   0.145  -0.099   0.228
    1UNL    H19   48  -0.023  -0.046   0.287
    1UNL    H20   49  -0.095  -0.266   0.260
    1UNL    H21   50   0.063  -0.311   0.199
    1UNL    H22   51  -0.279  -0.390  -0.160
    1UNL    H23   52  -0.316  -0.134  -0.226
    1UNL    H24   53  -0.040  -0.140  -0.118
   0.00000   0.00000   0.00000   0.00000   0.00000   0.00000   0.00000   0.00000   0.00000
Generated with MDTraj, t= 54.0
 53
    1UNL     C1    1  -0.327  -0.178   0.183
    1UNL     C2    2  -0.304  -0.050   0.103
    1UNL     C3    3  -0.225  -0.059  -0.031
    1UNL     C4    4  -0.221   0.090  -0.088
    1UNL     C5    5  -0.128   0.177  -0.009
    1UNL     C6    6  -0.150   0.321  -0.043
    1UNL     O1    7  -0.224   0.362  -0.130
    1UNL     O2    8  -0.071   0.406   0.034
    1UNL     C7    9  -0.079   0.539  -0.003
    1UNL     C8   10  -0.016   0.124   0.059
    1UNL     N1   11   0.105   0.197   0.078
    1UNL     C9   12   0.214   0.120   0.042
    1UNL    C10   13   0.342   0.150  -0.000
    1UNL    C11   14   0.426   0.053  -0.055
    1UNL     O3   15   0.552   0.082  -0.094
    1UNL    C12   16   0.643  -0.022  -0.142
    1UNL    C13   17   0.373  -0.074  -0.072
    1UNL    C14   18   0.239  -0.107  -0.036
    1UNL    C15   19   0.164  -0.012   0.027
    1UNL    C16   20   0.016  -0.022   0.065
    1UNL    C17   21   0.016  -0.086   0.209
    1UNL    C18   22  -0.015  -0.238   0.188
    1UNL     N2   23  -0.070  -0.247   0.042
    1UNL    C19   24  -0.169  -0.341   0.018
    1UNL     O4   25  -0.187  -0.433   0.093
    1UNL    C20   26  -0.259  -0.316  -0.094
    1UNL     O5   27  -0.386  -0.250  -0.068
    1UNL    C21   28  -0.296  -0.160  -0.121
    1UNL    C22   29  -0.079  -0.113  -0.017
    1UNL     H1   30  -0.241  -0.238   0.185
    1UNL     H2   31  -0.408  -0.248   0.160
    1UNL     H3   32  -0.337  -0.146   0.294
    1UNL     H4   33  -0.244   0.025   0.155
    1UNL     H5   34  -0.393   0.008   0.084
    1UNL     H6   35  -0.174   0.086  -0.192
    1UNL     H7   36  -0.312   0.144  -0.100
    1UNL     H8   37  -0.182   0.544  -0.043
    1UNL     H9   38  -0.007   0.557  -0.084
    1UNL    H10   39  -0.068   0.600   0.080
    1UNL    H11   40   0.113   0.293   0.057
    1UNL    H12   41   0.389   0.245   0.028
    1UNL    H13   42   0.736   0.028  -0.154
    1UNL    H14   43   0.658  -0.092  -0.058
    1UNL    H15   44   0.607  -0.070  -0.233
    1UNL    H16   45   0.438  -0.155  -0.088
    1UNL    H17   46   0.198  -0.202  -0.056
    1UNL    H18   47   0.105  -0.075   0.263
    1UNL    H19   48  -0.066  -0.032   0.273
    1UNL    H20   49  -0.084  -0.275   0.259
    1UNL    H21   50   0.076  -0.299   0.207
    1UNL    H22   51  -0.256  -0.385  -0.174
    1UNL    H23   52  -0.314  -0.116  -0.212
    1UNL    H24   53  -0.034  -0.125  -0.118
   0.00000   0.00000   0.00000   0.00000   0.00000   0.00000   0.00000   0.00000   0.00000
Generated with MDTraj, t= 55.0
 53
    1UNL     C1    1  -0.345  -0.176   0.189
    1UNL     C2    2  -0.306  -0.044   0.114
    1UNL     C3    3  -0.227  -0.059  -0.012
    1UNL     C4    4  -0.229   0.090  -0.070
    1UNL     C5    5  -0.133   0.184  -0.001
    1UNL     C6    6  -0.142   0.319  -0.044
    1UNL     O1    7  -0.213   0.361  -0.132
    1UNL     O2    8  -0.059   0.408   0.023
    1UNL     C7    9  -0.083   0.546  -0.005
    1UNL     C8   10  -0.026   0.139   0.068
    1UNL     N1   11   0.102   0.200   0.063
    1UNL     C9   12   0.207   0.116   0.021
    1UNL    C10   13   0.332   0.145  -0.014
    1UNL    C11   14   0.420   0.044  -0.054
    1UNL     O3   15   0.549   0.084  -0.087
    1UNL    C12   16   0.635  -0.026  -0.125
    1UNL    C13   17   0.373  -0.085  -0.060
    1UNL    C14   18   0.239  -0.113  -0.040
    1UNL    C15   19   0.159  -0.015   0.019
    1UNL    C16   20   0.012  -0.013   0.076
    1UNL    C17   21   0.023  -0.091   0.207
    1UNL    C18   22  -0.002  -0.240   0.180
    1UNL     N2   23  -0.070  -0.243   0.047
    1UNL    C19   24  -0.159  -0.342   0.009
    1UNL     O4   25  -0.162  -0.445   0.071
    1UNL    C20   26  -0.256  -0.309  -0.105
    1UNL     O5   27  -0.386  -0.254  -0.066
    1UNL    C21   28  -0.293  -0.162  -0.115
    1UNL    C22   29  -0.081  -0.103  -0.009
    1UNL     H1   30  -0.250  -0.211   0.228
    1UNL     H2   31  -0.388  -0.254   0.129
    1UNL     H3   32  -0.413  -0.147   0.281
    1UNL     H4   33  -0.262   0.030   0.181
    1UNL     H5   34  -0.403  -0.003   0.090
    1UNL     H6   35  -0.204   0.095  -0.180
    1UNL     H7   36  -0.325   0.133  -0.066
    1UNL     H8   37  -0.159   0.535  -0.084
    1UNL     H9   38   0.009   0.585  -0.052
    1UNL    H10   39  -0.110   0.594   0.081
    1UNL    H11   40   0.096   0.295   0.027
    1UNL    H12   41   0.378   0.241  -0.005
    1UNL    H13   42   0.735   0.015  -0.125
    1UNL    H14   43   0.639  -0.097  -0.042
    1UNL    H15   44   0.603  -0.061  -0.221
    1UNL    H16   45   0.438  -0.165  -0.095
    1UNL    H17   46   0.204  -0.215  -0.045
    1UNL    H18   47   0.117  -0.075   0.249
    1UNL    H19   48  -0.050  -0.054   0.286
    1UNL    H20   49  -0.054  -0.286   0.256
    1UNL    H21   50   0.096  -0.295   0.162
    1UNL    H22   51  -0.240  -0.343  -0.203
    1UNL    H23   52  -0.333  -0.119  -0.204
    1UNL    H24   53  -0.045  -0.110  -0.112
   0.00000   0.00000   0.00000   0.00000   0.00000   0.00000   0.00000   0.00000   0.00000
Generated with MDTraj, t= 56.0
 53
    1UNL     C1    1  -0.344  -0.167   0.185
    1UNL     C2    2  -0.284  -0.042   0.124
    1UNL     C3    3  -0.227  -0.058  -0.022
    1UNL     C4    4  -0.224   0.085  -0.082
    1UNL     C5    5  -0.136   0.181  -0.007
    1UNL     C6    6  -0.154   0.325  -0.029
    1UNL     O1    7  -0.246   0.359  -0.098
    1UNL     O2    8  -0.064   0.412   0.025
    1UNL     C7    9  -0.079   0.541  -0.019
    1UNL     C8   10  -0.019   0.138   0.049
    1UNL     N1   11   0.106   0.201   0.050
    1UNL     C9   12   0.212   0.112   0.022
    1UNL    C10   13   0.344   0.140  -0.002
    1UNL    C11   14   0.430   0.041  -0.045
    1UNL     O3   15   0.552   0.084  -0.090
    1UNL    C12   16   0.638  -0.023  -0.116
    1UNL    C13   17   0.378  -0.093  -0.060
    1UNL    C14   18   0.250  -0.118  -0.033
    1UNL    C15   19   0.161  -0.017   0.014
    1UNL    C16   20   0.016  -0.014   0.062
    1UNL    C17   21   0.013  -0.078   0.201
    1UNL    C18   22  -0.012  -0.233   0.189
    1UNL     N2   23  -0.069  -0.239   0.055
    1UNL    C19   24  -0.154  -0.335   0.011
    1UNL     O4   25  -0.162  -0.447   0.056
    1UNL    C20   26  -0.266  -0.309  -0.102
    1UNL     O5   27  -0.390  -0.258  -0.058
    1UNL    C21   28  -0.300  -0.160  -0.120
    1UNL    C22   29  -0.079  -0.107  -0.016
    1UNL     H1   30  -0.260  -0.248   0.197
    1UNL     H2   31  -0.418  -0.222   0.126
    1UNL     H3   32  -0.385  -0.161   0.289
    1UNL     H4   33  -0.229   0.019   0.198
    1UNL     H5   34  -0.368   0.021   0.104
    1UNL     H6   35  -0.204   0.080  -0.193
    1UNL     H7   36  -0.322   0.126  -0.080
    1UNL     H8   37  -0.122   0.518  -0.121
    1UNL     H9   38   0.024   0.580  -0.034
    1UNL    H10   39  -0.138   0.593   0.048
    1UNL    H11   40   0.113   0.304   0.028
    1UNL    H12   41   0.383   0.240   0.006
    1UNL    H13   42   0.740   0.015  -0.133
    1UNL    H14   43   0.645  -0.081  -0.025
    1UNL    H15   44   0.590  -0.067  -0.203
    1UNL    H16   45   0.446  -0.169  -0.094
    1UNL    H17   46   0.210  -0.216  -0.047
    1UNL    H18   47   0.105  -0.055   0.250
    1UNL    H19   48  -0.053  -0.044   0.273
    1UNL    H20   49  -0.079  -0.271   0.257
    1UNL    H21   50   0.076  -0.304   0.185
    1UNL    H22   51  -0.279  -0.392  -0.166
    1UNL    H23   52  -0.330  -0.113  -0.221
    1UNL    H24   53  -0.051  -0.119  -0.120
   0.00000   0.00000   0.00000   0.00000   0.00000   0.00000   0.00000   0.00000   0.00000
Generated with MDTraj, t= 57.0
 53
    1UNL     C1    1  -0.348  -0.164   0.179
    1UNL     C2    2  -0.301  -0.043   0.103
    1UNL     C3    3  -0.227  -0.058  -0.029
    1UNL     C4    4  -0.219   0.086  -0.091
    1UNL     C5    5  -0.122   0.172  -0.015
    1UNL     C6    6  -0.154   0.319  -0.023
    1UNL     O1    7  -0.269   0.351  -0.050
    1UNL     O2    8  -0.047   0.412  -0.011
    1UNL     C7    9  -0.095   0.544  -0.006
    1UNL     C8   10  -0.009   0.128   0.057
    1UNL     N1   11   0.111   0.198   0.048
    1UNL     C9   12   0.214   0.112   0.009
    1UNL    C10   13   0.344   0.150  -0.013
    1UNL    C11   14   0.434   0.052  -0.048
    1UNL     O3   15   0.566   0.077  -0.068
    1UNL    C12   16   0.645  -0.027  -0.119
    1UNL    C13   17   0.382  -0.080  -0.059
    1UNL    C14   18   0.254  -0.119  -0.035
    1UNL    C15   19   0.162  -0.017   0.008
    1UNL    C16   20   0.021  -0.019   0.059
    1UNL    C17   21   0.015  -0.071   0.206
    1UNL    C18   22   0.003  -0.228   0.175
    1UNL     N2   23  -0.076  -0.243   0.044
    1UNL    C19   24  -0.174  -0.339   0.021
    1UNL     O4   25  -0.185  -0.441   0.085
    1UNL    C20   26  -0.263  -0.310  -0.100
    1UNL     O5   27  -0.389  -0.261  -0.063
    1UNL    C21   28  -0.304  -0.157  -0.111
    1UNL    C22   29  -0.073  -0.110  -0.019
    1UNL     H1   30  -0.263  -0.234   0.207
    1UNL     H2   31  -0.417  -0.237   0.120
    1UNL     H3   32  -0.393  -0.138   0.276
    1UNL     H4   33  -0.248   0.028   0.169
    1UNL     H5   34  -0.388   0.016   0.081
    1UNL     H6   35  -0.185   0.081  -0.194
    1UNL     H7   36  -0.316   0.131  -0.104
    1UNL     H8   37  -0.072   0.576  -0.114
    1UNL     H9   38  -0.035   0.603   0.068
    1UNL    H10   39  -0.198   0.541   0.016
    1UNL    H11   40   0.115   0.302   0.022
    1UNL    H12   41   0.372   0.254  -0.001
    1UNL    H13   42   0.749   0.010  -0.136
    1UNL    H14   43   0.652  -0.104  -0.043
    1UNL    H15   44   0.590  -0.047  -0.210
    1UNL    H16   45   0.453  -0.162  -0.067
    1UNL    H17   46   0.210  -0.220  -0.041
    1UNL    H18   47   0.100  -0.048   0.267
    1UNL    H19   48  -0.060  -0.025   0.257
    1UNL    H20   49  -0.046  -0.288   0.246
    1UNL    H21   50   0.105  -0.270   0.159
    1UNL    H22   51  -0.262  -0.363  -0.198
    1UNL    H23   52  -0.339  -0.131  -0.220
    1UNL    H24   53  -0.034  -0.123  -0.118
   0.00000   0.00000   0.00000   0.00000   0.00000   0.00000   0.00000   0.00000   0.00000
Generated with MDTraj, t= 58.0
 53
    1UNL     C1    1  -0.331  -0.163   0.183
    1UNL     C2    2  -0.308  -0.039   0.094
    1UNL     C3    3  -0.221  -0.056  -0.039
    1UNL     C4    4  -0.213   0.086  -0.097
    1UNL     C5    5  -0.132   0.170  -0.007
    1UNL     C6    6  -0.162   0.312  -0.006
    1UNL     O1    7  -0.271   0.343  -0.050
    1UNL     O2    8  -0.064   0.409   0.014
    1UNL     C7    9  -0.108   0.545  -0.005
    1UNL     C8   10  -0.012   0.128   0.033
    1UNL     N1   11   0.106   0.198   0.054
    1UNL     C9   12   0.214   0.112   0.013
    1UNL    C10   13   0.346   0.141  -0.006
    1UNL    C11   14   0.436   0.037  -0.050
    1UNL     O3   15   0.568   0.081  -0.074
    1UNL    C12   16   0.656  -0.022  -0.113
    1UNL    C13   17   0.392  -0.094  -0.059
    1UNL    C14   18   0.259  -0.120  -0.039
    1UNL    C15   19   0.167  -0.020  -0.006
    1UNL    C16   20   0.022  -0.018   0.044
    1UNL    C17   21   0.019  -0.078   0.192
    1UNL    C18   22   0.007  -0.225   0.176
    1UNL     N2   23  -0.071  -0.244   0.047
    1UNL    C19   24  -0.177  -0.331   0.030
    1UNL     O4   25  -0.203  -0.417   0.111
    1UNL    C20   26  -0.260  -0.304  -0.094
    1UNL     O5   27  -0.388  -0.243  -0.068
    1UNL    C21   28  -0.297  -0.161  -0.129
    1UNL    C22   29  -0.074  -0.119  -0.028
    1UNL     H1   30  -0.241  -0.205   0.217
    1UNL     H2   31  -0.384  -0.245   0.115
    1UNL     H3   32  -0.390  -0.132   0.273
    1UNL     H4   33  -0.247   0.033   0.151
    1UNL     H5   34  -0.400   0.015   0.078
    1UNL     H6   35  -0.170   0.090  -0.193
    1UNL     H7   36  -0.309   0.138  -0.108
    1UNL     H8   37  -0.153   0.543  -0.110
    1UNL     H9   38  -0.016   0.610  -0.004
    1UNL    H10   39  -0.178   0.575   0.068
    1UNL    H11   40   0.105   0.297   0.016
    1UNL    H12   41   0.401   0.233  -0.011
    1UNL    H13   42   0.759   0.026  -0.133
    1UNL    H14   43   0.673  -0.091  -0.033
    1UNL    H15   44   0.609  -0.059  -0.205
    1UNL    H16   45   0.453  -0.179  -0.080
    1UNL    H17   46   0.229  -0.222  -0.036
    1UNL    H18   47   0.096  -0.050   0.257
    1UNL    H19   48  -0.078  -0.048   0.236
    1UNL    H20   49  -0.041  -0.276   0.264
    1UNL    H21   50   0.111  -0.254   0.161
    1UNL    H22   51  -0.265  -0.399  -0.161
    1UNL    H23   52  -0.301  -0.119  -0.234
    1UNL    H24   53  -0.051  -0.151  -0.128
   0.00000   0.00000   0.00000   0.00000   0.00000   0.00000   0.00000   0.00000   0.00000
Generated with MDTraj, t= 59.0
 53
    1UNL     C1    1  -0.335  -0.151   0.188
    1UNL     C2    2  -0.286  -0.032   0.109
    1UNL     C3    3  -0.213  -0.058  -0.033
    1UNL     C4    4  -0.210   0.077  -0.098
    1UNL     C5    5  -0.130   0.172  -0.019
    1UNL     C6    6  -0.162   0.314  -0.033
    1UNL     O1    7  -0.260   0.349  -0.097
    1UNL     O2    8  -0.070   0.406   0.020
    1UNL     C7    9  -0.113   0.534   0.039
    1UNL     C8   10  -0.018   0.122   0.043
    1UNL     N1   11   0.100   0.196   0.043
    1UNL     C9   12   0.215   0.116   0.015
    1UNL    C10   13   0.346   0.149  -0.011
    1UNL    C11   14   0.439   0.050  -0.042
    1UNL     O3   15   0.564   0.080  -0.084
    1UNL    C12   16   0.655  -0.031  -0.108
    1UNL    C13   17   0.385  -0.083  -0.063
    1UNL    C14   18   0.253  -0.116  -0.033
    1UNL    C15   19   0.169  -0.019  -0.002
    1UNL    C16   20   0.020  -0.020   0.047
    1UNL    C17   21   0.029  -0.077   0.189
    1UNL    C18   22   0.001  -0.230   0.178
    1UNL     N2   23  -0.075  -0.247   0.053
    1UNL    C19   24  -0.180  -0.342   0.029
    1UNL     O4   25  -0.207  -0.433   0.103
    1UNL    C20   26  -0.260  -0.308  -0.090
    1UNL     O5   27  -0.387  -0.238  -0.062
    1UNL    C21   28  -0.291  -0.153  -0.128
    1UNL    C22   29  -0.069  -0.119  -0.029
    1UNL     H1   30  -0.267  -0.232   0.225
    1UNL     H2   31  -0.400  -0.203   0.119
    1UNL     H3   32  -0.396  -0.122   0.279
    1UNL     H4   33  -0.232   0.042   0.171
    1UNL     H5   34  -0.374   0.021   0.079
    1UNL     H6   35  -0.171   0.074  -0.194
    1UNL     H7   36  -0.313   0.117  -0.105
    1UNL     H8   37  -0.183   0.554  -0.046
    1UNL     H9   38  -0.026   0.603   0.031
    1UNL    H10   39  -0.166   0.542   0.131
    1UNL    H11   40   0.096   0.298   0.040
    1UNL    H12   41   0.369   0.256  -0.016
    1UNL    H13   42   0.769  -0.002  -0.095
    1UNL    H14   43   0.640  -0.107  -0.035
    1UNL    H15   44   0.635  -0.068  -0.209
    1UNL    H16   45   0.446  -0.158  -0.108
    1UNL    H17   46   0.213  -0.214  -0.044
    1UNL    H18   47   0.124  -0.054   0.221
    1UNL    H19   48  -0.047  -0.026   0.256
    1UNL    H20   49  -0.052  -0.281   0.269
    1UNL    H21   50   0.092  -0.278   0.154
    1UNL    H22   51  -0.276  -0.375  -0.181
    1UNL    H23   52  -0.323  -0.121  -0.227
    1UNL    H24   53  -0.039  -0.132  -0.131
   0.00000   0.00000   0.00000   0.00000   0.00000   0.00000   0.00000   0.00000   0.00000
Generated with MDTraj, t= 60.0
 53
    1UNL     C1    1  -0.344  -0.141   0.189
    1UNL     C2    2  -0.309  -0.026   0.099
    1UNL     C3    3  -0.232  -0.053  -0.034
    1UNL     C4    4  -0.216   0.086  -0.101
    1UNL     C5    5  -0.129   0.177  -0.019
    1UNL     C6    6  -0.155   0.321  -0.034
    1UNL     O1    7  -0.234   0.360  -0.119
    1UNL     O2    8  -0.076   0.403   0.045
    1UNL     C7    9  -0.115   0.531   0.040
    1UNL     C8   10  -0.015   0.130   0.043
    1UNL     N1   11   0.108   0.196   0.048
    1UNL     C9   12   0.212   0.108   0.020
    1UNL    C10   13   0.346   0.137  -0.012
    1UNL    C11   14   0.430   0.042  -0.063
    1UNL     O3   15   0.566   0.079  -0.082
    1UNL    C12   16   0.665  -0.019  -0.106
    1UNL    C13   17   0.390  -0.088  -0.074
    1UNL    C14   18   0.254  -0.121  -0.044
    1UNL    C15   19   0.162  -0.021  -0.001
    1UNL    C16   20   0.018  -0.018   0.050
    1UNL    C17   21   0.013  -0.072   0.200
    1UNL    C18   22  -0.003  -0.229   0.176
    1UNL     N2   23  -0.075  -0.241   0.050
    1UNL    C19   24  -0.165  -0.342   0.028
    1UNL     O4   25  -0.175  -0.446   0.091
    1UNL    C20   26  -0.265  -0.313  -0.086
    1UNL     O5   27  -0.381  -0.251  -0.048
    1UNL    C21   28  -0.302  -0.168  -0.119
    1UNL    C22   29  -0.080  -0.113  -0.025
    1UNL     H1   30  -0.265  -0.209   0.233
    1UNL     H2   31  -0.400  -0.205   0.132
    1UNL     H3   32  -0.405  -0.106   0.280
    1UNL     H4   33  -0.252   0.042   0.166
    1UNL     H5   34  -0.400   0.022   0.074
    1UNL     H6   35  -0.171   0.070  -0.193
    1UNL     H7   36  -0.317   0.127  -0.117
    1UNL     H8   37  -0.062   0.581  -0.041
    1UNL     H9   38  -0.093   0.583   0.133
    1UNL    H10   39  -0.219   0.531   0.015
    1UNL    H11   40   0.116   0.294   0.049
    1UNL    H12   41   0.380   0.235  -0.009
    1UNL    H13   42   0.758   0.035  -0.154
    1UNL    H14   43   0.705  -0.049  -0.012
    1UNL    H15   44   0.639  -0.102  -0.172
    1UNL    H16   45   0.461  -0.167  -0.097
    1UNL    H17   46   0.231  -0.231  -0.032
    1UNL    H18   47   0.095  -0.040   0.262
    1UNL    H19   48  -0.079  -0.031   0.250
    1UNL    H20   49  -0.082  -0.268   0.254
    1UNL    H21   50   0.077  -0.298   0.181
    1UNL    H22   51  -0.275  -0.391  -0.164
    1UNL    H23   52  -0.334  -0.136  -0.209
    1UNL    H24   53  -0.043  -0.125  -0.125
   0.00000   0.00000   0.00000   0.00000   0.00000   0.00000   0.00000   0.00000   0.00000
Generated with MDTraj, t= 61.0
 53
    1UNL     C1    1  -0.328  -0.162   0.178
    1UNL     C2    2  -0.293  -0.032   0.106
    1UNL     C3    3  -0.223  -0.059  -0.032
    1UNL     C4    4  -0.213   0.081  -0.098
    1UNL     C5    5  -0.134   0.174  -0.014
    1UNL     C6    6  -0.155   0.316  -0.039
    1UNL     O1    7  -0.234   0.361  -0.124
    1UNL     O2    8  -0.078   0.397   0.045
    1UNL     C7    9  -0.093   0.533   0.020
    1UNL     C8   10  -0.023   0.131   0.054
    1UNL     N1   11   0.104   0.198   0.060
    1UNL     C9   12   0.206   0.120   0.007
    1UNL    C10   13   0.341   0.146  -0.023
    1UNL    C11   14   0.427   0.045  -0.055
    1UNL     O3   15   0.564   0.080  -0.081
    1UNL    C12   16   0.633  -0.032  -0.119
    1UNL    C13   17   0.377  -0.086  -0.066
    1UNL    C14   18   0.247  -0.111  -0.026
    1UNL    C15   19   0.164  -0.007   0.009
    1UNL    C16   20   0.023  -0.015   0.064
    1UNL    C17   21   0.025  -0.084   0.209
    1UNL    C18   22  -0.010  -0.222   0.183
    1UNL     N2   23  -0.077  -0.238   0.047
    1UNL    C19   24  -0.171  -0.337   0.022
    1UNL     O4   25  -0.173  -0.438   0.087
    1UNL    C20   26  -0.264  -0.317  -0.099
    1UNL     O5   27  -0.389  -0.249  -0.054
    1UNL    C21   28  -0.294  -0.162  -0.120
    1UNL    C22   29  -0.075  -0.109  -0.020
    1UNL     H1   30  -0.252  -0.233   0.189
    1UNL     H2   31  -0.405  -0.214   0.125
    1UNL     H3   32  -0.359  -0.145   0.286
    1UNL     H4   33  -0.216   0.012   0.170
    1UNL     H5   34  -0.379   0.030   0.102
    1UNL     H6   35  -0.172   0.057  -0.193
    1UNL     H7   36  -0.315   0.118  -0.104
    1UNL     H8   37  -0.010   0.588  -0.022
    1UNL     H9   38  -0.126   0.587   0.106
    1UNL    H10   39  -0.173   0.539  -0.053
    1UNL    H11   40   0.106   0.296   0.049
    1UNL    H12   41   0.375   0.252  -0.020
    1UNL    H13   42   0.746  -0.014  -0.099
    1UNL    H14   43   0.616  -0.108  -0.045
    1UNL    H15   44   0.622  -0.066  -0.221
    1UNL    H16   45   0.433  -0.174  -0.094
    1UNL    H17   46   0.218  -0.208  -0.033
    1UNL    H18   47   0.127  -0.079   0.265
    1UNL    H19   48  -0.044  -0.030   0.272
    1UNL    H20   49  -0.057  -0.279   0.273
    1UNL    H21   50   0.083  -0.273   0.169
    1UNL    H22   51  -0.270  -0.385  -0.179
    1UNL    H23   52  -0.328  -0.136  -0.216
    1UNL    H24   53  -0.040  -0.128  -0.120
   0.00000   0.00000   0.00000   0.00000   0.00000   0.00000   0.00000   0.00000   0.00000
Generated with MDTraj, t= 62.0
 53
    1UNL     C1    1  -0.338  -0.180   0.187
    1UNL     C2    2  -0.312  -0.045   0.110
    1UNL     C3    3  -0.231  -0.053  -0.028
    1UNL     C4    4  -0.221   0.098  -0.074
    1UNL     C5    5  -0.121   0.187  -0.014
    1UNL     C6    6  -0.149   0.325  -0.041
    1UNL     O1    7  -0.248   0.363  -0.102
    1UNL     O2    8  -0.059   0.415   0.013
    1UNL     C7    9  -0.092   0.546  -0.011
    1UNL     C8   10  -0.015   0.134   0.054
    1UNL     N1   11   0.112   0.201   0.066
    1UNL     C9   12   0.213   0.105   0.035
    1UNL    C10   13   0.349   0.136   0.007
    1UNL    C11   14   0.429   0.041  -0.051
    1UNL     O3   15   0.549   0.085  -0.099
    1UNL    C12   16   0.646  -0.011  -0.129
    1UNL    C13   17   0.379  -0.092  -0.070
    1UNL    C14   18   0.246  -0.123  -0.029
    1UNL    C15   19   0.166  -0.028   0.019
    1UNL    C16   20   0.015  -0.016   0.068
    1UNL    C17   21   0.019  -0.088   0.211
    1UNL    C18   22  -0.003  -0.239   0.179
    1UNL     N2   23  -0.073  -0.240   0.051
    1UNL    C19   24  -0.165  -0.334   0.020
    1UNL     O4   25  -0.185  -0.431   0.089
    1UNL    C20   26  -0.252  -0.306  -0.100
    1UNL     O5   27  -0.383  -0.267  -0.074
    1UNL    C21   28  -0.304  -0.165  -0.124
    1UNL    C22   29  -0.080  -0.107  -0.019
    1UNL     H1   30  -0.262  -0.204   0.254
    1UNL     H2   31  -0.340  -0.267   0.119
    1UNL     H3   32  -0.421  -0.183   0.255
    1UNL     H4   33  -0.264   0.039   0.160
    1UNL     H5   34  -0.405  -0.006   0.079
    1UNL     H6   35  -0.193   0.101  -0.180
    1UNL     H7   36  -0.319   0.136  -0.059
    1UNL     H8   37  -0.010   0.608  -0.046
    1UNL     H9   38  -0.129   0.583   0.083
    1UNL    H10   39  -0.173   0.549  -0.085
    1UNL    H11   40   0.111   0.295   0.022
    1UNL    H12   41   0.378   0.237   0.032
    1UNL    H13   42   0.725   0.038  -0.193
    1UNL    H14   43   0.695  -0.041  -0.039
    1UNL    H15   44   0.609  -0.098  -0.182
    1UNL    H16   45   0.443  -0.171  -0.105
    1UNL    H17   46   0.196  -0.225  -0.030
    1UNL    H18   47   0.127  -0.060   0.254
    1UNL    H19   48  -0.053  -0.043   0.278
    1UNL    H20   49  -0.069  -0.299   0.247
    1UNL    H21   50   0.093  -0.296   0.171
    1UNL    H22   51  -0.240  -0.378  -0.171
    1UNL    H23   52  -0.319  -0.130  -0.228
    1UNL    H24   53  -0.041  -0.131  -0.117
   0.00000   0.00000   0.00000   0.00000   0.00000   0.00000   0.00000   0.00000   0.00000
Generated with MDTraj, t= 63.0
 53
    1UNL     C1    1  -0.348  -0.172   0.179
    1UNL     C2    2  -0.292  -0.046   0.107
    1UNL     C3    3  -0.216  -0.064  -0.029
    1UNL     C4    4  -0.219   0.080  -0.090
    1UNL     C5    5  -0.132   0.173  -0.004
    1UNL     C6    6  -0.148   0.319  -0.027
    1UNL     O1    7  -0.259   0.360  -0.060
    1UNL     O2    8  -0.042   0.409  -0.000
    1UNL     C7    9  -0.065   0.532  -0.041
    1UNL     C8   10  -0.017   0.126   0.057
    1UNL     N1   11   0.103   0.202   0.056
    1UNL     C9   12   0.211   0.120   0.029
    1UNL    C10   13   0.337   0.159  -0.018
    1UNL    C11   14   0.421   0.053  -0.063
    1UNL     O3   15   0.556   0.093  -0.081
    1UNL    C12   16   0.626  -0.020  -0.131
    1UNL    C13   17   0.375  -0.077  -0.067
    1UNL    C14   18   0.246  -0.111  -0.025
    1UNL    C15   19   0.171  -0.016   0.035
    1UNL    C16   20   0.021  -0.018   0.077
    1UNL    C17   21   0.012  -0.091   0.219
    1UNL    C18   22  -0.014  -0.242   0.189
    1UNL     N2   23  -0.080  -0.244   0.053
    1UNL    C19   24  -0.170  -0.343   0.015
    1UNL     O4   25  -0.180  -0.445   0.079
    1UNL    C20   26  -0.264  -0.311  -0.099
    1UNL     O5   27  -0.386  -0.242  -0.068
    1UNL    C21   28  -0.287  -0.155  -0.131
    1UNL    C22   29  -0.071  -0.110  -0.012
    1UNL     H1   30  -0.263  -0.241   0.165
    1UNL     H2   31  -0.434  -0.211   0.118
    1UNL     H3   32  -0.353  -0.152   0.277
    1UNL     H4   33  -0.235   0.009   0.181
    1UNL     H5   34  -0.375   0.012   0.076
    1UNL     H6   35  -0.180   0.071  -0.194
    1UNL     H7   36  -0.314   0.125  -0.089
    1UNL     H8   37   0.006   0.597   0.010
    1UNL     H9   38  -0.168   0.550  -0.009
    1UNL    H10   39  -0.048   0.537  -0.153
    1UNL    H11   40   0.101   0.304   0.027
    1UNL    H12   41   0.373   0.257  -0.010
    1UNL    H13   42   0.731   0.010  -0.141
    1UNL    H14   43   0.622  -0.109  -0.069
    1UNL    H15   44   0.588  -0.042  -0.229
    1UNL    H16   45   0.430  -0.162  -0.106
    1UNL    H17   46   0.222  -0.215  -0.017
    1UNL    H18   47   0.116  -0.080   0.263
    1UNL    H19   48  -0.059  -0.045   0.295
    1UNL    H20   49  -0.079  -0.298   0.258
    1UNL    H21   50   0.088  -0.297   0.183
    1UNL    H22   51  -0.263  -0.364  -0.194
    1UNL    H23   52  -0.325  -0.113  -0.232
    1UNL    H24   53  -0.019  -0.117  -0.108
   0.00000   0.00000   0.00000   0.00000   0.00000   0.00000   0.00000   0.00000   0.00000
Generated with MDTraj, t= 64.0
 53
    1UNL     C1    1  -0.363  -0.158   0.186
    1UNL     C2    2  -0.317  -0.040   0.113
    1UNL     C3    3  -0.233  -0.058  -0.019
    1UNL     C4    4  -0.226   0.089  -0.082
    1UNL     C5    5  -0.128   0.175  -0.008
    1UNL     C6    6  -0.146   0.318  -0.025
    1UNL     O1    7  -0.258   0.346  -0.063
    1UNL     O2    8  -0.046   0.412   0.001
    1UNL     C7    9  -0.082   0.540  -0.043
    1UNL     C8   10  -0.015   0.129   0.055
    1UNL     N1   11   0.108   0.192   0.068
    1UNL     C9   12   0.216   0.107   0.042
    1UNL    C10   13   0.341   0.139   0.006
    1UNL    C11   14   0.429   0.038  -0.041
    1UNL     O3   15   0.548   0.086  -0.096
    1UNL    C12   16   0.649  -0.007  -0.129
    1UNL    C13   17   0.381  -0.090  -0.062
    1UNL    C14   18   0.244  -0.123  -0.036
    1UNL    C15   19   0.167  -0.020   0.015
    1UNL    C16   20   0.025  -0.016   0.054
    1UNL    C17   21   0.027  -0.084   0.202
    1UNL    C18   22  -0.009  -0.225   0.183
    1UNL     N2   23  -0.074  -0.236   0.047
    1UNL    C19   24  -0.163  -0.334   0.014
    1UNL     O4   25  -0.172  -0.438   0.077
    1UNL    C20   26  -0.250  -0.302  -0.105
    1UNL     O5   27  -0.379  -0.259  -0.068
    1UNL    C21   28  -0.303  -0.160  -0.121
    1UNL    C22   29  -0.080  -0.109  -0.019
    1UNL     H1   30  -0.265  -0.207   0.211
    1UNL     H2   31  -0.421  -0.237   0.132
    1UNL     H3   32  -0.398  -0.137   0.281
    1UNL     H4   33  -0.251   0.020   0.174
    1UNL     H5   34  -0.400   0.020   0.082
    1UNL     H6   35  -0.184   0.084  -0.186
    1UNL     H7   36  -0.320   0.132  -0.085
    1UNL     H8   37  -0.050   0.615   0.029
    1UNL     H9   38  -0.193   0.536  -0.049
    1UNL    H10   39  -0.029   0.564  -0.141
    1UNL    H11   40   0.112   0.298   0.045
    1UNL    H12   41   0.379   0.243   0.018
    1UNL    H13   42   0.723   0.051  -0.178
    1UNL    H14   43   0.689  -0.064  -0.045
    1UNL    H15   44   0.609  -0.074  -0.205
    1UNL    H16   45   0.454  -0.164  -0.096
    1UNL    H17   46   0.210  -0.219  -0.064
    1UNL    H18   47   0.118  -0.077   0.262
    1UNL    H19   48  -0.059  -0.039   0.270
    1UNL    H20   49  -0.081  -0.253   0.258
    1UNL    H21   50   0.081  -0.302   0.180
    1UNL    H22   51  -0.262  -0.393  -0.171
    1UNL    H23   52  -0.320  -0.109  -0.222
    1UNL    H24   53  -0.048  -0.121  -0.123
   0.00000   0.00000   0.00000   0.00000   0.00000   0.00000   0.00000   0.00000   0.00000
Generated with MDTraj, t= 65.0
 53
    1UNL     C1    1  -0.329  -0.181   0.195
    1UNL     C2    2  -0.293  -0.052   0.111
    1UNL     C3    3  -0.219  -0.064  -0.031
    1UNL     C4    4  -0.224   0.085  -0.085
    1UNL     C5    5  -0.134   0.175  -0.011
    1UNL     C6    6  -0.148   0.324  -0.036
    1UNL     O1    7  -0.249   0.354  -0.101
    1UNL     O2    8  -0.047   0.412   0.019
    1UNL     C7    9  -0.088   0.549   0.001
    1UNL     C8   10  -0.019   0.135   0.050
    1UNL     N1   11   0.100   0.205   0.062
    1UNL     C9   12   0.209   0.119   0.019
    1UNL    C10   13   0.337   0.148  -0.018
    1UNL    C11   14   0.427   0.050  -0.052
    1UNL     O3   15   0.564   0.074  -0.071
    1UNL    C12   16   0.648  -0.028  -0.124
    1UNL    C13   17   0.371  -0.084  -0.053
    1UNL    C14   18   0.241  -0.114  -0.035
    1UNL    C15   19   0.158  -0.008   0.005
    1UNL    C16   20   0.017  -0.010   0.059
    1UNL    C17   21   0.026  -0.074   0.200
    1UNL    C18   22  -0.003  -0.230   0.183
    1UNL     N2   23  -0.076  -0.249   0.050
    1UNL    C19   24  -0.172  -0.344   0.018
    1UNL     O4   25  -0.189  -0.443   0.085
    1UNL    C20   26  -0.263  -0.313  -0.099
    1UNL     O5   27  -0.385  -0.244  -0.064
    1UNL    C21   28  -0.291  -0.159  -0.125
    1UNL    C22   29  -0.076  -0.110  -0.022
    1UNL     H1   30  -0.244  -0.238   0.225
    1UNL     H2   31  -0.395  -0.254   0.155
    1UNL     H3   32  -0.367  -0.159   0.300
    1UNL     H4   33  -0.243   0.014   0.177
    1UNL     H5   34  -0.391  -0.008   0.088
    1UNL     H6   35  -0.189   0.075  -0.190
    1UNL     H7   36  -0.319   0.127  -0.086
    1UNL     H8   37  -0.009   0.622  -0.010
    1UNL     H9   38  -0.153   0.560   0.088
    1UNL    H10   39  -0.153   0.553  -0.093
    1UNL    H11   40   0.096   0.299   0.013
    1UNL    H12   41   0.362   0.250  -0.023
    1UNL    H13   42   0.744   0.009  -0.125
    1UNL    H14   43   0.637  -0.125  -0.071
    1UNL    H15   44   0.612  -0.043  -0.227
    1UNL    H16   45   0.439  -0.159  -0.073
    1UNL    H17   46   0.188  -0.210  -0.034
    1UNL    H18   47   0.125  -0.053   0.238
    1UNL    H19   48  -0.041  -0.023   0.277
    1UNL    H20   49  -0.062  -0.268   0.263
    1UNL    H21   50   0.093  -0.295   0.169
    1UNL    H22   51  -0.280  -0.391  -0.184
    1UNL    H23   52  -0.316  -0.137  -0.231
    1UNL    H24   53  -0.033  -0.125  -0.122
   0.00000   0.00000   0.00000   0.00000   0.00000   0.00000   0.00000   0.00000   0.00000
Generated with MDTraj, t= 66.0
 53
    1UNL     C1    1  -0.341  -0.158   0.201
    1UNL     C2    2  -0.299  -0.036   0.105
    1UNL     C3    3  -0.230  -0.060  -0.031
    1UNL     C4    4  -0.227   0.080  -0.097
    1UNL     C5    5  -0.136   0.176  -0.022
    1UNL     C6    6  -0.156   0.323  -0.032
    1UNL     O1    7  -0.233   0.361  -0.118
    1UNL     O2    8  -0.085   0.410   0.052
    1UNL     C7    9  -0.104   0.538   0.022
    1UNL     C8   10  -0.020   0.133   0.035
    1UNL     N1   11   0.102   0.201   0.049
    1UNL     C9   12   0.217   0.122   0.010
    1UNL    C10   13   0.354   0.146  -0.008
    1UNL    C11   14   0.437   0.037  -0.047
    1UNL     O3   15   0.570   0.072  -0.069
    1UNL    C12   16   0.663  -0.025  -0.117
    1UNL    C13   17   0.378  -0.093  -0.065
    1UNL    C14   18   0.251  -0.119  -0.038
    1UNL    C15   19   0.167  -0.008   0.004
    1UNL    C16   20   0.020  -0.011   0.053
    1UNL    C17   21   0.013  -0.079   0.197
    1UNL    C18   22   0.008  -0.229   0.166
    1UNL     N2   23  -0.068  -0.246   0.042
    1UNL    C19   24  -0.167  -0.339   0.020
    1UNL     O4   25  -0.188  -0.429   0.096
    1UNL    C20   26  -0.270  -0.313  -0.093
    1UNL     O5   27  -0.387  -0.253  -0.048
    1UNL    C21   28  -0.300  -0.170  -0.122
    1UNL    C22   29  -0.075  -0.109  -0.028
    1UNL     H1   30  -0.259  -0.214   0.237
    1UNL     H2   31  -0.404  -0.226   0.154
    1UNL     H3   32  -0.389  -0.123   0.305
    1UNL     H4   33  -0.247   0.038   0.158
    1UNL     H5   34  -0.402  -0.006   0.081
    1UNL     H6   35  -0.192   0.081  -0.202
    1UNL     H7   36  -0.327   0.118  -0.101
    1UNL     H8   37  -0.040   0.552  -0.063
    1UNL     H9   38  -0.073   0.584   0.114
    1UNL    H10   39  -0.213   0.564  -0.005
    1UNL    H11   40   0.105   0.300   0.021
    1UNL    H12   41   0.407   0.241  -0.012
    1UNL    H13   42   0.750   0.027  -0.134
    1UNL    H14   43   0.674  -0.107  -0.040
    1UNL    H15   44   0.619  -0.072  -0.209
    1UNL    H16   45   0.442  -0.180  -0.099
    1UNL    H17   46   0.205  -0.215  -0.055
    1UNL    H18   47   0.098  -0.049   0.259
    1UNL    H19   48  -0.066  -0.045   0.256
    1UNL    H20   49  -0.042  -0.289   0.242
    1UNL    H21   50   0.112  -0.273   0.147
    1UNL    H22   51  -0.270  -0.396  -0.171
    1UNL    H23   52  -0.327  -0.140  -0.218
    1UNL    H24   53  -0.029  -0.135  -0.126
   0.00000   0.00000   0.00000   0.00000   0.00000   0.00000   0.00000   0.00000   0.00000
Generated with MDTraj, t= 67.0
 53
    1UNL     C1    1  -0.344  -0.138   0.189
    1UNL     C2    2  -0.292  -0.030   0.103
    1UNL     C3    3  -0.226  -0.058  -0.037
    1UNL     C4    4  -0.208   0.077  -0.106
    1UNL     C5    5  -0.120   0.174  -0.031
    1UNL     C6    6  -0.146   0.316  -0.048
    1UNL     O1    7  -0.242   0.355  -0.113
    1UNL     O2    8  -0.066   0.398   0.039
    1UNL     C7    9  -0.129   0.524   0.048
    1UNL     C8   10  -0.015   0.129   0.047
    1UNL     N1   11   0.109   0.199   0.051
    1UNL     C9   12   0.215   0.112   0.010
    1UNL    C10   13   0.343   0.141  -0.007
    1UNL    C11   14   0.433   0.043  -0.052
    1UNL     O3   15   0.561   0.088  -0.074
    1UNL    C12   16   0.657  -0.012  -0.103
    1UNL    C13   17   0.385  -0.089  -0.071
    1UNL    C14   18   0.252  -0.122  -0.044
    1UNL    C15   19   0.162  -0.019  -0.013
    1UNL    C16   20   0.024  -0.019   0.045
    1UNL    C17   21   0.036  -0.084   0.193
    1UNL    C18   22   0.001  -0.229   0.181
    1UNL     N2   23  -0.088  -0.236   0.063
    1UNL    C19   24  -0.179  -0.335   0.032
    1UNL     O4   25  -0.189  -0.438   0.090
    1UNL    C20   26  -0.268  -0.310  -0.088
    1UNL     O5   27  -0.393  -0.247  -0.054
    1UNL    C21   28  -0.299  -0.160  -0.123
    1UNL    C22   29  -0.076  -0.120  -0.022
    1UNL     H1   30  -0.270  -0.213   0.229
    1UNL     H2   31  -0.427  -0.187   0.141
    1UNL     H3   32  -0.379  -0.091   0.288
    1UNL     H4   33  -0.218   0.027   0.149
    1UNL     H5   34  -0.375   0.039   0.081
    1UNL     H6   35  -0.178   0.057  -0.208
    1UNL     H7   36  -0.291   0.149  -0.112
    1UNL     H8   37  -0.168   0.530  -0.052
    1UNL     H9   38  -0.055   0.597   0.061
    1UNL    H10   39  -0.210   0.537   0.129
    1UNL    H11   40   0.117   0.293   0.026
    1UNL    H12   41   0.384   0.241   0.004
    1UNL    H13   42   0.748   0.031  -0.130
    1UNL    H14   43   0.668  -0.067  -0.004
    1UNL    H15   44   0.616  -0.083  -0.180
    1UNL    H16   45   0.459  -0.161  -0.091
    1UNL    H17   46   0.213  -0.225  -0.047
    1UNL    H18   47   0.136  -0.076   0.239
    1UNL    H19   48  -0.019  -0.032   0.261
    1UNL    H20   49  -0.050  -0.277   0.271
    1UNL    H21   50   0.091  -0.287   0.156
    1UNL    H22   51  -0.297  -0.387  -0.155
    1UNL    H23   52  -0.322  -0.136  -0.221
    1UNL    H24   53  -0.021  -0.147  -0.116
   0.00000   0.00000   0.00000   0.00000   0.00000   0.00000   0.00000   0.00000   0.00000
Generated with MDTraj, t= 68.0
 53
    1UNL     C1    1  -0.342  -0.141   0.183
    1UNL     C2    2  -0.301  -0.030   0.087
    1UNL     C3    3  -0.226  -0.061  -0.043
    1UNL     C4    4  -0.202   0.074  -0.113
    1UNL     C5    5  -0.122   0.170  -0.028
    1UNL     C6    6  -0.154   0.312  -0.030
    1UNL     O1    7  -0.261   0.350  -0.076
    1UNL     O2    8  -0.062   0.398   0.036
    1UNL     C7    9  -0.116   0.525   0.030
    1UNL     C8   10  -0.007   0.126   0.031
    1UNL     N1   11   0.113   0.197   0.052
    1UNL     C9   12   0.226   0.110   0.020
    1UNL    C10   13   0.349   0.148  -0.009
    1UNL    C11   14   0.433   0.050  -0.063
    1UNL     O3   15   0.563   0.091  -0.093
    1UNL    C12   16   0.652  -0.017  -0.096
    1UNL    C13   17   0.388  -0.082  -0.076
    1UNL    C14   18   0.260  -0.117  -0.041
    1UNL    C15   19   0.173  -0.025   0.013
    1UNL    C16   20   0.029  -0.017   0.058
    1UNL    C17   21   0.019  -0.076   0.201
    1UNL    C18   22  -0.014  -0.229   0.180
    1UNL     N2   23  -0.078  -0.245   0.046
    1UNL    C19   24  -0.181  -0.337   0.029
    1UNL     O4   25  -0.197  -0.430   0.107
    1UNL    C20   26  -0.274  -0.313  -0.088
    1UNL     O5   27  -0.390  -0.243  -0.053
    1UNL    C21   28  -0.302  -0.167  -0.127
    1UNL    C22   29  -0.071  -0.115  -0.029
    1UNL     H1   30  -0.254  -0.206   0.217
    1UNL     H2   31  -0.429  -0.200   0.131
    1UNL     H3   32  -0.371  -0.090   0.274
    1UNL     H4   33  -0.237   0.040   0.136
    1UNL     H5   34  -0.392   0.025   0.057
    1UNL     H6   35  -0.155   0.066  -0.208
    1UNL     H7   36  -0.293   0.131  -0.142
    1UNL     H8   37  -0.132   0.534  -0.076
    1UNL     H9   38  -0.044   0.595   0.059
    1UNL    H10   39  -0.211   0.535   0.093
    1UNL    H11   40   0.114   0.296   0.051
    1UNL    H12   41   0.377   0.251  -0.001
    1UNL    H13   42   0.752   0.016  -0.081
    1UNL    H14   43   0.622  -0.075  -0.002
    1UNL    H15   44   0.638  -0.079  -0.188
    1UNL    H16   45   0.453  -0.155  -0.122
    1UNL    H17   46   0.244  -0.219  -0.040
    1UNL    H18   47   0.105  -0.056   0.258
    1UNL    H19   48  -0.060  -0.032   0.258
    1UNL    H20   49  -0.083  -0.276   0.262
    1UNL    H21   50   0.076  -0.289   0.168
    1UNL    H22   51  -0.284  -0.394  -0.151
    1UNL    H23   52  -0.338  -0.129  -0.222
    1UNL    H24   53  -0.025  -0.138  -0.128
   0.00000   0.00000   0.00000   0.00000   0.00000   0.00000   0.00000   0.00000   0.00000
Generated with MDTraj, t= 69.0
 53
    1UNL     C1    1  -0.343  -0.166   0.181
    1UNL     C2    2  -0.312  -0.034   0.099
    1UNL     C3    3  -0.225  -0.060  -0.035
    1UNL     C4    4  -0.206   0.085  -0.092
    1UNL     C5    5  -0.127   0.175  -0.004
    1UNL     C6    6  -0.162   0.319  -0.019
    1UNL     O1    7  -0.269   0.361  -0.067
    1UNL     O2    8  -0.068   0.411   0.026
    1UNL     C7    9  -0.102   0.538  -0.002
    1UNL     C8   10  -0.014   0.126   0.049
    1UNL     N1   11   0.101   0.198   0.045
    1UNL     C9   12   0.214   0.111   0.017
    1UNL    C10   13   0.346   0.141  -0.027
    1UNL    C11   14   0.432   0.038  -0.055
    1UNL     O3   15   0.563   0.082  -0.082
    1UNL    C12   16   0.652  -0.018  -0.106
    1UNL    C13   17   0.384  -0.094  -0.071
    1UNL    C14   18   0.252  -0.122  -0.036
    1UNL    C15   19   0.170  -0.019   0.007
    1UNL    C16   20   0.026  -0.020   0.058
    1UNL    C17   21   0.035  -0.088   0.198
    1UNL    C18   22   0.003  -0.236   0.173
    1UNL     N2   23  -0.075  -0.240   0.051
    1UNL    C19   24  -0.176  -0.332   0.030
    1UNL     O4   25  -0.204  -0.416   0.113
    1UNL    C20   26  -0.252  -0.313  -0.098
    1UNL     O5   27  -0.380  -0.251  -0.076
    1UNL    C21   28  -0.285  -0.161  -0.133
    1UNL    C22   29  -0.075  -0.107  -0.022
    1UNL     H1   30  -0.257  -0.205   0.241
    1UNL     H2   31  -0.395  -0.250   0.113
    1UNL     H3   32  -0.408  -0.146   0.266
    1UNL     H4   33  -0.269   0.045   0.162
    1UNL     H5   34  -0.405   0.011   0.063
    1UNL     H6   35  -0.154   0.077  -0.184
    1UNL     H7   36  -0.301   0.131  -0.133
    1UNL     H8   37  -0.053   0.572  -0.091
    1UNL     H9   38  -0.055   0.592   0.077
    1UNL    H10   39  -0.217   0.546   0.004
    1UNL    H11   40   0.100   0.288  -0.006
    1UNL    H12   41   0.390   0.239  -0.022
    1UNL    H13   42   0.753   0.021  -0.118
    1UNL    H14   43   0.649  -0.078  -0.010
    1UNL    H15   44   0.619  -0.079  -0.190
    1UNL    H16   45   0.450  -0.182  -0.085
    1UNL    H17   46   0.211  -0.228  -0.034
    1UNL    H18   47   0.124  -0.073   0.244
    1UNL    H19   48  -0.048  -0.048   0.261
    1UNL    H20   49  -0.061  -0.281   0.261
    1UNL    H21   50   0.092  -0.292   0.150
    1UNL    H22   51  -0.250  -0.390  -0.173
    1UNL    H23   52  -0.305  -0.144  -0.243
    1UNL    H24   53  -0.035  -0.125  -0.126
   0.00000   0.00000   0.00000   0.00000   0.00000   0.00000   0.00000   0.00000   0.00000
Generated with MDTraj, t= 70.0
 53
    1UNL     C1    1  -0.340  -0.193   0.184
    1UNL     C2    2  -0.294  -0.058   0.121
    1UNL     C3    3  -0.226  -0.056  -0.023
    1UNL     C4    4  -0.220   0.091  -0.082
    1UNL     C5    5  -0.132   0.181  -0.011
    1UNL     C6    6  -0.161   0.327  -0.035
    1UNL     O1    7  -0.261   0.367  -0.097
    1UNL     O2    8  -0.063   0.403   0.022
    1UNL     C7    9  -0.093   0.535  -0.006
    1UNL     C8   10  -0.014   0.134   0.042
    1UNL     N1   11   0.106   0.204   0.049
    1UNL     C9   12   0.212   0.117   0.028
    1UNL    C10   13   0.347   0.142  -0.011
    1UNL    C11   14   0.431   0.044  -0.051
    1UNL     O3   15   0.566   0.076  -0.086
    1UNL    C12   16   0.646  -0.035  -0.122
    1UNL    C13   17   0.380  -0.091  -0.054
    1UNL    C14   18   0.248  -0.120  -0.024
    1UNL    C15   19   0.169  -0.013   0.020
    1UNL    C16   20   0.017  -0.011   0.052
    1UNL    C17   21   0.026  -0.075   0.201
    1UNL    C18   22  -0.016  -0.222   0.180
    1UNL     N2   23  -0.079  -0.235   0.051
    1UNL    C19   24  -0.166  -0.337   0.018
    1UNL     O4   25  -0.180  -0.440   0.085
    1UNL    C20   26  -0.259  -0.304  -0.103
    1UNL     O5   27  -0.381  -0.248  -0.069
    1UNL    C21   28  -0.291  -0.155  -0.124
    1UNL    C22   29  -0.079  -0.105  -0.023
    1UNL     H1   30  -0.259  -0.261   0.216
    1UNL     H2   31  -0.413  -0.252   0.128
    1UNL     H3   32  -0.380  -0.188   0.290
    1UNL     H4   33  -0.223  -0.001   0.186
    1UNL     H5   34  -0.380   0.008   0.120
    1UNL     H6   35  -0.192   0.091  -0.184
    1UNL     H7   36  -0.324   0.133  -0.095
    1UNL     H8   37  -0.124   0.559  -0.107
    1UNL     H9   38  -0.014   0.605   0.016
    1UNL    H10   39  -0.178   0.550   0.071
    1UNL    H11   40   0.117   0.309   0.024
    1UNL    H12   41   0.369   0.244  -0.020
    1UNL    H13   42   0.756  -0.012  -0.116
    1UNL    H14   43   0.629  -0.115  -0.050
    1UNL    H15   44   0.615  -0.069  -0.219
    1UNL    H16   45   0.439  -0.169  -0.086
    1UNL    H17   46   0.216  -0.220  -0.013
    1UNL    H18   47   0.120  -0.077   0.246
    1UNL    H19   48  -0.041  -0.016   0.266
    1UNL    H20   49  -0.081  -0.257   0.269
    1UNL    H21   50   0.073  -0.285   0.181
    1UNL    H22   51  -0.237  -0.372  -0.192
    1UNL    H23   52  -0.321  -0.114  -0.229
    1UNL    H24   53  -0.043  -0.114  -0.130
   0.00000   0.00000   0.00000   0.00000   0.00000   0.00000   0.00000   0.00000   0.00000
Generated with MDTraj, t= 71.0
 53
    1UNL     C1    1  -0.362  -0.163   0.188
    1UNL     C2    2  -0.314  -0.039   0.117
    1UNL     C3    3  -0.237  -0.056  -0.017
    1UNL     C4    4  -0.223   0.087  -0.081
    1UNL     C5    5  -0.131   0.184  -0.007
    1UNL     C6    6  -0.145   0.328  -0.034
    1UNL     O1    7  -0.239   0.369  -0.102
    1UNL     O2    8  -0.053   0.411   0.014
    1UNL     C7    9  -0.087   0.545  -0.014
    1UNL     C8   10  -0.019   0.138   0.058
    1UNL     N1   11   0.104   0.205   0.066
    1UNL     C9   12   0.206   0.117   0.017
    1UNL    C10   13   0.339   0.142  -0.017
    1UNL    C11   14   0.422   0.036  -0.050
    1UNL     O3   15   0.558   0.072  -0.071
    1UNL    C12   16   0.638  -0.027  -0.132
    1UNL    C13   17   0.375  -0.095  -0.057
    1UNL    C14   18   0.244  -0.122  -0.023
    1UNL    C15   19   0.163  -0.018   0.010
    1UNL    C16   20   0.021  -0.014   0.065
    1UNL    C17   21   0.013  -0.081   0.208
    1UNL    C18   22  -0.015  -0.233   0.176
    1UNL     N2   23  -0.081  -0.234   0.048
    1UNL    C19   24  -0.151  -0.344   0.003
    1UNL     O4   25  -0.135  -0.454   0.055
    1UNL    C20   26  -0.247  -0.309  -0.107
    1UNL     O5   27  -0.370  -0.263  -0.049
    1UNL    C21   28  -0.303  -0.161  -0.113
    1UNL    C22   29  -0.086  -0.107  -0.017
    1UNL     H1   30  -0.272  -0.216   0.205
    1UNL     H2   31  -0.432  -0.215   0.136
    1UNL     H3   32  -0.391  -0.139   0.298
    1UNL     H4   33  -0.250   0.018   0.192
    1UNL     H5   34  -0.405   0.016   0.105
    1UNL     H6   35  -0.193   0.078  -0.182
    1UNL     H7   36  -0.320   0.142  -0.101
    1UNL     H8   37  -0.133   0.564  -0.111
    1UNL     H9   38  -0.011   0.622  -0.008
    1UNL    H10   39  -0.171   0.562   0.065
    1UNL    H11   40   0.102   0.310   0.072
    1UNL    H12   41   0.382   0.246  -0.023
    1UNL    H13   42   0.721   0.027  -0.189
    1UNL    H14   43   0.686  -0.092  -0.060
    1UNL    H15   44   0.578  -0.080  -0.199
    1UNL    H16   45   0.450  -0.177  -0.062
    1UNL    H17   46   0.213  -0.225  -0.009
    1UNL    H18   47   0.113  -0.053   0.253
    1UNL    H19   48  -0.066  -0.036   0.266
    1UNL    H20   49  -0.076  -0.283   0.258
    1UNL    H21   50   0.073  -0.299   0.176
    1UNL    H22   51  -0.269  -0.384  -0.196
    1UNL    H23   52  -0.368  -0.122  -0.199
    1UNL    H24   53  -0.060  -0.120  -0.125
   0.00000   0.00000   0.00000   0.00000   0.00000   0.00000   0.00000   0.00000   0.00000
Generated with MDTraj, t= 72.0
 53
    1UNL     C1    1  -0.336  -0.163   0.197
    1UNL     C2    2  -0.299  -0.042   0.115
    1UNL     C3    3  -0.226  -0.052  -0.027
    1UNL     C4    4  -0.218   0.081  -0.093
    1UNL     C5    5  -0.126   0.182  -0.017
    1UNL     C6    6  -0.153   0.322  -0.034
    1UNL     O1    7  -0.249   0.361  -0.098
    1UNL     O2    8  -0.063   0.407   0.018
    1UNL     C7    9  -0.075   0.536  -0.026
    1UNL     C8   10  -0.018   0.135   0.059
    1UNL     N1   11   0.103   0.201   0.067
    1UNL     C9   12   0.210   0.117   0.034
    1UNL    C10   13   0.342   0.144   0.011
    1UNL    C11   14   0.428   0.040  -0.047
    1UNL     O3   15   0.556   0.080  -0.085
    1UNL    C12   16   0.628  -0.030  -0.140
    1UNL    C13   17   0.366  -0.085  -0.065
    1UNL    C14   18   0.236  -0.122  -0.018
    1UNL    C15   19   0.162  -0.019   0.019
    1UNL    C16   20   0.017  -0.018   0.071
    1UNL    C17   21   0.008  -0.084   0.209
    1UNL    C18   22  -0.014  -0.228   0.185
    1UNL     N2   23  -0.087  -0.229   0.058
    1UNL    C19   24  -0.158  -0.343   0.005
    1UNL     O4   25  -0.142  -0.456   0.044
    1UNL    C20   26  -0.253  -0.304  -0.101
    1UNL     O5   27  -0.374  -0.252  -0.054
    1UNL    C21   28  -0.297  -0.156  -0.123
    1UNL    C22   29  -0.080  -0.104  -0.012
    1UNL     H1   30  -0.249  -0.223   0.210
    1UNL     H2   31  -0.410  -0.222   0.152
    1UNL     H3   32  -0.353  -0.143   0.307
    1UNL     H4   33  -0.245   0.037   0.178
    1UNL     H5   34  -0.387   0.012   0.085
    1UNL     H6   35  -0.196   0.076  -0.198
    1UNL     H7   36  -0.321   0.127  -0.098
    1UNL     H8   37  -0.044   0.553  -0.129
    1UNL     H9   38  -0.028   0.609   0.037
    1UNL    H10   39  -0.189   0.549  -0.026
    1UNL    H11   40   0.095   0.294   0.028
    1UNL    H12   41   0.370   0.242   0.018
    1UNL    H13   42   0.737  -0.003  -0.156
    1UNL    H14   43   0.624  -0.118  -0.081
    1UNL    H15   44   0.581  -0.048  -0.231
    1UNL    H16   45   0.422  -0.171  -0.093
    1UNL    H17   46   0.201  -0.229  -0.021
    1UNL    H18   47   0.115  -0.066   0.256
    1UNL    H19   48  -0.067  -0.034   0.265
    1UNL    H20   49  -0.065  -0.284   0.266
    1UNL    H21   50   0.081  -0.289   0.183
    1UNL    H22   51  -0.272  -0.381  -0.184
    1UNL    H23   52  -0.327  -0.116  -0.222
    1UNL    H24   53  -0.037  -0.116  -0.114
   0.00000   0.00000   0.00000   0.00000   0.00000   0.00000   0.00000   0.00000   0.00000
Generated with MDTraj, t= 73.0
 53
    1UNL     C1    1  -0.356  -0.177   0.193
    1UNL     C2    2  -0.300  -0.052   0.111
    1UNL     C3    3  -0.221  -0.059  -0.031
    1UNL     C4    4  -0.217   0.088  -0.088
    1UNL     C5    5  -0.126   0.183  -0.013
    1UNL     C6    6  -0.142   0.326  -0.032
    1UNL     O1    7  -0.236   0.351  -0.104
    1UNL     O2    8  -0.054   0.412   0.016
    1UNL     C7    9  -0.088   0.544  -0.016
    1UNL     C8   10  -0.018   0.132   0.061
    1UNL     N1   11   0.102   0.202   0.066
    1UNL     C9   12   0.204   0.116   0.028
    1UNL    C10   13   0.339   0.142   0.010
    1UNL    C11   14   0.422   0.045  -0.044
    1UNL     O3   15   0.552   0.088  -0.088
    1UNL    C12   16   0.630  -0.016  -0.138
    1UNL    C13   17   0.373  -0.085  -0.061
    1UNL    C14   18   0.241  -0.120  -0.029
    1UNL    C15   19   0.163  -0.021   0.019
    1UNL    C16   20   0.021  -0.019   0.071
    1UNL    C17   21   0.026  -0.090   0.210
    1UNL    C18   22   0.010  -0.244   0.168
    1UNL     N2   23  -0.072  -0.244   0.046
    1UNL    C19   24  -0.171  -0.339   0.016
    1UNL     O4   25  -0.189  -0.427   0.096
    1UNL    C20   26  -0.255  -0.307  -0.105
    1UNL     O5   27  -0.381  -0.251  -0.074
    1UNL    C21   28  -0.290  -0.156  -0.133
    1UNL    C22   29  -0.076  -0.108  -0.008
    1UNL     H1   30  -0.272  -0.232   0.233
    1UNL     H2   31  -0.417  -0.238   0.124
    1UNL     H3   32  -0.403  -0.148   0.279
    1UNL     H4   33  -0.239   0.018   0.178
    1UNL     H5   34  -0.384   0.015   0.092
    1UNL     H6   35  -0.180   0.085  -0.193
    1UNL     H7   36  -0.323   0.119  -0.103
    1UNL     H8   37  -0.109   0.556  -0.120
    1UNL     H9   38  -0.024   0.623   0.020
    1UNL    H10   39  -0.192   0.558   0.026
    1UNL    H11   40   0.109   0.294   0.031
    1UNL    H12   41   0.376   0.246   0.000
    1UNL    H13   42   0.728   0.033  -0.172
    1UNL    H14   43   0.655  -0.095  -0.073
    1UNL    H15   44   0.583  -0.050  -0.225
    1UNL    H16   45   0.436  -0.162  -0.105
    1UNL    H17   46   0.204  -0.220  -0.030
    1UNL    H18   47   0.123  -0.083   0.275
    1UNL    H19   48  -0.064  -0.064   0.266
    1UNL    H20   49  -0.040  -0.302   0.243
    1UNL    H21   50   0.110  -0.299   0.161
    1UNL    H22   51  -0.264  -0.391  -0.171
    1UNL    H23   52  -0.313  -0.125  -0.234
    1UNL    H24   53  -0.036  -0.116  -0.111
   0.00000   0.00000   0.00000   0.00000   0.00000   0.00000   0.00000   0.00000   0.00000
Generated with MDTraj, t= 74.0
 53
    1UNL     C1    1  -0.351  -0.167   0.190
    1UNL     C2    2  -0.306  -0.051   0.096
    1UNL     C3    3  -0.217  -0.068  -0.034
    1UNL     C4    4  -0.210   0.075  -0.103
    1UNL     C5    5  -0.121   0.166  -0.016
    1UNL     C6    6  -0.140   0.312  -0.024
    1UNL     O1    7  -0.238   0.348  -0.093
    1UNL     O2    8  -0.050   0.404   0.035
    1UNL     C7    9  -0.088   0.539   0.004
    1UNL     C8   10  -0.014   0.123   0.052
    1UNL     N1   11   0.104   0.196   0.055
    1UNL     C9   12   0.217   0.111   0.030
    1UNL    C10   13   0.347   0.150  -0.009
    1UNL    C11   14   0.435   0.055  -0.051
    1UNL     O3   15   0.568   0.101  -0.083
    1UNL    C12   16   0.651   0.004  -0.139
    1UNL    C13   17   0.384  -0.080  -0.070
    1UNL    C14   18   0.256  -0.117  -0.043
    1UNL    C15   19   0.174  -0.017   0.009
    1UNL    C16   20   0.025  -0.024   0.060
    1UNL    C17   21   0.015  -0.077   0.206
    1UNL    C18   22  -0.022  -0.234   0.189
    1UNL     N2   23  -0.088  -0.242   0.057
    1UNL    C19   24  -0.187  -0.331   0.026
    1UNL     O4   25  -0.215  -0.420   0.103
    1UNL    C20   26  -0.268  -0.315  -0.103
    1UNL     O5   27  -0.392  -0.253  -0.072
    1UNL    C21   28  -0.293  -0.169  -0.129
    1UNL    C22   29  -0.074  -0.115  -0.016
    1UNL     H1   30  -0.271  -0.221   0.235
    1UNL     H2   31  -0.416  -0.234   0.125
    1UNL     H3   32  -0.400  -0.136   0.273
    1UNL     H4   33  -0.245   0.022   0.156
    1UNL     H5   34  -0.392   0.014   0.074
    1UNL     H6   35  -0.167   0.056  -0.206
    1UNL     H7   36  -0.313   0.112  -0.119
    1UNL     H8   37  -0.133   0.544  -0.092
    1UNL     H9   38  -0.008   0.610   0.019
    1UNL    H10   39  -0.174   0.571   0.067
    1UNL    H11   40   0.094   0.290   0.031
    1UNL    H12   41   0.372   0.256   0.006
    1UNL    H13   42   0.743   0.058  -0.179
    1UNL    H14   43   0.687  -0.068  -0.071
    1UNL    H15   44   0.604  -0.043  -0.222
    1UNL    H16   45   0.458  -0.157  -0.075
    1UNL    H17   46   0.222  -0.220  -0.043
    1UNL    H18   47   0.111  -0.073   0.264
    1UNL    H19   48  -0.073  -0.028   0.263
    1UNL    H20   49  -0.073  -0.268   0.276
    1UNL    H21   50   0.073  -0.299   0.196
    1UNL    H22   51  -0.266  -0.390  -0.175
    1UNL    H23   52  -0.305  -0.153  -0.232
    1UNL    H24   53  -0.041  -0.135  -0.118
   0.00000   0.00000   0.00000   0.00000   0.00000   0.00000   0.00000   0.00000   0.00000
Generated with MDTraj, t= 75.0
 53
    1UNL     C1    1  -0.348  -0.129   0.187
    1UNL     C2    2  -0.298  -0.034   0.082
    1UNL     C3    3  -0.224  -0.061  -0.047
    1UNL     C4    4  -0.198   0.075  -0.121
    1UNL     C5    5  -0.114   0.169  -0.033
    1UNL     C6    6  -0.145   0.311  -0.031
    1UNL     O1    7  -0.253   0.343  -0.082
    1UNL     O2    8  -0.057   0.398   0.029
    1UNL     C7    9  -0.101   0.527   0.028
    1UNL     C8   10  -0.016   0.124   0.049
    1UNL     N1   11   0.106   0.198   0.065
    1UNL     C9   12   0.211   0.111   0.027
    1UNL    C10   13   0.345   0.151  -0.002
    1UNL    C11   14   0.432   0.050  -0.045
    1UNL     O3   15   0.557   0.094  -0.088
    1UNL    C12   16   0.653   0.001  -0.135
    1UNL    C13   17   0.385  -0.087  -0.059
    1UNL    C14   18   0.251  -0.124  -0.045
    1UNL    C15   19   0.168  -0.022   0.015
    1UNL    C16   20   0.023  -0.026   0.056
    1UNL    C17   21   0.021  -0.080   0.199
    1UNL    C18   22  -0.010  -0.229   0.184
    1UNL     N2   23  -0.086  -0.237   0.065
    1UNL    C19   24  -0.177  -0.335   0.031
    1UNL     O4   25  -0.186  -0.437   0.100
    1UNL    C20   26  -0.270  -0.316  -0.092
    1UNL     O5   27  -0.392  -0.245  -0.058
    1UNL    C21   28  -0.303  -0.167  -0.136
    1UNL    C22   29  -0.079  -0.118  -0.023
    1UNL     H1   30  -0.283  -0.203   0.229
    1UNL     H2   31  -0.428  -0.182   0.137
    1UNL     H3   32  -0.387  -0.087   0.284
    1UNL     H4   33  -0.227   0.032   0.138
    1UNL     H5   34  -0.377   0.045   0.061
    1UNL     H6   35  -0.140   0.056  -0.220
    1UNL     H7   36  -0.293   0.127  -0.140
    1UNL     H8   37  -0.061   0.576  -0.057
    1UNL     H9   38  -0.054   0.562   0.121
    1UNL    H10   39  -0.212   0.546   0.025
    1UNL    H11   40   0.109   0.292   0.031
    1UNL    H12   41   0.363   0.254  -0.002
    1UNL    H13   42   0.756   0.047  -0.133
    1UNL    H14   43   0.661  -0.084  -0.070
    1UNL    H15   44   0.635  -0.035  -0.239
    1UNL    H16   45   0.456  -0.153  -0.106
    1UNL    H17   46   0.211  -0.224  -0.054
    1UNL    H18   47   0.121  -0.070   0.242
    1UNL    H19   48  -0.066  -0.040   0.271
    1UNL    H20   49  -0.058  -0.266   0.270
    1UNL    H21   50   0.084  -0.296   0.174
    1UNL    H22   51  -0.284  -0.402  -0.153
    1UNL    H23   52  -0.323  -0.144  -0.237
    1UNL    H24   53  -0.048  -0.158  -0.120
   0.00000   0.00000   0.00000   0.00000   0.00000   0.00000   0.00000   0.00000   0.00000
Generated with MDTraj, t= 76.0
 53
    1UNL     C1    1  -0.330  -0.145   0.200
    1UNL     C2    2  -0.290  -0.041   0.095
    1UNL     C3    3  -0.216  -0.058  -0.037
    1UNL     C4    4  -0.210   0.075  -0.099
    1UNL     C5    5  -0.128   0.175  -0.024
    1UNL     C6    6  -0.156   0.317  -0.037
    1UNL     O1    7  -0.252   0.350  -0.109
    1UNL     O2    8  -0.077   0.412   0.037
    1UNL     C7    9  -0.135   0.542   0.028
    1UNL     C8   10  -0.013   0.131   0.040
    1UNL     N1   11   0.103   0.203   0.058
    1UNL     C9   12   0.216   0.116   0.029
    1UNL    C10   13   0.348   0.140  -0.001
    1UNL    C11   14   0.433   0.035  -0.050
    1UNL     O3   15   0.568   0.076  -0.084
    1UNL    C12   16   0.648  -0.032  -0.124
    1UNL    C13   17   0.377  -0.092  -0.068
    1UNL    C14   18   0.244  -0.116  -0.041
    1UNL    C15   19   0.167  -0.019   0.013
    1UNL    C16   20   0.021  -0.020   0.054
    1UNL    C17   21   0.021  -0.083   0.200
    1UNL    C18   22  -0.002  -0.235   0.177
    1UNL     N2   23  -0.072  -0.239   0.050
    1UNL    C19   24  -0.171  -0.335   0.021
    1UNL     O4   25  -0.190  -0.429   0.097
    1UNL    C20   26  -0.261  -0.307  -0.097
    1UNL     O5   27  -0.381  -0.241  -0.060
    1UNL    C21   28  -0.289  -0.160  -0.127
    1UNL    C22   29  -0.072  -0.112  -0.023
    1UNL     H1   30  -0.248  -0.194   0.254
    1UNL     H2   31  -0.382  -0.214   0.141
    1UNL     H3   32  -0.393  -0.100   0.291
    1UNL     H4   33  -0.244   0.032   0.163
    1UNL     H5   34  -0.389   0.013   0.076
    1UNL     H6   35  -0.158   0.068  -0.203
    1UNL     H7   36  -0.308   0.124  -0.104
    1UNL     H8   37  -0.109   0.575  -0.069
    1UNL     H9   38  -0.085   0.604   0.104
    1UNL    H10   39  -0.248   0.547   0.035
    1UNL    H11   40   0.114   0.302   0.027
    1UNL    H12   41   0.399   0.236   0.016
    1UNL    H13   42   0.750   0.008  -0.135
    1UNL    H14   43   0.654  -0.101  -0.039
    1UNL    H15   44   0.620  -0.087  -0.219
    1UNL    H16   45   0.443  -0.177  -0.080
    1UNL    H17   46   0.206  -0.215  -0.052
    1UNL    H18   47   0.115  -0.065   0.257
    1UNL    H19   48  -0.066  -0.032   0.254
    1UNL    H20   49  -0.053  -0.302   0.244
    1UNL    H21   50   0.100  -0.288   0.165
    1UNL    H22   51  -0.286  -0.383  -0.177
    1UNL    H23   52  -0.330  -0.126  -0.223
    1UNL    H24   53  -0.021  -0.121  -0.118
   0.00000   0.00000   0.00000   0.00000   0.00000   0.00000   0.00000   0.00000   0.00000
Generated with MDTraj, t= 77.0
 53
    1UNL     C1    1  -0.336  -0.179   0.194
    1UNL     C2    2  -0.297  -0.056   0.111
    1UNL     C3    3  -0.221  -0.053  -0.025
    1UNL     C4    4  -0.224   0.089  -0.080
    1UNL     C5    5  -0.134   0.183  -0.012
    1UNL     C6    6  -0.154   0.332  -0.038
    1UNL     O1    7  -0.240   0.361  -0.122
    1UNL     O2    8  -0.087   0.416   0.045
    1UNL     C7    9  -0.126   0.552   0.021
    1UNL     C8   10  -0.021   0.131   0.046
    1UNL     N1   11   0.099   0.201   0.042
    1UNL     C9   12   0.216   0.120   0.001
    1UNL    C10   13   0.347   0.146  -0.020
    1UNL    C11   14   0.436   0.036  -0.057
    1UNL     O3   15   0.569   0.064  -0.072
    1UNL    C12   16   0.650  -0.047  -0.109
    1UNL    C13   17   0.381  -0.091  -0.066
    1UNL    C14   18   0.246  -0.116  -0.030
    1UNL    C15   19   0.167  -0.014   0.007
    1UNL    C16   20   0.023  -0.012   0.060
    1UNL    C17   21   0.028  -0.078   0.198
    1UNL    C18   22  -0.001  -0.228   0.173
    1UNL     N2   23  -0.067  -0.240   0.041
    1UNL    C19   24  -0.167  -0.336   0.021
    1UNL     O4   25  -0.187  -0.436   0.088
    1UNL    C20   26  -0.255  -0.309  -0.097
    1UNL     O5   27  -0.381  -0.251  -0.062
    1UNL    C21   28  -0.289  -0.162  -0.121
    1UNL    C22   29  -0.074  -0.104  -0.020
    1UNL     H1   30  -0.251  -0.246   0.231
    1UNL     H2   31  -0.389  -0.245   0.130
    1UNL     H3   32  -0.389  -0.161   0.298
    1UNL     H4   33  -0.252   0.025   0.171
    1UNL     H5   34  -0.401  -0.003   0.101
    1UNL     H6   35  -0.178   0.090  -0.186
    1UNL     H7   36  -0.330   0.127  -0.076
    1UNL     H8   37  -0.128   0.560  -0.085
    1UNL     H9   38  -0.039   0.608   0.061
    1UNL    H10   39  -0.220   0.594   0.071
    1UNL    H11   40   0.105   0.300   0.019
    1UNL    H12   41   0.388   0.243  -0.017
    1UNL    H13   42   0.750  -0.012  -0.128
    1UNL    H14   43   0.654  -0.109  -0.018
    1UNL    H15   44   0.613  -0.111  -0.196
    1UNL    H16   45   0.448  -0.174  -0.072
    1UNL    H17   46   0.208  -0.218  -0.029
    1UNL    H18   47   0.120  -0.052   0.259
    1UNL    H19   48  -0.056  -0.032   0.244
    1UNL    H20   49  -0.066  -0.273   0.246
    1UNL    H21   50   0.096  -0.286   0.177
    1UNL    H22   51  -0.259  -0.402  -0.169
    1UNL    H23   52  -0.323  -0.122  -0.221
    1UNL    H24   53  -0.041  -0.119  -0.122
   0.00000   0.00000   0.00000   0.00000   0.00000   0.00000   0.00000   0.00000   0.00000
Generated with MDTraj, t= 78.0
 53
    1UNL     C1    1  -0.351  -0.169   0.180
    1UNL     C2    2  -0.305  -0.043   0.113
    1UNL     C3    3  -0.237  -0.056  -0.024
    1UNL     C4    4  -0.230   0.089  -0.084
    1UNL     C5    5  -0.133   0.179  -0.010
    1UNL     C6    6  -0.153   0.326  -0.036
    1UNL     O1    7  -0.256   0.368  -0.092
    1UNL     O2    8  -0.060   0.401   0.027
    1UNL     C7    9  -0.089   0.538   0.012
    1UNL     C8   10  -0.014   0.135   0.042
    1UNL     N1   11   0.105   0.198   0.053
    1UNL     C9   12   0.207   0.109   0.000
    1UNL    C10   13   0.341   0.141  -0.022
    1UNL    C11   14   0.429   0.039  -0.059
    1UNL     O3   15   0.561   0.080  -0.086
    1UNL    C12   16   0.654  -0.027  -0.092
    1UNL    C13   17   0.380  -0.094  -0.062
    1UNL    C14   18   0.254  -0.123  -0.024
    1UNL    C15   19   0.162  -0.023  -0.000
    1UNL    C16   20   0.018  -0.014   0.054
    1UNL    C17   21   0.028  -0.072   0.195
    1UNL    C18   22  -0.012  -0.219   0.185
    1UNL     N2   23  -0.076  -0.232   0.051
    1UNL    C19   24  -0.157  -0.335   0.017
    1UNL     O4   25  -0.152  -0.438   0.074
    1UNL    C20   26  -0.255  -0.313  -0.103
    1UNL     O5   27  -0.376  -0.263  -0.055
    1UNL    C21   28  -0.306  -0.162  -0.122
    1UNL    C22   29  -0.091  -0.103  -0.014
    1UNL     H1   30  -0.278  -0.253   0.180
    1UNL     H2   31  -0.435  -0.209   0.115
    1UNL     H3   32  -0.375  -0.153   0.290
    1UNL     H4   33  -0.245   0.020   0.178
    1UNL     H5   34  -0.394   0.033   0.100
    1UNL     H6   35  -0.187   0.071  -0.186
    1UNL     H7   36  -0.332   0.138  -0.089
    1UNL     H8   37  -0.054   0.564  -0.084
    1UNL     H9   38  -0.020   0.583   0.086
    1UNL    H10   39  -0.195   0.566   0.041
    1UNL    H11   40   0.105   0.298   0.019
    1UNL    H12   41   0.373   0.245  -0.033
    1UNL    H13   42   0.751   0.011  -0.102
    1UNL    H14   43   0.645  -0.082   0.004
    1UNL    H15   44   0.631  -0.100  -0.177
    1UNL    H16   45   0.447  -0.174  -0.095
    1UNL    H17   46   0.219  -0.222  -0.007
    1UNL    H18   47   0.136  -0.052   0.228
    1UNL    H19   48  -0.029  -0.017   0.260
    1UNL    H20   49  -0.076  -0.239   0.274
    1UNL    H21   50   0.076  -0.285   0.186
    1UNL    H22   51  -0.259  -0.386  -0.191
    1UNL    H23   52  -0.363  -0.136  -0.219
    1UNL    H24   53  -0.065  -0.119  -0.117
   0.00000   0.00000   0.00000   0.00000   0.00000   0.00000   0.00000   0.00000   0.00000
Generated with MDTraj, t= 79.0
 53
    1UNL     C1    1  -0.344  -0.159   0.183
    1UNL     C2    2  -0.302  -0.040   0.105
    1UNL     C3    3  -0.225  -0.056  -0.024
    1UNL     C4    4  -0.219   0.087  -0.095
    1UNL     C5    5  -0.131   0.176  -0.011
    1UNL     C6    6  -0.153   0.320  -0.028
    1UNL     O1    7  -0.267   0.358  -0.055
    1UNL     O2    8  -0.051   0.401   0.010
    1UNL     C7    9  -0.088   0.538  -0.020
    1UNL     C8   10  -0.015   0.129   0.047
    1UNL     N1   11   0.107   0.197   0.052
    1UNL     C9   12   0.213   0.113   0.027
    1UNL    C10   13   0.346   0.146  -0.019
    1UNL    C11   14   0.427   0.042  -0.062
    1UNL     O3   15   0.556   0.086  -0.098
    1UNL    C12   16   0.643  -0.019  -0.081
    1UNL    C13   17   0.375  -0.089  -0.078
    1UNL    C14   18   0.257  -0.126  -0.025
    1UNL    C15   19   0.169  -0.017   0.017
    1UNL    C16   20   0.019  -0.019   0.054
    1UNL    C17   21   0.019  -0.077   0.206
    1UNL    C18   22  -0.015  -0.230   0.180
    1UNL     N2   23  -0.082  -0.236   0.052
    1UNL    C19   24  -0.164  -0.339   0.014
    1UNL     O4   25  -0.162  -0.446   0.069
    1UNL    C20   26  -0.260  -0.305  -0.097
    1UNL     O5   27  -0.383  -0.255  -0.057
    1UNL    C21   28  -0.297  -0.162  -0.118
    1UNL    C22   29  -0.080  -0.107  -0.016
    1UNL     H1   30  -0.263  -0.227   0.204
    1UNL     H2   31  -0.418  -0.219   0.110
    1UNL     H3   32  -0.384  -0.123   0.279
    1UNL     H4   33  -0.239   0.019   0.171
    1UNL     H5   34  -0.391   0.034   0.081
    1UNL     H6   35  -0.174   0.084  -0.196
    1UNL     H7   36  -0.327   0.129  -0.107
    1UNL     H8   37  -0.088   0.554  -0.124
    1UNL     H9   38  -0.009   0.605   0.019
    1UNL    H10   39  -0.183   0.556   0.035
    1UNL    H11   40   0.112   0.300   0.029
    1UNL    H12   41   0.375   0.246  -0.016
    1UNL    H13   42   0.739   0.010  -0.102
    1UNL    H14   43   0.627  -0.060   0.021
    1UNL    H15   44   0.610  -0.096  -0.156
    1UNL    H16   45   0.446  -0.157  -0.116
    1UNL    H17   46   0.235  -0.233  -0.017
    1UNL    H18   47   0.116  -0.070   0.252
    1UNL    H19   48  -0.050  -0.023   0.269
    1UNL    H20   49  -0.094  -0.265   0.252
    1UNL    H21   50   0.066  -0.301   0.169
    1UNL    H22   51  -0.246  -0.360  -0.190
    1UNL    H23   52  -0.330  -0.118  -0.218
    1UNL    H24   53  -0.044  -0.124  -0.116
   0.00000   0.00000   0.00000   0.00000   0.00000   0.00000   0.00000   0.00000   0.00000
Generated with MDTraj, t= 80.0
 53
    1UNL     C1    1  -0.329  -0.173   0.189
    1UNL     C2    2  -0.295  -0.050   0.108
    1UNL     C3    3  -0.217  -0.061  -0.026
    1UNL     C4    4  -0.212   0.089  -0.082
    1UNL     C5    5  -0.125   0.186  -0.001
    1UNL     C6    6  -0.151   0.329  -0.028
    1UNL     O1    7  -0.268   0.357  -0.059
    1UNL     O2    8  -0.055   0.415  -0.007
    1UNL     C7    9  -0.105   0.546  -0.036
    1UNL     C8   10  -0.013   0.129   0.053
    1UNL     N1   11   0.107   0.201   0.058
    1UNL     C9   12   0.216   0.116   0.034
    1UNL    C10   13   0.343   0.149  -0.008
    1UNL    C11   14   0.419   0.046  -0.058
    1UNL     O3   15   0.552   0.083  -0.085
    1UNL    C12   16   0.644  -0.022  -0.092
    1UNL    C13   17   0.375  -0.084  -0.074
    1UNL    C14   18   0.247  -0.119  -0.037
    1UNL    C15   19   0.173  -0.018   0.020
    1UNL    C16   20   0.029  -0.023   0.066
    1UNL    C17   21   0.023  -0.095   0.200
    1UNL    C18   22   0.006  -0.244   0.170
    1UNL     N2   23  -0.069  -0.253   0.039
    1UNL    C19   24  -0.176  -0.341   0.018
    1UNL     O4   25  -0.205  -0.429   0.099
    1UNL    C20   26  -0.258  -0.309  -0.104
    1UNL     O5   27  -0.389  -0.248  -0.076
    1UNL    C21   28  -0.289  -0.152  -0.127
    1UNL    C22   29  -0.072  -0.113  -0.019
    1UNL     H1   30  -0.249  -0.217   0.251
    1UNL     H2   31  -0.366  -0.263   0.124
    1UNL     H3   32  -0.397  -0.144   0.267
    1UNL     H4   33  -0.239   0.020   0.169
    1UNL     H5   34  -0.391   0.008   0.078
    1UNL     H6   35  -0.168   0.089  -0.183
    1UNL     H7   36  -0.316   0.139  -0.096
    1UNL     H8   37  -0.174   0.545  -0.113
    1UNL     H9   38  -0.024   0.613  -0.071
    1UNL    H10   39  -0.143   0.576   0.064
    1UNL    H11   40   0.111   0.299   0.021
    1UNL    H12   41   0.378   0.258  -0.005
    1UNL    H13   42   0.743   0.009  -0.095
    1UNL    H14   43   0.621  -0.097  -0.016
    1UNL    H15   44   0.618  -0.066  -0.190
    1UNL    H16   45   0.444  -0.155  -0.120
    1UNL    H17   46   0.212  -0.221  -0.019
    1UNL    H18   47   0.109  -0.078   0.250
    1UNL    H19   48  -0.061  -0.060   0.265
    1UNL    H20   49  -0.053  -0.315   0.240
    1UNL    H21   50   0.101  -0.285   0.147
    1UNL    H22   51  -0.285  -0.391  -0.162
    1UNL    H23   52  -0.309  -0.107  -0.225
    1UNL    H24   53  -0.032  -0.113  -0.120
   0.00000   0.00000   0.00000   0.00000   0.00000   0.00000   0.00000   0.00000   0.00000
Generated with MDTraj, t= 81.0
 53
    1UNL     C1    1  -0.344  -0.167   0.190
    1UNL     C2    2  -0.300  -0.041   0.106
    1UNL     C3    3  -0.229  -0.064  -0.027
    1UNL     C4    4  -0.220   0.076  -0.083
    1UNL     C5    5  -0.135   0.179  -0.006
    1UNL     C6    6  -0.156   0.317  -0.028
    1UNL     O1    7  -0.262   0.358  -0.072
    1UNL     O2    8  -0.051   0.393   0.005
    1UNL     C7    9  -0.081   0.529  -0.018
    1UNL     C8   10  -0.012   0.135   0.041
    1UNL     N1   11   0.105   0.202   0.063
    1UNL     C9   12   0.218   0.115   0.028
    1UNL    C10   13   0.350   0.144   0.002
    1UNL    C11   14   0.436   0.040  -0.039
    1UNL     O3   15   0.569   0.089  -0.062
    1UNL    C12   16   0.654  -0.004  -0.123
    1UNL    C13   17   0.379  -0.085  -0.061
    1UNL    C14   18   0.242  -0.112  -0.047
    1UNL    C15   19   0.168  -0.014  -0.002
    1UNL    C16   20   0.022  -0.015   0.056
    1UNL    C17   21   0.030  -0.077   0.189
    1UNL    C18   22  -0.000  -0.224   0.171
    1UNL     N2   23  -0.080  -0.240   0.039
    1UNL    C19   24  -0.171  -0.339   0.021
    1UNL     O4   25  -0.193  -0.438   0.090
    1UNL    C20   26  -0.269  -0.313  -0.095
    1UNL     O5   27  -0.390  -0.255  -0.063
    1UNL    C21   28  -0.305  -0.164  -0.118
    1UNL    C22   29  -0.081  -0.109  -0.025
    1UNL     H1   30  -0.264  -0.236   0.224
    1UNL     H2   31  -0.407  -0.230   0.140
    1UNL     H3   32  -0.384  -0.131   0.285
    1UNL     H4   33  -0.238   0.030   0.160
    1UNL     H5   34  -0.403   0.005   0.083
    1UNL     H6   35  -0.176   0.078  -0.184
    1UNL     H7   36  -0.327   0.115  -0.106
    1UNL     H8   37  -0.100   0.547  -0.119
    1UNL     H9   38   0.006   0.594   0.011
    1UNL    H10   39  -0.165   0.546   0.053
    1UNL    H11   40   0.110   0.299   0.036
    1UNL    H12   41   0.386   0.240   0.009
    1UNL    H13   42   0.750   0.036  -0.136
    1UNL    H14   43   0.655  -0.100  -0.071
    1UNL    H15   44   0.608  -0.027  -0.219
    1UNL    H16   45   0.438  -0.171  -0.080
    1UNL    H17   46   0.206  -0.206  -0.068
    1UNL    H18   47   0.121  -0.055   0.233
    1UNL    H19   48  -0.049  -0.033   0.252
    1UNL    H20   49  -0.069  -0.264   0.255
    1UNL    H21   50   0.090  -0.282   0.171
    1UNL    H22   51  -0.262  -0.368  -0.182
    1UNL    H23   52  -0.305  -0.138  -0.220
    1UNL    H24   53  -0.032  -0.130  -0.120
   0.00000   0.00000   0.00000   0.00000   0.00000   0.00000   0.00000   0.00000   0.00000
Generated with MDTraj, t= 82.0
 53
    1UNL     C1    1  -0.347  -0.152   0.195
    1UNL     C2    2  -0.295  -0.034   0.112
    1UNL     C3    3  -0.236  -0.062  -0.030
    1UNL     C4    4  -0.220   0.083  -0.091
    1UNL     C5    5  -0.128   0.179  -0.014
    1UNL     C6    6  -0.150   0.323  -0.037
    1UNL     O1    7  -0.248   0.363  -0.101
    1UNL     O2    8  -0.057   0.399   0.020
    1UNL     C7    9  -0.091   0.535   0.005
    1UNL     C8   10  -0.012   0.131   0.047
    1UNL     N1   11   0.106   0.205   0.058
    1UNL     C9   12   0.212   0.120   0.014
    1UNL    C10   13   0.345   0.139  -0.006
    1UNL    C11   14   0.434   0.034  -0.036
    1UNL     O3   15   0.565   0.085  -0.057
    1UNL    C12   16   0.655   0.012  -0.135
    1UNL    C13   17   0.388  -0.098  -0.048
    1UNL    C14   18   0.248  -0.122  -0.033
    1UNL    C15   19   0.167  -0.014   0.002
    1UNL    C16   20   0.024  -0.019   0.047
    1UNL    C17   21   0.021  -0.074   0.190
    1UNL    C18   22  -0.010  -0.227   0.177
    1UNL     N2   23  -0.078  -0.246   0.042
    1UNL    C19   24  -0.169  -0.348   0.016
    1UNL     O4   25  -0.177  -0.456   0.072
    1UNL    C20   26  -0.274  -0.318  -0.093
    1UNL     O5   27  -0.392  -0.253  -0.041
    1UNL    C21   28  -0.303  -0.168  -0.122
    1UNL    C22   29  -0.083  -0.106  -0.024
    1UNL     H1   30  -0.298  -0.244   0.186
    1UNL     H2   31  -0.444  -0.177   0.170
    1UNL     H3   32  -0.333  -0.127   0.300
    1UNL     H4   33  -0.219   0.027   0.163
    1UNL     H5   34  -0.390   0.025   0.098
    1UNL     H6   35  -0.189   0.070  -0.197
    1UNL     H7   36  -0.317   0.139  -0.110
    1UNL     H8   37  -0.056   0.572  -0.086
    1UNL     H9   38  -0.050   0.600   0.090
    1UNL    H10   39  -0.203   0.537   0.015
    1UNL    H11   40   0.117   0.296   0.019
    1UNL    H12   41   0.386   0.239  -0.009
    1UNL    H13   42   0.740   0.074  -0.160
    1UNL    H14   43   0.689  -0.081  -0.090
    1UNL    H15   44   0.607  -0.017  -0.229
    1UNL    H16   45   0.464  -0.177  -0.061
    1UNL    H17   46   0.211  -0.229  -0.062
    1UNL    H18   47   0.116  -0.053   0.245
    1UNL    H19   48  -0.051  -0.015   0.243
    1UNL    H20   49  -0.080  -0.262   0.261
    1UNL    H21   50   0.076  -0.292   0.177
    1UNL    H22   51  -0.298  -0.396  -0.164
    1UNL    H23   52  -0.335  -0.140  -0.216
    1UNL    H24   53  -0.043  -0.137  -0.121
   0.00000   0.00000   0.00000   0.00000   0.00000   0.00000   0.00000   0.00000   0.00000
Generated with MDTraj, t= 83.0
 53
    1UNL     C1    1  -0.327  -0.149   0.204
    1UNL     C2    2  -0.299  -0.038   0.112
    1UNL     C3    3  -0.224  -0.060  -0.024
    1UNL     C4    4  -0.217   0.086  -0.089
    1UNL     C5    5  -0.124   0.180  -0.018
    1UNL     C6    6  -0.147   0.321  -0.042
    1UNL     O1    7  -0.232   0.355  -0.127
    1UNL     O2    8  -0.077   0.407   0.039
    1UNL     C7    9  -0.123   0.535   0.011
    1UNL     C8   10  -0.015   0.140   0.049
    1UNL     N1   11   0.108   0.206   0.052
    1UNL     C9   12   0.218   0.118   0.026
    1UNL    C10   13   0.353   0.147   0.003
    1UNL    C11   14   0.431   0.046  -0.046
    1UNL     O3   15   0.568   0.083  -0.081
    1UNL    C12   16   0.638  -0.025  -0.133
    1UNL    C13   17   0.374  -0.089  -0.048
    1UNL    C14   18   0.243  -0.120  -0.025
    1UNL    C15   19   0.165  -0.010   0.011
    1UNL    C16   20   0.022  -0.014   0.055
    1UNL    C17   21   0.023  -0.085   0.198
    1UNL    C18   22   0.007  -0.236   0.168
    1UNL     N2   23  -0.077  -0.250   0.050
    1UNL    C19   24  -0.173  -0.344   0.019
    1UNL     O4   25  -0.191  -0.451   0.071
    1UNL    C20   26  -0.272  -0.312  -0.097
    1UNL     O5   27  -0.388  -0.248  -0.061
    1UNL    C21   28  -0.292  -0.166  -0.122
    1UNL    C22   29  -0.075  -0.115  -0.022
    1UNL     H1   30  -0.243  -0.190   0.249
    1UNL     H2   31  -0.376  -0.231   0.155
    1UNL     H3   32  -0.376  -0.116   0.287
    1UNL     H4   33  -0.237   0.037   0.164
    1UNL     H5   34  -0.394   0.005   0.072
    1UNL     H6   35  -0.210   0.090  -0.202
    1UNL     H7   36  -0.315   0.138  -0.083
    1UNL     H8   37  -0.118   0.559  -0.092
    1UNL     H9   38  -0.050   0.603   0.065
    1UNL    H10   39  -0.225   0.551   0.055
    1UNL    H11   40   0.108   0.304   0.065
    1UNL    H12   41   0.387   0.251   0.019
    1UNL    H13   42   0.739   0.012  -0.163
    1UNL    H14   43   0.652  -0.107  -0.060
    1UNL    H15   44   0.595  -0.069  -0.222
    1UNL    H16   45   0.445  -0.168  -0.060
    1UNL    H17   46   0.205  -0.216  -0.023
    1UNL    H18   47   0.122  -0.070   0.259
    1UNL    H19   48  -0.054  -0.044   0.255
    1UNL    H20   49  -0.052  -0.294   0.246
    1UNL    H21   50   0.097  -0.293   0.143
    1UNL    H22   51  -0.285  -0.388  -0.181
    1UNL    H23   52  -0.322  -0.127  -0.217
    1UNL    H24   53  -0.038  -0.119  -0.126
   0.00000   0.00000   0.00000   0.00000   0.00000   0.00000   0.00000   0.00000   0.00000
Generated with MDTraj, t= 84.0
 53
    1UNL     C1    1  -0.333  -0.164   0.185
    1UNL     C2    2  -0.301  -0.037   0.098
    1UNL     C3    3  -0.216  -0.059  -0.034
    1UNL     C4    4  -0.215   0.084  -0.094
    1UNL     C5    5  -0.120   0.171  -0.023
    1UNL     C6    6  -0.145   0.317  -0.030
    1UNL     O1    7  -0.229   0.355  -0.114
    1UNL     O2    8  -0.073   0.405   0.050
    1UNL     C7    9  -0.113   0.533   0.014
    1UNL     C8   10  -0.013   0.132   0.053
    1UNL     N1   11   0.101   0.214   0.065
    1UNL     C9   12   0.205   0.118   0.026
    1UNL    C10   13   0.339   0.148  -0.015
    1UNL    C11   14   0.420   0.040  -0.062
    1UNL     O3   15   0.549   0.080  -0.092
    1UNL    C12   16   0.635  -0.029  -0.114
    1UNL    C13   17   0.365  -0.094  -0.083
    1UNL    C14   18   0.239  -0.125  -0.032
    1UNL    C15   19   0.165  -0.017   0.021
    1UNL    C16   20   0.027  -0.010   0.068
    1UNL    C17   21   0.010  -0.078   0.205
    1UNL    C18   22   0.006  -0.228   0.177
    1UNL     N2   23  -0.062  -0.247   0.047
    1UNL    C19   24  -0.170  -0.335   0.029
    1UNL     O4   25  -0.193  -0.426   0.101
    1UNL    C20   26  -0.256  -0.317  -0.095
    1UNL     O5   27  -0.379  -0.250  -0.076
    1UNL    C21   28  -0.283  -0.163  -0.131
    1UNL    C22   29  -0.065  -0.108  -0.019
    1UNL     H1   30  -0.238  -0.202   0.230
    1UNL     H2   31  -0.377  -0.238   0.122
    1UNL     H3   32  -0.387  -0.137   0.267
    1UNL     H4   33  -0.241   0.034   0.159
    1UNL     H5   34  -0.398   0.003   0.061
    1UNL     H6   35  -0.193   0.093  -0.206
    1UNL     H7   36  -0.313   0.132  -0.095
    1UNL     H8   37  -0.094   0.556  -0.086
    1UNL     H9   38  -0.049   0.603   0.076
    1UNL    H10   39  -0.222   0.548   0.033
    1UNL    H11   40   0.115   0.316   0.054
    1UNL    H12   41   0.375   0.243   0.005
    1UNL    H13   42   0.741   0.016  -0.103
    1UNL    H14   43   0.621  -0.104  -0.035
    1UNL    H15   44   0.623  -0.083  -0.207
    1UNL    H16   45   0.423  -0.174  -0.122
    1UNL    H17   46   0.195  -0.222  -0.035
    1UNL    H18   47   0.103  -0.055   0.270
    1UNL    H19   48  -0.080  -0.052   0.260
    1UNL    H20   49  -0.044  -0.289   0.256
    1UNL    H21   50   0.106  -0.273   0.155
    1UNL    H22   51  -0.251  -0.394  -0.180
    1UNL    H23   52  -0.315  -0.127  -0.234
    1UNL    H24   53  -0.024  -0.115  -0.122
   0.00000   0.00000   0.00000   0.00000   0.00000   0.00000   0.00000   0.00000   0.00000
Generated with MDTraj, t= 85.0
 53
    1UNL     C1    1  -0.364  -0.166   0.158
    1UNL     C2    2  -0.310  -0.035   0.096
    1UNL     C3    3  -0.225  -0.058  -0.041
    1UNL     C4    4  -0.214   0.081  -0.097
    1UNL     C5    5  -0.118   0.168  -0.021
    1UNL     C6    6  -0.144   0.312  -0.018
    1UNL     O1    7  -0.240   0.358  -0.083
    1UNL     O2    8  -0.057   0.405   0.045
    1UNL     C7    9  -0.096   0.534   0.013
    1UNL     C8   10  -0.008   0.125   0.045
    1UNL     N1   11   0.107   0.199   0.060
    1UNL     C9   12   0.213   0.114   0.016
    1UNL    C10   13   0.339   0.147  -0.027
    1UNL    C11   14   0.426   0.046  -0.074
    1UNL     O3   15   0.560   0.097  -0.098
    1UNL    C12   16   0.650  -0.013  -0.108
    1UNL    C13   17   0.373  -0.086  -0.075
    1UNL    C14   18   0.242  -0.122  -0.035
    1UNL    C15   19   0.169  -0.019   0.011
    1UNL    C16   20   0.023  -0.019   0.058
    1UNL    C17   21   0.033  -0.073   0.207
    1UNL    C18   22  -0.026  -0.218   0.207
    1UNL     N2   23  -0.082  -0.237   0.064
    1UNL    C19   24  -0.169  -0.338   0.035
    1UNL     O4   25  -0.190  -0.438   0.101
    1UNL    C20   26  -0.247  -0.311  -0.095
    1UNL     O5   27  -0.381  -0.263  -0.076
    1UNL    C21   28  -0.293  -0.169  -0.132
    1UNL    C22   29  -0.076  -0.113  -0.012
    1UNL     H1   30  -0.284  -0.231   0.189
    1UNL     H2   31  -0.431  -0.218   0.098
    1UNL     H3   32  -0.415  -0.154   0.263
    1UNL     H4   33  -0.235   0.025   0.156
    1UNL     H5   34  -0.394   0.026   0.063
    1UNL     H6   35  -0.185   0.076  -0.207
    1UNL     H7   36  -0.306   0.137  -0.101
    1UNL     H8   37  -0.062   0.566  -0.080
    1UNL     H9   38  -0.037   0.595   0.085
    1UNL    H10   39  -0.204   0.549   0.020
    1UNL    H11   40   0.108   0.301   0.030
    1UNL    H12   41   0.375   0.253  -0.031
    1UNL    H13   42   0.754   0.040  -0.120
    1UNL    H14   43   0.646  -0.073  -0.015
    1UNL    H15   44   0.631  -0.081  -0.188
    1UNL    H16   45   0.437  -0.165  -0.121
    1UNL    H17   46   0.202  -0.229  -0.025
    1UNL    H18   47   0.134  -0.064   0.253
    1UNL    H19   48  -0.039   0.007   0.253
    1UNL    H20   49  -0.105  -0.226   0.283
    1UNL    H21   50   0.051  -0.299   0.229
    1UNL    H22   51  -0.234  -0.396  -0.167
    1UNL    H23   52  -0.297  -0.147  -0.246
    1UNL    H24   53  -0.028  -0.144  -0.109
   0.00000   0.00000   0.00000   0.00000   0.00000   0.00000   0.00000   0.00000   0.00000
Generated with MDTraj, t= 86.0
 53
    1UNL     C1    1  -0.379  -0.154   0.151
    1UNL     C2    2  -0.293  -0.039   0.108
    1UNL     C3    3  -0.224  -0.057  -0.032
    1UNL     C4    4  -0.221   0.083  -0.095
    1UNL     C5    5  -0.129   0.173  -0.020
    1UNL     C6    6  -0.159   0.319  -0.025
    1UNL     O1    7  -0.270   0.353  -0.068
    1UNL     O2    8  -0.055   0.402   0.016
    1UNL     C7    9  -0.095   0.532   0.012
    1UNL     C8   10  -0.014   0.127   0.046
    1UNL     N1   11   0.105   0.203   0.037
    1UNL     C9   12   0.218   0.120   0.026
    1UNL    C10   13   0.341   0.145  -0.022
    1UNL    C11   14   0.434   0.045  -0.057
    1UNL     O3   15   0.568   0.088  -0.098
    1UNL    C12   16   0.665  -0.014  -0.124
    1UNL    C13   17   0.391  -0.085  -0.060
    1UNL    C14   18   0.261  -0.121  -0.018
    1UNL    C15   19   0.176  -0.017   0.020
    1UNL    C16   20   0.031  -0.019   0.064
    1UNL    C17   21   0.036  -0.084   0.210
    1UNL    C18   22  -0.026  -0.225   0.197
    1UNL     N2   23  -0.078  -0.244   0.060
    1UNL    C19   24  -0.170  -0.342   0.023
    1UNL     O4   25  -0.197  -0.438   0.094
    1UNL    C20   26  -0.259  -0.310  -0.104
    1UNL     O5   27  -0.385  -0.259  -0.069
    1UNL    C21   28  -0.294  -0.160  -0.123
    1UNL    C22   29  -0.070  -0.111  -0.014
    1UNL     H1   30  -0.321  -0.241   0.159
    1UNL     H2   31  -0.465  -0.166   0.083
    1UNL     H3   32  -0.417  -0.146   0.263
    1UNL     H4   33  -0.215  -0.018   0.190
    1UNL     H5   34  -0.367   0.042   0.093
    1UNL     H6   35  -0.195   0.080  -0.206
    1UNL     H7   36  -0.319   0.126  -0.091
    1UNL     H8   37  -0.145   0.551  -0.079
    1UNL     H9   38  -0.008   0.601   0.013
    1UNL    H10   39  -0.168   0.553   0.090
    1UNL    H11   40   0.109   0.301  -0.003
    1UNL    H12   41   0.366   0.248  -0.034
    1UNL    H13   42   0.764   0.047  -0.122
    1UNL    H14   43   0.665  -0.089  -0.045
    1UNL    H15   44   0.651  -0.064  -0.217
    1UNL    H16   45   0.467  -0.154  -0.080
    1UNL    H17   46   0.233  -0.219  -0.026
    1UNL    H18   47   0.139  -0.072   0.250
    1UNL    H19   48  -0.041  -0.020   0.274
    1UNL    H20   49  -0.110  -0.238   0.264
    1UNL    H21   50   0.050  -0.307   0.224
    1UNL    H22   51  -0.266  -0.371  -0.192
    1UNL    H23   52  -0.327  -0.131  -0.230
    1UNL    H24   53  -0.038  -0.141  -0.117
   0.00000   0.00000   0.00000   0.00000   0.00000   0.00000   0.00000   0.00000   0.00000
Generated with MDTraj, t= 87.0
 53
    1UNL     C1    1  -0.357  -0.168   0.161
    1UNL     C2    2  -0.296  -0.043   0.105
    1UNL     C3    3  -0.225  -0.056  -0.030
    1UNL     C4    4  -0.228   0.087  -0.086
    1UNL     C5    5  -0.136   0.182  -0.007
    1UNL     C6    6  -0.168   0.324  -0.023
    1UNL     O1    7  -0.282   0.357  -0.056
    1UNL     O2    8  -0.067   0.415  -0.003
    1UNL     C7    9  -0.111   0.544  -0.006
    1UNL     C8   10  -0.016   0.135   0.048
    1UNL     N1   11   0.106   0.201   0.043
    1UNL     C9   12   0.221   0.114   0.021
    1UNL    C10   13   0.353   0.142  -0.008
    1UNL    C11   14   0.438   0.036  -0.042
    1UNL     O3   15   0.571   0.072  -0.074
    1UNL    C12   16   0.652  -0.028  -0.138
    1UNL    C13   17   0.386  -0.098  -0.045
    1UNL    C14   18   0.254  -0.124  -0.027
    1UNL    C15   19   0.173  -0.016   0.006
    1UNL    C16   20   0.029  -0.017   0.061
    1UNL    C17   21   0.033  -0.086   0.203
    1UNL    C18   22  -0.014  -0.230   0.185
    1UNL     N2   23  -0.065  -0.243   0.050
    1UNL    C19   24  -0.164  -0.331   0.019
    1UNL     O4   25  -0.190  -0.422   0.096
    1UNL    C20   26  -0.255  -0.312  -0.100
    1UNL     O5   27  -0.380  -0.251  -0.071
    1UNL    C21   28  -0.290  -0.161  -0.129
    1UNL    C22   29  -0.069  -0.109  -0.021
    1UNL     H1   30  -0.277  -0.235   0.199
    1UNL     H2   31  -0.435  -0.224   0.095
    1UNL     H3   32  -0.407  -0.151   0.260
    1UNL     H4   33  -0.229  -0.003   0.185
    1UNL     H5   34  -0.385   0.020   0.089
    1UNL     H6   35  -0.196   0.077  -0.192
    1UNL     H7   36  -0.328   0.128  -0.087
    1UNL     H8   37  -0.167   0.556  -0.095
    1UNL     H9   38  -0.028   0.618  -0.016
    1UNL    H10   39  -0.180   0.564   0.076
    1UNL    H11   40   0.114   0.304   0.045
    1UNL    H12   41   0.378   0.244  -0.023
    1UNL    H13   42   0.705   0.024  -0.226
    1UNL    H14   43   0.723  -0.070  -0.067
    1UNL    H15   44   0.596  -0.111  -0.167
    1UNL    H16   45   0.456  -0.177  -0.066
    1UNL    H17   46   0.205  -0.225  -0.028
    1UNL    H18   47   0.141  -0.076   0.234
    1UNL    H19   48  -0.027  -0.051   0.294
    1UNL    H20   49  -0.085  -0.276   0.254
    1UNL    H21   50   0.075  -0.306   0.188
    1UNL    H22   51  -0.264  -0.393  -0.166
    1UNL    H23   52  -0.303  -0.116  -0.229
    1UNL    H24   53  -0.036  -0.108  -0.129
   0.00000   0.00000   0.00000   0.00000   0.00000   0.00000   0.00000   0.00000   0.00000
Generated with MDTraj, t= 88.0
 53
    1UNL     C1    1  -0.320  -0.166   0.185
    1UNL     C2    2  -0.312  -0.043   0.094
    1UNL     C3    3  -0.225  -0.059  -0.035
    1UNL     C4    4  -0.230   0.090  -0.087
    1UNL     C5    5  -0.129   0.184  -0.012
    1UNL     C6    6  -0.163   0.322  -0.024
    1UNL     O1    7  -0.275   0.364  -0.056
    1UNL     O2    8  -0.065   0.410   0.011
    1UNL     C7    9  -0.100   0.540  -0.015
    1UNL     C8   10  -0.015   0.139   0.045
    1UNL     N1   11   0.109   0.203   0.048
    1UNL     C9   12   0.214   0.108   0.011
    1UNL    C10   13   0.351   0.134  -0.010
    1UNL    C11   14   0.435   0.027  -0.035
    1UNL     O3   15   0.574   0.052  -0.040
    1UNL    C12   16   0.635  -0.005  -0.148
    1UNL    C13   17   0.375  -0.104  -0.054
    1UNL    C14   18   0.245  -0.130  -0.037
    1UNL    C15   19   0.160  -0.019   0.001
    1UNL    C16   20   0.013  -0.010   0.057
    1UNL    C17   21   0.019  -0.066   0.206
    1UNL    C18   22  -0.011  -0.220   0.188
    1UNL     N2   23  -0.070  -0.235   0.048
    1UNL    C19   24  -0.160  -0.337   0.015
    1UNL     O4   25  -0.171  -0.437   0.084
    1UNL    C20   26  -0.245  -0.306  -0.098
    1UNL     O5   27  -0.377  -0.252  -0.066
    1UNL    C21   28  -0.294  -0.163  -0.130
    1UNL    C22   29  -0.074  -0.106  -0.020
    1UNL     H1   30  -0.227  -0.162   0.258
    1UNL     H2   31  -0.334  -0.276   0.141
    1UNL     H3   32  -0.395  -0.165   0.261
    1UNL     H4   33  -0.260   0.037   0.148
    1UNL     H5   34  -0.419  -0.019   0.073
    1UNL     H6   35  -0.217   0.101  -0.193
    1UNL     H7   36  -0.331   0.122  -0.060
    1UNL     H8   37  -0.087   0.554  -0.123
    1UNL     H9   38  -0.034   0.619   0.031
    1UNL    H10   39  -0.206   0.555   0.007
    1UNL    H11   40   0.111   0.287  -0.004
    1UNL    H12   41   0.398   0.235  -0.007
    1UNL    H13   42   0.673   0.076  -0.215
    1UNL    H14   43   0.715  -0.066  -0.111
    1UNL    H15   44   0.568  -0.071  -0.199
    1UNL    H16   45   0.438  -0.188  -0.080
    1UNL    H17   46   0.202  -0.229  -0.032
    1UNL    H18   47   0.124  -0.053   0.253
    1UNL    H19   48  -0.046  -0.024   0.277
    1UNL    H20   49  -0.071  -0.272   0.264
    1UNL    H21   50   0.085  -0.283   0.184
    1UNL    H22   51  -0.255  -0.375  -0.177
    1UNL    H23   52  -0.335  -0.133  -0.222
    1UNL    H24   53  -0.031  -0.122  -0.122
   0.00000   0.00000   0.00000   0.00000   0.00000   0.00000   0.00000   0.00000   0.00000
Generated with MDTraj, t= 89.0
 53
    1UNL     C1    1  -0.327  -0.160   0.194
    1UNL     C2    2  -0.297  -0.031   0.112
    1UNL     C3    3  -0.222  -0.056  -0.031
    1UNL     C4    4  -0.230   0.090  -0.092
    1UNL     C5    5  -0.124   0.181  -0.027
    1UNL     C6    6  -0.144   0.325  -0.042
    1UNL     O1    7  -0.247   0.361  -0.099
    1UNL     O2    8  -0.052   0.403   0.018
    1UNL     C7    9  -0.091   0.533   0.003
    1UNL     C8   10  -0.013   0.129   0.033
    1UNL     N1   11   0.103   0.200   0.056
    1UNL     C9   12   0.213   0.116   0.023
    1UNL    C10   13   0.343   0.148   0.008
    1UNL    C11   14   0.430   0.043  -0.022
    1UNL     O3   15   0.562   0.070  -0.055
    1UNL    C12   16   0.609  -0.009  -0.162
    1UNL    C13   17   0.387  -0.088  -0.038
    1UNL    C14   18   0.254  -0.118  -0.019
    1UNL    C15   19   0.163  -0.015   0.012
    1UNL    C16   20   0.021  -0.015   0.053
    1UNL    C17   21   0.007  -0.078   0.202
    1UNL    C18   22  -0.005  -0.228   0.171
    1UNL     N2   23  -0.073  -0.239   0.038
    1UNL    C19   24  -0.162  -0.343   0.009
    1UNL     O4   25  -0.165  -0.453   0.062
    1UNL    C20   26  -0.269  -0.312  -0.096
    1UNL     O5   27  -0.387  -0.266  -0.043
    1UNL    C21   28  -0.311  -0.164  -0.117
    1UNL    C22   29  -0.074  -0.105  -0.025
    1UNL     H1   30  -0.234  -0.202   0.242
    1UNL     H2   31  -0.395  -0.235   0.142
    1UNL     H3   32  -0.381  -0.126   0.283
    1UNL     H4   33  -0.244   0.041   0.173
    1UNL     H5   34  -0.392   0.017   0.083
    1UNL     H6   35  -0.202   0.084  -0.192
    1UNL     H7   36  -0.328   0.139  -0.076
    1UNL     H8   37  -0.114   0.546  -0.105
    1UNL     H9   38  -0.019   0.614   0.032
    1UNL    H10   39  -0.187   0.543   0.055
    1UNL    H11   40   0.106   0.299   0.067
    1UNL    H12   41   0.382   0.241   0.029
    1UNL    H13   42   0.713   0.011  -0.187
    1UNL    H14   43   0.602  -0.112  -0.139
    1UNL    H15   44   0.551   0.018  -0.249
    1UNL    H16   45   0.460  -0.166  -0.041
    1UNL    H17   46   0.212  -0.216  -0.027
    1UNL    H18   47   0.097  -0.063   0.273
    1UNL    H19   48  -0.075  -0.037   0.248
    1UNL    H20   49  -0.057  -0.281   0.253
    1UNL    H21   50   0.104  -0.262   0.166
    1UNL    H22   51  -0.266  -0.382  -0.182
    1UNL    H23   52  -0.346  -0.127  -0.208
    1UNL    H24   53  -0.041  -0.136  -0.126
   0.00000   0.00000   0.00000   0.00000   0.00000   0.00000   0.00000   0.00000   0.00000
Generated with MDTraj, t= 90.0
 53
    1UNL     C1    1  -0.342  -0.152   0.198
    1UNL     C2    2  -0.303  -0.033   0.116
    1UNL     C3    3  -0.224  -0.060  -0.019
    1UNL     C4    4  -0.212   0.078  -0.083
    1UNL     C5    5  -0.117   0.173  -0.016
    1UNL     C6    6  -0.131   0.314  -0.045
    1UNL     O1    7  -0.213   0.347  -0.130
    1UNL     O2    8  -0.067   0.414   0.033
    1UNL     C7    9  -0.104   0.537  -0.009
    1UNL     C8   10  -0.010   0.123   0.060
    1UNL     N1   11   0.106   0.191   0.069
    1UNL     C9   12   0.216   0.109   0.033
    1UNL    C10   13   0.339   0.144  -0.006
    1UNL    C11   14   0.430   0.048  -0.052
    1UNL     O3   15   0.557   0.100  -0.071
    1UNL    C12   16   0.633   0.016  -0.152
    1UNL    C13   17   0.383  -0.083  -0.056
    1UNL    C14   18   0.251  -0.114  -0.023
    1UNL    C15   19   0.165  -0.024   0.026
    1UNL    C16   20   0.021  -0.028   0.066
    1UNL    C17   21   0.007  -0.086   0.207
    1UNL    C18   22  -0.012  -0.242   0.185
    1UNL     N2   23  -0.075  -0.252   0.047
    1UNL    C19   24  -0.171  -0.343   0.014
    1UNL     O4   25  -0.181  -0.452   0.061
    1UNL    C20   26  -0.272  -0.305  -0.103
    1UNL     O5   27  -0.391  -0.241  -0.056
    1UNL    C21   28  -0.301  -0.155  -0.119
    1UNL    C22   29  -0.079  -0.120  -0.022
    1UNL     H1   30  -0.390  -0.222   0.141
    1UNL     H2   31  -0.396  -0.122   0.287
    1UNL     H3   32  -0.246  -0.208   0.220
    1UNL     H4   33  -0.253   0.038   0.176
    1UNL     H5   34  -0.391   0.016   0.073
    1UNL     H6   35  -0.172   0.075  -0.179
    1UNL     H7   36  -0.314   0.121  -0.075
    1UNL     H8   37  -0.119   0.539  -0.121
    1UNL     H9   38  -0.027   0.609   0.020
    1UNL    H10   39  -0.195   0.559   0.045
    1UNL    H11   40   0.092   0.286   0.028
    1UNL    H12   41   0.370   0.250  -0.005
    1UNL    H13   42   0.701   0.063  -0.218
    1UNL    H14   43   0.686  -0.057  -0.093
    1UNL    H15   44   0.561  -0.027  -0.223
    1UNL    H16   45   0.448  -0.161  -0.095
    1UNL    H17   46   0.224  -0.219  -0.027
    1UNL    H18   47   0.090  -0.054   0.272
    1UNL    H19   48  -0.084  -0.047   0.251
    1UNL    H20   49  -0.089  -0.278   0.257
    1UNL    H21   50   0.088  -0.295   0.191
    1UNL    H22   51  -0.292  -0.382  -0.186
    1UNL    H23   52  -0.336  -0.130  -0.218
    1UNL    H24   53  -0.052  -0.121  -0.128
   0.00000   0.00000   0.00000   0.00000   0.00000   0.00000   0.00000   0.00000   0.00000
Generated with MDTraj, t= 91.0
 53
    1UNL     C1    1  -0.355  -0.163   0.182
    1UNL     C2    2  -0.292  -0.047   0.110
    1UNL     C3    3  -0.220  -0.061  -0.031
    1UNL     C4    4  -0.207   0.076  -0.099
    1UNL     C5    5  -0.123   0.169  -0.019
    1UNL     C6    6  -0.138   0.315  -0.038
    1UNL     O1    7  -0.214   0.348  -0.129
    1UNL     O2    8  -0.064   0.402   0.040
    1UNL     C7    9  -0.069   0.537   0.000
    1UNL     C8   10  -0.018   0.126   0.055
    1UNL     N1   11   0.102   0.202   0.092
    1UNL     C9   12   0.206   0.119   0.045
    1UNL    C10   13   0.331   0.158   0.007
    1UNL    C11   14   0.415   0.056  -0.050
    1UNL     O3   15   0.537   0.097  -0.099
    1UNL    C12   16   0.635  -0.000  -0.134
    1UNL    C13   17   0.369  -0.071  -0.076
    1UNL    C14   18   0.241  -0.110  -0.044
    1UNL    C15   19   0.162  -0.015   0.014
    1UNL    C16   20   0.021  -0.024   0.064
    1UNL    C17   21   0.034  -0.089   0.205
    1UNL    C18   22  -0.017  -0.234   0.188
    1UNL     N2   23  -0.064  -0.253   0.048
    1UNL    C19   24  -0.172  -0.344   0.026
    1UNL     O4   25  -0.198  -0.440   0.096
    1UNL    C20   26  -0.263  -0.311  -0.096
    1UNL     O5   27  -0.390  -0.246  -0.071
    1UNL    C21   28  -0.292  -0.165  -0.122
    1UNL    C22   29  -0.072  -0.118  -0.018
    1UNL     H1   30  -0.436  -0.206   0.130
    1UNL     H2   31  -0.380  -0.136   0.279
    1UNL     H3   32  -0.292  -0.249   0.175
    1UNL     H4   33  -0.213  -0.008   0.170
    1UNL     H5   34  -0.365   0.032   0.098
    1UNL     H6   35  -0.157   0.048  -0.187
    1UNL     H7   36  -0.302   0.129  -0.113
    1UNL     H8   37   0.008   0.560  -0.078
    1UNL     H9   38  -0.065   0.601   0.086
    1UNL    H10   39  -0.167   0.545  -0.042
    1UNL    H11   40   0.120   0.305   0.068
    1UNL    H12   41   0.377   0.255   0.027
    1UNL    H13   42   0.732   0.038  -0.132
    1UNL    H14   43   0.634  -0.088  -0.067
    1UNL    H15   44   0.622  -0.022  -0.242
    1UNL    H16   45   0.429  -0.148  -0.119
    1UNL    H17   46   0.211  -0.209  -0.069
    1UNL    H18   47   0.132  -0.088   0.234
    1UNL    H19   48  -0.014  -0.033   0.291
    1UNL    H20   49  -0.104  -0.264   0.250
    1UNL    H21   50   0.058  -0.319   0.184
    1UNL    H22   51  -0.246  -0.383  -0.184
    1UNL    H23   52  -0.312  -0.127  -0.228
    1UNL    H24   53  -0.035  -0.126  -0.120
   0.00000   0.00000   0.00000   0.00000   0.00000   0.00000   0.00000   0.00000   0.00000
Generated with MDTraj, t= 92.0
 53
    1UNL     C1    1  -0.363  -0.165   0.175
    1UNL     C2    2  -0.331  -0.039   0.087
    1UNL     C3    3  -0.227  -0.059  -0.024
    1UNL     C4    4  -0.206   0.078  -0.093
    1UNL     C5    5  -0.126   0.170  -0.012
    1UNL     C6    6  -0.139   0.316  -0.028
    1UNL     O1    7  -0.228   0.355  -0.105
    1UNL     O2    8  -0.053   0.404   0.039
    1UNL     C7    9  -0.071   0.540   0.010
    1UNL     C8   10  -0.020   0.127   0.061
    1UNL     N1   11   0.103   0.198   0.072
    1UNL     C9   12   0.214   0.117   0.032
    1UNL    C10   13   0.346   0.151  -0.010
    1UNL    C11   14   0.423   0.054  -0.068
    1UNL     O3   15   0.557   0.097  -0.105
    1UNL    C12   16   0.658  -0.000  -0.117
    1UNL    C13   17   0.369  -0.076  -0.088
    1UNL    C14   18   0.239  -0.106  -0.055
    1UNL    C15   19   0.165  -0.011   0.010
    1UNL    C16   20   0.015  -0.021   0.067
    1UNL    C17   21   0.026  -0.087   0.210
    1UNL    C18   22  -0.011  -0.229   0.192
    1UNL     N2   23  -0.082  -0.242   0.064
    1UNL    C19   24  -0.173  -0.344   0.032
    1UNL     O4   25  -0.199  -0.439   0.105
    1UNL    C20   26  -0.249  -0.319  -0.095
    1UNL     O5   27  -0.382  -0.267  -0.085
    1UNL    C21   28  -0.289  -0.166  -0.124
    1UNL    C22   29  -0.079  -0.118  -0.008
    1UNL     H1   30  -0.433  -0.231   0.122
    1UNL     H2   31  -0.395  -0.140   0.268
    1UNL     H3   32  -0.285  -0.229   0.177
    1UNL     H4   33  -0.285   0.031   0.152
    1UNL     H5   34  -0.426  -0.007   0.054
    1UNL     H6   35  -0.161   0.063  -0.188
    1UNL     H7   36  -0.308   0.112  -0.109
    1UNL     H8   37   0.012   0.569  -0.061
    1UNL     H9   38  -0.067   0.587   0.104
    1UNL    H10   39  -0.166   0.546  -0.036
    1UNL    H11   40   0.100   0.299   0.040
    1UNL    H12   41   0.389   0.242   0.007
    1UNL    H13   42   0.754   0.039  -0.111
    1UNL    H14   43   0.647  -0.077  -0.035
    1UNL    H15   44   0.653  -0.037  -0.224
    1UNL    H16   45   0.435  -0.152  -0.130
    1UNL    H17   46   0.188  -0.202  -0.058
    1UNL    H18   47   0.118  -0.082   0.253
    1UNL    H19   48  -0.037  -0.022   0.279
    1UNL    H20   49  -0.066  -0.284   0.275
    1UNL    H21   50   0.085  -0.281   0.170
    1UNL    H22   51  -0.255  -0.396  -0.178
    1UNL    H23   52  -0.300  -0.127  -0.233
    1UNL    H24   53  -0.032  -0.148  -0.100
   0.00000   0.00000   0.00000   0.00000   0.00000   0.00000   0.00000   0.00000   0.00000
Generated with MDTraj, t= 93.0
 53
    1UNL     C1    1  -0.336  -0.156   0.191
    1UNL     C2    2  -0.289  -0.038   0.105
    1UNL     C3    3  -0.213  -0.059  -0.036
    1UNL     C4    4  -0.210   0.085  -0.093
    1UNL     C5    5  -0.124   0.177  -0.018
    1UNL     C6    6  -0.158   0.319  -0.026
    1UNL     O1    7  -0.257   0.353  -0.089
    1UNL     O2    8  -0.068   0.406   0.033
    1UNL     C7    9  -0.108   0.535   0.015
    1UNL     C8   10  -0.012   0.130   0.050
    1UNL     N1   11   0.108   0.201   0.052
    1UNL     C9   12   0.212   0.113   0.018
    1UNL    C10   13   0.346   0.147  -0.025
    1UNL    C11   14   0.431   0.044  -0.062
    1UNL     O3   15   0.556   0.084  -0.096
    1UNL    C12   16   0.651  -0.018  -0.117
    1UNL    C13   17   0.382  -0.091  -0.062
    1UNL    C14   18   0.254  -0.118  -0.023
    1UNL    C15   19   0.168  -0.018   0.023
    1UNL    C16   20   0.024  -0.017   0.067
    1UNL    C17   21   0.002  -0.082   0.208
    1UNL    C18   22  -0.026  -0.236   0.190
    1UNL     N2   23  -0.067  -0.252   0.047
    1UNL    C19   24  -0.166  -0.337   0.015
    1UNL     O4   25  -0.189  -0.433   0.088
    1UNL    C20   26  -0.258  -0.308  -0.102
    1UNL     O5   27  -0.384  -0.244  -0.073
    1UNL    C21   28  -0.290  -0.163  -0.129
    1UNL    C22   29  -0.071  -0.111  -0.021
    1UNL     H1   30  -0.350  -0.246   0.133
    1UNL     H2   31  -0.426  -0.136   0.236
    1UNL     H3   32  -0.281  -0.204   0.266
    1UNL     H4   33  -0.233   0.024   0.172
    1UNL     H5   34  -0.375   0.015   0.077
    1UNL     H6   35  -0.166   0.078  -0.191
    1UNL     H7   36  -0.306   0.125  -0.113
    1UNL     H8   37  -0.157   0.535  -0.089
    1UNL     H9   38  -0.018   0.591   0.029
    1UNL    H10   39  -0.178   0.555   0.093
    1UNL    H11   40   0.103   0.295   0.011
    1UNL    H12   41   0.368   0.258  -0.037
    1UNL    H13   42   0.738   0.021  -0.160
    1UNL    H14   43   0.678  -0.063  -0.017
    1UNL    H15   44   0.616  -0.094  -0.198
    1UNL    H16   45   0.440  -0.172  -0.103
    1UNL    H17   46   0.221  -0.219  -0.026
    1UNL    H18   47   0.089  -0.048   0.265
    1UNL    H19   48  -0.070  -0.027   0.272
    1UNL    H20   49  -0.109  -0.278   0.257
    1UNL    H21   50   0.063  -0.287   0.229
    1UNL    H22   51  -0.270  -0.383  -0.180
    1UNL    H23   52  -0.304  -0.122  -0.233
    1UNL    H24   53  -0.038  -0.128  -0.122
   0.00000   0.00000   0.00000   0.00000   0.00000   0.00000   0.00000   0.00000   0.00000
Generated with MDTraj, t= 94.0
 53
    1UNL     C1    1  -0.326  -0.151   0.184
    1UNL     C2    2  -0.299  -0.032   0.095
    1UNL     C3    3  -0.222  -0.056  -0.035
    1UNL     C4    4  -0.222   0.085  -0.100
    1UNL     C5    5  -0.127   0.181  -0.028
    1UNL     C6    6  -0.166   0.320  -0.028
    1UNL     O1    7  -0.277   0.358  -0.070
    1UNL     O2    8  -0.072   0.415   0.018
    1UNL     C7    9  -0.132   0.542   0.027
    1UNL     C8   10  -0.013   0.137   0.038
    1UNL     N1   11   0.115   0.200   0.046
    1UNL     C9   12   0.216   0.111   0.008
    1UNL    C10   13   0.348   0.140  -0.012
    1UNL    C11   14   0.439   0.036  -0.033
    1UNL     O3   15   0.561   0.066  -0.083
    1UNL    C12   16   0.636  -0.046  -0.128
    1UNL    C13   17   0.393  -0.094  -0.027
    1UNL    C14   18   0.255  -0.123  -0.008
    1UNL    C15   19   0.164  -0.018   0.001
    1UNL    C16   20   0.025  -0.014   0.051
    1UNL    C17   21   0.029  -0.082   0.200
    1UNL    C18   22   0.001  -0.228   0.170
    1UNL     N2   23  -0.081  -0.233   0.046
    1UNL    C19   24  -0.166  -0.337   0.014
    1UNL     O4   25  -0.155  -0.440   0.079
    1UNL    C20   26  -0.267  -0.317  -0.094
    1UNL     O5   27  -0.388  -0.242  -0.059
    1UNL    C21   28  -0.289  -0.161  -0.127
    1UNL    C22   29  -0.076  -0.102  -0.020
    1UNL     H1   30  -0.384  -0.216   0.130
    1UNL     H2   31  -0.381  -0.122   0.272
    1UNL     H3   32  -0.243  -0.223   0.199
    1UNL     H4   33  -0.244   0.037   0.155
    1UNL     H5   34  -0.393   0.006   0.068
    1UNL     H6   35  -0.202   0.081  -0.206
    1UNL     H7   36  -0.318   0.126  -0.100
    1UNL     H8   37  -0.229   0.529  -0.035
    1UNL     H9   38  -0.066   0.619  -0.012
    1UNL    H10   39  -0.159   0.567   0.128
    1UNL    H11   40   0.109   0.296   0.020
    1UNL    H12   41   0.375   0.248  -0.012
    1UNL    H13   42   0.731  -0.010  -0.158
    1UNL    H14   43   0.652  -0.117  -0.042
    1UNL    H15   44   0.594  -0.094  -0.225
    1UNL    H16   45   0.460  -0.177  -0.024
    1UNL    H17   46   0.222  -0.226  -0.017
    1UNL    H18   47   0.132  -0.067   0.254
    1UNL    H19   48  -0.042  -0.041   0.270
    1UNL    H20   49  -0.071  -0.271   0.252
    1UNL    H21   50   0.085  -0.295   0.156
    1UNL    H22   51  -0.235  -0.360  -0.186
    1UNL    H23   52  -0.316  -0.136  -0.226
    1UNL    H24   53  -0.039  -0.114  -0.119
   0.00000   0.00000   0.00000   0.00000   0.00000   0.00000   0.00000   0.00000   0.00000
Generated with MDTraj, t= 95.0
 53
    1UNL     C1    1  -0.330  -0.156   0.193
    1UNL     C2    2  -0.318  -0.037   0.105
    1UNL     C3    3  -0.234  -0.051  -0.029
    1UNL     C4    4  -0.231   0.088  -0.095
    1UNL     C5    5  -0.131   0.182  -0.028
    1UNL     C6    6  -0.167   0.323  -0.024
    1UNL     O1    7  -0.279   0.358  -0.059
    1UNL     O2    8  -0.070   0.405   0.022
    1UNL     C7    9  -0.113   0.533   0.018
    1UNL     C8   10  -0.017   0.133   0.031
    1UNL     N1   11   0.110   0.200   0.030
    1UNL     C9   12   0.218   0.117   0.009
    1UNL    C10   13   0.353   0.133  -0.011
    1UNL    C11   14   0.439   0.029  -0.043
    1UNL     O3   15   0.580   0.054  -0.039
    1UNL    C12   16   0.646  -0.027  -0.129
    1UNL    C13   17   0.385  -0.101  -0.059
    1UNL    C14   18   0.245  -0.116  -0.047
    1UNL    C15   19   0.168  -0.016  -0.001
    1UNL    C16   20   0.019  -0.008   0.046
    1UNL    C17   21   0.017  -0.068   0.195
    1UNL    C18   22   0.001  -0.221   0.184
    1UNL     N2   23  -0.067  -0.232   0.050
    1UNL    C19   24  -0.158  -0.331   0.020
    1UNL     O4   25  -0.172  -0.426   0.091
    1UNL    C20   26  -0.244  -0.307  -0.104
    1UNL     O5   27  -0.371  -0.267  -0.069
    1UNL    C21   28  -0.298  -0.162  -0.126
    1UNL    C22   29  -0.083  -0.103  -0.018
    1UNL     H1   30  -0.381  -0.227   0.135
    1UNL     H2   31  -0.383  -0.135   0.288
    1UNL     H3   32  -0.235  -0.209   0.201
    1UNL     H4   33  -0.263   0.042   0.154
    1UNL     H5   34  -0.409   0.002   0.076
    1UNL     H6   35  -0.213   0.079  -0.201
    1UNL     H7   36  -0.322   0.137  -0.091
    1UNL     H8   37  -0.116   0.558  -0.096
    1UNL     H9   38  -0.053   0.600   0.079
    1UNL    H10   39  -0.216   0.541   0.050
    1UNL    H11   40   0.117   0.295   0.004
    1UNL    H12   41   0.405   0.218  -0.006
    1UNL    H13   42   0.738   0.023  -0.150
    1UNL    H14   43   0.670  -0.122  -0.077
    1UNL    H15   44   0.596  -0.039  -0.231
    1UNL    H16   45   0.441  -0.190  -0.091
    1UNL    H17   46   0.206  -0.215  -0.049
    1UNL    H18   47   0.116  -0.056   0.260
    1UNL    H19   48  -0.063  -0.035   0.258
    1UNL    H20   49  -0.071  -0.267   0.263
    1UNL    H21   50   0.087  -0.286   0.167
    1UNL    H22   51  -0.251  -0.397  -0.158
    1UNL    H23   52  -0.342  -0.125  -0.210
    1UNL    H24   53  -0.050  -0.120  -0.118
   0.00000   0.00000   0.00000   0.00000   0.00000   0.00000   0.00000   0.00000   0.00000
Generated with MDTraj, t= 96.0
 53
    1UNL     C1    1  -0.335  -0.181   0.183
    1UNL     C2    2  -0.295  -0.056   0.104
    1UNL     C3    3  -0.217  -0.060  -0.032
    1UNL     C4    4  -0.216   0.082  -0.094
    1UNL     C5    5  -0.128   0.179  -0.024
    1UNL     C6    6  -0.157   0.322  -0.027
    1UNL     O1    7  -0.258   0.362  -0.080
    1UNL     O2    8  -0.062   0.411   0.025
    1UNL     C7    9  -0.095   0.542   0.006
    1UNL     C8   10  -0.016   0.131   0.042
    1UNL     N1   11   0.102   0.201   0.048
    1UNL     C9   12   0.211   0.118   0.016
    1UNL    C10   13   0.341   0.151  -0.018
    1UNL    C11   14   0.433   0.051  -0.044
    1UNL     O3   15   0.568   0.077  -0.058
    1UNL    C12   16   0.654  -0.021  -0.120
    1UNL    C13   17   0.380  -0.083  -0.068
    1UNL    C14   18   0.246  -0.114  -0.049
    1UNL    C15   19   0.167  -0.013   0.004
    1UNL    C16   20   0.018  -0.014   0.062
    1UNL    C17   21   0.025  -0.080   0.199
    1UNL    C18   22  -0.006  -0.235   0.171
    1UNL     N2   23  -0.075  -0.250   0.042
    1UNL    C19   24  -0.176  -0.342   0.032
    1UNL     O4   25  -0.195  -0.433   0.102
    1UNL    C20   26  -0.267  -0.315  -0.088
    1UNL     O5   27  -0.388  -0.240  -0.061
    1UNL    C21   28  -0.288  -0.162  -0.119
    1UNL    C22   29  -0.075  -0.113  -0.028
    1UNL     H1   30  -0.390  -0.255   0.113
    1UNL     H2   31  -0.398  -0.155   0.270
    1UNL     H3   32  -0.249  -0.234   0.203
    1UNL     H4   33  -0.235   0.011   0.166
    1UNL     H5   34  -0.382  -0.005   0.079
    1UNL     H6   35  -0.183   0.075  -0.196
    1UNL     H7   36  -0.314   0.117  -0.106
    1UNL     H8   37  -0.033   0.584  -0.082
    1UNL     H9   38  -0.085   0.598   0.097
    1UNL    H10   39  -0.197   0.556  -0.026
    1UNL    H11   40   0.101   0.301   0.032
    1UNL    H12   41   0.379   0.256   0.004
    1UNL    H13   42   0.755   0.014  -0.095
    1UNL    H14   43   0.637  -0.116  -0.073
    1UNL    H15   44   0.649  -0.022  -0.230
    1UNL    H16   45   0.437  -0.167  -0.097
    1UNL    H17   46   0.202  -0.213  -0.073
    1UNL    H18   47   0.134  -0.069   0.230
    1UNL    H19   48  -0.035  -0.030   0.281
    1UNL    H20   49  -0.064  -0.281   0.257
    1UNL    H21   50   0.089  -0.287   0.165
    1UNL    H22   51  -0.282  -0.385  -0.165
    1UNL    H23   52  -0.325  -0.136  -0.216
    1UNL    H24   53  -0.036  -0.130  -0.126
   0.00000   0.00000   0.00000   0.00000   0.00000   0.00000   0.00000   0.00000   0.00000
Generated with MDTraj, t= 97.0
 53
    1UNL     C1    1  -0.336  -0.152   0.197
    1UNL     C2    2  -0.296  -0.031   0.112
    1UNL     C3    3  -0.234  -0.059  -0.029
    1UNL     C4    4  -0.210   0.080  -0.095
    1UNL     C5    5  -0.120   0.168  -0.018
    1UNL     C6    6  -0.143   0.311  -0.035
    1UNL     O1    7  -0.225   0.351  -0.116
    1UNL     O2    8  -0.064   0.403   0.034
    1UNL     C7    9  -0.088   0.531  -0.010
    1UNL     C8   10  -0.015   0.123   0.053
    1UNL     N1   11   0.105   0.194   0.083
    1UNL     C9   12   0.210   0.111   0.037
    1UNL    C10   13   0.342   0.145   0.007
    1UNL    C11   14   0.425   0.054  -0.053
    1UNL     O3   15   0.544   0.098  -0.111
    1UNL    C12   16   0.660   0.019  -0.107
    1UNL    C13   17   0.388  -0.082  -0.059
    1UNL    C14   18   0.255  -0.116  -0.033
    1UNL    C15   19   0.162  -0.014   0.006
    1UNL    C16   20   0.022  -0.031   0.057
    1UNL    C17   21   0.031  -0.107   0.196
    1UNL    C18   22  -0.000  -0.249   0.166
    1UNL     N2   23  -0.080  -0.248   0.044
    1UNL    C19   24  -0.177  -0.339   0.016
    1UNL     O4   25  -0.200  -0.433   0.085
    1UNL    C20   26  -0.273  -0.304  -0.101
    1UNL     O5   27  -0.394  -0.250  -0.053
    1UNL    C21   28  -0.314  -0.155  -0.117
    1UNL    C22   29  -0.086  -0.115  -0.020
    1UNL     H1   30  -0.373  -0.243   0.135
    1UNL     H2   31  -0.407  -0.131   0.280
    1UNL     H3   32  -0.242  -0.200   0.237
    1UNL     H4   33  -0.235   0.042   0.169
    1UNL     H5   34  -0.387   0.018   0.095
    1UNL     H6   35  -0.172   0.066  -0.192
    1UNL     H7   36  -0.305   0.125  -0.115
    1UNL     H8   37  -0.095   0.535  -0.124
    1UNL     H9   38  -0.021   0.603   0.033
    1UNL    H10   39  -0.182   0.561   0.028
    1UNL    H11   40   0.095   0.293   0.050
    1UNL    H12   41   0.374   0.246   0.029
    1UNL    H13   42   0.745   0.092  -0.115
    1UNL    H14   43   0.664  -0.036  -0.017
    1UNL    H15   44   0.661  -0.038  -0.198
    1UNL    H16   45   0.457  -0.160  -0.090
    1UNL    H17   46   0.218  -0.213  -0.043
    1UNL    H18   47   0.128  -0.087   0.237
    1UNL    H19   48  -0.041  -0.050   0.270
    1UNL    H20   49  -0.054  -0.302   0.249
    1UNL    H21   50   0.094  -0.305   0.156
    1UNL    H22   51  -0.265  -0.372  -0.183
    1UNL    H23   52  -0.342  -0.105  -0.216
    1UNL    H24   53  -0.051  -0.139  -0.118
   0.00000   0.00000   0.00000   0.00000   0.00000   0.00000   0.00000   0.00000   0.00000
Generated with MDTraj, t= 98.0
 53
    1UNL     C1    1  -0.325  -0.161   0.196
    1UNL     C2    2  -0.295  -0.041   0.108
    1UNL     C3    3  -0.225  -0.065  -0.028
    1UNL     C4    4  -0.208   0.083  -0.097
    1UNL     C5    5  -0.118   0.167  -0.018
    1UNL     C6    6  -0.123   0.312  -0.045
    1UNL     O1    7  -0.202   0.349  -0.128
    1UNL     O2    8  -0.046   0.394   0.032
    1UNL     C7    9  -0.072   0.524   0.002
    1UNL     C8   10  -0.025   0.113   0.068
    1UNL     N1   11   0.100   0.188   0.079
    1UNL     C9   12   0.203   0.116   0.026
    1UNL    C10   13   0.330   0.158  -0.014
    1UNL    C11   14   0.413   0.066  -0.074
    1UNL     O3   15   0.544   0.115  -0.105
    1UNL    C12   16   0.645   0.014  -0.089
    1UNL    C13   17   0.368  -0.069  -0.089
    1UNL    C14   18   0.249  -0.104  -0.035
    1UNL    C15   19   0.161  -0.016   0.023
    1UNL    C16   20   0.019  -0.030   0.067
    1UNL    C17   21   0.007  -0.098   0.211
    1UNL    C18   22  -0.009  -0.247   0.183
    1UNL     N2   23  -0.083  -0.247   0.050
    1UNL    C19   24  -0.183  -0.345   0.015
    1UNL     O4   25  -0.191  -0.448   0.081
    1UNL    C20   26  -0.276  -0.306  -0.094
    1UNL     O5   27  -0.399  -0.237  -0.057
    1UNL    C21   28  -0.298  -0.157  -0.119
    1UNL    C22   29  -0.077  -0.119  -0.015
    1UNL     H1   30  -0.400  -0.236   0.161
    1UNL     H2   31  -0.351  -0.139   0.307
    1UNL     H3   32  -0.232  -0.231   0.200
    1UNL     H4   33  -0.248   0.039   0.168
    1UNL     H5   34  -0.388   0.004   0.084
    1UNL     H6   35  -0.178   0.068  -0.195
    1UNL     H7   36  -0.299   0.142  -0.102
    1UNL     H8   37  -0.120   0.532  -0.100
    1UNL     H9   38   0.010   0.591   0.019
    1UNL    H10   39  -0.144   0.555   0.074
    1UNL    H11   40   0.105   0.293   0.055
    1UNL    H12   41   0.362   0.254  -0.004
    1UNL    H13   42   0.747   0.059  -0.093
    1UNL    H14   43   0.624  -0.049  -0.008
    1UNL    H15   44   0.633  -0.032  -0.183
    1UNL    H16   45   0.426  -0.141  -0.144
    1UNL    H17   46   0.225  -0.211  -0.057
    1UNL    H18   47   0.089  -0.077   0.275
    1UNL    H19   48  -0.087  -0.049   0.257
    1UNL    H20   49  -0.064  -0.316   0.251
    1UNL    H21   50   0.087  -0.302   0.164
    1UNL    H22   51  -0.299  -0.374  -0.179
    1UNL    H23   52  -0.315  -0.129  -0.231
    1UNL    H24   53  -0.033  -0.127  -0.113
   0.00000   0.00000   0.00000   0.00000   0.00000   0.00000   0.00000   0.00000   0.00000
Generated with MDTraj, t= 99.0
 53
    1UNL     C1    1  -0.370  -0.167   0.183
    1UNL     C2    2  -0.303  -0.047   0.107
    1UNL     C3    3  -0.225  -0.065  -0.022
    1UNL     C4    4  -0.219   0.088  -0.087
    1UNL     C5    5  -0.130   0.180  -0.004
    1UNL     C6    6  -0.143   0.321  -0.027
    1UNL     O1    7  -0.216   0.359  -0.116
    1UNL     O2    8  -0.064   0.414   0.047
    1UNL     C7    9  -0.072   0.538  -0.014
    1UNL     C8   10  -0.018   0.129   0.056
    1UNL     N1   11   0.100   0.197   0.074
    1UNL     C9   12   0.208   0.110   0.026
    1UNL    C10   13   0.340   0.141   0.011
    1UNL    C11   14   0.425   0.054  -0.055
    1UNL     O3   15   0.552   0.091  -0.087
    1UNL    C12   16   0.652  -0.008  -0.112
    1UNL    C13   17   0.367  -0.065  -0.097
    1UNL    C14   18   0.238  -0.110  -0.061
    1UNL    C15   19   0.156  -0.020  -0.004
    1UNL    C16   20   0.017  -0.016   0.067
    1UNL    C17   21   0.026  -0.086   0.204
    1UNL    C18   22  -0.000  -0.240   0.177
    1UNL     N2   23  -0.074  -0.247   0.048
    1UNL    C19   24  -0.169  -0.343   0.025
    1UNL     O4   25  -0.181  -0.437   0.107
    1UNL    C20   26  -0.260  -0.317  -0.097
    1UNL     O5   27  -0.383  -0.262  -0.071
    1UNL    C21   28  -0.292  -0.169  -0.125
    1UNL    C22   29  -0.078  -0.115  -0.020
    1UNL     H1   30  -0.449  -0.221   0.123
    1UNL     H2   31  -0.417  -0.126   0.287
    1UNL     H3   32  -0.294  -0.241   0.206
    1UNL     H4   33  -0.239   0.004   0.179
    1UNL     H5   34  -0.374   0.028   0.084
    1UNL     H6   35  -0.184   0.089  -0.184
    1UNL     H7   36  -0.320   0.125  -0.092
    1UNL     H8   37  -0.004   0.539  -0.103
    1UNL     H9   38  -0.060   0.620   0.055
    1UNL    H10   39  -0.174   0.546  -0.049
    1UNL    H11   40   0.111   0.301   0.062
    1UNL    H12   41   0.393   0.236   0.046
    1UNL    H13   42   0.752   0.041  -0.135
    1UNL    H14   43   0.649  -0.082  -0.035
    1UNL    H15   44   0.620  -0.044  -0.206
    1UNL    H16   45   0.426  -0.137  -0.149
    1UNL    H17   46   0.196  -0.202  -0.088
    1UNL    H18   47   0.127  -0.067   0.244
    1UNL    H19   48  -0.054  -0.050   0.263
    1UNL    H20   49  -0.065  -0.286   0.249
    1UNL    H21   50   0.092  -0.304   0.166
    1UNL    H22   51  -0.253  -0.396  -0.179
    1UNL    H23   52  -0.309  -0.118  -0.224
    1UNL    H24   53  -0.037  -0.105  -0.121
   0.00000   0.00000   0.00000   0.00000   0.00000   0.00000   0.00000   0.00000   0.00000
