[ moleculetype ]
; name        nrexcl
res           1

[ atoms ]
;    nr  type  resnr resid  atom  cgnr     charge       mass
      1 TC3       1 res   C1        1      0.000     36.000
      2 TC5       1 res   C2        2      0.000     36.000
      3 TC3       1 res   C3        3      0.000     36.000
      4 N4a       1 res   C4        4      0.000     72.000
      5 TC5       1 res   C5        5      0.000     36.000
      6 TN6d      1 res   C6        6      0.000     36.000
      7 TC5       1 res   C7        7      0.000     36.000
      8 TC5       1 res   C8        8      0.000     36.000
      9 TN2a      1 res   C9        9      0.000     36.000
     10 TC5       1 res   C10      10      0.000     36.000
     11 TC3       1 res   C11      11      0.000     36.000
     12 TN6d      1 res   C12      12      0.000     36.000
     13 TN6a      1 res   C13      13      0.000     36.000
     14 TC5       1 res   C14      14      0.000     36.000
     15 P4        1 res   C15      15      0.000     72.000

[ constraints ]
;  ai    aj   funct      b0(nm)
    5     7     1      0.19073
   14    15     1      0.13589
    5     6     1      0.21930
    6     7     1      0.21917
    1     2     1      0.31409
    3     5     1      0.27015
    2     3     1      0.23973
   11    12     1      0.26508
    2    12     1      0.21280
   12    14     1      0.25587
    8    10     1      0.30183
    7     8     1      0.22113
    5    11     1      0.27663
    2     5     1      0.22230
    3     4     1      0.38049
   12    13     1      0.16884
    2    14     1      0.24815
    7    10     1      0.24838
    8     9     1      0.31982

[ bonds ]
;  ai    aj   funct      b0(nm)          k(kJ/mol/nm^2)

[ angles ]
;  ai    aj    ak  funct     th0(deg)        k(kJ/mol/rad^2)
    1     2     3     1     82.65975          2331.48
    1     2     5     1     91.60943          1214.75
    1     2    12     1     68.97767          1203.90
    1     2    14     1     77.28775          2021.78
    2     3     4     1    135.56744          1237.46
    2     3     5     1     51.26575          4779.69
    2     5     3     1     57.27266          3467.14
    2     5     6     1    146.70532           605.16
    2     5     7     1    112.62534          1090.57
    2     5    11     1     77.15902          4684.90
    2    12    11     1     81.37112          3048.11
    2    12    13     1    159.44746           716.39
    2    12    14     1     63.15188          2816.46
    2    14    12     1     49.90950          6229.83
    2    14    15     1    105.15596           772.81
    3     2     5     1     71.46148          2746.20
    3     2    12     1    150.46742           941.51
    3     2    14     1    100.03796          1754.03
    3     5     6     1     98.61726          1170.24
    3     5     7     1    131.67073           463.91
    3     5    11     1    124.31992          1843.10
    4     3     5     1     84.66344          2144.29
    5     2    12     1    115.61571          2247.59
    5     2    14     1    166.80020          1099.44
    5     6     7     1     51.57262          4752.36
    5     7     6     1     64.25121          3726.14
    5     7     8     1    151.57443          1663.91
    5     7    10     1    127.60415          1859.31
    5    11    12     1     85.61788          4446.10
    6     5     7     1     64.17612          3724.73
    6     5    11     1    134.36560           810.12
    6     7     8     1     87.61721          1487.04
    6     7    10     1    164.56674           773.44
    7     5    11     1     92.47813          1694.44
    7     8     9     1    123.20924           966.13
    7     8    10     1     54.08153          4930.31
    7    10     8     1     46.12748         13740.54
    8     7    10     1     79.79100          3419.10
    9     8    10     1     69.60227          1686.90
   11    12    13     1    112.68179           757.76
   11    12    14     1    140.94644          1653.49
   12     2    14     1     66.93848          2794.09
   12    14    15     1     87.37634           727.42
   13    12    14     1     98.82605          1837.96

[ dihedrals ]
;  ai    aj    ak    al  funct   phi0(deg)        k(kJ/mol)   mult
    1     2     3     4     1    -82.34142       13.610      1
    1     2     3     5     1    -85.05716        5.560      1
    1     2     5     3     1     98.00992        4.782      1
    1     2     5     6     1     50.76491        9.961      1
    1     2     5     7     1    -27.97440        9.205      1
    1     2     5    11     1   -114.96108        6.972      1
    1     2    12    11     1    101.00350        7.004      1
    1     2    12    13     1   -117.95837       23.181      1
    1     2    12    14     1    -95.01247        5.499      1
    1     2    14    12     1    107.06111        6.985      1
    1     2    14    15     1   -179.94794        9.280      1
    2     3     5     6     1    -25.88568        7.764      1
    2     3     5     7     1    -87.23444        7.015      1
    2     3     5    11     1    139.98495        6.352      1
    2     5     3     4     1      3.01079       10.054      1
    2     5     6     7     1     86.10446        9.313      1
    2     5     7     6     1    -36.04616        7.796      1
    2     5     7     8     1    -37.09859       15.734      1
    2     5     7    10     1    152.07353       12.204      1
    2     5    11    12     1   -178.93268        5.538      1
    2    12    11     5     1    177.98747        6.281      1
    2    12    14    15     1     67.23171        7.021      1
    2    14    12    11     1   -155.02333       10.030      1
    2    14    12    13     1     -8.40128       11.442      1
    3     2     5     6     1    132.68785       11.364      1
    3     2     5     7     1     54.01245        9.256      1
    3     2     5    11     1    -32.99371        7.051      1
    3     2    12    11     1     84.05973       10.733      1
    3     2    12    13     1   -134.32300       23.296      1
    3     2    12    14     1   -111.13401       11.437      1
    3     2    14    12     1     27.24604        7.008      1
    3     2    14    15     1    100.94091       10.015      1
    3     5     2    12     1     30.05260        7.759      1
    3     5     2    14     1    131.02051       16.981      1
    3     5     6     7     1     47.05406        8.522      1
    3     5     7     6     1   -103.85831        7.792      1
    3     5     7     8     1   -102.92411       15.662      1
    3     5     7    10     1     87.99756       10.769      1
    3     5    11    12     1   -144.99714        8.574      1
    4     3     2     5     1   -175.03575       12.987      1
    4     3     2    12     1    -67.18868       15.683      1
    4     3     2    14     1     -6.92578       14.365      1
    4     3     5     6     1    159.76168        9.308      1
    4     3     5     7     1     95.97273        9.324      1
    4     3     5    11     1    -36.87141       10.043      1
    5     2    12    11     1   -177.93879        7.807      1
    5     2    12    13     1    -35.61334       23.204      1
    5     2    12    14     1    -13.05830        7.044      1
    5     2    14    12     1     73.62528       18.310      1
    5     2    14    15     1    149.08649       19.693      1
    5     3     2    12     1    -70.17364       10.676      1
    5     3     2    14     1     -9.98543        6.289      1
    5     6     7     8     1      0.12424        7.819      1
    5     6     7    10     1    -27.41532       23.187      1
    5     7     8     9     1      9.87739       16.452      1
    5     7     8    10     1      8.95073       15.719      1
    5     7    10     8     1     -5.02969       11.445      1
    5    11    12    13     1     10.64337       12.871      1
    5    11    12    14     1    155.97952       12.195      1
    6     5     2    12     1    -18.93470        9.980      1
    6     5     2    14     1     83.06615       18.354      1
    6     5     7     8     1    179.25513       14.341      1
    6     5     7    10     1      9.24222       11.494      1
    6     5    11    12     1     15.87662        9.238      1
    6     7     5    11     1     40.05007        7.810      1
    6     7     8     9     1      6.03482       15.083      1
    6     7     8    10     1      6.38840        9.286      1
    6     7    10     8     1   -155.61403       22.567      1
    7     5     2    12     1    -95.02224        8.563      1
    7     5     2    14     1      5.67871       18.997      1
    7     5    11    12     1     69.96145        6.338      1
    7     6     5    11     1   -114.95479        8.563      1
    7    10     8     9     1      1.20802       14.317      1
    8     7     5    11     1     39.06661       15.762      1
    9     8     7    10     1   -178.98179       15.745      1
   10     7     5    11     1   -129.76062       12.185      1
   11     5     2    12     1    177.95566        7.794      1
   11     5     2    14     1    -82.39844       16.924      1
   11    12     2    14     1     16.02589        7.766      1
   11    12    14    15     1     92.14517       12.170      1
   12     2    14    15     1   -104.92823        7.058      1
   13    12     2    14     1    158.53345       21.120      1
   13    12    14    15     1   -120.80045       12.914      1
