1TPCN06260
31
    1res  C1    1    0.023   0.537   0.146
    1res  C2    2    0.212   0.361   0.035
    1res  C3    3    0.424   0.249   0.118
    1res  C4    4    0.697   0.042   0.074
    1res  C5    5    0.917  -0.087  -0.073
    1res  C6    6    1.167  -0.220  -0.153
    1res  C7    7    1.297  -0.313  -0.361
    1res  C8    8    1.367  -0.051  -0.351
    1res  C9    9    1.141   0.001  -0.376
    1res  C10   10    0.944   0.216   0.012
    1res  C11   11    0.915   0.131   0.231
    1res  C12   12    0.725   0.206   0.321
    1res  C13   13    0.333   0.004   0.203
    1res  C14   14    0.239  -0.178   0.075
    1res  C15   15    0.034   0.101  -0.084
    1res  C16   16   -0.001  -0.166  -0.059
    1res  C17   17   -0.265  -0.104  -0.003
    1res  C18   18   -0.361   0.101   0.139
    1res  C19   19   -0.543  -0.088   0.125
    1res  C20   20   -0.653  -0.226  -0.068
    1res  C21   21   -0.606  -0.452  -0.250
    1res  C22   22   -0.706  -0.176  -0.345
    1res  C23   23   -0.686   0.033  -0.227
    1res  C24   24   -0.805  -0.032  -0.043
    1res  C25   25   -1.025   0.094   0.072
    1res  C26   26   -0.946   0.315   0.147
    1res  C27   27   -1.223   0.247   0.061
    1res  C28   28   -1.286   0.048   0.005
    1res  C29   29   -1.154  -0.062  -0.150
    1res  C30   30   -0.438  -0.256   0.271
    1res  C31   31   -0.106  -0.335   0.114
  10.00000  10.00000  10.00000
