[ moleculetype ]
; name        nrexcl
res           1

[ atoms ]
;    nr  type  resnr resid  atom  cgnr     charge       mass
      1 TN6d      1 res   C1        1      0.000     36.000
      2 TN6a      1 res   C2        2      0.000     36.000
      3 TN6a      1 res   C3        3      0.000     36.000
      4 TN6d      1 res   C4        4      0.000     36.000
      5 TN6a      1 res   C5        5      0.000     36.000

[ constraints ]
;  ai    aj   funct      b0(nm)
    1     2     1      0.21049
    2     3     1      0.27452
    1     5     1      0.19423
    4     5     1      0.19446
    3     4     1      0.19228

[ bonds ]
;  ai    aj   funct      b0(nm)          k(kJ/mol/nm^2)

[ angles ]
;  ai    aj    ak  funct     th0(deg)        k(kJ/mol/rad^2)
    1     2     3     1    102.38162          2387.91
    1     5     4     1    110.61144          1090.83
    2     1     5     1    109.23675          1601.62
    2     3     4     1     89.65721          1555.76
    3     4     5     1    126.56443           940.00

[ dihedrals ]
;  ai    aj    ak    al  funct   phi0(deg)        k(kJ/mol)   mult
    1     2     3     4     1    177.02596       11.460      1
    1     5     4     3     1    179.37328       19.725      1
    2     1     5     4     1    178.10875       16.503      1
    2     3     4     5     1    179.09008       15.753      1
    3     2     1     5     1   -178.16802       13.664      1
