13599-76-6
6
    1res  C1    1   -0.129  -0.314  -0.060
    1res  C2    2   -0.110  -0.080  -0.017
    1res  C3    3   -0.052   0.106   0.043
    1res  C4    4   -0.239   0.248   0.006
    1res  C5    5    0.075  -0.053   0.064
    1res  C6    6    0.329   0.064   0.008
  10.00000  10.00000  10.00000
