1TPCN00058
14
    1res  C1    1   -0.495  -0.221   0.155
    1res  C2    2   -0.300   0.019   0.209
    1res  C3    3   -0.519   0.110   0.005
    1res  C4    4   -0.754  -0.030  -0.117
    1res  C5    5   -0.783   0.241  -0.313
    1res  C6    6   -0.107  -0.015   0.065
    1res  C7    7    0.108   0.104   0.093
    1res  C8    8    0.108  -0.172  -0.102
    1res  C9    9    0.387  -0.200  -0.089
    1res  C10   10    0.472  -0.294   0.198
    1res  C11   11    0.544   0.025   0.079
    1res  C12   12    0.610   0.211  -0.147
    1res  C13   13    0.686   0.434   0.092
    1res  C14   14   -0.121  -0.144  -0.136
  10.00000  10.00000  10.00000
