1TPCN05719
46
    1res  C1    1   -1.349   0.282  -0.422
    1res  C2    2   -1.296   0.045  -0.255
    1res  C3    3   -1.295   0.092  -0.042
    1res  C4    4   -1.279   0.078   0.167
    1res  C5    5   -1.305  -0.096   0.426
    1res  C6    6   -1.389  -0.051   0.647
    1res  C7    7   -1.620  -0.074   0.535
    1res  C8    8   -1.566   0.088   0.361
    1res  C9    9   -1.105  -0.061   0.151
    1res  C10   10   -0.957   0.122   0.028
    1res  C11   11   -0.746   0.177   0.103
    1res  C12   12   -0.721  -0.111  -0.096
    1res  C13   13   -0.545   0.005   0.114
    1res  C14   14   -0.371  -0.007   0.246
    1res  C15   15   -0.204  -0.117   0.408
    1res  C16   16   -0.111   0.032   0.102
    1res  C17   17    0.131  -0.147  -0.079
    1res  C18   18   -0.128  -0.215  -0.168
    1res  C19   19    0.089  -0.412  -0.154
    1res  C20   20    0.181   0.213  -0.006
    1res  C21   21    0.388   0.027   0.144
    1res  C22   22    0.405   0.266  -0.152
    1res  C23   23    0.671   0.243  -0.115
    1res  C24   24    0.813   0.219   0.152
    1res  C25   25    0.942   0.104  -0.031
    1res  C26   26    1.175   0.227  -0.110
    1res  C27   27    1.414   0.098  -0.019
    1res  C28   28    1.480  -0.089   0.177
    1res  C29   29    1.666   0.018   0.410
    1res  C30   30    1.680  -0.256   0.251
    1res  C31   31    1.719  -0.239   0.014
    1res  C32   32    1.486  -0.258  -0.035
    1res  C33   33    1.387   0.153  -0.304
    1res  C34   34    1.178   0.120  -0.430
    1res  C35   35    1.065   0.332  -0.317
    1res  C36   36    0.774  -0.110   0.062
    1res  C37   37    0.922  -0.135  -0.184
    1res  C38   38    0.497  -0.060  -0.201
    1res  C39   39    0.008   0.112  -0.229
    1res  C40   40   -0.304  -0.367   0.312
    1res  C41   41   -0.412  -0.239   0.175
    1res  C42   42   -0.512   0.232   0.130
    1res  C43   43   -1.099   0.232  -0.071
    1res  C44   44   -1.483  -0.076  -0.221
    1res  C45   45   -1.478  -0.136  -0.457
    1res  C46   46   -1.460   0.108  -0.538
  10.00000  10.00000  10.00000
