[ moleculetype ]
; name        nrexcl
res           1

[ atoms ]
;    nr  type resnr resid  atom  cgnr     charge       mass
      1 TC4       1 res   C1        1      0.000     36.000
      2 TN4a      1 res   C2        2      0.000     36.000
      3 TN6       1 res   C3        3      0.000     36.000
      4 TN6       1 res   C4        4      0.000     36.000
      5 SN4a      1 res   C5        5      0.000     54.000
      6 TN6       1 res   C6        6      0.000     36.000
      7 TN6       1 res   C7        7      0.000     36.000
      8 TN6       1 res   C8        8      0.000     36.000
      9 TN4a      1 res   C9        9      0.000     36.000
     10 TN6       1 res   C10      10      0.000     36.000
     11 SN6       1 res   C11      11      0.000     54.000
     12 TC4       1 res   C12      12      0.000     36.000
     13 TN4a      1 res   C13      13      0.000     36.000
     14 TN6       1 res   C14      14      0.000     36.000
     15 SN4a      1 res   C15      15      0.000     54.000
     16 SN4a      1 res   C16      16      0.000     54.000
     17 SC5       1 res   C17      17      0.000     54.000
     18 TC3       1 res   C18      18      0.000     36.000
     19 SC4       1 res   C19      19      0.000     54.000
     20 SC4       1 res   C20      20      0.000     54.000
     21 TC3       1 res   C21      21      0.000     36.000
     22 SC4       1 res   C22      22      0.000     54.000
     23 SC4       1 res   C23      23      0.000     54.000
     24 SN6       1 res   C24      24      0.000     54.000
     25 TN6       1 res   C25      25      0.000     36.000
     26 SN4a      1 res   C26      26      0.000     54.000
     27 TN3r      1 res   C27      27      0.000     36.000
     28 SN4a      1 res   C28      28      0.000     54.000
     29 TP1       1 res   C29      29      0.000     36.000
     30 TN6       1 res   C30      30      0.000     36.000
     31 TN6       1 res   C31      31      0.000     36.000
     32 TN6       1 res   C32      32      0.000     36.000
     33 TN6       1 res   C33      33      0.000     36.000
     34 TN6       1 res   C34      34      0.000     36.000
     35 TN6       1 res   C35      35      0.000     36.000
     36 TC4       1 res   C36      36      0.000     36.000
     37 TP1       1 res   C37      37      0.000     36.000
     38 SN6       1 res   C38      38      0.000     54.000
     39 SN6       1 res   C39      39      0.000     54.000
     40 TN6       1 res   C40      40      0.000     36.000
     41 TN6       1 res   C41      41      0.000     36.000
     42 TN6       1 res   C42      42      0.000     36.000
     43 TN6       1 res   C43      43      0.000     36.000
     44 TN6       1 res   C44      44      0.000     36.000
     45 TN6       1 res   C45      45      0.000     36.000
     46 TN6       1 res   C46      46      0.000     36.000

[ bonds ]
;  ai    aj   funct      b0(nm)        k
    1     2     1      0.29456    20000
    1    46     1      0.23675    20000
    2     3     1      0.21769    20000
    2    44     1      0.22532    20000
    3     4     1      0.21002    20000
    3    43     1      0.24211    20000
    4     5     1      0.31298    20000
    4     9     1      0.22320    20000
    5     6     1      0.24035    20000
    5     8     1      0.32610    20000
    6     7     1      0.25751    20000
    7     8     1      0.24421    20000
    9    10     1      0.26600    20000
   10    11     1      0.23107    20000
   10    43     1      0.20491    20000
   11    12     1      0.35197    20000
   11    42     1      0.24183    20000
   12    13     1      0.29785    20000
   13    14     1      0.21886    20000
   13    42     1      0.23005    20000
   14    15     1      0.25743    20000
   14    41     1      0.24597    20000
   15    16     1      0.35322    20000
   15    40     1      0.28516    20000
   16    17     1      0.35120    20000
   17    18     1      0.28216    20000
   17    19     1      0.27843    20000
   17    20     1      0.37038    20000
   17    39     1      0.32342    20000
   18    19     1      0.29267    20000
   20    21     1      0.31650    20000
   20    22     1      0.27282    20000
   20    39     1      0.29917    20000
   21    22     1      0.38109    20000
   22    23     1      0.26975    20000
   22    38     1      0.34234    20000
   23    24     1      0.30351    20000
   23    36     1      0.40862    20000
   23    38     1      0.36006    20000
   24    25     1      0.25188    20000
   25    26     1      0.27524    20000
   25    36     1      0.28768    20000
   26    27     1      0.28572    20000
   26    33     1      0.29716    20000
   26    35     1      0.25738    20000
   27    28     1      0.27882    20000
   28    29     1      0.31623    20000
   28    30     1      0.27104    20000
   28    32     1      0.27158    20000
   30    31     1      0.24087    20000
   31    32     1      0.23847    20000
   33    34     1      0.24628    20000
   34    35     1      0.26625    20000
   36    37     1      0.28803    20000
   40    41     1      0.21615    20000
   44    45     1      0.24337    20000
   45    46     1      0.25718    20000
