[ moleculetype ]
; name        nrexcl
res           1

[ atoms ]
;    nr  type  resnr resid  atom  cgnr     charge       mass
      1 TC5       1 res   C1        1      0.000     36.000
      2 TX3       1 res   C2        2      0.000     36.000
      3 TC5       1 res   C3        3      0.000     36.000
      4 TX3       1 res   C4        4      0.000     36.000

[ constraints ]
;  ai    aj   funct      b0(nm)
    1     2     1      0.27956
    2     3     1      0.27936
    1     4     1      0.27906
    3     4     1      0.27947

[ bonds ]
;  ai    aj   funct      b0(nm)          k(kJ/mol/nm^2)

[ angles ]
;  ai    aj    ak  funct     th0(deg)        k(kJ/mol/rad^2)
    1     2     3     1     72.95130          5746.19
    1     4     3     1     73.00978          5371.20
    2     1     4     1    106.80549          4348.10
    2     3     4     1    106.74894          4051.20

[ dihedrals ]
;  ai    aj    ak    al  funct   phi0(deg)        k(kJ/mol)   mult
    1     2     3     4     1   -179.99937        7.881      1
    1     4     3     2     1    179.99593        7.869      1
    2     1     4     3     1    179.99595        7.874      1
    3     2     1     4     1    179.99679        7.868      1
