1TPCN02755
17
    1res  C1    1   -0.072  -0.118   0.363
    1res  C2    2    0.062  -0.062   0.145
    1res  C3    3   -0.002  -0.052  -0.132
    1res  C4    4    0.337  -0.016  -0.081
    1res  C5    5    0.523   0.024   0.179
    1res  C6    6    0.724   0.058   0.338
    1res  C7    7    0.819   0.027   0.100
    1res  C8    8    0.863  -0.066  -0.213
    1res  C9    9    0.014   0.265   0.014
    1res  C10   10   -0.219   0.320   0.220
    1res  C11   11   -0.199   0.003   0.044
    1res  C12   12   -0.277   0.032  -0.217
    1res  C13   13   -0.474   0.090  -0.133
    1res  C14   14   -0.485  -0.194  -0.007
    1res  C15   15   -0.653  -0.010   0.169
    1res  C16   16   -0.248  -0.236  -0.116
    1res  C17   17   -0.530  -0.156  -0.419
  10.00000  10.00000  10.00000
