1TPCN05891
51
    1res  C1    1   -0.915   0.838   0.097
    1res  C2    2   -0.828   0.673   0.330
    1res  C3    3   -0.669   0.559   0.249
    1res  C4    4   -0.429   0.588   0.216
    1res  C5    5   -0.533   0.412  -0.032
    1res  C6    6   -0.369   0.265  -0.066
    1res  C7    7   -0.236   0.026  -0.004
    1res  C8    8   -0.179   0.184   0.244
    1res  C9    9   -0.264  -0.096   0.273
    1res  C10   10    0.083   0.129  -0.172
    1res  C11   11    0.089  -0.164  -0.091
    1res  C12   12    0.252   0.041   0.117
    1res  C13   13    0.445  -0.065  -0.159
    1res  C14   14    0.510  -0.305  -0.094
    1res  C15   15    0.730  -0.236  -0.001
    1res  C16   16    0.915  -0.382   0.131
    1res  C17   17    1.020  -0.699   0.157
    1res  C18   18    1.094  -0.369   0.293
    1res  C19   19    1.206  -0.313   0.084
    1res  C20   20    1.510  -0.417   0.098
    1res  C21   21    1.725  -0.351   0.024
    1res  C22   22    1.643  -0.328  -0.180
    1res  C23   23    1.404  -0.445  -0.156
    1res  C24   24    1.061  -0.233  -0.048
    1res  C25   25    1.223  -0.028  -0.068
    1res  C26   26    1.425   0.128   0.120
    1res  C27   27    1.373   0.183  -0.140
    1res  C28   28    1.234   0.181  -0.311
    1res  C29   29    1.045   0.041  -0.261
    1res  C30   30    0.755   0.007   0.071
    1res  C31   31    0.743   0.006  -0.203
    1res  C32   32    0.437   0.191  -0.038
    1res  C33   33   -0.018   0.350  -0.016
    1res  C34   34   -0.704   0.289   0.047
    1res  C35   35   -0.909   0.212   0.027
    1res  C36   36   -1.102   0.338  -0.197
    1res  C37   37   -1.160   0.102  -0.159
    1res  C38   38   -1.020  -0.045  -0.086
    1res  C39   39   -1.194  -0.268  -0.030
    1res  C40   40   -1.386  -0.419  -0.119
    1res  C41   41   -1.210  -0.471  -0.243
    1res  C42   42   -1.195  -0.791  -0.141
    1res  C43   43   -0.947  -0.880  -0.124
    1res  C44   44   -0.902  -0.747  -0.299
    1res  C45   45   -1.116  -0.693  -0.395
    1res  C46   46   -1.051  -0.329  -0.277
    1res  C47   47   -0.793   0.037  -0.106
    1res  C48   48   -0.812   0.449   0.139
    1res  C49   49   -0.675   0.876   0.392
    1res  C50   50   -0.889   0.957   0.496
    1res  C51   51   -0.969   1.021   0.298
  10.00000  10.00000  10.00000
