1TPCN04478
19
    1res  C1    1    0.776  -0.100   0.118
    1res  C2    2    0.549   0.128   0.125
    1res  C3    3    0.358   0.062   0.073
    1res  C4    4    0.163   0.186  -0.007
    1res  C5    5   -0.043   0.014   0.132
    1res  C6    6    0.003  -0.280  -0.002
    1res  C7    7   -0.048  -0.114  -0.256
    1res  C8    8   -0.198   0.140  -0.214
    1res  C9    9   -0.321  -0.222  -0.233
    1res  C10   10   -0.457  -0.042  -0.244
    1res  C11   11   -0.521  -0.053  -0.088
    1res  C12   12   -0.702   0.021   0.081
    1res  C13   13   -0.540   0.255   0.095
    1res  C14   14   -0.416  -0.265   0.051
    1res  C15   15    0.324  -0.167   0.167
    1res  C16   16    0.303  -0.182  -0.135
    1res  C17   17    0.590   0.288  -0.073
    1res  C18   18    0.770   0.317   0.064
    1res  C19   19    0.900   0.104  -0.010
  10.00000  10.00000  10.00000
