Generated with MDTraj, t= 0.0
 70
    1UNL     C1    1  -0.152   0.721  -0.234
    1UNL     O1    2  -0.168   0.610  -0.151
    1UNL     C2    3  -0.097   0.504  -0.202
    1UNL     O2    4  -0.031   0.511  -0.305
    1UNL     C3    5  -0.103   0.379  -0.128
    1UNL     C4    6  -0.177   0.369  -0.015
    1UNL     O3    7  -0.185   0.260   0.067
    1UNL     C5    8  -0.071   0.174   0.053
    1UNL     O4    9  -0.068   0.067   0.144
    1UNL     C6   10  -0.183  -0.013   0.133
    1UNL     O5   11  -0.201  -0.071   0.003
    1UNL     C7   12  -0.333  -0.122  -0.017
    1UNL     C8   13  -0.336  -0.201  -0.149
    1UNL     O6   14  -0.243  -0.306  -0.149
    1UNL     C9   15  -0.383  -0.206   0.106
    1UNL     O7   16  -0.476  -0.131   0.183
    1UNL    C10   17  -0.263  -0.250   0.195
    1UNL     O8   18  -0.177  -0.338   0.126
    1UNL    C11   19  -0.182  -0.125   0.242
    1UNL     O9   20  -0.051  -0.165   0.271
    1UNL    C12   21  -0.049   0.132  -0.095
    1UNL    C13   22   0.080   0.055  -0.113
    1UNL    C14   23   0.093  -0.091  -0.084
    1UNL     N1   24   0.129  -0.171  -0.205
    1UNL    C15   25   0.271  -0.194  -0.233
    1UNL    C16   26   0.346  -0.256  -0.114
    1UNL    C17   27   0.303  -0.194   0.015
    1UNL    C18   28   0.189  -0.119   0.027
    1UNL     N2   29   0.175  -0.078   0.158
    1UNL    C19   30   0.281  -0.128   0.232
    1UNL    C20   31   0.312  -0.118   0.368
    1UNL    C21   32   0.425  -0.181   0.413
    1UNL    C22   33   0.508  -0.253   0.326
    1UNL    C23   34   0.479  -0.264   0.193
    1UNL    C24   35   0.363  -0.201   0.144
    1UNL    C25   36   0.174   0.134  -0.165
    1UNL    C26   37   0.120   0.271  -0.197
    1UNL    C27   38  -0.033   0.258  -0.184
    1UNL     H1   39  -0.046   0.747  -0.238
    1UNL     H2   40  -0.188   0.696  -0.334
    1UNL     H3   41  -0.209   0.804  -0.193
    1UNL     H4   42  -0.236   0.454   0.016
    1UNL     H5   43   0.014   0.237   0.082
    1UNL     H6   44  -0.268   0.055   0.148
    1UNL     H7   45  -0.398  -0.034  -0.026
    1UNL     H8   46  -0.312  -0.134  -0.232
    1UNL     H9   47  -0.437  -0.241  -0.166
    1UNL    H10   48  -0.245  -0.354  -0.235
    1UNL    H11   49  -0.434  -0.296   0.070
    1UNL    H12   50  -0.552  -0.103   0.129
    1UNL    H13   51  -0.300  -0.305   0.283
    1UNL    H14   52  -0.189  -0.325   0.029
    1UNL    H15   53  -0.223  -0.085   0.336
    1UNL    H16   54  -0.017  -0.215   0.192
    1UNL    H17   55  -0.135   0.071  -0.127
    1UNL    H18   56  -0.006  -0.125  -0.050
    1UNL    H19   57   0.078  -0.260  -0.204
    1UNL    H20   58   0.280  -0.257  -0.323
    1UNL    H21   59   0.316  -0.098  -0.260
    1UNL    H22   60   0.454  -0.245  -0.126
    1UNL    H23   61   0.327  -0.364  -0.110
    1UNL    H24   62   0.094  -0.025   0.191
    1UNL    H25   63   0.247  -0.063   0.433
    1UNL    H26   64   0.451  -0.174   0.518
    1UNL    H27   65   0.596  -0.301   0.366
    1UNL    H28   66   0.542  -0.320   0.126
    1UNL    H29   67   0.274   0.101  -0.188
    1UNL    H30   68   0.158   0.345  -0.125
    1UNL    H31   69   0.150   0.305  -0.297
    1UNL    H32   70  -0.076   0.238  -0.283
   0.00000   0.00000   0.00000   0.00000   0.00000   0.00000   0.00000   0.00000   0.00000
Generated with MDTraj, t= 1.0
 70
    1UNL     C1    1  -0.148   0.720  -0.233
    1UNL     O1    2  -0.156   0.610  -0.144
    1UNL     C2    3  -0.119   0.499  -0.211
    1UNL     O2    4  -0.085   0.506  -0.328
    1UNL     C3    5  -0.109   0.376  -0.127
    1UNL     C4    6  -0.175   0.363  -0.007
    1UNL     O3    7  -0.173   0.257   0.078
    1UNL     C5    8  -0.062   0.170   0.051
    1UNL     O4    9  -0.058   0.055   0.131
    1UNL     C6   10  -0.172  -0.027   0.128
    1UNL     O5   11  -0.198  -0.078  -0.006
    1UNL     C7   12  -0.336  -0.119  -0.017
    1UNL     C8   13  -0.372  -0.186  -0.149
    1UNL     O6   14  -0.288  -0.300  -0.162
    1UNL     C9   15  -0.389  -0.199   0.103
    1UNL     O7   16  -0.477  -0.118   0.188
    1UNL    C10   17  -0.262  -0.258   0.185
    1UNL     O8   18  -0.188  -0.347   0.104
    1UNL    C11   19  -0.177  -0.142   0.232
    1UNL     O9   20  -0.053  -0.188   0.275
    1UNL    C12   21  -0.042   0.137  -0.095
    1UNL    C13   22   0.091   0.072  -0.120
    1UNL    C14   23   0.120  -0.073  -0.075
    1UNL     N1   24   0.145  -0.162  -0.196
    1UNL    C15   25   0.282  -0.213  -0.221
    1UNL    C16   26   0.346  -0.273  -0.097
    1UNL    C17   27   0.316  -0.189   0.022
    1UNL    C18   28   0.216  -0.092   0.029
    1UNL     N2   29   0.204  -0.048   0.168
    1UNL    C19   30   0.309  -0.111   0.242
    1UNL    C20   31   0.316  -0.122   0.384
    1UNL    C21   32   0.419  -0.198   0.435
    1UNL    C22   33   0.499  -0.272   0.339
    1UNL    C23   34   0.473  -0.281   0.201
    1UNL    C24   35   0.377  -0.189   0.153
    1UNL    C25   36   0.173   0.154  -0.188
    1UNL    C26   37   0.105   0.281  -0.221
    1UNL    C27   38  -0.043   0.261  -0.189
    1UNL     H1   39  -0.235   0.716  -0.291
    1UNL     H2   40  -0.135   0.812  -0.182
    1UNL     H3   41  -0.067   0.709  -0.298
    1UNL     H4   42  -0.215   0.449   0.034
    1UNL     H5   43   0.027   0.227   0.085
    1UNL     H6   44  -0.253   0.052   0.143
    1UNL     H7   45  -0.391  -0.026  -0.008
    1UNL     H8   46  -0.361  -0.113  -0.231
    1UNL     H9   47  -0.480  -0.223  -0.137
    1UNL    H10   48  -0.242  -0.314  -0.242
    1UNL    H11   49  -0.439  -0.286   0.053
    1UNL    H12   50  -0.559  -0.099   0.149
    1UNL    H13   51  -0.309  -0.318   0.263
    1UNL    H14   52  -0.191  -0.335   0.002
    1UNL    H15   53  -0.230  -0.090   0.309
    1UNL    H16   54   0.028  -0.137   0.249
    1UNL    H17   55  -0.118   0.062  -0.119
    1UNL    H18   56   0.028  -0.121  -0.033
    1UNL    H19   57   0.075  -0.236  -0.204
    1UNL    H20   58   0.285  -0.289  -0.304
    1UNL    H21   59   0.347  -0.130  -0.251
    1UNL    H22   60   0.457  -0.280  -0.103
    1UNL    H23   61   0.313  -0.375  -0.079
    1UNL    H24   62   0.115   0.008   0.193
    1UNL    H25   63   0.253  -0.064   0.454
    1UNL    H26   64   0.448  -0.211   0.538
    1UNL    H27   65   0.573  -0.334   0.375
    1UNL    H28   66   0.537  -0.337   0.135
    1UNL    H29   67   0.272   0.115  -0.207
    1UNL    H30   68   0.141   0.355  -0.148
    1UNL    H31   69   0.131   0.306  -0.322
    1UNL    H32   70  -0.092   0.231  -0.280
   0.00000   0.00000   0.00000   0.00000   0.00000   0.00000   0.00000   0.00000   0.00000
Generated with MDTraj, t= 2.0
 70
    1UNL     C1    1  -0.171   0.709  -0.208
    1UNL     O1    2  -0.160   0.599  -0.124
    1UNL     C2    3  -0.126   0.493  -0.202
    1UNL     O2    4  -0.110   0.494  -0.323
    1UNL     C3    5  -0.108   0.365  -0.133
    1UNL     C4    6  -0.158   0.364  -0.009
    1UNL     O3    7  -0.162   0.258   0.073
    1UNL     C5    8  -0.052   0.162   0.051
    1UNL     O4    9  -0.050   0.045   0.130
    1UNL     C6   10  -0.176  -0.018   0.122
    1UNL     O5   11  -0.213  -0.058  -0.013
    1UNL     C7   12  -0.355  -0.099  -0.020
    1UNL     C8   13  -0.383  -0.165  -0.155
    1UNL     O6   14  -0.294  -0.277  -0.171
    1UNL     C9   15  -0.397  -0.194   0.104
    1UNL     O7   16  -0.470  -0.113   0.196
    1UNL    C10   17  -0.273  -0.253   0.180
    1UNL     O8   18  -0.201  -0.345   0.096
    1UNL    C11   19  -0.177  -0.140   0.228
    1UNL     O9   20  -0.042  -0.195   0.244
    1UNL    C12   21  -0.042   0.124  -0.100
    1UNL    C13   22   0.091   0.051  -0.119
    1UNL    C14   23   0.118  -0.085  -0.075
    1UNL     N1   24   0.156  -0.177  -0.193
    1UNL    C15   25   0.296  -0.187  -0.219
    1UNL    C16   26   0.367  -0.258  -0.095
    1UNL    C17   27   0.330  -0.190   0.029
    1UNL    C18   28   0.221  -0.107   0.032
    1UNL     N2   29   0.222  -0.037   0.152
    1UNL    C19   30   0.316  -0.099   0.236
    1UNL    C20   31   0.340  -0.088   0.368
    1UNL    C21   32   0.424  -0.173   0.436
    1UNL    C22   33   0.478  -0.289   0.369
    1UNL    C23   34   0.455  -0.298   0.235
    1UNL    C24   35   0.380  -0.204   0.163
    1UNL    C25   36   0.172   0.133  -0.194
    1UNL    C26   37   0.106   0.266  -0.228
    1UNL    C27   38  -0.044   0.247  -0.194
    1UNL     H1   39  -0.183   0.795  -0.150
    1UNL     H2   40  -0.081   0.711  -0.266
    1UNL     H3   41  -0.255   0.692  -0.267
    1UNL     H4   42  -0.222   0.447   0.028
    1UNL     H5   43   0.041   0.218   0.073
    1UNL     H6   44  -0.252   0.066   0.153
    1UNL     H7   45  -0.419  -0.016  -0.005
    1UNL     H8   46  -0.366  -0.083  -0.230
    1UNL     H9   47  -0.491  -0.203  -0.155
    1UNL    H10   48  -0.233  -0.246  -0.247
    1UNL    H11   49  -0.458  -0.277   0.058
    1UNL    H12   50  -0.555  -0.085   0.175
    1UNL    H13   51  -0.299  -0.317   0.265
    1UNL    H14   52  -0.211  -0.319   0.003
    1UNL    H15   53  -0.210  -0.104   0.321
    1UNL    H16   54   0.040  -0.140   0.215
    1UNL    H17   55  -0.116   0.051  -0.128
    1UNL    H18   56   0.022  -0.135  -0.041
    1UNL    H19   57   0.126  -0.271  -0.169
    1UNL    H20   58   0.318  -0.251  -0.308
    1UNL    H21   59   0.343  -0.086  -0.231
    1UNL    H22   60   0.477  -0.258  -0.113
    1UNL    H23   61   0.337  -0.364  -0.089
    1UNL    H24   62   0.152   0.034   0.180
    1UNL    H25   63   0.294  -0.009   0.421
    1UNL    H26   64   0.438  -0.165   0.547
    1UNL    H27   65   0.541  -0.373   0.421
    1UNL    H28   66   0.494  -0.381   0.175
    1UNL    H29   67   0.277   0.128  -0.228
    1UNL    H30   68   0.155   0.346  -0.172
    1UNL    H31   69   0.112   0.282  -0.333
    1UNL    H32   70  -0.098   0.215  -0.278
   0.00000   0.00000   0.00000   0.00000   0.00000   0.00000   0.00000   0.00000   0.00000
Generated with MDTraj, t= 3.0
 70
    1UNL     C1    1  -0.193   0.699  -0.216
    1UNL     O1    2  -0.180   0.591  -0.126
    1UNL     C2    3  -0.122   0.488  -0.194
    1UNL     O2    4  -0.080   0.497  -0.309
    1UNL     C3    5  -0.105   0.358  -0.121
    1UNL     C4    6  -0.155   0.350   0.005
    1UNL     O3    7  -0.156   0.237   0.082
    1UNL     C5    8  -0.045   0.150   0.048
    1UNL     O4    9  -0.044   0.036   0.129
    1UNL     C6   10  -0.166  -0.031   0.126
    1UNL     O5   11  -0.214  -0.074   0.005
    1UNL     C7   12  -0.362  -0.090  -0.008
    1UNL     C8   13  -0.379  -0.139  -0.150
    1UNL     O6   14  -0.270  -0.215  -0.192
    1UNL     C9   15  -0.403  -0.182   0.118
    1UNL     O7   16  -0.463  -0.103   0.216
    1UNL    C10   17  -0.282  -0.253   0.177
    1UNL     O8   18  -0.233  -0.358   0.089
    1UNL    C11   19  -0.168  -0.156   0.225
    1UNL     O9   20  -0.047  -0.234   0.225
    1UNL    C12   21  -0.029   0.116  -0.102
    1UNL    C13   22   0.103   0.052  -0.139
    1UNL    C14   23   0.133  -0.082  -0.101
    1UNL     N1   24   0.176  -0.175  -0.215
    1UNL    C15   25   0.306  -0.229  -0.207
    1UNL    C16   26   0.350  -0.290  -0.069
    1UNL    C17   27   0.318  -0.194   0.032
    1UNL    C18   28   0.219  -0.099   0.024
    1UNL     N2   29   0.201  -0.047   0.147
    1UNL    C19   30   0.287  -0.098   0.235
    1UNL    C20   31   0.318  -0.072   0.374
    1UNL    C21   32   0.420  -0.145   0.431
    1UNL    C22   33   0.493  -0.240   0.355
    1UNL    C23   34   0.469  -0.268   0.225
    1UNL    C24   35   0.366  -0.193   0.164
    1UNL    C25   36   0.178   0.141  -0.206
    1UNL    C26   37   0.113   0.273  -0.232
    1UNL    C27   38  -0.038   0.244  -0.187
    1UNL     H1   39  -0.131   0.780  -0.178
    1UNL     H2   40  -0.156   0.669  -0.318
    1UNL     H3   41  -0.296   0.731  -0.219
    1UNL     H4   42  -0.211   0.434   0.056
    1UNL     H5   43   0.039   0.219   0.075
    1UNL     H6   44  -0.246   0.041   0.168
    1UNL     H7   45  -0.417  -0.002   0.009
    1UNL     H8   46  -0.395  -0.059  -0.224
    1UNL     H9   47  -0.465  -0.215  -0.146
    1UNL    H10   48  -0.201  -0.151  -0.222
    1UNL    H11   49  -0.481  -0.253   0.078
    1UNL    H12   50  -0.548  -0.066   0.191
    1UNL    H13   51  -0.314  -0.292   0.274
    1UNL    H14   52  -0.226  -0.298   0.007
    1UNL    H15   53  -0.183  -0.123   0.326
    1UNL    H16   54   0.031  -0.168   0.227
    1UNL    H17   55  -0.115   0.056  -0.128
    1UNL    H18   56   0.031  -0.123  -0.065
    1UNL    H19   57   0.103  -0.241  -0.237
    1UNL    H20   58   0.321  -0.312  -0.283
    1UNL    H21   59   0.378  -0.144  -0.225
    1UNL    H22   60   0.456  -0.326  -0.073
    1UNL    H23   61   0.290  -0.383  -0.059
    1UNL    H24   62   0.158   0.040   0.174
    1UNL    H25   63   0.239  -0.016   0.425
    1UNL    H26   64   0.431  -0.130   0.533
    1UNL    H27   65   0.561  -0.299   0.405
    1UNL    H28   66   0.502  -0.346   0.161
    1UNL    H29   67   0.275   0.103  -0.223
    1UNL    H30   68   0.166   0.333  -0.156
    1UNL    H31   69   0.131   0.305  -0.331
    1UNL    H32   70  -0.088   0.228  -0.277
   0.00000   0.00000   0.00000   0.00000   0.00000   0.00000   0.00000   0.00000   0.00000
Generated with MDTraj, t= 4.0
 70
    1UNL     C1    1  -0.205   0.690  -0.213
    1UNL     O1    2  -0.213   0.571  -0.142
    1UNL     C2    3  -0.115   0.483  -0.191
    1UNL     O2    4  -0.039   0.510  -0.282
    1UNL     C3    5  -0.099   0.357  -0.120
    1UNL     C4    6  -0.162   0.348   0.001
    1UNL     O3    7  -0.158   0.244   0.087
    1UNL     C5    8  -0.048   0.157   0.059
    1UNL     O4    9  -0.052   0.040   0.143
    1UNL     C6   10  -0.175  -0.034   0.122
    1UNL     O5   11  -0.225  -0.044  -0.006
    1UNL     C7   12  -0.368  -0.080  -0.007
    1UNL     C8   13  -0.390  -0.151  -0.136
    1UNL     O6   14  -0.276  -0.222  -0.193
    1UNL     C9   15  -0.402  -0.163   0.126
    1UNL     O7   16  -0.440  -0.084   0.230
    1UNL    C10   17  -0.287  -0.256   0.163
    1UNL     O8   18  -0.252  -0.338   0.057
    1UNL    C11   19  -0.164  -0.175   0.199
    1UNL     O9   20  -0.046  -0.237   0.172
    1UNL    C12   21  -0.041   0.116  -0.091
    1UNL    C13   22   0.092   0.037  -0.110
    1UNL    C14   23   0.120  -0.107  -0.087
    1UNL     N1   24   0.187  -0.173  -0.215
    1UNL    C15   25   0.322  -0.232  -0.211
    1UNL    C16   26   0.350  -0.302  -0.080
    1UNL    C17   27   0.315  -0.216   0.032
    1UNL    C18   28   0.209  -0.123   0.027
    1UNL     N2   29   0.197  -0.051   0.140
    1UNL    C19   30   0.291  -0.098   0.228
    1UNL    C20   31   0.327  -0.054   0.357
    1UNL    C21   32   0.428  -0.108   0.429
    1UNL    C22   33   0.506  -0.208   0.363
    1UNL    C23   34   0.477  -0.252   0.232
    1UNL    C24   35   0.367  -0.201   0.161
    1UNL    C25   36   0.179   0.112  -0.181
    1UNL    C26   37   0.122   0.252  -0.209
    1UNL    C27   38  -0.031   0.241  -0.181
    1UNL     H1   39  -0.097   0.701  -0.248
    1UNL     H2   40  -0.278   0.694  -0.302
    1UNL     H3   41  -0.223   0.775  -0.143
    1UNL     H4   42  -0.214   0.433   0.034
    1UNL     H5   43   0.040   0.221   0.086
    1UNL     H6   44  -0.256   0.019   0.178
    1UNL     H7   45  -0.415   0.011   0.001
    1UNL     H8   46  -0.415  -0.084  -0.216
    1UNL     H9   47  -0.465  -0.236  -0.131
    1UNL    H10   48  -0.202  -0.162  -0.203
    1UNL    H11   49  -0.482  -0.234   0.094
    1UNL    H12   50  -0.526  -0.033   0.210
    1UNL    H13   51  -0.313  -0.320   0.249
    1UNL    H14   52  -0.229  -0.266  -0.007
    1UNL    H15   53  -0.162  -0.149   0.306
    1UNL    H16   54   0.028  -0.172   0.186
    1UNL    H17   55  -0.110   0.037  -0.116
    1UNL    H18   56   0.026  -0.162  -0.050
    1UNL    H19   57   0.119  -0.236  -0.254
    1UNL    H20   58   0.339  -0.300  -0.301
    1UNL    H21   59   0.396  -0.144  -0.221
    1UNL    H22   60   0.454  -0.342  -0.079
    1UNL    H23   61   0.295  -0.400  -0.074
    1UNL    H24   62   0.115   0.002   0.159
    1UNL    H25   63   0.269   0.028   0.394
    1UNL    H26   64   0.460  -0.074   0.532
    1UNL    H27   65   0.594  -0.246   0.410
    1UNL    H28   66   0.546  -0.324   0.187
    1UNL    H29   67   0.283   0.091  -0.215
    1UNL    H30   68   0.153   0.323  -0.131
    1UNL    H31   69   0.142   0.280  -0.307
    1UNL    H32   70  -0.086   0.223  -0.266
   0.00000   0.00000   0.00000   0.00000   0.00000   0.00000   0.00000   0.00000   0.00000
Generated with MDTraj, t= 5.0
 70
    1UNL     C1    1  -0.204   0.680  -0.241
    1UNL     O1    2  -0.192   0.581  -0.146
    1UNL     C2    3  -0.101   0.491  -0.183
    1UNL     O2    4  -0.026   0.510  -0.277
    1UNL     C3    5  -0.093   0.362  -0.114
    1UNL     C4    6  -0.167   0.336  -0.005
    1UNL     O3    7  -0.179   0.223   0.073
    1UNL     C5    8  -0.066   0.136   0.048
    1UNL     O4    9  -0.052   0.020   0.126
    1UNL     C6   10  -0.182  -0.038   0.122
    1UNL     O5   11  -0.241  -0.048  -0.011
    1UNL     C7   12  -0.378  -0.081  -0.008
    1UNL     C8   13  -0.411  -0.150  -0.140
    1UNL     O6   14  -0.293  -0.221  -0.192
    1UNL     C9   15  -0.412  -0.159   0.124
    1UNL     O7   16  -0.451  -0.082   0.238
    1UNL    C10   17  -0.304  -0.262   0.167
    1UNL     O8   18  -0.288  -0.371   0.074
    1UNL    C11   19  -0.168  -0.185   0.184
    1UNL     O9   20  -0.065  -0.252   0.132
    1UNL    C12   21  -0.026   0.112  -0.099
    1UNL    C13   22   0.105   0.045  -0.113
    1UNL    C14   23   0.123  -0.098  -0.074
    1UNL     N1   24   0.164  -0.178  -0.191
    1UNL    C15   25   0.303  -0.203  -0.205
    1UNL    C16   26   0.366  -0.274  -0.084
    1UNL    C17   27   0.312  -0.207   0.046
    1UNL    C18   28   0.217  -0.117   0.043
    1UNL     N2   29   0.204  -0.044   0.167
    1UNL    C19   30   0.313  -0.091   0.239
    1UNL    C20   31   0.355  -0.041   0.359
    1UNL    C21   32   0.466  -0.102   0.409
    1UNL    C22   33   0.530  -0.213   0.348
    1UNL    C23   34   0.484  -0.256   0.226
    1UNL    C24   35   0.374  -0.192   0.170
    1UNL    C25   36   0.194   0.126  -0.166
    1UNL    C26   37   0.137   0.264  -0.187
    1UNL    C27   38  -0.014   0.247  -0.178
    1UNL     H1   39  -0.112   0.677  -0.308
    1UNL     H2   40  -0.302   0.664  -0.299
    1UNL     H3   41  -0.203   0.782  -0.190
    1UNL     H4   42  -0.236   0.412   0.020
    1UNL     H5   43   0.013   0.205   0.093
    1UNL     H6   44  -0.252   0.026   0.176
    1UNL     H7   45  -0.437   0.005   0.009
    1UNL     H8   46  -0.421  -0.078  -0.215
    1UNL     H9   47  -0.499  -0.221  -0.140
    1UNL    H10   48  -0.206  -0.174  -0.167
    1UNL    H11   49  -0.500  -0.216   0.090
    1UNL    H12   50  -0.535  -0.019   0.225
    1UNL    H13   51  -0.338  -0.322   0.254
    1UNL    H14   52  -0.280  -0.327  -0.015
    1UNL    H15   53  -0.143  -0.174   0.294
    1UNL    H16   54   0.013  -0.200   0.149
    1UNL    H17   55  -0.103   0.050  -0.143
    1UNL    H18   56   0.027  -0.148  -0.046
    1UNL    H19   57   0.112  -0.264  -0.201
    1UNL    H20   58   0.317  -0.256  -0.306
    1UNL    H21   59   0.354  -0.103  -0.235
    1UNL    H22   60   0.477  -0.279  -0.079
    1UNL    H23   61   0.352  -0.386  -0.084
    1UNL    H24   62   0.138   0.029   0.171
    1UNL    H25   63   0.322   0.052   0.406
    1UNL    H26   64   0.508  -0.067   0.497
    1UNL    H27   65   0.626  -0.259   0.398
    1UNL    H28   66   0.543  -0.329   0.176
    1UNL    H29   67   0.291   0.086  -0.157
    1UNL    H30   68   0.174   0.318  -0.099
    1UNL    H31   69   0.162   0.291  -0.286
    1UNL    H32   70  -0.050   0.247  -0.275
   0.00000   0.00000   0.00000   0.00000   0.00000   0.00000   0.00000   0.00000   0.00000
Generated with MDTraj, t= 6.0
 70
    1UNL     C1    1  -0.183   0.701  -0.231
    1UNL     O1    2  -0.181   0.589  -0.146
    1UNL     C2    3  -0.099   0.487  -0.203
    1UNL     O2    4  -0.028   0.510  -0.300
    1UNL     C3    5  -0.097   0.363  -0.131
    1UNL     C4    6  -0.171   0.346  -0.020
    1UNL     O3    7  -0.178   0.232   0.061
    1UNL     C5    8  -0.067   0.143   0.055
    1UNL     O4    9  -0.074   0.025   0.132
    1UNL     C6   10  -0.195  -0.037   0.125
    1UNL     O5   11  -0.243  -0.058  -0.010
    1UNL     C7   12  -0.384  -0.084  -0.014
    1UNL     C8   13  -0.420  -0.156  -0.150
    1UNL     O6   14  -0.336  -0.269  -0.171
    1UNL     C9   15  -0.439  -0.170   0.111
    1UNL     O7   16  -0.468  -0.081   0.222
    1UNL    C10   17  -0.317  -0.261   0.165
    1UNL     O8   18  -0.293  -0.374   0.090
    1UNL    C11   19  -0.185  -0.176   0.185
    1UNL     O9   20  -0.074  -0.249   0.141
    1UNL    C12   21  -0.029   0.114  -0.094
    1UNL    C13   22   0.111   0.051  -0.097
    1UNL    C14   23   0.121  -0.092  -0.063
    1UNL     N1   24   0.159  -0.173  -0.182
    1UNL    C15   25   0.301  -0.210  -0.208
    1UNL    C16   26   0.374  -0.268  -0.084
    1UNL    C17   27   0.338  -0.190   0.034
    1UNL    C18   28   0.221  -0.117   0.045
    1UNL     N2   29   0.204  -0.070   0.169
    1UNL    C19   30   0.317  -0.106   0.242
    1UNL    C20   31   0.353  -0.087   0.377
    1UNL    C21   32   0.476  -0.132   0.417
    1UNL    C22   33   0.568  -0.188   0.330
    1UNL    C23   34   0.531  -0.214   0.201
    1UNL    C24   35   0.406  -0.177   0.159
    1UNL    C25   36   0.204   0.137  -0.138
    1UNL    C26   37   0.146   0.277  -0.162
    1UNL    C27   38  -0.008   0.244  -0.180
    1UNL     H1   39  -0.096   0.762  -0.200
    1UNL     H2   40  -0.167   0.660  -0.332
    1UNL     H3   41  -0.274   0.766  -0.229
    1UNL     H4   42  -0.232   0.433   0.021
    1UNL     H5   43   0.030   0.190   0.096
    1UNL     H6   44  -0.266   0.027   0.170
    1UNL     H7   45  -0.438   0.007   0.003
    1UNL     H8   46  -0.425  -0.090  -0.231
    1UNL     H9   47  -0.517  -0.206  -0.133
    1UNL    H10   48  -0.247  -0.243  -0.197
    1UNL    H11   49  -0.535  -0.207   0.079
    1UNL    H12   50  -0.546  -0.013   0.196
    1UNL    H13   51  -0.355  -0.306   0.260
    1UNL    H14   52  -0.264  -0.341   0.005
    1UNL    H15   53  -0.172  -0.172   0.300
    1UNL    H16   54   0.003  -0.194   0.157
    1UNL    H17   55  -0.096   0.045  -0.143
    1UNL    H18   56   0.025  -0.128  -0.025
    1UNL    H19   57   0.117  -0.265  -0.177
    1UNL    H20   58   0.305  -0.279  -0.300
    1UNL    H21   59   0.360  -0.119  -0.249
    1UNL    H22   60   0.485  -0.265  -0.096
    1UNL    H23   61   0.368  -0.379  -0.066
    1UNL    H24   62   0.120  -0.004   0.179
    1UNL    H25   63   0.285  -0.036   0.442
    1UNL    H26   64   0.505  -0.121   0.524
    1UNL    H27   65   0.658  -0.215   0.366
    1UNL    H28   66   0.608  -0.253   0.135
    1UNL    H29   67   0.310   0.128  -0.169
    1UNL    H30   68   0.160   0.329  -0.068
    1UNL    H31   69   0.183   0.318  -0.251
    1UNL    H32   70  -0.029   0.219  -0.278
   0.00000   0.00000   0.00000   0.00000   0.00000   0.00000   0.00000   0.00000   0.00000
Generated with MDTraj, t= 7.0
 70
    1UNL     C1    1  -0.146   0.702  -0.215
    1UNL     O1    2  -0.176   0.582  -0.155
    1UNL     C2    3  -0.096   0.480  -0.201
    1UNL     O2    4  -0.025   0.492  -0.300
    1UNL     C3    5  -0.097   0.358  -0.127
    1UNL     C4    6  -0.166   0.341  -0.012
    1UNL     O3    7  -0.183   0.229   0.061
    1UNL     C5    8  -0.067   0.147   0.053
    1UNL     O4    9  -0.074   0.031   0.132
    1UNL     C6   10  -0.192  -0.032   0.118
    1UNL     O5   11  -0.229  -0.069  -0.021
    1UNL     C7   12  -0.376  -0.087  -0.023
    1UNL     C8   13  -0.412  -0.170  -0.154
    1UNL     O6   14  -0.333  -0.279  -0.160
    1UNL     C9   15  -0.433  -0.160   0.104
    1UNL     O7   16  -0.499  -0.072   0.192
    1UNL    C10   17  -0.324  -0.245   0.190
    1UNL     O8   18  -0.294  -0.357   0.114
    1UNL    C11   19  -0.193  -0.161   0.209
    1UNL     O9   20  -0.080  -0.250   0.181
    1UNL    C12   21  -0.032   0.107  -0.094
    1UNL    C13   22   0.100   0.036  -0.099
    1UNL    C14   23   0.111  -0.106  -0.069
    1UNL     N1   24   0.161  -0.183  -0.181
    1UNL    C15   25   0.300  -0.164  -0.219
    1UNL    C16   26   0.404  -0.192  -0.111
    1UNL    C17   27   0.338  -0.179   0.023
    1UNL    C18   28   0.209  -0.126   0.047
    1UNL     N2   29   0.195  -0.095   0.175
    1UNL    C19   30   0.313  -0.125   0.243
    1UNL    C20   31   0.345  -0.105   0.382
    1UNL    C21   32   0.471  -0.135   0.413
    1UNL    C22   33   0.564  -0.181   0.322
    1UNL    C23   34   0.544  -0.203   0.189
    1UNL    C24   35   0.411  -0.177   0.146
    1UNL    C25   36   0.192   0.121  -0.134
    1UNL    C26   37   0.135   0.264  -0.164
    1UNL    C27   38  -0.016   0.237  -0.181
    1UNL     H1   39  -0.081   0.750  -0.145
    1UNL     H2   40  -0.099   0.688  -0.307
    1UNL     H3   41  -0.231   0.767  -0.224
    1UNL     H4   42  -0.228   0.427   0.013
    1UNL     H5   43   0.022   0.204   0.105
    1UNL     H6   44  -0.262   0.040   0.148
    1UNL     H7   45  -0.413   0.017  -0.029
    1UNL     H8   46  -0.408  -0.107  -0.236
    1UNL     H9   47  -0.515  -0.208  -0.141
    1UNL    H10   48  -0.247  -0.244  -0.208
    1UNL    H11   49  -0.504  -0.229   0.064
    1UNL    H12   50  -0.567  -0.013   0.143
    1UNL    H13   51  -0.367  -0.292   0.281
    1UNL    H14   52  -0.279  -0.333   0.017
    1UNL    H15   53  -0.174  -0.136   0.321
    1UNL    H16   54   0.010  -0.197   0.175
    1UNL    H17   55  -0.120   0.057  -0.132
    1UNL    H18   56   0.016  -0.143  -0.037
    1UNL    H19   57   0.139  -0.282  -0.177
    1UNL    H20   58   0.332  -0.238  -0.303
    1UNL    H21   59   0.317  -0.059  -0.267
    1UNL    H22   60   0.505  -0.148  -0.122
    1UNL    H23   61   0.427  -0.301  -0.124
    1UNL    H24   62   0.119  -0.029   0.208
    1UNL    H25   63   0.262  -0.082   0.448
    1UNL    H26   64   0.497  -0.128   0.514
    1UNL    H27   65   0.665  -0.209   0.359
    1UNL    H28   66   0.615  -0.251   0.123
    1UNL    H29   67   0.296   0.102  -0.142
    1UNL    H30   68   0.142   0.320  -0.071
    1UNL    H31   69   0.178   0.302  -0.253
    1UNL    H32   70  -0.031   0.220  -0.282
   0.00000   0.00000   0.00000   0.00000   0.00000   0.00000   0.00000   0.00000   0.00000
Generated with MDTraj, t= 8.0
 70
    1UNL     C1    1  -0.140   0.694  -0.225
    1UNL     O1    2  -0.152   0.584  -0.140
    1UNL     C2    3  -0.079   0.478  -0.185
    1UNL     O2    4  -0.008   0.491  -0.285
    1UNL     C3    5  -0.095   0.353  -0.115
    1UNL     C4    6  -0.170   0.333  -0.005
    1UNL     O3    7  -0.192   0.217   0.061
    1UNL     C5    8  -0.077   0.136   0.052
    1UNL     O4    9  -0.073   0.028   0.148
    1UNL     C6   10  -0.190  -0.040   0.129
    1UNL     O5   11  -0.221  -0.075  -0.009
    1UNL     C7   12  -0.367  -0.097  -0.022
    1UNL     C8   13  -0.373  -0.186  -0.154
    1UNL     O6   14  -0.271  -0.276  -0.152
    1UNL     C9   15  -0.432  -0.150   0.104
    1UNL     O7   16  -0.488  -0.049   0.185
    1UNL    C10   17  -0.344  -0.243   0.189
    1UNL     O8   18  -0.332  -0.369   0.132
    1UNL    C11   19  -0.211  -0.171   0.221
    1UNL     O9   20  -0.107  -0.262   0.208
    1UNL    C12   21  -0.036   0.101  -0.096
    1UNL    C13   22   0.101   0.040  -0.114
    1UNL    C14   23   0.113  -0.107  -0.071
    1UNL     N1   24   0.166  -0.180  -0.189
    1UNL    C15   25   0.301  -0.161  -0.239
    1UNL    C16   26   0.406  -0.177  -0.121
    1UNL    C17   27   0.344  -0.152   0.018
    1UNL    C18   28   0.217  -0.116   0.031
    1UNL     N2   29   0.184  -0.095   0.165
    1UNL    C19   30   0.301  -0.109   0.233
    1UNL    C20   31   0.334  -0.108   0.365
    1UNL    C21   32   0.457  -0.148   0.405
    1UNL    C22   33   0.556  -0.184   0.316
    1UNL    C23   34   0.530  -0.186   0.188
    1UNL    C24   35   0.402  -0.153   0.147
    1UNL    C25   36   0.193   0.125  -0.160
    1UNL    C26   37   0.124   0.261  -0.191
    1UNL    C27   38  -0.028   0.236  -0.176
    1UNL     H1   39  -0.047   0.695  -0.273
    1UNL     H2   40  -0.217   0.697  -0.293
    1UNL     H3   41  -0.140   0.782  -0.165
    1UNL     H4   42  -0.220   0.417   0.029
    1UNL     H5   43   0.011   0.203   0.094
    1UNL     H6   44  -0.262   0.030   0.165
    1UNL     H7   45  -0.398   0.008  -0.053
    1UNL     H8   46  -0.361  -0.129  -0.242
    1UNL     H9   47  -0.473  -0.236  -0.152
    1UNL    H10   48  -0.197  -0.238  -0.109
    1UNL    H11   49  -0.512  -0.215   0.069
    1UNL    H12   50  -0.533   0.020   0.135
    1UNL    H13   51  -0.410  -0.254   0.278
    1UNL    H14   52  -0.319  -0.367   0.037
    1UNL    H15   53  -0.198  -0.131   0.326
    1UNL    H16   54  -0.016  -0.218   0.204
    1UNL    H17   55  -0.117   0.042  -0.134
    1UNL    H18   56   0.019  -0.145  -0.035
    1UNL    H19   57   0.139  -0.277  -0.177
    1UNL    H20   58   0.330  -0.231  -0.327
    1UNL    H21   59   0.326  -0.055  -0.278
    1UNL    H22   60   0.487  -0.104  -0.137
    1UNL    H23   61   0.463  -0.273  -0.125
    1UNL    H24   62   0.109  -0.036   0.191
    1UNL    H25   63   0.261  -0.087   0.440
    1UNL    H26   64   0.483  -0.146   0.512
    1UNL    H27   65   0.656  -0.209   0.362
    1UNL    H28   66   0.597  -0.227   0.113
    1UNL    H29   67   0.296   0.100  -0.186
    1UNL    H30   68   0.143   0.333  -0.112
    1UNL    H31   69   0.135   0.285  -0.294
    1UNL    H32   70  -0.066   0.224  -0.272
   0.00000   0.00000   0.00000   0.00000   0.00000   0.00000   0.00000   0.00000   0.00000
Generated with MDTraj, t= 9.0
 70
    1UNL     C1    1  -0.140   0.711  -0.195
    1UNL     O1    2  -0.165   0.598  -0.119
    1UNL     C2    3  -0.095   0.491  -0.178
    1UNL     O2    4  -0.022   0.502  -0.276
    1UNL     C3    5  -0.100   0.362  -0.115
    1UNL     C4    6  -0.161   0.354   0.007
    1UNL     O3    7  -0.161   0.242   0.086
    1UNL     C5    8  -0.059   0.147   0.059
    1UNL     O4    9  -0.071   0.025   0.136
    1UNL     C6   10  -0.196  -0.030   0.109
    1UNL     O5   11  -0.229  -0.067  -0.024
    1UNL     C7   12  -0.364  -0.114  -0.040
    1UNL     C8   13  -0.361  -0.239  -0.133
    1UNL     O6   14  -0.240  -0.316  -0.129
    1UNL     C9   15  -0.439  -0.149   0.094
    1UNL     O7   16  -0.469  -0.027   0.160
    1UNL    C10   17  -0.341  -0.227   0.185
    1UNL     O8   18  -0.323  -0.361   0.155
    1UNL    C11   19  -0.204  -0.156   0.196
    1UNL     O9   20  -0.103  -0.239   0.159
    1UNL    C12   21  -0.045   0.109  -0.090
    1UNL    C13   22   0.081   0.035  -0.116
    1UNL    C14   23   0.117  -0.110  -0.082
    1UNL     N1   24   0.165  -0.192  -0.196
    1UNL    C15   25   0.308  -0.192  -0.228
    1UNL    C16   26   0.401  -0.219  -0.115
    1UNL    C17   27   0.341  -0.166   0.013
    1UNL    C18   28   0.210  -0.119   0.025
    1UNL     N2   29   0.186  -0.100   0.162
    1UNL    C19   30   0.299  -0.126   0.239
    1UNL    C20   31   0.319  -0.116   0.375
    1UNL    C21   32   0.447  -0.137   0.417
    1UNL    C22   33   0.558  -0.165   0.327
    1UNL    C23   34   0.536  -0.181   0.191
    1UNL    C24   35   0.399  -0.162   0.148
    1UNL    C25   36   0.168   0.118  -0.175
    1UNL    C26   37   0.111   0.259  -0.203
    1UNL    C27   38  -0.041   0.240  -0.181
    1UNL     H1   39  -0.090   0.684  -0.288
    1UNL     H2   40  -0.236   0.744  -0.224
    1UNL     H3   41  -0.079   0.789  -0.143
    1UNL     H4   42  -0.189   0.444   0.065
    1UNL     H5   43   0.043   0.202   0.084
    1UNL     H6   44  -0.279   0.032   0.149
    1UNL     H7   45  -0.416  -0.032  -0.102
    1UNL     H8   46  -0.381  -0.206  -0.233
    1UNL     H9   47  -0.443  -0.314  -0.105
    1UNL    H10   48  -0.155  -0.259  -0.107
    1UNL    H11   49  -0.530  -0.211   0.076
    1UNL    H12   50  -0.510   0.033   0.105
    1UNL    H13   51  -0.393  -0.216   0.282
    1UNL    H14   52  -0.293  -0.373   0.059
    1UNL    H15   53  -0.173  -0.140   0.300
    1UNL    H16   54  -0.018  -0.192   0.156
    1UNL    H17   55  -0.119   0.037  -0.122
    1UNL    H18   56   0.024  -0.148  -0.047
    1UNL    H19   57   0.116  -0.278  -0.180
    1UNL    H20   58   0.337  -0.281  -0.297
    1UNL    H21   59   0.340  -0.095  -0.281
    1UNL    H22   60   0.504  -0.181  -0.127
    1UNL    H23   61   0.417  -0.330  -0.103
    1UNL    H24   62   0.101  -0.056   0.197
    1UNL    H25   63   0.254  -0.082   0.454
    1UNL    H26   64   0.483  -0.120   0.517
    1UNL    H27   65   0.649  -0.173   0.370
    1UNL    H28   66   0.623  -0.192   0.129
    1UNL    H29   67   0.252   0.089  -0.235
    1UNL    H30   68   0.139   0.323  -0.121
    1UNL    H31   69   0.119   0.294  -0.304
    1UNL    H32   70  -0.086   0.223  -0.273
   0.00000   0.00000   0.00000   0.00000   0.00000   0.00000   0.00000   0.00000   0.00000
Generated with MDTraj, t= 10.0
 70
    1UNL     C1    1  -0.151   0.721  -0.163
    1UNL     O1    2  -0.162   0.597  -0.101
    1UNL     C2    3  -0.093   0.511  -0.175
    1UNL     O2    4  -0.051   0.535  -0.289
    1UNL     C3    5  -0.081   0.375  -0.114
    1UNL     C4    6  -0.130   0.355   0.012
    1UNL     O3    7  -0.142   0.239   0.081
    1UNL     C5    8  -0.044   0.146   0.047
    1UNL     O4    9  -0.054   0.019   0.116
    1UNL     C6   10  -0.185  -0.034   0.113
    1UNL     O5   11  -0.225  -0.062  -0.027
    1UNL     C7   12  -0.345  -0.131  -0.050
    1UNL     C8   13  -0.330  -0.261  -0.129
    1UNL     O6   14  -0.238  -0.360  -0.075
    1UNL     C9   15  -0.427  -0.162   0.083
    1UNL     O7   16  -0.486  -0.041   0.152
    1UNL    C10   17  -0.343  -0.233   0.191
    1UNL     O8   18  -0.346  -0.382   0.183
    1UNL    C11   19  -0.189  -0.170   0.200
    1UNL     O9   20  -0.088  -0.254   0.141
    1UNL    C12   21  -0.029   0.125  -0.108
    1UNL    C13   22   0.102   0.049  -0.137
    1UNL    C14   23   0.104  -0.093  -0.087
    1UNL     N1   24   0.153  -0.175  -0.202
    1UNL    C15   25   0.292  -0.186  -0.233
    1UNL    C16   26   0.366  -0.236  -0.107
    1UNL    C17   27   0.312  -0.180   0.027
    1UNL    C18   28   0.193  -0.110   0.032
    1UNL     N2   29   0.172  -0.074   0.161
    1UNL    C19   30   0.284  -0.105   0.235
    1UNL    C20   31   0.325  -0.070   0.366
    1UNL    C21   32   0.449  -0.105   0.410
    1UNL    C22   33   0.527  -0.185   0.331
    1UNL    C23   34   0.502  -0.225   0.201
    1UNL    C24   35   0.373  -0.176   0.156
    1UNL    C25   36   0.196   0.129  -0.191
    1UNL    C26   37   0.136   0.260  -0.223
    1UNL    C27   38  -0.022   0.252  -0.192
    1UNL     H1   39  -0.212   0.708  -0.256
    1UNL     H2   40  -0.207   0.797  -0.103
    1UNL     H3   41  -0.042   0.749  -0.191
    1UNL     H4   42  -0.191   0.437   0.063
    1UNL     H5   43   0.050   0.207   0.088
    1UNL     H6   44  -0.267   0.035   0.149
    1UNL     H7   45  -0.422  -0.066  -0.101
    1UNL     H8   46  -0.282  -0.241  -0.224
    1UNL     H9   47  -0.430  -0.317  -0.153
    1UNL    H10   48  -0.155  -0.319  -0.061
    1UNL    H11   49  -0.516  -0.227   0.060
    1UNL    H12   50  -0.532   0.017   0.099
    1UNL    H13   51  -0.386  -0.202   0.287
    1UNL    H14   52  -0.303  -0.406   0.102
    1UNL    H15   53  -0.144  -0.154   0.296
    1UNL    H16   54  -0.008  -0.204   0.152
    1UNL    H17   55  -0.121   0.077  -0.140
    1UNL    H18   56   0.002  -0.117  -0.057
    1UNL    H19   57   0.107  -0.263  -0.186
    1UNL    H20   58   0.308  -0.265  -0.318
    1UNL    H21   59   0.344  -0.092  -0.267
    1UNL    H22   60   0.473  -0.209  -0.110
    1UNL    H23   61   0.371  -0.347  -0.096
    1UNL    H24   62   0.106  -0.001   0.203
    1UNL    H25   63   0.266   0.004   0.418
    1UNL    H26   64   0.476  -0.078   0.509
    1UNL    H27   65   0.627  -0.225   0.369
    1UNL    H28   66   0.564  -0.281   0.134
    1UNL    H29   67   0.290   0.091  -0.221
    1UNL    H30   68   0.180   0.328  -0.154
    1UNL    H31   69   0.155   0.279  -0.327
    1UNL    H32   70  -0.068   0.243  -0.286
   0.00000   0.00000   0.00000   0.00000   0.00000   0.00000   0.00000   0.00000   0.00000
Generated with MDTraj, t= 11.0
 70
    1UNL     C1    1  -0.165   0.731  -0.170
    1UNL     O1    2  -0.123   0.623  -0.081
    1UNL     C2    3  -0.078   0.518  -0.159
    1UNL     O2    4  -0.045   0.529  -0.279
    1UNL     C3    5  -0.085   0.387  -0.101
    1UNL     C4    6  -0.161   0.361   0.009
    1UNL     O3    7  -0.182   0.242   0.068
    1UNL     C5    8  -0.071   0.157   0.047
    1UNL     O4    9  -0.070   0.041   0.119
    1UNL     C6   10  -0.184  -0.032   0.097
    1UNL     O5   11  -0.198  -0.086  -0.035
    1UNL     C7   12  -0.330  -0.151  -0.053
    1UNL     C8   13  -0.316  -0.277  -0.130
    1UNL     O6   14  -0.219  -0.365  -0.072
    1UNL     C9   15  -0.413  -0.183   0.078
    1UNL     O7   16  -0.483  -0.060   0.109
    1UNL    C10   17  -0.321  -0.209   0.203
    1UNL     O8   18  -0.304  -0.355   0.221
    1UNL    C11   19  -0.185  -0.150   0.198
    1UNL     O9   20  -0.077  -0.230   0.162
    1UNL    C12   21  -0.045   0.134  -0.107
    1UNL    C13   22   0.081   0.043  -0.130
    1UNL    C14   23   0.106  -0.101  -0.104
    1UNL     N1   24   0.154  -0.178  -0.220
    1UNL    C15   25   0.295  -0.220  -0.232
    1UNL    C16   26   0.353  -0.286  -0.104
    1UNL    C17   27   0.313  -0.195   0.013
    1UNL    C18   28   0.202  -0.115   0.012
    1UNL     N2   29   0.190  -0.056   0.130
    1UNL    C19   30   0.291  -0.084   0.217
    1UNL    C20   31   0.322  -0.050   0.345
    1UNL    C21   32   0.427  -0.118   0.406
    1UNL    C22   33   0.507  -0.212   0.338
    1UNL    C23   34   0.476  -0.242   0.211
    1UNL    C24   35   0.373  -0.182   0.148
    1UNL    C25   36   0.175   0.130  -0.172
    1UNL    C26   37   0.126   0.272  -0.182
    1UNL    C27   38  -0.027   0.270  -0.178
    1UNL     H1   39  -0.276   0.711  -0.181
    1UNL     H2   40  -0.163   0.833  -0.121
    1UNL     H3   41  -0.114   0.727  -0.274
    1UNL     H4   42  -0.218   0.439   0.054
    1UNL     H5   43   0.012   0.228   0.097
    1UNL     H6   44  -0.283   0.023   0.116
    1UNL     H7   45  -0.391  -0.069  -0.095
    1UNL     H8   46  -0.288  -0.267  -0.237
    1UNL     H9   47  -0.409  -0.350  -0.125
    1UNL    H10   48  -0.175  -0.320   0.012
    1UNL    H11   49  -0.486  -0.270   0.072
    1UNL    H12   50  -0.541  -0.051   0.031
    1UNL    H13   51  -0.368  -0.178   0.298
    1UNL    H14   52  -0.210  -0.372   0.250
    1UNL    H15   53  -0.160  -0.100   0.286
    1UNL    H16   54   0.003  -0.176   0.150
    1UNL    H17   55  -0.126   0.077  -0.154
    1UNL    H18   56   0.012  -0.151  -0.081
    1UNL    H19   57   0.086  -0.243  -0.255
    1UNL    H20   58   0.307  -0.298  -0.320
    1UNL    H21   59   0.359  -0.134  -0.259
    1UNL    H22   60   0.460  -0.319  -0.103
    1UNL    H23   61   0.303  -0.384  -0.090
    1UNL    H24   62   0.135   0.035   0.145
    1UNL    H25   63   0.253   0.020   0.390
    1UNL    H26   64   0.441  -0.088   0.514
    1UNL    H27   65   0.581  -0.261   0.396
    1UNL    H28   66   0.527  -0.318   0.150
    1UNL    H29   67   0.278   0.110  -0.207
    1UNL    H30   68   0.164   0.334  -0.107
    1UNL    H31   69   0.164   0.306  -0.277
    1UNL    H32   70  -0.078   0.260  -0.268
   0.00000   0.00000   0.00000   0.00000   0.00000   0.00000   0.00000   0.00000   0.00000
Generated with MDTraj, t= 12.0
 70
    1UNL     C1    1  -0.104   0.744  -0.152
    1UNL     O1    2  -0.160   0.620  -0.116
    1UNL     C2    3  -0.094   0.523  -0.184
    1UNL     O2    4  -0.019   0.542  -0.279
    1UNL     C3    5  -0.103   0.391  -0.125
    1UNL     C4    6  -0.186   0.363  -0.019
    1UNL     O3    7  -0.182   0.248   0.054
    1UNL     C5    8  -0.068   0.162   0.043
    1UNL     O4    9  -0.072   0.051   0.131
    1UNL     C6   10  -0.183  -0.028   0.115
    1UNL     O5   11  -0.194  -0.085  -0.021
    1UNL     C7   12  -0.308  -0.174  -0.042
    1UNL     C8   13  -0.253  -0.296  -0.119
    1UNL     O6   14  -0.149  -0.348  -0.048
    1UNL     C9   15  -0.394  -0.198   0.081
    1UNL     O7   16  -0.482  -0.087   0.098
    1UNL    C10   17  -0.315  -0.225   0.217
    1UNL     O8   18  -0.298  -0.372   0.235
    1UNL    C11   19  -0.187  -0.142   0.225
    1UNL     O9   20  -0.074  -0.231   0.199
    1UNL    C12   21  -0.040   0.139  -0.105
    1UNL    C13   22   0.096   0.072  -0.133
    1UNL    C14   23   0.100  -0.078  -0.105
    1UNL     N1   24   0.143  -0.149  -0.230
    1UNL    C15   25   0.282  -0.207  -0.224
    1UNL    C16   26   0.302  -0.293  -0.107
    1UNL    C17   27   0.269  -0.208   0.016
    1UNL    C18   28   0.178  -0.108   0.016
    1UNL     N2   29   0.177  -0.049   0.139
    1UNL    C19   30   0.278  -0.108   0.219
    1UNL    C20   31   0.321  -0.071   0.347
    1UNL    C21   32   0.432  -0.131   0.397
    1UNL    C22   33   0.494  -0.235   0.320
    1UNL    C23   34   0.449  -0.273   0.193
    1UNL    C24   35   0.336  -0.206   0.141
    1UNL    C25   36   0.186   0.166  -0.176
    1UNL    C26   37   0.119   0.302  -0.199
    1UNL    C27   38  -0.031   0.273  -0.186
    1UNL     H1   39  -0.137   0.769  -0.255
    1UNL     H2   40  -0.156   0.817  -0.088
    1UNL     H3   41   0.007   0.744  -0.141
    1UNL     H4   42  -0.232   0.445   0.026
    1UNL     H5   43   0.011   0.240   0.088
    1UNL     H6   44  -0.282   0.028   0.127
    1UNL     H7   45  -0.373  -0.113  -0.105
    1UNL     H8   46  -0.211  -0.288  -0.223
    1UNL     H9   47  -0.332  -0.384  -0.124
    1UNL    H10   48  -0.119  -0.290   0.028
    1UNL    H11   49  -0.460  -0.289   0.067
    1UNL    H12   50  -0.537  -0.075   0.009
    1UNL    H13   51  -0.392  -0.201   0.293
    1UNL    H14   52  -0.270  -0.422   0.152
    1UNL    H15   53  -0.180  -0.092   0.317
    1UNL    H16   54   0.004  -0.167   0.183
    1UNL    H17   55  -0.108   0.068  -0.151
    1UNL    H18   56   0.000  -0.122  -0.087
    1UNL    H19   57   0.078  -0.222  -0.250
    1UNL    H20   58   0.304  -0.267  -0.324
    1UNL    H21   59   0.360  -0.128  -0.221
    1UNL    H22   60   0.410  -0.321  -0.098
    1UNL    H23   61   0.254  -0.392  -0.108
    1UNL    H24   62   0.104   0.023   0.160
    1UNL    H25   63   0.258   0.001   0.400
    1UNL    H26   64   0.471  -0.095   0.485
    1UNL    H27   65   0.581  -0.284   0.358
    1UNL    H28   66   0.490  -0.354   0.141
    1UNL    H29   67   0.277   0.128  -0.214
    1UNL    H30   68   0.159   0.363  -0.125
    1UNL    H31   69   0.151   0.355  -0.287
    1UNL    H32   70  -0.073   0.260  -0.281
   0.00000   0.00000   0.00000   0.00000   0.00000   0.00000   0.00000   0.00000   0.00000
Generated with MDTraj, t= 13.0
 70
    1UNL     C1    1  -0.104   0.760  -0.167
    1UNL     O1    2  -0.147   0.635  -0.124
    1UNL     C2    3  -0.078   0.532  -0.179
    1UNL     O2    4   0.006   0.545  -0.269
    1UNL     C3    5  -0.111   0.393  -0.129
    1UNL     C4    6  -0.197   0.382  -0.022
    1UNL     O3    7  -0.222   0.263   0.048
    1UNL     C5    8  -0.103   0.188   0.038
    1UNL     O4    9  -0.091   0.080   0.130
    1UNL     C6   10  -0.194  -0.012   0.109
    1UNL     O5   11  -0.190  -0.086  -0.024
    1UNL     C7   12  -0.287  -0.186  -0.046
    1UNL     C8   13  -0.216  -0.319  -0.091
    1UNL     O6   14  -0.104  -0.350  -0.018
    1UNL     C9   15  -0.380  -0.210   0.073
    1UNL     O7   16  -0.470  -0.099   0.083
    1UNL    C10   17  -0.295  -0.225   0.205
    1UNL     O8   18  -0.241  -0.355   0.212
    1UNL    C11   19  -0.185  -0.120   0.219
    1UNL     O9   20  -0.057  -0.197   0.222
    1UNL    C12   21  -0.071   0.143  -0.107
    1UNL    C13   22   0.057   0.063  -0.118
    1UNL    C14   23   0.083  -0.082  -0.096
    1UNL     N1   24   0.136  -0.138  -0.226
    1UNL    C15   25   0.275  -0.189  -0.230
    1UNL    C16   26   0.302  -0.286  -0.116
    1UNL    C17   27   0.265  -0.218   0.018
    1UNL    C18   28   0.171  -0.114   0.019
    1UNL     N2   29   0.179  -0.044   0.142
    1UNL    C19   30   0.285  -0.113   0.213
    1UNL    C20   31   0.333  -0.095   0.343
    1UNL    C21   32   0.429  -0.175   0.398
    1UNL    C22   33   0.480  -0.283   0.321
    1UNL    C23   34   0.431  -0.307   0.191
    1UNL    C24   35   0.331  -0.218   0.142
    1UNL    C25   36   0.152   0.147  -0.163
    1UNL    C26   37   0.101   0.286  -0.200
    1UNL    C27   38  -0.047   0.269  -0.192
    1UNL     H1   39  -0.027   0.750  -0.239
    1UNL     H2   40  -0.186   0.806  -0.219
    1UNL     H3   41  -0.071   0.813  -0.082
    1UNL     H4   42  -0.251   0.474   0.013
    1UNL     H5   43  -0.028   0.274   0.074
    1UNL     H6   44  -0.294   0.035   0.094
    1UNL     H7   45  -0.345  -0.161  -0.134
    1UNL     H8   46  -0.174  -0.294  -0.190
    1UNL     H9   47  -0.271  -0.420  -0.112
    1UNL    H10   48  -0.119  -0.373   0.074
    1UNL    H11   49  -0.436  -0.305   0.058
    1UNL    H12   50  -0.526  -0.078  -0.005
    1UNL    H13   51  -0.365  -0.197   0.287
    1UNL    H14   52  -0.182  -0.357   0.289
    1UNL    H15   53  -0.178  -0.062   0.310
    1UNL    H16   54   0.023  -0.141   0.194
    1UNL    H17   55  -0.146   0.081  -0.158
    1UNL    H18   56  -0.013  -0.136  -0.077
    1UNL    H19   57   0.068  -0.205  -0.255
    1UNL    H20   58   0.282  -0.235  -0.340
    1UNL    H21   59   0.346  -0.105  -0.232
    1UNL    H22   60   0.408  -0.322  -0.112
    1UNL    H23   61   0.251  -0.381  -0.134
    1UNL    H24   62   0.123   0.038   0.156
    1UNL    H25   63   0.291  -0.015   0.397
    1UNL    H26   64   0.466  -0.160   0.506
    1UNL    H27   65   0.568  -0.342   0.360
    1UNL    H28   66   0.473  -0.394   0.137
    1UNL    H29   67   0.255   0.114  -0.177
    1UNL    H30   68   0.145   0.365  -0.147
    1UNL    H31   69   0.130   0.315  -0.300
    1UNL    H32   70  -0.091   0.256  -0.287
   0.00000   0.00000   0.00000   0.00000   0.00000   0.00000   0.00000   0.00000   0.00000
Generated with MDTraj, t= 14.0
 70
    1UNL     C1    1  -0.112   0.752  -0.198
    1UNL     O1    2  -0.142   0.640  -0.121
    1UNL     C2    3  -0.076   0.538  -0.171
    1UNL     O2    4   0.001   0.539  -0.267
    1UNL     C3    5  -0.110   0.403  -0.123
    1UNL     C4    6  -0.203   0.382  -0.023
    1UNL     O3    7  -0.222   0.255   0.033
    1UNL     C5    8  -0.101   0.184   0.039
    1UNL     O4    9  -0.086   0.072   0.132
    1UNL     C6   10  -0.189  -0.025   0.117
    1UNL     O5   11  -0.183  -0.091  -0.009
    1UNL     C7   12  -0.275  -0.192  -0.036
    1UNL     C8   13  -0.186  -0.319  -0.089
    1UNL     O6   14  -0.059  -0.335  -0.030
    1UNL     C9   15  -0.377  -0.221   0.079
    1UNL     O7   16  -0.483  -0.127   0.084
    1UNL    C10   17  -0.307  -0.226   0.220
    1UNL     O8   18  -0.270  -0.358   0.245
    1UNL    C11   19  -0.191  -0.130   0.229
    1UNL     O9   20  -0.068  -0.195   0.232
    1UNL    C12   21  -0.054   0.154  -0.106
    1UNL    C13   22   0.079   0.083  -0.125
    1UNL    C14   23   0.100  -0.062  -0.097
    1UNL     N1   24   0.108  -0.139  -0.226
    1UNL    C15   25   0.232  -0.212  -0.246
    1UNL    C16   26   0.294  -0.285  -0.119
    1UNL    C17   27   0.286  -0.196   0.002
    1UNL    C18   28   0.200  -0.093   0.008
    1UNL     N2   29   0.200  -0.036   0.133
    1UNL    C19   30   0.278  -0.112   0.215
    1UNL    C20   31   0.313  -0.108   0.348
    1UNL    C21   32   0.396  -0.203   0.402
    1UNL    C22   33   0.452  -0.302   0.316
    1UNL    C23   34   0.418  -0.304   0.185
    1UNL    C24   35   0.338  -0.210   0.134
    1UNL    C25   36   0.170   0.167  -0.179
    1UNL    C26   37   0.115   0.308  -0.205
    1UNL    C27   38  -0.042   0.289  -0.187
    1UNL     H1   39  -0.015   0.781  -0.171
    1UNL     H2   40  -0.110   0.727  -0.301
    1UNL     H3   41  -0.179   0.828  -0.174
    1UNL     H4   42  -0.278   0.460   0.007
    1UNL     H5   43  -0.037   0.269   0.088
    1UNL     H6   44  -0.292   0.011   0.115
    1UNL     H7   45  -0.323  -0.153  -0.126
    1UNL     H8   46  -0.178  -0.331  -0.196
    1UNL     H9   47  -0.248  -0.411  -0.060
    1UNL    H10   48  -0.055  -0.285   0.064
    1UNL    H11   49  -0.413  -0.325   0.073
    1UNL    H12   50  -0.539  -0.113  -0.000
    1UNL    H13   51  -0.390  -0.196   0.288
    1UNL    H14   52  -0.188  -0.360   0.302
    1UNL    H15   53  -0.193  -0.086   0.331
    1UNL    H16   54   0.004  -0.141   0.204
    1UNL    H17   55  -0.136   0.100  -0.153
    1UNL    H18   56   0.002  -0.087  -0.058
    1UNL    H19   57   0.038  -0.211  -0.217
    1UNL    H20   58   0.211  -0.291  -0.331
    1UNL    H21   59   0.301  -0.135  -0.289
    1UNL    H22   60   0.396  -0.316  -0.152
    1UNL    H23   61   0.246  -0.381  -0.103
    1UNL    H24   62   0.135   0.031   0.167
    1UNL    H25   63   0.271  -0.025   0.410
    1UNL    H26   64   0.419  -0.201   0.503
    1UNL    H27   65   0.509  -0.373   0.363
    1UNL    H28   66   0.468  -0.371   0.120
    1UNL    H29   67   0.270   0.140  -0.204
    1UNL    H30   68   0.147   0.386  -0.140
    1UNL    H31   69   0.152   0.347  -0.300
    1UNL    H32   70  -0.096   0.265  -0.274
   0.00000   0.00000   0.00000   0.00000   0.00000   0.00000   0.00000   0.00000   0.00000
Generated with MDTraj, t= 15.0
 70
    1UNL     C1    1  -0.144   0.762  -0.170
    1UNL     O1    2  -0.184   0.629  -0.136
    1UNL     C2    3  -0.097   0.540  -0.190
    1UNL     O2    4  -0.022   0.563  -0.284
    1UNL     C3    5  -0.101   0.406  -0.125
    1UNL     C4    6  -0.175   0.391  -0.007
    1UNL     O3    7  -0.170   0.278   0.072
    1UNL     C5    8  -0.071   0.182   0.032
    1UNL     O4    9  -0.064   0.062   0.102
    1UNL     C6   10  -0.186  -0.019   0.087
    1UNL     O5   11  -0.194  -0.092  -0.037
    1UNL     C7   12  -0.281  -0.208  -0.039
    1UNL     C8   13  -0.197  -0.337  -0.079
    1UNL     O6   14  -0.061  -0.328  -0.045
    1UNL     C9   15  -0.377  -0.218   0.088
    1UNL     O7   16  -0.486  -0.120   0.094
    1UNL    C10   17  -0.303  -0.212   0.229
    1UNL     O8   18  -0.266  -0.339   0.270
    1UNL    C11   19  -0.180  -0.120   0.215
    1UNL     O9   20  -0.058  -0.195   0.212
    1UNL    C12   21  -0.048   0.152  -0.120
    1UNL    C13   22   0.080   0.077  -0.141
    1UNL    C14   23   0.093  -0.071  -0.098
    1UNL     N1   24   0.106  -0.166  -0.214
    1UNL    C15   25   0.246  -0.200  -0.235
    1UNL    C16   26   0.303  -0.274  -0.118
    1UNL    C17   27   0.273  -0.193   0.003
    1UNL    C18   28   0.187  -0.092   0.012
    1UNL     N2   29   0.187  -0.044   0.140
    1UNL    C19   30   0.267  -0.123   0.217
    1UNL    C20   31   0.300  -0.127   0.360
    1UNL    C21   32   0.384  -0.219   0.413
    1UNL    C22   33   0.445  -0.307   0.331
    1UNL    C23   34   0.428  -0.305   0.193
    1UNL    C24   35   0.332  -0.216   0.128
    1UNL    C25   36   0.176   0.162  -0.175
    1UNL    C26   37   0.121   0.301  -0.194
    1UNL    C27   38  -0.035   0.292  -0.197
    1UNL     H1   39  -0.065   0.792  -0.102
    1UNL     H2   40  -0.099   0.760  -0.271
    1UNL     H3   41  -0.223   0.832  -0.161
    1UNL     H4   42  -0.219   0.477   0.038
    1UNL     H5   43   0.026   0.236   0.067
    1UNL     H6   44  -0.263   0.052   0.098
    1UNL     H7   45  -0.346  -0.167  -0.121
    1UNL     H8   46  -0.195  -0.345  -0.183
    1UNL     H9   47  -0.238  -0.434  -0.039
    1UNL    H10   48  -0.051  -0.321   0.049
    1UNL    H11   49  -0.423  -0.315   0.079
    1UNL    H12   50  -0.533  -0.130   0.011
    1UNL    H13   51  -0.379  -0.162   0.292
    1UNL    H14   52  -0.192  -0.370   0.218
    1UNL    H15   53  -0.166  -0.053   0.307
    1UNL    H16   54   0.014  -0.133   0.186
    1UNL    H17   55  -0.132   0.100  -0.163
    1UNL    H18   56  -0.002  -0.085  -0.053
    1UNL    H19   57   0.064  -0.251  -0.180
    1UNL    H20   58   0.257  -0.258  -0.336
    1UNL    H21   59   0.302  -0.102  -0.239
    1UNL    H22   60   0.414  -0.287  -0.129
    1UNL    H23   61   0.260  -0.375  -0.121
    1UNL    H24   62   0.123   0.026   0.187
    1UNL    H25   63   0.249  -0.053   0.413
    1UNL    H26   64   0.384  -0.222   0.523
    1UNL    H27   65   0.514  -0.387   0.368
    1UNL    H28   66   0.482  -0.373   0.127
    1UNL    H29   67   0.278   0.130  -0.192
    1UNL    H30   68   0.161   0.354  -0.109
    1UNL    H31   69   0.160   0.351  -0.280
    1UNL    H32   70  -0.061   0.276  -0.297
   0.00000   0.00000   0.00000   0.00000   0.00000   0.00000   0.00000   0.00000   0.00000
Generated with MDTraj, t= 16.0
 70
    1UNL     C1    1  -0.208   0.735  -0.189
    1UNL     O1    2  -0.167   0.633  -0.106
    1UNL     C2    3  -0.094   0.540  -0.174
    1UNL     O2    4  -0.042   0.559  -0.284
    1UNL     C3    5  -0.086   0.406  -0.115
    1UNL     C4    6  -0.171   0.378  -0.013
    1UNL     O3    7  -0.177   0.262   0.059
    1UNL     C5    8  -0.060   0.181   0.047
    1UNL     O4    9  -0.060   0.063   0.125
    1UNL     C6   10  -0.171  -0.022   0.097
    1UNL     O5   11  -0.176  -0.091  -0.026
    1UNL     C7   12  -0.285  -0.182  -0.037
    1UNL     C8   13  -0.239  -0.326  -0.087
    1UNL     O6   14  -0.110  -0.351  -0.046
    1UNL     C9   15  -0.388  -0.194   0.089
    1UNL     O7   16  -0.478  -0.089   0.092
    1UNL    C10   17  -0.310  -0.200   0.226
    1UNL     O8   18  -0.291  -0.337   0.267
    1UNL    C11   19  -0.167  -0.133   0.213
    1UNL     O9   20  -0.057  -0.225   0.202
    1UNL    C12   21  -0.034   0.157  -0.108
    1UNL    C13   22   0.092   0.083  -0.136
    1UNL    C14   23   0.110  -0.069  -0.108
    1UNL     N1   24   0.138  -0.153  -0.230
    1UNL    C15   25   0.276  -0.197  -0.243
    1UNL    C16   26   0.330  -0.269  -0.119
    1UNL    C17   27   0.290  -0.205   0.007
    1UNL    C18   28   0.193  -0.102   0.010
    1UNL     N2   29   0.175  -0.056   0.139
    1UNL    C19   30   0.269  -0.119   0.221
    1UNL    C20   31   0.297  -0.112   0.358
    1UNL    C21   32   0.376  -0.205   0.412
    1UNL    C22   33   0.441  -0.300   0.332
    1UNL    C23   34   0.421  -0.310   0.194
    1UNL    C24   35   0.334  -0.217   0.143
    1UNL    C25   36   0.184   0.164  -0.193
    1UNL    C26   37   0.127   0.296  -0.230
    1UNL    C27   38  -0.021   0.292  -0.188
    1UNL     H1   39  -0.120   0.776  -0.246
    1UNL     H2   40  -0.285   0.694  -0.264
    1UNL     H3   41  -0.250   0.814  -0.124
    1UNL     H4   42  -0.223   0.455   0.036
    1UNL     H5   43   0.027   0.236   0.095
    1UNL     H6   44  -0.259   0.034   0.103
    1UNL     H7   45  -0.355  -0.127  -0.105
    1UNL     H8   46  -0.235  -0.319  -0.191
    1UNL     H9   47  -0.310  -0.400  -0.049
    1UNL    H10   48  -0.095  -0.302   0.046
    1UNL    H11   49  -0.436  -0.290   0.082
    1UNL    H12   50  -0.528  -0.087   0.015
    1UNL    H13   51  -0.362  -0.158   0.313
    1UNL    H14   52  -0.194  -0.365   0.259
    1UNL    H15   53  -0.144  -0.089   0.318
    1UNL    H16   54   0.032  -0.177   0.175
    1UNL    H17   55  -0.113   0.091  -0.144
    1UNL    H18   56   0.016  -0.105  -0.073
    1UNL    H19   57   0.084  -0.237  -0.216
    1UNL    H20   58   0.283  -0.266  -0.335
    1UNL    H21   59   0.334  -0.099  -0.267
    1UNL    H22   60   0.441  -0.276  -0.130
    1UNL    H23   61   0.297  -0.373  -0.113
    1UNL    H24   62   0.114   0.026   0.167
    1UNL    H25   63   0.242  -0.044   0.425
    1UNL    H26   64   0.394  -0.210   0.521
    1UNL    H27   65   0.509  -0.360   0.387
    1UNL    H28   66   0.471  -0.392   0.142
    1UNL    H29   67   0.285   0.146  -0.229
    1UNL    H30   68   0.174   0.381  -0.179
    1UNL    H31   69   0.136   0.316  -0.334
    1UNL    H32   70  -0.073   0.269  -0.277
   0.00000   0.00000   0.00000   0.00000   0.00000   0.00000   0.00000   0.00000   0.00000
Generated with MDTraj, t= 17.0
 70
    1UNL     C1    1  -0.198   0.727  -0.203
    1UNL     O1    2  -0.188   0.613  -0.118
    1UNL     C2    3  -0.112   0.511  -0.175
    1UNL     O2    4  -0.055   0.529  -0.283
    1UNL     C3    5  -0.114   0.379  -0.115
    1UNL     C4    6  -0.170   0.361   0.005
    1UNL     O3    7  -0.166   0.250   0.080
    1UNL     C5    8  -0.059   0.163   0.047
    1UNL     O4    9  -0.051   0.056   0.132
    1UNL     C6   10  -0.173  -0.018   0.116
    1UNL     O5   11  -0.187  -0.079  -0.012
    1UNL     C7   12  -0.305  -0.146  -0.048
    1UNL     C8   13  -0.262  -0.286  -0.118
    1UNL     O6   14  -0.185  -0.356  -0.028
    1UNL     C9   15  -0.393  -0.159   0.089
    1UNL     O7   16  -0.456  -0.034   0.105
    1UNL    C10   17  -0.308  -0.208   0.219
    1UNL     O8   18  -0.285  -0.345   0.224
    1UNL    C11   19  -0.172  -0.132   0.222
    1UNL     O9   20  -0.068  -0.217   0.197
    1UNL    C12   21  -0.041   0.131  -0.105
    1UNL    C13   22   0.091   0.068  -0.140
    1UNL    C14   23   0.118  -0.074  -0.120
    1UNL     N1   24   0.190  -0.127  -0.243
    1UNL    C15   25   0.321  -0.189  -0.242
    1UNL    C16   26   0.341  -0.278  -0.117
    1UNL    C17   27   0.308  -0.196   0.006
    1UNL    C18   28   0.204  -0.113   0.000
    1UNL     N2   29   0.192  -0.053   0.131
    1UNL    C19   30   0.276  -0.122   0.216
    1UNL    C20   31   0.294  -0.119   0.355
    1UNL    C21   32   0.386  -0.201   0.414
    1UNL    C22   33   0.458  -0.293   0.340
    1UNL    C23   34   0.440  -0.296   0.207
    1UNL    C24   35   0.353  -0.206   0.142
    1UNL    C25   36   0.175   0.159  -0.183
    1UNL    C26   37   0.114   0.295  -0.201
    1UNL    C27   38  -0.038   0.265  -0.178
    1UNL     H1   39  -0.114   0.734  -0.280
    1UNL     H2   40  -0.300   0.732  -0.256
    1UNL     H3   41  -0.187   0.816  -0.135
    1UNL     H4   42  -0.245   0.432   0.042
    1UNL     H5   43   0.034   0.218   0.074
    1UNL     H6   44  -0.257   0.044   0.129
    1UNL     H7   45  -0.371  -0.077  -0.102
    1UNL     H8   46  -0.213  -0.263  -0.208
    1UNL     H9   47  -0.354  -0.342  -0.131
    1UNL    H10   48  -0.142  -0.289   0.026
    1UNL    H11   49  -0.471  -0.230   0.066
    1UNL    H12   50  -0.497  -0.004   0.027
    1UNL    H13   51  -0.364  -0.170   0.305
    1UNL    H14   52  -0.244  -0.372   0.141
    1UNL    H15   53  -0.162  -0.088   0.329
    1UNL    H16   54   0.013  -0.160   0.185
    1UNL    H17   55  -0.130   0.081  -0.140
    1UNL    H18   56   0.026  -0.127  -0.115
    1UNL    H19   57   0.127  -0.194  -0.285
    1UNL    H20   58   0.335  -0.249  -0.338
    1UNL    H21   59   0.398  -0.100  -0.239
    1UNL    H22   60   0.436  -0.330  -0.099
    1UNL    H23   61   0.259  -0.353  -0.117
    1UNL    H24   62   0.122   0.019   0.156
    1UNL    H25   63   0.231  -0.061   0.419
    1UNL    H26   64   0.414  -0.187   0.513
    1UNL    H27   65   0.531  -0.357   0.389
    1UNL    H28   66   0.499  -0.364   0.152
    1UNL    H29   67   0.272   0.122  -0.205
    1UNL    H30   68   0.152   0.368  -0.127
    1UNL    H31   69   0.137   0.329  -0.299
    1UNL    H32   70  -0.079   0.260  -0.275
   0.00000   0.00000   0.00000   0.00000   0.00000   0.00000   0.00000   0.00000   0.00000
Generated with MDTraj, t= 18.0
 70
    1UNL     C1    1  -0.181   0.723  -0.191
    1UNL     O1    2  -0.212   0.597  -0.138
    1UNL     C2    3  -0.132   0.494  -0.200
    1UNL     O2    4  -0.081   0.507  -0.311
    1UNL     C3    5  -0.116   0.373  -0.126
    1UNL     C4    6  -0.176   0.360  -0.006
    1UNL     O3    7  -0.163   0.256   0.083
    1UNL     C5    8  -0.054   0.167   0.058
    1UNL     O4    9  -0.051   0.049   0.139
    1UNL     C6   10  -0.174  -0.028   0.130
    1UNL     O5   11  -0.192  -0.081  -0.000
    1UNL     C7   12  -0.325  -0.128  -0.028
    1UNL     C8   13  -0.305  -0.260  -0.106
    1UNL     O6   14  -0.201  -0.345  -0.068
    1UNL     C9   15  -0.411  -0.138   0.095
    1UNL     O7   16  -0.455  -0.015   0.132
    1UNL    C10   17  -0.324  -0.202   0.219
    1UNL     O8   18  -0.323  -0.339   0.210
    1UNL    C11   19  -0.171  -0.160   0.223
    1UNL     O9   20  -0.083  -0.255   0.161
    1UNL    C12   21  -0.034   0.130  -0.094
    1UNL    C13   22   0.110   0.077  -0.122
    1UNL    C14   23   0.138  -0.065  -0.116
    1UNL     N1   24   0.199  -0.120  -0.250
    1UNL    C15   25   0.340  -0.157  -0.233
    1UNL    C16   26   0.360  -0.265  -0.123
    1UNL    C17   27   0.311  -0.211   0.006
    1UNL    C18   28   0.214  -0.109   0.011
    1UNL     N2   29   0.185  -0.084   0.139
    1UNL    C19   30   0.284  -0.140   0.222
    1UNL    C20   31   0.305  -0.115   0.362
    1UNL    C21   32   0.415  -0.177   0.412
    1UNL    C22   33   0.488  -0.275   0.342
    1UNL    C23   34   0.460  -0.307   0.212
    1UNL    C24   35   0.362  -0.233   0.140
    1UNL    C25   36   0.193   0.167  -0.176
    1UNL    C26   37   0.126   0.303  -0.193
    1UNL    C27   38  -0.029   0.263  -0.184
    1UNL     H1   39  -0.091   0.761  -0.139
    1UNL     H2   40  -0.162   0.719  -0.302
    1UNL     H3   41  -0.262   0.795  -0.170
    1UNL     H4   42  -0.232   0.451   0.026
    1UNL     H5   43   0.040   0.216   0.081
    1UNL     H6   44  -0.258   0.035   0.148
    1UNL     H7   45  -0.373  -0.051  -0.089
    1UNL     H8   46  -0.279  -0.216  -0.199
    1UNL     H9   47  -0.398  -0.315  -0.115
    1UNL    H10   48  -0.153  -0.291  -0.001
    1UNL    H11   49  -0.486  -0.214   0.063
    1UNL    H12   50  -0.489   0.040   0.059
    1UNL    H13   51  -0.380  -0.164   0.307
    1UNL    H14   52  -0.259  -0.366   0.141
    1UNL    H15   53  -0.143  -0.131   0.329
    1UNL    H16   54   0.004  -0.219   0.154
    1UNL    H17   55  -0.108   0.056  -0.126
    1UNL    H18   56   0.044  -0.114  -0.110
    1UNL    H19   57   0.143  -0.194  -0.288
    1UNL    H20   58   0.381  -0.200  -0.330
    1UNL    H21   59   0.402  -0.060  -0.204
    1UNL    H22   60   0.469  -0.281  -0.114
    1UNL    H23   61   0.304  -0.360  -0.140
    1UNL    H24   62   0.124  -0.010   0.173
    1UNL    H25   63   0.242  -0.049   0.417
    1UNL    H26   64   0.443  -0.171   0.523
    1UNL    H27   65   0.573  -0.324   0.391
    1UNL    H28   66   0.514  -0.392   0.165
    1UNL    H29   67   0.292   0.144  -0.217
    1UNL    H30   68   0.154   0.370  -0.109
    1UNL    H31   69   0.138   0.356  -0.284
    1UNL    H32   70  -0.075   0.256  -0.280
   0.00000   0.00000   0.00000   0.00000   0.00000   0.00000   0.00000   0.00000   0.00000
Generated with MDTraj, t= 19.0
 70
    1UNL     C1    1  -0.218   0.694  -0.224
    1UNL     O1    2  -0.175   0.604  -0.130
    1UNL     C2    3  -0.114   0.494  -0.192
    1UNL     O2    4  -0.083   0.491  -0.312
    1UNL     C3    5  -0.106   0.375  -0.112
    1UNL     C4    6  -0.191   0.352  -0.009
    1UNL     O3    7  -0.183   0.239   0.071
    1UNL     C5    8  -0.068   0.162   0.042
    1UNL     O4    9  -0.058   0.051   0.130
    1UNL     C6   10  -0.177  -0.029   0.116
    1UNL     O5   11  -0.212  -0.058  -0.020
    1UNL     C7   12  -0.354  -0.108  -0.033
    1UNL     C8   13  -0.335  -0.231  -0.126
    1UNL     O6   14  -0.243  -0.319  -0.072
    1UNL     C9   15  -0.416  -0.133   0.109
    1UNL     O7   16  -0.474  -0.014   0.163
    1UNL    C10   17  -0.319  -0.209   0.217
    1UNL     O8   18  -0.311  -0.349   0.196
    1UNL    C11   19  -0.178  -0.147   0.213
    1UNL     O9   20  -0.078  -0.234   0.167
    1UNL    C12   21  -0.027   0.133  -0.101
    1UNL    C13   22   0.108   0.065  -0.112
    1UNL    C14   23   0.129  -0.083  -0.105
    1UNL     N1   24   0.204  -0.139  -0.226
    1UNL    C15   25   0.351  -0.150  -0.233
    1UNL    C16   26   0.397  -0.243  -0.115
    1UNL    C17   27   0.329  -0.203   0.013
    1UNL    C18   28   0.207  -0.131   0.018
    1UNL     N2   29   0.189  -0.088   0.145
    1UNL    C19   30   0.281  -0.145   0.230
    1UNL    C20   31   0.313  -0.145   0.373
    1UNL    C21   32   0.431  -0.214   0.413
    1UNL    C22   33   0.522  -0.267   0.322
    1UNL    C23   34   0.494  -0.271   0.193
    1UNL    C24   35   0.374  -0.217   0.148
    1UNL    C25   36   0.197   0.153  -0.153
    1UNL    C26   37   0.136   0.287  -0.179
    1UNL    C27   38  -0.016   0.268  -0.177
    1UNL     H1   39  -0.285   0.763  -0.178
    1UNL     H2   40  -0.135   0.739  -0.274
    1UNL     H3   41  -0.270   0.631  -0.294
    1UNL     H4   42  -0.249   0.438   0.016
    1UNL     H5   43   0.012   0.225   0.078
    1UNL     H6   44  -0.263   0.036   0.139
    1UNL     H7   45  -0.410  -0.025  -0.073
    1UNL     H8   46  -0.306  -0.202  -0.228
    1UNL     H9   47  -0.434  -0.280  -0.124
    1UNL    H10   48  -0.181  -0.255  -0.018
    1UNL    H11   49  -0.495  -0.211   0.094
    1UNL    H12   50  -0.520   0.054   0.100
    1UNL    H13   51  -0.369  -0.193   0.316
    1UNL    H14   52  -0.292  -0.360   0.099
    1UNL    H15   53  -0.151  -0.119   0.317
    1UNL    H16   54   0.010  -0.188   0.161
    1UNL    H17   55  -0.104   0.065  -0.143
    1UNL    H18   56   0.030  -0.126  -0.101
    1UNL    H19   57   0.158  -0.223  -0.259
    1UNL    H20   58   0.384  -0.191  -0.333
    1UNL    H21   59   0.390  -0.039  -0.218
    1UNL    H22   60   0.502  -0.221  -0.093
    1UNL    H23   61   0.378  -0.351  -0.138
    1UNL    H24   62   0.123  -0.015   0.162
    1UNL    H25   63   0.246  -0.088   0.442
    1UNL    H26   64   0.444  -0.213   0.514
    1UNL    H27   65   0.607  -0.313   0.363
    1UNL    H28   66   0.565  -0.305   0.123
    1UNL    H29   67   0.297   0.124  -0.167
    1UNL    H30   68   0.155   0.361  -0.099
    1UNL    H31   69   0.167   0.325  -0.275
    1UNL    H32   70  -0.053   0.266  -0.277
   0.00000   0.00000   0.00000   0.00000   0.00000   0.00000   0.00000   0.00000   0.00000
Generated with MDTraj, t= 20.0
 70
    1UNL     C1    1  -0.212   0.698  -0.241
    1UNL     O1    2  -0.219   0.577  -0.173
    1UNL     C2    3  -0.113   0.492  -0.203
    1UNL     O2    4  -0.046   0.511  -0.304
    1UNL     C3    5  -0.102   0.368  -0.132
    1UNL     C4    6  -0.168   0.353  -0.017
    1UNL     O3    7  -0.154   0.261   0.085
    1UNL     C5    8  -0.051   0.164   0.060
    1UNL     O4    9  -0.063   0.043   0.131
    1UNL     C6   10  -0.190  -0.026   0.121
    1UNL     O5   11  -0.232  -0.044  -0.012
    1UNL     C7   12  -0.369  -0.107  -0.012
    1UNL     C8   13  -0.352  -0.211  -0.119
    1UNL     O6   14  -0.246  -0.306  -0.103
    1UNL     C9   15  -0.431  -0.150   0.127
    1UNL     O7   16  -0.482  -0.031   0.192
    1UNL    C10   17  -0.328  -0.222   0.219
    1UNL     O8   18  -0.342  -0.362   0.194
    1UNL    C11   19  -0.185  -0.158   0.199
    1UNL     O9   20  -0.095  -0.249   0.132
    1UNL    C12   21  -0.020   0.137  -0.084
    1UNL    C13   22   0.120   0.069  -0.104
    1UNL    C14   23   0.129  -0.085  -0.096
    1UNL     N1   24   0.179  -0.162  -0.216
    1UNL    C15   25   0.320  -0.167  -0.246
    1UNL    C16   26   0.412  -0.207  -0.130
    1UNL    C17   27   0.344  -0.187   0.007
    1UNL    C18   28   0.229  -0.119   0.020
    1UNL     N2   29   0.194  -0.102   0.153
    1UNL    C19   30   0.300  -0.147   0.232
    1UNL    C20   31   0.310  -0.158   0.369
    1UNL    C21   32   0.419  -0.223   0.416
    1UNL    C22   33   0.528  -0.264   0.332
    1UNL    C23   34   0.522  -0.239   0.194
    1UNL    C24   35   0.399  -0.191   0.138
    1UNL    C25   36   0.214   0.160  -0.132
    1UNL    C26   37   0.146   0.285  -0.173
    1UNL    C27   38  -0.010   0.260  -0.174
    1UNL     H1   39  -0.311   0.734  -0.241
    1UNL     H2   40  -0.145   0.767  -0.201
    1UNL     H3   41  -0.180   0.663  -0.335
    1UNL     H4   42  -0.243   0.423   0.006
    1UNL     H5   43   0.031   0.211   0.103
    1UNL     H6   44  -0.267   0.048   0.158
    1UNL     H7   45  -0.432  -0.027  -0.053
    1UNL     H8   46  -0.334  -0.145  -0.206
    1UNL     H9   47  -0.446  -0.272  -0.133
    1UNL    H10   48  -0.178  -0.271  -0.031
    1UNL    H11   49  -0.516  -0.218   0.096
    1UNL    H12   50  -0.532   0.025   0.117
    1UNL    H13   51  -0.354  -0.188   0.323
    1UNL    H14   52  -0.297  -0.376   0.109
    1UNL    H15   53  -0.137  -0.140   0.293
    1UNL    H16   54  -0.000  -0.205   0.121
    1UNL    H17   55  -0.102   0.067  -0.116
    1UNL    H18   56   0.028  -0.120  -0.072
    1UNL    H19   57   0.134  -0.251  -0.220
    1UNL    H20   58   0.327  -0.237  -0.337
    1UNL    H21   59   0.341  -0.058  -0.279
    1UNL    H22   60   0.504  -0.149  -0.130
    1UNL    H23   61   0.431  -0.318  -0.130
    1UNL    H24   62   0.118  -0.048   0.192
    1UNL    H25   63   0.237  -0.124   0.433
    1UNL    H26   64   0.428  -0.241   0.527
    1UNL    H27   65   0.613  -0.321   0.374
    1UNL    H28   66   0.606  -0.270   0.131
    1UNL    H29   67   0.321   0.138  -0.125
    1UNL    H30   68   0.162   0.371  -0.107
    1UNL    H31   69   0.177   0.308  -0.276
    1UNL    H32   70  -0.025   0.231  -0.276
   0.00000   0.00000   0.00000   0.00000   0.00000   0.00000   0.00000   0.00000   0.00000
Generated with MDTraj, t= 21.0
 70
    1UNL     C1    1  -0.216   0.675  -0.272
    1UNL     O1    2  -0.219   0.562  -0.186
    1UNL     C2    3  -0.102   0.493  -0.195
    1UNL     O2    4  -0.010   0.515  -0.274
    1UNL     C3    5  -0.095   0.373  -0.112
    1UNL     C4    6  -0.174   0.351  -0.003
    1UNL     O3    7  -0.161   0.250   0.084
    1UNL     C5    8  -0.048   0.152   0.055
    1UNL     O4    9  -0.052   0.037   0.130
    1UNL     C6   10  -0.182  -0.020   0.125
    1UNL     O5   11  -0.227  -0.050  -0.004
    1UNL     C7   12  -0.369  -0.093  -0.015
    1UNL     C8   13  -0.369  -0.192  -0.132
    1UNL     O6   14  -0.276  -0.294  -0.099
    1UNL     C9   15  -0.425  -0.141   0.122
    1UNL     O7   16  -0.479  -0.035   0.200
    1UNL    C10   17  -0.321  -0.217   0.202
    1UNL     O8   18  -0.314  -0.359   0.160
    1UNL    C11   19  -0.179  -0.153   0.205
    1UNL     O9   20  -0.091  -0.242   0.126
    1UNL    C12   21  -0.037   0.121  -0.093
    1UNL    C13   22   0.095   0.053  -0.112
    1UNL    C14   23   0.118  -0.093  -0.088
    1UNL     N1   24   0.175  -0.161  -0.210
    1UNL    C15   25   0.327  -0.141  -0.240
    1UNL    C16   26   0.406  -0.187  -0.113
    1UNL    C17   27   0.338  -0.168   0.015
    1UNL    C18   28   0.207  -0.121   0.030
    1UNL     N2   29   0.184  -0.105   0.168
    1UNL    C19   30   0.293  -0.155   0.238
    1UNL    C20   31   0.322  -0.160   0.376
    1UNL    C21   32   0.443  -0.215   0.415
    1UNL    C22   33   0.546  -0.252   0.322
    1UNL    C23   34   0.518  -0.243   0.186
    1UNL    C24   35   0.387  -0.199   0.145
    1UNL    C25   36   0.191   0.137  -0.159
    1UNL    C26   37   0.145   0.278  -0.174
    1UNL    C27   38  -0.016   0.259  -0.170
    1UNL     H1   39  -0.301   0.741  -0.250
    1UNL     H2   40  -0.125   0.730  -0.268
    1UNL     H3   41  -0.214   0.622  -0.368
    1UNL     H4   42  -0.234   0.435   0.041
    1UNL     H5   43   0.037   0.205   0.078
    1UNL     H6   44  -0.256   0.051   0.174
    1UNL     H7   45  -0.427  -0.004  -0.045
    1UNL     H8   46  -0.329  -0.146  -0.227
    1UNL     H9   47  -0.476  -0.232  -0.140
    1UNL    H10   48  -0.198  -0.258  -0.048
    1UNL    H11   49  -0.508  -0.215   0.108
    1UNL    H12   50  -0.539   0.041   0.162
    1UNL    H13   51  -0.360  -0.226   0.306
    1UNL    H14   52  -0.248  -0.384   0.090
    1UNL    H15   53  -0.143  -0.143   0.304
    1UNL    H16   54   0.001  -0.211   0.140
    1UNL    H17   55  -0.122   0.057  -0.130
    1UNL    H18   56   0.015  -0.131  -0.072
    1UNL    H19   57   0.168  -0.260  -0.204
    1UNL    H20   58   0.358  -0.189  -0.340
    1UNL    H21   59   0.330  -0.030  -0.251
    1UNL    H22   60   0.503  -0.138  -0.102
    1UNL    H23   61   0.422  -0.298  -0.118
    1UNL    H24   62   0.105  -0.044   0.203
    1UNL    H25   63   0.247  -0.122   0.451
    1UNL    H26   64   0.464  -0.223   0.519
    1UNL    H27   65   0.643  -0.264   0.365
    1UNL    H28   66   0.595  -0.272   0.116
    1UNL    H29   67   0.296   0.126  -0.181
    1UNL    H30   68   0.178   0.343  -0.093
    1UNL    H31   69   0.166   0.328  -0.271
    1UNL    H32   70  -0.039   0.236  -0.271
   0.00000   0.00000   0.00000   0.00000   0.00000   0.00000   0.00000   0.00000   0.00000
Generated with MDTraj, t= 22.0
 70
    1UNL     C1    1  -0.230   0.668  -0.269
    1UNL     O1    2  -0.201   0.569  -0.167
    1UNL     C2    3  -0.091   0.496  -0.189
    1UNL     O2    4  -0.006   0.511  -0.275
    1UNL     C3    5  -0.092   0.370  -0.112
    1UNL     C4    6  -0.183   0.344  -0.012
    1UNL     O3    7  -0.190   0.239   0.069
    1UNL     C5    8  -0.065   0.156   0.062
    1UNL     O4    9  -0.060   0.043   0.146
    1UNL     C6   10  -0.179  -0.032   0.138
    1UNL     O5   11  -0.221  -0.054   0.005
    1UNL     C7   12  -0.363  -0.093  -0.019
    1UNL     C8   13  -0.368  -0.183  -0.142
    1UNL     O6   14  -0.261  -0.277  -0.125
    1UNL     C9   15  -0.425  -0.143   0.121
    1UNL     O7   16  -0.468  -0.031   0.201
    1UNL    C10   17  -0.327  -0.222   0.210
    1UNL     O8   18  -0.323  -0.362   0.178
    1UNL    C11   19  -0.183  -0.174   0.201
    1UNL     O9   20  -0.102  -0.249   0.117
    1UNL    C12   21  -0.029   0.128  -0.084
    1UNL    C13   22   0.105   0.063  -0.108
    1UNL    C14   23   0.132  -0.083  -0.094
    1UNL     N1   24   0.169  -0.149  -0.213
    1UNL    C15   25   0.309  -0.172  -0.243
    1UNL    C16   26   0.394  -0.232  -0.127
    1UNL    C17   27   0.349  -0.177   0.009
    1UNL    C18   28   0.223  -0.115   0.021
    1UNL     N2   29   0.190  -0.106   0.156
    1UNL    C19   30   0.296  -0.149   0.231
    1UNL    C20   31   0.316  -0.145   0.375
    1UNL    C21   32   0.442  -0.183   0.419
    1UNL    C22   33   0.541  -0.237   0.332
    1UNL    C23   34   0.521  -0.245   0.198
    1UNL    C24   35   0.401  -0.191   0.144
    1UNL    C25   36   0.196   0.146  -0.155
    1UNL    C26   37   0.143   0.281  -0.175
    1UNL    C27   38  -0.010   0.259  -0.165
    1UNL     H1   39  -0.302   0.747  -0.226
    1UNL     H2   40  -0.132   0.709  -0.299
    1UNL     H3   41  -0.261   0.610  -0.362
    1UNL     H4   42  -0.252   0.425   0.020
    1UNL     H5   43   0.007   0.222   0.093
    1UNL     H6   44  -0.254   0.036   0.194
    1UNL     H7   45  -0.416  -0.000  -0.055
    1UNL     H8   46  -0.345  -0.126  -0.237
    1UNL     H9   47  -0.458  -0.251  -0.153
    1UNL    H10   48  -0.198  -0.251  -0.057
    1UNL    H11   49  -0.519  -0.197   0.100
    1UNL    H12   50  -0.519   0.018   0.139
    1UNL    H13   51  -0.357  -0.216   0.315
    1UNL    H14   52  -0.275  -0.383   0.096
    1UNL    H15   53  -0.137  -0.166   0.295
    1UNL    H16   54  -0.014  -0.209   0.123
    1UNL    H17   55  -0.117   0.068  -0.128
    1UNL    H18   56   0.025  -0.117  -0.074
    1UNL    H19   57   0.126  -0.238  -0.238
    1UNL    H20   58   0.296  -0.244  -0.336
    1UNL    H21   59   0.350  -0.076  -0.277
    1UNL    H22   60   0.494  -0.195  -0.151
    1UNL    H23   61   0.395  -0.345  -0.130
    1UNL    H24   62   0.106  -0.062   0.202
    1UNL    H25   63   0.231  -0.123   0.433
    1UNL    H26   64   0.462  -0.165   0.522
    1UNL    H27   65   0.633  -0.284   0.370
    1UNL    H28   66   0.596  -0.282   0.133
    1UNL    H29   67   0.295   0.106  -0.164
    1UNL    H30   68   0.172   0.350  -0.096
    1UNL    H31   69   0.175   0.325  -0.273
    1UNL    H32   70  -0.043   0.235  -0.264
   0.00000   0.00000   0.00000   0.00000   0.00000   0.00000   0.00000   0.00000   0.00000
Generated with MDTraj, t= 23.0
 70
    1UNL     C1    1  -0.197   0.707  -0.222
    1UNL     O1    2  -0.206   0.583  -0.159
    1UNL     C2    3  -0.118   0.491  -0.197
    1UNL     O2    4  -0.059   0.502  -0.303
    1UNL     C3    5  -0.104   0.366  -0.122
    1UNL     C4    6  -0.168   0.346  -0.004
    1UNL     O3    7  -0.152   0.245   0.089
    1UNL     C5    8  -0.045   0.154   0.054
    1UNL     O4    9  -0.063   0.032   0.122
    1UNL     C6   10  -0.189  -0.019   0.121
    1UNL     O5   11  -0.232  -0.042  -0.012
    1UNL     C7   12  -0.361  -0.098  -0.023
    1UNL     C8   13  -0.356  -0.202  -0.120
    1UNL     O6   14  -0.245  -0.291  -0.087
    1UNL     C9   15  -0.427  -0.146   0.110
    1UNL     O7   16  -0.477  -0.033   0.182
    1UNL    C10   17  -0.326  -0.226   0.200
    1UNL     O8   18  -0.312  -0.362   0.154
    1UNL    C11   19  -0.182  -0.158   0.195
    1UNL     O9   20  -0.079  -0.238   0.137
    1UNL    C12   21  -0.033   0.130  -0.097
    1UNL    C13   22   0.104   0.053  -0.109
    1UNL    C14   23   0.120  -0.096  -0.096
    1UNL     N1   24   0.181  -0.155  -0.224
    1UNL    C15   25   0.338  -0.176  -0.227
    1UNL    C16   26   0.379  -0.261  -0.108
    1UNL    C17   27   0.323  -0.199   0.014
    1UNL    C18   28   0.203  -0.140   0.022
    1UNL     N2   29   0.186  -0.092   0.152
    1UNL    C19   30   0.298  -0.132   0.228
    1UNL    C20   31   0.331  -0.109   0.359
    1UNL    C21   32   0.449  -0.155   0.405
    1UNL    C22   33   0.533  -0.235   0.322
    1UNL    C23   34   0.496  -0.263   0.193
    1UNL    C24   35   0.384  -0.206   0.142
    1UNL    C25   36   0.201   0.144  -0.119
    1UNL    C26   37   0.139   0.278  -0.154
    1UNL    C27   38  -0.008   0.259  -0.170
    1UNL     H1   39  -0.295   0.760  -0.190
    1UNL     H2   40  -0.106   0.746  -0.169
    1UNL     H3   41  -0.180   0.700  -0.335
    1UNL     H4   42  -0.244   0.411   0.029
    1UNL     H5   43   0.044   0.196   0.086
    1UNL     H6   44  -0.265   0.059   0.167
    1UNL     H7   45  -0.424  -0.015  -0.068
    1UNL     H8   46  -0.316  -0.167  -0.219
    1UNL     H9   47  -0.447  -0.268  -0.133
    1UNL    H10   48  -0.178  -0.244  -0.045
    1UNL    H11   49  -0.520  -0.204   0.101
    1UNL    H12   50  -0.544   0.011   0.139
    1UNL    H13   51  -0.368  -0.237   0.300
    1UNL    H14   52  -0.274  -0.356   0.064
    1UNL    H15   53  -0.148  -0.145   0.295
    1UNL    H16   54   0.012  -0.189   0.142
    1UNL    H17   55  -0.113   0.054  -0.130
    1UNL    H18   56   0.012  -0.129  -0.073
    1UNL    H19   57   0.144  -0.243  -0.253
    1UNL    H20   58   0.383  -0.216  -0.330
    1UNL    H21   59   0.367  -0.072  -0.214
    1UNL    H22   60   0.488  -0.260  -0.104
    1UNL    H23   61   0.345  -0.366  -0.125
    1UNL    H24   62   0.124  -0.029   0.199
    1UNL    H25   63   0.257  -0.054   0.413
    1UNL    H26   64   0.476  -0.156   0.514
    1UNL    H27   65   0.629  -0.273   0.354
    1UNL    H28   66   0.562  -0.319   0.123
    1UNL    H29   67   0.309   0.129  -0.123
    1UNL    H30   68   0.155   0.359  -0.085
    1UNL    H31   69   0.183   0.321  -0.250
    1UNL    H32   70  -0.040   0.243  -0.271
   0.00000   0.00000   0.00000   0.00000   0.00000   0.00000   0.00000   0.00000   0.00000
Generated with MDTraj, t= 24.0
 70
    1UNL     C1    1  -0.199   0.718  -0.209
    1UNL     O1    2  -0.157   0.611  -0.118
    1UNL     C2    3  -0.111   0.500  -0.188
    1UNL     O2    4  -0.091   0.497  -0.309
    1UNL     C3    5  -0.093   0.375  -0.110
    1UNL     C4    6  -0.176   0.356  -0.002
    1UNL     O3    7  -0.164   0.248   0.087
    1UNL     C5    8  -0.051   0.157   0.067
    1UNL     O4    9  -0.067   0.040   0.147
    1UNL     C6   10  -0.183  -0.026   0.123
    1UNL     O5   11  -0.217  -0.054  -0.016
    1UNL     C7   12  -0.346  -0.118  -0.031
    1UNL     C8   13  -0.344  -0.242  -0.129
    1UNL     O6   14  -0.210  -0.303  -0.111
    1UNL     C9   15  -0.422  -0.148   0.106
    1UNL     O7   16  -0.484  -0.027   0.153
    1UNL    C10   17  -0.329  -0.227   0.211
    1UNL     O8   18  -0.331  -0.368   0.189
    1UNL    C11   19  -0.182  -0.161   0.204
    1UNL     O9   20  -0.087  -0.236   0.141
    1UNL    C12   21  -0.023   0.129  -0.079
    1UNL    C13   22   0.110   0.063  -0.106
    1UNL    C14   23   0.130  -0.086  -0.104
    1UNL     N1   24   0.183  -0.154  -0.226
    1UNL    C15   25   0.332  -0.187  -0.221
    1UNL    C16   26   0.369  -0.277  -0.110
    1UNL    C17   27   0.313  -0.221   0.014
    1UNL    C18   28   0.205  -0.129   0.017
    1UNL     N2   29   0.181  -0.074   0.150
    1UNL    C19   30   0.291  -0.117   0.215
    1UNL    C20   31   0.337  -0.084   0.346
    1UNL    C21   32   0.450  -0.145   0.399
    1UNL    C22   33   0.520  -0.243   0.328
    1UNL    C23   34   0.481  -0.276   0.198
    1UNL    C24   35   0.371  -0.204   0.144
    1UNL    C25   36   0.200   0.147  -0.157
    1UNL    C26   37   0.140   0.278  -0.195
    1UNL    C27   38  -0.012   0.257  -0.167
    1UNL     H1   39  -0.310   0.720  -0.225
    1UNL     H2   40  -0.152   0.801  -0.159
    1UNL     H3   41  -0.153   0.709  -0.309
    1UNL     H4   42  -0.240   0.435   0.029
    1UNL     H5   43   0.031   0.211   0.105
    1UNL     H6   44  -0.272   0.048   0.146
    1UNL     H7   45  -0.408  -0.045  -0.090
    1UNL     H8   46  -0.352  -0.236  -0.238
    1UNL     H9   47  -0.411  -0.322  -0.093
    1UNL    H10   48  -0.157  -0.277  -0.029
    1UNL    H11   49  -0.501  -0.219   0.091
    1UNL    H12   50  -0.550  -0.009   0.089
    1UNL    H13   51  -0.371  -0.224   0.310
    1UNL    H14   52  -0.259  -0.384   0.123
    1UNL    H15   53  -0.147  -0.148   0.306
    1UNL    H16   54   0.002  -0.183   0.139
    1UNL    H17   55  -0.113   0.065  -0.116
    1UNL    H18   56   0.023  -0.128  -0.093
    1UNL    H19   57   0.136  -0.240  -0.253
    1UNL    H20   58   0.347  -0.231  -0.332
    1UNL    H21   59   0.386  -0.094  -0.217
    1UNL    H22   60   0.476  -0.304  -0.110
    1UNL    H23   61   0.314  -0.372  -0.133
    1UNL    H24   62   0.117  -0.003   0.181
    1UNL    H25   63   0.273  -0.020   0.412
    1UNL    H26   64   0.465  -0.128   0.500
    1UNL    H27   65   0.602  -0.290   0.381
    1UNL    H28   66   0.532  -0.349   0.144
    1UNL    H29   67   0.293   0.109  -0.191
    1UNL    H30   68   0.189   0.353  -0.135
    1UNL    H31   69   0.160   0.313  -0.301
    1UNL    H32   70  -0.048   0.260  -0.268
   0.00000   0.00000   0.00000   0.00000   0.00000   0.00000   0.00000   0.00000   0.00000
Generated with MDTraj, t= 25.0
 70
    1UNL     C1    1  -0.159   0.731  -0.196
    1UNL     O1    2  -0.158   0.611  -0.109
    1UNL     C2    3  -0.109   0.503  -0.179
    1UNL     O2    4  -0.077   0.506  -0.298
    1UNL     C3    5  -0.107   0.377  -0.109
    1UNL     C4    6  -0.154   0.365   0.019
    1UNL     O3    7  -0.154   0.251   0.096
    1UNL     C5    8  -0.057   0.154   0.051
    1UNL     O4    9  -0.051   0.038   0.125
    1UNL     C6   10  -0.173  -0.023   0.116
    1UNL     O5   11  -0.208  -0.076  -0.015
    1UNL     C7   12  -0.332  -0.135  -0.043
    1UNL     C8   13  -0.299  -0.253  -0.128
    1UNL     O6   14  -0.172  -0.311  -0.104
    1UNL     C9   15  -0.413  -0.164   0.084
    1UNL     O7   16  -0.468  -0.041   0.130
    1UNL    C10   17  -0.320  -0.219   0.204
    1UNL     O8   18  -0.318  -0.353   0.216
    1UNL    C11   19  -0.178  -0.148   0.207
    1UNL     O9   20  -0.071  -0.232   0.180
    1UNL    C12   21  -0.054   0.132  -0.104
    1UNL    C13   22   0.083   0.057  -0.134
    1UNL    C14   23   0.116  -0.084  -0.102
    1UNL     N1   24   0.162  -0.152  -0.222
    1UNL    C15   25   0.300  -0.201  -0.239
    1UNL    C16   26   0.338  -0.277  -0.108
    1UNL    C17   27   0.315  -0.193   0.014
    1UNL    C18   28   0.204  -0.115   0.021
    1UNL     N2   29   0.188  -0.069   0.147
    1UNL    C19   30   0.276  -0.132   0.232
    1UNL    C20   31   0.313  -0.103   0.363
    1UNL    C21   32   0.424  -0.159   0.411
    1UNL    C22   33   0.511  -0.241   0.333
    1UNL    C23   34   0.480  -0.268   0.198
    1UNL    C24   35   0.363  -0.206   0.147
    1UNL    C25   36   0.168   0.140  -0.194
    1UNL    C26   37   0.113   0.284  -0.204
    1UNL    C27   38  -0.041   0.265  -0.183
    1UNL     H1   39  -0.188   0.717  -0.299
    1UNL     H2   40  -0.208   0.805  -0.141
    1UNL     H3   41  -0.059   0.767  -0.200
    1UNL     H4   42  -0.190   0.458   0.069
    1UNL     H5   43   0.038   0.197   0.076
    1UNL     H6   44  -0.254   0.058   0.134
    1UNL     H7   45  -0.381  -0.058  -0.106
    1UNL     H8   46  -0.293  -0.230  -0.234
    1UNL     H9   47  -0.361  -0.342  -0.119
    1UNL    H10   48  -0.140  -0.292  -0.003
    1UNL    H11   49  -0.499  -0.230   0.078
    1UNL    H12   50  -0.491   0.015   0.052
    1UNL    H13   51  -0.377  -0.184   0.290
    1UNL    H14   52  -0.224  -0.377   0.204
    1UNL    H15   53  -0.164  -0.103   0.309
    1UNL    H16   54   0.010  -0.177   0.171
    1UNL    H17   55  -0.147   0.068  -0.130
    1UNL    H18   56   0.016  -0.137  -0.077
    1UNL    H19   57   0.098  -0.225  -0.251
    1UNL    H20   58   0.326  -0.247  -0.347
    1UNL    H21   59   0.343  -0.101  -0.231
    1UNL    H22   60   0.446  -0.298  -0.112
    1UNL    H23   61   0.285  -0.373  -0.100
    1UNL    H24   62   0.115  -0.004   0.177
    1UNL    H25   63   0.256  -0.046   0.428
    1UNL    H26   64   0.468  -0.134   0.513
    1UNL    H27   65   0.609  -0.277   0.363
    1UNL    H28   66   0.555  -0.316   0.134
    1UNL    H29   67   0.269   0.114  -0.221
    1UNL    H30   68   0.151   0.357  -0.132
    1UNL    H31   69   0.137   0.317  -0.309
    1UNL    H32   70  -0.100   0.250  -0.269
   0.00000   0.00000   0.00000   0.00000   0.00000   0.00000   0.00000   0.00000   0.00000
Generated with MDTraj, t= 26.0
 70
    1UNL     C1    1  -0.138   0.741  -0.156
    1UNL     O1    2  -0.173   0.612  -0.121
    1UNL     C2    3  -0.091   0.523  -0.181
    1UNL     O2    4  -0.033   0.532  -0.289
    1UNL     C3    5  -0.091   0.391  -0.117
    1UNL     C4    6  -0.153   0.386   0.003
    1UNL     O3    7  -0.167   0.271   0.075
    1UNL     C5    8  -0.060   0.175   0.054
    1UNL     O4    9  -0.062   0.062   0.139
    1UNL     C6   10  -0.176  -0.018   0.123
    1UNL     O5   11  -0.191  -0.083  -0.009
    1UNL     C7   12  -0.305  -0.160  -0.044
    1UNL     C8   13  -0.261  -0.302  -0.098
    1UNL     O6   14  -0.139  -0.353  -0.052
    1UNL     C9   15  -0.393  -0.171   0.078
    1UNL     O7   16  -0.475  -0.059   0.114
    1UNL    C10   17  -0.308  -0.221   0.205
    1UNL     O8   18  -0.293  -0.356   0.188
    1UNL    C11   19  -0.178  -0.139   0.222
    1UNL     O9   20  -0.069  -0.224   0.189
    1UNL    C12   21  -0.056   0.142  -0.097
    1UNL    C13   22   0.073   0.061  -0.133
    1UNL    C14   23   0.094  -0.079  -0.102
    1UNL     N1   24   0.119  -0.171  -0.208
    1UNL    C15   25   0.261  -0.196  -0.244
    1UNL    C16   26   0.349  -0.244  -0.127
    1UNL    C17   27   0.301  -0.179   0.001
    1UNL    C18   28   0.192  -0.098   0.015
    1UNL     N2   29   0.177  -0.066   0.150
    1UNL    C19   30   0.275  -0.121   0.221
    1UNL    C20   31   0.306  -0.102   0.357
    1UNL    C21   32   0.407  -0.183   0.412
    1UNL    C22   33   0.482  -0.267   0.331
    1UNL    C23   34   0.464  -0.268   0.198
    1UNL    C24   35   0.361  -0.197   0.132
    1UNL    C25   36   0.158   0.125  -0.209
    1UNL    C26   37   0.106   0.262  -0.229
    1UNL    C27   38  -0.046   0.264  -0.188
    1UNL     H1   39  -0.116   0.763  -0.259
    1UNL     H2   40  -0.215   0.796  -0.109
    1UNL     H3   41  -0.049   0.764  -0.103
    1UNL     H4   42  -0.196   0.480   0.041
    1UNL     H5   43   0.035   0.222   0.081
    1UNL     H6   44  -0.271   0.040   0.140
    1UNL     H7   45  -0.361  -0.107  -0.120
    1UNL     H8   46  -0.238  -0.307  -0.204
    1UNL     H9   47  -0.339  -0.375  -0.095
    1UNL    H10   48  -0.121  -0.309   0.032
    1UNL    H11   49  -0.462  -0.255   0.064
    1UNL    H12   50  -0.492  -0.004   0.027
    1UNL    H13   51  -0.371  -0.223   0.296
    1UNL    H14   52  -0.210  -0.380   0.237
    1UNL    H15   53  -0.167  -0.109   0.332
    1UNL    H16   54   0.011  -0.177   0.173
    1UNL    H17   55  -0.152   0.081  -0.115
    1UNL    H18   56  -0.001  -0.119  -0.052
    1UNL    H19   57   0.068  -0.257  -0.190
    1UNL    H20   58   0.251  -0.285  -0.321
    1UNL    H21   59   0.306  -0.111  -0.299
    1UNL    H22   60   0.454  -0.215  -0.152
    1UNL    H23   61   0.347  -0.353  -0.119
    1UNL    H24   62   0.097  -0.008   0.188
    1UNL    H25   63   0.243  -0.034   0.421
    1UNL    H26   64   0.422  -0.188   0.514
    1UNL    H27   65   0.569  -0.310   0.377
    1UNL    H28   66   0.529  -0.326   0.136
    1UNL    H29   67   0.251   0.082  -0.241
    1UNL    H30   68   0.162   0.328  -0.160
    1UNL    H31   69   0.115   0.289  -0.338
    1UNL    H32   70  -0.103   0.236  -0.272
   0.00000   0.00000   0.00000   0.00000   0.00000   0.00000   0.00000   0.00000   0.00000
Generated with MDTraj, t= 27.0
 70
    1UNL     C1    1  -0.126   0.752  -0.197
    1UNL     O1    2  -0.140   0.642  -0.106
    1UNL     C2    3  -0.068   0.536  -0.156
    1UNL     O2    4   0.016   0.544  -0.247
    1UNL     C3    5  -0.103   0.398  -0.111
    1UNL     C4    6  -0.182   0.375  -0.001
    1UNL     O3    7  -0.193   0.247   0.057
    1UNL     C5    8  -0.074   0.170   0.031
    1UNL     O4    9  -0.074   0.058   0.118
    1UNL     C6   10  -0.184  -0.029   0.099
    1UNL     O5   11  -0.196  -0.094  -0.030
    1UNL     C7   12  -0.298  -0.190  -0.038
    1UNL     C8   13  -0.236  -0.320  -0.100
    1UNL     O6   14  -0.114  -0.350  -0.035
    1UNL     C9   15  -0.389  -0.205   0.087
    1UNL     O7   16  -0.462  -0.079   0.102
    1UNL    C10   17  -0.309  -0.233   0.219
    1UNL     O8   18  -0.266  -0.362   0.214
    1UNL    C11   19  -0.196  -0.125   0.218
    1UNL     O9   20  -0.074  -0.197   0.237
    1UNL    C12   21  -0.061   0.148  -0.121
    1UNL    C13   22   0.069   0.074  -0.138
    1UNL    C14   23   0.085  -0.073  -0.092
    1UNL     N1   24   0.095  -0.177  -0.201
    1UNL    C15   25   0.245  -0.207  -0.240
    1UNL    C16   26   0.329  -0.255  -0.119
    1UNL    C17   27   0.298  -0.180   0.008
    1UNL    C18   28   0.186  -0.097   0.023
    1UNL     N2   29   0.174  -0.049   0.151
    1UNL    C19   30   0.277  -0.108   0.218
    1UNL    C20   31   0.314  -0.110   0.356
    1UNL    C21   32   0.406  -0.201   0.397
    1UNL    C22   33   0.476  -0.280   0.308
    1UNL    C23   34   0.458  -0.272   0.174
    1UNL    C24   35   0.359  -0.183   0.133
    1UNL    C25   36   0.161   0.153  -0.196
    1UNL    C26   37   0.098   0.287  -0.231
    1UNL    C27   38  -0.055   0.278  -0.195
    1UNL     H1   39  -0.171   0.732  -0.296
    1UNL     H2   40  -0.165   0.843  -0.152
    1UNL     H3   41  -0.020   0.766  -0.226
    1UNL     H4   42  -0.223   0.453   0.055
    1UNL     H5   43   0.018   0.230   0.056
    1UNL     H6   44  -0.271   0.039   0.105
    1UNL     H7   45  -0.361  -0.142  -0.111
    1UNL     H8   46  -0.235  -0.312  -0.210
    1UNL     H9   47  -0.299  -0.405  -0.087
    1UNL    H10   48  -0.111  -0.302   0.043
    1UNL    H11   49  -0.468  -0.282   0.074
    1UNL    H12   50  -0.509  -0.065   0.008
    1UNL    H13   51  -0.370  -0.223   0.312
    1UNL    H14   52  -0.181  -0.361   0.263
    1UNL    H15   53  -0.201  -0.057   0.312
    1UNL    H16   54   0.003  -0.141   0.207
    1UNL    H17   55  -0.152   0.092  -0.160
    1UNL    H18   56  -0.007  -0.103  -0.026
    1UNL    H19   57   0.051  -0.265  -0.177
    1UNL    H20   58   0.257  -0.283  -0.325
    1UNL    H21   59   0.296  -0.115  -0.280
    1UNL    H22   60   0.440  -0.242  -0.130
    1UNL    H23   61   0.306  -0.360  -0.107
    1UNL    H24   62   0.106   0.027   0.184
    1UNL    H25   63   0.259  -0.057   0.428
    1UNL    H26   64   0.416  -0.227   0.506
    1UNL    H27   65   0.549  -0.351   0.343
    1UNL    H28   66   0.520  -0.322   0.104
    1UNL    H29   67   0.260   0.123  -0.226
    1UNL    H30   68   0.148   0.359  -0.162
    1UNL    H31   69   0.107   0.313  -0.340
    1UNL    H32   70  -0.097   0.269  -0.290
   0.00000   0.00000   0.00000   0.00000   0.00000   0.00000   0.00000   0.00000   0.00000
Generated with MDTraj, t= 28.0
 70
    1UNL     C1    1  -0.096   0.764  -0.165
    1UNL     O1    2  -0.144   0.640  -0.124
    1UNL     C2    3  -0.068   0.537  -0.170
    1UNL     O2    4   0.029   0.556  -0.241
    1UNL     C3    5  -0.100   0.404  -0.133
    1UNL     C4    6  -0.185   0.387  -0.028
    1UNL     O3    7  -0.212   0.268   0.046
    1UNL     C5    8  -0.094   0.180   0.040
    1UNL     O4    9  -0.098   0.061   0.119
    1UNL     C6   10  -0.208  -0.025   0.098
    1UNL     O5   11  -0.207  -0.092  -0.028
    1UNL     C7   12  -0.298  -0.205  -0.033
    1UNL     C8   13  -0.221  -0.341  -0.063
    1UNL     O6   14  -0.083  -0.324  -0.044
    1UNL     C9   15  -0.394  -0.226   0.088
    1UNL     O7   16  -0.486  -0.113   0.090
    1UNL    C10   17  -0.310  -0.232   0.221
    1UNL     O8   18  -0.269  -0.372   0.238
    1UNL    C11   19  -0.191  -0.131   0.212
    1UNL     O9   20  -0.068  -0.207   0.203
    1UNL    C12   21  -0.052   0.148  -0.105
    1UNL    C13   22   0.071   0.071  -0.125
    1UNL    C14   23   0.079  -0.068  -0.091
    1UNL     N1   24   0.095  -0.162  -0.199
    1UNL    C15   25   0.226  -0.208  -0.233
    1UNL    C16   26   0.300  -0.282  -0.127
    1UNL    C17   27   0.280  -0.197  -0.000
    1UNL    C18   28   0.184  -0.097   0.013
    1UNL     N2   29   0.195  -0.036   0.138
    1UNL    C19   30   0.292  -0.103   0.211
    1UNL    C20   31   0.324  -0.097   0.344
    1UNL    C21   32   0.418  -0.178   0.395
    1UNL    C22   33   0.488  -0.272   0.315
    1UNL    C23   34   0.453  -0.290   0.180
    1UNL    C24   35   0.352  -0.200   0.124
    1UNL    C25   36   0.166   0.149  -0.176
    1UNL    C26   37   0.117   0.293  -0.211
    1UNL    C27   38  -0.040   0.282  -0.191
    1UNL     H1   39  -0.121   0.782  -0.274
    1UNL     H2   40  -0.155   0.841  -0.107
    1UNL     H3   41   0.016   0.784  -0.158
    1UNL     H4   42  -0.229   0.475   0.016
    1UNL     H5   43  -0.006   0.242   0.079
    1UNL     H6   44  -0.299   0.031   0.115
    1UNL     H7   45  -0.361  -0.178  -0.114
    1UNL     H8   46  -0.238  -0.368  -0.170
    1UNL     H9   47  -0.275  -0.424  -0.021
    1UNL    H10   48  -0.066  -0.267   0.044
    1UNL    H11   49  -0.464  -0.314   0.080
    1UNL    H12   50  -0.539  -0.114   0.002
    1UNL    H13   51  -0.382  -0.213   0.306
    1UNL    H14   52  -0.169  -0.372   0.243
    1UNL    H15   53  -0.176  -0.072   0.311
    1UNL    H16   54   0.015  -0.148   0.186
    1UNL    H17   55  -0.142   0.087  -0.137
    1UNL    H18   56  -0.016  -0.094  -0.033
    1UNL    H19   57   0.051  -0.248  -0.163
    1UNL    H20   58   0.223  -0.266  -0.328
    1UNL    H21   59   0.286  -0.114  -0.259
    1UNL    H22   60   0.410  -0.282  -0.151
    1UNL    H23   61   0.265  -0.380  -0.098
    1UNL    H24   62   0.145   0.047   0.167
    1UNL    H25   63   0.267  -0.041   0.419
    1UNL    H26   64   0.437  -0.184   0.499
    1UNL    H27   65   0.564  -0.335   0.360
    1UNL    H28   66   0.512  -0.365   0.122
    1UNL    H29   67   0.269   0.123  -0.198
    1UNL    H30   68   0.149   0.370  -0.137
    1UNL    H31   69   0.145   0.310  -0.317
    1UNL    H32   70  -0.089   0.261  -0.280
   0.00000   0.00000   0.00000   0.00000   0.00000   0.00000   0.00000   0.00000   0.00000
Generated with MDTraj, t= 29.0
 70
    1UNL     C1    1  -0.084   0.761  -0.144
    1UNL     O1    2  -0.133   0.632  -0.105
    1UNL     C2    3  -0.070   0.531  -0.171
    1UNL     O2    4   0.005   0.551  -0.266
    1UNL     C3    5  -0.103   0.397  -0.123
    1UNL     C4    6  -0.195   0.378  -0.027
    1UNL     O3    7  -0.221   0.258   0.031
    1UNL     C5    8  -0.104   0.172   0.023
    1UNL     O4    9  -0.085   0.063   0.116
    1UNL     C6   10  -0.192  -0.029   0.107
    1UNL     O5   11  -0.191  -0.098  -0.022
    1UNL     C7   12  -0.295  -0.198  -0.049
    1UNL     C8   13  -0.229  -0.327  -0.102
    1UNL     O6   14  -0.100  -0.337  -0.052
    1UNL     C9   15  -0.385  -0.218   0.081
    1UNL     O7   16  -0.495  -0.121   0.095
    1UNL    C10   17  -0.304  -0.221   0.215
    1UNL     O8   18  -0.271  -0.356   0.265
    1UNL    C11   19  -0.173  -0.132   0.221
    1UNL     O9   20  -0.059  -0.216   0.198
    1UNL    C12   21  -0.054   0.147  -0.117
    1UNL    C13   22   0.075   0.070  -0.126
    1UNL    C14   23   0.077  -0.076  -0.095
    1UNL     N1   24   0.106  -0.159  -0.215
    1UNL    C15   25   0.238  -0.205  -0.232
    1UNL    C16   26   0.284  -0.291  -0.108
    1UNL    C17   27   0.257  -0.208   0.015
    1UNL    C18   28   0.173  -0.105   0.017
    1UNL     N2   29   0.186  -0.037   0.139
    1UNL    C19   30   0.276  -0.106   0.214
    1UNL    C20   31   0.333  -0.073   0.336
    1UNL    C21   32   0.448  -0.145   0.372
    1UNL    C22   33   0.493  -0.253   0.296
    1UNL    C23   34   0.426  -0.296   0.187
    1UNL    C24   35   0.323  -0.215   0.144
    1UNL    C25   36   0.173   0.153  -0.161
    1UNL    C26   37   0.129   0.296  -0.178
    1UNL    C27   38  -0.025   0.286  -0.182
    1UNL     H1   39  -0.031   0.755  -0.242
    1UNL     H2   40  -0.171   0.829  -0.169
    1UNL     H3   41  -0.007   0.814  -0.080
    1UNL     H4   42  -0.251   0.473  -0.006
    1UNL     H5   43  -0.018   0.242   0.062
    1UNL     H6   44  -0.284   0.024   0.118
    1UNL     H7   45  -0.357  -0.157  -0.128
    1UNL     H8   46  -0.233  -0.337  -0.216
    1UNL     H9   47  -0.284  -0.417  -0.077
    1UNL    H10   48  -0.100  -0.293   0.029
    1UNL    H11   49  -0.427  -0.322   0.078
    1UNL    H12   50  -0.492  -0.068   0.014
    1UNL    H13   51  -0.379  -0.180   0.291
    1UNL    H14   52  -0.176  -0.368   0.250
    1UNL    H15   53  -0.157  -0.077   0.321
    1UNL    H16   54   0.023  -0.159   0.182
    1UNL    H17   55  -0.146   0.095  -0.160
    1UNL    H18   56  -0.021  -0.098  -0.047
    1UNL    H19   57   0.055  -0.246  -0.193
    1UNL    H20   58   0.253  -0.250  -0.331
    1UNL    H21   59   0.302  -0.107  -0.235
    1UNL    H22   60   0.394  -0.316  -0.102
    1UNL    H23   61   0.226  -0.381  -0.103
    1UNL    H24   62   0.134   0.040   0.170
    1UNL    H25   63   0.299   0.008   0.403
    1UNL    H26   64   0.497  -0.116   0.463
    1UNL    H27   65   0.590  -0.285   0.329
    1UNL    H28   66   0.456  -0.374   0.127
    1UNL    H29   67   0.270   0.112  -0.178
    1UNL    H30   68   0.168   0.347  -0.086
    1UNL    H31   69   0.167   0.334  -0.273
    1UNL    H32   70  -0.054   0.279  -0.282
   0.00000   0.00000   0.00000   0.00000   0.00000   0.00000   0.00000   0.00000   0.00000
Generated with MDTraj, t= 30.0
 70
    1UNL     C1    1  -0.099   0.752  -0.137
    1UNL     O1    2  -0.132   0.628  -0.091
    1UNL     C2    3  -0.074   0.526  -0.167
    1UNL     O2    4  -0.019   0.553  -0.273
    1UNL     C3    5  -0.092   0.391  -0.115
    1UNL     C4    6  -0.183   0.368  -0.015
    1UNL     O3    7  -0.203   0.246   0.048
    1UNL     C5    8  -0.087   0.166   0.030
    1UNL     O4    9  -0.073   0.056   0.118
    1UNL     C6   10  -0.189  -0.027   0.110
    1UNL     O5   11  -0.206  -0.074  -0.021
    1UNL     C7   12  -0.311  -0.174  -0.045
    1UNL     C8   13  -0.242  -0.289  -0.118
    1UNL     O6   14  -0.132  -0.353  -0.059
    1UNL     C9   15  -0.397  -0.215   0.078
    1UNL     O7   16  -0.501  -0.122   0.096
    1UNL    C10   17  -0.317  -0.216   0.212
    1UNL     O8   18  -0.276  -0.344   0.262
    1UNL    C11   19  -0.180  -0.138   0.209
    1UNL     O9   20  -0.071  -0.218   0.182
    1UNL    C12   21  -0.060   0.141  -0.116
    1UNL    C13   22   0.071   0.067  -0.126
    1UNL    C14   23   0.093  -0.083  -0.102
    1UNL     N1   24   0.127  -0.154  -0.230
    1UNL    C15   25   0.252  -0.240  -0.233
    1UNL    C16   26   0.286  -0.312  -0.104
    1UNL    C17   27   0.275  -0.219   0.016
    1UNL    C18   28   0.186  -0.110   0.013
    1UNL     N2   29   0.176  -0.053   0.131
    1UNL    C19   30   0.282  -0.096   0.211
    1UNL    C20   31   0.337  -0.057   0.335
    1UNL    C21   32   0.445  -0.124   0.389
    1UNL    C22   33   0.497  -0.233   0.320
    1UNL    C23   34   0.452  -0.270   0.196
    1UNL    C24   35   0.348  -0.199   0.132
    1UNL    C25   36   0.174   0.150  -0.155
    1UNL    C26   37   0.129   0.283  -0.185
    1UNL    C27   38  -0.026   0.277  -0.192
    1UNL     H1   39  -0.072   0.749  -0.240
    1UNL     H2   40  -0.194   0.809  -0.132
    1UNL     H3   41  -0.017   0.793  -0.078
    1UNL     H4   42  -0.245   0.450   0.023
    1UNL     H5   43   0.014   0.226   0.053
    1UNL     H6   44  -0.274   0.032   0.131
    1UNL     H7   45  -0.383  -0.120  -0.111
    1UNL     H8   46  -0.212  -0.265  -0.227
    1UNL     H9   47  -0.318  -0.368  -0.135
    1UNL    H10   48  -0.117  -0.301   0.033
    1UNL    H11   49  -0.451  -0.311   0.063
    1UNL    H12   50  -0.487  -0.039   0.133
    1UNL    H13   51  -0.383  -0.162   0.287
    1UNL    H14   52  -0.200  -0.376   0.207
    1UNL    H15   53  -0.170  -0.096   0.313
    1UNL    H16   54   0.008  -0.165   0.170
    1UNL    H17   55  -0.141   0.077  -0.163
    1UNL    H18   56   0.003  -0.124  -0.059
    1UNL    H19   57   0.047  -0.199  -0.277
    1UNL    H20   58   0.231  -0.321  -0.304
    1UNL    H21   59   0.344  -0.184  -0.284
    1UNL    H22   60   0.384  -0.367  -0.108
    1UNL    H23   61   0.203  -0.378  -0.083
    1UNL    H24   62   0.115   0.026   0.156
    1UNL    H25   63   0.285   0.016   0.388
    1UNL    H26   64   0.494  -0.095   0.485
    1UNL    H27   65   0.576  -0.300   0.352
    1UNL    H28   66   0.501  -0.356   0.145
    1UNL    H29   67   0.281   0.131  -0.171
    1UNL    H30   68   0.163   0.351  -0.103
    1UNL    H31   69   0.172   0.322  -0.277
    1UNL    H32   70  -0.062   0.280  -0.289
   0.00000   0.00000   0.00000   0.00000   0.00000   0.00000   0.00000   0.00000   0.00000
Generated with MDTraj, t= 31.0
 70
    1UNL     C1    1  -0.120   0.745  -0.158
    1UNL     O1    2  -0.152   0.624  -0.103
    1UNL     C2    3  -0.078   0.520  -0.165
    1UNL     O2    4  -0.006   0.550  -0.260
    1UNL     C3    5  -0.096   0.388  -0.109
    1UNL     C4    6  -0.169   0.366   0.004
    1UNL     O3    7  -0.169   0.252   0.077
    1UNL     C5    8  -0.049   0.164   0.052
    1UNL     O4    9  -0.062   0.052   0.138
    1UNL     C6   10  -0.189  -0.024   0.115
    1UNL     O5   11  -0.197  -0.076  -0.022
    1UNL     C7   12  -0.324  -0.154  -0.043
    1UNL     C8   13  -0.283  -0.275  -0.133
    1UNL     O6   14  -0.195  -0.366  -0.074
    1UNL     C9   15  -0.405  -0.191   0.084
    1UNL     O7   16  -0.521  -0.108   0.103
    1UNL    C10   17  -0.325  -0.221   0.213
    1UNL     O8   18  -0.286  -0.361   0.229
    1UNL    C11   19  -0.188  -0.143   0.218
    1UNL     O9   20  -0.079  -0.223   0.181
    1UNL    C12   21  -0.041   0.141  -0.097
    1UNL    C13   22   0.080   0.059  -0.143
    1UNL    C14   23   0.101  -0.087  -0.108
    1UNL     N1   24   0.144  -0.174  -0.221
    1UNL    C15   25   0.277  -0.235  -0.230
    1UNL    C16   26   0.317  -0.292  -0.096
    1UNL    C17   27   0.298  -0.196   0.009
    1UNL    C18   28   0.187  -0.112   0.013
    1UNL     N2   29   0.186  -0.053   0.134
    1UNL    C19   30   0.296  -0.095   0.207
    1UNL    C20   31   0.338  -0.049   0.334
    1UNL    C21   32   0.433  -0.124   0.401
    1UNL    C22   33   0.495  -0.231   0.330
    1UNL    C23   34   0.470  -0.262   0.198
    1UNL    C24   35   0.364  -0.194   0.137
    1UNL    C25   36   0.166   0.139  -0.205
    1UNL    C26   37   0.112   0.277  -0.219
    1UNL    C27   38  -0.039   0.270  -0.183
    1UNL     H1   39  -0.186   0.768  -0.235
    1UNL     H2   40  -0.139   0.819  -0.082
    1UNL     H3   41  -0.018   0.737  -0.183
    1UNL     H4   42  -0.222   0.445   0.049
    1UNL     H5   43   0.045   0.223   0.096
    1UNL     H6   44  -0.271   0.041   0.122
    1UNL     H7   45  -0.387  -0.079  -0.103
    1UNL     H8   46  -0.232  -0.225  -0.224
    1UNL     H9   47  -0.368  -0.329  -0.176
    1UNL    H10   48  -0.160  -0.324  -0.000
    1UNL    H11   49  -0.435  -0.294   0.055
    1UNL    H12   50  -0.591  -0.154   0.058
    1UNL    H13   51  -0.390  -0.191   0.298
    1UNL    H14   52  -0.204  -0.387   0.182
    1UNL    H15   53  -0.183  -0.117   0.325
    1UNL    H16   54  -0.002  -0.168   0.162
    1UNL    H17   55  -0.141   0.092  -0.117
    1UNL    H18   56   0.004  -0.122  -0.075
    1UNL    H19   57   0.077  -0.251  -0.230
    1UNL    H20   58   0.285  -0.307  -0.314
    1UNL    H21   59   0.358  -0.156  -0.265
    1UNL    H22   60   0.425  -0.323  -0.088
    1UNL    H23   61   0.255  -0.380  -0.080
    1UNL    H24   62   0.113   0.023   0.155
    1UNL    H25   63   0.298   0.047   0.378
    1UNL    H26   64   0.454  -0.100   0.499
    1UNL    H27   65   0.576  -0.278   0.383
    1UNL    H28   66   0.522  -0.336   0.143
    1UNL    H29   67   0.264   0.102  -0.228
    1UNL    H30   68   0.159   0.356  -0.154
    1UNL    H31   69   0.138   0.315  -0.316
    1UNL    H32   70  -0.092   0.268  -0.272
   0.00000   0.00000   0.00000   0.00000   0.00000   0.00000   0.00000   0.00000   0.00000
Generated with MDTraj, t= 32.0
 70
    1UNL     C1    1  -0.150   0.718  -0.196
    1UNL     O1    2  -0.130   0.615  -0.103
    1UNL     C2    3  -0.063   0.512  -0.162
    1UNL     O2    4  -0.007   0.528  -0.270
    1UNL     C3    5  -0.077   0.380  -0.098
    1UNL     C4    6  -0.143   0.368   0.019
    1UNL     O3    7  -0.162   0.255   0.088
    1UNL     C5    8  -0.057   0.157   0.054
    1UNL     O4    9  -0.056   0.040   0.127
    1UNL     C6   10  -0.179  -0.039   0.105
    1UNL     O5   11  -0.203  -0.077  -0.026
    1UNL     C7   12  -0.335  -0.140  -0.045
    1UNL     C8   13  -0.308  -0.254  -0.140
    1UNL     O6   14  -0.219  -0.348  -0.092
    1UNL     C9   15  -0.408  -0.189   0.086
    1UNL     O7   16  -0.498  -0.080   0.123
    1UNL    C10   17  -0.320  -0.221   0.208
    1UNL     O8   18  -0.304  -0.364   0.226
    1UNL    C11   19  -0.173  -0.159   0.197
    1UNL     O9   20  -0.074  -0.247   0.167
    1UNL    C12   21  -0.055   0.135  -0.094
    1UNL    C13   22   0.071   0.052  -0.132
    1UNL    C14   23   0.099  -0.087  -0.098
    1UNL     N1   24   0.142  -0.173  -0.207
    1UNL    C15   25   0.282  -0.180  -0.225
    1UNL    C16   26   0.354  -0.243  -0.105
    1UNL    C17   27   0.300  -0.186   0.019
    1UNL    C18   28   0.194  -0.104   0.017
    1UNL     N2   29   0.177  -0.062   0.152
    1UNL    C19   30   0.280  -0.106   0.231
    1UNL    C20   31   0.323  -0.077   0.356
    1UNL    C21   32   0.438  -0.135   0.403
    1UNL    C22   33   0.516  -0.225   0.324
    1UNL    C23   34   0.477  -0.246   0.195
    1UNL    C24   35   0.358  -0.187   0.150
    1UNL    C25   36   0.151   0.126  -0.205
    1UNL    C26   37   0.095   0.264  -0.240
    1UNL    C27   38  -0.050   0.264  -0.181
    1UNL     H1   39  -0.215   0.692  -0.274
    1UNL     H2   40  -0.200   0.802  -0.148
    1UNL     H3   41  -0.049   0.737  -0.225
    1UNL     H4   42  -0.183   0.462   0.052
    1UNL     H5   43   0.044   0.203   0.090
    1UNL     H6   44  -0.259   0.027   0.125
    1UNL     H7   45  -0.399  -0.052  -0.087
    1UNL     H8   46  -0.273  -0.217  -0.243
    1UNL     H9   47  -0.406  -0.297  -0.157
    1UNL    H10   48  -0.179  -0.322  -0.010
    1UNL    H11   49  -0.476  -0.273   0.072
    1UNL    H12   50  -0.507   0.004   0.064
    1UNL    H13   51  -0.369  -0.168   0.289
    1UNL    H14   52  -0.217  -0.401   0.196
    1UNL    H15   53  -0.159  -0.128   0.297
    1UNL    H16   54   0.008  -0.199   0.148
    1UNL    H17   55  -0.147   0.074  -0.115
    1UNL    H18   56   0.004  -0.129  -0.064
    1UNL    H19   57   0.095  -0.265  -0.205
    1UNL    H20   58   0.308  -0.240  -0.317
    1UNL    H21   59   0.326  -0.079  -0.254
    1UNL    H22   60   0.460  -0.214  -0.120
    1UNL    H23   61   0.353  -0.353  -0.103
    1UNL    H24   62   0.102   0.008   0.179
    1UNL    H25   63   0.271  -0.008   0.413
    1UNL    H26   64   0.477  -0.113   0.508
    1UNL    H27   65   0.598  -0.276   0.373
    1UNL    H28   66   0.531  -0.309   0.125
    1UNL    H29   67   0.246   0.087  -0.233
    1UNL    H30   68   0.156   0.348  -0.198
    1UNL    H31   69   0.093   0.301  -0.342
    1UNL    H32   70  -0.124   0.266  -0.254
   0.00000   0.00000   0.00000   0.00000   0.00000   0.00000   0.00000   0.00000   0.00000
Generated with MDTraj, t= 33.0
 70
    1UNL     C1    1  -0.126   0.733  -0.193
    1UNL     O1    2  -0.151   0.616  -0.126
    1UNL     C2    3  -0.090   0.509  -0.187
    1UNL     O2    4  -0.039   0.525  -0.298
    1UNL     C3    5  -0.090   0.383  -0.113
    1UNL     C4    6  -0.148   0.380   0.011
    1UNL     O3    7  -0.160   0.263   0.090
    1UNL     C5    8  -0.062   0.155   0.058
    1UNL     O4    9  -0.070   0.039   0.136
    1UNL     C6   10  -0.195  -0.028   0.121
    1UNL     O5   11  -0.222  -0.067  -0.014
    1UNL     C7   12  -0.349  -0.136  -0.040
    1UNL     C8   13  -0.320  -0.263  -0.128
    1UNL     O6   14  -0.209  -0.330  -0.075
    1UNL     C9   15  -0.423  -0.171   0.096
    1UNL     O7   16  -0.492  -0.054   0.150
    1UNL    C10   17  -0.329  -0.230   0.204
    1UNL     O8   18  -0.320  -0.374   0.186
    1UNL    C11   19  -0.182  -0.159   0.211
    1UNL     O9   20  -0.087  -0.245   0.152
    1UNL    C12   21  -0.049   0.125  -0.093
    1UNL    C13   22   0.086   0.048  -0.120
    1UNL    C14   23   0.110  -0.094  -0.083
    1UNL     N1   24   0.145  -0.182  -0.202
    1UNL    C15   25   0.290  -0.193  -0.247
    1UNL    C16   26   0.383  -0.222  -0.126
    1UNL    C17   27   0.332  -0.171   0.006
    1UNL    C18   28   0.209  -0.108   0.019
    1UNL     N2   29   0.184  -0.076   0.148
    1UNL    C19   30   0.284  -0.131   0.227
    1UNL    C20   31   0.303  -0.141   0.368
    1UNL    C21   32   0.422  -0.174   0.421
    1UNL    C22   33   0.528  -0.200   0.332
    1UNL    C23   34   0.513  -0.209   0.192
    1UNL    C24   35   0.386  -0.179   0.139
    1UNL    C25   36   0.166   0.127  -0.190
    1UNL    C26   37   0.114   0.264  -0.223
    1UNL    C27   38  -0.035   0.262  -0.178
    1UNL     H1   39  -0.129   0.715  -0.301
    1UNL     H2   40  -0.208   0.807  -0.171
    1UNL     H3   41  -0.025   0.757  -0.153
    1UNL     H4   42  -0.199   0.476   0.041
    1UNL     H5   43   0.044   0.195   0.080
    1UNL     H6   44  -0.265   0.045   0.152
    1UNL     H7   45  -0.415  -0.065  -0.104
    1UNL     H8   46  -0.299  -0.232  -0.235
    1UNL     H9   47  -0.401  -0.333  -0.143
    1UNL    H10   48  -0.171  -0.274   0.007
    1UNL    H11   49  -0.486  -0.256   0.067
    1UNL    H12   50  -0.509  -0.071   0.253
    1UNL    H13   51  -0.365  -0.213   0.304
    1UNL    H14   52  -0.272  -0.407   0.106
    1UNL    H15   53  -0.162  -0.144   0.312
    1UNL    H16   54   0.007  -0.200   0.150
    1UNL    H17   55  -0.129   0.058  -0.136
    1UNL    H18   56   0.016  -0.127  -0.035
    1UNL    H19   57   0.084  -0.265  -0.215
    1UNL    H20   58   0.301  -0.274  -0.328
    1UNL    H21   59   0.329  -0.110  -0.302
    1UNL    H22   60   0.485  -0.191  -0.146
    1UNL    H23   61   0.390  -0.332  -0.130
    1UNL    H24   62   0.097  -0.032   0.189
    1UNL    H25   63   0.219  -0.115   0.434
    1UNL    H26   64   0.442  -0.172   0.522
    1UNL    H27   65   0.630  -0.227   0.359
    1UNL    H28   66   0.595  -0.235   0.123
    1UNL    H29   67   0.262   0.093  -0.227
    1UNL    H30   68   0.168   0.349  -0.174
    1UNL    H31   69   0.117   0.299  -0.324
    1UNL    H32   70  -0.098   0.246  -0.259
   0.00000   0.00000   0.00000   0.00000   0.00000   0.00000   0.00000   0.00000   0.00000
Generated with MDTraj, t= 34.0
 70
    1UNL     C1    1  -0.120   0.718  -0.198
    1UNL     O1    2  -0.147   0.601  -0.124
    1UNL     C2    3  -0.103   0.492  -0.191
    1UNL     O2    4  -0.054   0.502  -0.301
    1UNL     C3    5  -0.107   0.358  -0.131
    1UNL     C4    6  -0.176   0.346  -0.015
    1UNL     O3    7  -0.175   0.230   0.070
    1UNL     C5    8  -0.059   0.145   0.050
    1UNL     O4    9  -0.061   0.030   0.124
    1UNL     C6   10  -0.190  -0.026   0.121
    1UNL     O5   11  -0.220  -0.078  -0.005
    1UNL     C7   12  -0.352  -0.127  -0.026
    1UNL     C8   13  -0.339  -0.240  -0.129
    1UNL     O6   14  -0.222  -0.313  -0.110
    1UNL     C9   15  -0.431  -0.163   0.105
    1UNL     O7   16  -0.494  -0.043   0.160
    1UNL    C10   17  -0.339  -0.221   0.218
    1UNL     O8   18  -0.311  -0.353   0.181
    1UNL    C11   19  -0.195  -0.144   0.223
    1UNL     O9   20  -0.094  -0.239   0.186
    1UNL    C12   21  -0.035   0.120  -0.098
    1UNL    C13   22   0.097   0.056  -0.121
    1UNL    C14   23   0.111  -0.093  -0.092
    1UNL     N1   24   0.164  -0.166  -0.209
    1UNL    C15   25   0.304  -0.159  -0.247
    1UNL    C16   26   0.387  -0.189  -0.125
    1UNL    C17   27   0.323  -0.162   0.009
    1UNL    C18   28   0.195  -0.114   0.028
    1UNL     N2   29   0.178  -0.092   0.168
    1UNL    C19   30   0.292  -0.123   0.232
    1UNL    C20   31   0.315  -0.140   0.371
    1UNL    C21   32   0.442  -0.186   0.408
    1UNL    C22   33   0.535  -0.224   0.311
    1UNL    C23   34   0.511  -0.221   0.178
    1UNL    C24   35   0.386  -0.174   0.142
    1UNL    C25   36   0.187   0.143  -0.163
    1UNL    C26   37   0.129   0.272  -0.183
    1UNL    C27   38  -0.025   0.247  -0.186
    1UNL     H1   39  -0.179   0.706  -0.292
    1UNL     H2   40  -0.153   0.817  -0.147
    1UNL     H3   41  -0.008   0.708  -0.217
    1UNL     H4   42  -0.234   0.436   0.010
    1UNL     H5   43   0.027   0.208   0.091
    1UNL     H6   44  -0.249   0.060   0.154
    1UNL     H7   45  -0.404  -0.035  -0.070
    1UNL     H8   46  -0.343  -0.209  -0.236
    1UNL     H9   47  -0.421  -0.308  -0.124
    1UNL    H10   48  -0.171  -0.263  -0.050
    1UNL    H11   49  -0.514  -0.231   0.082
    1UNL    H12   50  -0.539   0.020   0.087
    1UNL    H13   51  -0.381  -0.202   0.315
    1UNL    H14   52  -0.268  -0.349   0.096
    1UNL    H15   53  -0.184  -0.114   0.322
    1UNL    H16   54  -0.004  -0.199   0.184
    1UNL    H17   55  -0.128   0.071  -0.136
    1UNL    H18   56   0.007  -0.133  -0.075
    1UNL    H19   57   0.155  -0.268  -0.188
    1UNL    H20   58   0.331  -0.221  -0.342
    1UNL    H21   59   0.330  -0.066  -0.285
    1UNL    H22   60   0.482  -0.143  -0.146
    1UNL    H23   61   0.417  -0.296  -0.137
    1UNL    H24   62   0.114  -0.028   0.210
    1UNL    H25   63   0.235  -0.110   0.437
    1UNL    H26   64   0.466  -0.196   0.516
    1UNL    H27   65   0.631  -0.257   0.345
    1UNL    H28   66   0.577  -0.262   0.108
    1UNL    H29   67   0.290   0.118  -0.167
    1UNL    H30   68   0.141   0.341  -0.099
    1UNL    H31   69   0.175   0.325  -0.264
    1UNL    H32   70  -0.046   0.227  -0.285
   0.00000   0.00000   0.00000   0.00000   0.00000   0.00000   0.00000   0.00000   0.00000
Generated with MDTraj, t= 35.0
 70
    1UNL     C1    1  -0.156   0.714  -0.209
    1UNL     O1    2  -0.147   0.604  -0.126
    1UNL     C2    3  -0.103   0.496  -0.192
    1UNL     O2    4  -0.048   0.507  -0.298
    1UNL     C3    5  -0.118   0.366  -0.131
    1UNL     C4    6  -0.201   0.345  -0.024
    1UNL     O3    7  -0.201   0.230   0.055
    1UNL     C5    8  -0.072   0.158   0.046
    1UNL     O4    9  -0.072   0.055   0.132
    1UNL     C6   10  -0.189  -0.032   0.111
    1UNL     O5   11  -0.216  -0.074  -0.022
    1UNL     C7   12  -0.356  -0.116  -0.031
    1UNL     C8   13  -0.355  -0.233  -0.133
    1UNL     O6   14  -0.265  -0.328  -0.086
    1UNL     C9   15  -0.427  -0.147   0.106
    1UNL     O7   16  -0.502  -0.029   0.156
    1UNL    C10   17  -0.336  -0.216   0.216
    1UNL     O8   18  -0.331  -0.352   0.188
    1UNL    C11   19  -0.192  -0.157   0.203
    1UNL     O9   20  -0.099  -0.254   0.165
    1UNL    C12   21  -0.034   0.120  -0.096
    1UNL    C13   22   0.103   0.055  -0.097
    1UNL    C14   23   0.124  -0.093  -0.087
    1UNL     N1   24   0.166  -0.152  -0.211
    1UNL    C15   25   0.312  -0.149  -0.237
    1UNL    C16   26   0.408  -0.210  -0.130
    1UNL    C17   27   0.350  -0.178   0.009
    1UNL    C18   28   0.225  -0.134   0.021
    1UNL     N2   29   0.197  -0.103   0.155
    1UNL    C19   30   0.312  -0.130   0.232
    1UNL    C20   31   0.341  -0.119   0.364
    1UNL    C21   32   0.454  -0.172   0.408
    1UNL    C22   33   0.550  -0.245   0.329
    1UNL    C23   34   0.521  -0.253   0.193
    1UNL    C24   35   0.405  -0.191   0.142
    1UNL    C25   36   0.192   0.147  -0.137
    1UNL    C26   37   0.126   0.278  -0.166
    1UNL    C27   38  -0.030   0.254  -0.180
    1UNL     H1   39  -0.244   0.691  -0.271
    1UNL     H2   40  -0.176   0.811  -0.154
    1UNL     H3   41  -0.061   0.716  -0.267
    1UNL     H4   42  -0.260   0.427   0.001
    1UNL     H5   43   0.002   0.227   0.090
    1UNL     H6   44  -0.256   0.046   0.143
    1UNL     H7   45  -0.405  -0.024  -0.072
    1UNL     H8   46  -0.320  -0.200  -0.232
    1UNL     H9   47  -0.448  -0.280  -0.155
    1UNL    H10   48  -0.185  -0.280  -0.039
    1UNL    H11   49  -0.500  -0.230   0.094
    1UNL    H12   50  -0.433   0.031   0.205
    1UNL    H13   51  -0.364  -0.215   0.321
    1UNL    H14   52  -0.299  -0.363   0.093
    1UNL    H15   53  -0.169  -0.139   0.304
    1UNL    H16   54  -0.014  -0.213   0.153
    1UNL    H17   55  -0.108   0.044  -0.130
    1UNL    H18   56   0.027  -0.140  -0.054
    1UNL    H19   57   0.131  -0.250  -0.217
    1UNL    H20   58   0.342  -0.177  -0.346
    1UNL    H21   59   0.334  -0.049  -0.247
    1UNL    H22   60   0.508  -0.170  -0.138
    1UNL    H23   61   0.427  -0.319  -0.147
    1UNL    H24   62   0.123  -0.038   0.184
    1UNL    H25   63   0.275  -0.068   0.430
    1UNL    H26   64   0.483  -0.153   0.509
    1UNL    H27   65   0.631  -0.304   0.374
    1UNL    H28   66   0.585  -0.312   0.123
    1UNL    H29   67   0.301   0.165  -0.133
    1UNL    H30   68   0.151   0.355  -0.093
    1UNL    H31   69   0.155   0.323  -0.259
    1UNL    H32   70  -0.054   0.228  -0.277
   0.00000   0.00000   0.00000   0.00000   0.00000   0.00000   0.00000   0.00000   0.00000
Generated with MDTraj, t= 36.0
 70
    1UNL     C1    1  -0.182   0.713  -0.207
    1UNL     O1    2  -0.215   0.584  -0.155
    1UNL     C2    3  -0.113   0.492  -0.191
    1UNL     O2    4  -0.035   0.515  -0.282
    1UNL     C3    5  -0.092   0.370  -0.116
    1UNL     C4    6  -0.168   0.354  -0.009
    1UNL     O3    7  -0.176   0.241   0.068
    1UNL     C5    8  -0.059   0.155   0.054
    1UNL     O4    9  -0.064   0.038   0.125
    1UNL     C6   10  -0.192  -0.029   0.114
    1UNL     O5   11  -0.248  -0.036  -0.018
    1UNL     C7   12  -0.364  -0.114  -0.031
    1UNL     C8   13  -0.336  -0.232  -0.131
    1UNL     O6   14  -0.272  -0.341  -0.075
    1UNL     C9   15  -0.429  -0.155   0.099
    1UNL     O7   16  -0.519  -0.051   0.151
    1UNL    C10   17  -0.332  -0.209   0.211
    1UNL     O8   18  -0.334  -0.351   0.228
    1UNL    C11   19  -0.185  -0.163   0.185
    1UNL     O9   20  -0.096  -0.260   0.127
    1UNL    C12   21  -0.024   0.133  -0.093
    1UNL    C13   22   0.122   0.073  -0.107
    1UNL    C14   23   0.133  -0.080  -0.100
    1UNL     N1   24   0.185  -0.140  -0.227
    1UNL    C15   25   0.335  -0.178  -0.227
    1UNL    C16   26   0.378  -0.261  -0.104
    1UNL    C17   27   0.328  -0.188   0.013
    1UNL    C18   28   0.213  -0.110   0.024
    1UNL     N2   29   0.185  -0.091   0.162
    1UNL    C19   30   0.298  -0.135   0.230
    1UNL    C20   31   0.338  -0.132   0.367
    1UNL    C21   32   0.461  -0.177   0.405
    1UNL    C22   33   0.554  -0.231   0.314
    1UNL    C23   34   0.522  -0.241   0.179
    1UNL    C24   35   0.390  -0.195   0.142
    1UNL    C25   36   0.212   0.160  -0.148
    1UNL    C26   37   0.145   0.294  -0.171
    1UNL    C27   38  -0.007   0.261  -0.175
    1UNL     H1   39  -0.185   0.690  -0.310
    1UNL     H2   40  -0.251   0.792  -0.179
    1UNL     H3   41  -0.084   0.738  -0.176
    1UNL     H4   42  -0.234   0.435   0.021
    1UNL     H5   43   0.031   0.199   0.092
    1UNL     H6   44  -0.250   0.048   0.166
    1UNL     H7   45  -0.433  -0.045  -0.081
    1UNL     H8   46  -0.274  -0.199  -0.214
    1UNL     H9   47  -0.424  -0.265  -0.182
    1UNL    H10   48  -0.205  -0.316  -0.012
    1UNL    H11   49  -0.508  -0.233   0.089
    1UNL    H12   50  -0.472   0.035   0.172
    1UNL    H13   51  -0.368  -0.161   0.304
    1UNL    H14   52  -0.333  -0.397   0.141
    1UNL    H15   53  -0.146  -0.150   0.285
    1UNL    H16   54  -0.000  -0.232   0.134
    1UNL    H17   55  -0.104   0.068  -0.137
    1UNL    H18   56   0.024  -0.115  -0.085
    1UNL    H19   57   0.127  -0.221  -0.255
    1UNL    H20   58   0.368  -0.223  -0.329
    1UNL    H21   59   0.398  -0.097  -0.233
    1UNL    H22   60   0.484  -0.275  -0.093
    1UNL    H23   61   0.337  -0.365  -0.105
    1UNL    H24   62   0.108  -0.021   0.186
    1UNL    H25   63   0.269  -0.084   0.439
    1UNL    H26   64   0.482  -0.173   0.509
    1UNL    H27   65   0.641  -0.276   0.354
    1UNL    H28   66   0.588  -0.292   0.113
    1UNL    H29   67   0.312   0.123  -0.150
    1UNL    H30   68   0.179   0.352  -0.088
    1UNL    H31   69   0.180   0.341  -0.262
    1UNL    H32   70  -0.033   0.247  -0.275
   0.00000   0.00000   0.00000   0.00000   0.00000   0.00000   0.00000   0.00000   0.00000
Generated with MDTraj, t= 37.0
 70
    1UNL     C1    1  -0.239   0.679  -0.233
    1UNL     O1    2  -0.205   0.592  -0.138
    1UNL     C2    3  -0.101   0.510  -0.180
    1UNL     O2    4  -0.027   0.540  -0.272
    1UNL     C3    5  -0.086   0.382  -0.107
    1UNL     C4    6  -0.142   0.368   0.014
    1UNL     O3    7  -0.159   0.255   0.086
    1UNL     C5    8  -0.054   0.154   0.052
    1UNL     O4    9  -0.061   0.047   0.141
    1UNL     C6   10  -0.185  -0.020   0.120
    1UNL     O5   11  -0.213  -0.066  -0.012
    1UNL     C7   12  -0.349  -0.111  -0.034
    1UNL     C8   13  -0.343  -0.231  -0.134
    1UNL     O6   14  -0.257  -0.336  -0.089
    1UNL     C9   15  -0.423  -0.161   0.094
    1UNL     O7   16  -0.519  -0.067   0.130
    1UNL    C10   17  -0.322  -0.204   0.210
    1UNL     O8   18  -0.303  -0.347   0.222
    1UNL    C11   19  -0.177  -0.142   0.212
    1UNL     O9   20  -0.083  -0.238   0.173
    1UNL    C12   21  -0.027   0.132  -0.098
    1UNL    C13   22   0.101   0.054  -0.120
    1UNL    C14   23   0.122  -0.092  -0.112
    1UNL     N1   24   0.181  -0.162  -0.231
    1UNL    C15   25   0.328  -0.168  -0.251
    1UNL    C16   26   0.389  -0.251  -0.132
    1UNL    C17   27   0.324  -0.206   0.004
    1UNL    C18   28   0.205  -0.128   0.013
    1UNL     N2   29   0.190  -0.083   0.138
    1UNL    C19   30   0.288  -0.137   0.217
    1UNL    C20   31   0.313  -0.102   0.352
    1UNL    C21   32   0.430  -0.152   0.404
    1UNL    C22   33   0.512  -0.237   0.331
    1UNL    C23   34   0.485  -0.272   0.201
    1UNL    C24   35   0.370  -0.223   0.143
    1UNL    C25   36   0.203   0.137  -0.152
    1UNL    C26   37   0.154   0.284  -0.170
    1UNL    C27   38   0.001   0.268  -0.168
    1UNL     H1   39  -0.163   0.681  -0.305
    1UNL     H2   40  -0.332   0.647  -0.273
    1UNL     H3   41  -0.258   0.772  -0.186
    1UNL     H4   42  -0.200   0.457   0.052
    1UNL     H5   43   0.039   0.194   0.081
    1UNL     H6   44  -0.270   0.042   0.152
    1UNL     H7   45  -0.396  -0.038  -0.094
    1UNL     H8   46  -0.310  -0.202  -0.235
    1UNL     H9   47  -0.439  -0.272  -0.162
    1UNL    H10   48  -0.204  -0.299  -0.006
    1UNL    H11   49  -0.479  -0.254   0.073
    1UNL    H12   50  -0.473   0.015   0.155
    1UNL    H13   51  -0.375  -0.169   0.302
    1UNL    H14   52  -0.210  -0.367   0.195
    1UNL    H15   53  -0.158  -0.123   0.321
    1UNL    H16   54   0.003  -0.186   0.151
    1UNL    H17   55  -0.114   0.076  -0.139
    1UNL    H18   56   0.019  -0.146  -0.111
    1UNL    H19   57   0.144  -0.258  -0.225
    1UNL    H20   58   0.367  -0.202  -0.354
    1UNL    H21   59   0.366  -0.070  -0.243
    1UNL    H22   60   0.497  -0.248  -0.128
    1UNL    H23   61   0.360  -0.357  -0.150
    1UNL    H24   62   0.137   0.001   0.165
    1UNL    H25   63   0.255  -0.028   0.397
    1UNL    H26   64   0.462  -0.122   0.507
    1UNL    H27   65   0.606  -0.273   0.380
    1UNL    H28   66   0.550  -0.336   0.145
    1UNL    H29   67   0.310   0.117  -0.141
    1UNL    H30   68   0.169   0.354  -0.090
    1UNL    H31   69   0.194   0.320  -0.264
    1UNL    H32   70  -0.041   0.268  -0.263
   0.00000   0.00000   0.00000   0.00000   0.00000   0.00000   0.00000   0.00000   0.00000
Generated with MDTraj, t= 38.0
 70
    1UNL     C1    1  -0.227   0.685  -0.243
    1UNL     O1    2  -0.209   0.592  -0.144
    1UNL     C2    3  -0.103   0.504  -0.178
    1UNL     O2    4  -0.038   0.526  -0.278
    1UNL     C3    5  -0.080   0.382  -0.102
    1UNL     C4    6  -0.155   0.359   0.007
    1UNL     O3    7  -0.150   0.253   0.092
    1UNL     C5    8  -0.041   0.160   0.063
    1UNL     O4    9  -0.052   0.047   0.153
    1UNL     C6   10  -0.171  -0.022   0.134
    1UNL     O5   11  -0.188  -0.069  -0.002
    1UNL     C7   12  -0.322  -0.121  -0.037
    1UNL     C8   13  -0.298  -0.229  -0.144
    1UNL     O6   14  -0.204  -0.325  -0.101
    1UNL     C9   15  -0.403  -0.164   0.092
    1UNL     O7   16  -0.493  -0.062   0.122
    1UNL    C10   17  -0.320  -0.207   0.220
    1UNL     O8   18  -0.305  -0.355   0.223
    1UNL    C11   19  -0.176  -0.143   0.232
    1UNL     O9   20  -0.076  -0.237   0.200
    1UNL    C12   21  -0.024   0.134  -0.088
    1UNL    C13   22   0.108   0.065  -0.123
    1UNL    C14   23   0.117  -0.080  -0.111
    1UNL     N1   24   0.157  -0.145  -0.242
    1UNL    C15   25   0.296  -0.181  -0.250
    1UNL    C16   26   0.352  -0.263  -0.136
    1UNL    C17   27   0.306  -0.202   0.002
    1UNL    C18   28   0.204  -0.116   0.005
    1UNL     N2   29   0.176  -0.074   0.135
    1UNL    C19   30   0.272  -0.120   0.222
    1UNL    C20   31   0.295  -0.111   0.363
    1UNL    C21   32   0.406  -0.182   0.409
    1UNL    C22   33   0.494  -0.254   0.326
    1UNL    C23   34   0.467  -0.266   0.196
    1UNL    C24   35   0.354  -0.206   0.137
    1UNL    C25   36   0.201   0.146  -0.177
    1UNL    C26   37   0.142   0.285  -0.181
    1UNL    C27   38  -0.011   0.267  -0.170
    1UNL     H1   39  -0.170   0.774  -0.223
    1UNL     H2   40  -0.197   0.645  -0.340
    1UNL     H3   41  -0.334   0.701  -0.256
    1UNL     H4   42  -0.227   0.436   0.029
    1UNL     H5   43   0.051   0.200   0.089
    1UNL     H6   44  -0.250   0.055   0.150
    1UNL     H7   45  -0.364  -0.032  -0.073
    1UNL     H8   46  -0.263  -0.189  -0.242
    1UNL     H9   47  -0.393  -0.278  -0.166
    1UNL    H10   48  -0.149  -0.287  -0.031
    1UNL    H11   49  -0.470  -0.251   0.083
    1UNL    H12   50  -0.450   0.010   0.164
    1UNL    H13   51  -0.381  -0.178   0.311
    1UNL    H14   52  -0.215  -0.374   0.183
    1UNL    H15   53  -0.156  -0.094   0.334
    1UNL    H16   54   0.012  -0.192   0.184
    1UNL    H17   55  -0.118   0.082  -0.119
    1UNL    H18   56   0.014  -0.123  -0.080
    1UNL    H19   57   0.089  -0.220  -0.263
    1UNL    H20   58   0.320  -0.233  -0.346
    1UNL    H21   59   0.361  -0.091  -0.240
    1UNL    H22   60   0.461  -0.252  -0.137
    1UNL    H23   61   0.319  -0.369  -0.143
    1UNL    H24   62   0.106  -0.002   0.169
    1UNL    H25   63   0.230  -0.052   0.429
    1UNL    H26   64   0.442  -0.166   0.504
    1UNL    H27   65   0.576  -0.312   0.359
    1UNL    H28   66   0.535  -0.322   0.133
    1UNL    H29   67   0.305   0.122  -0.191
    1UNL    H30   68   0.184   0.332  -0.096
    1UNL    H31   69   0.170   0.335  -0.275
    1UNL    H32   70  -0.054   0.272  -0.265
   0.00000   0.00000   0.00000   0.00000   0.00000   0.00000   0.00000   0.00000   0.00000
Generated with MDTraj, t= 39.0
 70
    1UNL     C1    1  -0.191   0.727  -0.227
    1UNL     O1    2  -0.221   0.607  -0.159
    1UNL     C2    3  -0.131   0.508  -0.199
    1UNL     O2    4  -0.056   0.530  -0.292
    1UNL     C3    5  -0.123   0.387  -0.121
    1UNL     C4    6  -0.185   0.380  -0.002
    1UNL     O3    7  -0.171   0.275   0.089
    1UNL     C5    8  -0.061   0.185   0.062
    1UNL     O4    9  -0.063   0.071   0.145
    1UNL     C6   10  -0.172  -0.010   0.122
    1UNL     O5   11  -0.188  -0.052  -0.017
    1UNL     C7   12  -0.304  -0.137  -0.041
    1UNL     C8   13  -0.259  -0.258  -0.122
    1UNL     O6   14  -0.139  -0.321  -0.079
    1UNL     C9   15  -0.389  -0.163   0.086
    1UNL     O7   16  -0.483  -0.062   0.112
    1UNL    C10   17  -0.306  -0.196   0.211
    1UNL     O8   18  -0.301  -0.343   0.217
    1UNL    C11   19  -0.164  -0.134   0.209
    1UNL     O9   20  -0.062  -0.231   0.170
    1UNL    C12   21  -0.037   0.146  -0.084
    1UNL    C13   22   0.089   0.069  -0.108
    1UNL    C14   23   0.104  -0.083  -0.094
    1UNL     N1   24   0.147  -0.153  -0.222
    1UNL    C15   25   0.286  -0.209  -0.247
    1UNL    C16   26   0.342  -0.274  -0.112
    1UNL    C17   27   0.303  -0.206   0.013
    1UNL    C18   28   0.194  -0.115   0.024
    1UNL     N2   29   0.193  -0.074   0.159
    1UNL    C19   30   0.292  -0.142   0.231
    1UNL    C20   31   0.322  -0.146   0.370
    1UNL    C21   32   0.427  -0.224   0.416
    1UNL    C22   33   0.501  -0.301   0.323
    1UNL    C23   34   0.476  -0.298   0.189
    1UNL    C24   35   0.360  -0.226   0.144
    1UNL    C25   36   0.172   0.155  -0.169
    1UNL    C26   37   0.116   0.293  -0.189
    1UNL    C27   38  -0.042   0.276  -0.176
    1UNL     H1   39  -0.115   0.784  -0.168
    1UNL     H2   40  -0.147   0.708  -0.330
    1UNL     H3   41  -0.284   0.786  -0.253
    1UNL     H4   42  -0.243   0.461   0.028
    1UNL     H5   43   0.029   0.228   0.088
    1UNL     H6   44  -0.259   0.055   0.145
    1UNL     H7   45  -0.365  -0.080  -0.104
    1UNL     H8   46  -0.240  -0.226  -0.228
    1UNL     H9   47  -0.342  -0.330  -0.131
    1UNL    H10   48  -0.111  -0.287   0.007
    1UNL    H11   49  -0.449  -0.252   0.067
    1UNL    H12   50  -0.439   0.012   0.143
    1UNL    H13   51  -0.364  -0.169   0.304
    1UNL    H14   52  -0.216  -0.376   0.185
    1UNL    H15   53  -0.139  -0.099   0.317
    1UNL    H16   54   0.023  -0.188   0.176
    1UNL    H17   55  -0.124   0.084  -0.113
    1UNL    H18   56  -0.001  -0.117  -0.061
    1UNL    H19   57   0.067  -0.180  -0.284
    1UNL    H20   58   0.295  -0.288  -0.322
    1UNL    H21   59   0.352  -0.119  -0.275
    1UNL    H22   60   0.452  -0.278  -0.111
    1UNL    H23   61   0.302  -0.377  -0.103
    1UNL    H24   62   0.122  -0.008   0.197
    1UNL    H25   63   0.278  -0.081   0.441
    1UNL    H26   64   0.453  -0.227   0.526
    1UNL    H27   65   0.583  -0.354   0.373
    1UNL    H28   66   0.534  -0.356   0.124
    1UNL    H29   67   0.274   0.126  -0.196
    1UNL    H30   68   0.164   0.340  -0.108
    1UNL    H31   69   0.148   0.330  -0.287
    1UNL    H32   70  -0.079   0.249  -0.269
   0.00000   0.00000   0.00000   0.00000   0.00000   0.00000   0.00000   0.00000   0.00000
Generated with MDTraj, t= 40.0
 70
    1UNL     C1    1  -0.195   0.720  -0.219
    1UNL     O1    2  -0.170   0.617  -0.129
    1UNL     C2    3  -0.114   0.516  -0.196
    1UNL     O2    4  -0.071   0.530  -0.309
    1UNL     C3    5  -0.111   0.388  -0.132
    1UNL     C4    6  -0.185   0.372  -0.022
    1UNL     O3    7  -0.210   0.257   0.048
    1UNL     C5    8  -0.083   0.186   0.043
    1UNL     O4    9  -0.077   0.077   0.138
    1UNL     C6   10  -0.176  -0.019   0.112
    1UNL     O5   11  -0.176  -0.079  -0.020
    1UNL     C7   12  -0.296  -0.153  -0.049
    1UNL     C8   13  -0.246  -0.277  -0.123
    1UNL     O6   14  -0.130  -0.329  -0.057
    1UNL     C9   15  -0.384  -0.183   0.084
    1UNL     O7   16  -0.495  -0.081   0.110
    1UNL    C10   17  -0.301  -0.210   0.213
    1UNL     O8   18  -0.282  -0.352   0.230
    1UNL    C11   19  -0.176  -0.125   0.216
    1UNL     O9   20  -0.060  -0.206   0.203
    1UNL    C12   21  -0.036   0.148  -0.104
    1UNL    C13   22   0.099   0.090  -0.107
    1UNL    C14   23   0.107  -0.055  -0.073
    1UNL     N1   24   0.115  -0.141  -0.193
    1UNL    C15   25   0.250  -0.167  -0.238
    1UNL    C16   26   0.314  -0.254  -0.124
    1UNL    C17   27   0.289  -0.203   0.018
    1UNL    C18   28   0.210  -0.092   0.035
    1UNL     N2   29   0.214  -0.059   0.172
    1UNL    C19   30   0.310  -0.137   0.236
    1UNL    C20   31   0.347  -0.149   0.370
    1UNL    C21   32   0.437  -0.243   0.411
    1UNL    C22   33   0.486  -0.335   0.318
    1UNL    C23   34   0.447  -0.332   0.185
    1UNL    C24   35   0.353  -0.230   0.141
    1UNL    C25   36   0.192   0.178  -0.159
    1UNL    C26   37   0.130   0.303  -0.211
    1UNL    C27   38  -0.031   0.280  -0.194
    1UNL     H1   39  -0.110   0.724  -0.295
    1UNL     H2   40  -0.293   0.714  -0.274
    1UNL     H3   41  -0.199   0.820  -0.167
    1UNL     H4   42  -0.241   0.464   0.003
    1UNL     H5   43  -0.009   0.251   0.076
    1UNL     H6   44  -0.274   0.034   0.123
    1UNL     H7   45  -0.359  -0.100  -0.117
    1UNL     H8   46  -0.223  -0.246  -0.227
    1UNL     H9   47  -0.321  -0.359  -0.133
    1UNL    H10   48  -0.124  -0.277   0.035
    1UNL    H11   49  -0.440  -0.268   0.048
    1UNL    H12   50  -0.480  -0.003   0.066
    1UNL    H13   51  -0.365  -0.181   0.302
    1UNL    H14   52  -0.196  -0.367   0.280
    1UNL    H15   53  -0.181  -0.075   0.322
    1UNL    H16   54   0.026  -0.155   0.201
    1UNL    H17   55  -0.110   0.077  -0.146
    1UNL    H18   56   0.007  -0.096  -0.030
    1UNL    H19   57   0.047  -0.112  -0.266
    1UNL    H20   58   0.244  -0.217  -0.335
    1UNL    H21   59   0.309  -0.066  -0.249
    1UNL    H22   60   0.424  -0.268  -0.131
    1UNL    H23   61   0.271  -0.355  -0.127
    1UNL    H24   62   0.173   0.018   0.218
    1UNL    H25   63   0.307  -0.084   0.446
    1UNL    H26   64   0.465  -0.248   0.511
    1UNL    H27   65   0.537  -0.422   0.354
    1UNL    H28   66   0.473  -0.414   0.114
    1UNL    H29   67   0.300   0.177  -0.158
    1UNL    H30   68   0.150   0.385  -0.148
    1UNL    H31   69   0.168   0.322  -0.312
    1UNL    H32   70  -0.074   0.247  -0.282
   0.00000   0.00000   0.00000   0.00000   0.00000   0.00000   0.00000   0.00000   0.00000
Generated with MDTraj, t= 41.0
 70
    1UNL     C1    1  -0.164   0.745  -0.215
    1UNL     O1    2  -0.168   0.631  -0.132
    1UNL     C2    3  -0.110   0.529  -0.203
    1UNL     O2    4  -0.064   0.544  -0.314
    1UNL     C3    5  -0.111   0.399  -0.134
    1UNL     C4    6  -0.202   0.384  -0.033
    1UNL     O3    7  -0.207   0.271   0.043
    1UNL     C5    8  -0.087   0.187   0.038
    1UNL     O4    9  -0.098   0.084   0.140
    1UNL     C6   10  -0.195  -0.014   0.111
    1UNL     O5   11  -0.189  -0.074  -0.013
    1UNL     C7   12  -0.294  -0.170  -0.038
    1UNL     C8   13  -0.228  -0.295  -0.097
    1UNL     O6   14  -0.148  -0.370  -0.010
    1UNL     C9   15  -0.383  -0.209   0.078
    1UNL     O7   16  -0.494  -0.109   0.101
    1UNL    C10   17  -0.300  -0.220   0.208
    1UNL     O8   18  -0.259  -0.354   0.239
    1UNL    C11   19  -0.179  -0.123   0.217
    1UNL     O9   20  -0.054  -0.193   0.190
    1UNL    C12   21  -0.039   0.150  -0.108
    1UNL    C13   22   0.096   0.090  -0.110
    1UNL    C14   23   0.111  -0.063  -0.085
    1UNL     N1   24   0.128  -0.138  -0.211
    1UNL    C15   25   0.256  -0.204  -0.232
    1UNL    C16   26   0.308  -0.278  -0.115
    1UNL    C17   27   0.304  -0.194   0.006
    1UNL    C18   28   0.213  -0.097   0.019
    1UNL     N2   29   0.219  -0.046   0.147
    1UNL    C19   30   0.310  -0.121   0.232
    1UNL    C20   31   0.339  -0.147   0.368
    1UNL    C21   32   0.418  -0.257   0.402
    1UNL    C22   33   0.472  -0.341   0.303
    1UNL    C23   34   0.438  -0.324   0.175
    1UNL    C24   35   0.361  -0.216   0.136
    1UNL    C25   36   0.184   0.187  -0.139
    1UNL    C26   37   0.120   0.319  -0.168
    1UNL    C27   38  -0.027   0.286  -0.184
    1UNL     H1   39  -0.075   0.732  -0.281
    1UNL     H2   40  -0.251   0.770  -0.275
    1UNL     H3   41  -0.144   0.834  -0.155
    1UNL     H4   42  -0.282   0.461  -0.015
    1UNL     H5   43  -0.007   0.247   0.074
    1UNL     H6   44  -0.296   0.033   0.124
    1UNL     H7   45  -0.356  -0.118  -0.113
    1UNL     H8   46  -0.162  -0.255  -0.175
    1UNL     H9   47  -0.310  -0.352  -0.145
    1UNL    H10   48  -0.114  -0.316   0.060
    1UNL    H11   49  -0.427  -0.307   0.057
    1UNL    H12   50  -0.486  -0.030   0.056
    1UNL    H13   51  -0.370  -0.198   0.292
    1UNL    H14   52  -0.168  -0.346   0.270
    1UNL    H15   53  -0.172  -0.062   0.316
    1UNL    H16   54   0.024  -0.130   0.170
    1UNL    H17   55  -0.120   0.093  -0.160
    1UNL    H18   56   0.017  -0.114  -0.042
    1UNL    H19   57   0.104  -0.072  -0.288
    1UNL    H20   58   0.245  -0.269  -0.316
    1UNL    H21   59   0.331  -0.119  -0.260
    1UNL    H22   60   0.413  -0.316  -0.133
    1UNL    H23   61   0.251  -0.369  -0.097
    1UNL    H24   62   0.178   0.038   0.183
    1UNL    H25   63   0.305  -0.079   0.446
    1UNL    H26   64   0.449  -0.265   0.508
    1UNL    H27   65   0.525  -0.430   0.336
    1UNL    H28   66   0.463  -0.396   0.104
    1UNL    H29   67   0.285   0.153  -0.133
    1UNL    H30   68   0.132   0.381  -0.082
    1UNL    H31   69   0.158   0.369  -0.256
    1UNL    H32   70  -0.045   0.268  -0.285
   0.00000   0.00000   0.00000   0.00000   0.00000   0.00000   0.00000   0.00000   0.00000
Generated with MDTraj, t= 42.0
 70
    1UNL     C1    1  -0.131   0.756  -0.220
    1UNL     O1    2  -0.178   0.644  -0.150
    1UNL     C2    3  -0.111   0.534  -0.195
    1UNL     O2    4  -0.033   0.546  -0.286
    1UNL     C3    5  -0.116   0.400  -0.131
    1UNL     C4    6  -0.203   0.376  -0.027
    1UNL     O3    7  -0.200   0.264   0.056
    1UNL     C5    8  -0.080   0.190   0.050
    1UNL     O4    9  -0.072   0.080   0.139
    1UNL     C6   10  -0.171  -0.020   0.111
    1UNL     O5   11  -0.179  -0.081  -0.017
    1UNL     C7   12  -0.284  -0.184  -0.043
    1UNL     C8   13  -0.220  -0.316  -0.104
    1UNL     O6   14  -0.151  -0.386  -0.008
    1UNL     C9   15  -0.370  -0.212   0.088
    1UNL     O7   16  -0.485  -0.116   0.090
    1UNL    C10   17  -0.289  -0.210   0.221
    1UNL     O8   18  -0.261  -0.344   0.266
    1UNL    C11   19  -0.161  -0.128   0.228
    1UNL     O9   20  -0.050  -0.216   0.205
    1UNL    C12   21  -0.048   0.161  -0.094
    1UNL    C13   22   0.087   0.089  -0.112
    1UNL    C14   23   0.104  -0.058  -0.108
    1UNL     N1   24   0.132  -0.124  -0.244
    1UNL    C15   25   0.267  -0.187  -0.250
    1UNL    C16   26   0.292  -0.273  -0.128
    1UNL    C17   27   0.269  -0.216   0.001
    1UNL    C18   28   0.183  -0.106   0.009
    1UNL     N2   29   0.184  -0.062   0.139
    1UNL    C19   30   0.279  -0.138   0.212
    1UNL    C20   31   0.310  -0.125   0.348
    1UNL    C21   32   0.412  -0.203   0.400
    1UNL    C22   33   0.466  -0.303   0.321
    1UNL    C23   34   0.436  -0.317   0.187
    1UNL    C24   35   0.336  -0.234   0.127
    1UNL    C25   36   0.184   0.178  -0.129
    1UNL    C26   37   0.124   0.316  -0.163
    1UNL    C27   38  -0.030   0.287  -0.183
    1UNL     H1   39  -0.058   0.801  -0.154
    1UNL     H2   40  -0.090   0.750  -0.317
    1UNL     H3   41  -0.218   0.816  -0.228
    1UNL     H4   42  -0.274   0.446   0.009
    1UNL     H5   43   0.004   0.249   0.088
    1UNL     H6   44  -0.273   0.031   0.123
    1UNL     H7   45  -0.349  -0.134  -0.121
    1UNL     H8   46  -0.154  -0.287  -0.186
    1UNL     H9   47  -0.302  -0.379  -0.142
    1UNL    H10   48  -0.120  -0.320   0.053
    1UNL    H11   49  -0.405  -0.318   0.086
    1UNL    H12   50  -0.544  -0.150   0.023
    1UNL    H13   51  -0.364  -0.184   0.295
    1UNL    H14   52  -0.171  -0.343   0.309
    1UNL    H15   53  -0.136  -0.069   0.320
    1UNL    H16   54   0.025  -0.159   0.185
    1UNL    H17   55  -0.120   0.083  -0.131
    1UNL    H18   56   0.001  -0.102  -0.083
    1UNL    H19   57   0.134  -0.041  -0.305
    1UNL    H20   58   0.269  -0.244  -0.340
    1UNL    H21   59   0.345  -0.102  -0.261
    1UNL    H22   60   0.400  -0.309  -0.129
    1UNL    H23   61   0.240  -0.368  -0.137
    1UNL    H24   62   0.131   0.016   0.169
    1UNL    H25   63   0.270  -0.039   0.396
    1UNL    H26   64   0.451  -0.182   0.500
    1UNL    H27   65   0.542  -0.366   0.367
    1UNL    H28   66   0.471  -0.403   0.130
    1UNL    H29   67   0.290   0.159  -0.148
    1UNL    H30   68   0.139   0.387  -0.084
    1UNL    H31   69   0.158   0.376  -0.248
    1UNL    H32   70  -0.060   0.260  -0.280
   0.00000   0.00000   0.00000   0.00000   0.00000   0.00000   0.00000   0.00000   0.00000
Generated with MDTraj, t= 43.0
 70
    1UNL     C1    1  -0.167   0.743  -0.213
    1UNL     O1    2  -0.174   0.627  -0.124
    1UNL     C2    3  -0.086   0.534  -0.170
    1UNL     O2    4  -0.002   0.561  -0.254
    1UNL     C3    5  -0.093   0.398  -0.109
    1UNL     C4    6  -0.174   0.375  -0.004
    1UNL     O3    7  -0.193   0.252   0.057
    1UNL     C5    8  -0.073   0.173   0.047
    1UNL     O4    9  -0.076   0.064   0.145
    1UNL     C6   10  -0.176  -0.029   0.120
    1UNL     O5   11  -0.173  -0.090  -0.008
    1UNL     C7   12  -0.279  -0.190  -0.032
    1UNL     C8   13  -0.224  -0.317  -0.095
    1UNL     O6   14  -0.134  -0.383  -0.022
    1UNL     C9   15  -0.377  -0.214   0.093
    1UNL     O7   16  -0.477  -0.106   0.095
    1UNL    C10   17  -0.308  -0.207   0.232
    1UNL     O8   18  -0.298  -0.338   0.280
    1UNL    C11   19  -0.172  -0.134   0.235
    1UNL     O9   20  -0.058  -0.220   0.232
    1UNL    C12   21  -0.047   0.153  -0.104
    1UNL    C13   22   0.079   0.072  -0.140
    1UNL    C14   23   0.095  -0.075  -0.139
    1UNL     N1   24   0.171  -0.119  -0.257
    1UNL    C15   25   0.306  -0.176  -0.248
    1UNL    C16   26   0.307  -0.277  -0.127
    1UNL    C17   27   0.265  -0.211  -0.002
    1UNL    C18   28   0.166  -0.116  -0.011
    1UNL     N2   29   0.162  -0.054   0.113
    1UNL    C19   30   0.260  -0.110   0.202
    1UNL    C20   31   0.308  -0.087   0.333
    1UNL    C21   32   0.398  -0.173   0.392
    1UNL    C22   33   0.459  -0.275   0.313
    1UNL    C23   34   0.418  -0.296   0.184
    1UNL    C24   35   0.314  -0.215   0.129
    1UNL    C25   36   0.181   0.149  -0.175
    1UNL    C26   37   0.137   0.289  -0.184
    1UNL    C27   38  -0.022   0.283  -0.178
    1UNL     H1   39  -0.146   0.828  -0.150
    1UNL     H2   40  -0.094   0.745  -0.289
    1UNL     H3   41  -0.261   0.747  -0.262
    1UNL     H4   42  -0.228   0.457   0.035
    1UNL     H5   43   0.002   0.239   0.099
    1UNL     H6   44  -0.285   0.014   0.120
    1UNL     H7   45  -0.346  -0.143  -0.114
    1UNL     H8   46  -0.175  -0.286  -0.186
    1UNL     H9   47  -0.310  -0.382  -0.119
    1UNL    H10   48  -0.083  -0.307   0.030
    1UNL    H11   49  -0.442  -0.304   0.077
    1UNL    H12   50  -0.465  -0.050   0.010
    1UNL    H13   51  -0.385  -0.162   0.294
    1UNL    H14   52  -0.218  -0.375   0.240
    1UNL    H15   53  -0.150  -0.078   0.328
    1UNL    H16   54   0.020  -0.168   0.200
    1UNL    H17   55  -0.142   0.111  -0.148
    1UNL    H18   56  -0.011  -0.118  -0.150
    1UNL    H19   57   0.171  -0.042  -0.325
    1UNL    H20   58   0.316  -0.228  -0.342
    1UNL    H21   59   0.388  -0.096  -0.243
    1UNL    H22   60   0.396  -0.347  -0.116
    1UNL    H23   61   0.230  -0.352  -0.153
    1UNL    H24   62   0.096   0.019   0.127
    1UNL    H25   63   0.273   0.001   0.387
    1UNL    H26   64   0.439  -0.151   0.485
    1UNL    H27   65   0.536  -0.340   0.347
    1UNL    H28   66   0.465  -0.370   0.119
    1UNL    H29   67   0.275   0.107  -0.203
    1UNL    H30   68   0.184   0.367  -0.124
    1UNL    H31   69   0.173   0.321  -0.281
    1UNL    H32   70  -0.059   0.289  -0.276
   0.00000   0.00000   0.00000   0.00000   0.00000   0.00000   0.00000   0.00000   0.00000
Generated with MDTraj, t= 44.0
 70
    1UNL     C1    1  -0.172   0.743  -0.170
    1UNL     O1    2  -0.190   0.611  -0.106
    1UNL     C2    3  -0.093   0.527  -0.155
    1UNL     O2    4  -0.009   0.563  -0.234
    1UNL     C3    5  -0.091   0.395  -0.106
    1UNL     C4    6  -0.167   0.371   0.004
    1UNL     O3    7  -0.167   0.253   0.075
    1UNL     C5    8  -0.062   0.166   0.038
    1UNL     O4    9  -0.066   0.050   0.115
    1UNL     C6   10  -0.185  -0.017   0.101
    1UNL     O5   11  -0.199  -0.084  -0.032
    1UNL     C7   12  -0.298  -0.184  -0.040
    1UNL     C8   13  -0.237  -0.326  -0.072
    1UNL     O6   14  -0.133  -0.363   0.017
    1UNL     C9   15  -0.391  -0.185   0.084
    1UNL     O7   16  -0.500  -0.092   0.085
    1UNL    C10   17  -0.314  -0.196   0.216
    1UNL     O8   18  -0.283  -0.335   0.242
    1UNL    C11   19  -0.185  -0.114   0.222
    1UNL     O9   20  -0.071  -0.199   0.227
    1UNL    C12   21  -0.048   0.135  -0.110
    1UNL    C13   22   0.089   0.068  -0.149
    1UNL    C14   23   0.115  -0.081  -0.133
    1UNL     N1   24   0.163  -0.152  -0.259
    1UNL    C15   25   0.300  -0.209  -0.267
    1UNL    C16   26   0.331  -0.287  -0.132
    1UNL    C17   27   0.287  -0.222  -0.007
    1UNL    C18   28   0.195  -0.123  -0.012
    1UNL     N2   29   0.180  -0.068   0.113
    1UNL    C19   30   0.263  -0.122   0.206
    1UNL    C20   31   0.289  -0.087   0.338
    1UNL    C21   32   0.395  -0.147   0.400
    1UNL    C22   33   0.468  -0.250   0.326
    1UNL    C23   34   0.442  -0.280   0.197
    1UNL    C24   35   0.336  -0.222   0.131
    1UNL    C25   36   0.179   0.155  -0.190
    1UNL    C26   37   0.120   0.289  -0.205
    1UNL    C27   38  -0.031   0.276  -0.185
    1UNL     H1   39  -0.247   0.807  -0.115
    1UNL     H2   40  -0.074   0.789  -0.159
    1UNL     H3   41  -0.199   0.731  -0.275
    1UNL     H4   42  -0.239   0.449   0.040
    1UNL     H5   43   0.032   0.219   0.078
    1UNL     H6   44  -0.284   0.044   0.106
    1UNL     H7   45  -0.362  -0.159  -0.134
    1UNL     H8   46  -0.205  -0.322  -0.174
    1UNL     H9   47  -0.319  -0.401  -0.061
    1UNL    H10   48  -0.125  -0.302   0.086
    1UNL    H11   49  -0.446  -0.282   0.069
    1UNL    H12   50  -0.476   0.002   0.127
    1UNL    H13   51  -0.377  -0.169   0.300
    1UNL    H14   52  -0.225  -0.331   0.323
    1UNL    H15   53  -0.167  -0.055   0.310
    1UNL    H16   54   0.014  -0.150   0.200
    1UNL    H17   55  -0.136   0.079  -0.154
    1UNL    H18   56   0.006  -0.116  -0.124
    1UNL    H19   57   0.156  -0.091  -0.341
    1UNL    H20   58   0.308  -0.279  -0.352
    1UNL    H21   59   0.373  -0.126  -0.285
    1UNL    H22   60   0.439  -0.317  -0.140
    1UNL    H23   61   0.287  -0.389  -0.135
    1UNL    H24   62   0.146   0.025   0.126
    1UNL    H25   63   0.229  -0.016   0.391
    1UNL    H26   64   0.425  -0.127   0.507
    1UNL    H27   65   0.545  -0.303   0.384
    1UNL    H28   66   0.497  -0.353   0.146
    1UNL    H29   67   0.273   0.123  -0.236
    1UNL    H30   68   0.162   0.354  -0.127
    1UNL    H31   69   0.154   0.343  -0.292
    1UNL    H32   70  -0.089   0.268  -0.272
   0.00000   0.00000   0.00000   0.00000   0.00000   0.00000   0.00000   0.00000   0.00000
Generated with MDTraj, t= 45.0
 70
    1UNL     C1    1  -0.157   0.749  -0.129
    1UNL     O1    2  -0.166   0.605  -0.093
    1UNL     C2    3  -0.100   0.523  -0.176
    1UNL     O2    4  -0.038   0.558  -0.274
    1UNL     C3    5  -0.101   0.387  -0.121
    1UNL     C4    6  -0.165   0.369  -0.000
    1UNL     O3    7  -0.177   0.247   0.061
    1UNL     C5    8  -0.071   0.156   0.027
    1UNL     O4    9  -0.066   0.044   0.115
    1UNL     C6   10  -0.182  -0.027   0.102
    1UNL     O5   11  -0.187  -0.103  -0.027
    1UNL     C7   12  -0.308  -0.178  -0.039
    1UNL     C8   13  -0.258  -0.315  -0.089
    1UNL     O6   14  -0.154  -0.368  -0.001
    1UNL     C9   15  -0.400  -0.183   0.078
    1UNL     O7   16  -0.491  -0.075   0.077
    1UNL    C10   17  -0.329  -0.202   0.212
    1UNL     O8   18  -0.312  -0.337   0.252
    1UNL    C11   19  -0.194  -0.129   0.220
    1UNL     O9   20  -0.086  -0.215   0.224
    1UNL    C12   21  -0.043   0.129  -0.124
    1UNL    C13   22   0.095   0.074  -0.149
    1UNL    C14   23   0.113  -0.072  -0.110
    1UNL     N1   24   0.136  -0.174  -0.219
    1UNL    C15   25   0.278  -0.205  -0.242
    1UNL    C16   26   0.327  -0.270  -0.117
    1UNL    C17   27   0.302  -0.185   0.001
    1UNL    C18   28   0.197  -0.100   0.008
    1UNL     N2   29   0.190  -0.044   0.137
    1UNL    C19   30   0.294  -0.093   0.213
    1UNL    C20   31   0.323  -0.094   0.356
    1UNL    C21   32   0.414  -0.186   0.403
    1UNL    C22   33   0.489  -0.270   0.320
    1UNL    C23   34   0.470  -0.271   0.182
    1UNL    C24   35   0.364  -0.187   0.128
    1UNL    C25   36   0.186   0.156  -0.202
    1UNL    C26   37   0.119   0.285  -0.219
    1UNL    C27   38  -0.030   0.271  -0.198
    1UNL     H1   39  -0.267   0.767  -0.159
    1UNL     H2   40  -0.135   0.814  -0.040
    1UNL     H3   41  -0.088   0.764  -0.217
    1UNL     H4   42  -0.219   0.459   0.038
    1UNL     H5   43   0.022   0.215   0.068
    1UNL     H6   44  -0.275   0.044   0.112
    1UNL     H7   45  -0.365  -0.123  -0.124
    1UNL     H8   46  -0.215  -0.302  -0.188
    1UNL     H9   47  -0.341  -0.389  -0.100
    1UNL    H10   48  -0.119  -0.287   0.050
    1UNL    H11   49  -0.468  -0.271   0.065
    1UNL    H12   50  -0.442   0.018   0.085
    1UNL    H13   51  -0.403  -0.162   0.283
    1UNL    H14   52  -0.219  -0.356   0.233
    1UNL    H15   53  -0.181  -0.061   0.299
    1UNL    H16   54  -0.006  -0.161   0.195
    1UNL    H17   55  -0.118   0.068  -0.184
    1UNL    H18   56   0.006  -0.093  -0.075
    1UNL    H19   57   0.106  -0.149  -0.314
    1UNL    H20   58   0.295  -0.271  -0.332
    1UNL    H21   59   0.333  -0.110  -0.252
    1UNL    H22   60   0.434  -0.302  -0.122
    1UNL    H23   61   0.273  -0.368  -0.114
    1UNL    H24   62   0.130   0.030   0.178
    1UNL    H25   63   0.264  -0.026   0.415
    1UNL    H26   64   0.425  -0.195   0.506
    1UNL    H27   65   0.562  -0.335   0.356
    1UNL    H28   66   0.524  -0.334   0.107
    1UNL    H29   67   0.282   0.136  -0.245
    1UNL    H30   68   0.163   0.359  -0.151
    1UNL    H31   69   0.138   0.336  -0.313
    1UNL    H32   70  -0.075   0.259  -0.292
   0.00000   0.00000   0.00000   0.00000   0.00000   0.00000   0.00000   0.00000   0.00000
Generated with MDTraj, t= 46.0
 70
    1UNL     C1    1  -0.115   0.756  -0.165
    1UNL     O1    2  -0.124   0.628  -0.095
    1UNL     C2    3  -0.105   0.522  -0.173
    1UNL     O2    4  -0.065   0.526  -0.287
    1UNL     C3    5  -0.118   0.389  -0.120
    1UNL     C4    6  -0.185   0.376  -0.006
    1UNL     O3    7  -0.204   0.251   0.053
    1UNL     C5    8  -0.082   0.175   0.047
    1UNL     O4    9  -0.079   0.055   0.124
    1UNL     C6   10  -0.185  -0.029   0.097
    1UNL     O5   11  -0.190  -0.096  -0.034
    1UNL     C7   12  -0.309  -0.175  -0.053
    1UNL     C8   13  -0.269  -0.308  -0.115
    1UNL     O6   14  -0.195  -0.389  -0.030
    1UNL     C9   15  -0.397  -0.181   0.074
    1UNL     O7   16  -0.483  -0.066   0.077
    1UNL    C10   17  -0.323  -0.204   0.217
    1UNL     O8   18  -0.300  -0.342   0.256
    1UNL    C11   19  -0.182  -0.135   0.203
    1UNL     O9   20  -0.077  -0.224   0.185
    1UNL    C12   21  -0.055   0.143  -0.102
    1UNL    C13   22   0.080   0.082  -0.124
    1UNL    C14   23   0.105  -0.075  -0.089
    1UNL     N1   24   0.131  -0.172  -0.197
    1UNL    C15   25   0.270  -0.201  -0.241
    1UNL    C16   26   0.356  -0.244  -0.120
    1UNL    C17   27   0.311  -0.193   0.011
    1UNL    C18   28   0.200  -0.110   0.025
    1UNL     N2   29   0.193  -0.059   0.154
    1UNL    C19   30   0.299  -0.115   0.228
    1UNL    C20   31   0.344  -0.107   0.360
    1UNL    C21   32   0.448  -0.181   0.405
    1UNL    C22   33   0.521  -0.264   0.318
    1UNL    C23   34   0.484  -0.276   0.185
    1UNL    C24   35   0.374  -0.200   0.144
    1UNL    C25   36   0.168   0.159  -0.186
    1UNL    C26   37   0.100   0.291  -0.218
    1UNL    C27   38  -0.055   0.271  -0.198
    1UNL     H1   39  -0.132   0.728  -0.274
    1UNL     H2   40  -0.205   0.810  -0.126
    1UNL     H3   41  -0.018   0.808  -0.148
    1UNL     H4   42  -0.220   0.461   0.045
    1UNL     H5   43  -0.005   0.240   0.108
    1UNL     H6   44  -0.288   0.019   0.125
    1UNL     H7   45  -0.361  -0.115  -0.137
    1UNL     H8   46  -0.206  -0.290  -0.202
    1UNL     H9   47  -0.360  -0.368  -0.148
    1UNL    H10   48  -0.145  -0.326   0.028
    1UNL    H11   49  -0.469  -0.263   0.064
    1UNL    H12   50  -0.427   0.021   0.053
    1UNL    H13   51  -0.391  -0.166   0.297
    1UNL    H14   52  -0.205  -0.349   0.279
    1UNL    H15   53  -0.157  -0.095   0.299
    1UNL    H16   54   0.003  -0.163   0.180
    1UNL    H17   55  -0.140   0.077  -0.140
    1UNL    H18   56   0.003  -0.090  -0.042
    1UNL    H19   57   0.076  -0.151  -0.281
    1UNL    H20   58   0.272  -0.283  -0.322
    1UNL    H21   59   0.308  -0.108  -0.281
    1UNL    H22   60   0.460  -0.214  -0.145
    1UNL    H23   61   0.367  -0.357  -0.109
    1UNL    H24   62   0.108  -0.006   0.195
    1UNL    H25   63   0.291  -0.037   0.423
    1UNL    H26   64   0.482  -0.164   0.509
    1UNL    H27   65   0.607  -0.325   0.353
    1UNL    H28   66   0.542  -0.333   0.121
    1UNL    H29   67   0.266   0.120  -0.215
    1UNL    H30   68   0.131   0.377  -0.157
    1UNL    H31   69   0.125   0.318  -0.319
    1UNL    H32   70  -0.095   0.255  -0.295
   0.00000   0.00000   0.00000   0.00000   0.00000   0.00000   0.00000   0.00000   0.00000
Generated with MDTraj, t= 47.0
 70
    1UNL     C1    1  -0.077   0.733  -0.193
    1UNL     O1    2  -0.128   0.617  -0.130
    1UNL     C2    3  -0.099   0.504  -0.196
    1UNL     O2    4  -0.046   0.517  -0.303
    1UNL     C3    5  -0.113   0.383  -0.125
    1UNL     C4    6  -0.189   0.372  -0.009
    1UNL     O3    7  -0.182   0.257   0.070
    1UNL     C5    8  -0.067   0.177   0.058
    1UNL     O4    9  -0.067   0.067   0.146
    1UNL     C6   10  -0.179  -0.023   0.132
    1UNL     O5   11  -0.198  -0.072  -0.009
    1UNL     C7   12  -0.320  -0.147  -0.039
    1UNL     C8   13  -0.265  -0.273  -0.118
    1UNL     O6   14  -0.197  -0.366  -0.041
    1UNL     C9   15  -0.411  -0.194   0.084
    1UNL     O7   16  -0.523  -0.104   0.102
    1UNL    C10   17  -0.323  -0.228   0.208
    1UNL     O8   18  -0.318  -0.367   0.230
    1UNL    C11   19  -0.176  -0.157   0.211
    1UNL     O9   20  -0.068  -0.245   0.168
    1UNL    C12   21  -0.056   0.136  -0.089
    1UNL    C13   22   0.077   0.067  -0.114
    1UNL    C14   23   0.094  -0.075  -0.090
    1UNL     N1   24   0.129  -0.146  -0.218
    1UNL    C15   25   0.273  -0.157  -0.236
    1UNL    C16   26   0.338  -0.244  -0.129
    1UNL    C17   27   0.302  -0.184   0.009
    1UNL    C18   28   0.189  -0.114   0.028
    1UNL     N2   29   0.187  -0.066   0.158
    1UNL    C19   30   0.294  -0.117   0.224
    1UNL    C20   31   0.322  -0.117   0.361
    1UNL    C21   32   0.443  -0.173   0.398
    1UNL    C22   33   0.533  -0.233   0.307
    1UNL    C23   34   0.497  -0.238   0.172
    1UNL    C24   35   0.377  -0.183   0.131
    1UNL    C25   36   0.173   0.143  -0.164
    1UNL    C26   37   0.107   0.279  -0.198
    1UNL    C27   38  -0.045   0.260  -0.182
    1UNL     H1   39   0.019   0.710  -0.242
    1UNL     H2   40  -0.153   0.769  -0.259
    1UNL     H3   41  -0.069   0.801  -0.110
    1UNL     H4   42  -0.261   0.441   0.028
    1UNL     H5   43   0.031   0.224   0.099
    1UNL     H6   44  -0.276   0.039   0.155
    1UNL     H7   45  -0.383  -0.085  -0.109
    1UNL     H8   46  -0.205  -0.238  -0.202
    1UNL     H9   47  -0.355  -0.327  -0.161
    1UNL    H10   48  -0.141  -0.326   0.030
    1UNL    H11   49  -0.466  -0.284   0.056
    1UNL    H12   50  -0.495  -0.040   0.180
    1UNL    H13   51  -0.380  -0.195   0.297
    1UNL    H14   52  -0.279  -0.394   0.141
    1UNL    H15   53  -0.140  -0.135   0.311
    1UNL    H16   54   0.024  -0.207   0.174
    1UNL    H17   55  -0.139   0.065  -0.124
    1UNL    H18   56  -0.012  -0.114  -0.072
    1UNL    H19   57   0.094  -0.083  -0.290
    1UNL    H20   58   0.294  -0.202  -0.341
    1UNL    H21   59   0.318  -0.061  -0.235
    1UNL    H22   60   0.448  -0.253  -0.125
    1UNL    H23   61   0.295  -0.350  -0.133
    1UNL    H24   62   0.111  -0.008   0.193
    1UNL    H25   63   0.255  -0.074   0.433
    1UNL    H26   64   0.463  -0.181   0.502
    1UNL    H27   65   0.625  -0.269   0.346
    1UNL    H28   66   0.562  -0.294   0.102
    1UNL    H29   67   0.275   0.115  -0.186
    1UNL    H30   68   0.132   0.361  -0.126
    1UNL    H31   69   0.123   0.310  -0.300
    1UNL    H32   70  -0.090   0.227  -0.273
   0.00000   0.00000   0.00000   0.00000   0.00000   0.00000   0.00000   0.00000   0.00000
Generated with MDTraj, t= 48.0
 70
    1UNL     C1    1  -0.107   0.732  -0.228
    1UNL     O1    2  -0.132   0.623  -0.132
    1UNL     C2    3  -0.084   0.510  -0.179
    1UNL     O2    4  -0.029   0.507  -0.287
    1UNL     C3    5  -0.088   0.386  -0.103
    1UNL     C4    6  -0.170   0.376   0.005
    1UNL     O3    7  -0.180   0.264   0.080
    1UNL     C5    8  -0.077   0.164   0.064
    1UNL     O4    9  -0.081   0.049   0.151
    1UNL     C6   10  -0.201  -0.020   0.130
    1UNL     O5   11  -0.224  -0.071  -0.002
    1UNL     C7   12  -0.346  -0.149  -0.034
    1UNL     C8   13  -0.299  -0.259  -0.138
    1UNL     O6   14  -0.187  -0.333  -0.097
    1UNL     C9   15  -0.419  -0.203   0.092
    1UNL     O7   16  -0.517  -0.110   0.143
    1UNL    C10   17  -0.327  -0.238   0.214
    1UNL     O8   18  -0.282  -0.371   0.228
    1UNL    C11   19  -0.199  -0.142   0.222
    1UNL     O9   20  -0.080  -0.219   0.182
    1UNL    C12   21  -0.061   0.128  -0.085
    1UNL    C13   22   0.070   0.051  -0.112
    1UNL    C14   23   0.099  -0.093  -0.107
    1UNL     N1   24   0.150  -0.155  -0.237
    1UNL    C15   25   0.292  -0.193  -0.257
    1UNL    C16   26   0.377  -0.235  -0.131
    1UNL    C17   27   0.313  -0.187  -0.000
    1UNL    C18   28   0.192  -0.123   0.013
    1UNL     N2   29   0.173  -0.077   0.137
    1UNL    C19   30   0.279  -0.124   0.214
    1UNL    C20   31   0.319  -0.094   0.353
    1UNL    C21   32   0.444  -0.138   0.393
    1UNL    C22   33   0.532  -0.206   0.308
    1UNL    C23   34   0.489  -0.243   0.182
    1UNL    C24   35   0.367  -0.195   0.130
    1UNL    C25   36   0.173   0.128  -0.151
    1UNL    C26   37   0.127   0.271  -0.167
    1UNL    C27   38  -0.024   0.260  -0.163
    1UNL     H1   39  -0.056   0.805  -0.169
    1UNL     H2   40  -0.042   0.703  -0.305
    1UNL     H3   41  -0.196   0.762  -0.275
    1UNL     H4   42  -0.248   0.457   0.014
    1UNL     H5   43   0.020   0.206   0.105
    1UNL     H6   44  -0.291   0.045   0.166
    1UNL     H7   45  -0.418  -0.079  -0.080
    1UNL     H8   46  -0.274  -0.218  -0.236
    1UNL     H9   47  -0.379  -0.337  -0.163
    1UNL    H10   48  -0.154  -0.286  -0.012
    1UNL    H11   49  -0.478  -0.291   0.066
    1UNL    H12   50  -0.512  -0.022   0.090
    1UNL    H13   51  -0.389  -0.232   0.306
    1UNL    H14   52  -0.193  -0.371   0.191
    1UNL    H15   53  -0.178  -0.106   0.327
    1UNL    H16   54  -0.015  -0.152   0.161
    1UNL    H17   55  -0.161   0.100  -0.136
    1UNL    H18   56   0.002  -0.149  -0.100
    1UNL    H19   57   0.119  -0.085  -0.305
    1UNL    H20   58   0.301  -0.278  -0.336
    1UNL    H21   59   0.347  -0.112  -0.295
    1UNL    H22   60   0.478  -0.191  -0.136
    1UNL    H23   61   0.388  -0.347  -0.108
    1UNL    H24   62   0.103  -0.011   0.160
    1UNL    H25   63   0.246  -0.051   0.419
    1UNL    H26   64   0.473  -0.126   0.495
    1UNL    H27   65   0.630  -0.234   0.344
    1UNL    H28   66   0.561  -0.300   0.126
    1UNL    H29   67   0.265   0.081  -0.178
    1UNL    H30   68   0.164   0.331  -0.080
    1UNL    H31   69   0.150   0.309  -0.267
    1UNL    H32   70  -0.053   0.259  -0.267
   0.00000   0.00000   0.00000   0.00000   0.00000   0.00000   0.00000   0.00000   0.00000
Generated with MDTraj, t= 49.0
 70
    1UNL     C1    1  -0.157   0.715  -0.213
    1UNL     O1    2  -0.149   0.604  -0.119
    1UNL     C2    3  -0.079   0.508  -0.178
    1UNL     O2    4  -0.003   0.533  -0.271
    1UNL     C3    5  -0.084   0.378  -0.112
    1UNL     C4    6  -0.159   0.359   0.002
    1UNL     O3    7  -0.171   0.240   0.077
    1UNL     C5    8  -0.060   0.156   0.054
    1UNL     O4    9  -0.066   0.033   0.130
    1UNL     C6   10  -0.193  -0.031   0.122
    1UNL     O5   11  -0.230  -0.064  -0.007
    1UNL     C7   12  -0.353  -0.138  -0.029
    1UNL     C8   13  -0.316  -0.252  -0.124
    1UNL     O6   14  -0.189  -0.306  -0.107
    1UNL     C9   15  -0.418  -0.186   0.106
    1UNL     O7   16  -0.521  -0.098   0.156
    1UNL    C10   17  -0.325  -0.232   0.219
    1UNL     O8   18  -0.317  -0.374   0.224
    1UNL    C11   19  -0.189  -0.165   0.206
    1UNL     O9   20  -0.089  -0.250   0.154
    1UNL    C12   21  -0.042   0.132  -0.099
    1UNL    C13   22   0.086   0.054  -0.122
    1UNL    C14   23   0.097  -0.089  -0.102
    1UNL     N1   24   0.143  -0.165  -0.227
    1UNL    C15   25   0.284  -0.183  -0.244
    1UNL    C16   26   0.344  -0.263  -0.127
    1UNL    C17   27   0.316  -0.191   0.005
    1UNL    C18   28   0.190  -0.123   0.017
    1UNL     N2   29   0.174  -0.070   0.144
    1UNL    C19   30   0.286  -0.112   0.218
    1UNL    C20   31   0.323  -0.070   0.351
    1UNL    C21   32   0.445  -0.113   0.390
    1UNL    C22   33   0.525  -0.202   0.316
    1UNL    C23   34   0.491  -0.232   0.189
    1UNL    C24   35   0.376  -0.183   0.133
    1UNL    C25   36   0.193   0.133  -0.152
    1UNL    C26   37   0.151   0.272  -0.189
    1UNL    C27   38  -0.008   0.264  -0.178
    1UNL     H1   39  -0.263   0.726  -0.234
    1UNL     H2   40  -0.136   0.804  -0.158
    1UNL     H3   41  -0.091   0.702  -0.297
    1UNL     H4   42  -0.218   0.444   0.040
    1UNL     H5   43   0.030   0.199   0.101
    1UNL     H6   44  -0.273   0.028   0.181
    1UNL     H7   45  -0.424  -0.072  -0.076
    1UNL     H8   46  -0.324  -0.223  -0.229
    1UNL     H9   47  -0.387  -0.341  -0.119
    1UNL    H10   48  -0.156  -0.283  -0.023
    1UNL    H11   49  -0.480  -0.273   0.083
    1UNL    H12   50  -0.490  -0.022   0.209
    1UNL    H13   51  -0.374  -0.214   0.316
    1UNL    H14   52  -0.219  -0.394   0.211
    1UNL    H15   53  -0.151  -0.129   0.308
    1UNL    H16   54  -0.003  -0.209   0.138
    1UNL    H17   55  -0.134   0.075  -0.139
    1UNL    H18   56  -0.003  -0.122  -0.068
    1UNL    H19   57   0.093  -0.120  -0.304
    1UNL    H20   58   0.316  -0.235  -0.343
    1UNL    H21   59   0.326  -0.086  -0.240
    1UNL    H22   60   0.454  -0.285  -0.124
    1UNL    H23   61   0.285  -0.360  -0.120
    1UNL    H24   62   0.098  -0.012   0.171
    1UNL    H25   63   0.249  -0.014   0.407
    1UNL    H26   64   0.478  -0.079   0.491
    1UNL    H27   65   0.619  -0.237   0.360
    1UNL    H28   66   0.564  -0.286   0.135
    1UNL    H29   67   0.299   0.104  -0.152
    1UNL    H30   68   0.186   0.348  -0.113
    1UNL    H31   69   0.185   0.286  -0.293
    1UNL    H32   70  -0.049   0.254  -0.277
   0.00000   0.00000   0.00000   0.00000   0.00000   0.00000   0.00000   0.00000   0.00000
Generated with MDTraj, t= 50.0
 70
    1UNL     C1    1  -0.173   0.729  -0.172
    1UNL     O1    2  -0.200   0.590  -0.127
    1UNL     C2    3  -0.096   0.507  -0.167
    1UNL     O2    4  -0.015   0.551  -0.248
    1UNL     C3    5  -0.086   0.378  -0.108
    1UNL     C4    6  -0.177   0.358  -0.007
    1UNL     O3    7  -0.178   0.242   0.074
    1UNL     C5    8  -0.065   0.161   0.045
    1UNL     O4    9  -0.066   0.046   0.127
    1UNL     C6   10  -0.193  -0.023   0.106
    1UNL     O5   11  -0.223  -0.058  -0.030
    1UNL     C7   12  -0.350  -0.126  -0.038
    1UNL     C8   13  -0.342  -0.249  -0.124
    1UNL     O6   14  -0.225  -0.323  -0.094
    1UNL     C9   15  -0.411  -0.167   0.105
    1UNL     O7   16  -0.492  -0.056   0.150
    1UNL    C10   17  -0.317  -0.220   0.207
    1UNL     O8   18  -0.302  -0.358   0.189
    1UNL    C11   19  -0.179  -0.149   0.191
    1UNL     O9   20  -0.082  -0.239   0.140
    1UNL    C12   21  -0.038   0.127  -0.102
    1UNL    C13   22   0.091   0.052  -0.127
    1UNL    C14   23   0.111  -0.093  -0.098
    1UNL     N1   24   0.159  -0.201  -0.207
    1UNL    C15   25   0.299  -0.234  -0.225
    1UNL    C16   26   0.360  -0.289  -0.094
    1UNL    C17   27   0.316  -0.194   0.013
    1UNL    C18   28   0.200  -0.124   0.022
    1UNL     N2   29   0.177  -0.080   0.155
    1UNL    C19   30   0.293  -0.117   0.224
    1UNL    C20   31   0.341  -0.075   0.348
    1UNL    C21   32   0.463  -0.120   0.389
    1UNL    C22   33   0.544  -0.207   0.316
    1UNL    C23   34   0.501  -0.239   0.192
    1UNL    C24   35   0.376  -0.192   0.140
    1UNL    C25   36   0.185   0.134  -0.176
    1UNL    C26   37   0.131   0.269  -0.191
    1UNL    C27   38  -0.022   0.260  -0.179
    1UNL     H1   39  -0.089   0.741  -0.246
    1UNL     H2   40  -0.263   0.760  -0.232
    1UNL     H3   41  -0.151   0.794  -0.083
    1UNL     H4   42  -0.253   0.426   0.015
    1UNL     H5   43   0.020   0.211   0.084
    1UNL     H6   44  -0.262   0.056   0.150
    1UNL     H7   45  -0.424  -0.068  -0.086
    1UNL     H8   46  -0.331  -0.218  -0.225
    1UNL     H9   47  -0.434  -0.312  -0.126
    1UNL    H10   48  -0.169  -0.291  -0.014
    1UNL    H11   49  -0.482  -0.247   0.082
    1UNL    H12   50  -0.439   0.020   0.151
    1UNL    H13   51  -0.364  -0.208   0.306
    1UNL    H14   52  -0.212  -0.382   0.217
    1UNL    H15   53  -0.131  -0.112   0.291
    1UNL    H16   54   0.002  -0.187   0.153
    1UNL    H17   55  -0.123   0.061  -0.142
    1UNL    H18   56   0.011  -0.127  -0.069
    1UNL    H19   57   0.107  -0.202  -0.295
    1UNL    H20   58   0.309  -0.313  -0.305
    1UNL    H21   59   0.352  -0.147  -0.255
    1UNL    H22   60   0.473  -0.287  -0.098
    1UNL    H23   61   0.326  -0.391  -0.058
    1UNL    H24   62   0.099  -0.022   0.196
    1UNL    H25   63   0.279  -0.007   0.404
    1UNL    H26   64   0.494  -0.098   0.485
    1UNL    H27   65   0.641  -0.225   0.356
    1UNL    H28   66   0.570  -0.290   0.121
    1UNL    H29   67   0.285   0.100  -0.185
    1UNL    H30   68   0.180   0.328  -0.108
    1UNL    H31   69   0.166   0.307  -0.288
    1UNL    H32   70  -0.064   0.254  -0.278
   0.00000   0.00000   0.00000   0.00000   0.00000   0.00000   0.00000   0.00000   0.00000
Generated with MDTraj, t= 51.0
 70
    1UNL     C1    1  -0.178   0.708  -0.172
    1UNL     O1    2  -0.180   0.580  -0.112
    1UNL     C2    3  -0.097   0.498  -0.172
    1UNL     O2    4  -0.019   0.530  -0.259
    1UNL     C3    5  -0.101   0.369  -0.117
    1UNL     C4    6  -0.180   0.346  -0.007
    1UNL     O3    7  -0.186   0.225   0.056
    1UNL     C5    8  -0.066   0.151   0.040
    1UNL     O4    9  -0.056   0.035   0.132
    1UNL     C6   10  -0.175  -0.040   0.120
    1UNL     O5   11  -0.200  -0.077  -0.013
    1UNL     C7   12  -0.337  -0.116  -0.044
    1UNL     C8   13  -0.338  -0.221  -0.148
    1UNL     O6   14  -0.260  -0.328  -0.095
    1UNL     C9   15  -0.409  -0.160   0.093
    1UNL     O7   16  -0.470  -0.035   0.141
    1UNL    C10   17  -0.325  -0.224   0.203
    1UNL     O8   18  -0.312  -0.368   0.180
    1UNL    C11   19  -0.182  -0.151   0.216
    1UNL     O9   20  -0.076  -0.244   0.186
    1UNL    C12   21  -0.041   0.124  -0.107
    1UNL    C13   22   0.095   0.062  -0.123
    1UNL    C14   23   0.117  -0.084  -0.082
    1UNL     N1   24   0.138  -0.174  -0.210
    1UNL    C15   25   0.280  -0.202  -0.234
    1UNL    C16   26   0.342  -0.280  -0.108
    1UNL    C17   27   0.325  -0.193   0.011
    1UNL    C18   28   0.214  -0.109   0.026
    1UNL     N2   29   0.198  -0.059   0.153
    1UNL    C19   30   0.306  -0.100   0.224
    1UNL    C20   31   0.354  -0.062   0.351
    1UNL    C21   32   0.460  -0.130   0.403
    1UNL    C22   33   0.529  -0.228   0.326
    1UNL    C23   34   0.496  -0.257   0.194
    1UNL    C24   35   0.385  -0.187   0.137
    1UNL    C25   36   0.187   0.146  -0.176
    1UNL    C26   37   0.120   0.276  -0.213
    1UNL    C27   38  -0.033   0.258  -0.187
    1UNL     H1   39  -0.162   0.796  -0.102
    1UNL     H2   40  -0.106   0.710  -0.259
    1UNL     H3   41  -0.287   0.720  -0.205
    1UNL     H4   42  -0.243   0.425   0.027
    1UNL     H5   43   0.013   0.209   0.074
    1UNL     H6   44  -0.257   0.032   0.156
    1UNL     H7   45  -0.381  -0.027  -0.074
    1UNL     H8   46  -0.298  -0.190  -0.240
    1UNL     H9   47  -0.439  -0.257  -0.173
    1UNL    H10   48  -0.203  -0.296  -0.010
    1UNL    H11   49  -0.496  -0.224   0.072
    1UNL    H12   50  -0.441   0.047   0.114
    1UNL    H13   51  -0.384  -0.222   0.296
    1UNL    H14   52  -0.222  -0.398   0.213
    1UNL    H15   53  -0.161  -0.120   0.327
    1UNL    H16   54   0.004  -0.188   0.162
    1UNL    H17   55  -0.120   0.055  -0.153
    1UNL    H18   56   0.020  -0.122  -0.055
    1UNL    H19   57   0.112  -0.120  -0.292
    1UNL    H20   58   0.303  -0.246  -0.335
    1UNL    H21   59   0.322  -0.105  -0.234
    1UNL    H22   60   0.451  -0.310  -0.120
    1UNL    H23   61   0.289  -0.377  -0.091
    1UNL    H24   62   0.119   0.002   0.197
    1UNL    H25   63   0.301  -0.000   0.421
    1UNL    H26   64   0.489  -0.114   0.511
    1UNL    H27   65   0.610  -0.286   0.374
    1UNL    H28   66   0.554  -0.322   0.138
    1UNL    H29   67   0.294   0.122  -0.176
    1UNL    H30   68   0.164   0.352  -0.144
    1UNL    H31   69   0.149   0.312  -0.314
    1UNL    H32   70  -0.083   0.255  -0.283
   0.00000   0.00000   0.00000   0.00000   0.00000   0.00000   0.00000   0.00000   0.00000
Generated with MDTraj, t= 52.0
 70
    1UNL     C1    1  -0.154   0.730  -0.198
    1UNL     O1    2  -0.170   0.612  -0.123
    1UNL     C2    3  -0.116   0.503  -0.181
    1UNL     O2    4  -0.055   0.517  -0.287
    1UNL     C3    5  -0.114   0.373  -0.114
    1UNL     C4    6  -0.176   0.359   0.006
    1UNL     O3    7  -0.181   0.245   0.080
    1UNL     C5    8  -0.062   0.164   0.049
    1UNL     O4    9  -0.051   0.044   0.130
    1UNL     C6   10  -0.172  -0.027   0.124
    1UNL     O5   11  -0.193  -0.089  -0.003
    1UNL     C7   12  -0.337  -0.120  -0.036
    1UNL     C8   13  -0.339  -0.229  -0.139
    1UNL     O6   14  -0.264  -0.348  -0.110
    1UNL     C9   15  -0.418  -0.165   0.092
    1UNL     O7   16  -0.498  -0.054   0.133
    1UNL    C10   17  -0.313  -0.221   0.192
    1UNL     O8   18  -0.285  -0.362   0.167
    1UNL    C11   19  -0.182  -0.142   0.228
    1UNL     O9   20  -0.065  -0.224   0.212
    1UNL    C12   21  -0.052   0.129  -0.098
    1UNL    C13   22   0.077   0.057  -0.122
    1UNL    C14   23   0.112  -0.085  -0.094
    1UNL     N1   24   0.160  -0.167  -0.217
    1UNL    C15   25   0.298  -0.199  -0.232
    1UNL    C16   26   0.375  -0.256  -0.109
    1UNL    C17   27   0.321  -0.198   0.010
    1UNL    C18   28   0.208  -0.114   0.020
    1UNL     N2   29   0.198  -0.061   0.149
    1UNL    C19   30   0.303  -0.115   0.224
    1UNL    C20   31   0.346  -0.088   0.356
    1UNL    C21   32   0.459  -0.157   0.406
    1UNL    C22   33   0.530  -0.249   0.328
    1UNL    C23   34   0.496  -0.269   0.197
    1UNL    C24   35   0.381  -0.198   0.140
    1UNL    C25   36   0.165   0.137  -0.182
    1UNL    C26   37   0.113   0.275  -0.188
    1UNL    C27   38  -0.040   0.262  -0.183
    1UNL     H1   39  -0.251   0.782  -0.201
    1UNL     H2   40  -0.070   0.792  -0.165
    1UNL     H3   41  -0.141   0.704  -0.307
    1UNL     H4   42  -0.229   0.449   0.048
    1UNL     H5   43   0.023   0.216   0.076
    1UNL     H6   44  -0.254   0.048   0.152
    1UNL     H7   45  -0.376  -0.031  -0.074
    1UNL     H8   46  -0.304  -0.196  -0.233
    1UNL     H9   47  -0.442  -0.258  -0.160
    1UNL    H10   48  -0.277  -0.379  -0.024
    1UNL    H11   49  -0.483  -0.246   0.053
    1UNL    H12   50  -0.439   0.014   0.148
    1UNL    H13   51  -0.367  -0.224   0.289
    1UNL    H14   52  -0.201  -0.380   0.212
    1UNL    H15   53  -0.180  -0.082   0.329
    1UNL    H16   54   0.025  -0.179   0.210
    1UNL    H17   55  -0.139   0.065  -0.139
    1UNL    H18   56   0.016  -0.120  -0.063
    1UNL    H19   57   0.130  -0.117  -0.301
    1UNL    H20   58   0.300  -0.262  -0.322
    1UNL    H21   59   0.334  -0.100  -0.257
    1UNL    H22   60   0.489  -0.248  -0.127
    1UNL    H23   61   0.361  -0.367  -0.112
    1UNL    H24   62   0.143   0.024   0.177
    1UNL    H25   63   0.284  -0.028   0.423
    1UNL    H26   64   0.479  -0.149   0.508
    1UNL    H27   65   0.613  -0.301   0.364
    1UNL    H28   66   0.548  -0.343   0.134
    1UNL    H29   67   0.268   0.110  -0.193
    1UNL    H30   68   0.141   0.339  -0.102
    1UNL    H31   69   0.154   0.331  -0.276
    1UNL    H32   70  -0.091   0.239  -0.275
   0.00000   0.00000   0.00000   0.00000   0.00000   0.00000   0.00000   0.00000   0.00000
Generated with MDTraj, t= 53.0
 70
    1UNL     C1    1  -0.153   0.723  -0.204
    1UNL     O1    2  -0.161   0.607  -0.129
    1UNL     C2    3  -0.114   0.496  -0.192
    1UNL     O2    4  -0.072   0.502  -0.307
    1UNL     C3    5  -0.101   0.373  -0.119
    1UNL     C4    6  -0.163   0.372   0.000
    1UNL     O3    7  -0.151   0.267   0.081
    1UNL     C5    8  -0.043   0.171   0.056
    1UNL     O4    9  -0.060   0.054   0.141
    1UNL     C6   10  -0.181  -0.020   0.127
    1UNL     O5   11  -0.196  -0.078  -0.004
    1UNL     C7   12  -0.334  -0.132  -0.029
    1UNL     C8   13  -0.328  -0.225  -0.144
    1UNL     O6   14  -0.270  -0.348  -0.130
    1UNL     C9   15  -0.407  -0.191   0.101
    1UNL     O7   16  -0.516  -0.107   0.144
    1UNL    C10   17  -0.305  -0.237   0.206
    1UNL     O8   18  -0.250  -0.368   0.171
    1UNL    C11   19  -0.197  -0.129   0.244
    1UNL     O9   20  -0.069  -0.193   0.255
    1UNL    C12   21  -0.033   0.135  -0.086
    1UNL    C13   22   0.100   0.071  -0.112
    1UNL    C14   23   0.107  -0.078  -0.093
    1UNL     N1   24   0.154  -0.135  -0.226
    1UNL    C15   25   0.293  -0.182  -0.239
    1UNL    C16   26   0.360  -0.249  -0.113
    1UNL    C17   27   0.309  -0.196   0.011
    1UNL    C18   28   0.196  -0.125   0.021
    1UNL     N2   29   0.190  -0.069   0.148
    1UNL    C19   30   0.293  -0.126   0.225
    1UNL    C20   31   0.309  -0.125   0.359
    1UNL    C21   32   0.424  -0.188   0.403
    1UNL    C22   33   0.521  -0.241   0.316
    1UNL    C23   34   0.493  -0.251   0.184
    1UNL    C24   35   0.378  -0.197   0.133
    1UNL    C25   36   0.188   0.147  -0.179
    1UNL    C26   37   0.124   0.276  -0.213
    1UNL    C27   38  -0.030   0.259  -0.181
    1UNL     H1   39  -0.241   0.779  -0.184
    1UNL     H2   40  -0.065   0.772  -0.175
    1UNL     H3   41  -0.148   0.710  -0.311
    1UNL     H4   42  -0.243   0.443   0.025
    1UNL     H5   43   0.041   0.217   0.092
    1UNL     H6   44  -0.263   0.058   0.142
    1UNL     H7   45  -0.384  -0.042  -0.057
    1UNL     H8   46  -0.278  -0.179  -0.225
    1UNL     H9   47  -0.430  -0.249  -0.178
    1UNL    H10   48  -0.279  -0.389  -0.032
    1UNL    H11   49  -0.467  -0.276   0.064
    1UNL    H12   50  -0.489  -0.044   0.206
    1UNL    H13   51  -0.368  -0.257   0.296
    1UNL    H14   52  -0.162  -0.378   0.217
    1UNL    H15   53  -0.232  -0.073   0.336
    1UNL    H16   54   0.011  -0.143   0.219
    1UNL    H17   55  -0.127   0.080  -0.118
    1UNL    H18   56   0.009  -0.107  -0.064
    1UNL    H19   57   0.146  -0.067  -0.303
    1UNL    H20   58   0.287  -0.248  -0.323
    1UNL    H21   59   0.345  -0.095  -0.277
    1UNL    H22   60   0.475  -0.237  -0.123
    1UNL    H23   61   0.353  -0.361  -0.117
    1UNL    H24   62   0.130   0.005   0.175
    1UNL    H25   63   0.236  -0.080   0.422
    1UNL    H26   64   0.448  -0.198   0.511
    1UNL    H27   65   0.625  -0.264   0.350
    1UNL    H28   66   0.558  -0.290   0.108
    1UNL    H29   67   0.286   0.110  -0.202
    1UNL    H30   68   0.173   0.356  -0.154
    1UNL    H31   69   0.139   0.313  -0.318
    1UNL    H32   70  -0.078   0.231  -0.273
   0.00000   0.00000   0.00000   0.00000   0.00000   0.00000   0.00000   0.00000   0.00000
Generated with MDTraj, t= 54.0
 70
    1UNL     C1    1  -0.179   0.725  -0.239
    1UNL     O1    2  -0.150   0.631  -0.135
    1UNL     C2    3  -0.104   0.506  -0.182
    1UNL     O2    4  -0.058   0.512  -0.296
    1UNL     C3    5  -0.094   0.379  -0.111
    1UNL     C4    6  -0.164   0.366   0.008
    1UNL     O3    7  -0.164   0.257   0.084
    1UNL     C5    8  -0.064   0.163   0.045
    1UNL     O4    9  -0.064   0.055   0.136
    1UNL     C6   10  -0.178  -0.023   0.131
    1UNL     O5   11  -0.193  -0.078   0.001
    1UNL     C7   12  -0.330  -0.132  -0.020
    1UNL     C8   13  -0.323  -0.207  -0.149
    1UNL     O6   14  -0.243  -0.321  -0.131
    1UNL     C9   15  -0.399  -0.202   0.104
    1UNL     O7   16  -0.500  -0.117   0.155
    1UNL    C10   17  -0.294  -0.242   0.203
    1UNL     O8   18  -0.220  -0.359   0.156
    1UNL    C11   19  -0.202  -0.124   0.247
    1UNL     O9   20  -0.083  -0.171   0.297
    1UNL    C12   21  -0.056   0.134  -0.102
    1UNL    C13   22   0.076   0.056  -0.120
    1UNL    C14   23   0.108  -0.088  -0.097
    1UNL     N1   24   0.152  -0.164  -0.218
    1UNL    C15   25   0.301  -0.169  -0.248
    1UNL    C16   26   0.373  -0.247  -0.128
    1UNL    C17   27   0.313  -0.208   0.002
    1UNL    C18   28   0.204  -0.120   0.014
    1UNL     N2   29   0.188  -0.068   0.139
    1UNL    C19   30   0.295  -0.119   0.212
    1UNL    C20   31   0.312  -0.116   0.354
    1UNL    C21   32   0.416  -0.189   0.410
    1UNL    C22   33   0.502  -0.268   0.326
    1UNL    C23   34   0.482  -0.277   0.192
    1UNL    C24   35   0.378  -0.198   0.129
    1UNL    C25   36   0.168   0.134  -0.171
    1UNL    C26   37   0.119   0.274  -0.192
    1UNL    C27   38  -0.035   0.268  -0.185
    1UNL     H1   39  -0.167   0.821  -0.198
    1UNL     H2   40  -0.114   0.707  -0.318
    1UNL     H3   41  -0.279   0.721  -0.277
    1UNL     H4   42  -0.221   0.446   0.042
    1UNL     H5   43   0.026   0.208   0.075
    1UNL     H6   44  -0.255   0.058   0.134
    1UNL     H7   45  -0.390  -0.042  -0.033
    1UNL     H8   46  -0.271  -0.148  -0.221
    1UNL     H9   47  -0.424  -0.236  -0.187
    1UNL    H10   48  -0.220  -0.334  -0.043
    1UNL    H11   49  -0.449  -0.290   0.061
    1UNL    H12   50  -0.457  -0.042   0.199
    1UNL    H13   51  -0.347  -0.279   0.296
    1UNL    H14   52  -0.141  -0.371   0.214
    1UNL    H15   53  -0.251  -0.082   0.339
    1UNL    H16   54  -0.002  -0.132   0.256
    1UNL    H17   55  -0.142   0.073  -0.143
    1UNL    H18   56   0.016  -0.141  -0.073
    1UNL    H19   57   0.116  -0.135  -0.309
    1UNL    H20   58   0.308  -0.219  -0.342
    1UNL    H21   59   0.339  -0.068  -0.270
    1UNL    H22   60   0.488  -0.235  -0.122
    1UNL    H23   61   0.365  -0.358  -0.142
    1UNL    H24   62   0.127   0.009   0.150
    1UNL    H25   63   0.239  -0.068   0.422
    1UNL    H26   64   0.431  -0.183   0.516
    1UNL    H27   65   0.585  -0.320   0.366
    1UNL    H28   66   0.550  -0.334   0.132
    1UNL    H29   67   0.271   0.111  -0.199
    1UNL    H30   68   0.154   0.340  -0.112
    1UNL    H31   69   0.163   0.324  -0.284
    1UNL    H32   70  -0.069   0.263  -0.286
   0.00000   0.00000   0.00000   0.00000   0.00000   0.00000   0.00000   0.00000   0.00000
Generated with MDTraj, t= 55.0
 70
    1UNL     C1    1  -0.169   0.714  -0.204
    1UNL     O1    2  -0.189   0.589  -0.146
    1UNL     C2    3  -0.113   0.490  -0.193
    1UNL     O2    4  -0.030   0.509  -0.281
    1UNL     C3    5  -0.117   0.370  -0.120
    1UNL     C4    6  -0.181   0.374  -0.001
    1UNL     O3    7  -0.176   0.268   0.082
    1UNL     C5    8  -0.060   0.175   0.060
    1UNL     O4    9  -0.065   0.060   0.145
    1UNL     C6   10  -0.188  -0.008   0.138
    1UNL     O5   11  -0.192  -0.077   0.007
    1UNL     C7   12  -0.321  -0.127  -0.028
    1UNL     C8   13  -0.329  -0.215  -0.146
    1UNL     O6   14  -0.222  -0.312  -0.144
    1UNL     C9   15  -0.385  -0.202   0.094
    1UNL     O7   16  -0.482  -0.120   0.156
    1UNL    C10   17  -0.274  -0.239   0.191
    1UNL     O8   18  -0.179  -0.326   0.125
    1UNL    C11   19  -0.196  -0.117   0.253
    1UNL     O9   20  -0.070  -0.157   0.297
    1UNL    C12   21  -0.044   0.138  -0.089
    1UNL    C13   22   0.094   0.067  -0.122
    1UNL    C14   23   0.105  -0.083  -0.095
    1UNL     N1   24   0.151  -0.156  -0.217
    1UNL    C15   25   0.286  -0.206  -0.241
    1UNL    C16   26   0.344  -0.270  -0.117
    1UNL    C17   27   0.301  -0.205   0.008
    1UNL    C18   28   0.197  -0.112   0.016
    1UNL     N2   29   0.188  -0.067   0.143
    1UNL    C19   30   0.281  -0.130   0.221
    1UNL    C20   31   0.314  -0.109   0.355
    1UNL    C21   32   0.420  -0.180   0.401
    1UNL    C22   33   0.492  -0.269   0.318
    1UNL    C23   34   0.462  -0.290   0.184
    1UNL    C24   35   0.352  -0.217   0.136
    1UNL    C25   36   0.179   0.147  -0.180
    1UNL    C26   37   0.116   0.280  -0.205
    1UNL    C27   38  -0.037   0.262  -0.181
    1UNL     H1   39  -0.116   0.775  -0.131
    1UNL     H2   40  -0.122   0.701  -0.299
    1UNL     H3   41  -0.267   0.763  -0.219
    1UNL     H4   42  -0.234   0.466   0.024
    1UNL     H5   43   0.028   0.221   0.096
    1UNL     H6   44  -0.258   0.077   0.137
    1UNL     H7   45  -0.382  -0.034  -0.035
    1UNL     H8   46  -0.324  -0.162  -0.240
    1UNL     H9   47  -0.425  -0.276  -0.145
    1UNL    H10   48  -0.177  -0.314  -0.048
    1UNL    H11   49  -0.438  -0.291   0.058
    1UNL    H12   50  -0.447  -0.026   0.172
    1UNL    H13   51  -0.322  -0.297   0.272
    1UNL    H14   52  -0.108  -0.354   0.186
    1UNL    H15   53  -0.237  -0.087   0.349
    1UNL    H16   54  -0.018  -0.152   0.215
    1UNL    H17   55  -0.120   0.064  -0.128
    1UNL    H18   56   0.002  -0.114  -0.070
    1UNL    H19   57   0.126  -0.098  -0.298
    1UNL    H20   58   0.286  -0.271  -0.324
    1UNL    H21   59   0.346  -0.116  -0.269
    1UNL    H22   60   0.458  -0.273  -0.122
    1UNL    H23   61   0.304  -0.374  -0.103
    1UNL    H24   62   0.110   0.002   0.158
    1UNL    H25   63   0.261  -0.041   0.416
    1UNL    H26   64   0.449  -0.182   0.504
    1UNL    H27   65   0.583  -0.313   0.360
    1UNL    H28   66   0.523  -0.351   0.115
    1UNL    H29   67   0.276   0.113  -0.204
    1UNL    H30   68   0.157   0.358  -0.140
    1UNL    H31   69   0.140   0.304  -0.313
    1UNL    H32   70  -0.081   0.247  -0.277
   0.00000   0.00000   0.00000   0.00000   0.00000   0.00000   0.00000   0.00000   0.00000
Generated with MDTraj, t= 56.0
 70
    1UNL     C1    1  -0.184   0.731  -0.204
    1UNL     O1    2  -0.201   0.605  -0.144
    1UNL     C2    3  -0.115   0.512  -0.186
    1UNL     O2    4  -0.040   0.535  -0.279
    1UNL     C3    5  -0.103   0.384  -0.122
    1UNL     C4    6  -0.185   0.374  -0.013
    1UNL     O3    7  -0.191   0.261   0.062
    1UNL     C5    8  -0.070   0.174   0.046
    1UNL     O4    9  -0.057   0.073   0.141
    1UNL     C6   10  -0.169  -0.011   0.133
    1UNL     O5   11  -0.176  -0.076   0.006
    1UNL     C7   12  -0.312  -0.117  -0.022
    1UNL     C8   13  -0.320  -0.189  -0.151
    1UNL     O6   14  -0.220  -0.291  -0.151
    1UNL     C9   15  -0.371  -0.214   0.090
    1UNL     O7   16  -0.486  -0.156   0.147
    1UNL    C10   17  -0.260  -0.246   0.195
    1UNL     O8   18  -0.169  -0.346   0.139
    1UNL    C11   19  -0.175  -0.119   0.246
    1UNL     O9   20  -0.051  -0.165   0.288
    1UNL    C12   21  -0.049   0.140  -0.106
    1UNL    C13   22   0.082   0.066  -0.124
    1UNL    C14   23   0.099  -0.078  -0.096
    1UNL     N1   24   0.136  -0.165  -0.214
    1UNL    C15   25   0.272  -0.221  -0.213
    1UNL    C16   26   0.298  -0.305  -0.094
    1UNL    C17   27   0.281  -0.218   0.022
    1UNL    C18   28   0.194  -0.117   0.019
    1UNL     N2   29   0.190  -0.059   0.141
    1UNL    C19   30   0.284  -0.125   0.224
    1UNL    C20   31   0.337  -0.093   0.348
    1UNL    C21   32   0.432  -0.179   0.398
    1UNL    C22   33   0.491  -0.284   0.327
    1UNL    C23   34   0.454  -0.303   0.199
    1UNL    C24   35   0.349  -0.226   0.149
    1UNL    C25   36   0.174   0.142  -0.175
    1UNL    C26   37   0.126   0.281  -0.203
    1UNL    C27   38  -0.030   0.268  -0.198
    1UNL     H1   39  -0.074   0.752  -0.212
    1UNL     H2   40  -0.233   0.724  -0.304
    1UNL     H3   41  -0.229   0.819  -0.145
    1UNL     H4   42  -0.269   0.448  -0.000
    1UNL     H5   43   0.009   0.237   0.083
    1UNL     H6   44  -0.248   0.061   0.141
    1UNL     H7   45  -0.379  -0.025  -0.025
    1UNL     H8   46  -0.296  -0.128  -0.238
    1UNL     H9   47  -0.419  -0.243  -0.172
    1UNL    H10   48  -0.188  -0.300  -0.065
    1UNL    H11   49  -0.399  -0.306   0.035
    1UNL    H12   50  -0.469  -0.053   0.163
    1UNL    H13   51  -0.318  -0.297   0.273
    1UNL    H14   52  -0.094  -0.366   0.202
    1UNL    H15   53  -0.218  -0.081   0.335
    1UNL    H16   54   0.013  -0.122   0.227
    1UNL    H17   55  -0.129   0.076  -0.148
    1UNL    H18   56   0.000  -0.114  -0.058
    1UNL    H19   57   0.114  -0.107  -0.295
    1UNL    H20   58   0.280  -0.279  -0.300
    1UNL    H21   59   0.345  -0.139  -0.214
    1UNL    H22   60   0.403  -0.349  -0.094
    1UNL    H23   61   0.214  -0.382  -0.089
    1UNL    H24   62   0.178   0.047   0.145
    1UNL    H25   63   0.290  -0.015   0.410
    1UNL    H26   64   0.463  -0.164   0.504
    1UNL    H27   65   0.561  -0.349   0.379
    1UNL    H28   66   0.500  -0.377   0.142
    1UNL    H29   67   0.273   0.102  -0.202
    1UNL    H30   68   0.155   0.339  -0.114
    1UNL    H31   69   0.158   0.328  -0.300
    1UNL    H32   70  -0.080   0.262  -0.291
   0.00000   0.00000   0.00000   0.00000   0.00000   0.00000   0.00000   0.00000   0.00000
Generated with MDTraj, t= 57.0
 70
    1UNL     C1    1  -0.198   0.718  -0.219
    1UNL     O1    2  -0.163   0.619  -0.126
    1UNL     C2    3  -0.104   0.513  -0.184
    1UNL     O2    4  -0.048   0.528  -0.291
    1UNL     C3    5  -0.102   0.393  -0.111
    1UNL     C4    6  -0.179   0.375   0.003
    1UNL     O3    7  -0.181   0.255   0.072
    1UNL     C5    8  -0.061   0.176   0.049
    1UNL     O4    9  -0.071   0.072   0.143
    1UNL     C6   10  -0.182  -0.012   0.120
    1UNL     O5   11  -0.194  -0.063  -0.008
    1UNL     C7   12  -0.323  -0.128  -0.025
    1UNL     C8   13  -0.307  -0.198  -0.159
    1UNL     O6   14  -0.216  -0.299  -0.153
    1UNL     C9   15  -0.366  -0.224   0.095
    1UNL     O7   16  -0.476  -0.165   0.163
    1UNL    C10   17  -0.246  -0.263   0.178
    1UNL     O8   18  -0.157  -0.358   0.123
    1UNL    C11   19  -0.174  -0.136   0.224
    1UNL     O9   20  -0.045  -0.170   0.265
    1UNL    C12   21  -0.051   0.146  -0.108
    1UNL    C13   22   0.082   0.072  -0.118
    1UNL    C14   23   0.099  -0.075  -0.083
    1UNL     N1   24   0.123  -0.160  -0.206
    1UNL    C15   25   0.246  -0.244  -0.225
    1UNL    C16   26   0.273  -0.320  -0.090
    1UNL    C17   27   0.267  -0.226   0.027
    1UNL    C18   28   0.198  -0.105   0.017
    1UNL     N2   29   0.210  -0.039   0.132
    1UNL    C19   30   0.301  -0.102   0.214
    1UNL    C20   31   0.368  -0.063   0.335
    1UNL    C21   32   0.445  -0.154   0.399
    1UNL    C22   33   0.458  -0.282   0.345
    1UNL    C23   34   0.414  -0.319   0.222
    1UNL    C24   35   0.338  -0.225   0.152
    1UNL    C25   36   0.180   0.152  -0.158
    1UNL    C26   37   0.127   0.291  -0.197
    1UNL    C27   38  -0.029   0.280  -0.186
    1UNL     H1   39  -0.104   0.748  -0.275
    1UNL     H2   40  -0.277   0.671  -0.283
    1UNL     H3   41  -0.242   0.814  -0.174
    1UNL     H4   42  -0.256   0.446   0.029
    1UNL     H5   43   0.025   0.235   0.087
    1UNL     H6   44  -0.265   0.047   0.145
    1UNL     H7   45  -0.407  -0.050  -0.037
    1UNL     H8   46  -0.266  -0.133  -0.238
    1UNL     H9   47  -0.402  -0.252  -0.194
    1UNL    H10   48  -0.180  -0.327  -0.056
    1UNL    H11   49  -0.400  -0.316   0.046
    1UNL    H12   50  -0.458  -0.061   0.184
    1UNL    H13   51  -0.281  -0.313   0.268
    1UNL    H14   52  -0.076  -0.353   0.176
    1UNL    H15   53  -0.224  -0.105   0.311
    1UNL    H16   54   0.017  -0.119   0.205
    1UNL    H17   55  -0.135   0.093  -0.156
    1UNL    H18   56  -0.000  -0.113  -0.043
    1UNL    H19   57   0.134  -0.088  -0.278
    1UNL    H20   58   0.217  -0.319  -0.291
    1UNL    H21   59   0.335  -0.193  -0.265
    1UNL    H22   60   0.382  -0.352  -0.095
    1UNL    H23   61   0.190  -0.397  -0.068
    1UNL    H24   62   0.149   0.036   0.169
    1UNL    H25   63   0.357   0.036   0.372
    1UNL    H26   64   0.496  -0.122   0.484
    1UNL    H27   65   0.518  -0.352   0.396
    1UNL    H28   66   0.435  -0.423   0.187
    1UNL    H29   67   0.284   0.129  -0.168
    1UNL    H30   68   0.155   0.369  -0.124
    1UNL    H31   69   0.159   0.324  -0.299
    1UNL    H32   70  -0.073   0.283  -0.282
   0.00000   0.00000   0.00000   0.00000   0.00000   0.00000   0.00000   0.00000   0.00000
Generated with MDTraj, t= 58.0
 70
    1UNL     C1    1  -0.159   0.736  -0.216
    1UNL     O1    2  -0.185   0.621  -0.138
    1UNL     C2    3  -0.120   0.510  -0.181
    1UNL     O2    4  -0.065   0.522  -0.289
    1UNL     C3    5  -0.097   0.393  -0.108
    1UNL     C4    6  -0.168   0.382   0.006
    1UNL     O3    7  -0.146   0.280   0.098
    1UNL     C5    8  -0.054   0.176   0.062
    1UNL     O4    9  -0.053   0.052   0.134
    1UNL     C6   10  -0.168  -0.024   0.115
    1UNL     O5   11  -0.186  -0.085  -0.009
    1UNL     C7   12  -0.317  -0.144  -0.031
    1UNL     C8   13  -0.324  -0.225  -0.161
    1UNL     O6   14  -0.211  -0.303  -0.191
    1UNL     C9   15  -0.358  -0.227   0.091
    1UNL     O7   16  -0.463  -0.163   0.168
    1UNL    C10   17  -0.241  -0.269   0.176
    1UNL     O8   18  -0.152  -0.349   0.102
    1UNL    C11   19  -0.165  -0.142   0.224
    1UNL     O9   20  -0.032  -0.169   0.247
    1UNL    C12   21  -0.045   0.149  -0.090
    1UNL    C13   22   0.079   0.071  -0.128
    1UNL    C14   23   0.091  -0.076  -0.096
    1UNL     N1   24   0.121  -0.163  -0.210
    1UNL    C15   25   0.224  -0.267  -0.199
    1UNL    C16   26   0.232  -0.328  -0.055
    1UNL    C17   27   0.248  -0.216   0.042
    1UNL    C18   28   0.183  -0.097   0.020
    1UNL     N2   29   0.209  -0.022   0.130
    1UNL    C19   30   0.305  -0.085   0.213
    1UNL    C20   31   0.356  -0.054   0.341
    1UNL    C21   32   0.433  -0.148   0.399
    1UNL    C22   33   0.463  -0.270   0.340
    1UNL    C23   34   0.402  -0.312   0.221
    1UNL    C24   35   0.330  -0.209   0.157
    1UNL    C25   36   0.173   0.150  -0.175
    1UNL    C26   37   0.120   0.291  -0.183
    1UNL    C27   38  -0.030   0.280  -0.175
    1UNL     H1   39  -0.054   0.766  -0.204
    1UNL     H2   40  -0.191   0.716  -0.318
    1UNL     H3   41  -0.225   0.817  -0.180
    1UNL     H4   42  -0.238   0.458   0.021
    1UNL     H5   43   0.047   0.214   0.095
    1UNL     H6   44  -0.248   0.036   0.143
    1UNL     H7   45  -0.391  -0.055  -0.031
    1UNL     H8   46  -0.320  -0.159  -0.248
    1UNL     H9   47  -0.409  -0.301  -0.170
    1UNL    H10   48  -0.187  -0.337  -0.109
    1UNL    H11   49  -0.406  -0.320   0.056
    1UNL    H12   50  -0.443  -0.062   0.192
    1UNL    H13   51  -0.274  -0.325   0.262
    1UNL    H14   52  -0.061  -0.316   0.129
    1UNL    H15   53  -0.207  -0.108   0.314
    1UNL    H16   54   0.038  -0.115   0.200
    1UNL    H17   55  -0.135   0.098  -0.128
    1UNL    H18   56  -0.017  -0.105  -0.073
    1UNL    H19   57   0.130  -0.113  -0.300
    1UNL    H20   58   0.205  -0.342  -0.267
    1UNL    H21   59   0.321  -0.222  -0.228
    1UNL    H22   60   0.325  -0.392  -0.042
    1UNL    H23   61   0.124  -0.363  -0.028
    1UNL    H24   62   0.204   0.081   0.129
    1UNL    H25   63   0.341   0.045   0.381
    1UNL    H26   64   0.482  -0.131   0.498
    1UNL    H27   65   0.548  -0.327   0.385
    1UNL    H28   66   0.418  -0.409   0.180
    1UNL    H29   67   0.271   0.109  -0.194
    1UNL    H30   68   0.156   0.350  -0.098
    1UNL    H31   69   0.160   0.341  -0.273
    1UNL    H32   70  -0.058   0.267  -0.276
   0.00000   0.00000   0.00000   0.00000   0.00000   0.00000   0.00000   0.00000   0.00000
Generated with MDTraj, t= 59.0
 70
    1UNL     C1    1  -0.174   0.737  -0.198
    1UNL     O1    2  -0.152   0.629  -0.113
    1UNL     C2    3  -0.108   0.520  -0.178
    1UNL     O2    4  -0.057   0.546  -0.289
    1UNL     C3    5  -0.103   0.390  -0.107
    1UNL     C4    6  -0.176   0.374   0.009
    1UNL     O3    7  -0.174   0.255   0.078
    1UNL     C5    8  -0.061   0.174   0.054
    1UNL     O4    9  -0.046   0.062   0.141
    1UNL     C6   10  -0.167  -0.016   0.139
    1UNL     O5   11  -0.187  -0.069   0.005
    1UNL     C7   12  -0.314  -0.120  -0.028
    1UNL     C8   13  -0.308  -0.184  -0.168
    1UNL     O6   14  -0.227  -0.305  -0.170
    1UNL     C9   15  -0.351  -0.229   0.077
    1UNL     O7   16  -0.457  -0.181   0.164
    1UNL    C10   17  -0.231  -0.267   0.167
    1UNL     O8   18  -0.141  -0.349   0.091
    1UNL    C11   19  -0.156  -0.143   0.232
    1UNL     O9   20  -0.027  -0.184   0.256
    1UNL    C12   21  -0.049   0.142  -0.097
    1UNL    C13   22   0.076   0.064  -0.127
    1UNL    C14   23   0.092  -0.084  -0.098
    1UNL     N1   24   0.144  -0.157  -0.215
    1UNL    C15   25   0.213  -0.289  -0.206
    1UNL    C16   26   0.239  -0.341  -0.065
    1UNL    C17   27   0.238  -0.229   0.042
    1UNL    C18   28   0.182  -0.110   0.019
    1UNL     N2   29   0.212  -0.021   0.122
    1UNL    C19   30   0.290  -0.088   0.214
    1UNL    C20   31   0.345  -0.048   0.337
    1UNL    C21   32   0.439  -0.126   0.400
    1UNL    C22   33   0.466  -0.259   0.357
    1UNL    C23   34   0.398  -0.300   0.244
    1UNL    C24   35   0.318  -0.215   0.163
    1UNL    C25   36   0.167   0.139  -0.193
    1UNL    C26   37   0.113   0.275  -0.229
    1UNL    C27   38  -0.038   0.276  -0.187
    1UNL     H1   39  -0.084   0.791  -0.209
    1UNL     H2   40  -0.218   0.704  -0.288
    1UNL     H3   41  -0.247   0.798  -0.153
    1UNL     H4   42  -0.236   0.463   0.033
    1UNL     H5   43   0.033   0.229   0.091
    1UNL     H6   44  -0.248   0.045   0.171
    1UNL     H7   45  -0.392  -0.033  -0.022
    1UNL     H8   46  -0.266  -0.121  -0.244
    1UNL     H9   47  -0.413  -0.219  -0.193
    1UNL    H10   48  -0.189  -0.339  -0.076
    1UNL    H11   49  -0.386  -0.320   0.027
    1UNL    H12   50  -0.426  -0.090   0.186
    1UNL    H13   51  -0.271  -0.331   0.244
    1UNL    H14   52  -0.054  -0.344   0.133
    1UNL    H15   53  -0.199  -0.118   0.324
    1UNL    H16   54   0.047  -0.138   0.208
    1UNL    H17   55  -0.137   0.082  -0.123
    1UNL    H18   56  -0.011  -0.127  -0.077
    1UNL    H19   57   0.206  -0.099  -0.271
    1UNL    H20   58   0.152  -0.357  -0.255
    1UNL    H21   59   0.311  -0.289  -0.260
    1UNL    H22   60   0.341  -0.389  -0.057
    1UNL    H23   61   0.143  -0.397  -0.032
    1UNL    H24   62   0.180   0.073   0.119
    1UNL    H25   63   0.313   0.046   0.383
    1UNL    H26   64   0.487  -0.083   0.483
    1UNL    H27   65   0.528  -0.316   0.418
    1UNL    H28   66   0.424  -0.402   0.216
    1UNL    H29   67   0.268   0.111  -0.221
    1UNL    H30   68   0.171   0.359  -0.187
    1UNL    H31   69   0.117   0.292  -0.336
    1UNL    H32   70  -0.093   0.257  -0.274
   0.00000   0.00000   0.00000   0.00000   0.00000   0.00000   0.00000   0.00000   0.00000
Generated with MDTraj, t= 60.0
 70
    1UNL     C1    1  -0.145   0.736  -0.159
    1UNL     O1    2  -0.169   0.611  -0.101
    1UNL     C2    3  -0.106   0.507  -0.171
    1UNL     O2    4  -0.038   0.529  -0.273
    1UNL     C3    5  -0.110   0.376  -0.116
    1UNL     C4    6  -0.175   0.362   0.004
    1UNL     O3    7  -0.175   0.242   0.072
    1UNL     C5    8  -0.060   0.163   0.044
    1UNL     O4    9  -0.040   0.054   0.130
    1UNL     C6   10  -0.164  -0.022   0.121
    1UNL     O5   11  -0.190  -0.066  -0.017
    1UNL     C7   12  -0.319  -0.126  -0.024
    1UNL     C8   13  -0.335  -0.185  -0.161
    1UNL     O6   14  -0.227  -0.281  -0.181
    1UNL     C9   15  -0.352  -0.234   0.088
    1UNL     O7   16  -0.459  -0.179   0.165
    1UNL    C10   17  -0.231  -0.266   0.179
    1UNL     O8   18  -0.130  -0.331   0.097
    1UNL    C11   19  -0.165  -0.132   0.228
    1UNL     O9   20  -0.030  -0.157   0.277
    1UNL    C12   21  -0.056   0.131  -0.107
    1UNL    C13   22   0.068   0.056  -0.143
    1UNL    C14   23   0.108  -0.087  -0.114
    1UNL     N1   24   0.185  -0.159  -0.220
    1UNL    C15   25   0.186  -0.308  -0.195
    1UNL    C16   26   0.245  -0.337  -0.059
    1UNL    C17   27   0.261  -0.218   0.035
    1UNL    C18   28   0.189  -0.103   0.016
    1UNL     N2   29   0.221  -0.012   0.111
    1UNL    C19   30   0.301  -0.075   0.207
    1UNL    C20   31   0.344  -0.035   0.340
    1UNL    C21   32   0.417  -0.126   0.410
    1UNL    C22   33   0.447  -0.253   0.354
    1UNL    C23   34   0.400  -0.295   0.233
    1UNL    C24   35   0.324  -0.206   0.162
    1UNL    C25   36   0.157   0.147  -0.193
    1UNL    C26   37   0.102   0.281  -0.225
    1UNL    C27   38  -0.052   0.264  -0.196
    1UNL     H1   39  -0.059   0.730  -0.221
    1UNL     H2   40  -0.232   0.767  -0.211
    1UNL     H3   41  -0.131   0.808  -0.084
    1UNL     H4   42  -0.248   0.441   0.042
    1UNL     H5   43   0.035   0.222   0.076
    1UNL     H6   44  -0.241   0.052   0.140
    1UNL     H7   45  -0.393  -0.037  -0.017
    1UNL     H8   46  -0.317  -0.109  -0.234
    1UNL     H9   47  -0.428  -0.240  -0.186
    1UNL    H10   48  -0.195  -0.302  -0.097
    1UNL    H11   49  -0.390  -0.327   0.041
    1UNL    H12   50  -0.452  -0.094   0.200
    1UNL    H13   51  -0.262  -0.329   0.264
    1UNL    H14   52  -0.046  -0.329   0.151
    1UNL    H15   53  -0.212  -0.100   0.318
    1UNL    H16   54   0.033  -0.103   0.226
    1UNL    H17   55  -0.154   0.091  -0.135
    1UNL    H18   56   0.012  -0.143  -0.090
    1UNL    H19   57   0.281  -0.128  -0.230
    1UNL    H20   58   0.087  -0.339  -0.185
    1UNL    H21   59   0.224  -0.369  -0.282
    1UNL    H22   60   0.351  -0.374  -0.069
    1UNL    H23   61   0.178  -0.413  -0.005
    1UNL    H24   62   0.183   0.078   0.125
    1UNL    H25   63   0.308   0.053   0.381
    1UNL    H26   64   0.439  -0.109   0.517
    1UNL    H27   65   0.515  -0.321   0.413
    1UNL    H28   66   0.422  -0.397   0.203
    1UNL    H29   67   0.257   0.117  -0.210
    1UNL    H30   68   0.136   0.361  -0.157
    1UNL    H31   69   0.127   0.319  -0.322
    1UNL    H32   70  -0.107   0.258  -0.285
   0.00000   0.00000   0.00000   0.00000   0.00000   0.00000   0.00000   0.00000   0.00000
Generated with MDTraj, t= 61.0
 70
    1UNL     C1    1  -0.133   0.740  -0.146
    1UNL     O1    2  -0.157   0.611  -0.103
    1UNL     C2    3  -0.095   0.514  -0.177
    1UNL     O2    4  -0.040   0.546  -0.285
    1UNL     C3    5  -0.096   0.388  -0.114
    1UNL     C4    6  -0.172   0.372  -0.001
    1UNL     O3    7  -0.183   0.250   0.061
    1UNL     C5    8  -0.064   0.174   0.037
    1UNL     O4    9  -0.051   0.056   0.117
    1UNL     C6   10  -0.174  -0.026   0.119
    1UNL     O5   11  -0.199  -0.083  -0.007
    1UNL     C7   12  -0.330  -0.149  -0.015
    1UNL     C8   13  -0.341  -0.219  -0.151
    1UNL     O6   14  -0.228  -0.292  -0.181
    1UNL     C9   15  -0.358  -0.239   0.106
    1UNL     O7   16  -0.462  -0.188   0.192
    1UNL    C10   17  -0.219  -0.264   0.170
    1UNL     O8   18  -0.123  -0.340   0.083
    1UNL    C11   19  -0.165  -0.137   0.223
    1UNL     O9   20  -0.031  -0.167   0.272
    1UNL    C12   21  -0.036   0.137  -0.110
    1UNL    C13   22   0.096   0.070  -0.148
    1UNL    C14   23   0.110  -0.073  -0.115
    1UNL     N1   24   0.136  -0.166  -0.214
    1UNL    C15   25   0.167  -0.308  -0.174
    1UNL    C16   26   0.281  -0.316  -0.075
    1UNL    C17   27   0.264  -0.209   0.034
    1UNL    C18   28   0.197  -0.091   0.009
    1UNL     N2   29   0.199  -0.018   0.123
    1UNL    C19   30   0.278  -0.084   0.217
    1UNL    C20   31   0.335  -0.044   0.344
    1UNL    C21   32   0.420  -0.128   0.413
    1UNL    C22   33   0.447  -0.253   0.362
    1UNL    C23   34   0.402  -0.295   0.238
    1UNL    C24   35   0.317  -0.209   0.165
    1UNL    C25   36   0.176   0.156  -0.216
    1UNL    C26   37   0.110   0.288  -0.231
    1UNL    C27   38  -0.042   0.271  -0.191
    1UNL     H1   39  -0.026   0.755  -0.166
    1UNL     H2   40  -0.191   0.763  -0.237
    1UNL     H3   41  -0.167   0.811  -0.072
    1UNL     H4   42  -0.249   0.444   0.027
    1UNL     H5   43   0.029   0.234   0.078
    1UNL     H6   44  -0.258   0.046   0.134
    1UNL     H7   45  -0.410  -0.068  -0.023
    1UNL     H8   46  -0.346  -0.157  -0.239
    1UNL     H9   47  -0.426  -0.289  -0.150
    1UNL    H10   48  -0.181  -0.319  -0.093
    1UNL    H11   49  -0.383  -0.340   0.066
    1UNL    H12   50  -0.439  -0.106   0.225
    1UNL    H13   51  -0.244  -0.331   0.255
    1UNL    H14   52  -0.036  -0.299   0.092
    1UNL    H15   53  -0.220  -0.115   0.314
    1UNL    H16   54   0.031  -0.120   0.213
    1UNL    H17   55  -0.118   0.079  -0.149
    1UNL    H18   56   0.007  -0.107  -0.079
    1UNL    H19   57   0.205  -0.128  -0.279
    1UNL    H20   58   0.078  -0.350  -0.140
    1UNL    H21   59   0.193  -0.369  -0.267
    1UNL    H22   60   0.380  -0.312  -0.126
    1UNL    H23   61   0.270  -0.414  -0.015
    1UNL    H24   62   0.183   0.077   0.134
    1UNL    H25   63   0.291   0.052   0.379
    1UNL    H26   64   0.461  -0.097   0.507
    1UNL    H27   65   0.505  -0.318   0.421
    1UNL    H28   66   0.420  -0.394   0.205
    1UNL    H29   67   0.280   0.130  -0.244
    1UNL    H30   68   0.155   0.366  -0.169
    1UNL    H31   69   0.122   0.330  -0.329
    1UNL    H32   70  -0.106   0.270  -0.275
   0.00000   0.00000   0.00000   0.00000   0.00000   0.00000   0.00000   0.00000   0.00000
Generated with MDTraj, t= 62.0
 70
    1UNL     C1    1  -0.138   0.753  -0.169
    1UNL     O1    2  -0.123   0.633  -0.102
    1UNL     C2    3  -0.082   0.529  -0.178
    1UNL     O2    4  -0.024   0.544  -0.287
    1UNL     C3    5  -0.098   0.401  -0.119
    1UNL     C4    6  -0.171   0.386  -0.005
    1UNL     O3    7  -0.190   0.268   0.059
    1UNL     C5    8  -0.083   0.182   0.032
    1UNL     O4    9  -0.054   0.062   0.119
    1UNL     C6   10  -0.165  -0.029   0.114
    1UNL     O5   11  -0.200  -0.068  -0.014
    1UNL     C7   12  -0.328  -0.145  -0.021
    1UNL     C8   13  -0.334  -0.217  -0.158
    1UNL     O6   14  -0.254  -0.333  -0.158
    1UNL     C9   15  -0.351  -0.255   0.091
    1UNL     O7   16  -0.454  -0.217   0.188
    1UNL    C10   17  -0.218  -0.274   0.170
    1UNL     O8   18  -0.116  -0.347   0.097
    1UNL    C11   19  -0.158  -0.146   0.220
    1UNL     O9   20  -0.021  -0.162   0.261
    1UNL    C12   21  -0.063   0.151  -0.116
    1UNL    C13   22   0.064   0.063  -0.129
    1UNL    C14   23   0.091  -0.084  -0.097
    1UNL     N1   24   0.130  -0.166  -0.216
    1UNL    C15   25   0.170  -0.309  -0.182
    1UNL    C16   26   0.272  -0.320  -0.068
    1UNL    C17   27   0.276  -0.203   0.026
    1UNL    C18   28   0.193  -0.098   0.015
    1UNL     N2   29   0.197  -0.028   0.134
    1UNL    C19   30   0.293  -0.077   0.216
    1UNL    C20   31   0.324  -0.049   0.347
    1UNL    C21   32   0.391  -0.145   0.418
    1UNL    C22   33   0.445  -0.260   0.351
    1UNL    C23   34   0.432  -0.277   0.216
    1UNL    C24   35   0.348  -0.188   0.150
    1UNL    C25   36   0.158   0.145  -0.182
    1UNL    C26   37   0.105   0.282  -0.211
    1UNL    C27   38  -0.045   0.284  -0.194
    1UNL     H1   39  -0.065   0.832  -0.131
    1UNL     H2   40  -0.116   0.741  -0.281
    1UNL     H3   41  -0.243   0.789  -0.159
    1UNL     H4   42  -0.202   0.479   0.032
    1UNL     H5   43   0.015   0.239   0.069
    1UNL     H6   44  -0.253   0.040   0.138
    1UNL     H7   45  -0.408  -0.067  -0.014
    1UNL     H8   46  -0.293  -0.154  -0.235
    1UNL     H9   47  -0.430  -0.263  -0.190
    1UNL    H10   48  -0.193  -0.332  -0.083
    1UNL    H11   49  -0.381  -0.357   0.059
    1UNL    H12   50  -0.421  -0.151   0.246
    1UNL    H13   51  -0.248  -0.329   0.264
    1UNL    H14   52  -0.025  -0.317   0.130
    1UNL    H15   53  -0.212  -0.112   0.310
    1UNL    H16   54   0.047  -0.111   0.214
    1UNL    H17   55  -0.146   0.091  -0.152
    1UNL    H18   56  -0.005  -0.135  -0.066
    1UNL    H19   57   0.200  -0.118  -0.271
    1UNL    H20   58   0.083  -0.366  -0.160
    1UNL    H21   59   0.206  -0.353  -0.282
    1UNL    H22   60   0.373  -0.326  -0.113
    1UNL    H23   61   0.254  -0.421  -0.013
    1UNL    H24   62   0.137   0.048   0.163
    1UNL    H25   63   0.298   0.040   0.393
    1UNL    H26   64   0.422  -0.110   0.517
    1UNL    H27   65   0.496  -0.331   0.417
    1UNL    H28   66   0.481  -0.362   0.167
    1UNL    H29   67   0.253   0.115  -0.216
    1UNL    H30   68   0.150   0.348  -0.136
    1UNL    H31   69   0.132   0.328  -0.305
    1UNL    H32   70  -0.098   0.277  -0.284
   0.00000   0.00000   0.00000   0.00000   0.00000   0.00000   0.00000   0.00000   0.00000
Generated with MDTraj, t= 63.0
 70
    1UNL     C1    1  -0.094   0.752  -0.187
    1UNL     O1    2  -0.151   0.633  -0.136
    1UNL     C2    3  -0.093   0.517  -0.177
    1UNL     O2    4  -0.016   0.521  -0.275
    1UNL     C3    5  -0.104   0.393  -0.106
    1UNL     C4    6  -0.176   0.373   0.008
    1UNL     O3    7  -0.187   0.250   0.074
    1UNL     C5    8  -0.072   0.171   0.054
    1UNL     O4    9  -0.064   0.047   0.131
    1UNL     C6   10  -0.183  -0.022   0.115
    1UNL     O5   11  -0.197  -0.091  -0.011
    1UNL     C7   12  -0.321  -0.154  -0.024
    1UNL     C8   13  -0.324  -0.216  -0.161
    1UNL     O6   14  -0.243  -0.335  -0.174
    1UNL     C9   15  -0.344  -0.252   0.089
    1UNL     O7   16  -0.462  -0.210   0.164
    1UNL    C10   17  -0.220  -0.268   0.180
    1UNL     O8   18  -0.116  -0.331   0.097
    1UNL    C11   19  -0.173  -0.133   0.240
    1UNL     O9   20  -0.041  -0.161   0.293
    1UNL    C12   21  -0.042   0.150  -0.093
    1UNL    C13   22   0.078   0.072  -0.134
    1UNL    C14   23   0.090  -0.073  -0.097
    1UNL     N1   24   0.130  -0.150  -0.219
    1UNL    C15   25   0.151  -0.288  -0.184
    1UNL    C16   26   0.273  -0.303  -0.098
    1UNL    C17   27   0.271  -0.205   0.016
    1UNL    C18   28   0.182  -0.100   0.011
    1UNL     N2   29   0.187  -0.028   0.131
    1UNL    C19   30   0.280  -0.087   0.218
    1UNL    C20   31   0.335  -0.048   0.340
    1UNL    C21   32   0.424  -0.126   0.407
    1UNL    C22   33   0.467  -0.247   0.348
    1UNL    C23   34   0.421  -0.282   0.218
    1UNL    C24   35   0.321  -0.203   0.152
    1UNL    C25   36   0.166   0.156  -0.192
    1UNL    C26   37   0.107   0.291  -0.212
    1UNL    C27   38  -0.044   0.275  -0.177
    1UNL     H1   39  -0.039   0.809  -0.106
    1UNL     H2   40  -0.018   0.724  -0.270
    1UNL     H3   41  -0.177   0.811  -0.229
    1UNL     H4   42  -0.226   0.461   0.051
    1UNL     H5   43   0.016   0.233   0.104
    1UNL     H6   44  -0.276   0.042   0.137
    1UNL     H7   45  -0.401  -0.079  -0.019
    1UNL     H8   46  -0.280  -0.154  -0.238
    1UNL     H9   47  -0.428  -0.241  -0.190
    1UNL    H10   48  -0.180  -0.341  -0.095
    1UNL    H11   49  -0.364  -0.352   0.046
    1UNL    H12   50  -0.428  -0.130   0.213
    1UNL    H13   51  -0.246  -0.326   0.275
    1UNL    H14   52  -0.031  -0.323   0.142
    1UNL    H15   53  -0.240  -0.100   0.324
    1UNL    H16   54   0.036  -0.119   0.249
    1UNL    H17   55  -0.128   0.092  -0.127
    1UNL    H18   56  -0.009  -0.119  -0.068
    1UNL    H19   57   0.222  -0.108  -0.233
    1UNL    H20   58   0.060  -0.310  -0.131
    1UNL    H21   59   0.153  -0.351  -0.279
    1UNL    H22   60   0.361  -0.292  -0.164
    1UNL    H23   61   0.281  -0.409  -0.053
    1UNL    H24   62   0.151   0.072   0.131
    1UNL    H25   63   0.327   0.060   0.363
    1UNL    H26   64   0.467  -0.095   0.501
    1UNL    H27   65   0.544  -0.305   0.397
    1UNL    H28   66   0.462  -0.365   0.166
    1UNL    H29   67   0.261   0.114  -0.227
    1UNL    H30   68   0.156   0.362  -0.147
    1UNL    H31   69   0.129   0.318  -0.314
    1UNL    H32   70  -0.095   0.256  -0.266
   0.00000   0.00000   0.00000   0.00000   0.00000   0.00000   0.00000   0.00000   0.00000
Generated with MDTraj, t= 64.0
 70
    1UNL     C1    1  -0.139   0.755  -0.171
    1UNL     O1    2  -0.146   0.630  -0.111
    1UNL     C2    3  -0.083   0.527  -0.179
    1UNL     O2    4  -0.017   0.547  -0.284
    1UNL     C3    5  -0.098   0.391  -0.123
    1UNL     C4    6  -0.175   0.381  -0.006
    1UNL     O3    7  -0.187   0.268   0.074
    1UNL     C5    8  -0.080   0.178   0.049
    1UNL     O4    9  -0.077   0.068   0.145
    1UNL     C6   10  -0.190  -0.018   0.127
    1UNL     O5   11  -0.206  -0.071  -0.009
    1UNL     C7   12  -0.323  -0.150  -0.035
    1UNL     C8   13  -0.309  -0.221  -0.171
    1UNL     O6   14  -0.182  -0.290  -0.175
    1UNL     C9   15  -0.354  -0.251   0.082
    1UNL     O7   16  -0.472  -0.202   0.155
    1UNL    C10   17  -0.237  -0.264   0.187
    1UNL     O8   18  -0.130  -0.323   0.112
    1UNL    C11   19  -0.181  -0.131   0.243
    1UNL     O9   20  -0.045  -0.132   0.285
    1UNL    C12   21  -0.070   0.130  -0.100
    1UNL    C13   22   0.058   0.050  -0.123
    1UNL    C14   23   0.090  -0.092  -0.096
    1UNL     N1   24   0.157  -0.158  -0.219
    1UNL    C15   25   0.186  -0.297  -0.193
    1UNL    C16   26   0.273  -0.326  -0.067
    1UNL    C17   27   0.248  -0.227   0.036
    1UNL    C18   28   0.176  -0.108   0.020
    1UNL     N2   29   0.188  -0.028   0.134
    1UNL    C19   30   0.287  -0.095   0.214
    1UNL    C20   31   0.342  -0.058   0.340
    1UNL    C21   32   0.451  -0.128   0.383
    1UNL    C22   33   0.492  -0.247   0.315
    1UNL    C23   34   0.434  -0.294   0.204
    1UNL    C24   35   0.328  -0.214   0.154
    1UNL    C25   36   0.156   0.129  -0.172
    1UNL    C26   37   0.110   0.267  -0.207
    1UNL    C27   38  -0.052   0.257  -0.192
    1UNL     H1   39  -0.047   0.804  -0.139
    1UNL     H2   40  -0.137   0.736  -0.281
    1UNL     H3   41  -0.229   0.803  -0.135
    1UNL     H4   42  -0.251   0.459   0.027
    1UNL     H5   43   0.019   0.237   0.073
    1UNL     H6   44  -0.284   0.041   0.152
    1UNL     H7   45  -0.403  -0.079  -0.042
    1UNL     H8   46  -0.306  -0.146  -0.250
    1UNL     H9   47  -0.385  -0.298  -0.201
    1UNL    H10   48  -0.155  -0.314  -0.084
    1UNL    H11   49  -0.378  -0.351   0.043
    1UNL    H12   50  -0.458  -0.112   0.207
    1UNL    H13   51  -0.263  -0.329   0.275
    1UNL    H14   52  -0.040  -0.318   0.156
    1UNL    H15   53  -0.243  -0.090   0.330
    1UNL    H16   54   0.016  -0.086   0.223
    1UNL    H17   55  -0.160   0.078  -0.134
    1UNL    H18   56   0.000  -0.160  -0.081
    1UNL    H19   57   0.238  -0.104  -0.252
    1UNL    H20   58   0.088  -0.344  -0.183
    1UNL    H21   59   0.232  -0.330  -0.292
    1UNL    H22   60   0.382  -0.331  -0.093
    1UNL    H23   61   0.249  -0.434  -0.043
    1UNL    H24   62   0.136   0.068   0.151
    1UNL    H25   63   0.294   0.027   0.384
    1UNL    H26   64   0.501  -0.099   0.472
    1UNL    H27   65   0.551  -0.319   0.367
    1UNL    H28   66   0.451  -0.390   0.155
    1UNL    H29   67   0.256   0.103  -0.198
    1UNL    H30   68   0.154   0.342  -0.144
    1UNL    H31   69   0.140   0.283  -0.310
    1UNL    H32   70  -0.103   0.245  -0.283
   0.00000   0.00000   0.00000   0.00000   0.00000   0.00000   0.00000   0.00000   0.00000
Generated with MDTraj, t= 65.0
 70
    1UNL     C1    1  -0.151   0.753  -0.187
    1UNL     O1    2  -0.152   0.632  -0.106
    1UNL     C2    3  -0.097   0.526  -0.173
    1UNL     O2    4  -0.037   0.540  -0.283
    1UNL     C3    5  -0.107   0.387  -0.116
    1UNL     C4    6  -0.194   0.354  -0.012
    1UNL     O3    7  -0.189   0.243   0.062
    1UNL     C5    8  -0.069   0.168   0.050
    1UNL     O4    9  -0.063   0.055   0.136
    1UNL     C6   10  -0.185  -0.014   0.129
    1UNL     O5   11  -0.195  -0.070  -0.003
    1UNL     C7   12  -0.316  -0.134  -0.039
    1UNL     C8   13  -0.284  -0.206  -0.170
    1UNL     O6   14  -0.171  -0.285  -0.151
    1UNL     C9   15  -0.358  -0.232   0.073
    1UNL     O7   16  -0.481  -0.200   0.140
    1UNL    C10   17  -0.239  -0.255   0.173
    1UNL     O8   18  -0.134  -0.345   0.126
    1UNL    C11   19  -0.190  -0.123   0.239
    1UNL     O9   20  -0.069  -0.131   0.315
    1UNL    C12   21  -0.035   0.138  -0.098
    1UNL    C13   22   0.090   0.063  -0.123
    1UNL    C14   23   0.088  -0.084  -0.097
    1UNL     N1   24   0.133  -0.163  -0.219
    1UNL    C15   25   0.146  -0.306  -0.190
    1UNL    C16   26   0.257  -0.335  -0.077
    1UNL    C17   27   0.259  -0.222   0.023
    1UNL    C18   28   0.166  -0.119   0.023
    1UNL     N2   29   0.189  -0.041   0.136
    1UNL    C19   30   0.292  -0.096   0.213
    1UNL    C20   31   0.352  -0.053   0.327
    1UNL    C21   32   0.455  -0.124   0.379
    1UNL    C22   33   0.501  -0.242   0.317
    1UNL    C23   34   0.436  -0.292   0.211
    1UNL    C24   35   0.329  -0.224   0.153
    1UNL    C25   36   0.180   0.148  -0.172
    1UNL    C26   37   0.120   0.288  -0.207
    1UNL    C27   38  -0.032   0.270  -0.180
    1UNL     H1   39  -0.075   0.742  -0.259
    1UNL     H2   40  -0.244   0.759  -0.239
    1UNL     H3   41  -0.137   0.830  -0.118
    1UNL     H4   42  -0.286   0.409   0.001
    1UNL     H5   43   0.015   0.229   0.102
    1UNL     H6   44  -0.266   0.062   0.137
    1UNL     H7   45  -0.395  -0.065  -0.054
    1UNL     H8   46  -0.256  -0.142  -0.255
    1UNL     H9   47  -0.363  -0.273  -0.211
    1UNL    H10   48  -0.169  -0.317  -0.059
    1UNL    H11   49  -0.368  -0.328   0.019
    1UNL    H12   50  -0.471  -0.111   0.198
    1UNL    H13   51  -0.279  -0.324   0.249
    1UNL    H14   52  -0.046  -0.340   0.169
    1UNL    H15   53  -0.266  -0.083   0.318
    1UNL    H16   54  -0.004  -0.109   0.246
    1UNL    H17   55  -0.117   0.077  -0.136
    1UNL    H18   56  -0.016  -0.123  -0.076
    1UNL    H19   57   0.214  -0.116  -0.262
    1UNL    H20   58   0.043  -0.338  -0.166
    1UNL    H21   59   0.174  -0.352  -0.290
    1UNL    H22   60   0.348  -0.370  -0.132
    1UNL    H23   61   0.229  -0.429  -0.023
    1UNL    H24   62   0.144   0.052   0.164
    1UNL    H25   63   0.310   0.035   0.371
    1UNL    H26   64   0.511  -0.086   0.466
    1UNL    H27   65   0.581  -0.304   0.364
    1UNL    H28   66   0.459  -0.386   0.166
    1UNL    H29   67   0.272   0.115  -0.218
    1UNL    H30   68   0.163   0.354  -0.137
    1UNL    H31   69   0.136   0.318  -0.311
    1UNL    H32   70  -0.083   0.251  -0.270
   0.00000   0.00000   0.00000   0.00000   0.00000   0.00000   0.00000   0.00000   0.00000
Generated with MDTraj, t= 66.0
 70
    1UNL     C1    1  -0.148   0.748  -0.188
    1UNL     O1    2  -0.178   0.618  -0.132
    1UNL     C2    3  -0.109   0.515  -0.191
    1UNL     O2    4  -0.043   0.524  -0.297
    1UNL     C3    5  -0.102   0.392  -0.117
    1UNL     C4    6  -0.167   0.380   0.001
    1UNL     O3    7  -0.177   0.276   0.089
    1UNL     C5    8  -0.074   0.182   0.067
    1UNL     O4    9  -0.076   0.060   0.145
    1UNL     C6   10  -0.180  -0.026   0.113
    1UNL     O5   11  -0.175  -0.080  -0.020
    1UNL     C7   12  -0.303  -0.142  -0.045
    1UNL     C8   13  -0.289  -0.227  -0.170
    1UNL     O6   14  -0.202  -0.332  -0.151
    1UNL     C9   15  -0.357  -0.232   0.074
    1UNL     O7   16  -0.477  -0.175   0.125
    1UNL    C10   17  -0.245  -0.260   0.176
    1UNL     O8   18  -0.144  -0.340   0.125
    1UNL    C11   19  -0.177  -0.124   0.228
    1UNL     O9   20  -0.045  -0.128   0.283
    1UNL    C12   21  -0.056   0.150  -0.087
    1UNL    C13   22   0.069   0.064  -0.123
    1UNL    C14   23   0.084  -0.085  -0.085
    1UNL     N1   24   0.134  -0.157  -0.210
    1UNL    C15   25   0.155  -0.300  -0.190
    1UNL    C16   26   0.259  -0.325  -0.088
    1UNL    C17   27   0.257  -0.221   0.021
    1UNL    C18   28   0.178  -0.110   0.024
    1UNL     N2   29   0.193  -0.038   0.141
    1UNL    C19   30   0.301  -0.085   0.211
    1UNL    C20   31   0.359  -0.062   0.337
    1UNL    C21   32   0.457  -0.143   0.385
    1UNL    C22   33   0.485  -0.265   0.326
    1UNL    C23   34   0.436  -0.290   0.199
    1UNL    C24   35   0.338  -0.201   0.142
    1UNL    C25   36   0.170   0.142  -0.154
    1UNL    C26   37   0.121   0.286  -0.175
    1UNL    C27   38  -0.030   0.281  -0.166
    1UNL     H1   39  -0.051   0.745  -0.230
    1UNL     H2   40  -0.219   0.765  -0.267
    1UNL     H3   41  -0.163   0.814  -0.108
    1UNL     H4   42  -0.205   0.471   0.036
    1UNL     H5   43   0.020   0.227   0.113
    1UNL     H6   44  -0.273   0.032   0.111
    1UNL     H7   45  -0.378  -0.068  -0.052
    1UNL     H8   46  -0.250  -0.170  -0.255
    1UNL     H9   47  -0.382  -0.277  -0.205
    1UNL    H10   48  -0.172  -0.350  -0.052
    1UNL    H11   49  -0.392  -0.325   0.027
    1UNL    H12   50  -0.462  -0.082   0.175
    1UNL    H13   51  -0.290  -0.305   0.263
    1UNL    H14   52  -0.056  -0.308   0.155
    1UNL    H15   53  -0.238  -0.092   0.326
    1UNL    H16   54   0.020  -0.089   0.222
    1UNL    H17   55  -0.145   0.103  -0.128
    1UNL    H18   56  -0.009  -0.143  -0.056
    1UNL    H19   57   0.216  -0.108  -0.249
    1UNL    H20   58   0.057  -0.341  -0.153
    1UNL    H21   59   0.179  -0.351  -0.289
    1UNL    H22   60   0.364  -0.330  -0.130
    1UNL    H23   61   0.250  -0.434  -0.058
    1UNL    H24   62   0.156   0.054   0.153
    1UNL    H25   63   0.331   0.028   0.396
    1UNL    H26   64   0.510  -0.115   0.470
    1UNL    H27   65   0.545  -0.337   0.372
    1UNL    H28   66   0.445  -0.387   0.153
    1UNL    H29   67   0.269   0.106  -0.183
    1UNL    H30   68   0.161   0.341  -0.095
    1UNL    H31   69   0.161   0.320  -0.269
    1UNL    H32   70  -0.063   0.265  -0.264
   0.00000   0.00000   0.00000   0.00000   0.00000   0.00000   0.00000   0.00000   0.00000
Generated with MDTraj, t= 67.0
 70
    1UNL     C1    1  -0.177   0.744  -0.226
    1UNL     O1    2  -0.164   0.638  -0.136
    1UNL     C2    3  -0.096   0.528  -0.184
    1UNL     O2    4  -0.036   0.529  -0.294
    1UNL     C3    5  -0.098   0.405  -0.104
    1UNL     C4    6  -0.170   0.383   0.013
    1UNL     O3    7  -0.186   0.263   0.081
    1UNL     C5    8  -0.077   0.176   0.051
    1UNL     O4    9  -0.076   0.063   0.135
    1UNL     C6   10  -0.180  -0.026   0.122
    1UNL     O5   11  -0.182  -0.089  -0.006
    1UNL     C7   12  -0.313  -0.145  -0.036
    1UNL     C8   13  -0.292  -0.223  -0.163
    1UNL     O6   14  -0.215  -0.337  -0.141
    1UNL     C9   15  -0.366  -0.225   0.089
    1UNL     O7   16  -0.476  -0.154   0.144
    1UNL    C10   17  -0.247  -0.268   0.183
    1UNL     O8   18  -0.161  -0.361   0.119
    1UNL    C11   19  -0.168  -0.134   0.237
    1UNL     O9   20  -0.039  -0.165   0.273
    1UNL    C12   21  -0.044   0.143  -0.099
    1UNL    C13   22   0.091   0.080  -0.121
    1UNL    C14   23   0.103  -0.067  -0.102
    1UNL     N1   24   0.144  -0.148  -0.224
    1UNL    C15   25   0.170  -0.289  -0.195
    1UNL    C16   26   0.276  -0.308  -0.091
    1UNL    C17   27   0.269  -0.213   0.027
    1UNL    C18   28   0.184  -0.102   0.022
    1UNL     N2   29   0.196  -0.040   0.147
    1UNL    C19   30   0.291  -0.106   0.222
    1UNL    C20   31   0.347  -0.078   0.348
    1UNL    C21   32   0.445  -0.155   0.402
    1UNL    C22   33   0.487  -0.264   0.326
    1UNL    C23   34   0.436  -0.308   0.203
    1UNL    C24   35   0.335  -0.220   0.154
    1UNL    C25   36   0.174   0.168  -0.174
    1UNL    C26   37   0.106   0.302  -0.193
    1UNL    C27   38  -0.046   0.282  -0.174
    1UNL     H1   39  -0.092   0.813  -0.216
    1UNL     H2   40  -0.181   0.704  -0.330
    1UNL     H3   41  -0.275   0.786  -0.195
    1UNL     H4   42  -0.209   0.471   0.067
    1UNL     H5   43   0.013   0.232   0.087
    1UNL     H6   44  -0.273   0.027   0.129
    1UNL     H7   45  -0.376  -0.062  -0.041
    1UNL     H8   46  -0.238  -0.168  -0.240
    1UNL     H9   47  -0.383  -0.263  -0.208
    1UNL    H10   48  -0.187  -0.335  -0.046
    1UNL    H11   49  -0.408  -0.316   0.046
    1UNL    H12   50  -0.435  -0.068   0.185
    1UNL    H13   51  -0.293  -0.319   0.267
    1UNL    H14   52  -0.072  -0.354   0.165
    1UNL    H15   53  -0.218  -0.105   0.341
    1UNL    H16   54   0.037  -0.127   0.229
    1UNL    H17   55  -0.113   0.079  -0.154
    1UNL    H18   56   0.000  -0.112  -0.077
    1UNL    H19   57   0.226  -0.105  -0.269
    1UNL    H20   58   0.073  -0.339  -0.167
    1UNL    H21   59   0.198  -0.341  -0.291
    1UNL    H22   60   0.377  -0.325  -0.138
    1UNL    H23   61   0.277  -0.409  -0.041
    1UNL    H24   62   0.142   0.039   0.168
    1UNL    H25   63   0.336   0.014   0.395
    1UNL    H26   64   0.504  -0.119   0.490
    1UNL    H27   65   0.570  -0.322   0.377
    1UNL    H28   66   0.479  -0.391   0.148
    1UNL    H29   67   0.263   0.147  -0.229
    1UNL    H30   68   0.146   0.367  -0.119
    1UNL    H31   69   0.136   0.338  -0.290
    1UNL    H32   70  -0.097   0.275  -0.265
   0.00000   0.00000   0.00000   0.00000   0.00000   0.00000   0.00000   0.00000   0.00000
Generated with MDTraj, t= 68.0
 70
    1UNL     C1    1  -0.187   0.734  -0.197
    1UNL     O1    2  -0.202   0.609  -0.130
    1UNL     C2    3  -0.111   0.519  -0.180
    1UNL     O2    4  -0.027   0.533  -0.273
    1UNL     C3    5  -0.112   0.385  -0.125
    1UNL     C4    6  -0.174   0.370  -0.004
    1UNL     O3    7  -0.176   0.253   0.067
    1UNL     C5    8  -0.058   0.171   0.048
    1UNL     O4    9  -0.045   0.057   0.132
    1UNL     C6   10  -0.160  -0.022   0.123
    1UNL     O5   11  -0.186  -0.084  -0.006
    1UNL     C7   12  -0.323  -0.132  -0.029
    1UNL     C8   13  -0.315  -0.209  -0.160
    1UNL     O6   14  -0.215  -0.309  -0.152
    1UNL     C9   15  -0.372  -0.215   0.093
    1UNL     O7   16  -0.484  -0.152   0.150
    1UNL    C10   17  -0.255  -0.253   0.195
    1UNL     O8   18  -0.182  -0.360   0.144
    1UNL    C11   19  -0.157  -0.131   0.238
    1UNL     O9   20  -0.026  -0.162   0.271
    1UNL    C12   21  -0.036   0.136  -0.098
    1UNL    C13   22   0.096   0.076  -0.128
    1UNL    C14   23   0.106  -0.072  -0.107
    1UNL     N1   24   0.148  -0.138  -0.226
    1UNL    C15   25   0.192  -0.277  -0.209
    1UNL    C16   26   0.287  -0.311  -0.093
    1UNL    C17   27   0.280  -0.210   0.024
    1UNL    C18   28   0.199  -0.102   0.015
    1UNL     N2   29   0.200  -0.038   0.136
    1UNL    C19   30   0.298  -0.092   0.220
    1UNL    C20   31   0.334  -0.078   0.352
    1UNL    C21   32   0.411  -0.175   0.413
    1UNL    C22   33   0.464  -0.280   0.338
    1UNL    C23   34   0.438  -0.290   0.207
    1UNL    C24   35   0.348  -0.204   0.148
    1UNL    C25   36   0.184   0.164  -0.176
    1UNL    C26   37   0.116   0.296  -0.210
    1UNL    C27   38  -0.039   0.267  -0.188
    1UNL     H1   39  -0.077   0.751  -0.216
    1UNL     H2   40  -0.232   0.722  -0.302
    1UNL     H3   41  -0.246   0.817  -0.143
    1UNL     H4   42  -0.246   0.451   0.027
    1UNL     H5   43   0.017   0.238   0.091
    1UNL     H6   44  -0.240   0.048   0.140
    1UNL     H7   45  -0.380  -0.043  -0.028
    1UNL     H8   46  -0.288  -0.145  -0.245
    1UNL     H9   47  -0.410  -0.258  -0.175
    1UNL    H10   48  -0.184  -0.330  -0.054
    1UNL    H11   49  -0.409  -0.309   0.055
    1UNL    H12   50  -0.467  -0.061   0.185
    1UNL    H13   51  -0.307  -0.287   0.286
    1UNL    H14   52  -0.130  -0.401   0.213
    1UNL    H15   53  -0.185  -0.074   0.339
    1UNL    H16   54   0.041  -0.113   0.223
    1UNL    H17   55  -0.124   0.080  -0.130
    1UNL    H18   56   0.009  -0.116  -0.065
    1UNL    H19   57   0.216  -0.077  -0.274
    1UNL    H20   58   0.104  -0.350  -0.212
    1UNL    H21   59   0.243  -0.306  -0.305
    1UNL    H22   60   0.396  -0.316  -0.118
    1UNL    H23   61   0.282  -0.420  -0.064
    1UNL    H24   62   0.172   0.059   0.140
    1UNL    H25   63   0.305   0.014   0.408
    1UNL    H26   64   0.430  -0.176   0.517
    1UNL    H27   65   0.509  -0.357   0.391
    1UNL    H28   66   0.471  -0.377   0.156
    1UNL    H29   67   0.281   0.140  -0.222
    1UNL    H30   68   0.159   0.372  -0.149
    1UNL    H31   69   0.133   0.327  -0.312
    1UNL    H32   70  -0.089   0.244  -0.276
   0.00000   0.00000   0.00000   0.00000   0.00000   0.00000   0.00000   0.00000   0.00000
Generated with MDTraj, t= 69.0
 70
    1UNL     C1    1  -0.208   0.733  -0.173
    1UNL     O1    2  -0.214   0.606  -0.120
    1UNL     C2    3  -0.125   0.519  -0.179
    1UNL     O2    4  -0.040   0.545  -0.269
    1UNL     C3    5  -0.123   0.378  -0.133
    1UNL     C4    6  -0.185   0.356  -0.010
    1UNL     O3    7  -0.184   0.245   0.068
    1UNL     C5    8  -0.059   0.180   0.050
    1UNL     O4    9  -0.053   0.067   0.136
    1UNL     C6   10  -0.171  -0.011   0.126
    1UNL     O5   11  -0.192  -0.071  -0.002
    1UNL     C7   12  -0.327  -0.127  -0.025
    1UNL     C8   13  -0.319  -0.209  -0.154
    1UNL     O6   14  -0.213  -0.311  -0.156
    1UNL     C9   15  -0.379  -0.196   0.106
    1UNL     O7   16  -0.469  -0.111   0.170
    1UNL    C10   17  -0.254  -0.241   0.196
    1UNL     O8   18  -0.189  -0.346   0.130
    1UNL    C11   19  -0.157  -0.124   0.232
    1UNL     O9   20  -0.023  -0.163   0.262
    1UNL    C12   21  -0.035   0.138  -0.099
    1UNL    C13   22   0.099   0.060  -0.136
    1UNL    C14   23   0.133  -0.090  -0.119
    1UNL     N1   24   0.189  -0.159  -0.236
    1UNL    C15   25   0.214  -0.299  -0.207
    1UNL    C16   26   0.323  -0.310  -0.102
    1UNL    C17   27   0.298  -0.210   0.011
    1UNL    C18   28   0.204  -0.109   0.007
    1UNL     N2   29   0.211  -0.038   0.119
    1UNL    C19   30   0.290  -0.106   0.211
    1UNL    C20   31   0.324  -0.073   0.348
    1UNL    C21   32   0.400  -0.169   0.414
    1UNL    C22   33   0.445  -0.286   0.357
    1UNL    C23   34   0.431  -0.302   0.223
    1UNL    C24   35   0.342  -0.217   0.145
    1UNL    C25   36   0.181   0.148  -0.192
    1UNL    C26   37   0.122   0.290  -0.198
    1UNL    C27   38  -0.029   0.266  -0.189
    1UNL     H1   39  -0.107   0.753  -0.215
    1UNL     H2   40  -0.277   0.738  -0.262
    1UNL     H3   41  -0.245   0.813  -0.098
    1UNL     H4   42  -0.254   0.430   0.027
    1UNL     H5   43   0.020   0.243   0.086
    1UNL     H6   44  -0.252   0.055   0.151
    1UNL     H7   45  -0.395  -0.046  -0.050
    1UNL     H8   46  -0.300  -0.139  -0.236
    1UNL     H9   47  -0.411  -0.262  -0.175
    1UNL    H10   48  -0.192  -0.322  -0.061
    1UNL    H11   49  -0.433  -0.283   0.069
    1UNL    H12   50  -0.431  -0.026   0.188
    1UNL    H13   51  -0.307  -0.288   0.282
    1UNL    H14   52  -0.115  -0.386   0.187
    1UNL    H15   53  -0.183  -0.083   0.338
    1UNL    H16   54   0.036  -0.103   0.217
    1UNL    H17   55  -0.120   0.075  -0.126
    1UNL    H18   56   0.033  -0.141  -0.101
    1UNL    H19   57   0.280  -0.117  -0.256
    1UNL    H20   58   0.122  -0.351  -0.159
    1UNL    H21   59   0.238  -0.364  -0.294
    1UNL    H22   60   0.420  -0.289  -0.155
    1UNL    H23   61   0.352  -0.408  -0.057
    1UNL    H24   62   0.137   0.041   0.131
    1UNL    H25   63   0.296   0.019   0.390
    1UNL    H26   64   0.422  -0.147   0.519
    1UNL    H27   65   0.495  -0.366   0.414
    1UNL    H28   66   0.464  -0.391   0.170
    1UNL    H29   67   0.270   0.121  -0.242
    1UNL    H30   68   0.154   0.359  -0.122
    1UNL    H31   69   0.153   0.339  -0.288
    1UNL    H32   70  -0.064   0.233  -0.282
   0.00000   0.00000   0.00000   0.00000   0.00000   0.00000   0.00000   0.00000   0.00000
Generated with MDTraj, t= 70.0
 70
    1UNL     C1    1  -0.215   0.716  -0.192
    1UNL     O1    2  -0.185   0.612  -0.111
    1UNL     C2    3  -0.117   0.514  -0.176
    1UNL     O2    4  -0.060   0.526  -0.287
    1UNL     C3    5  -0.102   0.380  -0.116
    1UNL     C4    6  -0.175   0.350  -0.002
    1UNL     O3    7  -0.172   0.234   0.068
    1UNL     C5    8  -0.061   0.157   0.031
    1UNL     O4    9  -0.038   0.048   0.118
    1UNL     C6   10  -0.151  -0.031   0.116
    1UNL     O5   11  -0.177  -0.094  -0.008
    1UNL     C7   12  -0.316  -0.121  -0.022
    1UNL     C8   13  -0.324  -0.198  -0.155
    1UNL     O6   14  -0.247  -0.316  -0.151
    1UNL     C9   15  -0.374  -0.185   0.113
    1UNL     O7   16  -0.463  -0.097   0.178
    1UNL    C10   17  -0.260  -0.246   0.202
    1UNL     O8   18  -0.202  -0.350   0.123
    1UNL    C11   19  -0.154  -0.139   0.231
    1UNL     O9   20  -0.019  -0.184   0.266
    1UNL    C12   21  -0.037   0.132  -0.119
    1UNL    C13   22   0.102   0.074  -0.138
    1UNL    C14   23   0.127  -0.072  -0.111
    1UNL     N1   24   0.177  -0.130  -0.233
    1UNL    C15   25   0.216  -0.263  -0.227
    1UNL    C16   26   0.310  -0.297  -0.099
    1UNL    C17   27   0.289  -0.206   0.023
    1UNL    C18   28   0.207  -0.091   0.016
    1UNL     N2   29   0.201  -0.030   0.137
    1UNL    C19   30   0.282  -0.102   0.227
    1UNL    C20   31   0.315  -0.087   0.359
    1UNL    C21   32   0.399  -0.169   0.428
    1UNL    C22   33   0.455  -0.269   0.346
    1UNL    C23   34   0.424  -0.299   0.215
    1UNL    C24   35   0.330  -0.215   0.158
    1UNL    C25   36   0.192   0.162  -0.182
    1UNL    C26   37   0.118   0.287  -0.211
    1UNL    C27   38  -0.034   0.266  -0.189
    1UNL     H1   39  -0.135   0.787  -0.201
    1UNL     H2   40  -0.230   0.683  -0.293
    1UNL     H3   41  -0.311   0.761  -0.161
    1UNL     H4   42  -0.218   0.427   0.056
    1UNL     H5   43   0.027   0.210   0.053
    1UNL     H6   44  -0.230   0.042   0.138
    1UNL     H7   45  -0.386  -0.035  -0.042
    1UNL     H8   46  -0.283  -0.136  -0.236
    1UNL     H9   47  -0.428  -0.225  -0.172
    1UNL    H10   48  -0.211  -0.326  -0.055
    1UNL    H11   49  -0.446  -0.262   0.080
    1UNL    H12   50  -0.428  -0.023   0.219
    1UNL    H13   51  -0.307  -0.292   0.294
    1UNL    H14   52  -0.136  -0.395   0.177
    1UNL    H15   53  -0.184  -0.089   0.329
    1UNL    H16   54   0.049  -0.145   0.211
    1UNL    H17   55  -0.113   0.064  -0.161
    1UNL    H18   56   0.026  -0.121  -0.102
    1UNL    H19   57   0.250  -0.068  -0.267
    1UNL    H20   58   0.124  -0.330  -0.206
    1UNL    H21   59   0.264  -0.301  -0.321
    1UNL    H22   60   0.420  -0.301  -0.124
    1UNL    H23   61   0.294  -0.400  -0.064
    1UNL    H24   62   0.148   0.060   0.153
    1UNL    H25   63   0.259  -0.013   0.415
    1UNL    H26   64   0.438  -0.148   0.526
    1UNL    H27   65   0.526  -0.334   0.396
    1UNL    H28   66   0.468  -0.384   0.167
    1UNL    H29   67   0.298   0.138  -0.197
    1UNL    H30   68   0.153   0.369  -0.149
    1UNL    H31   69   0.138   0.324  -0.308
    1UNL    H32   70  -0.077   0.257  -0.284
   0.00000   0.00000   0.00000   0.00000   0.00000   0.00000   0.00000   0.00000   0.00000
Generated with MDTraj, t= 71.0
 70
    1UNL     C1    1  -0.182   0.736  -0.204
    1UNL     O1    2  -0.218   0.618  -0.134
    1UNL     C2    3  -0.138   0.514  -0.185
    1UNL     O2    4  -0.079   0.518  -0.297
    1UNL     C3    5  -0.108   0.390  -0.114
    1UNL     C4    6  -0.168   0.367   0.005
    1UNL     O3    7  -0.154   0.269   0.097
    1UNL     C5    8  -0.053   0.174   0.056
    1UNL     O4    9  -0.054   0.054   0.132
    1UNL     C6   10  -0.168  -0.023   0.114
    1UNL     O5   11  -0.188  -0.077  -0.012
    1UNL     C7   12  -0.329  -0.119  -0.032
    1UNL     C8   13  -0.340  -0.211  -0.158
    1UNL     O6   14  -0.287  -0.341  -0.134
    1UNL     C9   15  -0.380  -0.189   0.097
    1UNL     O7   16  -0.481  -0.121   0.168
    1UNL    C10   17  -0.262  -0.247   0.190
    1UNL     O8   18  -0.210  -0.364   0.129
    1UNL    C11   19  -0.153  -0.147   0.213
    1UNL     O9   20  -0.021  -0.198   0.212
    1UNL    C12   21  -0.025   0.143  -0.091
    1UNL    C13   22   0.106   0.077  -0.122
    1UNL    C14   23   0.135  -0.070  -0.107
    1UNL     N1   24   0.190  -0.137  -0.230
    1UNL    C15   25   0.226  -0.278  -0.214
    1UNL    C16   26   0.312  -0.316  -0.092
    1UNL    C17   27   0.298  -0.209   0.021
    1UNL    C18   28   0.224  -0.100   0.008
    1UNL     N2   29   0.215  -0.037   0.138
    1UNL    C19   30   0.308  -0.098   0.223
    1UNL    C20   31   0.328  -0.080   0.358
    1UNL    C21   32   0.413  -0.167   0.423
    1UNL    C22   33   0.463  -0.281   0.358
    1UNL    C23   34   0.439  -0.302   0.224
    1UNL    C24   35   0.357  -0.209   0.153
    1UNL    C25   36   0.186   0.166  -0.184
    1UNL    C26   37   0.118   0.298  -0.205
    1UNL    C27   38  -0.034   0.276  -0.174
    1UNL     H1   39  -0.078   0.743  -0.217
    1UNL     H2   40  -0.217   0.735  -0.302
    1UNL     H3   41  -0.225   0.827  -0.167
    1UNL     H4   42  -0.225   0.450   0.049
    1UNL     H5   43   0.033   0.220   0.090
    1UNL     H6   44  -0.252   0.043   0.147
    1UNL     H7   45  -0.395  -0.026  -0.047
    1UNL     H8   46  -0.284  -0.154  -0.236
    1UNL     H9   47  -0.445  -0.233  -0.179
    1UNL    H10   48  -0.249  -0.348  -0.048
    1UNL    H11   49  -0.430  -0.285   0.071
    1UNL    H12   50  -0.443  -0.053   0.215
    1UNL    H13   51  -0.301  -0.284   0.289
    1UNL    H14   52  -0.132  -0.383   0.186
    1UNL    H15   53  -0.164  -0.098   0.313
    1UNL    H16   54   0.053  -0.138   0.195
    1UNL    H17   55  -0.106   0.075  -0.121
    1UNL    H18   56   0.039  -0.120  -0.090
    1UNL    H19   57   0.259  -0.071  -0.265
    1UNL    H20   58   0.133  -0.350  -0.209
    1UNL    H21   59   0.293  -0.312  -0.296
    1UNL    H22   60   0.423  -0.321  -0.118
    1UNL    H23   61   0.291  -0.416  -0.054
    1UNL    H24   62   0.164   0.044   0.164
    1UNL    H25   63   0.282   0.000   0.417
    1UNL    H26   64   0.435  -0.140   0.525
    1UNL    H27   65   0.522  -0.344   0.417
    1UNL    H28   66   0.464  -0.392   0.170
    1UNL    H29   67   0.283   0.144  -0.223
    1UNL    H30   68   0.162   0.379  -0.148
    1UNL    H31   69   0.125   0.331  -0.306
    1UNL    H32   70  -0.086   0.259  -0.265
   0.00000   0.00000   0.00000   0.00000   0.00000   0.00000   0.00000   0.00000   0.00000
Generated with MDTraj, t= 72.0
 70
    1UNL     C1    1  -0.207   0.706  -0.210
    1UNL     O1    2  -0.163   0.619  -0.115
    1UNL     C2    3  -0.114   0.510  -0.189
    1UNL     O2    4  -0.071   0.511  -0.308
    1UNL     C3    5  -0.120   0.381  -0.122
    1UNL     C4    6  -0.169   0.360   0.005
    1UNL     O3    7  -0.163   0.255   0.091
    1UNL     C5    8  -0.059   0.166   0.053
    1UNL     O4    9  -0.056   0.053   0.141
    1UNL     C6   10  -0.169  -0.029   0.118
    1UNL     O5   11  -0.193  -0.077  -0.013
    1UNL     C7   12  -0.334  -0.115  -0.033
    1UNL     C8   13  -0.349  -0.193  -0.161
    1UNL     O6   14  -0.279  -0.319  -0.147
    1UNL     C9   15  -0.389  -0.190   0.088
    1UNL     O7   16  -0.477  -0.112   0.170
    1UNL    C10   17  -0.276  -0.254   0.189
    1UNL     O8   18  -0.228  -0.378   0.144
    1UNL    C11   19  -0.152  -0.157   0.212
    1UNL     O9   20  -0.024  -0.223   0.196
    1UNL    C12   21  -0.029   0.132  -0.098
    1UNL    C13   22   0.108   0.076  -0.126
    1UNL    C14   23   0.122  -0.070  -0.098
    1UNL     N1   24   0.187  -0.137  -0.224
    1UNL    C15   25   0.213  -0.282  -0.196
    1UNL    C16   26   0.324  -0.287  -0.090
    1UNL    C17   27   0.300  -0.191   0.020
    1UNL    C18   28   0.202  -0.091   0.023
    1UNL     N2   29   0.209  -0.030   0.147
    1UNL    C19   30   0.304  -0.090   0.230
    1UNL    C20   31   0.350  -0.070   0.359
    1UNL    C21   32   0.437  -0.165   0.411
    1UNL    C22   33   0.474  -0.283   0.346
    1UNL    C23   34   0.436  -0.298   0.215
    1UNL    C24   35   0.356  -0.195   0.154
    1UNL    C25   36   0.192   0.175  -0.173
    1UNL    C26   37   0.124   0.306  -0.204
    1UNL    C27   38  -0.033   0.272  -0.180
    1UNL     H1   39  -0.130   0.751  -0.268
    1UNL     H2   40  -0.272   0.663  -0.280
    1UNL     H3   41  -0.266   0.784  -0.164
    1UNL     H4   42  -0.245   0.434   0.041
    1UNL     H5   43   0.022   0.223   0.082
    1UNL     H6   44  -0.260   0.031   0.150
    1UNL     H7   45  -0.394  -0.017  -0.041
    1UNL     H8   46  -0.295  -0.141  -0.246
    1UNL     H9   47  -0.456  -0.209  -0.176
    1UNL    H10   48  -0.258  -0.323  -0.046
    1UNL    H11   49  -0.452  -0.277   0.058
    1UNL    H12   50  -0.431  -0.038   0.202
    1UNL    H13   51  -0.330  -0.266   0.285
    1UNL    H14   52  -0.136  -0.383   0.184
    1UNL    H15   53  -0.164  -0.125   0.316
    1UNL    H16   54   0.038  -0.153   0.177
    1UNL    H17   55  -0.111   0.066  -0.130
    1UNL    H18   56   0.023  -0.110  -0.075
    1UNL    H19   57   0.271  -0.080  -0.227
    1UNL    H20   58   0.123  -0.334  -0.141
    1UNL    H21   59   0.244  -0.351  -0.279
    1UNL    H22   60   0.425  -0.267  -0.139
    1UNL    H23   61   0.340  -0.382  -0.039
    1UNL    H24   62   0.158   0.043   0.190
    1UNL    H25   63   0.338   0.028   0.395
    1UNL    H26   64   0.477  -0.144   0.512
    1UNL    H27   65   0.535  -0.363   0.396
    1UNL    H28   66   0.478  -0.379   0.156
    1UNL    H29   67   0.294   0.162  -0.201
    1UNL    H30   68   0.154   0.384  -0.134
    1UNL    H31   69   0.144   0.341  -0.302
    1UNL    H32   70  -0.080   0.252  -0.273
   0.00000   0.00000   0.00000   0.00000   0.00000   0.00000   0.00000   0.00000   0.00000
Generated with MDTraj, t= 73.0
 70
    1UNL     C1    1  -0.193   0.725  -0.203
    1UNL     O1    2  -0.209   0.618  -0.120
    1UNL     C2    3  -0.127   0.515  -0.180
    1UNL     O2    4  -0.068   0.529  -0.291
    1UNL     C3    5  -0.105   0.384  -0.117
    1UNL     C4    6  -0.174   0.350  -0.003
    1UNL     O3    7  -0.175   0.238   0.071
    1UNL     C5    8  -0.061   0.162   0.046
    1UNL     O4    9  -0.048   0.045   0.129
    1UNL     C6   10  -0.167  -0.032   0.117
    1UNL     O5   11  -0.200  -0.071  -0.014
    1UNL     C7   12  -0.339  -0.106  -0.031
    1UNL     C8   13  -0.344  -0.190  -0.164
    1UNL     O6   14  -0.245  -0.292  -0.151
    1UNL     C9   15  -0.391  -0.176   0.099
    1UNL     O7   16  -0.469  -0.085   0.180
    1UNL    C10   17  -0.279  -0.252   0.190
    1UNL     O8   18  -0.228  -0.361   0.114
    1UNL    C11   19  -0.157  -0.149   0.217
    1UNL     O9   20  -0.035  -0.222   0.197
    1UNL    C12   21  -0.040   0.134  -0.104
    1UNL    C13   22   0.092   0.063  -0.128
    1UNL    C14   23   0.117  -0.082  -0.096
    1UNL     N1   24   0.160  -0.158  -0.218
    1UNL    C15   25   0.202  -0.289  -0.191
    1UNL    C16   26   0.326  -0.307  -0.097
    1UNL    C17   27   0.303  -0.216   0.030
    1UNL    C18   28   0.213  -0.106   0.020
    1UNL     N2   29   0.200  -0.054   0.145
    1UNL    C19   30   0.304  -0.104   0.226
    1UNL    C20   31   0.335  -0.086   0.366
    1UNL    C21   32   0.434  -0.155   0.430
    1UNL    C22   33   0.514  -0.240   0.350
    1UNL    C23   34   0.488  -0.269   0.216
    1UNL    C24   35   0.379  -0.204   0.154
    1UNL    C25   36   0.184   0.155  -0.163
    1UNL    C26   37   0.126   0.287  -0.194
    1UNL    C27   38  -0.026   0.267  -0.184
    1UNL     H1   39  -0.088   0.729  -0.240
    1UNL     H2   40  -0.255   0.725  -0.293
    1UNL     H3   41  -0.218   0.822  -0.152
    1UNL     H4   42  -0.244   0.424   0.030
    1UNL     H5   43   0.022   0.219   0.071
    1UNL     H6   44  -0.255   0.039   0.139
    1UNL     H7   45  -0.394  -0.011  -0.063
    1UNL     H8   46  -0.321  -0.116  -0.248
    1UNL     H9   47  -0.441  -0.239  -0.173
    1UNL    H10   48  -0.231  -0.321  -0.062
    1UNL    H11   49  -0.463  -0.253   0.063
    1UNL    H12   50  -0.432   0.002   0.184
    1UNL    H13   51  -0.317  -0.277   0.289
    1UNL    H14   52  -0.137  -0.374   0.143
    1UNL    H15   53  -0.158  -0.121   0.320
    1UNL    H16   54   0.040  -0.156   0.180
    1UNL    H17   55  -0.123   0.074  -0.146
    1UNL    H18   56   0.021  -0.121  -0.071
    1UNL    H19   57   0.216  -0.104  -0.285
    1UNL    H20   58   0.114  -0.352  -0.147
    1UNL    H21   59   0.225  -0.347  -0.282
    1UNL    H22   60   0.432  -0.292  -0.141
    1UNL    H23   61   0.326  -0.413  -0.069
    1UNL    H24   62   0.145   0.030   0.177
    1UNL    H25   63   0.275  -0.009   0.420
    1UNL    H26   64   0.444  -0.143   0.533
    1UNL    H27   65   0.583  -0.301   0.397
    1UNL    H28   66   0.544  -0.338   0.158
    1UNL    H29   67   0.291   0.134  -0.162
    1UNL    H30   68   0.154   0.351  -0.110
    1UNL    H31   69   0.158   0.324  -0.289
    1UNL    H32   70  -0.060   0.244  -0.283
   0.00000   0.00000   0.00000   0.00000   0.00000   0.00000   0.00000   0.00000   0.00000
Generated with MDTraj, t= 74.0
 70
    1UNL     C1    1  -0.182   0.703  -0.174
    1UNL     O1    2  -0.204   0.579  -0.125
    1UNL     C2    3  -0.114   0.497  -0.186
    1UNL     O2    4  -0.039   0.530  -0.283
    1UNL     C3    5  -0.103   0.372  -0.116
    1UNL     C4    6  -0.182   0.342  -0.010
    1UNL     O3    7  -0.178   0.242   0.075
    1UNL     C5    8  -0.060   0.164   0.048
    1UNL     O4    9  -0.059   0.053   0.135
    1UNL     C6   10  -0.177  -0.028   0.122
    1UNL     O5   11  -0.198  -0.070  -0.008
    1UNL     C7   12  -0.337  -0.101  -0.025
    1UNL     C8   13  -0.341  -0.177  -0.161
    1UNL     O6   14  -0.249  -0.286  -0.167
    1UNL     C9   15  -0.402  -0.179   0.090
    1UNL     O7   16  -0.487  -0.094   0.167
    1UNL    C10   17  -0.293  -0.249   0.184
    1UNL     O8   18  -0.237  -0.354   0.112
    1UNL    C11   19  -0.178  -0.150   0.219
    1UNL     O9   20  -0.053  -0.218   0.211
    1UNL    C12   21  -0.031   0.125  -0.097
    1UNL    C13   22   0.100   0.055  -0.120
    1UNL    C14   23   0.109  -0.090  -0.093
    1UNL     N1   24   0.147  -0.165  -0.223
    1UNL    C15   25   0.209  -0.287  -0.189
    1UNL    C16   26   0.334  -0.281  -0.094
    1UNL    C17   27   0.303  -0.189   0.022
    1UNL    C18   28   0.203  -0.105   0.026
    1UNL     N2   29   0.215  -0.033   0.145
    1UNL    C19   30   0.307  -0.096   0.228
    1UNL    C20   31   0.352  -0.068   0.358
    1UNL    C21   32   0.454  -0.143   0.412
    1UNL    C22   33   0.523  -0.237   0.331
    1UNL    C23   34   0.482  -0.256   0.204
    1UNL    C24   35   0.367  -0.193   0.154
    1UNL    C25   36   0.192   0.134  -0.173
    1UNL    C26   37   0.128   0.272  -0.187
    1UNL    C27   38  -0.026   0.256  -0.175
    1UNL     H1   39  -0.087   0.746  -0.123
    1UNL     H2   40  -0.155   0.708  -0.284
    1UNL     H3   41  -0.272   0.770  -0.155
    1UNL     H4   42  -0.241   0.423   0.024
    1UNL     H5   43   0.022   0.221   0.080
    1UNL     H6   44  -0.264   0.046   0.136
    1UNL     H7   45  -0.394  -0.005  -0.037
    1UNL     H8   46  -0.311  -0.112  -0.249
    1UNL     H9   47  -0.444  -0.211  -0.173
    1UNL    H10   48  -0.251  -0.319  -0.070
    1UNL    H11   49  -0.469  -0.258   0.049
    1UNL    H12   50  -0.439  -0.034   0.227
    1UNL    H13   51  -0.339  -0.291   0.272
    1UNL    H14   52  -0.145  -0.382   0.144
    1UNL    H15   53  -0.182  -0.118   0.318
    1UNL    H16   54   0.036  -0.163   0.204
    1UNL    H17   55  -0.110   0.059  -0.138
    1UNL    H18   56   0.012  -0.127  -0.065
    1UNL    H19   57   0.206  -0.104  -0.280
    1UNL    H20   58   0.131  -0.356  -0.138
    1UNL    H21   59   0.226  -0.349  -0.278
    1UNL    H22   60   0.414  -0.229  -0.157
    1UNL    H23   61   0.377  -0.377  -0.060
    1UNL    H24   62   0.125   0.020   0.173
    1UNL    H25   63   0.300   0.007   0.410
    1UNL    H26   64   0.488  -0.125   0.517
    1UNL    H27   65   0.616  -0.282   0.375
    1UNL    H28   66   0.524  -0.339   0.146
    1UNL    H29   67   0.291   0.107  -0.197
    1UNL    H30   68   0.165   0.342  -0.112
    1UNL    H31   69   0.142   0.303  -0.289
    1UNL    H32   70  -0.065   0.239  -0.275
   0.00000   0.00000   0.00000   0.00000   0.00000   0.00000   0.00000   0.00000   0.00000
Generated with MDTraj, t= 75.0
 70
    1UNL     C1    1  -0.173   0.707  -0.213
    1UNL     O1    2  -0.178   0.608  -0.117
    1UNL     C2    3  -0.099   0.510  -0.169
    1UNL     O2    4  -0.015   0.527  -0.260
    1UNL     C3    5  -0.108   0.381  -0.117
    1UNL     C4    6  -0.173   0.360  -0.001
    1UNL     O3    7  -0.186   0.253   0.084
    1UNL     C5    8  -0.073   0.163   0.061
    1UNL     O4    9  -0.055   0.047   0.138
    1UNL     C6   10  -0.172  -0.033   0.121
    1UNL     O5   11  -0.205  -0.073  -0.015
    1UNL     C7   12  -0.345  -0.106  -0.033
    1UNL     C8   13  -0.361  -0.178  -0.170
    1UNL     O6   14  -0.293  -0.296  -0.177
    1UNL     C9   15  -0.407  -0.189   0.078
    1UNL     O7   16  -0.505  -0.123   0.154
    1UNL    C10   17  -0.299  -0.257   0.171
    1UNL     O8   18  -0.243  -0.373   0.115
    1UNL    C11   19  -0.190  -0.154   0.223
    1UNL     O9   20  -0.066  -0.215   0.240
    1UNL    C12   21  -0.050   0.130  -0.084
    1UNL    C13   22   0.083   0.057  -0.121
    1UNL    C14   23   0.127  -0.091  -0.095
    1UNL     N1   24   0.168  -0.177  -0.214
    1UNL    C15   25   0.224  -0.307  -0.185
    1UNL    C16   26   0.345  -0.291  -0.095
    1UNL    C17   27   0.316  -0.205   0.026
    1UNL    C18   28   0.217  -0.105   0.020
    1UNL     N2   29   0.211  -0.043   0.144
    1UNL    C19   30   0.313  -0.090   0.229
    1UNL    C20   31   0.371  -0.052   0.352
    1UNL    C21   32   0.479  -0.118   0.398
    1UNL    C22   33   0.543  -0.226   0.330
    1UNL    C23   34   0.490  -0.256   0.203
    1UNL    C24   35   0.377  -0.191   0.153
    1UNL    C25   36   0.173   0.144  -0.167
    1UNL    C26   37   0.115   0.283  -0.197
    1UNL    C27   38  -0.043   0.261  -0.172
    1UNL     H1   39  -0.073   0.763  -0.206
    1UNL     H2   40  -0.171   0.664  -0.315
    1UNL     H3   41  -0.259   0.777  -0.201
    1UNL     H4   42  -0.227   0.442   0.049
    1UNL     H5   43   0.002   0.230   0.098
    1UNL     H6   44  -0.248   0.053   0.138
    1UNL     H7   45  -0.397  -0.008  -0.035
    1UNL     H8   46  -0.317  -0.103  -0.243
    1UNL     H9   47  -0.463  -0.202  -0.200
    1UNL    H10   48  -0.273  -0.330  -0.091
    1UNL    H11   49  -0.463  -0.275   0.038
    1UNL    H12   50  -0.464  -0.049   0.213
    1UNL    H13   51  -0.357  -0.298   0.252
    1UNL    H14   52  -0.167  -0.406   0.162
    1UNL    H15   53  -0.216  -0.113   0.315
    1UNL    H16   54   0.014  -0.146   0.228
    1UNL    H17   55  -0.139   0.073  -0.117
    1UNL    H18   56   0.038  -0.139  -0.056
    1UNL    H19   57   0.219  -0.115  -0.279
    1UNL    H20   58   0.142  -0.378  -0.148
    1UNL    H21   59   0.250  -0.361  -0.276
    1UNL    H22   60   0.420  -0.231  -0.156
    1UNL    H23   61   0.391  -0.389  -0.068
    1UNL    H24   62   0.141   0.031   0.151
    1UNL    H25   63   0.312   0.012   0.418
    1UNL    H26   64   0.527  -0.087   0.485
    1UNL    H27   65   0.627  -0.280   0.366
    1UNL    H28   66   0.533  -0.337   0.150
    1UNL    H29   67   0.278   0.117  -0.188
    1UNL    H30   68   0.154   0.361  -0.133
    1UNL    H31   69   0.127   0.314  -0.301
    1UNL    H32   70  -0.098   0.240  -0.265
   0.00000   0.00000   0.00000   0.00000   0.00000   0.00000   0.00000   0.00000   0.00000
Generated with MDTraj, t= 76.0
 70
    1UNL     C1    1  -0.148   0.718  -0.205
    1UNL     O1    2  -0.174   0.605  -0.122
    1UNL     C2    3  -0.087   0.508  -0.172
    1UNL     O2    4  -0.011   0.523  -0.272
    1UNL     C3    5  -0.088   0.380  -0.099
    1UNL     C4    6  -0.162   0.364   0.019
    1UNL     O3    7  -0.171   0.245   0.087
    1UNL     C5    8  -0.057   0.163   0.058
    1UNL     O4    9  -0.065   0.039   0.129
    1UNL     C6   10  -0.185  -0.031   0.118
    1UNL     O5   11  -0.223  -0.070  -0.019
    1UNL     C7   12  -0.361  -0.116  -0.037
    1UNL     C8   13  -0.374  -0.201  -0.172
    1UNL     O6   14  -0.307  -0.324  -0.168
    1UNL     C9   15  -0.414  -0.201   0.085
    1UNL     O7   16  -0.503  -0.129   0.163
    1UNL    C10   17  -0.288  -0.262   0.161
    1UNL     O8   18  -0.223  -0.361   0.084
    1UNL    C11   19  -0.186  -0.155   0.218
    1UNL     O9   20  -0.070  -0.224   0.241
    1UNL    C12   21  -0.038   0.128  -0.088
    1UNL    C13   22   0.095   0.057  -0.113
    1UNL    C14   23   0.104  -0.090  -0.088
    1UNL     N1   24   0.158  -0.157  -0.210
    1UNL    C15   25   0.208  -0.295  -0.194
    1UNL    C16   26   0.319  -0.296  -0.086
    1UNL    C17   27   0.303  -0.196   0.025
    1UNL    C18   28   0.191  -0.120   0.035
    1UNL     N2   29   0.198  -0.052   0.154
    1UNL    C19   30   0.314  -0.080   0.224
    1UNL    C20   31   0.368  -0.044   0.356
    1UNL    C21   32   0.480  -0.104   0.403
    1UNL    C22   33   0.543  -0.190   0.314
    1UNL    C23   34   0.502  -0.230   0.189
    1UNL    C24   35   0.381  -0.174   0.147
    1UNL    C25   36   0.187   0.144  -0.151
    1UNL    C26   37   0.124   0.271  -0.195
    1UNL    C27   38  -0.023   0.257  -0.167
    1UNL     H1   39  -0.052   0.697  -0.255
    1UNL     H2   40  -0.217   0.719  -0.288
    1UNL     H3   41  -0.143   0.810  -0.151
    1UNL     H4   42  -0.231   0.445   0.053
    1UNL     H5   43   0.030   0.222   0.087
    1UNL     H6   44  -0.265   0.044   0.149
    1UNL     H7   45  -0.430  -0.034  -0.046
    1UNL     H8   46  -0.331  -0.151  -0.263
    1UNL     H9   47  -0.478  -0.214  -0.192
    1UNL    H10   48  -0.264  -0.333  -0.074
    1UNL    H11   49  -0.467  -0.284   0.040
    1UNL    H12   50  -0.456  -0.039   0.193
    1UNL    H13   51  -0.318  -0.308   0.255
    1UNL    H14   52  -0.131  -0.377   0.125
    1UNL    H15   53  -0.224  -0.131   0.312
    1UNL    H16   54   0.006  -0.160   0.211
    1UNL    H17   55  -0.122   0.071  -0.131
    1UNL    H18   56   0.001  -0.124  -0.073
    1UNL    H19   57   0.231  -0.095  -0.248
    1UNL    H20   58   0.125  -0.374  -0.192
    1UNL    H21   59   0.249  -0.328  -0.288
    1UNL    H22   60   0.421  -0.295  -0.136
    1UNL    H23   61   0.305  -0.396  -0.036
    1UNL    H24   62   0.130   0.016   0.172
    1UNL    H25   63   0.311   0.027   0.415
    1UNL    H26   64   0.512  -0.086   0.508
    1UNL    H27   65   0.640  -0.226   0.341
    1UNL    H28   66   0.566  -0.280   0.116
    1UNL    H29   67   0.289   0.120  -0.169
    1UNL    H30   68   0.164   0.361  -0.151
    1UNL    H31   69   0.137   0.285  -0.304
    1UNL    H32   70  -0.079   0.239  -0.262
   0.00000   0.00000   0.00000   0.00000   0.00000   0.00000   0.00000   0.00000   0.00000
Generated with MDTraj, t= 77.0
 70
    1UNL     C1    1  -0.133   0.727  -0.178
    1UNL     O1    2  -0.141   0.617  -0.100
    1UNL     C2    3  -0.085   0.519  -0.167
    1UNL     O2    4  -0.041   0.527  -0.285
    1UNL     C3    5  -0.080   0.387  -0.107
    1UNL     C4    6  -0.162   0.358  -0.003
    1UNL     O3    7  -0.180   0.242   0.064
    1UNL     C5    8  -0.071   0.157   0.043
    1UNL     O4    9  -0.069   0.042   0.128
    1UNL     C6   10  -0.181  -0.036   0.113
    1UNL     O5   11  -0.211  -0.086  -0.019
    1UNL     C7   12  -0.344  -0.128  -0.027
    1UNL     C8   13  -0.371  -0.180  -0.172
    1UNL     O6   14  -0.305  -0.301  -0.193
    1UNL     C9   15  -0.407  -0.209   0.090
    1UNL     O7   16  -0.493  -0.137   0.169
    1UNL    C10   17  -0.293  -0.271   0.178
    1UNL     O8   18  -0.217  -0.362   0.100
    1UNL    C11   19  -0.179  -0.160   0.221
    1UNL     O9   20  -0.050  -0.220   0.228
    1UNL    C12   21  -0.053   0.124  -0.104
    1UNL    C13   22   0.083   0.046  -0.126
    1UNL    C14   23   0.100  -0.098  -0.091
    1UNL     N1   24   0.135  -0.181  -0.211
    1UNL    C15   25   0.204  -0.306  -0.166
    1UNL    C16   26   0.328  -0.279  -0.086
    1UNL    C17   27   0.293  -0.205   0.035
    1UNL    C18   28   0.189  -0.118   0.027
    1UNL     N2   29   0.185  -0.054   0.149
    1UNL    C19   30   0.298  -0.082   0.225
    1UNL    C20   31   0.353  -0.037   0.343
    1UNL    C21   32   0.480  -0.072   0.383
    1UNL    C22   33   0.546  -0.177   0.319
    1UNL    C23   34   0.492  -0.231   0.206
    1UNL    C24   35   0.375  -0.181   0.154
    1UNL    C25   36   0.182   0.126  -0.157
    1UNL    C26   37   0.136   0.264  -0.165
    1UNL    C27   38  -0.017   0.267  -0.171
    1UNL     H1   39  -0.032   0.763  -0.178
    1UNL     H2   40  -0.162   0.695  -0.275
    1UNL     H3   41  -0.205   0.788  -0.135
    1UNL     H4   42  -0.224   0.441   0.025
    1UNL     H5   43   0.017   0.216   0.071
    1UNL     H6   44  -0.264   0.028   0.148
    1UNL     H7   45  -0.394  -0.034  -0.016
    1UNL     H8   46  -0.334  -0.099  -0.237
    1UNL     H9   47  -0.472  -0.202  -0.194
    1UNL    H10   48  -0.265  -0.327  -0.110
    1UNL    H11   49  -0.466  -0.286   0.045
    1UNL    H12   50  -0.449  -0.050   0.214
    1UNL    H13   51  -0.342  -0.311   0.269
    1UNL    H14   52  -0.126  -0.350   0.124
    1UNL    H15   53  -0.201  -0.129   0.319
    1UNL    H16   54   0.021  -0.164   0.181
    1UNL    H17   55  -0.140   0.065  -0.144
    1UNL    H18   56  -0.002  -0.134  -0.067
    1UNL    H19   57   0.183  -0.136  -0.291
    1UNL    H20   58   0.134  -0.381  -0.118
    1UNL    H21   59   0.222  -0.368  -0.252
    1UNL    H22   60   0.390  -0.211  -0.152
    1UNL    H23   61   0.387  -0.372  -0.062
    1UNL    H24   62   0.125   0.020   0.185
    1UNL    H25   63   0.305   0.040   0.395
    1UNL    H26   64   0.522  -0.044   0.475
    1UNL    H27   65   0.643  -0.217   0.359
    1UNL    H28   66   0.544  -0.303   0.145
    1UNL    H29   67   0.282   0.095  -0.183
    1UNL    H30   68   0.166   0.320  -0.078
    1UNL    H31   69   0.187   0.316  -0.248
    1UNL    H32   70  -0.044   0.262  -0.280
   0.00000   0.00000   0.00000   0.00000   0.00000   0.00000   0.00000   0.00000   0.00000
Generated with MDTraj, t= 78.0
 70
    1UNL     C1    1  -0.106   0.721  -0.147
    1UNL     O1    2  -0.135   0.591  -0.083
    1UNL     C2    3  -0.087   0.496  -0.173
    1UNL     O2    4  -0.020   0.524  -0.277
    1UNL     C3    5  -0.103   0.362  -0.125
    1UNL     C4    6  -0.174   0.343  -0.010
    1UNL     O3    7  -0.187   0.237   0.072
    1UNL     C5    8  -0.074   0.150   0.051
    1UNL     O4    9  -0.075   0.043   0.138
    1UNL     C6   10  -0.194  -0.029   0.125
    1UNL     O5   11  -0.218  -0.074  -0.009
    1UNL     C7   12  -0.358  -0.108  -0.031
    1UNL     C8   13  -0.362  -0.179  -0.175
    1UNL     O6   14  -0.271  -0.285  -0.184
    1UNL     C9   15  -0.406  -0.201   0.088
    1UNL     O7   16  -0.494  -0.137   0.176
    1UNL    C10   17  -0.282  -0.269   0.166
    1UNL     O8   18  -0.211  -0.371   0.097
    1UNL    C11   19  -0.184  -0.159   0.217
    1UNL     O9   20  -0.060  -0.215   0.211
    1UNL    C12   21  -0.049   0.123  -0.100
    1UNL    C13   22   0.079   0.045  -0.128
    1UNL    C14   23   0.099  -0.097  -0.088
    1UNL     N1   24   0.132  -0.184  -0.199
    1UNL    C15   25   0.198  -0.311  -0.169
    1UNL    C16   26   0.318  -0.297  -0.083
    1UNL    C17   27   0.305  -0.192   0.018
    1UNL    C18   28   0.192  -0.113   0.023
    1UNL     N2   29   0.204  -0.030   0.135
    1UNL    C19   30   0.311  -0.069   0.214
    1UNL    C20   31   0.355  -0.024   0.338
    1UNL    C21   32   0.462  -0.081   0.398
    1UNL    C22   33   0.539  -0.174   0.331
    1UNL    C23   34   0.493  -0.225   0.210
    1UNL    C24   35   0.380  -0.165   0.145
    1UNL    C25   36   0.174   0.126  -0.173
    1UNL    C26   37   0.121   0.267  -0.194
    1UNL    C27   38  -0.031   0.254  -0.181
    1UNL     H1   39   0.001   0.730  -0.168
    1UNL     H2   40  -0.161   0.708  -0.239
    1UNL     H3   41  -0.146   0.803  -0.096
    1UNL     H4   42  -0.207   0.430   0.040
    1UNL     H5   43   0.017   0.209   0.089
    1UNL     H6   44  -0.271   0.037   0.164
    1UNL     H7   45  -0.417  -0.020  -0.014
    1UNL     H8   46  -0.324  -0.110  -0.251
    1UNL     H9   47  -0.460  -0.212  -0.197
    1UNL    H10   48  -0.245  -0.323  -0.090
    1UNL    H11   49  -0.459  -0.284   0.046
    1UNL    H12   50  -0.437  -0.058   0.217
    1UNL    H13   51  -0.328  -0.324   0.251
    1UNL    H14   52  -0.110  -0.367   0.110
    1UNL    H15   53  -0.192  -0.123   0.320
    1UNL    H16   54   0.013  -0.152   0.207
    1UNL    H17   55  -0.141   0.066  -0.129
    1UNL    H18   56  -0.003  -0.135  -0.058
    1UNL    H19   57   0.198  -0.137  -0.261
    1UNL    H20   58   0.118  -0.379  -0.131
    1UNL    H21   59   0.214  -0.370  -0.256
    1UNL    H22   60   0.403  -0.270  -0.149
    1UNL    H23   61   0.344  -0.397  -0.034
    1UNL    H24   62   0.129   0.041   0.163
    1UNL    H25   63   0.293   0.052   0.390
    1UNL    H26   64   0.492  -0.051   0.499
    1UNL    H27   65   0.621  -0.219   0.371
    1UNL    H28   66   0.543  -0.305   0.159
    1UNL    H29   67   0.279   0.097  -0.181
    1UNL    H30   68   0.164   0.339  -0.124
    1UNL    H31   69   0.146   0.311  -0.294
    1UNL    H32   70  -0.065   0.245  -0.290
   0.00000   0.00000   0.00000   0.00000   0.00000   0.00000   0.00000   0.00000   0.00000
Generated with MDTraj, t= 79.0
 70
    1UNL     C1    1  -0.073   0.729  -0.154
    1UNL     O1    2  -0.142   0.624  -0.093
    1UNL     C2    3  -0.087   0.513  -0.155
    1UNL     O2    4  -0.011   0.519  -0.256
    1UNL     C3    5  -0.106   0.375  -0.111
    1UNL     C4    6  -0.181   0.350   0.001
    1UNL     O3    7  -0.195   0.233   0.072
    1UNL     C5    8  -0.077   0.149   0.049
    1UNL     O4    9  -0.066   0.036   0.126
    1UNL     C6   10  -0.184  -0.044   0.114
    1UNL     O5   11  -0.218  -0.080  -0.019
    1UNL     C7   12  -0.356  -0.106  -0.034
    1UNL     C8   13  -0.367  -0.185  -0.160
    1UNL     O6   14  -0.266  -0.277  -0.174
    1UNL     C9   15  -0.405  -0.209   0.084
    1UNL     O7   16  -0.493  -0.142   0.170
    1UNL    C10   17  -0.282  -0.271   0.160
    1UNL     O8   18  -0.212  -0.363   0.092
    1UNL    C11   19  -0.182  -0.166   0.212
    1UNL     O9   20  -0.050  -0.219   0.216
    1UNL    C12   21  -0.056   0.121  -0.101
    1UNL    C13   22   0.074   0.050  -0.129
    1UNL    C14   23   0.105  -0.091  -0.083
    1UNL     N1   24   0.153  -0.180  -0.192
    1UNL    C15   25   0.214  -0.310  -0.172
    1UNL    C16   26   0.328  -0.305  -0.063
    1UNL    C17   27   0.303  -0.196   0.037
    1UNL    C18   28   0.197  -0.106   0.035
    1UNL     N2   29   0.201  -0.025   0.150
    1UNL    C19   30   0.310  -0.067   0.228
    1UNL    C20   31   0.366  -0.022   0.347
    1UNL    C21   32   0.473  -0.083   0.399
    1UNL    C22   33   0.530  -0.189   0.326
    1UNL    C23   34   0.491  -0.236   0.205
    1UNL    C24   35   0.377  -0.170   0.157
    1UNL    C25   36   0.149   0.127  -0.211
    1UNL    C26   37   0.080   0.258  -0.254
    1UNL    C27   38  -0.057   0.255  -0.184
    1UNL     H1   39   0.038   0.701  -0.169
    1UNL     H2   40  -0.136   0.740  -0.248
    1UNL     H3   41  -0.088   0.813  -0.088
    1UNL     H4   42  -0.242   0.426   0.053
    1UNL     H5   43   0.018   0.209   0.078
    1UNL     H6   44  -0.258   0.021   0.153
    1UNL     H7   45  -0.421  -0.019  -0.035
    1UNL     H8   46  -0.370  -0.127  -0.252
    1UNL     H9   47  -0.457  -0.245  -0.159
    1UNL    H10   48  -0.242  -0.300  -0.082
    1UNL    H11   49  -0.463  -0.288   0.037
    1UNL    H12   50  -0.466  -0.053   0.214
    1UNL    H13   51  -0.329  -0.323   0.246
    1UNL    H14   52  -0.124  -0.374   0.126
    1UNL    H15   53  -0.200  -0.135   0.319
    1UNL    H16   54   0.012  -0.153   0.187
    1UNL    H17   55  -0.142   0.057  -0.134
    1UNL    H18   56   0.004  -0.130  -0.049
    1UNL    H19   57   0.201  -0.120  -0.261
    1UNL    H20   58   0.130  -0.379  -0.145
    1UNL    H21   59   0.225  -0.354  -0.267
    1UNL    H22   60   0.416  -0.275  -0.120
    1UNL    H23   61   0.345  -0.409  -0.017
    1UNL    H24   62   0.125   0.051   0.170
    1UNL    H25   63   0.311   0.050   0.402
    1UNL    H26   64   0.512  -0.053   0.494
    1UNL    H27   65   0.626  -0.236   0.368
    1UNL    H28   66   0.515  -0.329   0.156
    1UNL    H29   67   0.250   0.105  -0.234
    1UNL    H30   68   0.133   0.351  -0.227
    1UNL    H31   69   0.071   0.262  -0.365
    1UNL    H32   70  -0.134   0.245  -0.269
   0.00000   0.00000   0.00000   0.00000   0.00000   0.00000   0.00000   0.00000   0.00000
Generated with MDTraj, t= 80.0
 70
    1UNL     C1    1  -0.101   0.730  -0.145
    1UNL     O1    2  -0.095   0.608  -0.079
    1UNL     C2    3  -0.059   0.509  -0.163
    1UNL     O2    4  -0.013   0.521  -0.281
    1UNL     C3    5  -0.098   0.374  -0.111
    1UNL     C4    6  -0.162   0.364   0.010
    1UNL     O3    7  -0.176   0.255   0.088
    1UNL     C5    8  -0.078   0.158   0.047
    1UNL     O4    9  -0.074   0.050   0.131
    1UNL     C6   10  -0.179  -0.041   0.113
    1UNL     O5   11  -0.203  -0.087  -0.013
    1UNL     C7   12  -0.342  -0.125  -0.030
    1UNL     C8   13  -0.375  -0.192  -0.166
    1UNL     O6   14  -0.303  -0.309  -0.175
    1UNL     C9   15  -0.388  -0.218   0.089
    1UNL     O7   16  -0.482  -0.150   0.166
    1UNL    C10   17  -0.276  -0.283   0.169
    1UNL     O8   18  -0.203  -0.372   0.086
    1UNL    C11   19  -0.173  -0.161   0.216
    1UNL     O9   20  -0.043  -0.223   0.216
    1UNL    C12   21  -0.062   0.116  -0.100
    1UNL    C13   22   0.073   0.054  -0.123
    1UNL    C14   23   0.108  -0.082  -0.088
    1UNL     N1   24   0.151  -0.169  -0.204
    1UNL    C15   25   0.200  -0.297  -0.159
    1UNL    C16   26   0.328  -0.283  -0.079
    1UNL    C17   27   0.292  -0.189   0.029
    1UNL    C18   28   0.204  -0.086   0.022
    1UNL     N2   29   0.194  -0.017   0.138
    1UNL    C19   30   0.295  -0.063   0.221
    1UNL    C20   31   0.344  -0.019   0.342
    1UNL    C21   32   0.456  -0.081   0.398
    1UNL    C22   33   0.516  -0.195   0.336
    1UNL    C23   34   0.469  -0.237   0.217
    1UNL    C24   35   0.360  -0.175   0.153
    1UNL    C25   36   0.152   0.125  -0.203
    1UNL    C26   37   0.080   0.249  -0.245
    1UNL    C27   38  -0.061   0.244  -0.187
    1UNL     H1   39  -0.018   0.802  -0.106
    1UNL     H2   40  -0.099   0.693  -0.255
    1UNL     H3   41  -0.203   0.769  -0.126
    1UNL     H4   42  -0.213   0.459   0.041
    1UNL     H5   43   0.026   0.209   0.065
    1UNL     H6   44  -0.262   0.018   0.136
    1UNL     H7   45  -0.406  -0.034  -0.030
    1UNL     H8   46  -0.327  -0.123  -0.238
    1UNL     H9   47  -0.480  -0.206  -0.194
    1UNL    H10   48  -0.259  -0.342  -0.086
    1UNL    H11   49  -0.430  -0.300   0.027
    1UNL    H12   50  -0.448  -0.069   0.210
    1UNL    H13   51  -0.326  -0.336   0.253
    1UNL    H14   52  -0.103  -0.347   0.089
    1UNL    H15   53  -0.200  -0.127   0.322
    1UNL    H16   54   0.023  -0.158   0.203
    1UNL    H17   55  -0.149   0.052  -0.127
    1UNL    H18   56   0.013  -0.134  -0.051
    1UNL    H19   57   0.223  -0.116  -0.252
    1UNL    H20   58   0.115  -0.349  -0.112
    1UNL    H21   59   0.208  -0.363  -0.240
    1UNL    H22   60   0.404  -0.247  -0.150
    1UNL    H23   61   0.347  -0.388  -0.035
    1UNL    H24   62   0.121   0.050   0.172
    1UNL    H25   63   0.294   0.061   0.395
    1UNL    H26   64   0.502  -0.051   0.492
    1UNL    H27   65   0.602  -0.237   0.376
    1UNL    H28   66   0.511  -0.320   0.162
    1UNL    H29   67   0.253   0.093  -0.235
    1UNL    H30   68   0.137   0.339  -0.208
    1UNL    H31   69   0.075   0.255  -0.355
    1UNL    H32   70  -0.137   0.231  -0.273
   0.00000   0.00000   0.00000   0.00000   0.00000   0.00000   0.00000   0.00000   0.00000
Generated with MDTraj, t= 81.0
 70
    1UNL     C1    1  -0.078   0.749  -0.153
    1UNL     O1    2  -0.118   0.637  -0.084
    1UNL     C2    3  -0.089   0.520  -0.159
    1UNL     O2    4  -0.048   0.521  -0.278
    1UNL     C3    5  -0.096   0.387  -0.108
    1UNL     C4    6  -0.152   0.364   0.016
    1UNL     O3    7  -0.164   0.244   0.085
    1UNL     C5    8  -0.060   0.155   0.041
    1UNL     O4    9  -0.052   0.030   0.112
    1UNL     C6   10  -0.180  -0.036   0.113
    1UNL     O5   11  -0.217  -0.081  -0.017
    1UNL     C7   12  -0.349  -0.132  -0.032
    1UNL     C8   13  -0.360  -0.198  -0.167
    1UNL     O6   14  -0.318  -0.339  -0.169
    1UNL     C9   15  -0.386  -0.230   0.095
    1UNL     O7   16  -0.474  -0.159   0.187
    1UNL    C10   17  -0.260  -0.282   0.172
    1UNL     O8   18  -0.188  -0.370   0.092
    1UNL    C11   19  -0.171  -0.158   0.213
    1UNL     O9   20  -0.040  -0.207   0.225
    1UNL    C12   21  -0.055   0.132  -0.111
    1UNL    C13   22   0.066   0.048  -0.153
    1UNL    C14   23   0.091  -0.090  -0.093
    1UNL     N1   24   0.129  -0.186  -0.208
    1UNL    C15   25   0.199  -0.314  -0.167
    1UNL    C16   26   0.322  -0.296  -0.072
    1UNL    C17   27   0.302  -0.189   0.022
    1UNL    C18   28   0.200  -0.091   0.011
    1UNL     N2   29   0.203  -0.019   0.128
    1UNL    C19   30   0.293  -0.068   0.216
    1UNL    C20   31   0.320  -0.022   0.348
    1UNL    C21   32   0.422  -0.092   0.414
    1UNL    C22   33   0.498  -0.185   0.344
    1UNL    C23   34   0.469  -0.231   0.219
    1UNL    C24   35   0.356  -0.173   0.153
    1UNL    C25   36   0.161   0.125  -0.216
    1UNL    C26   37   0.119   0.269  -0.211
    1UNL    C27   38  -0.033   0.268  -0.183
    1UNL     H1   39   0.001   0.800  -0.090
    1UNL     H2   40  -0.039   0.705  -0.250
    1UNL     H3   41  -0.157   0.824  -0.169
    1UNL     H4   42  -0.175   0.458   0.066
    1UNL     H5   43   0.042   0.210   0.060
    1UNL     H6   44  -0.241   0.043   0.141
    1UNL     H7   45  -0.413  -0.044  -0.002
    1UNL     H8   46  -0.299  -0.148  -0.247
    1UNL     H9   47  -0.468  -0.198  -0.194
    1UNL    H10   48  -0.261  -0.348  -0.092
    1UNL    H11   49  -0.428  -0.331   0.071
    1UNL    H12   50  -0.441  -0.077   0.217
    1UNL    H13   51  -0.289  -0.333   0.265
    1UNL    H14   52  -0.119  -0.320   0.050
    1UNL    H15   53  -0.209  -0.118   0.315
    1UNL    H16   54   0.034  -0.154   0.200
    1UNL    H17   55  -0.152   0.083  -0.134
    1UNL    H18   56  -0.004  -0.131  -0.047
    1UNL    H19   57   0.175  -0.132  -0.281
    1UNL    H20   58   0.125  -0.378  -0.119
    1UNL    H21   59   0.211  -0.376  -0.250
    1UNL    H22   60   0.416  -0.278  -0.130
    1UNL    H23   61   0.322  -0.393  -0.013
    1UNL    H24   62   0.156   0.070   0.144
    1UNL    H25   63   0.271   0.063   0.397
    1UNL    H26   64   0.448  -0.062   0.513
    1UNL    H27   65   0.591  -0.228   0.383
    1UNL    H28   66   0.540  -0.277   0.153
    1UNL    H29   67   0.259   0.090  -0.231
    1UNL    H30   68   0.179   0.320  -0.129
    1UNL    H31   69   0.140   0.316  -0.309
    1UNL    H32   70  -0.091   0.257  -0.282
   0.00000   0.00000   0.00000   0.00000   0.00000   0.00000   0.00000   0.00000   0.00000
Generated with MDTraj, t= 82.0
 70
    1UNL     C1    1  -0.110   0.741  -0.143
    1UNL     O1    2  -0.114   0.617  -0.084
    1UNL     C2    3  -0.076   0.515  -0.169
    1UNL     O2    4  -0.029   0.530  -0.282
    1UNL     C3    5  -0.096   0.384  -0.124
    1UNL     C4    6  -0.170   0.360  -0.011
    1UNL     O3    7  -0.178   0.243   0.064
    1UNL     C5    8  -0.068   0.159   0.035
    1UNL     O4    9  -0.055   0.048   0.116
    1UNL     C6   10  -0.175  -0.033   0.115
    1UNL     O5   11  -0.213  -0.087  -0.014
    1UNL     C7   12  -0.348  -0.135  -0.027
    1UNL     C8   13  -0.379  -0.213  -0.151
    1UNL     O6   14  -0.302  -0.330  -0.173
    1UNL     C9   15  -0.389  -0.227   0.098
    1UNL     O7   16  -0.473  -0.155   0.191
    1UNL    C10   17  -0.260  -0.279   0.170
    1UNL     O8   18  -0.174  -0.364   0.099
    1UNL    C11   19  -0.165  -0.154   0.210
    1UNL     O9   20  -0.035  -0.206   0.237
    1UNL    C12   21  -0.043   0.133  -0.108
    1UNL    C13   22   0.080   0.059  -0.126
    1UNL    C14   23   0.093  -0.082  -0.093
    1UNL     N1   24   0.138  -0.162  -0.207
    1UNL    C15   25   0.184  -0.298  -0.181
    1UNL    C16   26   0.310  -0.298  -0.086
    1UNL    C17   27   0.291  -0.202   0.030
    1UNL    C18   28   0.192  -0.101   0.022
    1UNL     N2   29   0.188  -0.020   0.133
    1UNL    C19   30   0.296  -0.065   0.215
    1UNL    C20   31   0.337  -0.024   0.336
    1UNL    C21   32   0.433  -0.096   0.405
    1UNL    C22   33   0.489  -0.218   0.355
    1UNL    C23   34   0.465  -0.250   0.220
    1UNL    C24   35   0.364  -0.176   0.152
    1UNL    C25   36   0.169   0.143  -0.181
    1UNL    C26   37   0.116   0.274  -0.225
    1UNL    C27   38  -0.036   0.266  -0.191
    1UNL     H1   39  -0.023   0.785  -0.098
    1UNL     H2   40  -0.090   0.729  -0.250
    1UNL     H3   41  -0.187   0.812  -0.121
    1UNL     H4   42  -0.205   0.447   0.038
    1UNL     H5   43   0.028   0.224   0.062
    1UNL     H6   44  -0.249   0.032   0.148
    1UNL     H7   45  -0.408  -0.039  -0.033
    1UNL     H8   46  -0.356  -0.143  -0.236
    1UNL     H9   47  -0.489  -0.240  -0.156
    1UNL    H10   48  -0.254  -0.364  -0.090
    1UNL    H11   49  -0.432  -0.323   0.057
    1UNL    H12   50  -0.430  -0.077   0.210
    1UNL    H13   51  -0.295  -0.323   0.265
    1UNL    H14   52  -0.095  -0.309   0.064
    1UNL    H15   53  -0.208  -0.125   0.315
    1UNL    H16   54   0.030  -0.146   0.205
    1UNL    H17   55  -0.130   0.070  -0.141
    1UNL    H18   56  -0.004  -0.127  -0.061
    1UNL    H19   57   0.218  -0.112  -0.245
    1UNL    H20   58   0.102  -0.367  -0.160
    1UNL    H21   59   0.211  -0.340  -0.272
    1UNL    H22   60   0.394  -0.257  -0.147
    1UNL    H23   61   0.337  -0.400  -0.044
    1UNL    H24   62   0.123   0.054   0.143
    1UNL    H25   63   0.304   0.067   0.378
    1UNL    H26   64   0.455  -0.070   0.508
    1UNL    H27   65   0.556  -0.279   0.415
    1UNL    H28   66   0.518  -0.332   0.171
    1UNL    H29   67   0.272   0.113  -0.202
    1UNL    H30   68   0.163   0.356  -0.162
    1UNL    H31   69   0.143   0.293  -0.331
    1UNL    H32   70  -0.096   0.258  -0.290
   0.00000   0.00000   0.00000   0.00000   0.00000   0.00000   0.00000   0.00000   0.00000
Generated with MDTraj, t= 83.0
 70
    1UNL     C1    1  -0.122   0.742  -0.161
    1UNL     O1    2  -0.161   0.616  -0.115
    1UNL     C2    3  -0.080   0.518  -0.161
    1UNL     O2    4   0.007   0.537  -0.250
    1UNL     C3    5  -0.111   0.381  -0.117
    1UNL     C4    6  -0.202   0.353  -0.021
    1UNL     O3    7  -0.209   0.234   0.046
    1UNL     C5    8  -0.079   0.166   0.034
    1UNL     O4    9  -0.064   0.061   0.123
    1UNL     C6   10  -0.179  -0.027   0.120
    1UNL     O5   11  -0.208  -0.072  -0.010
    1UNL     C7   12  -0.343  -0.124  -0.021
    1UNL     C8   13  -0.369  -0.203  -0.152
    1UNL     O6   14  -0.264  -0.297  -0.162
    1UNL     C9   15  -0.380  -0.216   0.103
    1UNL     O7   16  -0.483  -0.156   0.176
    1UNL    C10   17  -0.261  -0.265   0.181
    1UNL     O8   18  -0.179  -0.360   0.109
    1UNL    C11   19  -0.170  -0.144   0.219
    1UNL     O9   20  -0.035  -0.201   0.231
    1UNL    C12   21  -0.058   0.125  -0.116
    1UNL    C13   22   0.082   0.061  -0.141
    1UNL    C14   23   0.111  -0.081  -0.102
    1UNL     N1   24   0.180  -0.166  -0.206
    1UNL    C15   25   0.206  -0.304  -0.176
    1UNL    C16   26   0.308  -0.317  -0.068
    1UNL    C17   27   0.286  -0.200   0.027
    1UNL    C18   28   0.196  -0.101   0.025
    1UNL     N2   29   0.208  -0.027   0.145
    1UNL    C19   30   0.310  -0.080   0.220
    1UNL    C20   31   0.360  -0.038   0.341
    1UNL    C21   32   0.455  -0.121   0.397
    1UNL    C22   33   0.500  -0.236   0.328
    1UNL    C23   34   0.445  -0.279   0.212
    1UNL    C24   35   0.353  -0.195   0.153
    1UNL    C25   36   0.166   0.152  -0.192
    1UNL    C26   37   0.100   0.280  -0.215
    1UNL    C27   38  -0.052   0.265  -0.187
    1UNL     H1   39  -0.025   0.728  -0.200
    1UNL     H2   40  -0.174   0.774  -0.248
    1UNL     H3   41  -0.104   0.819  -0.092
    1UNL     H4   42  -0.262   0.436   0.012
    1UNL     H5   43   0.012   0.234   0.065
    1UNL     H6   44  -0.260   0.033   0.154
    1UNL     H7   45  -0.412  -0.038  -0.029
    1UNL     H8   46  -0.359  -0.143  -0.245
    1UNL     H9   47  -0.470  -0.253  -0.157
    1UNL    H10   48  -0.240  -0.323  -0.071
    1UNL    H11   49  -0.424  -0.308   0.056
    1UNL    H12   50  -0.472  -0.081   0.229
    1UNL    H13   51  -0.306  -0.302   0.275
    1UNL    H14   52  -0.085  -0.349   0.125
    1UNL    H15   53  -0.194  -0.103   0.325
    1UNL    H16   54   0.027  -0.131   0.215
    1UNL    H17   55  -0.144   0.056  -0.139
    1UNL    H18   56   0.017  -0.132  -0.075
    1UNL    H19   57   0.262  -0.115  -0.237
    1UNL    H20   58   0.112  -0.341  -0.129
    1UNL    H21   59   0.210  -0.369  -0.257
    1UNL    H22   60   0.413  -0.297  -0.105
    1UNL    H23   61   0.302  -0.415  -0.016
    1UNL    H24   62   0.150   0.052   0.168
    1UNL    H25   63   0.314   0.051   0.392
    1UNL    H26   64   0.488  -0.097   0.497
    1UNL    H27   65   0.573  -0.295   0.376
    1UNL    H28   66   0.462  -0.373   0.165
    1UNL    H29   67   0.268   0.135  -0.220
    1UNL    H30   68   0.153   0.359  -0.152
    1UNL    H31   69   0.112   0.315  -0.321
    1UNL    H32   70  -0.104   0.271  -0.291
   0.00000   0.00000   0.00000   0.00000   0.00000   0.00000   0.00000   0.00000   0.00000
Generated with MDTraj, t= 84.0
 70
    1UNL     C1    1  -0.156   0.718  -0.166
    1UNL     O1    2  -0.194   0.596  -0.149
    1UNL     C2    3  -0.088   0.511  -0.177
    1UNL     O2    4   0.009   0.547  -0.247
    1UNL     C3    5  -0.109   0.375  -0.128
    1UNL     C4    6  -0.187   0.352  -0.014
    1UNL     O3    7  -0.195   0.239   0.066
    1UNL     C5    8  -0.071   0.166   0.050
    1UNL     O4    9  -0.057   0.055   0.133
    1UNL     C6   10  -0.177  -0.024   0.123
    1UNL     O5   11  -0.194  -0.068  -0.008
    1UNL     C7   12  -0.329  -0.115  -0.024
    1UNL     C8   13  -0.338  -0.194  -0.160
    1UNL     O6   14  -0.241  -0.294  -0.160
    1UNL     C9   15  -0.378  -0.208   0.097
    1UNL     O7   16  -0.476  -0.142   0.169
    1UNL    C10   17  -0.269  -0.258   0.186
    1UNL     O8   18  -0.194  -0.358   0.117
    1UNL    C11   19  -0.179  -0.143   0.229
    1UNL     O9   20  -0.044  -0.197   0.234
    1UNL    C12   21  -0.050   0.132  -0.101
    1UNL    C13   22   0.086   0.068  -0.123
    1UNL    C14   23   0.110  -0.075  -0.095
    1UNL     N1   24   0.140  -0.153  -0.215
    1UNL    C15   25   0.191  -0.291  -0.200
    1UNL    C16   26   0.285  -0.323  -0.083
    1UNL    C17   27   0.286  -0.216   0.026
    1UNL    C18   28   0.204  -0.100   0.014
    1UNL     N2   29   0.213  -0.028   0.125
    1UNL    C19   30   0.300  -0.088   0.212
    1UNL    C20   31   0.347  -0.054   0.346
    1UNL    C21   32   0.453  -0.122   0.400
    1UNL    C22   33   0.507  -0.237   0.337
    1UNL    C23   34   0.449  -0.282   0.221
    1UNL    C24   35   0.357  -0.203   0.151
    1UNL    C25   36   0.178   0.153  -0.166
    1UNL    C26   37   0.115   0.280  -0.209
    1UNL    C27   38  -0.035   0.264  -0.187
    1UNL     H1   39  -0.120   0.732  -0.266
    1UNL     H2   40  -0.241   0.786  -0.164
    1UNL     H3   41  -0.080   0.744  -0.095
    1UNL     H4   42  -0.243   0.438   0.030
    1UNL     H5   43   0.025   0.225   0.080
    1UNL     H6   44  -0.255   0.045   0.153
    1UNL     H7   45  -0.391  -0.025  -0.025
    1UNL     H8   46  -0.322  -0.126  -0.246
    1UNL     H9   47  -0.435  -0.247  -0.170
    1UNL    H10   48  -0.229  -0.330  -0.063
    1UNL    H11   49  -0.414  -0.307   0.063
    1UNL    H12   50  -0.426  -0.071   0.213
    1UNL    H13   51  -0.318  -0.314   0.269
    1UNL    H14   52  -0.095  -0.362   0.139
    1UNL    H15   53  -0.203  -0.095   0.328
    1UNL    H16   54   0.027  -0.145   0.188
    1UNL    H17   55  -0.132   0.061  -0.130
    1UNL    H18   56   0.013  -0.114  -0.063
    1UNL    H19   57   0.194  -0.096  -0.280
    1UNL    H20   58   0.101  -0.357  -0.195
    1UNL    H21   59   0.232  -0.328  -0.289
    1UNL    H22   60   0.391  -0.355  -0.113
    1UNL    H23   61   0.247  -0.406  -0.022
    1UNL    H24   62   0.160   0.058   0.154
    1UNL    H25   63   0.294   0.015   0.400
    1UNL    H26   64   0.502  -0.087   0.488
    1UNL    H27   65   0.586  -0.302   0.382
    1UNL    H28   66   0.468  -0.383   0.187
    1UNL    H29   67   0.273   0.115  -0.192
    1UNL    H30   68   0.141   0.366  -0.141
    1UNL    H31   69   0.145   0.313  -0.313
    1UNL    H32   70  -0.081   0.242  -0.290
   0.00000   0.00000   0.00000   0.00000   0.00000   0.00000   0.00000   0.00000   0.00000
Generated with MDTraj, t= 85.0
 70
    1UNL     C1    1  -0.209   0.716  -0.219
    1UNL     O1    2  -0.195   0.620  -0.123
    1UNL     C2    3  -0.101   0.528  -0.169
    1UNL     O2    4  -0.037   0.550  -0.276
    1UNL     C3    5  -0.095   0.390  -0.109
    1UNL     C4    6  -0.176   0.364  -0.000
    1UNL     O3    7  -0.176   0.250   0.077
    1UNL     C5    8  -0.061   0.165   0.053
    1UNL     O4    9  -0.043   0.053   0.132
    1UNL     C6   10  -0.161  -0.021   0.118
    1UNL     O5   11  -0.177  -0.082  -0.009
    1UNL     C7   12  -0.310  -0.115  -0.039
    1UNL     C8   13  -0.313  -0.204  -0.160
    1UNL     O6   14  -0.233  -0.313  -0.163
    1UNL     C9   15  -0.382  -0.197   0.080
    1UNL     O7   16  -0.469  -0.119   0.161
    1UNL    C10   17  -0.273  -0.249   0.181
    1UNL     O8   18  -0.195  -0.356   0.125
    1UNL    C11   19  -0.170  -0.133   0.227
    1UNL     O9   20  -0.046  -0.198   0.237
    1UNL    C12   21  -0.045   0.142  -0.095
    1UNL    C13   22   0.079   0.061  -0.127
    1UNL    C14   23   0.091  -0.088  -0.098
    1UNL     N1   24   0.142  -0.163  -0.220
    1UNL    C15   25   0.179  -0.306  -0.185
    1UNL    C16   26   0.295  -0.314  -0.084
    1UNL    C17   27   0.282  -0.215   0.026
    1UNL    C18   28   0.184  -0.117   0.020
    1UNL     N2   29   0.202  -0.035   0.130
    1UNL    C19   30   0.293  -0.096   0.213
    1UNL    C20   31   0.341  -0.067   0.344
    1UNL    C21   32   0.445  -0.137   0.398
    1UNL    C22   33   0.499  -0.253   0.334
    1UNL    C23   34   0.454  -0.289   0.209
    1UNL    C24   35   0.351  -0.209   0.152
    1UNL    C25   36   0.180   0.138  -0.164
    1UNL    C26   37   0.133   0.286  -0.171
    1UNL    C27   38  -0.019   0.278  -0.168
    1UNL     H1   39  -0.291   0.696  -0.290
    1UNL     H2   40  -0.234   0.822  -0.184
    1UNL     H3   41  -0.114   0.731  -0.276
    1UNL     H4   42  -0.240   0.447   0.033
    1UNL     H5   43   0.031   0.224   0.085
    1UNL     H6   44  -0.246   0.049   0.135
    1UNL     H7   45  -0.367  -0.024  -0.052
    1UNL     H8   46  -0.271  -0.147  -0.241
    1UNL     H9   47  -0.416  -0.237  -0.179
    1UNL    H10   48  -0.221  -0.348  -0.073
    1UNL    H11   49  -0.447  -0.279   0.052
    1UNL    H12   50  -0.416  -0.048   0.208
    1UNL    H13   51  -0.322  -0.276   0.278
    1UNL    H14   52  -0.104  -0.348   0.156
    1UNL    H15   53  -0.198  -0.101   0.328
    1UNL    H16   54   0.033  -0.134   0.219
    1UNL    H17   55  -0.145   0.101  -0.127
    1UNL    H18   56  -0.009  -0.125  -0.079
    1UNL    H19   57   0.209  -0.110  -0.276
    1UNL    H20   58   0.092  -0.373  -0.156
    1UNL    H21   59   0.217  -0.351  -0.271
    1UNL    H22   60   0.398  -0.285  -0.128
    1UNL    H23   61   0.304  -0.412  -0.039
    1UNL    H24   62   0.150   0.051   0.161
    1UNL    H25   63   0.302   0.024   0.395
    1UNL    H26   64   0.496  -0.110   0.490
    1UNL    H27   65   0.585  -0.296   0.373
    1UNL    H28   66   0.496  -0.374   0.158
    1UNL    H29   67   0.273   0.094  -0.202
    1UNL    H30   68   0.171   0.353  -0.089
    1UNL    H31   69   0.168   0.340  -0.265
    1UNL    H32   70  -0.053   0.268  -0.278
   0.00000   0.00000   0.00000   0.00000   0.00000   0.00000   0.00000   0.00000   0.00000
Generated with MDTraj, t= 86.0
 70
    1UNL     C1    1  -0.232   0.693  -0.216
    1UNL     O1    2  -0.188   0.607  -0.124
    1UNL     C2    3  -0.110   0.515  -0.185
    1UNL     O2    4  -0.091   0.514  -0.311
    1UNL     C3    5  -0.079   0.399  -0.102
    1UNL     C4    6  -0.150   0.378   0.011
    1UNL     O3    7  -0.145   0.265   0.095
    1UNL     C5    8  -0.032   0.177   0.073
    1UNL     O4    9  -0.048   0.060   0.147
    1UNL     C6   10  -0.168  -0.016   0.117
    1UNL     O5   11  -0.185  -0.073  -0.016
    1UNL     C7   12  -0.313  -0.124  -0.045
    1UNL     C8   13  -0.308  -0.218  -0.173
    1UNL     O6   14  -0.218  -0.329  -0.150
    1UNL     C9   15  -0.386  -0.193   0.079
    1UNL     O7   16  -0.485  -0.109   0.143
    1UNL    C10   17  -0.280  -0.246   0.179
    1UNL     O8   18  -0.206  -0.363   0.136
    1UNL    C11   19  -0.179  -0.131   0.225
    1UNL     O9   20  -0.057  -0.191   0.237
    1UNL    C12   21  -0.031   0.147  -0.077
    1UNL    C13   22   0.093   0.071  -0.119
    1UNL    C14   23   0.107  -0.073  -0.095
    1UNL     N1   24   0.159  -0.144  -0.212
    1UNL    C15   25   0.170  -0.285  -0.192
    1UNL    C16   26   0.287  -0.306  -0.100
    1UNL    C17   27   0.271  -0.217   0.019
    1UNL    C18   28   0.190  -0.113   0.023
    1UNL     N2   29   0.201  -0.049   0.149
    1UNL    C19   30   0.308  -0.099   0.218
    1UNL    C20   31   0.352  -0.069   0.348
    1UNL    C21   32   0.436  -0.160   0.402
    1UNL    C22   33   0.491  -0.264   0.326
    1UNL    C23   34   0.449  -0.293   0.197
    1UNL    C24   35   0.348  -0.211   0.143
    1UNL    C25   36   0.191   0.150  -0.161
    1UNL    C26   37   0.140   0.292  -0.179
    1UNL    C27   38  -0.016   0.281  -0.168
    1UNL     H1   39  -0.293   0.644  -0.296
    1UNL     H2   40  -0.301   0.778  -0.178
    1UNL     H3   41  -0.143   0.750  -0.263
    1UNL     H4   42  -0.206   0.460   0.048
    1UNL     H5   43   0.062   0.225   0.107
    1UNL     H6   44  -0.251   0.058   0.128
    1UNL     H7   45  -0.377  -0.042  -0.070
    1UNL     H8   46  -0.272  -0.167  -0.259
    1UNL     H9   47  -0.407  -0.257  -0.195
    1UNL    H10   48  -0.214  -0.344  -0.049
    1UNL    H11   49  -0.429  -0.283   0.038
    1UNL    H12   50  -0.442  -0.015   0.144
    1UNL    H13   51  -0.332  -0.273   0.272
    1UNL    H14   52  -0.118  -0.357   0.180
    1UNL    H15   53  -0.213  -0.108   0.323
    1UNL    H16   54   0.007  -0.134   0.180
    1UNL    H17   55  -0.129   0.099  -0.102
    1UNL    H18   56   0.007  -0.105  -0.073
    1UNL    H19   57   0.253  -0.105  -0.223
    1UNL    H20   58   0.073  -0.321  -0.145
    1UNL    H21   59   0.180  -0.337  -0.284
    1UNL    H22   60   0.379  -0.267  -0.157
    1UNL    H23   61   0.313  -0.407  -0.067
    1UNL    H24   62   0.154   0.039   0.170
    1UNL    H25   63   0.317   0.015   0.405
    1UNL    H26   64   0.459  -0.150   0.506
    1UNL    H27   65   0.558  -0.337   0.378
    1UNL    H28   66   0.502  -0.360   0.131
    1UNL    H29   67   0.289   0.131  -0.195
    1UNL    H30   68   0.192   0.374  -0.122
    1UNL    H31   69   0.160   0.318  -0.288
    1UNL    H32   70  -0.061   0.268  -0.273
   0.00000   0.00000   0.00000   0.00000   0.00000   0.00000   0.00000   0.00000   0.00000
Generated with MDTraj, t= 87.0
 70
    1UNL     C1    1  -0.224   0.710  -0.223
    1UNL     O1    2  -0.216   0.603  -0.137
    1UNL     C2    3  -0.135   0.507  -0.194
    1UNL     O2    4  -0.111   0.513  -0.317
    1UNL     C3    5  -0.110   0.397  -0.110
    1UNL     C4    6  -0.145   0.385   0.024
    1UNL     O3    7  -0.134   0.270   0.105
    1UNL     C5    8  -0.036   0.175   0.066
    1UNL     O4    9  -0.041   0.063   0.139
    1UNL     C6   10  -0.156  -0.014   0.117
    1UNL     O5   11  -0.174  -0.063  -0.016
    1UNL     C7   12  -0.305  -0.119  -0.041
    1UNL     C8   13  -0.296  -0.208  -0.166
    1UNL     O6   14  -0.198  -0.306  -0.137
    1UNL     C9   15  -0.385  -0.188   0.068
    1UNL     O7   16  -0.491  -0.104   0.114
    1UNL    C10   17  -0.295  -0.232   0.186
    1UNL     O8   18  -0.235  -0.358   0.158
    1UNL    C11   19  -0.181  -0.132   0.225
    1UNL     O9   20  -0.060  -0.193   0.255
    1UNL    C12   21  -0.038   0.147  -0.083
    1UNL    C13   22   0.095   0.081  -0.114
    1UNL    C14   23   0.122  -0.072  -0.096
    1UNL     N1   24   0.161  -0.150  -0.213
    1UNL    C15   25   0.207  -0.287  -0.216
    1UNL    C16   26   0.294  -0.321  -0.089
    1UNL    C17   27   0.285  -0.225   0.025
    1UNL    C18   28   0.211  -0.104   0.017
    1UNL     N2   29   0.224  -0.044   0.137
    1UNL    C19   30   0.302  -0.120   0.228
    1UNL    C20   31   0.359  -0.099   0.354
    1UNL    C21   32   0.451  -0.182   0.406
    1UNL    C22   33   0.496  -0.291   0.333
    1UNL    C23   34   0.452  -0.310   0.202
    1UNL    C24   35   0.350  -0.231   0.154
    1UNL    C25   36   0.179   0.174  -0.159
    1UNL    C26   37   0.106   0.304  -0.187
    1UNL    C27   38  -0.039   0.281  -0.173
    1UNL     H1   39  -0.264   0.681  -0.320
    1UNL     H2   40  -0.288   0.797  -0.189
    1UNL     H3   41  -0.121   0.756  -0.234
    1UNL     H4   42  -0.193   0.470   0.069
    1UNL     H5   43   0.059   0.222   0.094
    1UNL     H6   44  -0.234   0.069   0.125
    1UNL     H7   45  -0.359  -0.025  -0.057
    1UNL     H8   46  -0.261  -0.147  -0.245
    1UNL     H9   47  -0.391  -0.256  -0.191
    1UNL    H10   48  -0.200  -0.327  -0.041
    1UNL    H11   49  -0.431  -0.279   0.031
    1UNL    H12   50  -0.471  -0.001   0.136
    1UNL    H13   51  -0.366  -0.246   0.268
    1UNL    H14   52  -0.157  -0.375   0.214
    1UNL    H15   53  -0.214  -0.086   0.313
    1UNL    H16   54   0.012  -0.148   0.195
    1UNL    H17   55  -0.130   0.091  -0.109
    1UNL    H18   56   0.024  -0.107  -0.069
    1UNL    H19   57   0.228  -0.095  -0.269
    1UNL    H20   58   0.113  -0.351  -0.216
    1UNL    H21   59   0.255  -0.314  -0.308
    1UNL    H22   60   0.405  -0.329  -0.117
    1UNL    H23   61   0.274  -0.425  -0.061
    1UNL    H24   62   0.175   0.040   0.154
    1UNL    H25   63   0.328  -0.013   0.406
    1UNL    H26   64   0.486  -0.175   0.509
    1UNL    H27   65   0.556  -0.367   0.373
    1UNL    H28   66   0.503  -0.384   0.139
    1UNL    H29   67   0.280   0.152  -0.200
    1UNL    H30   68   0.138   0.383  -0.115
    1UNL    H31   69   0.135   0.343  -0.290
    1UNL    H32   70  -0.083   0.257  -0.275
   0.00000   0.00000   0.00000   0.00000   0.00000   0.00000   0.00000   0.00000   0.00000
Generated with MDTraj, t= 88.0
 70
    1UNL     C1    1  -0.231   0.696  -0.213
    1UNL     O1    2  -0.211   0.585  -0.131
    1UNL     C2    3  -0.133   0.499  -0.192
    1UNL     O2    4  -0.087   0.514  -0.306
    1UNL     C3    5  -0.117   0.382  -0.116
    1UNL     C4    6  -0.182   0.370   0.004
    1UNL     O3    7  -0.190   0.255   0.080
    1UNL     C5    8  -0.058   0.182   0.075
    1UNL     O4    9  -0.040   0.066   0.149
    1UNL     C6   10  -0.156  -0.008   0.136
    1UNL     O5   11  -0.159  -0.062   0.005
    1UNL     C7   12  -0.287  -0.108  -0.041
    1UNL     C8   13  -0.268  -0.209  -0.152
    1UNL     O6   14  -0.193  -0.318  -0.122
    1UNL     C9   15  -0.372  -0.165   0.071
    1UNL     O7   16  -0.470  -0.073   0.115
    1UNL    C10   17  -0.282  -0.220   0.195
    1UNL     O8   18  -0.235  -0.351   0.155
    1UNL    C11   19  -0.178  -0.124   0.239
    1UNL     O9   20  -0.057  -0.192   0.251
    1UNL    C12   21  -0.030   0.148  -0.074
    1UNL    C13   22   0.103   0.082  -0.112
    1UNL    C14   23   0.124  -0.067  -0.103
    1UNL     N1   24   0.171  -0.130  -0.230
    1UNL    C15   25   0.212  -0.271  -0.215
    1UNL    C16   26   0.303  -0.306  -0.094
    1UNL    C17   27   0.289  -0.210   0.017
    1UNL    C18   28   0.205  -0.105   0.018
    1UNL     N2   29   0.213  -0.047   0.142
    1UNL    C19   30   0.294  -0.125   0.221
    1UNL    C20   31   0.345  -0.104   0.352
    1UNL    C21   32   0.432  -0.200   0.401
    1UNL    C22   33   0.479  -0.305   0.324
    1UNL    C23   34   0.441  -0.322   0.197
    1UNL    C24   35   0.343  -0.233   0.146
    1UNL    C25   36   0.179   0.164  -0.186
    1UNL    C26   37   0.109   0.298  -0.204
    1UNL    C27   38  -0.031   0.272  -0.168
    1UNL     H1   39  -0.290   0.670  -0.295
    1UNL     H2   40  -0.278   0.780  -0.164
    1UNL     H3   41  -0.136   0.736  -0.247
    1UNL     H4   42  -0.223   0.468   0.037
    1UNL     H5   43   0.020   0.247   0.113
    1UNL     H6   44  -0.237   0.074   0.139
    1UNL     H7   45  -0.338  -0.023  -0.088
    1UNL     H8   46  -0.217  -0.166  -0.236
    1UNL     H9   47  -0.370  -0.241  -0.182
    1UNL    H10   48  -0.203  -0.334  -0.020
    1UNL    H11   49  -0.422  -0.250   0.024
    1UNL    H12   50  -0.421   0.009   0.161
    1UNL    H13   51  -0.349  -0.238   0.278
    1UNL    H14   52  -0.154  -0.384   0.204
    1UNL    H15   53  -0.195  -0.080   0.334
    1UNL    H16   54   0.032  -0.139   0.231
    1UNL    H17   55  -0.115   0.086  -0.103
    1UNL    H18   56   0.026  -0.112  -0.091
    1UNL    H19   57   0.232  -0.077  -0.294
    1UNL    H20   58   0.122  -0.341  -0.210
    1UNL    H21   59   0.263  -0.303  -0.306
    1UNL    H22   60   0.406  -0.311  -0.141
    1UNL    H23   61   0.289  -0.411  -0.063
    1UNL    H24   62   0.154   0.031   0.172
    1UNL    H25   63   0.315  -0.011   0.411
    1UNL    H26   64   0.472  -0.190   0.499
    1UNL    H27   65   0.564  -0.366   0.360
    1UNL    H28   66   0.468  -0.405   0.138
    1UNL    H29   67   0.273   0.133  -0.225
    1UNL    H30   68   0.146   0.374  -0.132
    1UNL    H31   69   0.122   0.345  -0.307
    1UNL    H32   70  -0.076   0.235  -0.264
   0.00000   0.00000   0.00000   0.00000   0.00000   0.00000   0.00000   0.00000   0.00000
Generated with MDTraj, t= 89.0
 70
    1UNL     C1    1  -0.230   0.719  -0.227
    1UNL     O1    2  -0.227   0.601  -0.148
    1UNL     C2    3  -0.135   0.517  -0.190
    1UNL     O2    4  -0.068   0.544  -0.293
    1UNL     C3    5  -0.117   0.392  -0.120
    1UNL     C4    6  -0.189   0.369  -0.006
    1UNL     O3    7  -0.181   0.255   0.073
    1UNL     C5    8  -0.053   0.182   0.053
    1UNL     O4    9  -0.037   0.076   0.138
    1UNL     C6   10  -0.144  -0.020   0.118
    1UNL     O5   11  -0.152  -0.092  -0.002
    1UNL     C7   12  -0.291  -0.127  -0.034
    1UNL     C8   13  -0.283  -0.235  -0.148
    1UNL     O6   14  -0.183  -0.331  -0.113
    1UNL     C9   15  -0.375  -0.172   0.097
    1UNL     O7   16  -0.440  -0.054   0.141
    1UNL    C10   17  -0.274  -0.221   0.211
    1UNL     O8   18  -0.226  -0.354   0.176
    1UNL    C11   19  -0.164  -0.122   0.242
    1UNL     O9   20  -0.043  -0.204   0.251
    1UNL    C12   21  -0.044   0.142  -0.097
    1UNL    C13   22   0.091   0.077  -0.119
    1UNL    C14   23   0.119  -0.069  -0.105
    1UNL     N1   24   0.190  -0.118  -0.229
    1UNL    C15   25   0.199  -0.267  -0.216
    1UNL    C16   26   0.313  -0.297  -0.121
    1UNL    C17   27   0.292  -0.219   0.005
    1UNL    C18   28   0.202  -0.116   0.007
    1UNL     N2   29   0.189  -0.068   0.136
    1UNL    C19   30   0.290  -0.123   0.215
    1UNL    C20   31   0.319  -0.114   0.350
    1UNL    C21   32   0.401  -0.204   0.412
    1UNL    C22   33   0.464  -0.304   0.335
    1UNL    C23   34   0.433  -0.317   0.204
    1UNL    C24   35   0.353  -0.224   0.134
    1UNL    C25   36   0.181   0.169  -0.160
    1UNL    C26   37   0.121   0.307  -0.173
    1UNL    C27   38  -0.035   0.278  -0.180
    1UNL     H1   39  -0.263   0.696  -0.322
    1UNL     H2   40  -0.293   0.791  -0.185
    1UNL     H3   41  -0.133   0.763  -0.233
    1UNL     H4   42  -0.248   0.450   0.041
    1UNL     H5   43   0.032   0.245   0.067
    1UNL     H6   44  -0.238   0.046   0.109
    1UNL     H7   45  -0.336  -0.035  -0.077
    1UNL     H8   46  -0.261  -0.184  -0.242
    1UNL     H9   47  -0.377  -0.297  -0.159
    1UNL    H10   48  -0.184  -0.341  -0.017
    1UNL    H11   49  -0.451  -0.249   0.073
    1UNL    H12   50  -0.539  -0.040   0.111
    1UNL    H13   51  -0.332  -0.225   0.301
    1UNL    H14   52  -0.139  -0.368   0.216
    1UNL    H15   53  -0.186  -0.071   0.334
    1UNL    H16   54   0.039  -0.158   0.242
    1UNL    H17   55  -0.123   0.080  -0.133
    1UNL    H18   56   0.023  -0.119  -0.090
    1UNL    H19   57   0.278  -0.067  -0.244
    1UNL    H20   58   0.099  -0.303  -0.174
    1UNL    H21   59   0.212  -0.322  -0.311
    1UNL    H22   60   0.410  -0.284  -0.172
    1UNL    H23   61   0.315  -0.406  -0.101
    1UNL    H24   62   0.138   0.023   0.154
    1UNL    H25   63   0.265  -0.053   0.411
    1UNL    H26   64   0.434  -0.191   0.515
    1UNL    H27   65   0.527  -0.373   0.388
    1UNL    H28   66   0.467  -0.408   0.153
    1UNL    H29   67   0.288   0.151  -0.165
    1UNL    H30   68   0.142   0.378  -0.088
    1UNL    H31   69   0.145   0.366  -0.266
    1UNL    H32   70  -0.065   0.258  -0.285
   0.00000   0.00000   0.00000   0.00000   0.00000   0.00000   0.00000   0.00000   0.00000
Generated with MDTraj, t= 90.0
 70
    1UNL     C1    1  -0.221   0.720  -0.232
    1UNL     O1    2  -0.223   0.605  -0.145
    1UNL     C2    3  -0.122   0.521  -0.183
    1UNL     O2    4  -0.052   0.543  -0.282
    1UNL     C3    5  -0.107   0.394  -0.121
    1UNL     C4    6  -0.186   0.361  -0.012
    1UNL     O3    7  -0.169   0.250   0.064
    1UNL     C5    8  -0.046   0.174   0.045
    1UNL     O4    9  -0.051   0.069   0.133
    1UNL     C6   10  -0.167  -0.018   0.113
    1UNL     O5   11  -0.184  -0.078  -0.009
    1UNL     C7   12  -0.305  -0.149  -0.025
    1UNL     C8   13  -0.281  -0.260  -0.130
    1UNL     O6   14  -0.198  -0.367  -0.084
    1UNL     C9   15  -0.381  -0.187   0.104
    1UNL     O7   16  -0.450  -0.079   0.162
    1UNL    C10   17  -0.279  -0.231   0.217
    1UNL     O8   18  -0.211  -0.360   0.190
    1UNL    C11   19  -0.165  -0.126   0.230
    1UNL     O9   20  -0.030  -0.186   0.228
    1UNL    C12   21  -0.023   0.156  -0.099
    1UNL    C13   22   0.103   0.084  -0.113
    1UNL    C14   23   0.112  -0.064  -0.105
    1UNL     N1   24   0.168  -0.126  -0.234
    1UNL    C15   25   0.223  -0.258  -0.238
    1UNL    C16   26   0.315  -0.286  -0.119
    1UNL    C17   27   0.293  -0.204  -0.000
    1UNL    C18   28   0.201  -0.098   0.008
    1UNL     N2   29   0.207  -0.039   0.133
    1UNL    C19   30   0.289  -0.117   0.215
    1UNL    C20   31   0.303  -0.115   0.354
    1UNL    C21   32   0.389  -0.203   0.407
    1UNL    C22   33   0.438  -0.308   0.328
    1UNL    C23   34   0.419  -0.320   0.190
    1UNL    C24   35   0.344  -0.213   0.131
    1UNL    C25   36   0.192   0.175  -0.154
    1UNL    C26   37   0.138   0.313  -0.170
    1UNL    C27   38  -0.019   0.290  -0.181
    1UNL     H1   39  -0.197   0.691  -0.332
    1UNL     H2   40  -0.317   0.767  -0.226
    1UNL     H3   41  -0.146   0.791  -0.195
    1UNL     H4   42  -0.278   0.412   0.010
    1UNL     H5   43   0.028   0.236   0.086
    1UNL     H6   44  -0.259   0.046   0.130
    1UNL     H7   45  -0.373  -0.074  -0.075
    1UNL     H8   46  -0.230  -0.219  -0.221
    1UNL     H9   47  -0.387  -0.292  -0.160
    1UNL    H10   48  -0.194  -0.363   0.011
    1UNL    H11   49  -0.453  -0.268   0.077
    1UNL    H12   50  -0.444   0.006   0.116
    1UNL    H13   51  -0.332  -0.232   0.312
    1UNL    H14   52  -0.116  -0.343   0.212
    1UNL    H15   53  -0.185  -0.073   0.325
    1UNL    H16   54   0.032  -0.123   0.185
    1UNL    H17   55  -0.103   0.092  -0.130
    1UNL    H18   56   0.011  -0.106  -0.088
    1UNL    H19   57   0.240  -0.061  -0.267
    1UNL    H20   58   0.136  -0.333  -0.242
    1UNL    H21   59   0.280  -0.264  -0.334
    1UNL    H22   60   0.421  -0.291  -0.137
    1UNL    H23   61   0.294  -0.393  -0.093
    1UNL    H24   62   0.134   0.031   0.164
    1UNL    H25   63   0.254  -0.035   0.415
    1UNL    H26   64   0.408  -0.201   0.511
    1UNL    H27   65   0.500  -0.380   0.378
    1UNL    H28   66   0.462  -0.400   0.134
    1UNL    H29   67   0.296   0.147  -0.162
    1UNL    H30   68   0.157   0.384  -0.085
    1UNL    H31   69   0.172   0.361  -0.266
    1UNL    H32   70  -0.046   0.275  -0.287
   0.00000   0.00000   0.00000   0.00000   0.00000   0.00000   0.00000   0.00000   0.00000
Generated with MDTraj, t= 91.0
 70
    1UNL     C1    1  -0.214   0.732  -0.232
    1UNL     O1    2  -0.212   0.624  -0.142
    1UNL     C2    3  -0.118   0.530  -0.184
    1UNL     O2    4  -0.035   0.560  -0.273
    1UNL     C3    5  -0.109   0.396  -0.122
    1UNL     C4    6  -0.185   0.371  -0.011
    1UNL     O3    7  -0.190   0.254   0.065
    1UNL     C5    8  -0.064   0.178   0.043
    1UNL     O4    9  -0.047   0.063   0.130
    1UNL     C6   10  -0.162  -0.032   0.120
    1UNL     O5   11  -0.173  -0.098  -0.006
    1UNL     C7   12  -0.306  -0.150  -0.029
    1UNL     C8   13  -0.303  -0.263  -0.128
    1UNL     O6   14  -0.204  -0.356  -0.087
    1UNL     C9   15  -0.377  -0.196   0.109
    1UNL     O7   16  -0.498  -0.131   0.146
    1UNL    C10   17  -0.273  -0.224   0.229
    1UNL     O8   18  -0.244  -0.367   0.231
    1UNL    C11   19  -0.155  -0.138   0.235
    1UNL     O9   20  -0.033  -0.207   0.222
    1UNL    C12   21  -0.029   0.157  -0.104
    1UNL    C13   22   0.113   0.094  -0.131
    1UNL    C14   23   0.131  -0.053  -0.111
    1UNL     N1   24   0.176  -0.120  -0.239
    1UNL    C15   25   0.221  -0.260  -0.229
    1UNL    C16   26   0.315  -0.300  -0.108
    1UNL    C17   27   0.302  -0.202   0.000
    1UNL    C18   28   0.228  -0.086  -0.005
    1UNL     N2   29   0.219  -0.030   0.120
    1UNL    C19   30   0.291  -0.113   0.206
    1UNL    C20   31   0.311  -0.103   0.345
    1UNL    C21   32   0.398  -0.196   0.404
    1UNL    C22   33   0.444  -0.307   0.335
    1UNL    C23   34   0.407  -0.325   0.206
    1UNL    C24   35   0.337  -0.226   0.134
    1UNL    C25   36   0.199   0.190  -0.173
    1UNL    C26   37   0.134   0.320  -0.192
    1UNL    C27   38  -0.021   0.291  -0.183
    1UNL     H1   39  -0.264   0.701  -0.328
    1UNL     H2   40  -0.273   0.806  -0.174
    1UNL     H3   41  -0.108   0.770  -0.251
    1UNL     H4   42  -0.238   0.457   0.023
    1UNL     H5   43   0.004   0.247   0.077
    1UNL     H6   44  -0.254   0.030   0.139
    1UNL     H7   45  -0.360  -0.059  -0.068
    1UNL     H8   46  -0.267  -0.212  -0.221
    1UNL     H9   47  -0.404  -0.314  -0.147
    1UNL    H10   48  -0.197  -0.355   0.017
    1UNL    H11   49  -0.408  -0.302   0.091
    1UNL    H12   50  -0.472  -0.048   0.177
    1UNL    H13   51  -0.328  -0.204   0.324
    1UNL    H14   52  -0.149  -0.380   0.256
    1UNL    H15   53  -0.149  -0.080   0.333
    1UNL    H16   54   0.035  -0.141   0.177
    1UNL    H17   55  -0.104   0.089  -0.142
    1UNL    H18   56   0.031  -0.098  -0.094
    1UNL    H19   57   0.261  -0.073  -0.272
    1UNL    H20   58   0.124  -0.318  -0.219
    1UNL    H21   59   0.271  -0.288  -0.325
    1UNL    H22   60   0.414  -0.291  -0.146
    1UNL    H23   61   0.318  -0.403  -0.062
    1UNL    H24   62   0.163   0.047   0.153
    1UNL    H25   63   0.269  -0.018   0.397
    1UNL    H26   64   0.408  -0.188   0.513
    1UNL    H27   65   0.502  -0.381   0.388
    1UNL    H28   66   0.444  -0.407   0.146
    1UNL    H29   67   0.304   0.177  -0.164
    1UNL    H30   68   0.156   0.389  -0.105
    1UNL    H31   69   0.161   0.366  -0.290
    1UNL    H32   70  -0.049   0.279  -0.287
   0.00000   0.00000   0.00000   0.00000   0.00000   0.00000   0.00000   0.00000   0.00000
Generated with MDTraj, t= 92.0
 70
    1UNL     C1    1  -0.194   0.732  -0.189
    1UNL     O1    2  -0.201   0.607  -0.125
    1UNL     C2    3  -0.115   0.519  -0.183
    1UNL     O2    4  -0.031   0.546  -0.273
    1UNL     C3    5  -0.110   0.390  -0.121
    1UNL     C4    6  -0.180   0.373  -0.005
    1UNL     O3    7  -0.187   0.259   0.071
    1UNL     C5    8  -0.078   0.174   0.034
    1UNL     O4    9  -0.057   0.067   0.119
    1UNL     C6   10  -0.171  -0.013   0.108
    1UNL     O5   11  -0.191  -0.066  -0.019
    1UNL     C7   12  -0.304  -0.150  -0.034
    1UNL     C8   13  -0.274  -0.267  -0.122
    1UNL     O6   14  -0.207  -0.372  -0.059
    1UNL     C9   15  -0.371  -0.196   0.097
    1UNL     O7   16  -0.476  -0.114   0.141
    1UNL    C10   17  -0.263  -0.219   0.208
    1UNL     O8   18  -0.230  -0.359   0.214
    1UNL    C11   19  -0.148  -0.124   0.209
    1UNL     O9   20  -0.022  -0.201   0.191
    1UNL    C12   21  -0.048   0.149  -0.109
    1UNL    C13   22   0.093   0.083  -0.122
    1UNL    C14   23   0.128  -0.062  -0.111
    1UNL     N1   24   0.202  -0.114  -0.227
    1UNL    C15   25   0.209  -0.259  -0.217
    1UNL    C16   26   0.305  -0.302  -0.102
    1UNL    C17   27   0.285  -0.207   0.009
    1UNL    C18   28   0.202  -0.099   0.009
    1UNL     N2   29   0.202  -0.031   0.126
    1UNL    C19   30   0.282  -0.110   0.216
    1UNL    C20   31   0.318  -0.093   0.350
    1UNL    C21   32   0.402  -0.191   0.408
    1UNL    C22   33   0.459  -0.297   0.330
    1UNL    C23   34   0.426  -0.310   0.200
    1UNL    C24   35   0.337  -0.222   0.141
    1UNL    C25   36   0.177   0.170  -0.177
    1UNL    C26   37   0.118   0.305  -0.201
    1UNL    C27   38  -0.033   0.283  -0.189
    1UNL     H1   39  -0.215   0.714  -0.301
    1UNL     H2   40  -0.275   0.790  -0.135
    1UNL     H3   41  -0.088   0.774  -0.173
    1UNL     H4   42  -0.215   0.470   0.034
    1UNL     H5   43   0.005   0.232   0.055
    1UNL     H6   44  -0.260   0.049   0.128
    1UNL     H7   45  -0.383  -0.081  -0.076
    1UNL     H8   46  -0.216  -0.240  -0.211
    1UNL     H9   47  -0.378  -0.300  -0.153
    1UNL    H10   48  -0.223  -0.371   0.038
    1UNL    H11   49  -0.431  -0.289   0.078
    1UNL    H12   50  -0.451  -0.029   0.160
    1UNL    H13   51  -0.325  -0.201   0.301
    1UNL    H14   52  -0.143  -0.374   0.257
    1UNL    H15   53  -0.133  -0.077   0.313
    1UNL    H16   54   0.056  -0.143   0.199
    1UNL    H17   55  -0.114   0.079  -0.158
    1UNL    H18   56   0.026  -0.110  -0.106
    1UNL    H19   57   0.292  -0.069  -0.245
    1UNL    H20   58   0.104  -0.293  -0.185
    1UNL    H21   59   0.238  -0.302  -0.316
    1UNL    H22   60   0.409  -0.296  -0.118
    1UNL    H23   61   0.293  -0.411  -0.076
    1UNL    H24   62   0.154   0.049   0.162
    1UNL    H25   63   0.272  -0.015   0.403
    1UNL    H26   64   0.435  -0.183   0.508
    1UNL    H27   65   0.517  -0.374   0.377
    1UNL    H28   66   0.476  -0.389   0.145
    1UNL    H29   67   0.281   0.145  -0.201
    1UNL    H30   68   0.149   0.366  -0.112
    1UNL    H31   69   0.144   0.358  -0.296
    1UNL    H32   70  -0.075   0.270  -0.288
   0.00000   0.00000   0.00000   0.00000   0.00000   0.00000   0.00000   0.00000   0.00000
Generated with MDTraj, t= 93.0
 70
    1UNL     C1    1  -0.160   0.757  -0.175
    1UNL     O1    2  -0.187   0.629  -0.111
    1UNL     C2    3  -0.121   0.528  -0.173
    1UNL     O2    4  -0.065   0.541  -0.283
    1UNL     C3    5  -0.115   0.397  -0.118
    1UNL     C4    6  -0.187   0.371  -0.006
    1UNL     O3    7  -0.192   0.248   0.058
    1UNL     C5    8  -0.066   0.168   0.037
    1UNL     O4    9  -0.049   0.058   0.126
    1UNL     C6   10  -0.158  -0.035   0.115
    1UNL     O5   11  -0.171  -0.087  -0.011
    1UNL     C7   12  -0.300  -0.157  -0.037
    1UNL     C8   13  -0.275  -0.289  -0.124
    1UNL     O6   14  -0.148  -0.342  -0.085
    1UNL     C9   15  -0.378  -0.180   0.102
    1UNL     O7   16  -0.458  -0.071   0.125
    1UNL    C10   17  -0.284  -0.228   0.218
    1UNL     O8   18  -0.275  -0.372   0.205
    1UNL    C11   19  -0.150  -0.147   0.223
    1UNL     O9   20  -0.041  -0.240   0.189
    1UNL    C12   21  -0.039   0.145  -0.109
    1UNL    C13   22   0.099   0.086  -0.133
    1UNL    C14   23   0.110  -0.066  -0.103
    1UNL     N1   24   0.155  -0.139  -0.220
    1UNL    C15   25   0.198  -0.275  -0.218
    1UNL    C16   26   0.304  -0.295  -0.107
    1UNL    C17   27   0.282  -0.217   0.018
    1UNL    C18   28   0.197  -0.106   0.013
    1UNL     N2   29   0.200  -0.045   0.138
    1UNL    C19   30   0.295  -0.108   0.213
    1UNL    C20   31   0.332  -0.070   0.345
    1UNL    C21   32   0.409  -0.159   0.409
    1UNL    C22   33   0.455  -0.274   0.342
    1UNL    C23   34   0.441  -0.296   0.204
    1UNL    C24   35   0.345  -0.213   0.143
    1UNL    C25   36   0.180   0.169  -0.199
    1UNL    C26   37   0.114   0.305  -0.206
    1UNL    C27   38  -0.040   0.282  -0.187
    1UNL     H1   39  -0.135   0.728  -0.281
    1UNL     H2   40  -0.252   0.818  -0.161
    1UNL     H3   41  -0.068   0.797  -0.129
    1UNL     H4   42  -0.270   0.441   0.018
    1UNL     H5   43   0.003   0.234   0.073
    1UNL     H6   44  -0.249   0.025   0.113
    1UNL     H7   45  -0.361  -0.089  -0.098
    1UNL     H8   46  -0.272  -0.254  -0.225
    1UNL     H9   47  -0.349  -0.371  -0.123
    1UNL    H10   48  -0.114  -0.283  -0.012
    1UNL    H11   49  -0.444  -0.264   0.074
    1UNL    H12   50  -0.415   0.007   0.107
    1UNL    H13   51  -0.337  -0.214   0.318
    1UNL    H14   52  -0.190  -0.403   0.246
    1UNL    H15   53  -0.129  -0.104   0.329
    1UNL    H16   54   0.025  -0.178   0.153
    1UNL    H17   55  -0.117   0.083  -0.153
    1UNL    H18   56   0.004  -0.092  -0.084
    1UNL    H19   57   0.223  -0.077  -0.263
    1UNL    H20   58   0.109  -0.341  -0.195
    1UNL    H21   59   0.248  -0.303  -0.313
    1UNL    H22   60   0.403  -0.289  -0.144
    1UNL    H23   61   0.299  -0.396  -0.057
    1UNL    H24   62   0.151   0.043   0.168
    1UNL    H25   63   0.293   0.026   0.389
    1UNL    H26   64   0.432  -0.137   0.514
    1UNL    H27   65   0.528  -0.337   0.392
    1UNL    H28   66   0.467  -0.386   0.155
    1UNL    H29   67   0.280   0.149  -0.222
    1UNL    H30   68   0.151   0.379  -0.131
    1UNL    H31   69   0.130   0.347  -0.308
    1UNL    H32   70  -0.092   0.272  -0.281
   0.00000   0.00000   0.00000   0.00000   0.00000   0.00000   0.00000   0.00000   0.00000
Generated with MDTraj, t= 94.0
 70
    1UNL     C1    1  -0.151   0.735  -0.159
    1UNL     O1    2  -0.151   0.613  -0.087
    1UNL     C2    3  -0.115   0.511  -0.168
    1UNL     O2    4  -0.060   0.525  -0.277
    1UNL     C3    5  -0.128   0.378  -0.121
    1UNL     C4    6  -0.183   0.358   0.003
    1UNL     O3    7  -0.176   0.245   0.083
    1UNL     C5    8  -0.051   0.171   0.043
    1UNL     O4    9  -0.050   0.054   0.124
    1UNL     C6   10  -0.179  -0.014   0.116
    1UNL     O5   11  -0.208  -0.065  -0.018
    1UNL     C7   12  -0.303  -0.171  -0.042
    1UNL     C8   13  -0.238  -0.289  -0.114
    1UNL     O6   14  -0.112  -0.322  -0.076
    1UNL     C9   15  -0.399  -0.191   0.081
    1UNL     O7   16  -0.470  -0.068   0.095
    1UNL    C10   17  -0.303  -0.223   0.209
    1UNL     O8   18  -0.274  -0.358   0.208
    1UNL    C11   19  -0.170  -0.137   0.213
    1UNL     O9   20  -0.051  -0.205   0.172
    1UNL    C12   21  -0.045   0.135  -0.106
    1UNL    C13   22   0.086   0.077  -0.132
    1UNL    C14   23   0.104  -0.074  -0.105
    1UNL     N1   24   0.143  -0.156  -0.217
    1UNL    C15   25   0.190  -0.303  -0.202
    1UNL    C16   26   0.301  -0.307  -0.098
    1UNL    C17   27   0.289  -0.204   0.009
    1UNL    C18   28   0.203  -0.099   0.005
    1UNL     N2   29   0.199  -0.033   0.125
    1UNL    C19   30   0.291  -0.089   0.208
    1UNL    C20   31   0.329  -0.066   0.341
    1UNL    C21   32   0.413  -0.154   0.401
    1UNL    C22   33   0.483  -0.257   0.325
    1UNL    C23   34   0.450  -0.278   0.192
    1UNL    C24   35   0.350  -0.197   0.137
    1UNL    C25   36   0.174   0.163  -0.179
    1UNL    C26   37   0.106   0.298  -0.188
    1UNL    C27   38  -0.048   0.266  -0.193
    1UNL     H1   39  -0.240   0.727  -0.222
    1UNL     H2   40  -0.157   0.810  -0.084
    1UNL     H3   41  -0.067   0.730  -0.222
    1UNL     H4   42  -0.243   0.435   0.048
    1UNL     H5   43   0.028   0.234   0.069
    1UNL     H6   44  -0.263   0.053   0.139
    1UNL     H7   45  -0.364  -0.125  -0.121
    1UNL     H8   46  -0.229  -0.272  -0.219
    1UNL     H9   47  -0.310  -0.368  -0.093
    1UNL    H10   48  -0.079  -0.264  -0.000
    1UNL    H11   49  -0.476  -0.266   0.059
    1UNL    H12   50  -0.431   0.009   0.064
    1UNL    H13   51  -0.361  -0.200   0.304
    1UNL    H14   52  -0.196  -0.366   0.154
    1UNL    H15   53  -0.166  -0.088   0.318
    1UNL    H16   54   0.034  -0.151   0.192
    1UNL    H17   55  -0.125   0.070  -0.140
    1UNL    H18   56   0.002  -0.110  -0.080
    1UNL    H19   57   0.215  -0.100  -0.261
    1UNL    H20   58   0.111  -0.380  -0.174
    1UNL    H21   59   0.245  -0.339  -0.292
    1UNL    H22   60   0.398  -0.281  -0.137
    1UNL    H23   61   0.310  -0.409  -0.056
    1UNL    H24   62   0.121   0.033   0.146
    1UNL    H25   63   0.288   0.013   0.394
    1UNL    H26   64   0.445  -0.134   0.502
    1UNL    H27   65   0.554  -0.313   0.382
    1UNL    H28   66   0.501  -0.363   0.141
    1UNL    H29   67   0.278   0.140  -0.208
    1UNL    H30   68   0.124   0.359  -0.098
    1UNL    H31   69   0.139   0.363  -0.274
    1UNL    H32   70  -0.087   0.250  -0.291
   0.00000   0.00000   0.00000   0.00000   0.00000   0.00000   0.00000   0.00000   0.00000
Generated with MDTraj, t= 95.0
 70
    1UNL     C1    1  -0.143   0.762  -0.159
    1UNL     O1    2  -0.164   0.630  -0.097
    1UNL     C2    3  -0.106   0.533  -0.171
    1UNL     O2    4  -0.053   0.554  -0.280
    1UNL     C3    5  -0.092   0.404  -0.108
    1UNL     C4    6  -0.161   0.385   0.009
    1UNL     O3    7  -0.176   0.262   0.065
    1UNL     C5    8  -0.066   0.173   0.044
    1UNL     O4    9  -0.072   0.059   0.131
    1UNL     C6   10  -0.185  -0.026   0.115
    1UNL     O5   11  -0.188  -0.088  -0.013
    1UNL     C7   12  -0.306  -0.170  -0.053
    1UNL     C8   13  -0.241  -0.291  -0.126
    1UNL     O6   14  -0.119  -0.323  -0.057
    1UNL     C9   15  -0.398  -0.208   0.071
    1UNL     O7   16  -0.507  -0.122   0.083
    1UNL    C10   17  -0.318  -0.232   0.208
    1UNL     O8   18  -0.297  -0.367   0.225
    1UNL    C11   19  -0.187  -0.146   0.220
    1UNL     O9   20  -0.069  -0.216   0.205
    1UNL    C12   21  -0.047   0.145  -0.098
    1UNL    C13   22   0.083   0.071  -0.129
    1UNL    C14   23   0.101  -0.081  -0.106
    1UNL     N1   24   0.155  -0.148  -0.222
    1UNL    C15   25   0.192  -0.288  -0.200
    1UNL    C16   26   0.312  -0.298  -0.106
    1UNL    C17   27   0.292  -0.203   0.012
    1UNL    C18   28   0.193  -0.112   0.014
    1UNL     N2   29   0.195  -0.045   0.133
    1UNL    C19   30   0.291  -0.103   0.212
    1UNL    C20   31   0.333  -0.068   0.345
    1UNL    C21   32   0.446  -0.135   0.385
    1UNL    C22   33   0.507  -0.243   0.315
    1UNL    C23   34   0.456  -0.281   0.192
    1UNL    C24   35   0.356  -0.206   0.137
    1UNL    C25   36   0.172   0.144  -0.192
    1UNL    C26   37   0.111   0.279  -0.224
    1UNL    C27   38  -0.038   0.279  -0.182
    1UNL     H1   39  -0.238   0.810  -0.154
    1UNL     H2   40  -0.068   0.811  -0.104
    1UNL     H3   41  -0.124   0.747  -0.260
    1UNL     H4   42  -0.203   0.473   0.051
    1UNL     H5   43   0.025   0.224   0.069
    1UNL     H6   44  -0.276   0.035   0.123
    1UNL     H7   45  -0.354  -0.105  -0.124
    1UNL     H8   46  -0.220  -0.257  -0.223
    1UNL     H9   47  -0.307  -0.376  -0.130
    1UNL    H10   48  -0.120  -0.297   0.035
    1UNL    H11   49  -0.430  -0.310   0.045
    1UNL    H12   50  -0.477  -0.051   0.140
    1UNL    H13   51  -0.387  -0.212   0.295
    1UNL    H14   52  -0.204  -0.382   0.268
    1UNL    H15   53  -0.188  -0.093   0.320
    1UNL    H16   54   0.010  -0.153   0.184
    1UNL    H17   55  -0.128   0.085  -0.137
    1UNL    H18   56  -0.000  -0.124  -0.089
    1UNL    H19   57   0.230  -0.091  -0.262
    1UNL    H20   58   0.113  -0.341  -0.140
    1UNL    H21   59   0.214  -0.345  -0.292
    1UNL    H22   60   0.398  -0.273  -0.167
    1UNL    H23   61   0.331  -0.392  -0.059
    1UNL    H24   62   0.149   0.045   0.160
    1UNL    H25   63   0.287   0.016   0.399
    1UNL    H26   64   0.491  -0.105   0.479
    1UNL    H27   65   0.586  -0.303   0.362
    1UNL    H28   66   0.506  -0.351   0.133
    1UNL    H29   67   0.264   0.107  -0.231
    1UNL    H30   68   0.164   0.348  -0.157
    1UNL    H31   69   0.131   0.325  -0.325
    1UNL    H32   70  -0.096   0.258  -0.269
   0.00000   0.00000   0.00000   0.00000   0.00000   0.00000   0.00000   0.00000   0.00000
Generated with MDTraj, t= 96.0
 70
    1UNL     C1    1  -0.136   0.745  -0.191
    1UNL     O1    2  -0.143   0.630  -0.103
    1UNL     C2    3  -0.083   0.526  -0.160
    1UNL     O2    4  -0.010   0.540  -0.259
    1UNL     C3    5  -0.092   0.393  -0.101
    1UNL     C4    6  -0.167   0.381   0.010
    1UNL     O3    7  -0.189   0.267   0.084
    1UNL     C5    8  -0.080   0.175   0.056
    1UNL     O4    9  -0.071   0.055   0.130
    1UNL     C6   10  -0.183  -0.021   0.100
    1UNL     O5   11  -0.187  -0.086  -0.030
    1UNL     C7   12  -0.293  -0.180  -0.060
    1UNL     C8   13  -0.230  -0.296  -0.132
    1UNL     O6   14  -0.163  -0.385  -0.040
    1UNL     C9   15  -0.378  -0.221   0.064
    1UNL     O7   16  -0.497  -0.147   0.064
    1UNL    C10   17  -0.310  -0.221   0.202
    1UNL     O8   18  -0.282  -0.351   0.242
    1UNL    C11   19  -0.186  -0.128   0.207
    1UNL     O9   20  -0.060  -0.202   0.203
    1UNL    C12   21  -0.063   0.147  -0.093
    1UNL    C13   22   0.070   0.073  -0.117
    1UNL    C14   23   0.086  -0.073  -0.098
    1UNL     N1   24   0.140  -0.133  -0.216
    1UNL    C15   25   0.183  -0.272  -0.216
    1UNL    C16   26   0.301  -0.282  -0.113
    1UNL    C17   27   0.285  -0.194   0.007
    1UNL    C18   28   0.181  -0.099   0.016
    1UNL     N2   29   0.184  -0.045   0.139
    1UNL    C19   30   0.288  -0.101   0.207
    1UNL    C20   31   0.331  -0.077   0.344
    1UNL    C21   32   0.455  -0.131   0.379
    1UNL    C22   33   0.519  -0.229   0.304
    1UNL    C23   34   0.465  -0.267   0.183
    1UNL    C24   35   0.354  -0.198   0.132
    1UNL    C25   36   0.161   0.146  -0.178
    1UNL    C26   37   0.110   0.280  -0.198
    1UNL    C27   38  -0.041   0.276  -0.174
    1UNL     H1   39  -0.123   0.830  -0.123
    1UNL     H2   40  -0.056   0.739  -0.265
    1UNL     H3   41  -0.236   0.754  -0.228
    1UNL     H4   42  -0.220   0.472   0.038
    1UNL     H5   43   0.010   0.221   0.095
    1UNL     H6   44  -0.267   0.047   0.099
    1UNL     H7   45  -0.362  -0.122  -0.118
    1UNL     H8   46  -0.160  -0.269  -0.207
    1UNL     H9   47  -0.311  -0.349  -0.181
    1UNL    H10   48  -0.194  -0.350   0.054
    1UNL    H11   49  -0.420  -0.320   0.041
    1UNL    H12   50  -0.489  -0.056   0.108
    1UNL    H13   51  -0.388  -0.183   0.270
    1UNL    H14   52  -0.208  -0.351   0.299
    1UNL    H15   53  -0.180  -0.085   0.309
    1UNL    H16   54   0.010  -0.136   0.209
    1UNL    H17   55  -0.154   0.099  -0.129
    1UNL    H18   56  -0.013  -0.117  -0.071
    1UNL    H19   57   0.207  -0.068  -0.256
    1UNL    H20   58   0.096  -0.329  -0.177
    1UNL    H21   59   0.211  -0.314  -0.313
    1UNL    H22   60   0.403  -0.252  -0.147
    1UNL    H23   61   0.315  -0.383  -0.089
    1UNL    H24   62   0.116   0.015   0.181
    1UNL    H25   63   0.269  -0.007   0.399
    1UNL    H26   64   0.488  -0.123   0.483
    1UNL    H27   65   0.608  -0.280   0.333
    1UNL    H28   66   0.519  -0.349   0.132
    1UNL    H29   67   0.262   0.120  -0.206
    1UNL    H30   68   0.165   0.364  -0.155
    1UNL    H31   69   0.124   0.288  -0.308
    1UNL    H32   70  -0.091   0.257  -0.267
   0.00000   0.00000   0.00000   0.00000   0.00000   0.00000   0.00000   0.00000   0.00000
Generated with MDTraj, t= 97.0
 70
    1UNL     C1    1  -0.111   0.757  -0.190
    1UNL     O1    2  -0.158   0.643  -0.123
    1UNL     C2    3  -0.087   0.540  -0.173
    1UNL     O2    4   0.010   0.562  -0.250
    1UNL     C3    5  -0.105   0.403  -0.116
    1UNL     C4    6  -0.192   0.376  -0.009
    1UNL     O3    7  -0.192   0.259   0.074
    1UNL     C5    8  -0.081   0.172   0.051
    1UNL     O4    9  -0.092   0.055   0.137
    1UNL     C6   10  -0.193  -0.033   0.116
    1UNL     O5   11  -0.190  -0.094  -0.008
    1UNL     C7   12  -0.289  -0.194  -0.049
    1UNL     C8   13  -0.233  -0.320  -0.116
    1UNL     O6   14  -0.150  -0.393  -0.036
    1UNL     C9   15  -0.386  -0.211   0.071
    1UNL     O7   16  -0.488  -0.113   0.074
    1UNL    C10   17  -0.319  -0.234   0.209
    1UNL     O8   18  -0.292  -0.377   0.226
    1UNL    C11   19  -0.193  -0.145   0.218
    1UNL     O9   20  -0.074  -0.222   0.208
    1UNL    C12   21  -0.053   0.152  -0.097
    1UNL    C13   22   0.071   0.075  -0.122
    1UNL    C14   23   0.086  -0.075  -0.105
    1UNL     N1   24   0.124  -0.158  -0.221
    1UNL    C15   25   0.184  -0.290  -0.200
    1UNL    C16   26   0.315  -0.286  -0.119
    1UNL    C17   27   0.301  -0.185  -0.010
    1UNL    C18   28   0.192  -0.104   0.002
    1UNL     N2   29   0.187  -0.045   0.129
    1UNL    C19   30   0.294  -0.088   0.204
    1UNL    C20   31   0.332  -0.061   0.339
    1UNL    C21   32   0.441  -0.134   0.379
    1UNL    C22   33   0.510  -0.229   0.298
    1UNL    C23   34   0.467  -0.259   0.169
    1UNL    C24   35   0.365  -0.182   0.119
    1UNL    C25   36   0.170   0.156  -0.162
    1UNL    C26   37   0.126   0.303  -0.166
    1UNL    C27   38  -0.029   0.290  -0.174
    1UNL     H1   39   0.001   0.773  -0.170
    1UNL     H2   40  -0.126   0.755  -0.302
    1UNL     H3   41  -0.170   0.837  -0.139
    1UNL     H4   42  -0.266   0.449   0.033
    1UNL     H5   43   0.006   0.223   0.094
    1UNL     H6   44  -0.284   0.024   0.127
    1UNL     H7   45  -0.345  -0.142  -0.127
    1UNL     H8   46  -0.176  -0.277  -0.197
    1UNL     H9   47  -0.309  -0.387  -0.163
    1UNL    H10   48  -0.169  -0.383   0.055
    1UNL    H11   49  -0.441  -0.303   0.044
    1UNL    H12   50  -0.441  -0.022   0.091
    1UNL    H13   51  -0.387  -0.204   0.288
    1UNL    H14   52  -0.221  -0.390   0.296
    1UNL    H15   53  -0.180  -0.109   0.317
    1UNL    H16   54   0.006  -0.164   0.212
    1UNL    H17   55  -0.146   0.111  -0.136
    1UNL    H18   56  -0.008  -0.119  -0.067
    1UNL    H19   57   0.180  -0.102  -0.285
    1UNL    H20   58   0.111  -0.354  -0.149
    1UNL    H21   59   0.195  -0.335  -0.299
    1UNL    H22   60   0.397  -0.259  -0.187
    1UNL    H23   61   0.352  -0.371  -0.071
    1UNL    H24   62   0.108   0.009   0.158
    1UNL    H25   63   0.274  -0.011   0.411
    1UNL    H26   64   0.480  -0.115   0.475
    1UNL    H27   65   0.588  -0.288   0.351
    1UNL    H28   66   0.516  -0.336   0.115
    1UNL    H29   67   0.269   0.125  -0.195
    1UNL    H30   68   0.158   0.350  -0.074
    1UNL    H31   69   0.170   0.366  -0.245
    1UNL    H32   70  -0.062   0.273  -0.274
   0.00000   0.00000   0.00000   0.00000   0.00000   0.00000   0.00000   0.00000   0.00000
Generated with MDTraj, t= 98.0
 70
    1UNL     C1    1  -0.134   0.741  -0.163
    1UNL     O1    2  -0.159   0.615  -0.098
    1UNL     C2    3  -0.079   0.526  -0.158
    1UNL     O2    4   0.004   0.553  -0.246
    1UNL     C3    5  -0.092   0.386  -0.114
    1UNL     C4    6  -0.187   0.364  -0.014
    1UNL     O3    7  -0.207   0.245   0.049
    1UNL     C5    8  -0.086   0.162   0.036
    1UNL     O4    9  -0.078   0.045   0.126
    1UNL     C6   10  -0.197  -0.021   0.108
    1UNL     O5   11  -0.212  -0.076  -0.030
    1UNL     C7   12  -0.309  -0.183  -0.048
    1UNL     C8   13  -0.239  -0.308  -0.102
    1UNL     O6   14  -0.125  -0.336  -0.030
    1UNL     C9   15  -0.401  -0.204   0.078
    1UNL     O7   16  -0.509  -0.109   0.079
    1UNL    C10   17  -0.316  -0.221   0.206
    1UNL     O8   18  -0.285  -0.358   0.221
    1UNL    C11   19  -0.187  -0.137   0.219
    1UNL     O9   20  -0.061  -0.205   0.204
    1UNL    C12   21  -0.052   0.135  -0.117
    1UNL    C13   22   0.081   0.073  -0.125
    1UNL    C14   23   0.089  -0.075  -0.097
    1UNL     N1   24   0.132  -0.148  -0.220
    1UNL    C15   25   0.198  -0.280  -0.216
    1UNL    C16   26   0.315  -0.280  -0.120
    1UNL    C17   27   0.288  -0.196   0.000
    1UNL    C18   28   0.185  -0.113   0.014
    1UNL     N2   29   0.179  -0.054   0.140
    1UNL    C19   30   0.289  -0.099   0.207
    1UNL    C20   31   0.342  -0.066   0.331
    1UNL    C21   32   0.447  -0.135   0.380
    1UNL    C22   33   0.516  -0.232   0.306
    1UNL    C23   34   0.482  -0.254   0.174
    1UNL    C24   35   0.360  -0.190   0.125
    1UNL    C25   36   0.186   0.156  -0.144
    1UNL    C26   37   0.126   0.293  -0.189
    1UNL    C27   38  -0.028   0.271  -0.186
    1UNL     H1   39  -0.072   0.740  -0.262
    1UNL     H2   40  -0.228   0.799  -0.192
    1UNL     H3   41  -0.077   0.805  -0.092
    1UNL     H4   42  -0.266   0.439  -0.001
    1UNL     H5   43   0.006   0.218   0.070
    1UNL     H6   44  -0.275   0.049   0.137
    1UNL     H7   45  -0.381  -0.150  -0.126
    1UNL     H8   46  -0.216  -0.309  -0.210
    1UNL     H9   47  -0.320  -0.387  -0.091
    1UNL    H10   48  -0.137  -0.349   0.068
    1UNL    H11   49  -0.453  -0.301   0.065
    1UNL    H12   50  -0.476  -0.010   0.070
    1UNL    H13   51  -0.379  -0.191   0.286
    1UNL    H14   52  -0.214  -0.365   0.290
    1UNL    H15   53  -0.190  -0.098   0.317
    1UNL    H16   54   0.009  -0.137   0.197
    1UNL    H17   55  -0.130   0.071  -0.159
    1UNL    H18   56  -0.007  -0.125  -0.067
    1UNL    H19   57   0.178  -0.083  -0.285
    1UNL    H20   58   0.120  -0.351  -0.187
    1UNL    H21   59   0.227  -0.314  -0.316
    1UNL    H22   60   0.407  -0.237  -0.164
    1UNL    H23   61   0.346  -0.375  -0.089
    1UNL    H24   62   0.107   0.016   0.170
    1UNL    H25   63   0.288   0.006   0.395
    1UNL    H26   64   0.485  -0.110   0.482
    1UNL    H27   65   0.602  -0.273   0.348
    1UNL    H28   66   0.534  -0.328   0.117
    1UNL    H29   67   0.286   0.123  -0.139
    1UNL    H30   68   0.148   0.362  -0.108
    1UNL    H31   69   0.171   0.340  -0.275
    1UNL    H32   70  -0.061   0.266  -0.287
   0.00000   0.00000   0.00000   0.00000   0.00000   0.00000   0.00000   0.00000   0.00000
Generated with MDTraj, t= 99.0
 70
    1UNL     C1    1  -0.142   0.742  -0.138
    1UNL     O1    2  -0.164   0.610  -0.098
    1UNL     C2    3  -0.091   0.528  -0.165
    1UNL     O2    4  -0.017   0.565  -0.256
    1UNL     C3    5  -0.105   0.392  -0.116
    1UNL     C4    6  -0.184   0.364  -0.007
    1UNL     O3    7  -0.213   0.243   0.043
    1UNL     C5    8  -0.088   0.167   0.035
    1UNL     O4    9  -0.085   0.060   0.129
    1UNL     C6   10  -0.194  -0.019   0.108
    1UNL     O5   11  -0.213  -0.063  -0.018
    1UNL     C7   12  -0.314  -0.164  -0.053
    1UNL     C8   13  -0.240  -0.281  -0.116
    1UNL     O6   14  -0.130  -0.323  -0.031
    1UNL     C9   15  -0.407  -0.205   0.070
    1UNL     O7   16  -0.506  -0.109   0.087
    1UNL    C10   17  -0.318  -0.219   0.205
    1UNL     O8   18  -0.285  -0.363   0.222
    1UNL    C11   19  -0.182  -0.131   0.215
    1UNL     O9   20  -0.065  -0.204   0.204
    1UNL    C12   21  -0.051   0.135  -0.121
    1UNL    C13   22   0.079   0.064  -0.132
    1UNL    C14   23   0.107  -0.083  -0.111
    1UNL     N1   24   0.169  -0.152  -0.230
    1UNL    C15   25   0.208  -0.290  -0.204
    1UNL    C16   26   0.322  -0.297  -0.102
    1UNL    C17   27   0.294  -0.218   0.016
    1UNL    C18   28   0.190  -0.115   0.012
    1UNL     N2   29   0.190  -0.060   0.137
    1UNL    C19   30   0.290  -0.112   0.214
    1UNL    C20   31   0.345  -0.068   0.336
    1UNL    C21   32   0.454  -0.134   0.384
    1UNL    C22   33   0.522  -0.232   0.311
    1UNL    C23   34   0.483  -0.262   0.184
    1UNL    C24   35   0.362  -0.209   0.141
    1UNL    C25   36   0.170   0.146  -0.180
    1UNL    C26   37   0.114   0.285  -0.195
    1UNL    C27   38  -0.037   0.278  -0.190
    1UNL     H1   39  -0.231   0.800  -0.176
    1UNL     H2   40  -0.113   0.796  -0.047
    1UNL     H3   41  -0.060   0.754  -0.209
    1UNL     H4   42  -0.256   0.438   0.020
    1UNL     H5   43   0.008   0.222   0.071
    1UNL     H6   44  -0.275   0.047   0.134
    1UNL     H7   45  -0.379  -0.110  -0.128
    1UNL     H8   46  -0.199  -0.238  -0.212
    1UNL     H9   47  -0.297  -0.372  -0.156
    1UNL    H10   48  -0.167  -0.336   0.065
    1UNL    H11   49  -0.454  -0.304   0.056
    1UNL    H12   50  -0.465  -0.010   0.085
    1UNL    H13   51  -0.385  -0.195   0.283
    1UNL    H14   52  -0.223  -0.375   0.292
    1UNL    H15   53  -0.184  -0.076   0.305
    1UNL    H16   54   0.011  -0.144   0.199
    1UNL    H17   55  -0.125   0.063  -0.156
    1UNL    H18   56   0.007  -0.132  -0.098
    1UNL    H19   57   0.250  -0.094  -0.256
    1UNL    H20   58   0.122  -0.338  -0.163
    1UNL    H21   59   0.227  -0.343  -0.298
    1UNL    H22   60   0.419  -0.272  -0.149
    1UNL    H23   61   0.339  -0.398  -0.075
    1UNL    H24   62   0.134   0.025   0.167
    1UNL    H25   63   0.314   0.020   0.382
    1UNL    H26   64   0.491  -0.112   0.479
    1UNL    H27   65   0.620  -0.270   0.347
    1UNL    H28   66   0.542  -0.325   0.116
    1UNL    H29   67   0.267   0.104  -0.211
    1UNL    H30   68   0.156   0.349  -0.118
    1UNL    H31   69   0.159   0.321  -0.285
    1UNL    H32   70  -0.074   0.265  -0.290
   0.00000   0.00000   0.00000   0.00000   0.00000   0.00000   0.00000   0.00000   0.00000
