Generated with MDTraj, t= 0.0
 30
    1UNL     C1    1   0.390   0.112   0.045
    1UNL     C2    2   0.293   0.082  -0.038
    1UNL     C3    3   0.179  -0.011  -0.004
    1UNL     C4    4   0.233  -0.154   0.016
    1UNL     O1    5   0.115   0.033   0.118
    1UNL     C5    6   0.075  -0.008  -0.118
    1UNL     C6    7  -0.049  -0.095  -0.095
    1UNL     C7    8  -0.132  -0.050   0.020
    1UNL     C8    9  -0.236   0.032   0.012
    1UNL     C9   10  -0.288   0.080  -0.119
    1UNL    C10   11  -0.310   0.070   0.136
    1UNL     O2   12  -0.407  -0.025   0.174
    1UNL     H1   13   0.470   0.178   0.018
    1UNL     H2   14   0.393   0.070   0.144
    1UNL     H3   15   0.293   0.125  -0.137
    1UNL     H4   16   0.154  -0.221   0.049
    1UNL     H5   17   0.275  -0.192  -0.076
    1UNL     H6   18   0.311  -0.155   0.092
    1UNL     H7   19   0.181   0.033   0.191
    1UNL     H8   20   0.043   0.096  -0.132
    1UNL     H9   21   0.124  -0.037  -0.211
    1UNL    H10   22  -0.111  -0.098  -0.185
    1UNL    H11   23  -0.019  -0.200  -0.080
    1UNL    H12   24  -0.099  -0.080   0.119
    1UNL    H13   25  -0.330  -0.003  -0.177
    1UNL    H14   26  -0.209   0.127  -0.178
    1UNL    H15   27  -0.367   0.154  -0.105
    1UNL    H16   28  -0.240   0.085   0.220
    1UNL    H17   29  -0.361   0.166   0.122
    1UNL    H18   30  -0.367  -0.114   0.177
   0.00000   0.00000   0.00000   0.00000   0.00000   0.00000   0.00000   0.00000   0.00000
Generated with MDTraj, t= 1.0
 30
    1UNL     C1    1   0.395   0.114   0.042
    1UNL     C2    2   0.303   0.062  -0.044
    1UNL     C3    3   0.169  -0.005  -0.001
    1UNL     C4    4   0.207  -0.151   0.056
    1UNL     O1    5   0.096   0.059   0.100
    1UNL     C5    6   0.073  -0.014  -0.128
    1UNL     C6    7  -0.050  -0.096  -0.112
    1UNL     C7    8  -0.132  -0.057   0.009
    1UNL     C8    9  -0.236   0.025   0.009
    1UNL     C9   10  -0.261   0.113  -0.110
    1UNL    C10   11  -0.305   0.053   0.149
    1UNL     O2   12  -0.393  -0.048   0.180
    1UNL     H1   13   0.490   0.168   0.022
    1UNL     H2   14   0.374   0.131   0.145
    1UNL     H3   15   0.314   0.064  -0.152
    1UNL     H4   16   0.316  -0.173   0.057
    1UNL     H5   17   0.159  -0.151   0.151
    1UNL     H6   18   0.163  -0.232  -0.001
    1UNL     H7   19   0.143   0.107   0.172
    1UNL     H8   20   0.049   0.092  -0.131
    1UNL     H9   21   0.121  -0.040  -0.227
    1UNL    H10   22  -0.112  -0.097  -0.200
    1UNL    H11   23  -0.028  -0.202  -0.090
    1UNL    H12   24  -0.102  -0.109   0.104
    1UNL    H13   25  -0.236   0.075  -0.203
    1UNL    H14   26  -0.210   0.217  -0.105
    1UNL    H15   27  -0.366   0.138  -0.129
    1UNL    H16   28  -0.226   0.068   0.222
    1UNL    H17   29  -0.364   0.143   0.132
    1UNL    H18   30  -0.390  -0.104   0.100
   0.00000   0.00000   0.00000   0.00000   0.00000   0.00000   0.00000   0.00000   0.00000
Generated with MDTraj, t= 2.0
 30
    1UNL     C1    1   0.385   0.100   0.044
    1UNL     C2    2   0.292   0.059  -0.042
    1UNL     C3    3   0.160  -0.005  -0.006
    1UNL     C4    4   0.195  -0.134   0.076
    1UNL     O1    5   0.070   0.081   0.080
    1UNL     C5    6   0.074  -0.019  -0.132
    1UNL     C6    7  -0.051  -0.109  -0.110
    1UNL     C7    8  -0.141  -0.074   0.008
    1UNL     C8    9  -0.216   0.034   0.014
    1UNL     C9   10  -0.225   0.140  -0.094
    1UNL    C10   11  -0.294   0.045   0.140
    1UNL     O2   12  -0.376  -0.067   0.174
    1UNL     H1   13   0.479   0.151   0.021
    1UNL     H2   14   0.358   0.112   0.148
    1UNL     H3   15   0.296   0.083  -0.148
    1UNL     H4   16   0.110  -0.204   0.054
    1UNL     H5   17   0.295  -0.167   0.050
    1UNL     H6   18   0.201  -0.115   0.181
    1UNL     H7   19   0.123   0.126   0.151
    1UNL     H8   20   0.034   0.078  -0.153
    1UNL     H9   21   0.148  -0.052  -0.214
    1UNL    H10   22  -0.119  -0.100  -0.193
    1UNL    H11   23  -0.020  -0.214  -0.121
    1UNL    H12   24  -0.164  -0.142   0.083
    1UNL    H13   25  -0.175   0.102  -0.181
    1UNL    H14   26  -0.188   0.243  -0.058
    1UNL    H15   27  -0.331   0.141  -0.125
    1UNL    H16   28  -0.217   0.032   0.215
    1UNL    H17   29  -0.354   0.137   0.150
    1UNL    H18   30  -0.414  -0.127   0.103
   0.00000   0.00000   0.00000   0.00000   0.00000   0.00000   0.00000   0.00000   0.00000
Generated with MDTraj, t= 3.0
 30
    1UNL     C1    1   0.371   0.106   0.047
    1UNL     C2    2   0.276   0.068  -0.036
    1UNL     C3    3   0.148  -0.005   0.002
    1UNL     C4    4   0.189  -0.130   0.081
    1UNL     O1    5   0.060   0.089   0.071
    1UNL     C5    6   0.067  -0.022  -0.137
    1UNL     C6    7  -0.049  -0.118  -0.113
    1UNL     C7    8  -0.150  -0.082  -0.006
    1UNL     C8    9  -0.213   0.031   0.012
    1UNL     C9   10  -0.187   0.147  -0.080
    1UNL    C10   11  -0.288   0.048   0.143
    1UNL     O2   12  -0.359  -0.078   0.168
    1UNL     H1   13   0.469   0.131   0.016
    1UNL     H2   14   0.362   0.093   0.155
    1UNL     H3   15   0.294   0.088  -0.140
    1UNL     H4   16   0.193  -0.092   0.186
    1UNL     H5   17   0.121  -0.215   0.076
    1UNL     H6   18   0.280  -0.175   0.045
    1UNL     H7   19   0.124   0.126   0.136
    1UNL     H8   20   0.031   0.076  -0.160
    1UNL     H9   21   0.128  -0.053  -0.230
    1UNL    H10   22  -0.097  -0.149  -0.205
    1UNL    H11   23  -0.010  -0.218  -0.085
    1UNL    H12   24  -0.192  -0.164   0.062
    1UNL    H13   25  -0.177   0.114  -0.191
    1UNL    H14   26  -0.101   0.203  -0.042
    1UNL    H15   27  -0.277   0.214  -0.077
    1UNL    H16   28  -0.220   0.075   0.222
    1UNL    H17   29  -0.369   0.124   0.132
    1UNL    H18   30  -0.441  -0.084   0.112
   0.00000   0.00000   0.00000   0.00000   0.00000   0.00000   0.00000   0.00000   0.00000
Generated with MDTraj, t= 4.0
 30
    1UNL     C1    1   0.363   0.124   0.051
    1UNL     C2    2   0.293   0.061  -0.034
    1UNL     C3    3   0.157  -0.005  -0.005
    1UNL     C4    4   0.181  -0.134   0.081
    1UNL     O1    5   0.063   0.077   0.067
    1UNL     C5    6   0.080  -0.025  -0.132
    1UNL     C6    7  -0.052  -0.106  -0.124
    1UNL     C7    8  -0.140  -0.086  -0.003
    1UNL     C8    9  -0.205   0.029   0.015
    1UNL     C9   10  -0.207   0.138  -0.080
    1UNL    C10   11  -0.292   0.047   0.142
    1UNL     O2   12  -0.367  -0.071   0.172
    1UNL     H1   13   0.459   0.172   0.042
    1UNL     H2   14   0.321   0.121   0.153
    1UNL     H3   15   0.346   0.059  -0.132
    1UNL     H4   16   0.284  -0.155   0.110
    1UNL     H5   17   0.121  -0.141   0.172
    1UNL     H6   18   0.139  -0.219   0.027
    1UNL     H7   19   0.090   0.121   0.151
    1UNL     H8   20   0.062   0.070  -0.177
    1UNL     H9   21   0.147  -0.095  -0.196
    1UNL    H10   22  -0.114  -0.090  -0.210
    1UNL    H11   23  -0.036  -0.215  -0.129
    1UNL    H12   24  -0.129  -0.149   0.076
    1UNL    H13   25  -0.296   0.136  -0.156
    1UNL    H14   26  -0.116   0.167  -0.133
    1UNL    H15   27  -0.232   0.238  -0.031
    1UNL    H16   28  -0.221   0.055   0.222
    1UNL    H17   29  -0.351   0.140   0.131
    1UNL    H18   30  -0.444  -0.065   0.114
   0.00000   0.00000   0.00000   0.00000   0.00000   0.00000   0.00000   0.00000   0.00000
Generated with MDTraj, t= 5.0
 30
    1UNL     C1    1   0.368   0.133   0.045
    1UNL     C2    2   0.303   0.046  -0.034
    1UNL     C3    3   0.162  -0.008   0.000
    1UNL     C4    4   0.178  -0.148   0.069
    1UNL     O1    5   0.090   0.071   0.095
    1UNL     C5    6   0.082  -0.012  -0.134
    1UNL     C6    7  -0.048  -0.092  -0.127
    1UNL     C7    8  -0.129  -0.069  -0.003
    1UNL     C8    9  -0.210   0.033   0.020
    1UNL     C9   10  -0.255   0.112  -0.093
    1UNL    C10   11  -0.285   0.046   0.145
    1UNL     O2   12  -0.380  -0.054   0.167
    1UNL     H1   13   0.457   0.187   0.010
    1UNL     H2   14   0.333   0.160   0.142
    1UNL     H3   15   0.354  -0.019  -0.100
    1UNL     H4   16   0.185  -0.143   0.176
    1UNL     H5   17   0.096  -0.216   0.044
    1UNL     H6   18   0.267  -0.201   0.028
    1UNL     H7   19   0.126   0.072   0.186
    1UNL     H8   20   0.054   0.089  -0.157
    1UNL     H9   21   0.144  -0.058  -0.221
    1UNL    H10   22  -0.117  -0.082  -0.210
    1UNL    H11   23  -0.019  -0.198  -0.135
    1UNL    H12   24  -0.085  -0.102   0.097
    1UNL    H13   25  -0.327   0.049  -0.153
    1UNL    H14   26  -0.163   0.147  -0.151
    1UNL    H15   27  -0.314   0.208  -0.064
    1UNL    H16   28  -0.224   0.057   0.234
    1UNL    H17   29  -0.353   0.132   0.133
    1UNL    H18   30  -0.435  -0.078   0.088
   0.00000   0.00000   0.00000   0.00000   0.00000   0.00000   0.00000   0.00000   0.00000
Generated with MDTraj, t= 6.0
 30
    1UNL     C1    1   0.356   0.154   0.034
    1UNL     C2    2   0.309   0.050  -0.039
    1UNL     C3    3   0.185  -0.023   0.008
    1UNL     C4    4   0.216  -0.175   0.045
    1UNL     O1    5   0.137   0.051   0.123
    1UNL     C5    6   0.088  -0.006  -0.114
    1UNL     C6    7  -0.044  -0.080  -0.121
    1UNL     C7    8  -0.133  -0.055   0.002
    1UNL     C8    9  -0.236   0.031   0.009
    1UNL     C9   10  -0.294   0.100  -0.116
    1UNL    C10   11  -0.317   0.065   0.132
    1UNL     O2   12  -0.400  -0.041   0.181
    1UNL     H1   13   0.462   0.174   0.028
    1UNL     H2   14   0.326   0.177   0.134
    1UNL     H3   15   0.372  -0.013  -0.107
    1UNL     H4   16   0.231  -0.175   0.151
    1UNL     H5   17   0.137  -0.245   0.016
    1UNL     H6   18   0.313  -0.209  -0.000
    1UNL     H7   19   0.136  -0.006   0.202
    1UNL     H8   20   0.077   0.102  -0.131
    1UNL     H9   21   0.144  -0.049  -0.205
    1UNL    H10   22  -0.094  -0.068  -0.216
    1UNL    H11   23  -0.030  -0.189  -0.112
    1UNL    H12   24  -0.125  -0.113   0.087
    1UNL    H13   25  -0.320   0.027  -0.194
    1UNL    H14   26  -0.213   0.180  -0.148
    1UNL    H15   27  -0.392   0.156  -0.090
    1UNL    H16   28  -0.244   0.079   0.213
    1UNL    H17   29  -0.383   0.151   0.125
    1UNL    H18   30  -0.446  -0.093   0.108
   0.00000   0.00000   0.00000   0.00000   0.00000   0.00000   0.00000   0.00000   0.00000
Generated with MDTraj, t= 7.0
 30
    1UNL     C1    1   0.320   0.165   0.028
    1UNL     C2    2   0.327   0.042  -0.018
    1UNL     C3    3   0.200  -0.034   0.002
    1UNL     C4    4   0.225  -0.185  -0.007
    1UNL     O1    5   0.149   0.008   0.142
    1UNL     C5    6   0.088  -0.005  -0.105
    1UNL     C6    7  -0.047  -0.071  -0.081
    1UNL     C7    8  -0.125  -0.004   0.030
    1UNL     C8    9  -0.245   0.048   0.005
    1UNL     C9   10  -0.300   0.063  -0.129
    1UNL    C10   11  -0.329   0.082   0.119
    1UNL     O2   12  -0.393  -0.036   0.169
    1UNL     H1   13   0.403   0.231   0.012
    1UNL     H2   14   0.245   0.200   0.103
    1UNL     H3   15   0.412   0.002  -0.066
    1UNL     H4   16   0.333  -0.199   0.003
    1UNL     H5   17   0.165  -0.236   0.070
    1UNL     H6   18   0.197  -0.231  -0.104
    1UNL     H7   19   0.223   0.008   0.207
    1UNL     H8   20   0.059   0.102  -0.093
    1UNL     H9   21   0.135  -0.018  -0.206
    1UNL    H10   22  -0.118  -0.065  -0.162
    1UNL    H11   23  -0.037  -0.180  -0.069
    1UNL    H12   24  -0.105  -0.029   0.137
    1UNL    H13   25  -0.329  -0.030  -0.186
    1UNL    H14   26  -0.234   0.133  -0.193
    1UNL    H15   27  -0.403   0.116  -0.136
    1UNL    H16   28  -0.270   0.130   0.198
    1UNL    H17   29  -0.401   0.151   0.077
    1UNL    H18   30  -0.412  -0.084   0.086
   0.00000   0.00000   0.00000   0.00000   0.00000   0.00000   0.00000   0.00000   0.00000
Generated with MDTraj, t= 8.0
 30
    1UNL     C1    1   0.312   0.183   0.016
    1UNL     C2    2   0.326   0.050   0.017
    1UNL     C3    3   0.210  -0.045   0.007
    1UNL     C4    4   0.268  -0.181  -0.040
    1UNL     O1    5   0.150  -0.045   0.141
    1UNL     C5    6   0.098   0.002  -0.095
    1UNL     C6    7  -0.041  -0.063  -0.082
    1UNL     C7    8  -0.139  -0.008   0.022
    1UNL     C8    9  -0.261   0.042  -0.000
    1UNL     C9   10  -0.321   0.038  -0.136
    1UNL    C10   11  -0.339   0.101   0.117
    1UNL     O2   12  -0.407   0.000   0.183
    1UNL     H1   13   0.399   0.243   0.034
    1UNL     H2   14   0.224   0.225  -0.027
    1UNL     H3   15   0.416   0.025   0.080
    1UNL     H4   16   0.347  -0.225   0.026
    1UNL     H5   17   0.193  -0.253  -0.077
    1UNL     H6   18   0.330  -0.159  -0.127
    1UNL     H7   19   0.222  -0.017   0.204
    1UNL     H8   20   0.086   0.116  -0.096
    1UNL     H9   21   0.136  -0.017  -0.198
    1UNL    H10   22  -0.090  -0.080  -0.175
    1UNL    H11   23  -0.022  -0.169  -0.053
    1UNL    H12   24  -0.112  -0.014   0.125
    1UNL    H13   25  -0.373  -0.065  -0.163
    1UNL    H14   26  -0.249   0.074  -0.213
    1UNL    H15   27  -0.411   0.108  -0.143
    1UNL    H16   28  -0.261   0.139   0.187
    1UNL    H17   29  -0.410   0.176   0.094
    1UNL    H18   30  -0.351  -0.064   0.230
   0.00000   0.00000   0.00000   0.00000   0.00000   0.00000   0.00000   0.00000   0.00000
Generated with MDTraj, t= 9.0
 30
    1UNL     C1    1   0.280   0.182   0.044
    1UNL     C2    2   0.313   0.056   0.014
    1UNL     C3    3   0.201  -0.043   0.008
    1UNL     C4    4   0.259  -0.175  -0.049
    1UNL     O1    5   0.140  -0.057   0.134
    1UNL     C5    6   0.093   0.013  -0.091
    1UNL     C6    7  -0.038  -0.063  -0.095
    1UNL     C7    8  -0.121  -0.010   0.013
    1UNL     C8    9  -0.240   0.039  -0.004
    1UNL     C9   10  -0.315   0.000  -0.125
    1UNL    C10   11  -0.312   0.109   0.108
    1UNL     O2   12  -0.397   0.031   0.191
    1UNL     H1   13   0.349   0.263   0.079
    1UNL     H2   14   0.174   0.203   0.058
    1UNL     H3   15   0.409   0.016   0.019
    1UNL     H4   16   0.323  -0.222   0.031
    1UNL     H5   17   0.180  -0.244  -0.081
    1UNL     H6   18   0.332  -0.173  -0.129
    1UNL     H7   19   0.186  -0.126   0.187
    1UNL     H8   20   0.067   0.126  -0.073
    1UNL     H9   21   0.133  -0.004  -0.193
    1UNL    H10   22  -0.080  -0.048  -0.192
    1UNL    H11   23  -0.034  -0.174  -0.090
    1UNL    H12   24  -0.076   0.026   0.105
    1UNL    H13   25  -0.285  -0.109  -0.159
    1UNL    H14   26  -0.297   0.080  -0.201
    1UNL    H15   27  -0.424  -0.013  -0.093
    1UNL    H16   28  -0.241   0.163   0.178
    1UNL    H17   29  -0.379   0.176   0.066
    1UNL    H18   30  -0.366  -0.062   0.213
   0.00000   0.00000   0.00000   0.00000   0.00000   0.00000   0.00000   0.00000   0.00000
Generated with MDTraj, t= 10.0
 30
    1UNL     C1    1   0.318   0.152   0.107
    1UNL     C2    2   0.294   0.077  -0.001
    1UNL     C3    3   0.197  -0.040  -0.005
    1UNL     C4    4   0.288  -0.161  -0.014
    1UNL     O1    5   0.115  -0.048   0.121
    1UNL     C5    6   0.104  -0.016  -0.129
    1UNL     C6    7  -0.047  -0.061  -0.118
    1UNL     C7    8  -0.118   0.018  -0.012
    1UNL     C8    9  -0.249   0.039  -0.007
    1UNL     C9   10  -0.338  -0.019  -0.107
    1UNL    C10   11  -0.308   0.111   0.109
    1UNL     O2   12  -0.393   0.033   0.200
    1UNL     H1   13   0.395   0.220   0.109
    1UNL     H2   14   0.260   0.129   0.193
    1UNL     H3   15   0.317   0.104  -0.108
    1UNL     H4   16   0.384  -0.146   0.043
    1UNL     H5   17   0.231  -0.251   0.019
    1UNL     H6   18   0.323  -0.182  -0.114
    1UNL     H7   19   0.146  -0.114   0.186
    1UNL     H8   20   0.090   0.099  -0.143
    1UNL     H9   21   0.158  -0.055  -0.217
    1UNL    H10   22  -0.109  -0.045  -0.204
    1UNL    H11   23  -0.054  -0.170  -0.103
    1UNL    H12   24  -0.045   0.062   0.060
    1UNL    H13   25  -0.329  -0.131  -0.123
    1UNL    H14   26  -0.326   0.038  -0.205
    1UNL    H15   27  -0.448  -0.014  -0.072
    1UNL    H16   28  -0.223   0.145   0.176
    1UNL    H17   29  -0.360   0.196   0.083
    1UNL    H18   30  -0.357  -0.059   0.187
   0.00000   0.00000   0.00000   0.00000   0.00000   0.00000   0.00000   0.00000   0.00000
Generated with MDTraj, t= 11.0
 30
    1UNL     C1    1   0.367   0.110   0.109
    1UNL     C2    2   0.279   0.099   0.012
    1UNL     C3    3   0.183  -0.029  -0.005
    1UNL     C4    4   0.276  -0.155  -0.005
    1UNL     O1    5   0.105  -0.046   0.113
    1UNL     C5    6   0.103  -0.007  -0.140
    1UNL     C6    7  -0.040  -0.050  -0.117
    1UNL     C7    8  -0.119   0.043  -0.022
    1UNL     C8    9  -0.253   0.032  -0.009
    1UNL     C9   10  -0.343  -0.058  -0.091
    1UNL    C10   11  -0.311   0.117   0.103
    1UNL     O2   12  -0.385   0.036   0.194
    1UNL     H1   13   0.461   0.167   0.102
    1UNL     H2   14   0.341   0.057   0.204
    1UNL     H3   15   0.300   0.155  -0.075
    1UNL     H4   16   0.301  -0.181   0.100
    1UNL     H5   17   0.233  -0.238  -0.064
    1UNL     H6   18   0.374  -0.123  -0.043
    1UNL     H7   19   0.104  -0.138   0.149
    1UNL     H8   20   0.101   0.108  -0.154
    1UNL     H9   21   0.145  -0.063  -0.227
    1UNL    H10   22  -0.093  -0.061  -0.209
    1UNL    H11   23  -0.048  -0.150  -0.068
    1UNL    H12   24  -0.061   0.108   0.033
    1UNL    H13   25  -0.338  -0.164  -0.068
    1UNL    H14   26  -0.318  -0.044  -0.205
    1UNL    H15   27  -0.457  -0.042  -0.074
    1UNL    H16   28  -0.239   0.178   0.167
    1UNL    H17   29  -0.383   0.181   0.066
    1UNL    H18   30  -0.329  -0.037   0.221
   0.00000   0.00000   0.00000   0.00000   0.00000   0.00000   0.00000   0.00000   0.00000
Generated with MDTraj, t= 12.0
 30
    1UNL     C1    1   0.386   0.063   0.115
    1UNL     C2    2   0.306   0.085   0.016
    1UNL     C3    3   0.192  -0.012  -0.001
    1UNL     C4    4   0.253  -0.148  -0.033
    1UNL     O1    5   0.098  -0.032   0.117
    1UNL     C5    6   0.101   0.032  -0.116
    1UNL     C6    7  -0.034  -0.044  -0.105
    1UNL     C7    8  -0.129   0.045  -0.028
    1UNL     C8    9  -0.259   0.020  -0.013
    1UNL     C9   10  -0.333  -0.102  -0.082
    1UNL    C10   11  -0.340   0.109   0.074
    1UNL     O2   12  -0.376   0.054   0.198
    1UNL     H1   13   0.453   0.140   0.142
    1UNL     H2   14   0.364  -0.014   0.179
    1UNL     H3   15   0.331   0.166  -0.053
    1UNL     H4   16   0.346  -0.166   0.022
    1UNL     H5   17   0.167  -0.215  -0.012
    1UNL     H6   18   0.268  -0.168  -0.143
    1UNL     H7   19   0.113   0.048   0.172
    1UNL     H8   20   0.080   0.144  -0.116
    1UNL     H9   21   0.152   0.000  -0.210
    1UNL    H10   22  -0.080  -0.062  -0.202
    1UNL    H11   23  -0.021  -0.141  -0.054
    1UNL    H12   24  -0.085   0.137   0.021
    1UNL    H13   25  -0.281  -0.197  -0.061
    1UNL    H14   26  -0.336  -0.076  -0.194
    1UNL    H15   27  -0.436  -0.112  -0.031
    1UNL    H16   28  -0.277   0.202   0.099
    1UNL    H17   29  -0.427   0.133   0.025
    1UNL    H18   30  -0.303   0.031   0.260
   0.00000   0.00000   0.00000   0.00000   0.00000   0.00000   0.00000   0.00000   0.00000
Generated with MDTraj, t= 13.0
 30
    1UNL     C1    1   0.408   0.059   0.113
    1UNL     C2    2   0.331   0.049   0.006
    1UNL     C3    3   0.192  -0.023   0.002
    1UNL     C4    4   0.217  -0.174  -0.033
    1UNL     O1    5   0.134  -0.008   0.135
    1UNL     C5    6   0.103   0.065  -0.089
    1UNL     C6    7  -0.038   0.004  -0.120
    1UNL     C7    8  -0.156   0.063  -0.041
    1UNL     C8    9  -0.275   0.007  -0.020
    1UNL     C9   10  -0.312  -0.122  -0.076
    1UNL    C10   11  -0.382   0.075   0.063
    1UNL     O2   12  -0.371   0.066   0.203
    1UNL     H1   13   0.514   0.092   0.111
    1UNL     H2   14   0.377   0.029   0.216
    1UNL     H3   15   0.365   0.079  -0.092
    1UNL     H4   16   0.248  -0.218   0.062
    1UNL     H5   17   0.149  -0.226  -0.106
    1UNL     H6   18   0.312  -0.174  -0.093
    1UNL     H7   19   0.141   0.088   0.157
    1UNL     H8   20   0.097   0.164  -0.041
    1UNL     H9   21   0.159   0.068  -0.187
    1UNL    H10   22  -0.069   0.014  -0.225
    1UNL    H11   23  -0.030  -0.104  -0.103
    1UNL    H12   24  -0.145   0.158  -0.001
    1UNL    H13   25  -0.225  -0.194  -0.052
    1UNL    H14   26  -0.325  -0.108  -0.186
    1UNL    H15   27  -0.399  -0.167  -0.017
    1UNL    H16   28  -0.372   0.183   0.028
    1UNL    H17   29  -0.469   0.029   0.032
    1UNL    H18   30  -0.288   0.109   0.238
   0.00000   0.00000   0.00000   0.00000   0.00000   0.00000   0.00000   0.00000   0.00000
Generated with MDTraj, t= 14.0
 30
    1UNL     C1    1   0.395   0.040   0.115
    1UNL     C2    2   0.324   0.029   0.005
    1UNL     C3    3   0.181  -0.015   0.007
    1UNL     C4    4   0.184  -0.168  -0.035
    1UNL     O1    5   0.127   0.010   0.138
    1UNL     C5    6   0.096   0.079  -0.090
    1UNL     C6    7  -0.040   0.023  -0.127
    1UNL     C7    8  -0.149   0.061  -0.035
    1UNL     C8    9  -0.262  -0.006  -0.019
    1UNL     C9   10  -0.278  -0.137  -0.074
    1UNL    C10   11  -0.375   0.060   0.059
    1UNL     O2   12  -0.347   0.080   0.199
    1UNL     H1   13   0.484   0.090   0.108
    1UNL     H2   14   0.383   0.008   0.216
    1UNL     H3   15   0.352   0.081  -0.084
    1UNL     H4   16   0.285  -0.210  -0.027
    1UNL     H5   17   0.116  -0.216   0.038
    1UNL     H6   18   0.132  -0.193  -0.131
    1UNL     H7   19   0.151   0.098   0.177
    1UNL     H8   20   0.095   0.173  -0.034
    1UNL     H9   21   0.156   0.096  -0.185
    1UNL    H10   22  -0.067   0.064  -0.226
    1UNL    H11   23  -0.043  -0.082  -0.142
    1UNL    H12   24  -0.138   0.156   0.020
    1UNL    H13   25  -0.250  -0.224   0.001
    1UNL    H14   26  -0.227  -0.149  -0.170
    1UNL    H15   27  -0.387  -0.159  -0.092
    1UNL    H16   28  -0.392   0.160   0.006
    1UNL    H17   29  -0.457   0.000   0.050
    1UNL    H18   30  -0.270   0.020   0.214
   0.00000   0.00000   0.00000   0.00000   0.00000   0.00000   0.00000   0.00000   0.00000
Generated with MDTraj, t= 15.0
 30
    1UNL     C1    1   0.375   0.011   0.122
    1UNL     C2    2   0.302   0.060   0.029
    1UNL     C3    3   0.169  -0.004   0.005
    1UNL     C4    4   0.177  -0.157  -0.016
    1UNL     O1    5   0.090   0.023   0.119
    1UNL     C5    6   0.101   0.060  -0.112
    1UNL     C6    7  -0.044   0.027  -0.148
    1UNL     C7    8  -0.139   0.058  -0.038
    1UNL     C8    9  -0.251  -0.010  -0.016
    1UNL     C9   10  -0.282  -0.144  -0.089
    1UNL    C10   11  -0.354   0.050   0.079
    1UNL     O2   12  -0.293   0.080   0.207
    1UNL     H1   13   0.467   0.057   0.165
    1UNL     H2   14   0.338  -0.073   0.181
    1UNL     H3   15   0.342   0.141  -0.033
    1UNL     H4   16   0.183  -0.211   0.079
    1UNL     H5   17   0.101  -0.196  -0.085
    1UNL     H6   18   0.271  -0.182  -0.071
    1UNL     H7   19   0.102   0.107   0.170
    1UNL     H8   20   0.089   0.161  -0.079
    1UNL     H9   21   0.176   0.052  -0.199
    1UNL    H10   22  -0.062   0.083  -0.242
    1UNL    H11   23  -0.057  -0.075  -0.165
    1UNL    H12   24  -0.124   0.150   0.021
    1UNL    H13   25  -0.230  -0.236  -0.045
    1UNL    H14   26  -0.262  -0.142  -0.199
    1UNL    H15   27  -0.391  -0.171  -0.076
    1UNL    H16   28  -0.390   0.155   0.050
    1UNL    H17   29  -0.436  -0.006   0.100
    1UNL    H18   30  -0.197   0.063   0.210
   0.00000   0.00000   0.00000   0.00000   0.00000   0.00000   0.00000   0.00000   0.00000
Generated with MDTraj, t= 16.0
 30
    1UNL     C1    1   0.351   0.024   0.154
    1UNL     C2    2   0.279   0.061   0.055
    1UNL     C3    3   0.146   0.002   0.011
    1UNL     C4    4   0.153  -0.152   0.001
    1UNL     O1    5   0.061   0.024   0.117
    1UNL     C5    6   0.099   0.057  -0.126
    1UNL     C6    7  -0.042   0.022  -0.171
    1UNL     C7    8  -0.149   0.069  -0.076
    1UNL     C8    9  -0.249  -0.004  -0.027
    1UNL     C9   10  -0.299  -0.135  -0.085
    1UNL    C10   11  -0.305   0.043   0.096
    1UNL     O2   12  -0.207   0.053   0.197
    1UNL     H1   13   0.435   0.083   0.179
    1UNL     H2   14   0.338  -0.063   0.208
    1UNL     H3   15   0.311   0.149   0.007
    1UNL     H4   16   0.219  -0.194   0.080
    1UNL     H5   17   0.053  -0.199   0.003
    1UNL     H6   18   0.195  -0.196  -0.090
    1UNL     H7   19   0.048   0.121   0.127
    1UNL     H8   20   0.102   0.163  -0.120
    1UNL     H9   21   0.177   0.027  -0.205
    1UNL    H10   22  -0.076   0.066  -0.269
    1UNL    H11   23  -0.039  -0.083  -0.176
    1UNL    H12   24  -0.140   0.162  -0.030
    1UNL    H13   25  -0.218  -0.195  -0.124
    1UNL    H14   26  -0.367  -0.113  -0.176
    1UNL    H15   27  -0.351  -0.200  -0.010
    1UNL    H16   28  -0.359   0.143   0.095
    1UNL    H17   29  -0.370  -0.018   0.148
    1UNL    H18   30  -0.112   0.042   0.165
   0.00000   0.00000   0.00000   0.00000   0.00000   0.00000   0.00000   0.00000   0.00000
Generated with MDTraj, t= 17.0
 30
    1UNL     C1    1   0.318   0.060   0.166
    1UNL     C2    2   0.291   0.021   0.042
    1UNL     C3    3   0.152  -0.005  -0.002
    1UNL     C4    4   0.121  -0.159  -0.009
    1UNL     O1    5   0.065   0.048   0.101
    1UNL     C5    6   0.109   0.058  -0.141
    1UNL     C6    7  -0.038   0.033  -0.181
    1UNL     C7    8  -0.134   0.069  -0.066
    1UNL     C8    9  -0.233  -0.006  -0.017
    1UNL     C9   10  -0.266  -0.128  -0.079
    1UNL    C10   11  -0.305   0.037   0.103
    1UNL     O2   12  -0.231   0.027   0.228
    1UNL     H1   13   0.424   0.082   0.183
    1UNL     H2   14   0.261   0.038   0.260
    1UNL     H3   15   0.364   0.035  -0.039
    1UNL     H4   16   0.159  -0.208   0.084
    1UNL     H5   17   0.016  -0.181  -0.035
    1UNL     H6   18   0.177  -0.214  -0.085
    1UNL     H7   19   0.074   0.146   0.098
    1UNL     H8   20   0.136   0.160  -0.150
    1UNL     H9   21   0.171   0.004  -0.221
    1UNL    H10   22  -0.060   0.106  -0.262
    1UNL    H11   23  -0.068  -0.064  -0.212
    1UNL    H12   24  -0.123   0.174  -0.025
    1UNL    H13   25  -0.182  -0.197  -0.091
    1UNL    H14   26  -0.309  -0.109  -0.184
    1UNL    H15   27  -0.339  -0.189  -0.018
    1UNL    H16   28  -0.332   0.147   0.091
    1UNL    H17   29  -0.395  -0.014   0.111
    1UNL    H18   30  -0.171   0.103   0.241
   0.00000   0.00000   0.00000   0.00000   0.00000   0.00000   0.00000   0.00000   0.00000
Generated with MDTraj, t= 18.0
 30
    1UNL     C1    1   0.361   0.059   0.123
    1UNL     C2    2   0.301   0.010   0.015
    1UNL     C3    3   0.153  -0.008   0.013
    1UNL     C4    4   0.112  -0.155   0.008
    1UNL     O1    5   0.091   0.051   0.134
    1UNL     C5    6   0.101   0.065  -0.111
    1UNL     C6    7  -0.039   0.042  -0.174
    1UNL     C7    8  -0.152   0.086  -0.079
    1UNL     C8    9  -0.245   0.003  -0.031
    1UNL     C9   10  -0.246  -0.142  -0.068
    1UNL    C10   11  -0.325   0.049   0.090
    1UNL     O2   12  -0.268   0.013   0.215
    1UNL     H1   13   0.465   0.051   0.111
    1UNL     H2   14   0.321   0.113   0.206
    1UNL     H3   15   0.355  -0.026  -0.068
    1UNL     H4   16   0.170  -0.214   0.084
    1UNL     H5   17   0.003  -0.173   0.009
    1UNL     H6   18   0.161  -0.195  -0.080
    1UNL     H7   19   0.121   0.144   0.152
    1UNL     H8   20   0.111   0.169  -0.092
    1UNL     H9   21   0.181   0.039  -0.188
    1UNL    H10   22  -0.051   0.096  -0.271
    1UNL    H11   23  -0.044  -0.063  -0.195
    1UNL    H12   24  -0.146   0.178  -0.034
    1UNL    H13   25  -0.168  -0.200  -0.014
    1UNL    H14   26  -0.231  -0.150  -0.178
    1UNL    H15   27  -0.346  -0.183  -0.036
    1UNL    H16   28  -0.339   0.160   0.079
    1UNL    H17   29  -0.416   0.001   0.076
    1UNL    H18   30  -0.254  -0.083   0.223
   0.00000   0.00000   0.00000   0.00000   0.00000   0.00000   0.00000   0.00000   0.00000
Generated with MDTraj, t= 19.0
 30
    1UNL     C1    1   0.395   0.049   0.110
    1UNL     C2    2   0.318   0.020   0.004
    1UNL     C3    3   0.170   0.000   0.010
    1UNL     C4    4   0.146  -0.153   0.009
    1UNL     O1    5   0.125   0.061   0.133
    1UNL     C5    6   0.100   0.064  -0.116
    1UNL     C6    7  -0.043   0.029  -0.144
    1UNL     C7    8  -0.134   0.067  -0.031
    1UNL     C8    9  -0.249  -0.004  -0.022
    1UNL     C9   10  -0.284  -0.135  -0.091
    1UNL    C10   11  -0.358   0.046   0.076
    1UNL     O2   12  -0.336   0.013   0.207
    1UNL     H1   13   0.493   0.082   0.070
    1UNL     H2   14   0.370   0.078   0.210
    1UNL     H3   15   0.368   0.018  -0.095
    1UNL     H4   16   0.225  -0.198   0.075
    1UNL     H5   17   0.043  -0.169   0.045
    1UNL     H6   18   0.172  -0.207  -0.084
    1UNL     H7   19   0.168   0.149   0.147
    1UNL     H8   20   0.101   0.171  -0.103
    1UNL     H9   21   0.163   0.040  -0.206
    1UNL    H10   22  -0.065   0.075  -0.243
    1UNL    H11   23  -0.044  -0.079  -0.158
    1UNL    H12   24  -0.105   0.147   0.043
    1UNL    H13   25  -0.274  -0.227  -0.022
    1UNL    H14   26  -0.234  -0.157  -0.184
    1UNL    H15   27  -0.394  -0.128  -0.110
    1UNL    H16   28  -0.368   0.157   0.060
    1UNL    H17   29  -0.449  -0.001   0.048
    1UNL    H18   30  -0.243   0.043   0.229
   0.00000   0.00000   0.00000   0.00000   0.00000   0.00000   0.00000   0.00000   0.00000
Generated with MDTraj, t= 20.0
 30
    1UNL     C1    1   0.418   0.037   0.095
    1UNL     C2    2   0.326   0.066   0.003
    1UNL     C3    3   0.187   0.013   0.017
    1UNL     C4    4   0.193  -0.147   0.028
    1UNL     O1    5   0.127   0.068   0.131
    1UNL     C5    6   0.098   0.040  -0.108
    1UNL     C6    7  -0.043  -0.020  -0.126
    1UNL     C7    8  -0.148   0.019  -0.020
    1UNL     C8    9  -0.276  -0.011  -0.021
    1UNL     C9   10  -0.328  -0.092  -0.132
    1UNL    C10   11  -0.363   0.060   0.075
    1UNL     O2   12  -0.333   0.027   0.206
    1UNL     H1   13   0.521   0.051   0.075
    1UNL     H2   14   0.390  -0.011   0.189
    1UNL     H3   15   0.349   0.129  -0.081
    1UNL     H4   16   0.271  -0.186   0.097
    1UNL     H5   17   0.093  -0.189   0.043
    1UNL     H6   18   0.242  -0.191  -0.063
    1UNL     H7   19   0.155   0.158   0.157
    1UNL     H8   20   0.098   0.151  -0.110
    1UNL     H9   21   0.159   0.017  -0.195
    1UNL    H10   22  -0.076   0.009  -0.228
    1UNL    H11   23  -0.028  -0.129  -0.137
    1UNL    H12   24  -0.125   0.081   0.062
    1UNL    H13   25  -0.259  -0.171  -0.174
    1UNL    H14   26  -0.360  -0.032  -0.217
    1UNL    H15   27  -0.420  -0.143  -0.093
    1UNL    H16   28  -0.358   0.172   0.070
    1UNL    H17   29  -0.468   0.039   0.066
    1UNL    H18   30  -0.347  -0.071   0.221
   0.00000   0.00000   0.00000   0.00000   0.00000   0.00000   0.00000   0.00000   0.00000
Generated with MDTraj, t= 21.0
 30
    1UNL     C1    1   0.416   0.075   0.069
    1UNL     C2    2   0.302   0.083   0.002
    1UNL     C3    3   0.177   0.004   0.022
    1UNL     C4    4   0.221  -0.146   0.054
    1UNL     O1    5   0.102   0.044   0.136
    1UNL     C5    6   0.092   0.004  -0.108
    1UNL     C6    7  -0.047  -0.056  -0.107
    1UNL     C7    8  -0.146  -0.005  -0.010
    1UNL     C8    9  -0.276   0.005  -0.035
    1UNL     C9   10  -0.335  -0.034  -0.164
    1UNL    C10   11  -0.346   0.064   0.074
    1UNL     O2   12  -0.304   0.023   0.209
    1UNL     H1   13   0.493   0.147   0.052
    1UNL     H2   14   0.436  -0.015   0.127
    1UNL     H3   15   0.291   0.177  -0.052
    1UNL     H4   16   0.292  -0.154   0.138
    1UNL     H5   17   0.136  -0.211   0.074
    1UNL     H6   18   0.294  -0.195  -0.017
    1UNL     H7   19   0.105   0.141   0.145
    1UNL     H8   20   0.089   0.104  -0.155
    1UNL     H9   21   0.170  -0.041  -0.170
    1UNL    H10   22  -0.089  -0.059  -0.208
    1UNL    H11   23  -0.041  -0.167  -0.084
    1UNL    H12   24  -0.114   0.025   0.090
    1UNL    H13   25  -0.280  -0.020  -0.257
    1UNL    H14   26  -0.435   0.017  -0.179
    1UNL    H15   27  -0.363  -0.141  -0.156
    1UNL    H16   28  -0.337   0.175   0.069
    1UNL    H17   29  -0.454   0.055   0.075
    1UNL    H18   30  -0.340  -0.064   0.233
   0.00000   0.00000   0.00000   0.00000   0.00000   0.00000   0.00000   0.00000   0.00000
Generated with MDTraj, t= 22.0
 30
    1UNL     C1    1   0.385   0.111   0.081
    1UNL     C2    2   0.293   0.087  -0.013
    1UNL     C3    3   0.176  -0.009   0.010
    1UNL     C4    4   0.234  -0.149   0.052
    1UNL     O1    5   0.107   0.040   0.128
    1UNL     C5    6   0.081  -0.018  -0.114
    1UNL     C6    7  -0.046  -0.102  -0.100
    1UNL     C7    8  -0.142  -0.041   0.003
    1UNL     C8    9  -0.268  -0.001  -0.027
    1UNL     C9   10  -0.307   0.031  -0.167
    1UNL    C10   11  -0.348   0.069   0.080
    1UNL     O2   12  -0.313   0.032   0.213
    1UNL     H1   13   0.465   0.180   0.052
    1UNL     H2   14   0.380   0.074   0.181
    1UNL     H3   15   0.308   0.121  -0.115
    1UNL     H4   16   0.302  -0.148   0.137
    1UNL     H5   17   0.151  -0.216   0.078
    1UNL     H6   18   0.302  -0.199  -0.020
    1UNL     H7   19   0.079   0.133   0.116
    1UNL     H8   20   0.053   0.087  -0.140
    1UNL     H9   21   0.141  -0.045  -0.198
    1UNL    H10   22  -0.092  -0.127  -0.193
    1UNL    H11   23  -0.012  -0.203  -0.061
    1UNL    H12   24  -0.108  -0.054   0.107
    1UNL    H13   25  -0.350   0.130  -0.177
    1UNL    H14   26  -0.385  -0.047  -0.200
    1UNL    H15   27  -0.224   0.021  -0.234
    1UNL    H16   28  -0.346   0.180   0.068
    1UNL    H17   29  -0.453   0.052   0.063
    1UNL    H18   30  -0.294  -0.063   0.219
   0.00000   0.00000   0.00000   0.00000   0.00000   0.00000   0.00000   0.00000   0.00000
Generated with MDTraj, t= 23.0
 30
    1UNL     C1    1   0.330   0.173   0.046
    1UNL     C2    2   0.294   0.067  -0.030
    1UNL     C3    3   0.174  -0.021   0.017
    1UNL     C4    4   0.222  -0.162   0.043
    1UNL     O1    5   0.101   0.018   0.142
    1UNL     C5    6   0.076  -0.023  -0.104
    1UNL     C6    7  -0.042  -0.116  -0.082
    1UNL     C7    8  -0.147  -0.067   0.014
    1UNL     C8    9  -0.248   0.012  -0.025
    1UNL     C9   10  -0.253   0.072  -0.168
    1UNL    C10   11  -0.332   0.073   0.081
    1UNL     O2   12  -0.325   0.016   0.209
    1UNL     H1   13   0.411   0.233   0.008
    1UNL     H2   14   0.277   0.205   0.132
    1UNL     H3   15   0.355   0.017  -0.105
    1UNL     H4   16   0.303  -0.170   0.114
    1UNL     H5   17   0.140  -0.230   0.071
    1UNL     H6   18   0.269  -0.200  -0.051
    1UNL     H7   19   0.072   0.112   0.146
    1UNL     H8   20   0.031   0.080  -0.117
    1UNL     H9   21   0.116  -0.052  -0.197
    1UNL    H10   22  -0.076  -0.134  -0.179
    1UNL    H11   23   0.003  -0.217  -0.053
    1UNL    H12   24  -0.136  -0.099   0.113
    1UNL    H13   25  -0.355   0.049  -0.206
    1UNL    H14   26  -0.180   0.028  -0.236
    1UNL    H15   27  -0.238   0.179  -0.168
    1UNL    H16   28  -0.303   0.181   0.077
    1UNL    H17   29  -0.433   0.084   0.043
    1UNL    H18   30  -0.265   0.073   0.266
   0.00000   0.00000   0.00000   0.00000   0.00000   0.00000   0.00000   0.00000   0.00000
Generated with MDTraj, t= 24.0
 30
    1UNL     C1    1   0.251   0.197   0.006
    1UNL     C2    2   0.277   0.069  -0.010
    1UNL     C3    3   0.178  -0.043   0.019
    1UNL     C4    4   0.253  -0.173   0.061
    1UNL     O1    5   0.088   0.002   0.125
    1UNL     C5    6   0.087  -0.063  -0.115
    1UNL     C6    7  -0.047  -0.133  -0.086
    1UNL     C7    8  -0.144  -0.062   0.010
    1UNL     C8    9  -0.228   0.039  -0.019
    1UNL     C9   10  -0.204   0.123  -0.137
    1UNL    C10   11  -0.334   0.078   0.084
    1UNL     O2   12  -0.320   0.011   0.207
    1UNL     H1   13   0.327   0.269  -0.022
    1UNL     H2   14   0.163   0.237   0.059
    1UNL     H3   15   0.361   0.047  -0.078
    1UNL     H4   16   0.319  -0.149   0.143
    1UNL     H5   17   0.179  -0.250   0.091
    1UNL     H6   18   0.322  -0.207  -0.019
    1UNL     H7   19   0.046   0.085   0.090
    1UNL     H8   20   0.055   0.031  -0.170
    1UNL     H9   21   0.147  -0.115  -0.183
    1UNL    H10   22  -0.098  -0.152  -0.176
    1UNL    H11   23  -0.016  -0.236  -0.043
    1UNL    H12   24  -0.152  -0.114   0.110
    1UNL    H13   25  -0.207   0.054  -0.224
    1UNL    H14   26  -0.117   0.180  -0.128
    1UNL    H15   27  -0.290   0.193  -0.153
    1UNL    H16   28  -0.348   0.190   0.092
    1UNL    H17   29  -0.434   0.055   0.050
    1UNL    H18   30  -0.303   0.074   0.283
   0.00000   0.00000   0.00000   0.00000   0.00000   0.00000   0.00000   0.00000   0.00000
Generated with MDTraj, t= 25.0
 30
    1UNL     C1    1   0.212   0.194  -0.034
    1UNL     C2    2   0.260   0.082   0.011
    1UNL     C3    3   0.169  -0.040   0.031
    1UNL     C4    4   0.241  -0.173   0.057
    1UNL     O1    5   0.081  -0.007   0.148
    1UNL     C5    6   0.079  -0.047  -0.098
    1UNL     C6    7  -0.049  -0.140  -0.102
    1UNL     C7    8  -0.164  -0.089  -0.012
    1UNL     C8    9  -0.215   0.033  -0.023
    1UNL     C9   10  -0.175   0.122  -0.134
    1UNL    C10   11  -0.296   0.091   0.085
    1UNL     O2   12  -0.287   0.027   0.213
    1UNL     H1   13   0.267   0.284  -0.037
    1UNL     H2   14   0.107   0.207  -0.043
    1UNL     H3   15   0.367   0.074   0.010
    1UNL     H4   16   0.310  -0.151   0.140
    1UNL     H5   17   0.168  -0.248   0.089
    1UNL     H6   18   0.300  -0.203  -0.030
    1UNL     H7   19  -0.009  -0.029   0.115
    1UNL     H8   20   0.062   0.056  -0.130
    1UNL     H9   21   0.145  -0.081  -0.173
    1UNL    H10   22  -0.092  -0.156  -0.197
    1UNL    H11   23  -0.023  -0.244  -0.064
    1UNL    H12   24  -0.192  -0.151   0.066
    1UNL    H13   25  -0.171   0.073  -0.228
    1UNL    H14   26  -0.094   0.190  -0.118
    1UNL    H15   27  -0.268   0.187  -0.144
    1UNL    H16   28  -0.270   0.198   0.105
    1UNL    H17   29  -0.402   0.096   0.063
    1UNL    H18   30  -0.336  -0.055   0.231
   0.00000   0.00000   0.00000   0.00000   0.00000   0.00000   0.00000   0.00000   0.00000
Generated with MDTraj, t= 26.0
 30
    1UNL     C1    1   0.228   0.192   0.019
    1UNL     C2    2   0.267   0.069   0.003
    1UNL     C3    3   0.165  -0.041   0.021
    1UNL     C4    4   0.229  -0.172   0.070
    1UNL     O1    5   0.071  -0.007   0.124
    1UNL     C5    6   0.093  -0.055  -0.121
    1UNL     C6    7  -0.042  -0.127  -0.099
    1UNL     C7    8  -0.141  -0.066  -0.002
    1UNL     C8    9  -0.221   0.036  -0.025
    1UNL     C9   10  -0.222   0.102  -0.154
    1UNL    C10   11  -0.306   0.081   0.088
    1UNL     O2   12  -0.263   0.035   0.217
    1UNL     H1   13   0.292   0.283   0.013
    1UNL     H2   14   0.126   0.227   0.011
    1UNL     H3   15   0.374   0.046  -0.011
    1UNL     H4   16   0.266  -0.153   0.172
    1UNL     H5   17   0.149  -0.245   0.082
    1UNL     H6   18   0.308  -0.208   0.005
    1UNL     H7   19   0.032   0.082   0.101
    1UNL     H8   20   0.092   0.043  -0.169
    1UNL     H9   21   0.144  -0.122  -0.187
    1UNL    H10   22  -0.086  -0.145  -0.194
    1UNL    H11   23  -0.018  -0.233  -0.063
    1UNL    H12   24  -0.131  -0.092   0.107
    1UNL    H13   25  -0.275   0.043  -0.224
    1UNL    H14   26  -0.127   0.137  -0.196
    1UNL    H15   27  -0.290   0.188  -0.142
    1UNL    H16   28  -0.321   0.191   0.104
    1UNL    H17   29  -0.411   0.055   0.081
    1UNL    H18   30  -0.337  -0.018   0.255
   0.00000   0.00000   0.00000   0.00000   0.00000   0.00000   0.00000   0.00000   0.00000
Generated with MDTraj, t= 27.0
 30
    1UNL     C1    1   0.297   0.190   0.041
    1UNL     C2    2   0.290   0.062   0.012
    1UNL     C3    3   0.167  -0.035   0.027
    1UNL     C4    4   0.219  -0.177   0.039
    1UNL     O1    5   0.100  -0.006   0.150
    1UNL     C5    6   0.065  -0.002  -0.096
    1UNL     C6    7  -0.043  -0.109  -0.095
    1UNL     C7    8  -0.156  -0.078  -0.003
    1UNL     C8    9  -0.251   0.007  -0.037
    1UNL     C9   10  -0.264   0.063  -0.170
    1UNL    C10   11  -0.325   0.063   0.077
    1UNL     O2   12  -0.256   0.055   0.198
    1UNL     H1   13   0.376   0.253   0.014
    1UNL     H2   14   0.212   0.249   0.068
    1UNL     H3   15   0.375   0.010  -0.025
    1UNL     H4   16   0.292  -0.183   0.122
    1UNL     H5   17   0.141  -0.244   0.073
    1UNL     H6   18   0.262  -0.208  -0.054
    1UNL     H7   19   0.068   0.087   0.151
    1UNL     H8   20   0.004   0.088  -0.101
    1UNL     H9   21   0.130  -0.008  -0.180
    1UNL    H10   22  -0.080  -0.125  -0.194
    1UNL    H11   23   0.006  -0.208  -0.077
    1UNL    H12   24  -0.137  -0.086   0.099
    1UNL    H13   25  -0.298  -0.016  -0.235
    1UNL    H14   26  -0.169   0.101  -0.210
    1UNL    H15   27  -0.334   0.138  -0.178
    1UNL    H16   28  -0.363   0.167   0.062
    1UNL    H17   29  -0.410   0.006   0.103
    1UNL    H18   30  -0.239   0.147   0.237
   0.00000   0.00000   0.00000   0.00000   0.00000   0.00000   0.00000   0.00000   0.00000
Generated with MDTraj, t= 28.0
 30
    1UNL     C1    1   0.324   0.172   0.062
    1UNL     C2    2   0.320   0.050   0.016
    1UNL     C3    3   0.192  -0.039   0.025
    1UNL     C4    4   0.235  -0.182   0.027
    1UNL     O1    5   0.104  -0.013   0.139
    1UNL     C5    6   0.101  -0.005  -0.100
    1UNL     C6    7  -0.038  -0.074  -0.120
    1UNL     C7    8  -0.137  -0.042  -0.004
    1UNL     C8    9  -0.262   0.003  -0.019
    1UNL     C9   10  -0.315   0.032  -0.157
    1UNL    C10   11  -0.351   0.019   0.094
    1UNL     O2   12  -0.314   0.124   0.182
    1UNL     H1   13   0.417   0.221   0.084
    1UNL     H2   14   0.242   0.218   0.122
    1UNL     H3   15   0.402   0.000  -0.037
    1UNL     H4   16   0.292  -0.202   0.119
    1UNL     H5   17   0.149  -0.244   0.045
    1UNL     H6   18   0.290  -0.226  -0.056
    1UNL     H7   19   0.086   0.083   0.139
    1UNL     H8   20   0.087   0.101  -0.099
    1UNL     H9   21   0.154  -0.029  -0.191
    1UNL    H10   22  -0.083  -0.058  -0.218
    1UNL    H11   23  -0.024  -0.182  -0.121
    1UNL    H12   24  -0.098  -0.075   0.095
    1UNL    H13   25  -0.296  -0.055  -0.220
    1UNL    H14   26  -0.269   0.120  -0.204
    1UNL    H15   27  -0.418   0.046  -0.154
    1UNL    H16   28  -0.452   0.045   0.059
    1UNL    H17   29  -0.358  -0.074   0.147
    1UNL    H18   30  -0.277   0.104   0.271
   0.00000   0.00000   0.00000   0.00000   0.00000   0.00000   0.00000   0.00000   0.00000
Generated with MDTraj, t= 29.0
 30
    1UNL     C1    1   0.343   0.149   0.065
    1UNL     C2    2   0.327   0.028   0.032
    1UNL     C3    3   0.185  -0.034   0.023
    1UNL     C4    4   0.202  -0.186  -0.006
    1UNL     O1    5   0.116  -0.020   0.153
    1UNL     C5    6   0.108   0.034  -0.092
    1UNL     C6    7  -0.025  -0.034  -0.127
    1UNL     C7    8  -0.118  -0.023  -0.003
    1UNL     C8    9  -0.253  -0.018  -0.011
    1UNL     C9   10  -0.334  -0.016  -0.138
    1UNL    C10   11  -0.313   0.011   0.127
    1UNL     O2   12  -0.372   0.149   0.137
    1UNL     H1   13   0.440   0.191   0.076
    1UNL     H2   14   0.264   0.205   0.107
    1UNL     H3   15   0.409  -0.035   0.009
    1UNL     H4   16   0.277  -0.228   0.060
    1UNL     H5   17   0.111  -0.241   0.013
    1UNL     H6   18   0.232  -0.209  -0.108
    1UNL     H7   19   0.178   0.022   0.214
    1UNL     H8   20   0.097   0.138  -0.074
    1UNL     H9   21   0.166   0.027  -0.184
    1UNL    H10   22  -0.077   0.009  -0.215
    1UNL    H11   23  -0.018  -0.138  -0.153
    1UNL    H12   24  -0.063  -0.038   0.089
    1UNL    H13   25  -0.314  -0.109  -0.191
    1UNL    H14   26  -0.306   0.065  -0.199
    1UNL    H15   27  -0.438  -0.010  -0.108
    1UNL    H16   28  -0.386  -0.068   0.143
    1UNL    H17   29  -0.241  -0.002   0.205
    1UNL    H18   30  -0.361   0.191   0.050
   0.00000   0.00000   0.00000   0.00000   0.00000   0.00000   0.00000   0.00000   0.00000
Generated with MDTraj, t= 30.0
 30
    1UNL     C1    1   0.378   0.123   0.061
    1UNL     C2    2   0.342   0.005   0.030
    1UNL     C3    3   0.195  -0.043   0.017
    1UNL     C4    4   0.196  -0.194  -0.035
    1UNL     O1    5   0.134  -0.022   0.148
    1UNL     C5    6   0.117   0.045  -0.084
    1UNL     C6    7  -0.030   0.014  -0.103
    1UNL     C7    8  -0.123   0.033   0.018
    1UNL     C8    9  -0.251  -0.008   0.013
    1UNL     C9   10  -0.306  -0.064  -0.114
    1UNL    C10   11  -0.342   0.027   0.128
    1UNL     O2   12  -0.430   0.135   0.090
    1UNL     H1   13   0.480   0.155   0.032
    1UNL     H2   14   0.308   0.202   0.079
    1UNL     H3   15   0.423  -0.069   0.027
    1UNL     H4   16   0.263  -0.258   0.020
    1UNL     H5   17   0.094  -0.230  -0.043
    1UNL     H6   18   0.235  -0.182  -0.135
    1UNL     H7   19   0.210  -0.029   0.210
    1UNL     H8   20   0.109   0.145  -0.050
    1UNL     H9   21   0.178   0.051  -0.175
    1UNL    H10   22  -0.073   0.076  -0.186
    1UNL    H11   23  -0.043  -0.085  -0.134
    1UNL    H12   24  -0.071   0.066   0.104
    1UNL    H13   25  -0.241  -0.134  -0.160
    1UNL    H14   26  -0.331   0.013  -0.178
    1UNL    H15   27  -0.399  -0.117  -0.080
    1UNL    H16   28  -0.394  -0.066   0.152
    1UNL    H17   29  -0.277   0.054   0.209
    1UNL    H18   30  -0.522   0.109   0.120
   0.00000   0.00000   0.00000   0.00000   0.00000   0.00000   0.00000   0.00000   0.00000
Generated with MDTraj, t= 31.0
 30
    1UNL     C1    1   0.398   0.083   0.078
    1UNL     C2    2   0.344  -0.007   0.000
    1UNL     C3    3   0.198  -0.035   0.017
    1UNL     C4    4   0.175  -0.175  -0.047
    1UNL     O1    5   0.161  -0.032   0.160
    1UNL     C5    6   0.114   0.065  -0.066
    1UNL     C6    7  -0.031   0.038  -0.109
    1UNL     C7    8  -0.126   0.056   0.002
    1UNL     C8    9  -0.245  -0.002   0.013
    1UNL     C9   10  -0.301  -0.097  -0.079
    1UNL    C10   11  -0.338   0.062   0.121
    1UNL     O2   12  -0.461   0.089   0.073
    1UNL     H1   13   0.496   0.114   0.095
    1UNL     H2   14   0.331   0.142   0.140
    1UNL     H3   15   0.395  -0.073  -0.067
    1UNL     H4   16   0.238  -0.243   0.006
    1UNL     H5   17   0.068  -0.192  -0.031
    1UNL     H6   18   0.196  -0.172  -0.153
    1UNL     H7   19   0.121   0.052   0.194
    1UNL     H8   20   0.122   0.159  -0.018
    1UNL     H9   21   0.168   0.078  -0.161
    1UNL    H10   22  -0.056   0.105  -0.194
    1UNL    H11   23  -0.026  -0.056  -0.151
    1UNL    H12   24  -0.086   0.124   0.081
    1UNL    H13   25  -0.265  -0.194  -0.067
    1UNL    H14   26  -0.284  -0.065  -0.179
    1UNL    H15   27  -0.410  -0.099  -0.057
    1UNL    H16   28  -0.346  -0.019   0.195
    1UNL    H17   29  -0.292   0.153   0.153
    1UNL    H18   30  -0.507   0.165   0.119
   0.00000   0.00000   0.00000   0.00000   0.00000   0.00000   0.00000   0.00000   0.00000
Generated with MDTraj, t= 32.0
 30
    1UNL     C1    1   0.402   0.046   0.108
    1UNL     C2    2   0.339  -0.014   0.007
    1UNL     C3    3   0.188  -0.029   0.004
    1UNL     C4    4   0.178  -0.180  -0.037
    1UNL     O1    5   0.143  -0.014   0.134
    1UNL     C5    6   0.119   0.068  -0.098
    1UNL     C6    7  -0.030   0.053  -0.114
    1UNL     C7    8  -0.119   0.090   0.001
    1UNL     C8    9  -0.236   0.022   0.017
    1UNL     C9   10  -0.278  -0.092  -0.064
    1UNL    C10   11  -0.339   0.069   0.123
    1UNL     O2   12  -0.476   0.044   0.084
    1UNL     H1   13   0.509   0.037   0.124
    1UNL     H2   14   0.347   0.083   0.193
    1UNL     H3   15   0.385  -0.028  -0.088
    1UNL     H4   16   0.226  -0.240   0.038
    1UNL     H5   17   0.073  -0.207  -0.033
    1UNL     H6   18   0.209  -0.194  -0.140
    1UNL     H7   19   0.121   0.080   0.156
    1UNL     H8   20   0.141   0.169  -0.067
    1UNL     H9   21   0.175   0.064  -0.194
    1UNL    H10   22  -0.057   0.093  -0.212
    1UNL    H11   23  -0.044  -0.053  -0.121
    1UNL    H12   24  -0.091   0.172   0.056
    1UNL    H13   25  -0.298  -0.176  -0.002
    1UNL    H14   26  -0.206  -0.120  -0.140
    1UNL    H15   27  -0.368  -0.064  -0.110
    1UNL    H16   28  -0.314   0.021   0.220
    1UNL    H17   29  -0.326   0.174   0.122
    1UNL    H18   30  -0.533   0.095   0.142
   0.00000   0.00000   0.00000   0.00000   0.00000   0.00000   0.00000   0.00000   0.00000
Generated with MDTraj, t= 33.0
 30
    1UNL     C1    1   0.395  -0.002   0.138
    1UNL     C2    2   0.324   0.013   0.026
    1UNL     C3    3   0.179  -0.013   0.003
    1UNL     C4    4   0.169  -0.165  -0.029
    1UNL     O1    5   0.103   0.007   0.126
    1UNL     C5    6   0.119   0.075  -0.107
    1UNL     C6    7  -0.025   0.036  -0.142
    1UNL     C7    8  -0.121   0.075  -0.033
    1UNL     C8    9  -0.238   0.020  -0.003
    1UNL     C9   10  -0.284  -0.098  -0.082
    1UNL    C10   11  -0.306   0.092   0.111
    1UNL     O2   12  -0.436   0.027   0.140
    1UNL     H1   13   0.501   0.016   0.149
    1UNL     H2   14   0.337  -0.030   0.220
    1UNL     H3   15   0.375   0.051  -0.062
    1UNL     H4   16   0.223  -0.227   0.041
    1UNL     H5   17   0.068  -0.206  -0.028
    1UNL     H6   18   0.196  -0.178  -0.132
    1UNL     H7   19   0.150   0.061   0.193
    1UNL     H8   20   0.115   0.175  -0.067
    1UNL     H9   21   0.191   0.089  -0.189
    1UNL    H10   22  -0.055   0.081  -0.236
    1UNL    H11   23  -0.033  -0.074  -0.168
    1UNL    H12   24  -0.078   0.157   0.032
    1UNL    H13   25  -0.243  -0.193  -0.050
    1UNL    H14   26  -0.250  -0.084  -0.187
    1UNL    H15   27  -0.386  -0.100  -0.081
    1UNL    H16   28  -0.237   0.076   0.198
    1UNL    H17   29  -0.319   0.195   0.087
    1UNL    H18   30  -0.442   0.036   0.237
   0.00000   0.00000   0.00000   0.00000   0.00000   0.00000   0.00000   0.00000   0.00000
Generated with MDTraj, t= 34.0
 30
    1UNL     C1    1   0.384  -0.028   0.146
    1UNL     C2    2   0.311   0.028   0.045
    1UNL     C3    3   0.171  -0.016   0.008
    1UNL     C4    4   0.161  -0.170  -0.001
    1UNL     O1    5   0.075   0.027   0.103
    1UNL     C5    6   0.126   0.059  -0.120
    1UNL     C6    7  -0.026   0.041  -0.158
    1UNL     C7    8  -0.113   0.097  -0.049
    1UNL     C8    9  -0.226   0.036  -0.016
    1UNL     C9   10  -0.293  -0.079  -0.083
    1UNL    C10   11  -0.299   0.090   0.108
    1UNL     O2   12  -0.387  -0.014   0.166
    1UNL     H1   13   0.478   0.017   0.170
    1UNL     H2   14   0.337  -0.100   0.214
    1UNL     H3   15   0.355   0.100  -0.022
    1UNL     H4   16   0.162  -0.209   0.101
    1UNL     H5   17   0.072  -0.210  -0.046
    1UNL     H6   18   0.233  -0.221  -0.063
    1UNL     H7   19   0.122   0.089   0.163
    1UNL     H8   20   0.145   0.167  -0.119
    1UNL     H9   21   0.188   0.016  -0.198
    1UNL    H10   22  -0.053   0.091  -0.249
    1UNL    H11   23  -0.044  -0.069  -0.185
    1UNL    H12   24  -0.084   0.189  -0.008
    1UNL    H13   25  -0.234  -0.120  -0.164
    1UNL    H14   26  -0.381  -0.041  -0.131
    1UNL    H15   27  -0.321  -0.149  -0.008
    1UNL    H16   28  -0.227   0.126   0.189
    1UNL    H17   29  -0.369   0.155   0.063
    1UNL    H18   30  -0.446   0.026   0.236
   0.00000   0.00000   0.00000   0.00000   0.00000   0.00000   0.00000   0.00000   0.00000
Generated with MDTraj, t= 35.0
 30
    1UNL     C1    1   0.364  -0.019   0.164
    1UNL     C2    2   0.323  -0.004   0.036
    1UNL     C3    3   0.172  -0.018   0.011
    1UNL     C4    4   0.134  -0.162  -0.006
    1UNL     O1    5   0.093   0.037   0.123
    1UNL     C5    6   0.133   0.070  -0.112
    1UNL     C6    7  -0.014   0.046  -0.154
    1UNL     C7    8  -0.124   0.099  -0.056
    1UNL     C8    9  -0.244   0.038  -0.036
    1UNL     C9   10  -0.299  -0.085  -0.101
    1UNL    C10   11  -0.325   0.081   0.083
    1UNL     O2   12  -0.346  -0.011   0.191
    1UNL     H1   13   0.469  -0.007   0.176
    1UNL     H2   14   0.291  -0.049   0.239
    1UNL     H3   15   0.391  -0.000  -0.050
    1UNL     H4   16   0.196  -0.217   0.066
    1UNL     H5   17   0.031  -0.181   0.017
    1UNL     H6   18   0.136  -0.201  -0.105
    1UNL     H7   19   0.106   0.133   0.122
    1UNL     H8   20   0.145   0.176  -0.083
    1UNL     H9   21   0.190   0.053  -0.202
    1UNL    H10   22  -0.023   0.085  -0.253
    1UNL    H11   23  -0.033  -0.067  -0.163
    1UNL    H12   24  -0.097   0.193  -0.006
    1UNL    H13   25  -0.378  -0.059  -0.165
    1UNL    H14   26  -0.346  -0.136  -0.023
    1UNL    H15   27  -0.221  -0.151  -0.143
    1UNL    H16   28  -0.254   0.157   0.135
    1UNL    H17   29  -0.420   0.112   0.050
    1UNL    H18   30  -0.256  -0.031   0.224
   0.00000   0.00000   0.00000   0.00000   0.00000   0.00000   0.00000   0.00000   0.00000
Generated with MDTraj, t= 36.0
 30
    1UNL     C1    1   0.370  -0.009   0.151
    1UNL     C2    2   0.306  -0.009   0.031
    1UNL     C3    3   0.156  -0.022   0.019
    1UNL     C4    4   0.113  -0.171   0.017
    1UNL     O1    5   0.088   0.035   0.133
    1UNL     C5    6   0.127   0.071  -0.106
    1UNL     C6    7  -0.010   0.061  -0.157
    1UNL     C7    8  -0.121   0.079  -0.047
    1UNL     C8    9  -0.238   0.014  -0.034
    1UNL     C9   10  -0.285  -0.074  -0.137
    1UNL    C10   11  -0.336   0.061   0.073
    1UNL     O2   12  -0.305   0.026   0.206
    1UNL     H1   13   0.480  -0.012   0.144
    1UNL     H2   14   0.313  -0.048   0.232
    1UNL     H3   15   0.367   0.011  -0.055
    1UNL     H4   16   0.142  -0.219   0.112
    1UNL     H5   17   0.008  -0.173  -0.007
    1UNL     H6   18   0.149  -0.216  -0.074
    1UNL     H7   19   0.121   0.125   0.158
    1UNL     H8   20   0.152   0.176  -0.077
    1UNL     H9   21   0.197   0.042  -0.183
    1UNL    H10   22  -0.035   0.137  -0.229
    1UNL    H11   23  -0.020  -0.040  -0.208
    1UNL    H12   24  -0.102   0.163   0.018
    1UNL    H13   25  -0.316  -0.162  -0.094
    1UNL    H14   26  -0.205  -0.094  -0.203
    1UNL    H15   27  -0.364  -0.027  -0.202
    1UNL    H16   28  -0.335   0.176   0.070
    1UNL    H17   29  -0.430   0.020   0.047
    1UNL    H18   30  -0.313  -0.071   0.209
   0.00000   0.00000   0.00000   0.00000   0.00000   0.00000   0.00000   0.00000   0.00000
Generated with MDTraj, t= 37.0
 30
    1UNL     C1    1   0.365  -0.026   0.166
    1UNL     C2    2   0.311  -0.010   0.042
    1UNL     C3    3   0.157  -0.011   0.021
    1UNL     C4    4   0.123  -0.167   0.017
    1UNL     O1    5   0.104   0.036   0.143
    1UNL     C5    6   0.108   0.076  -0.099
    1UNL     C6    7  -0.028   0.045  -0.154
    1UNL     C7    8  -0.129   0.072  -0.053
    1UNL     C8    9  -0.253   0.024  -0.053
    1UNL     C9   10  -0.316  -0.063  -0.158
    1UNL    C10   11  -0.334   0.041   0.071
    1UNL     O2   12  -0.257   0.037   0.194
    1UNL     H1   13   0.470  -0.005   0.182
    1UNL     H2   14   0.298  -0.054   0.245
    1UNL     H3   15   0.378   0.013  -0.042
    1UNL     H4   16   0.164  -0.209   0.109
    1UNL     H5   17   0.016  -0.178   0.009
    1UNL     H6   18   0.160  -0.215  -0.072
    1UNL     H7   19   0.147   0.123   0.167
    1UNL     H8   20   0.111   0.182  -0.060
    1UNL     H9   21   0.188   0.061  -0.169
    1UNL    H10   22  -0.050   0.098  -0.247
    1UNL    H11   23  -0.037  -0.065  -0.172
    1UNL    H12   24  -0.092   0.123   0.031
    1UNL    H13   25  -0.249  -0.137  -0.191
    1UNL    H14   26  -0.358  -0.005  -0.238
    1UNL    H15   27  -0.401  -0.118  -0.121
    1UNL    H16   28  -0.413   0.126   0.063
    1UNL    H17   29  -0.391  -0.047   0.081
    1UNL    H18   30  -0.238   0.127   0.233
   0.00000   0.00000   0.00000   0.00000   0.00000   0.00000   0.00000   0.00000   0.00000
Generated with MDTraj, t= 38.0
 30
    1UNL     C1    1   0.365  -0.048   0.152
    1UNL     C2    2   0.309   0.017   0.047
    1UNL     C3    3   0.171  -0.006   0.021
    1UNL     C4    4   0.135  -0.160   0.022
    1UNL     O1    5   0.094   0.056   0.127
    1UNL     C5    6   0.124   0.061  -0.110
    1UNL     C6    7  -0.029   0.026  -0.145
    1UNL     C7    8  -0.128   0.046  -0.034
    1UNL     C8    9  -0.257   0.018  -0.042
    1UNL     C9   10  -0.317  -0.034  -0.173
    1UNL    C10   11  -0.343   0.020   0.078
    1UNL     O2   12  -0.261   0.053   0.195
    1UNL     H1   13   0.453  -0.020   0.206
    1UNL     H2   14   0.290  -0.110   0.203
    1UNL     H3   15   0.362   0.098   0.004
    1UNL     H4   16   0.147  -0.199   0.122
    1UNL     H5   17   0.033  -0.177  -0.014
    1UNL     H6   18   0.193  -0.220  -0.047
    1UNL     H7   19   0.128   0.146   0.148
    1UNL     H8   20   0.130   0.170  -0.080
    1UNL     H9   21   0.193   0.036  -0.190
    1UNL    H10   22  -0.054   0.086  -0.236
    1UNL    H11   23  -0.031  -0.078  -0.180
    1UNL    H12   24  -0.088   0.072   0.067
    1UNL    H13   25  -0.238  -0.050  -0.247
    1UNL    H14   26  -0.397   0.026  -0.210
    1UNL    H15   27  -0.356  -0.126  -0.159
    1UNL    H16   28  -0.416   0.109   0.071
    1UNL    H17   29  -0.412  -0.062   0.094
    1UNL    H18   30  -0.310   0.037   0.282
   0.00000   0.00000   0.00000   0.00000   0.00000   0.00000   0.00000   0.00000   0.00000
Generated with MDTraj, t= 39.0
 30
    1UNL     C1    1   0.391   0.004   0.137
    1UNL     C2    2   0.320  -0.004   0.025
    1UNL     C3    3   0.169  -0.020   0.032
    1UNL     C4    4   0.123  -0.167   0.031
    1UNL     O1    5   0.120   0.038   0.153
    1UNL     C5    6   0.113   0.060  -0.093
    1UNL     C6    7  -0.032   0.026  -0.132
    1UNL     C7    8  -0.131   0.029  -0.023
    1UNL     C8    9  -0.259   0.013  -0.051
    1UNL     C9   10  -0.317  -0.018  -0.185
    1UNL    C10   11  -0.353   0.038   0.061
    1UNL     O2   12  -0.293   0.045   0.193
    1UNL     H1   13   0.498   0.017   0.136
    1UNL     H2   14   0.340   0.003   0.231
    1UNL     H3   15   0.372   0.026  -0.068
    1UNL     H4   16   0.183  -0.217   0.103
    1UNL     H5   17   0.018  -0.185   0.058
    1UNL     H6   18   0.130  -0.222  -0.063
    1UNL     H7   19   0.163   0.127   0.158
    1UNL     H8   20   0.121   0.171  -0.068
    1UNL     H9   21   0.178   0.035  -0.176
    1UNL    H10   22  -0.066   0.105  -0.208
    1UNL    H11   23  -0.026  -0.064  -0.192
    1UNL    H12   24  -0.093   0.019   0.074
    1UNL    H13   25  -0.259   0.033  -0.264
    1UNL    H14   26  -0.420  -0.000  -0.197
    1UNL    H15   27  -0.304  -0.117  -0.212
    1UNL    H16   28  -0.431   0.121   0.046
    1UNL    H17   29  -0.424  -0.044   0.068
    1UNL    H18   30  -0.205   0.085   0.204
   0.00000   0.00000   0.00000   0.00000   0.00000   0.00000   0.00000   0.00000   0.00000
Generated with MDTraj, t= 40.0
 30
    1UNL     C1    1   0.401   0.063   0.118
    1UNL     C2    2   0.336  -0.026   0.040
    1UNL     C3    3   0.184  -0.043   0.034
    1UNL     C4    4   0.154  -0.186   0.027
    1UNL     O1    5   0.128   0.021   0.153
    1UNL     C5    6   0.117   0.034  -0.095
    1UNL     C6    7  -0.029   0.018  -0.125
    1UNL     C7    8  -0.137   0.032  -0.021
    1UNL     C8    9  -0.269   0.032  -0.040
    1UNL     C9   10  -0.319   0.022  -0.181
    1UNL    C10   11  -0.377   0.028   0.061
    1UNL     O2   12  -0.329   0.049   0.188
    1UNL     H1   13   0.510   0.062   0.113
    1UNL     H2   14   0.358   0.137   0.181
    1UNL     H3   15   0.390  -0.070  -0.040
    1UNL     H4   16   0.209  -0.242   0.100
    1UNL     H5   17   0.046  -0.203   0.043
    1UNL     H6   18   0.168  -0.228  -0.073
    1UNL     H7   19   0.157   0.114   0.156
    1UNL     H8   20   0.146   0.143  -0.098
    1UNL     H9   21   0.166  -0.014  -0.178
    1UNL    H10   22  -0.055   0.081  -0.218
    1UNL    H11   23  -0.049  -0.084  -0.161
    1UNL    H12   24  -0.096   0.035   0.079
    1UNL    H13   25  -0.364   0.113  -0.215
    1UNL    H14   26  -0.384  -0.059  -0.184
    1UNL    H15   27  -0.241   0.007  -0.255
    1UNL    H16   28  -0.454   0.111   0.039
    1UNL    H17   29  -0.447  -0.058   0.057
    1UNL    H18   30  -0.262   0.120   0.189
   0.00000   0.00000   0.00000   0.00000   0.00000   0.00000   0.00000   0.00000   0.00000
Generated with MDTraj, t= 41.0
 30
    1UNL     C1    1   0.368   0.103   0.092
    1UNL     C2    2   0.316  -0.011   0.047
    1UNL     C3    3   0.167  -0.048   0.038
    1UNL     C4    4   0.153  -0.191   0.009
    1UNL     O1    5   0.100  -0.009   0.169
    1UNL     C5    6   0.106   0.032  -0.080
    1UNL     C6    7  -0.023  -0.023  -0.121
    1UNL     C7    8  -0.130   0.004  -0.024
    1UNL     C8    9  -0.256   0.029  -0.053
    1UNL     C9   10  -0.311   0.056  -0.188
    1UNL    C10   11  -0.343   0.028   0.071
    1UNL     O2   12  -0.291   0.072   0.188
    1UNL     H1   13   0.473   0.114   0.105
    1UNL     H2   14   0.316   0.198   0.096
    1UNL     H3   15   0.383  -0.099   0.044
    1UNL     H4   16   0.198  -0.252   0.087
    1UNL     H5   17   0.047  -0.217  -0.004
    1UNL     H6   18   0.195  -0.206  -0.090
    1UNL     H7   19   0.136   0.071   0.211
    1UNL     H8   20   0.102   0.140  -0.049
    1UNL     H9   21   0.175   0.025  -0.165
    1UNL    H10   22  -0.059   0.019  -0.223
    1UNL    H11   23  -0.027  -0.127  -0.148
    1UNL    H12   24  -0.102  -0.013   0.081
    1UNL    H13   25  -0.398   0.109  -0.182
    1UNL    H14   26  -0.325  -0.037  -0.237
    1UNL    H15   27  -0.244   0.126  -0.241
    1UNL    H16   28  -0.446   0.073   0.051
    1UNL    H17   29  -0.377  -0.077   0.085
    1UNL    H18   30  -0.239   0.156   0.170
   0.00000   0.00000   0.00000   0.00000   0.00000   0.00000   0.00000   0.00000   0.00000
Generated with MDTraj, t= 42.0
 30
    1UNL     C1    1   0.330   0.129   0.077
    1UNL     C2    2   0.304   0.001   0.087
    1UNL     C3    3   0.165  -0.055   0.045
    1UNL     C4    4   0.190  -0.202   0.011
    1UNL     O1    5   0.073  -0.050   0.152
    1UNL     C5    6   0.115   0.016  -0.092
    1UNL     C6    7  -0.028  -0.033  -0.143
    1UNL     C7    8  -0.131  -0.014  -0.035
    1UNL     C8    9  -0.253   0.033  -0.045
    1UNL     C9   10  -0.309   0.086  -0.172
    1UNL    C10   11  -0.332   0.026   0.087
    1UNL     O2   12  -0.269   0.102   0.185
    1UNL     H1   13   0.431   0.163   0.079
    1UNL     H2   14   0.251   0.200   0.054
    1UNL     H3   15   0.372  -0.069   0.123
    1UNL     H4   16   0.191  -0.245   0.113
    1UNL     H5   17   0.111  -0.240  -0.052
    1UNL     H6   18   0.284  -0.217  -0.043
    1UNL     H7   19   0.080   0.046   0.177
    1UNL     H8   20   0.104   0.125  -0.076
    1UNL     H9   21   0.192   0.002  -0.171
    1UNL    H10   22  -0.064   0.041  -0.224
    1UNL    H11   23  -0.029  -0.124  -0.200
    1UNL    H12   24  -0.104  -0.050   0.059
    1UNL    H13   25  -0.394   0.036  -0.201
    1UNL    H14   26  -0.235   0.074  -0.249
    1UNL    H15   27  -0.338   0.189  -0.154
    1UNL    H16   28  -0.440   0.057   0.069
    1UNL    H17   29  -0.351  -0.079   0.116
    1UNL    H18   30  -0.230   0.188   0.149
   0.00000   0.00000   0.00000   0.00000   0.00000   0.00000   0.00000   0.00000   0.00000
Generated with MDTraj, t= 43.0
 30
    1UNL     C1    1   0.300   0.143   0.103
    1UNL     C2    2   0.294   0.020   0.062
    1UNL     C3    3   0.173  -0.071   0.031
    1UNL     C4    4   0.222  -0.213  -0.004
    1UNL     O1    5   0.081  -0.069   0.145
    1UNL     C5    6   0.111   0.001  -0.086
    1UNL     C6    7  -0.035  -0.043  -0.134
    1UNL     C7    8  -0.138  -0.037  -0.024
    1UNL     C8    9  -0.250   0.031  -0.034
    1UNL     C9   10  -0.284   0.092  -0.173
    1UNL    C10   11  -0.342   0.050   0.084
    1UNL     O2   12  -0.281   0.131   0.187
    1UNL     H1   13   0.391   0.180   0.153
    1UNL     H2   14   0.215   0.199   0.128
    1UNL     H3   15   0.391  -0.031   0.045
    1UNL     H4   16   0.304  -0.230   0.070
    1UNL     H5   17   0.142  -0.284   0.005
    1UNL     H6   18   0.255  -0.215  -0.107
    1UNL     H7   19   0.066   0.029   0.153
    1UNL     H8   20   0.111   0.107  -0.068
    1UNL     H9   21   0.178  -0.013  -0.173
    1UNL    H10   22  -0.065   0.016  -0.229
    1UNL    H11   23  -0.035  -0.141  -0.176
    1UNL    H12   24  -0.113  -0.080   0.076
    1UNL    H13   25  -0.298   0.018  -0.251
    1UNL    H14   26  -0.212   0.160  -0.211
    1UNL    H15   27  -0.378   0.140  -0.171
    1UNL    H16   28  -0.447   0.088   0.055
    1UNL    H17   29  -0.377  -0.046   0.127
    1UNL    H18   30  -0.218   0.197   0.153
   0.00000   0.00000   0.00000   0.00000   0.00000   0.00000   0.00000   0.00000   0.00000
Generated with MDTraj, t= 44.0
 30
    1UNL     C1    1   0.292   0.131   0.131
    1UNL     C2    2   0.303   0.036   0.047
    1UNL     C3    3   0.180  -0.060   0.019
    1UNL     C4    4   0.260  -0.186  -0.013
    1UNL     O1    5   0.114  -0.086   0.144
    1UNL     C5    6   0.077  -0.014  -0.090
    1UNL     C6    7  -0.050  -0.092  -0.109
    1UNL     C7    8  -0.161  -0.051  -0.014
    1UNL     C8    9  -0.259   0.034  -0.039
    1UNL     C9   10  -0.267   0.110  -0.164
    1UNL    C10   11  -0.349   0.073   0.073
    1UNL     O2   12  -0.290   0.149   0.177
    1UNL     H1   13   0.361   0.214   0.131
    1UNL     H2   14   0.220   0.133   0.212
    1UNL     H3   15   0.385   0.032  -0.020
    1UNL     H4   16   0.332  -0.212   0.067
    1UNL     H5   17   0.187  -0.268  -0.012
    1UNL     H6   18   0.303  -0.188  -0.112
    1UNL     H7   19   0.036  -0.145   0.130
    1UNL     H8   20   0.058   0.089  -0.071
    1UNL     H9   21   0.130  -0.011  -0.188
    1UNL    H10   22  -0.091  -0.076  -0.215
    1UNL    H11   23  -0.038  -0.199  -0.116
    1UNL    H12   24  -0.159  -0.088   0.084
    1UNL    H13   25  -0.185   0.084  -0.235
    1UNL    H14   26  -0.258   0.213  -0.149
    1UNL    H15   27  -0.349   0.093  -0.224
    1UNL    H16   28  -0.449   0.122   0.042
    1UNL    H17   29  -0.396  -0.017   0.117
    1UNL    H18   30  -0.243   0.223   0.135
   0.00000   0.00000   0.00000   0.00000   0.00000   0.00000   0.00000   0.00000   0.00000
Generated with MDTraj, t= 45.0
 30
    1UNL     C1    1   0.286   0.120   0.145
    1UNL     C2    2   0.252   0.073   0.031
    1UNL     C3    3   0.179  -0.058   0.014
    1UNL     C4    4   0.259  -0.174  -0.044
    1UNL     O1    5   0.122  -0.102   0.135
    1UNL     C5    6   0.064  -0.027  -0.087
    1UNL     C6    7  -0.056  -0.111  -0.077
    1UNL     C7    8  -0.165  -0.063   0.008
    1UNL     C8    9  -0.237   0.039  -0.028
    1UNL     C9   10  -0.215   0.103  -0.160
    1UNL    C10   11  -0.344   0.085   0.061
    1UNL     O2   12  -0.299   0.159   0.168
    1UNL     H1   13   0.369   0.181   0.168
    1UNL     H2   14   0.222   0.102   0.232
    1UNL     H3   15   0.317   0.085  -0.056
    1UNL     H4   16   0.335  -0.216   0.022
    1UNL     H5   17   0.198  -0.258  -0.079
    1UNL     H6   18   0.306  -0.144  -0.138
    1UNL     H7   19   0.029  -0.074   0.137
    1UNL     H8   20   0.031   0.070  -0.068
    1UNL     H9   21   0.105  -0.021  -0.192
    1UNL    H10   22  -0.101  -0.139  -0.178
    1UNL    H11   23  -0.022  -0.207  -0.039
    1UNL    H12   24  -0.198  -0.115   0.099
    1UNL    H13   25  -0.114   0.148  -0.164
    1UNL    H14   26  -0.287   0.177  -0.174
    1UNL    H15   27  -0.216   0.037  -0.241
    1UNL    H16   28  -0.425   0.143   0.003
    1UNL    H17   29  -0.406   0.002   0.094
    1UNL    H18   30  -0.285   0.253   0.141
   0.00000   0.00000   0.00000   0.00000   0.00000   0.00000   0.00000   0.00000   0.00000
Generated with MDTraj, t= 46.0
 30
    1UNL     C1    1   0.319   0.101   0.141
    1UNL     C2    2   0.252   0.074   0.035
    1UNL     C3    3   0.171  -0.053   0.018
    1UNL     C4    4   0.267  -0.155  -0.038
    1UNL     O1    5   0.131  -0.108   0.145
    1UNL     C5    6   0.057  -0.032  -0.085
    1UNL     C6    7  -0.062  -0.128  -0.073
    1UNL     C7    8  -0.173  -0.062   0.001
    1UNL     C8    9  -0.253   0.035  -0.042
    1UNL     C9   10  -0.231   0.118  -0.165
    1UNL    C10   11  -0.351   0.089   0.058
    1UNL     O2   12  -0.288   0.166   0.157
    1UNL     H1   13   0.347   0.205   0.161
    1UNL     H2   14   0.333   0.041   0.229
    1UNL     H3   15   0.215   0.145  -0.039
    1UNL     H4   16   0.345  -0.153   0.036
    1UNL     H5   17   0.236  -0.261  -0.051
    1UNL     H6   18   0.316  -0.128  -0.132
    1UNL     H7   19   0.036  -0.090   0.159
    1UNL     H8   20   0.017   0.064  -0.077
    1UNL     H9   21   0.106  -0.035  -0.186
    1UNL    H10   22  -0.101  -0.155  -0.175
    1UNL    H11   23  -0.031  -0.219  -0.022
    1UNL    H12   24  -0.193  -0.091   0.103
    1UNL    H13   25  -0.239   0.221  -0.136
    1UNL    H14   26  -0.310   0.093  -0.231
    1UNL    H15   27  -0.131   0.114  -0.203
    1UNL    H16   28  -0.439   0.137   0.004
    1UNL    H17   29  -0.396   0.002   0.101
    1UNL    H18   30  -0.217   0.119   0.210
   0.00000   0.00000   0.00000   0.00000   0.00000   0.00000   0.00000   0.00000   0.00000
Generated with MDTraj, t= 47.0
 30
    1UNL     C1    1   0.357   0.058   0.134
    1UNL     C2    2   0.253   0.079   0.056
    1UNL     C3    3   0.169  -0.041   0.021
    1UNL     C4    4   0.254  -0.162  -0.029
    1UNL     O1    5   0.096  -0.069   0.142
    1UNL     C5    6   0.071  -0.006  -0.089
    1UNL     C6    7  -0.050  -0.110  -0.091
    1UNL     C7    8  -0.159  -0.057   0.006
    1UNL     C8    9  -0.248   0.034  -0.037
    1UNL     C9   10  -0.261   0.083  -0.179
    1UNL    C10   11  -0.353   0.075   0.066
    1UNL     O2   12  -0.292   0.162   0.160
    1UNL     H1   13   0.426   0.140   0.145
    1UNL     H2   14   0.396  -0.024   0.188
    1UNL     H3   15   0.210   0.174   0.029
    1UNL     H4   16   0.322  -0.196   0.046
    1UNL     H5   17   0.188  -0.248  -0.054
    1UNL     H6   18   0.310  -0.139  -0.121
    1UNL     H7   19   0.149  -0.087   0.224
    1UNL     H8   20   0.046   0.096  -0.077
    1UNL     H9   21   0.116  -0.018  -0.191
    1UNL    H10   22  -0.091  -0.109  -0.195
    1UNL    H11   23  -0.021  -0.211  -0.062
    1UNL    H12   24  -0.160  -0.084   0.109
    1UNL    H13   25  -0.315   0.170  -0.189
    1UNL    H14   26  -0.314   0.007  -0.232
    1UNL    H15   27  -0.169   0.114  -0.229
    1UNL    H16   28  -0.436   0.131   0.010
    1UNL    H17   29  -0.405  -0.011   0.100
    1UNL    H18   30  -0.195   0.150   0.167
   0.00000   0.00000   0.00000   0.00000   0.00000   0.00000   0.00000   0.00000   0.00000
Generated with MDTraj, t= 48.0
 30
    1UNL     C1    1   0.377   0.050   0.141
    1UNL     C2    2   0.303   0.049   0.035
    1UNL     C3    3   0.182  -0.041   0.031
    1UNL     C4    4   0.229  -0.184   0.011
    1UNL     O1    5   0.113  -0.029   0.159
    1UNL     C5    6   0.089   0.005  -0.086
    1UNL     C6    7  -0.039  -0.065  -0.128
    1UNL     C7    8  -0.154  -0.052  -0.029
    1UNL     C8    9  -0.271   0.018  -0.046
    1UNL     C9   10  -0.319   0.076  -0.177
    1UNL    C10   11  -0.353   0.055   0.077
    1UNL     O2   12  -0.304   0.156   0.161
    1UNL     H1   13   0.447   0.126   0.167
    1UNL     H2   14   0.358  -0.023   0.220
    1UNL     H3   15   0.323   0.127  -0.038
    1UNL     H4   16   0.287  -0.213   0.098
    1UNL     H5   17   0.153  -0.259  -0.013
    1UNL     H6   18   0.298  -0.174  -0.074
    1UNL     H7   19   0.052  -0.105   0.182
    1UNL     H8   20   0.056   0.104  -0.064
    1UNL     H9   21   0.156   0.016  -0.174
    1UNL    H10   22  -0.077  -0.014  -0.219
    1UNL    H11   23  -0.011  -0.171  -0.144
    1UNL    H12   24  -0.139  -0.088   0.075
    1UNL    H13   25  -0.417   0.105  -0.172
    1UNL    H14   26  -0.318   0.000  -0.254
    1UNL    H15   27  -0.274   0.171  -0.203
    1UNL    H16   28  -0.463   0.082   0.053
    1UNL    H17   29  -0.374  -0.030   0.135
    1UNL    H18   30  -0.208   0.153   0.156
   0.00000   0.00000   0.00000   0.00000   0.00000   0.00000   0.00000   0.00000   0.00000
Generated with MDTraj, t= 49.0
 30
    1UNL     C1    1   0.372   0.060   0.141
    1UNL     C2    2   0.316   0.000   0.038
    1UNL     C3    3   0.177  -0.045   0.024
    1UNL     C4    4   0.168  -0.199   0.012
    1UNL     O1    5   0.102  -0.002   0.140
    1UNL     C5    6   0.111   0.031  -0.099
    1UNL     C6    7  -0.028  -0.018  -0.135
    1UNL     C7    8  -0.126  -0.025  -0.022
    1UNL     C8    9  -0.254   0.016  -0.030
    1UNL     C9   10  -0.297   0.043  -0.169
    1UNL    C10   11  -0.350   0.034   0.081
    1UNL     O2   12  -0.332   0.143   0.169
    1UNL     H1   13   0.472   0.098   0.140
    1UNL     H2   14   0.319   0.094   0.226
    1UNL     H3   15   0.387  -0.015  -0.039
    1UNL     H4   16   0.202  -0.249   0.105
    1UNL     H5   17   0.062  -0.218   0.007
    1UNL     H6   18   0.213  -0.244  -0.078
    1UNL     H7   19   0.166  -0.023   0.212
    1UNL     H8   20   0.105   0.137  -0.078
    1UNL     H9   21   0.177   0.028  -0.186
    1UNL    H10   22  -0.066   0.053  -0.209
    1UNL    H11   23  -0.017  -0.121  -0.175
    1UNL    H12   24  -0.101  -0.057   0.073
    1UNL    H13   25  -0.396   0.011  -0.187
    1UNL    H14   26  -0.243  -0.022  -0.237
    1UNL    H15   27  -0.299   0.147  -0.188
    1UNL    H16   28  -0.462   0.041   0.049
    1UNL    H17   29  -0.363  -0.051   0.142
    1UNL    H18   30  -0.238   0.144   0.194
   0.00000   0.00000   0.00000   0.00000   0.00000   0.00000   0.00000   0.00000   0.00000
Generated with MDTraj, t= 50.0
 30
    1UNL     C1    1   0.377   0.078   0.094
    1UNL     C2    2   0.313  -0.042   0.068
    1UNL     C3    3   0.164  -0.052   0.035
    1UNL     C4    4   0.130  -0.204   0.017
    1UNL     O1    5   0.092  -0.011   0.153
    1UNL     C5    6   0.135   0.040  -0.082
    1UNL     C6    7  -0.011   0.043  -0.145
    1UNL     C7    8  -0.115   0.046  -0.041
    1UNL     C8    9  -0.248   0.027  -0.046
    1UNL     C9   10  -0.327   0.001  -0.167
    1UNL    C10   11  -0.314   0.005   0.087
    1UNL     O2   12  -0.333   0.121   0.171
    1UNL     H1   13   0.481   0.094   0.129
    1UNL     H2   14   0.326   0.171   0.084
    1UNL     H3   15   0.363  -0.140   0.072
    1UNL     H4   16   0.185  -0.273   0.087
    1UNL     H5   17   0.028  -0.224   0.043
    1UNL     H6   18   0.144  -0.245  -0.083
    1UNL     H7   19   0.153  -0.031   0.227
    1UNL     H8   20   0.167   0.142  -0.059
    1UNL     H9   21   0.200   0.008  -0.160
    1UNL    H10   22  -0.016   0.131  -0.207
    1UNL    H11   23  -0.033  -0.050  -0.201
    1UNL    H12   24  -0.077   0.048   0.064
    1UNL    H13   25  -0.412   0.069  -0.185
    1UNL    H14   26  -0.366  -0.098  -0.160
    1UNL    H15   27  -0.274   0.019  -0.254
    1UNL    H16   28  -0.415  -0.051   0.073
    1UNL    H17   29  -0.261  -0.069   0.141
    1UNL    H18   30  -0.273   0.198   0.151
   0.00000   0.00000   0.00000   0.00000   0.00000   0.00000   0.00000   0.00000   0.00000
Generated with MDTraj, t= 51.0
 30
    1UNL     C1    1   0.403   0.046   0.071
    1UNL     C2    2   0.314  -0.059   0.061
    1UNL     C3    3   0.162  -0.041   0.034
    1UNL     C4    4   0.113  -0.178  -0.003
    1UNL     O1    5   0.096  -0.002   0.154
    1UNL     C5    6   0.130   0.065  -0.075
    1UNL     C6    7  -0.023   0.076  -0.122
    1UNL     C7    8  -0.113   0.044  -0.010
    1UNL     C8    9  -0.237  -0.004  -0.028
    1UNL     C9   10  -0.291  -0.043  -0.162
    1UNL    C10   11  -0.332   0.006   0.091
    1UNL     O2   12  -0.351   0.137   0.144
    1UNL     H1   13   0.505   0.040   0.098
    1UNL     H2   14   0.363   0.144   0.048
    1UNL     H3   15   0.346  -0.160   0.077
    1UNL     H4   16   0.136  -0.267   0.062
    1UNL     H5   17   0.004  -0.182   0.003
    1UNL     H6   18   0.145  -0.202  -0.104
    1UNL     H7   19   0.093  -0.075   0.220
    1UNL     H8   20   0.150   0.157  -0.017
    1UNL     H9   21   0.211   0.065  -0.143
    1UNL    H10   22  -0.060   0.169  -0.162
    1UNL    H11   23  -0.038   0.003  -0.205
    1UNL    H12   24  -0.079   0.068   0.089
    1UNL    H13   25  -0.270   0.030  -0.243
    1UNL    H14   26  -0.394  -0.063  -0.154
    1UNL    H15   27  -0.235  -0.123  -0.197
    1UNL    H16   28  -0.431  -0.036   0.047
    1UNL    H17   29  -0.302  -0.068   0.158
    1UNL    H18   30  -0.267   0.176   0.180
   0.00000   0.00000   0.00000   0.00000   0.00000   0.00000   0.00000   0.00000   0.00000
Generated with MDTraj, t= 52.0
 30
    1UNL     C1    1   0.405   0.028   0.076
    1UNL     C2    2   0.315  -0.043   0.009
    1UNL     C3    3   0.168  -0.040   0.036
    1UNL     C4    4   0.107  -0.182  -0.005
    1UNL     O1    5   0.145  -0.026   0.178
    1UNL     C5    6   0.120   0.083  -0.051
    1UNL     C6    7  -0.016   0.064  -0.115
    1UNL     C7    8  -0.124   0.071  -0.015
    1UNL     C8    9  -0.244   0.012  -0.026
    1UNL     C9   10  -0.268  -0.066  -0.152
    1UNL    C10   11  -0.346   0.016   0.093
    1UNL     O2   12  -0.398   0.142   0.122
    1UNL     H1   13   0.512   0.019   0.067
    1UNL     H2   14   0.348   0.090   0.148
    1UNL     H3   15   0.361  -0.115  -0.062
    1UNL     H4   16   0.136  -0.262   0.066
    1UNL     H5   17   0.001  -0.173   0.021
    1UNL     H6   18   0.128  -0.218  -0.106
    1UNL     H7   19   0.149  -0.114   0.222
    1UNL     H8   20   0.134   0.169   0.019
    1UNL     H9   21   0.189   0.107  -0.126
    1UNL    H10   22  -0.027   0.142  -0.188
    1UNL    H11   23  -0.014  -0.030  -0.177
    1UNL    H12   24  -0.100   0.116   0.079
    1UNL    H13   25  -0.186  -0.063  -0.224
    1UNL    H14   26  -0.356  -0.033  -0.197
    1UNL    H15   27  -0.269  -0.169  -0.125
    1UNL    H16   28  -0.434  -0.058   0.072
    1UNL    H17   29  -0.303  -0.023   0.180
    1UNL    H18   30  -0.322   0.204   0.129
   0.00000   0.00000   0.00000   0.00000   0.00000   0.00000   0.00000   0.00000   0.00000
Generated with MDTraj, t= 53.0
 30
    1UNL     C1    1   0.423   0.000   0.096
    1UNL     C2    2   0.334  -0.054   0.015
    1UNL     C3    3   0.182  -0.030   0.025
    1UNL     C4    4   0.123  -0.165  -0.031
    1UNL     O1    5   0.152  -0.014   0.163
    1UNL     C5    6   0.120   0.087  -0.060
    1UNL     C6    7  -0.030   0.066  -0.091
    1UNL     C7    8  -0.120   0.042   0.018
    1UNL     C8    9  -0.245   0.004  -0.003
    1UNL     C9   10  -0.289  -0.052  -0.135
    1UNL    C10   11  -0.344   0.029   0.101
    1UNL     O2   12  -0.430   0.137   0.076
    1UNL     H1   13   0.530  -0.012   0.084
    1UNL     H2   14   0.372   0.047   0.176
    1UNL     H3   15   0.375  -0.128  -0.050
    1UNL     H4   16   0.143  -0.251   0.034
    1UNL     H5   17   0.013  -0.150  -0.026
    1UNL     H6   18   0.167  -0.177  -0.131
    1UNL     H7   19   0.173  -0.101   0.204
    1UNL     H8   20   0.132   0.187  -0.013
    1UNL     H9   21   0.177   0.093  -0.147
    1UNL    H10   22  -0.058   0.147  -0.156
    1UNL    H11   23  -0.032  -0.026  -0.156
    1UNL    H12   24  -0.084   0.079   0.117
    1UNL    H13   25  -0.285   0.018  -0.214
    1UNL    H14   26  -0.387  -0.088  -0.137
    1UNL    H15   27  -0.221  -0.135  -0.158
    1UNL    H16   28  -0.416  -0.062   0.121
    1UNL    H17   29  -0.301   0.044   0.197
    1UNL    H18   30  -0.393   0.202   0.014
   0.00000   0.00000   0.00000   0.00000   0.00000   0.00000   0.00000   0.00000   0.00000
Generated with MDTraj, t= 54.0
 30
    1UNL     C1    1   0.404   0.019   0.128
    1UNL     C2    2   0.343  -0.041   0.023
    1UNL     C3    3   0.189  -0.054   0.018
    1UNL     C4    4   0.156  -0.192  -0.042
    1UNL     O1    5   0.135  -0.028   0.155
    1UNL     C5    6   0.129   0.051  -0.077
    1UNL     C6    7  -0.021   0.055  -0.114
    1UNL     C7    8  -0.114   0.080  -0.001
    1UNL     C8    9  -0.244   0.045  -0.004
    1UNL     C9   10  -0.306  -0.015  -0.123
    1UNL    C10   11  -0.323   0.056   0.117
    1UNL     O2   12  -0.463   0.090   0.089
    1UNL     H1   13   0.502  -0.011   0.163
    1UNL     H2   14   0.336   0.055   0.205
    1UNL     H3   15   0.387  -0.093  -0.065
    1UNL     H4   16   0.199  -0.270   0.016
    1UNL     H5   17   0.045  -0.204  -0.040
    1UNL     H6   18   0.204  -0.188  -0.142
    1UNL     H7   19   0.165  -0.105   0.209
    1UNL     H8   20   0.151   0.147  -0.028
    1UNL     H9   21   0.189   0.055  -0.163
    1UNL    H10   22  -0.044   0.124  -0.193
    1UNL    H11   23  -0.044  -0.047  -0.160
    1UNL    H12   24  -0.072   0.122   0.084
    1UNL    H13   25  -0.319   0.056  -0.196
    1UNL    H14   26  -0.405  -0.052  -0.108
    1UNL    H15   27  -0.238  -0.092  -0.160
    1UNL    H16   28  -0.320  -0.038   0.188
    1UNL    H17   29  -0.289   0.130   0.185
    1UNL    H18   30  -0.462   0.157   0.015
   0.00000   0.00000   0.00000   0.00000   0.00000   0.00000   0.00000   0.00000   0.00000
Generated with MDTraj, t= 55.0
 30
    1UNL     C1    1   0.350   0.050   0.148
    1UNL     C2    2   0.323  -0.036   0.049
    1UNL     C3    3   0.177  -0.064   0.014
    1UNL     C4    4   0.176  -0.202  -0.054
    1UNL     O1    5   0.103  -0.061   0.139
    1UNL     C5    6   0.136   0.046  -0.094
    1UNL     C6    7  -0.015   0.034  -0.125
    1UNL     C7    8  -0.092   0.074  -0.010
    1UNL     C8    9  -0.226   0.065  -0.008
    1UNL     C9   10  -0.310   0.016  -0.125
    1UNL    C10   11  -0.305   0.115   0.105
    1UNL     O2   12  -0.425   0.035   0.126
    1UNL     H1   13   0.446   0.095   0.150
    1UNL     H2   14   0.267   0.095   0.201
    1UNL     H3   15   0.377  -0.068  -0.035
    1UNL     H4   16   0.228  -0.276   0.003
    1UNL     H5   17   0.071  -0.238  -0.050
    1UNL     H6   18   0.221  -0.204  -0.156
    1UNL     H7   19   0.134  -0.132   0.199
    1UNL     H8   20   0.160   0.147  -0.058
    1UNL     H9   21   0.197   0.039  -0.181
    1UNL    H10   22  -0.042   0.101  -0.204
    1UNL    H11   23  -0.049  -0.069  -0.162
    1UNL    H12   24  -0.033   0.104   0.081
    1UNL    H13   25  -0.262   0.027  -0.216
    1UNL    H14   26  -0.396   0.079  -0.137
    1UNL    H15   27  -0.337  -0.089  -0.110
    1UNL    H16   28  -0.241   0.113   0.206
    1UNL    H17   29  -0.325   0.220   0.094
    1UNL    H18   30  -0.505   0.081   0.087
   0.00000   0.00000   0.00000   0.00000   0.00000   0.00000   0.00000   0.00000   0.00000
Generated with MDTraj, t= 56.0
 30
    1UNL     C1    1   0.320   0.083   0.153
    1UNL     C2    2   0.307  -0.024   0.076
    1UNL     C3    3   0.174  -0.079   0.011
    1UNL     C4    4   0.209  -0.217  -0.045
    1UNL     O1    5   0.068  -0.088   0.111
    1UNL     C5    6   0.142   0.021  -0.102
    1UNL     C6    7  -0.012   0.032  -0.142
    1UNL     C7    8  -0.098   0.066  -0.024
    1UNL     C8    9  -0.231   0.091  -0.018
    1UNL     C9   10  -0.319   0.058  -0.135
    1UNL    C10   11  -0.314   0.127   0.109
    1UNL     O2   12  -0.370   0.019   0.170
    1UNL     H1   13   0.416   0.109   0.202
    1UNL     H2   14   0.250   0.161   0.139
    1UNL     H3   15   0.391  -0.096   0.075
    1UNL     H4   16   0.244  -0.291   0.028
    1UNL     H5   17   0.131  -0.269  -0.099
    1UNL     H6   18   0.297  -0.205  -0.112
    1UNL     H7   19   0.088  -0.133   0.195
    1UNL     H8   20   0.179   0.117  -0.072
    1UNL     H9   21   0.203  -0.004  -0.187
    1UNL    H10   22  -0.021   0.105  -0.220
    1UNL    H11   23  -0.047  -0.066  -0.185
    1UNL    H12   24  -0.047   0.085   0.065
    1UNL    H13   25  -0.264   0.070  -0.226
    1UNL    H14   26  -0.401   0.126  -0.147
    1UNL    H15   27  -0.353  -0.042  -0.130
    1UNL    H16   28  -0.250   0.185   0.189
    1UNL    H17   29  -0.396   0.191   0.083
    1UNL    H18   30  -0.419  -0.046   0.116
   0.00000   0.00000   0.00000   0.00000   0.00000   0.00000   0.00000   0.00000   0.00000
Generated with MDTraj, t= 57.0
 30
    1UNL     C1    1   0.285   0.086   0.169
    1UNL     C2    2   0.298  -0.013   0.087
    1UNL     C3    3   0.176  -0.076   0.012
    1UNL     C4    4   0.208  -0.208  -0.052
    1UNL     O1    5   0.074  -0.110   0.111
    1UNL     C5    6   0.114   0.022  -0.098
    1UNL     C6    7  -0.034  -0.004  -0.131
    1UNL     C7    8  -0.120   0.037  -0.023
    1UNL     C8    9  -0.237   0.097  -0.036
    1UNL     C9   10  -0.302   0.096  -0.168
    1UNL    C10   11  -0.317   0.121   0.090
    1UNL     O2   12  -0.288   0.036   0.197
    1UNL     H1   13   0.364   0.133   0.222
    1UNL     H2   14   0.188   0.115   0.205
    1UNL     H3   15   0.400  -0.033   0.061
    1UNL     H4   16   0.250  -0.279   0.024
    1UNL     H5   17   0.124  -0.260  -0.091
    1UNL     H6   18   0.281  -0.201  -0.133
    1UNL     H7   19   0.116  -0.143   0.193
    1UNL     H8   20   0.129   0.118  -0.058
    1UNL     H9   21   0.173   0.018  -0.190
    1UNL    H10   22  -0.065   0.055  -0.218
    1UNL    H11   23  -0.048  -0.111  -0.160
    1UNL    H12   24  -0.083   0.023   0.080
    1UNL    H13   25  -0.283   0.195  -0.215
    1UNL    H14   26  -0.408   0.091  -0.166
    1UNL    H15   27  -0.269   0.020  -0.228
    1UNL    H16   28  -0.301   0.232   0.128
    1UNL    H17   29  -0.422   0.116   0.062
    1UNL    H18   30  -0.262  -0.049   0.159
   0.00000   0.00000   0.00000   0.00000   0.00000   0.00000   0.00000   0.00000   0.00000
Generated with MDTraj, t= 58.0
 30
    1UNL     C1    1   0.290   0.055   0.201
    1UNL     C2    2   0.286   0.009   0.080
    1UNL     C3    3   0.179  -0.072   0.010
    1UNL     C4    4   0.220  -0.205  -0.056
    1UNL     O1    5   0.082  -0.109   0.111
    1UNL     C5    6   0.104   0.026  -0.101
    1UNL     C6    7  -0.033  -0.017  -0.139
    1UNL     C7    8  -0.134   0.002  -0.037
    1UNL     C8    9  -0.246   0.073  -0.041
    1UNL     C9   10  -0.299   0.135  -0.171
    1UNL    C10   11  -0.334   0.070   0.084
    1UNL     O2   12  -0.267   0.106   0.208
    1UNL     H1   13   0.380   0.085   0.250
    1UNL     H2   14   0.209   0.047   0.274
    1UNL     H3   15   0.381   0.006   0.027
    1UNL     H4   16   0.266  -0.272   0.020
    1UNL     H5   17   0.132  -0.257  -0.090
    1UNL     H6   18   0.286  -0.187  -0.139
    1UNL     H7   19   0.134  -0.144   0.187
    1UNL     H8   20   0.106   0.125  -0.070
    1UNL     H9   21   0.167   0.021  -0.191
    1UNL    H10   22  -0.060   0.035  -0.232
    1UNL    H11   23  -0.040  -0.125  -0.163
    1UNL    H12   24  -0.121  -0.053   0.056
    1UNL    H13   25  -0.251   0.234  -0.175
    1UNL    H14   26  -0.402   0.153  -0.178
    1UNL    H15   27  -0.274   0.079  -0.257
    1UNL    H16   28  -0.420   0.149   0.065
    1UNL    H17   29  -0.381  -0.027   0.088
    1UNL    H18   30  -0.239   0.026   0.260
   0.00000   0.00000   0.00000   0.00000   0.00000   0.00000   0.00000   0.00000   0.00000
Generated with MDTraj, t= 59.0
 30
    1UNL     C1    1   0.296   0.043   0.205
    1UNL     C2    2   0.302   0.002   0.077
    1UNL     C3    3   0.178  -0.068   0.015
    1UNL     C4    4   0.213  -0.181  -0.080
    1UNL     O1    5   0.091  -0.124   0.122
    1UNL     C5    6   0.091   0.033  -0.074
    1UNL     C6    7  -0.031  -0.031  -0.149
    1UNL     C7    8  -0.145  -0.037  -0.053
    1UNL     C8    9  -0.252   0.043  -0.035
    1UNL     C9   10  -0.280   0.147  -0.138
    1UNL    C10   11  -0.327   0.047   0.093
    1UNL     O2   12  -0.285   0.165   0.172
    1UNL     H1   13   0.370   0.105   0.257
    1UNL     H2   14   0.217   0.039   0.276
    1UNL     H3   15   0.388  -0.008   0.008
    1UNL     H4   16   0.283  -0.241  -0.019
    1UNL     H5   17   0.129  -0.245  -0.108
    1UNL     H6   18   0.265  -0.138  -0.163
    1UNL     H7   19   0.146  -0.160   0.195
    1UNL     H8   20   0.049   0.096  -0.002
    1UNL     H9   21   0.156   0.090  -0.142
    1UNL    H10   22  -0.066   0.032  -0.235
    1UNL    H11   23  -0.003  -0.127  -0.191
    1UNL    H12   24  -0.134  -0.109   0.022
    1UNL    H13   25  -0.190   0.206  -0.140
    1UNL    H14   26  -0.354   0.219  -0.122
    1UNL    H15   27  -0.300   0.105  -0.237
    1UNL    H16   28  -0.444   0.051   0.082
    1UNL    H17   29  -0.302  -0.039   0.152
    1UNL    H18   30  -0.325   0.251   0.140
   0.00000   0.00000   0.00000   0.00000   0.00000   0.00000   0.00000   0.00000   0.00000
Generated with MDTraj, t= 60.0
 30
    1UNL     C1    1   0.275   0.052   0.184
    1UNL     C2    2   0.300  -0.010   0.073
    1UNL     C3    3   0.190  -0.082   0.001
    1UNL     C4    4   0.239  -0.197  -0.091
    1UNL     O1    5   0.099  -0.128   0.105
    1UNL     C5    6   0.115   0.020  -0.091
    1UNL     C6    7  -0.031  -0.032  -0.127
    1UNL     C7    8  -0.128  -0.033  -0.015
    1UNL     C8    9  -0.226   0.057  -0.011
    1UNL     C9   10  -0.263   0.159  -0.118
    1UNL    C10   11  -0.328   0.057   0.100
    1UNL     O2   12  -0.370   0.180   0.158
    1UNL     H1   13   0.359   0.097   0.234
    1UNL     H2   14   0.184   0.066   0.240
    1UNL     H3   15   0.400  -0.013   0.036
    1UNL     H4   16   0.277  -0.280  -0.033
    1UNL     H5   17   0.152  -0.232  -0.150
    1UNL     H6   18   0.317  -0.161  -0.155
    1UNL     H7   19   0.139  -0.171   0.184
    1UNL     H8   20   0.110   0.118  -0.051
    1UNL     H9   21   0.173   0.020  -0.183
    1UNL    H10   22  -0.071   0.043  -0.202
    1UNL    H11   23  -0.030  -0.129  -0.174
    1UNL    H12   24  -0.126  -0.110   0.067
    1UNL    H13   25  -0.216   0.247  -0.090
    1UNL    H14   26  -0.364   0.188  -0.126
    1UNL    H15   27  -0.234   0.130  -0.222
    1UNL    H16   28  -0.428   0.006   0.069
    1UNL    H17   29  -0.293   0.005   0.190
    1UNL    H18   30  -0.407   0.235   0.086
   0.00000   0.00000   0.00000   0.00000   0.00000   0.00000   0.00000   0.00000   0.00000
Generated with MDTraj, t= 61.0
 30
    1UNL     C1    1   0.277   0.075   0.149
    1UNL     C2    2   0.304  -0.031   0.083
    1UNL     C3    3   0.198  -0.103   0.003
    1UNL     C4    4   0.259  -0.205  -0.092
    1UNL     O1    5   0.110  -0.166   0.100
    1UNL     C5    6   0.121   0.006  -0.078
    1UNL     C6    7  -0.025  -0.008  -0.126
    1UNL     C7    8  -0.123   0.000  -0.014
    1UNL     C8    9  -0.228   0.080   0.007
    1UNL     C9   10  -0.268   0.169  -0.111
    1UNL    C10   11  -0.328   0.068   0.121
    1UNL     O2   12  -0.422   0.171   0.137
    1UNL     H1   13   0.357   0.133   0.189
    1UNL     H2   14   0.174   0.100   0.176
    1UNL     H3   15   0.414  -0.044   0.074
    1UNL     H4   16   0.329  -0.263  -0.035
    1UNL     H5   17   0.188  -0.272  -0.145
    1UNL     H6   18   0.326  -0.154  -0.160
    1UNL     H7   19   0.149  -0.246   0.141
    1UNL     H8   20   0.128   0.096  -0.019
    1UNL     H9   21   0.173   0.023  -0.171
    1UNL    H10   22  -0.053   0.072  -0.202
    1UNL    H11   23  -0.038  -0.102  -0.175
    1UNL    H12   24  -0.096  -0.055   0.069
    1UNL    H13   25  -0.188   0.223  -0.147
    1UNL    H14   26  -0.336   0.248  -0.081
    1UNL    H15   27  -0.313   0.110  -0.193
    1UNL    H16   28  -0.397  -0.025   0.104
    1UNL    H17   29  -0.278   0.056   0.216
    1UNL    H18   30  -0.490   0.157   0.069
   0.00000   0.00000   0.00000   0.00000   0.00000   0.00000   0.00000   0.00000   0.00000
Generated with MDTraj, t= 62.0
 30
    1UNL     C1    1   0.306   0.031   0.182
    1UNL     C2    2   0.308  -0.020   0.058
    1UNL     C3    3   0.185  -0.083   0.001
    1UNL     C4    4   0.232  -0.187  -0.091
    1UNL     O1    5   0.094  -0.136   0.104
    1UNL     C5    6   0.108   0.026  -0.084
    1UNL     C6    7  -0.028  -0.028  -0.117
    1UNL     C7    8  -0.127  -0.013  -0.008
    1UNL     C8    9  -0.221   0.076   0.002
    1UNL     C9   10  -0.248   0.161  -0.115
    1UNL    C10   11  -0.296   0.104   0.132
    1UNL     O2   12  -0.436   0.133   0.113
    1UNL     H1   13   0.404   0.047   0.225
    1UNL     H2   14   0.223   0.065   0.238
    1UNL     H3   15   0.397  -0.035   0.007
    1UNL     H4   16   0.298  -0.252  -0.037
    1UNL     H5   17   0.151  -0.248  -0.133
    1UNL     H6   18   0.303  -0.155  -0.169
    1UNL     H7   19   0.121  -0.228   0.120
    1UNL     H8   20   0.092   0.119  -0.025
    1UNL     H9   21   0.160   0.061  -0.170
    1UNL    H10   22  -0.069   0.013  -0.215
    1UNL    H11   23  -0.023  -0.132  -0.143
    1UNL    H12   24  -0.106  -0.056   0.093
    1UNL    H13   25  -0.166   0.176  -0.181
    1UNL    H14   26  -0.271   0.266  -0.092
    1UNL    H15   27  -0.327   0.120  -0.173
    1UNL    H16   28  -0.293   0.015   0.204
    1UNL    H17   29  -0.261   0.193   0.183
    1UNL    H18   30  -0.482   0.065   0.057
   0.00000   0.00000   0.00000   0.00000   0.00000   0.00000   0.00000   0.00000   0.00000
Generated with MDTraj, t= 63.0
 30
    1UNL     C1    1   0.365  -0.010   0.170
    1UNL     C2    2   0.300  -0.002   0.052
    1UNL     C3    3   0.181  -0.079   0.005
    1UNL     C4    4   0.243  -0.202  -0.057
    1UNL     O1    5   0.090  -0.129   0.112
    1UNL     C5    6   0.094   0.012  -0.090
    1UNL     C6    7  -0.050  -0.033  -0.115
    1UNL     C7    8  -0.138   0.003  -0.001
    1UNL     C8    9  -0.225   0.101  -0.007
    1UNL     C9   10  -0.245   0.207  -0.117
    1UNL    C10   11  -0.302   0.125   0.115
    1UNL     O2   12  -0.439   0.077   0.110
    1UNL     H1   13   0.452   0.053   0.182
    1UNL     H2   14   0.317  -0.036   0.262
    1UNL     H3   15   0.343   0.055  -0.037
    1UNL     H4   16   0.312  -0.255   0.007
    1UNL     H5   17   0.175  -0.270  -0.107
    1UNL     H6   18   0.319  -0.167  -0.130
    1UNL     H7   19   0.121  -0.218   0.142
    1UNL     H8   20   0.093   0.121  -0.061
    1UNL     H9   21   0.145   0.015  -0.181
    1UNL    H10   22  -0.101   0.018  -0.202
    1UNL    H11   23  -0.051  -0.136  -0.147
    1UNL    H12   24  -0.144  -0.052   0.089
    1UNL    H13   25  -0.234   0.309  -0.075
    1UNL    H14   26  -0.345   0.206  -0.159
    1UNL    H15   27  -0.180   0.196  -0.195
    1UNL    H16   28  -0.247   0.076   0.202
    1UNL    H17   29  -0.312   0.232   0.135
    1UNL    H18   30  -0.441  -0.014   0.068
   0.00000   0.00000   0.00000   0.00000   0.00000   0.00000   0.00000   0.00000   0.00000
Generated with MDTraj, t= 64.0
 30
    1UNL     C1    1   0.390  -0.052   0.124
    1UNL     C2    2   0.292   0.011   0.056
    1UNL     C3    3   0.163  -0.066   0.015
    1UNL     C4    4   0.206  -0.200  -0.045
    1UNL     O1    5   0.075  -0.085   0.126
    1UNL     C5    6   0.094   0.021  -0.087
    1UNL     C6    7  -0.047  -0.039  -0.111
    1UNL     C7    8  -0.142   0.007  -0.001
    1UNL     C8    9  -0.220   0.112  -0.000
    1UNL     C9   10  -0.204   0.211  -0.116
    1UNL    C10   11  -0.321   0.131   0.107
    1UNL     O2   12  -0.419   0.028   0.099
    1UNL     H1   13   0.481  -0.001   0.134
    1UNL     H2   14   0.366  -0.133   0.193
    1UNL     H3   15   0.314   0.102   0.013
    1UNL     H4   16   0.283  -0.242   0.018
    1UNL     H5   17   0.122  -0.264  -0.063
    1UNL     H6   18   0.267  -0.184  -0.137
    1UNL     H7   19   0.111  -0.145   0.197
    1UNL     H8   20   0.101   0.126  -0.045
    1UNL     H9   21   0.146   0.027  -0.177
    1UNL    H10   22  -0.091  -0.020  -0.212
    1UNL    H11   23  -0.043  -0.147  -0.101
    1UNL    H12   24  -0.164  -0.057   0.086
    1UNL    H13   25  -0.299   0.263  -0.140
    1UNL    H14   26  -0.179   0.164  -0.206
    1UNL    H15   27  -0.130   0.282  -0.100
    1UNL    H16   28  -0.265   0.120   0.206
    1UNL    H17   29  -0.366   0.231   0.100
    1UNL    H18   30  -0.370  -0.057   0.101
   0.00000   0.00000   0.00000   0.00000   0.00000   0.00000   0.00000   0.00000   0.00000
Generated with MDTraj, t= 65.0
 30
    1UNL     C1    1   0.409  -0.064   0.091
    1UNL     C2    2   0.303  -0.001   0.049
    1UNL     C3    3   0.169  -0.059   0.033
    1UNL     C4    4   0.178  -0.209  -0.011
    1UNL     O1    5   0.092  -0.064   0.161
    1UNL     C5    6   0.095   0.024  -0.073
    1UNL     C6    7  -0.039  -0.025  -0.137
    1UNL     C7    8  -0.161  -0.005  -0.053
    1UNL     C8    9  -0.224   0.108  -0.024
    1UNL     C9   10  -0.198   0.233  -0.097
    1UNL    C10   11  -0.328   0.114   0.095
    1UNL     O2   12  -0.426   0.013   0.117
    1UNL     H1   13   0.506  -0.017   0.095
    1UNL     H2   14   0.390  -0.167   0.120
    1UNL     H3   15   0.315   0.108   0.031
    1UNL     H4   16   0.240  -0.267   0.058
    1UNL     H5   17   0.075  -0.237  -0.007
    1UNL     H6   18   0.229  -0.230  -0.106
    1UNL     H7   19   0.149  -0.035   0.236
    1UNL     H8   20   0.067   0.121  -0.024
    1UNL     H9   21   0.158   0.051  -0.152
    1UNL    H10   22  -0.063   0.030  -0.230
    1UNL    H11   23  -0.033  -0.131  -0.164
    1UNL    H12   24  -0.204  -0.091  -0.002
    1UNL    H13   25  -0.290   0.267  -0.145
    1UNL    H14   26  -0.136   0.215  -0.178
    1UNL    H15   27  -0.156   0.317  -0.042
    1UNL    H16   28  -0.260   0.121   0.186
    1UNL    H17   29  -0.390   0.204   0.080
    1UNL    H18   30  -0.393  -0.075   0.140
   0.00000   0.00000   0.00000   0.00000   0.00000   0.00000   0.00000   0.00000   0.00000
Generated with MDTraj, t= 66.0
 30
    1UNL     C1    1   0.399  -0.085   0.099
    1UNL     C2    2   0.303  -0.012   0.037
    1UNL     C3    3   0.157  -0.051   0.023
    1UNL     C4    4   0.152  -0.205   0.005
    1UNL     O1    5   0.088  -0.021   0.140
    1UNL     C5    6   0.099   0.023  -0.105
    1UNL     C6    7  -0.043  -0.015  -0.121
    1UNL     C7    8  -0.132   0.002  -0.010
    1UNL     C8    9  -0.212   0.104   0.005
    1UNL     C9   10  -0.196   0.232  -0.075
    1UNL    C10   11  -0.329   0.102   0.099
    1UNL     O2   12  -0.410  -0.009   0.072
    1UNL     H1   13   0.502  -0.053   0.118
    1UNL     H2   14   0.383  -0.186   0.126
    1UNL     H3   15   0.334   0.088   0.014
    1UNL     H4   16   0.210  -0.268   0.073
    1UNL     H5   17   0.051  -0.242   0.021
    1UNL     H6   18   0.204  -0.229  -0.088
    1UNL     H7   19   0.070   0.075   0.135
    1UNL     H8   20   0.095   0.133  -0.097
    1UNL     H9   21   0.162  -0.006  -0.186
    1UNL    H10   22  -0.091   0.028  -0.212
    1UNL    H11   23  -0.050  -0.122  -0.153
    1UNL    H12   24  -0.147  -0.076   0.059
    1UNL    H13   25  -0.288   0.248  -0.124
    1UNL    H14   26  -0.117   0.218  -0.148
    1UNL    H15   27  -0.176   0.322  -0.016
    1UNL    H16   28  -0.285   0.094   0.204
    1UNL    H17   29  -0.384   0.194   0.076
    1UNL    H18   30  -0.367  -0.093   0.097
   0.00000   0.00000   0.00000   0.00000   0.00000   0.00000   0.00000   0.00000   0.00000
Generated with MDTraj, t= 67.0
 30
    1UNL     C1    1   0.378  -0.059   0.134
    1UNL     C2    2   0.315  -0.035   0.016
    1UNL     C3    3   0.170  -0.061   0.015
    1UNL     C4    4   0.130  -0.209   0.014
    1UNL     O1    5   0.118   0.003   0.137
    1UNL     C5    6   0.107   0.022  -0.102
    1UNL     C6    7  -0.037   0.004  -0.148
    1UNL     C7    8  -0.139  -0.012  -0.040
    1UNL     C8    9  -0.215   0.087   0.001
    1UNL     C9   10  -0.214   0.223  -0.061
    1UNL    C10   11  -0.304   0.071   0.117
    1UNL     O2   12  -0.433   0.018   0.083
    1UNL     H1   13   0.483  -0.057   0.153
    1UNL     H2   14   0.326  -0.089   0.225
    1UNL     H3   15   0.366  -0.041  -0.078
    1UNL     H4   16   0.165  -0.267   0.100
    1UNL     H5   17   0.020  -0.218   0.022
    1UNL     H6   18   0.176  -0.264  -0.068
    1UNL     H7   19   0.120   0.101   0.137
    1UNL     H8   20   0.135   0.123  -0.073
    1UNL     H9   21   0.162  -0.006  -0.194
    1UNL    H10   22  -0.069   0.075  -0.227
    1UNL    H11   23  -0.048  -0.091  -0.207
    1UNL    H12   24  -0.146  -0.107   0.019
    1UNL    H13   25  -0.234   0.214  -0.161
    1UNL    H14   26  -0.113   0.269  -0.043
    1UNL    H15   27  -0.291   0.292  -0.028
    1UNL    H16   28  -0.252  -0.002   0.188
    1UNL    H17   29  -0.319   0.169   0.162
    1UNL    H18   30  -0.413  -0.054   0.016
   0.00000   0.00000   0.00000   0.00000   0.00000   0.00000   0.00000   0.00000   0.00000
Generated with MDTraj, t= 68.0
 30
    1UNL     C1    1   0.363  -0.006   0.138
    1UNL     C2    2   0.318  -0.045   0.019
    1UNL     C3    3   0.163  -0.071   0.014
    1UNL     C4    4   0.144  -0.224  -0.003
    1UNL     O1    5   0.101  -0.029   0.141
    1UNL     C5    6   0.114   0.018  -0.101
    1UNL     C6    7  -0.030  -0.004  -0.159
    1UNL     C7    8  -0.133  -0.015  -0.051
    1UNL     C8    9  -0.205   0.084   0.006
    1UNL     C9   10  -0.221   0.214  -0.058
    1UNL    C10   11  -0.294   0.050   0.121
    1UNL     O2   12  -0.435   0.070   0.097
    1UNL     H1   13   0.459   0.039   0.149
    1UNL     H2   14   0.311  -0.008   0.234
    1UNL     H3   15   0.381  -0.041  -0.073
    1UNL     H4   16   0.188  -0.272   0.084
    1UNL     H5   17   0.036  -0.245  -0.002
    1UNL     H6   18   0.199  -0.264  -0.086
    1UNL     H7   19   0.087   0.067   0.141
    1UNL     H8   20   0.122   0.118  -0.065
    1UNL     H9   21   0.190   0.003  -0.183
    1UNL    H10   22  -0.067   0.077  -0.223
    1UNL    H11   23  -0.038  -0.094  -0.226
    1UNL    H12   24  -0.138  -0.109  -0.012
    1UNL    H13   25  -0.215   0.206  -0.163
    1UNL    H14   26  -0.147   0.287  -0.022
    1UNL    H15   27  -0.320   0.253  -0.045
    1UNL    H16   28  -0.290  -0.061   0.145
    1UNL    H17   29  -0.278   0.109   0.211
    1UNL    H18   30  -0.457   0.040   0.005
   0.00000   0.00000   0.00000   0.00000   0.00000   0.00000   0.00000   0.00000   0.00000
Generated with MDTraj, t= 69.0
 30
    1UNL     C1    1   0.322   0.031   0.164
    1UNL     C2    2   0.307  -0.011   0.041
    1UNL     C3    3   0.180  -0.074  -0.004
    1UNL     C4    4   0.198  -0.224  -0.053
    1UNL     O1    5   0.100  -0.086   0.118
    1UNL     C5    6   0.103   0.020  -0.106
    1UNL     C6    7  -0.041  -0.040  -0.137
    1UNL     C7    8  -0.135  -0.032  -0.023
    1UNL     C8    9  -0.208   0.070   0.014
    1UNL     C9   10  -0.195   0.196  -0.067
    1UNL    C10   11  -0.311   0.061   0.126
    1UNL     O2   12  -0.434   0.134   0.102
    1UNL     H1   13   0.425   0.048   0.197
    1UNL     H2   14   0.241   0.019   0.230
    1UNL     H3   15   0.381   0.014  -0.028
    1UNL     H4   16   0.270  -0.280   0.005
    1UNL     H5   17   0.102  -0.280  -0.060
    1UNL     H6   18   0.247  -0.209  -0.148
    1UNL     H7   19   0.055   0.001   0.134
    1UNL     H8   20   0.093   0.116  -0.064
    1UNL     H9   21   0.158   0.028  -0.205
    1UNL    H10   22  -0.079   0.005  -0.230
    1UNL    H11   23  -0.034  -0.149  -0.168
    1UNL    H12   24  -0.152  -0.124   0.040
    1UNL    H13   25  -0.256   0.189  -0.161
    1UNL    H14   26  -0.093   0.221  -0.085
    1UNL    H15   27  -0.240   0.273  -0.011
    1UNL    H16   28  -0.349  -0.043   0.146
    1UNL    H17   29  -0.276   0.105   0.220
    1UNL    H18   30  -0.469   0.116   0.013
   0.00000   0.00000   0.00000   0.00000   0.00000   0.00000   0.00000   0.00000   0.00000
Generated with MDTraj, t= 70.0
 30
    1UNL     C1    1   0.302   0.043   0.179
    1UNL     C2    2   0.286   0.024   0.051
    1UNL     C3    3   0.185  -0.074  -0.003
    1UNL     C4    4   0.260  -0.184  -0.085
    1UNL     O1    5   0.119  -0.156   0.107
    1UNL     C5    6   0.073  -0.002  -0.087
    1UNL     C6    7  -0.061  -0.076  -0.113
    1UNL     C7    8  -0.165  -0.052  -0.018
    1UNL     C8    9  -0.229   0.064  -0.009
    1UNL     C9   10  -0.193   0.184  -0.092
    1UNL    C10   11  -0.307   0.086   0.120
    1UNL     O2   12  -0.406   0.186   0.120
    1UNL     H1   13   0.378   0.112   0.213
    1UNL     H2   14   0.245  -0.010   0.252
    1UNL     H3   15   0.349   0.082  -0.023
    1UNL     H4   16   0.310  -0.244  -0.010
    1UNL     H5   17   0.191  -0.250  -0.137
    1UNL     H6   18   0.338  -0.148  -0.152
    1UNL     H7   19   0.062  -0.097   0.161
    1UNL     H8   20   0.055   0.086  -0.032
    1UNL     H9   21   0.117   0.030  -0.188
    1UNL    H10   22  -0.108  -0.042  -0.207
    1UNL    H11   23  -0.035  -0.184  -0.137
    1UNL    H12   24  -0.185  -0.125   0.057
    1UNL    H13   25  -0.259   0.199  -0.184
    1UNL    H14   26  -0.091   0.204  -0.117
    1UNL    H15   27  -0.221   0.266  -0.032
    1UNL    H16   28  -0.353  -0.011   0.149
    1UNL    H17   29  -0.237   0.117   0.200
    1UNL    H18   30  -0.457   0.174   0.038
   0.00000   0.00000   0.00000   0.00000   0.00000   0.00000   0.00000   0.00000   0.00000
Generated with MDTraj, t= 71.0
 30
    1UNL     C1    1   0.285   0.027   0.201
    1UNL     C2    2   0.261   0.031   0.071
    1UNL     C3    3   0.186  -0.081  -0.008
    1UNL     C4    4   0.282  -0.154  -0.105
    1UNL     O1    5   0.125  -0.182   0.076
    1UNL     C5    6   0.073  -0.002  -0.094
    1UNL     C6    7  -0.059  -0.074  -0.097
    1UNL     C7    8  -0.143  -0.043   0.023
    1UNL     C8    9  -0.230   0.056   0.008
    1UNL     C9   10  -0.229   0.149  -0.112
    1UNL    C10   11  -0.322   0.093   0.122
    1UNL     O2   12  -0.374   0.220   0.107
    1UNL     H1   13   0.341   0.109   0.237
    1UNL     H2   14   0.239  -0.045   0.269
    1UNL     H3   15   0.328   0.076   0.007
    1UNL     H4   16   0.369  -0.184  -0.049
    1UNL     H5   17   0.240  -0.242  -0.149
    1UNL     H6   18   0.317  -0.085  -0.183
    1UNL     H7   19   0.074  -0.137   0.147
    1UNL     H8   20   0.063   0.097  -0.055
    1UNL     H9   21   0.119   0.021  -0.196
    1UNL    H10   22  -0.110  -0.059  -0.194
    1UNL    H11   23  -0.042  -0.186  -0.092
    1UNL    H12   24  -0.137  -0.092   0.118
    1UNL    H13   25  -0.305   0.124  -0.189
    1UNL    H14   26  -0.134   0.144  -0.164
    1UNL    H15   27  -0.232   0.255  -0.093
    1UNL    H16   28  -0.404   0.025   0.133
    1UNL    H17   29  -0.260   0.094   0.216
    1UNL    H18   30  -0.424   0.220   0.020
   0.00000   0.00000   0.00000   0.00000   0.00000   0.00000   0.00000   0.00000   0.00000
Generated with MDTraj, t= 72.0
 30
    1UNL     C1    1   0.301   0.015   0.208
    1UNL     C2    2   0.260   0.023   0.082
    1UNL     C3    3   0.191  -0.082  -0.006
    1UNL     C4    4   0.294  -0.129  -0.105
    1UNL     O1    5   0.140  -0.199   0.075
    1UNL     C5    6   0.075  -0.010  -0.081
    1UNL     C6    7  -0.058  -0.082  -0.095
    1UNL     C7    8  -0.158  -0.036   0.009
    1UNL     C8    9  -0.250   0.061  -0.001
    1UNL     C9   10  -0.271   0.134  -0.133
    1UNL    C10   11  -0.314   0.105   0.118
    1UNL     O2   12  -0.359   0.237   0.114
    1UNL     H1   13   0.341   0.102   0.259
    1UNL     H2   14   0.282  -0.065   0.276
    1UNL     H3   15   0.284   0.114   0.017
    1UNL     H4   16   0.382  -0.174  -0.059
    1UNL     H5   17   0.255  -0.199  -0.176
    1UNL     H6   18   0.324  -0.037  -0.159
    1UNL     H7   19   0.081  -0.180   0.150
    1UNL     H8   20   0.064   0.091  -0.042
    1UNL     H9   21   0.116   0.012  -0.183
    1UNL    H10   22  -0.110  -0.063  -0.191
    1UNL    H11   23  -0.029  -0.193  -0.087
    1UNL    H12   24  -0.146  -0.079   0.111
    1UNL    H13   25  -0.327   0.070  -0.199
    1UNL    H14   26  -0.169   0.140  -0.173
    1UNL    H15   27  -0.316   0.235  -0.130
    1UNL    H16   28  -0.391   0.037   0.141
    1UNL    H17   29  -0.238   0.105   0.203
    1UNL    H18   30  -0.435   0.252   0.051
   0.00000   0.00000   0.00000   0.00000   0.00000   0.00000   0.00000   0.00000   0.00000
Generated with MDTraj, t= 73.0
 30
    1UNL     C1    1   0.335  -0.028   0.185
    1UNL     C2    2   0.264   0.029   0.091
    1UNL     C3    3   0.180  -0.064   0.002
    1UNL     C4    4   0.288  -0.122  -0.093
    1UNL     O1    5   0.114  -0.164   0.083
    1UNL     C5    6   0.073  -0.002  -0.091
    1UNL     C6    7  -0.056  -0.085  -0.090
    1UNL     C7    8  -0.146  -0.034   0.012
    1UNL     C8    9  -0.243   0.052  -0.005
    1UNL     C9   10  -0.268   0.119  -0.133
    1UNL    C10   11  -0.327   0.094   0.111
    1UNL     O2   12  -0.355   0.239   0.112
    1UNL     H1   13   0.404   0.032   0.242
    1UNL     H2   14   0.330  -0.129   0.216
    1UNL     H3   15   0.251   0.133   0.092
    1UNL     H4   16   0.345  -0.202  -0.046
    1UNL     H5   17   0.238  -0.174  -0.172
    1UNL     H6   18   0.354  -0.047  -0.140
    1UNL     H7   19   0.070  -0.112   0.153
    1UNL     H8   20   0.056   0.105  -0.065
    1UNL     H9   21   0.105   0.006  -0.197
    1UNL    H10   22  -0.104  -0.084  -0.190
    1UNL    H11   23  -0.032  -0.190  -0.049
    1UNL    H12   24  -0.126  -0.060   0.110
    1UNL    H13   25  -0.285   0.048  -0.207
    1UNL    H14   26  -0.175   0.172  -0.158
    1UNL    H15   27  -0.353   0.194  -0.137
    1UNL    H16   28  -0.415   0.039   0.120
    1UNL    H17   29  -0.271   0.072   0.207
    1UNL    H18   30  -0.410   0.266   0.037
   0.00000   0.00000   0.00000   0.00000   0.00000   0.00000   0.00000   0.00000   0.00000
Generated with MDTraj, t= 74.0
 30
    1UNL     C1    1   0.380  -0.007   0.172
    1UNL     C2    2   0.288   0.018   0.082
    1UNL     C3    3   0.187  -0.069   0.016
    1UNL     C4    4   0.263  -0.161  -0.086
    1UNL     O1    5   0.128  -0.154   0.119
    1UNL     C5    6   0.078   0.007  -0.063
    1UNL     C6    7  -0.057  -0.064  -0.102
    1UNL     C7    8  -0.164  -0.030  -0.013
    1UNL     C8    9  -0.256   0.063  -0.025
    1UNL     C9   10  -0.290   0.140  -0.148
    1UNL    C10   11  -0.353   0.081   0.087
    1UNL     O2   12  -0.345   0.212   0.136
    1UNL     H1   13   0.469   0.045   0.200
    1UNL     H2   14   0.367  -0.103   0.222
    1UNL     H3   15   0.290   0.122   0.044
    1UNL     H4   16   0.353  -0.205  -0.042
    1UNL     H5   17   0.207  -0.247  -0.124
    1UNL     H6   18   0.293  -0.101  -0.171
    1UNL     H7   19   0.084  -0.098   0.186
    1UNL     H8   20   0.044   0.100  -0.007
    1UNL     H9   21   0.115   0.049  -0.157
    1UNL    H10   22  -0.094  -0.017  -0.196
    1UNL    H11   23  -0.036  -0.178  -0.101
    1UNL    H12   24  -0.152  -0.079   0.089
    1UNL    H13   25  -0.314   0.079  -0.231
    1UNL    H14   26  -0.210   0.205  -0.185
    1UNL    H15   27  -0.381   0.204  -0.137
    1UNL    H16   28  -0.448   0.054   0.060
    1UNL    H17   29  -0.325   0.013   0.172
    1UNL    H18   30  -0.385   0.265   0.066
   0.00000   0.00000   0.00000   0.00000   0.00000   0.00000   0.00000   0.00000   0.00000
Generated with MDTraj, t= 75.0
 30
    1UNL     C1    1   0.398  -0.021   0.143
    1UNL     C2    2   0.313   0.007   0.047
    1UNL     C3    3   0.180  -0.060   0.029
    1UNL     C4    4   0.207  -0.180  -0.066
    1UNL     O1    5   0.114  -0.111   0.145
    1UNL     C5    6   0.091   0.033  -0.057
    1UNL     C6    7  -0.047  -0.037  -0.087
    1UNL     C7    8  -0.153  -0.005   0.006
    1UNL     C8    9  -0.262   0.057  -0.039
    1UNL     C9   10  -0.266   0.134  -0.172
    1UNL    C10   11  -0.381   0.080   0.051
    1UNL     O2   12  -0.339   0.143   0.164
    1UNL     H1   13   0.487   0.031   0.173
    1UNL     H2   14   0.369  -0.093   0.218
    1UNL     H3   15   0.342   0.078  -0.028
    1UNL     H4   16   0.278  -0.250  -0.024
    1UNL     H5   17   0.116  -0.241  -0.081
    1UNL     H6   18   0.238  -0.139  -0.161
    1UNL     H7   19   0.107  -0.037   0.210
    1UNL     H8   20   0.070   0.130   0.001
    1UNL     H9   21   0.142   0.073  -0.146
    1UNL    H10   22  -0.083  -0.003  -0.186
    1UNL    H11   23  -0.035  -0.152  -0.081
    1UNL    H12   24  -0.141  -0.036   0.105
    1UNL    H13   25  -0.257   0.068  -0.263
    1UNL    H14   26  -0.177   0.195  -0.178
    1UNL    H15   27  -0.355   0.195  -0.189
    1UNL    H16   28  -0.451   0.143   0.013
    1UNL    H17   29  -0.434  -0.011   0.085
    1UNL    H18   30  -0.264   0.207   0.146
   0.00000   0.00000   0.00000   0.00000   0.00000   0.00000   0.00000   0.00000   0.00000
Generated with MDTraj, t= 76.0
 30
    1UNL     C1    1   0.404  -0.035   0.145
    1UNL     C2    2   0.321   0.006   0.046
    1UNL     C3    3   0.183  -0.063   0.025
    1UNL     C4    4   0.202  -0.206  -0.026
    1UNL     O1    5   0.120  -0.066   0.159
    1UNL     C5    6   0.108   0.018  -0.079
    1UNL     C6    7  -0.040  -0.028  -0.104
    1UNL     C7    8  -0.152   0.025  -0.019
    1UNL     C8    9  -0.272   0.077  -0.053
    1UNL     C9   10  -0.301   0.143  -0.186
    1UNL    C10   11  -0.380   0.111   0.053
    1UNL     O2   12  -0.343   0.072   0.189
    1UNL     H1   13   0.510  -0.010   0.148
    1UNL     H2   14   0.391  -0.111   0.218
    1UNL     H3   15   0.358   0.064  -0.035
    1UNL     H4   16   0.249  -0.262   0.056
    1UNL     H5   17   0.104  -0.254  -0.040
    1UNL     H6   18   0.254  -0.201  -0.122
    1UNL     H7   19   0.127   0.021   0.205
    1UNL     H8   20   0.123   0.130  -0.050
    1UNL     H9   21   0.166   0.021  -0.171
    1UNL    H10   22  -0.063   0.009  -0.206
    1UNL    H11   23  -0.051  -0.142  -0.101
    1UNL    H12   24  -0.138   0.002   0.086
    1UNL    H13   25  -0.331   0.064  -0.265
    1UNL    H14   26  -0.208   0.188  -0.218
    1UNL    H15   27  -0.382   0.212  -0.175
    1UNL    H16   28  -0.396   0.211   0.054
    1UNL    H17   29  -0.477   0.065   0.031
    1UNL    H18   30  -0.247   0.092   0.211
   0.00000   0.00000   0.00000   0.00000   0.00000   0.00000   0.00000   0.00000   0.00000
Generated with MDTraj, t= 77.0
 30
    1UNL     C1    1   0.375  -0.042   0.151
    1UNL     C2    2   0.306  -0.003   0.045
    1UNL     C3    3   0.168  -0.054   0.021
    1UNL     C4    4   0.162  -0.199   0.001
    1UNL     O1    5   0.087  -0.011   0.142
    1UNL     C5    6   0.110   0.015  -0.106
    1UNL     C6    7  -0.038  -0.020  -0.128
    1UNL     C7    8  -0.122   0.032  -0.024
    1UNL     C8    9  -0.241   0.084  -0.040
    1UNL     C9   10  -0.291   0.122  -0.177
    1UNL    C10   11  -0.314   0.123   0.083
    1UNL     O2   12  -0.341   0.009   0.179
    1UNL     H1   13   0.470   0.003   0.169
    1UNL     H2   14   0.348  -0.118   0.222
    1UNL     H3   15   0.340   0.089  -0.012
    1UNL     H4   16   0.223  -0.254   0.074
    1UNL     H5   17   0.061  -0.234   0.027
    1UNL     H6   18   0.180  -0.218  -0.106
    1UNL     H7   19   0.122   0.073   0.179
    1UNL     H8   20   0.137   0.127  -0.110
    1UNL     H9   21   0.173  -0.016  -0.188
    1UNL    H10   22  -0.066   0.013  -0.232
    1UNL    H11   23  -0.043  -0.133  -0.130
    1UNL    H12   24  -0.087   0.005   0.080
    1UNL    H13   25  -0.289   0.035  -0.250
    1UNL    H14   26  -0.229   0.203  -0.218
    1UNL    H15   27  -0.392   0.152  -0.176
    1UNL    H16   28  -0.256   0.200   0.120
    1UNL    H17   29  -0.406   0.170   0.050
    1UNL    H18   30  -0.280   0.018   0.254
   0.00000   0.00000   0.00000   0.00000   0.00000   0.00000   0.00000   0.00000   0.00000
Generated with MDTraj, t= 78.0
 30
    1UNL     C1    1   0.378  -0.027   0.158
    1UNL     C2    2   0.316  -0.040   0.043
    1UNL     C3    3   0.165  -0.050   0.027
    1UNL     C4    4   0.115  -0.197   0.034
    1UNL     O1    5   0.107   0.032   0.126
    1UNL     C5    6   0.119   0.013  -0.111
    1UNL     C6    7  -0.025  -0.001  -0.159
    1UNL     C7    8  -0.112   0.034  -0.046
    1UNL     C8    9  -0.234   0.082  -0.035
    1UNL     C9   10  -0.309   0.125  -0.152
    1UNL    C10   11  -0.294   0.099   0.103
    1UNL     O2   12  -0.356  -0.017   0.167
    1UNL     H1   13   0.482  -0.010   0.165
    1UNL     H2   14   0.310  -0.016   0.244
    1UNL     H3   15   0.374  -0.040  -0.042
    1UNL     H4   16   0.099  -0.214   0.141
    1UNL     H5   17   0.024  -0.241  -0.010
    1UNL     H6   18   0.197  -0.261  -0.004
    1UNL     H7   19   0.171   0.106   0.132
    1UNL     H8   20   0.158   0.120  -0.117
    1UNL     H9   21   0.180  -0.030  -0.191
    1UNL    H10   22  -0.035   0.063  -0.252
    1UNL    H11   23  -0.030  -0.106  -0.200
    1UNL    H12   24  -0.073   0.005   0.044
    1UNL    H13   25  -0.272   0.057  -0.230
    1UNL    H14   26  -0.277   0.227  -0.186
    1UNL    H15   27  -0.414   0.106  -0.154
    1UNL    H16   28  -0.218   0.128   0.166
    1UNL    H17   29  -0.362   0.183   0.101
    1UNL    H18   30  -0.452  -0.002   0.172
   0.00000   0.00000   0.00000   0.00000   0.00000   0.00000   0.00000   0.00000   0.00000
Generated with MDTraj, t= 79.0
 30
    1UNL     C1    1   0.407  -0.022   0.122
    1UNL     C2    2   0.323  -0.075   0.035
    1UNL     C3    3   0.176  -0.054   0.031
    1UNL     C4    4   0.100  -0.186   0.063
    1UNL     O1    5   0.138   0.045   0.127
    1UNL     C5    6   0.131   0.004  -0.109
    1UNL     C6    7  -0.024   0.025  -0.130
    1UNL     C7    8  -0.110   0.068  -0.016
    1UNL     C8    9  -0.242   0.090  -0.020
    1UNL     C9   10  -0.306   0.108  -0.159
    1UNL    C10   11  -0.334   0.091   0.101
    1UNL     O2   12  -0.391  -0.031   0.126
    1UNL     H1   13   0.514  -0.042   0.112
    1UNL     H2   14   0.372   0.058   0.182
    1UNL     H3   15   0.363  -0.154  -0.035
    1UNL     H4   16   0.139  -0.252   0.142
    1UNL     H5   17   0.003  -0.159   0.102
    1UNL     H6   18   0.072  -0.233  -0.035
    1UNL     H7   19   0.207   0.114   0.117
    1UNL     H8   20   0.180   0.104  -0.126
    1UNL     H9   21   0.182  -0.052  -0.188
    1UNL    H10   22  -0.033   0.092  -0.221
    1UNL    H11   23  -0.063  -0.073  -0.169
    1UNL    H12   24  -0.061   0.053   0.080
    1UNL    H13   25  -0.283   0.025  -0.221
    1UNL    H14   26  -0.265   0.198  -0.213
    1UNL    H15   27  -0.417   0.109  -0.157
    1UNL    H16   28  -0.276   0.112   0.185
    1UNL    H17   29  -0.416   0.163   0.093
    1UNL    H18   30  -0.329  -0.107   0.102
   0.00000   0.00000   0.00000   0.00000   0.00000   0.00000   0.00000   0.00000   0.00000
Generated with MDTraj, t= 80.0
 30
    1UNL     C1    1   0.430  -0.039   0.081
    1UNL     C2    2   0.320  -0.084   0.014
    1UNL     C3    3   0.175  -0.042   0.032
    1UNL     C4    4   0.091  -0.168   0.071
    1UNL     O1    5   0.170   0.033   0.164
    1UNL     C5    6   0.125   0.044  -0.077
    1UNL     C6    7  -0.021   0.020  -0.113
    1UNL     C7    8  -0.114   0.059  -0.008
    1UNL     C8    9  -0.241   0.086  -0.036
    1UNL     C9   10  -0.309   0.077  -0.168
    1UNL    C10   11  -0.336   0.098   0.085
    1UNL     O2   12  -0.406  -0.028   0.107
    1UNL     H1   13   0.531  -0.070   0.054
    1UNL     H2   14   0.408   0.021   0.167
    1UNL     H3   15   0.330  -0.144  -0.072
    1UNL     H4   16   0.133  -0.197   0.168
    1UNL     H5   17  -0.012  -0.141   0.094
    1UNL     H6   18   0.092  -0.249  -0.004
    1UNL     H7   19   0.218   0.119   0.170
    1UNL     H8   20   0.136   0.148  -0.038
    1UNL     H9   21   0.191   0.050  -0.166
    1UNL    H10   22  -0.052   0.080  -0.204
    1UNL    H11   23  -0.040  -0.088  -0.138
    1UNL    H12   24  -0.080   0.055   0.097
    1UNL    H13   25  -0.342  -0.021  -0.187
    1UNL    H14   26  -0.245   0.104  -0.253
    1UNL    H15   27  -0.407   0.135  -0.163
    1UNL    H16   28  -0.295   0.128   0.180
    1UNL    H17   29  -0.416   0.169   0.066
    1UNL    H18   30  -0.504  -0.022   0.125
   0.00000   0.00000   0.00000   0.00000   0.00000   0.00000   0.00000   0.00000   0.00000
Generated with MDTraj, t= 81.0
 30
    1UNL     C1    1   0.436  -0.041   0.085
    1UNL     C2    2   0.333  -0.079   0.004
    1UNL     C3    3   0.188  -0.044   0.041
    1UNL     C4    4   0.102  -0.180   0.053
    1UNL     O1    5   0.170   0.017   0.165
    1UNL     C5    6   0.136   0.055  -0.069
    1UNL     C6    7  -0.019   0.047  -0.112
    1UNL     C7    8  -0.120   0.067  -0.008
    1UNL     C8    9  -0.252   0.070  -0.032
    1UNL     C9   10  -0.312   0.037  -0.161
    1UNL    C10   11  -0.348   0.110   0.073
    1UNL     O2   12  -0.431  -0.005   0.112
    1UNL     H1   13   0.534  -0.075   0.072
    1UNL     H2   14   0.412  -0.003   0.185
    1UNL     H3   15   0.347  -0.134  -0.089
    1UNL     H4   16   0.114  -0.230   0.151
    1UNL     H5   17  -0.007  -0.156   0.053
    1UNL     H6   18   0.125  -0.240  -0.037
    1UNL     H7   19   0.206   0.110   0.168
    1UNL     H8   20   0.151   0.157  -0.028
    1UNL     H9   21   0.211   0.064  -0.152
    1UNL    H10   22  -0.049   0.123  -0.192
    1UNL    H11   23  -0.036  -0.055  -0.155
    1UNL    H12   24  -0.084   0.103   0.082
    1UNL    H13   25  -0.304  -0.069  -0.187
    1UNL    H14   26  -0.270   0.091  -0.245
    1UNL    H15   27  -0.424   0.053  -0.154
    1UNL    H16   28  -0.301   0.144   0.165
    1UNL    H17   29  -0.416   0.190   0.046
    1UNL    H18   30  -0.440  -0.008   0.208
   0.00000   0.00000   0.00000   0.00000   0.00000   0.00000   0.00000   0.00000   0.00000
Generated with MDTraj, t= 82.0
 30
    1UNL     C1    1   0.413  -0.044   0.127
    1UNL     C2    2   0.334  -0.059   0.019
    1UNL     C3    3   0.184  -0.045   0.026
    1UNL     C4    4   0.115  -0.194   0.009
    1UNL     O1    5   0.133   0.015   0.147
    1UNL     C5    6   0.145   0.054  -0.090
    1UNL     C6    7  -0.007   0.058  -0.126
    1UNL     C7    8  -0.107   0.085  -0.020
    1UNL     C8    9  -0.238   0.060  -0.015
    1UNL     C9   10  -0.309  -0.004  -0.131
    1UNL    C10   11  -0.330   0.106   0.093
    1UNL     O2   12  -0.445   0.022   0.118
    1UNL     H1   13   0.521  -0.042   0.125
    1UNL     H2   14   0.362  -0.043   0.223
    1UNL     H3   15   0.380  -0.081  -0.078
    1UNL     H4   16   0.193  -0.260   0.053
    1UNL     H5   17   0.032  -0.212   0.083
    1UNL     H6   18   0.079  -0.222  -0.091
    1UNL     H7   19   0.157   0.111   0.152
    1UNL     H8   20   0.192   0.151  -0.076
    1UNL     H9   21   0.200   0.017  -0.180
    1UNL    H10   22  -0.006   0.139  -0.207
    1UNL    H11   23  -0.029  -0.041  -0.174
    1UNL    H12   24  -0.073   0.157   0.062
    1UNL    H13   25  -0.244  -0.090  -0.169
    1UNL    H14   26  -0.315   0.063  -0.212
    1UNL    H15   27  -0.404  -0.049  -0.095
    1UNL    H16   28  -0.275   0.120   0.189
    1UNL    H17   29  -0.370   0.203   0.065
    1UNL    H18   30  -0.501   0.067   0.185
   0.00000   0.00000   0.00000   0.00000   0.00000   0.00000   0.00000   0.00000   0.00000
Generated with MDTraj, t= 83.0
 30
    1UNL     C1    1   0.367  -0.060   0.157
    1UNL     C2    2   0.315  -0.015   0.042
    1UNL     C3    3   0.176  -0.041   0.011
    1UNL     C4    4   0.151  -0.193  -0.018
    1UNL     O1    5   0.092   0.003   0.127
    1UNL     C5    6   0.138   0.055  -0.114
    1UNL     C6    7  -0.008   0.050  -0.148
    1UNL     C7    8  -0.093   0.093  -0.030
    1UNL     C8    9  -0.220   0.051  -0.007
    1UNL     C9   10  -0.303  -0.031  -0.104
    1UNL    C10   11  -0.293   0.081   0.121
    1UNL     O2   12  -0.433   0.067   0.120
    1UNL     H1   13   0.470  -0.044   0.185
    1UNL     H2   14   0.303  -0.100   0.231
    1UNL     H3   15   0.383   0.026  -0.026
    1UNL     H4   16   0.118  -0.252   0.071
    1UNL     H5   17   0.066  -0.215  -0.088
    1UNL     H6   18   0.236  -0.242  -0.066
    1UNL     H7   19   0.131   0.088   0.155
    1UNL     H8   20   0.169   0.154  -0.091
    1UNL     H9   21   0.203   0.028  -0.203
    1UNL    H10   22  -0.026   0.106  -0.246
    1UNL    H11   23  -0.022  -0.057  -0.176
    1UNL    H12   24  -0.059   0.169   0.030
    1UNL    H13   25  -0.275  -0.141  -0.096
    1UNL    H14   26  -0.275  -0.008  -0.207
    1UNL    H15   27  -0.411  -0.029  -0.089
    1UNL    H16   28  -0.256   0.000   0.195
    1UNL    H17   29  -0.267   0.179   0.157
    1UNL    H18   30  -0.478   0.120   0.192
   0.00000   0.00000   0.00000   0.00000   0.00000   0.00000   0.00000   0.00000   0.00000
Generated with MDTraj, t= 84.0
 30
    1UNL     C1    1   0.364  -0.062   0.161
    1UNL     C2    2   0.304   0.010   0.065
    1UNL     C3    3   0.166  -0.038   0.011
    1UNL     C4    4   0.165  -0.181  -0.044
    1UNL     O1    5   0.057  -0.037   0.114
    1UNL     C5    6   0.127   0.064  -0.102
    1UNL     C6    7  -0.009   0.041  -0.152
    1UNL     C7    8  -0.103   0.094  -0.046
    1UNL     C8    9  -0.222   0.042  -0.011
    1UNL     C9   10  -0.281  -0.070  -0.090
    1UNL    C10   11  -0.275   0.073   0.125
    1UNL     O2   12  -0.408   0.128   0.123
    1UNL     H1   13   0.457  -0.038   0.208
    1UNL     H2   14   0.315  -0.147   0.212
    1UNL     H3   15   0.345   0.114   0.044
    1UNL     H4   16   0.212  -0.256   0.023
    1UNL     H5   17   0.069  -0.228  -0.069
    1UNL     H6   18   0.216  -0.172  -0.142
    1UNL     H7   19   0.077   0.045   0.163
    1UNL     H8   20   0.132   0.160  -0.058
    1UNL     H9   21   0.202   0.064  -0.187
    1UNL    H10   22  -0.023   0.105  -0.246
    1UNL    H11   23  -0.017  -0.066  -0.184
    1UNL    H12   24  -0.062   0.180   0.013
    1UNL    H13   25  -0.221  -0.164  -0.080
    1UNL    H14   26  -0.279  -0.056  -0.201
    1UNL    H15   27  -0.378  -0.106  -0.062
    1UNL    H16   28  -0.284  -0.027   0.183
    1UNL    H17   29  -0.207   0.140   0.178
    1UNL    H18   30  -0.460   0.100   0.202
   0.00000   0.00000   0.00000   0.00000   0.00000   0.00000   0.00000   0.00000   0.00000
Generated with MDTraj, t= 85.0
 30
    1UNL     C1    1   0.340  -0.052   0.179
    1UNL     C2    2   0.309  -0.012   0.057
    1UNL     C3    3   0.180  -0.043  -0.007
    1UNL     C4    4   0.191  -0.174  -0.086
    1UNL     O1    5   0.075  -0.068   0.093
    1UNL     C5    6   0.132   0.082  -0.097
    1UNL     C6    7  -0.028   0.069  -0.126
    1UNL     C7    8  -0.118   0.098  -0.012
    1UNL     C8    9  -0.222   0.019   0.017
    1UNL     C9   10  -0.250  -0.112  -0.043
    1UNL    C10   11  -0.317   0.069   0.123
    1UNL     O2   12  -0.407   0.174   0.073
    1UNL     H1   13   0.437  -0.039   0.216
    1UNL     H2   14   0.273  -0.091   0.254
    1UNL     H3   15   0.376   0.047   0.006
    1UNL     H4   16   0.214  -0.253  -0.012
    1UNL     H5   17   0.093  -0.203  -0.123
    1UNL     H6   18   0.262  -0.166  -0.172
    1UNL     H7   19   0.069   0.012   0.150
    1UNL     H8   20   0.164   0.172  -0.053
    1UNL     H9   21   0.185   0.072  -0.197
    1UNL    H10   22  -0.059   0.131  -0.218
    1UNL    H11   23  -0.047  -0.035  -0.155
    1UNL    H12   24  -0.106   0.188   0.046
    1UNL    H13   25  -0.161  -0.175  -0.045
    1UNL    H14   26  -0.292  -0.103  -0.149
    1UNL    H15   27  -0.319  -0.160   0.024
    1UNL    H16   28  -0.380  -0.018   0.172
    1UNL    H17   29  -0.259   0.118   0.204
    1UNL    H18   30  -0.419   0.243   0.139
   0.00000   0.00000   0.00000   0.00000   0.00000   0.00000   0.00000   0.00000   0.00000
Generated with MDTraj, t= 86.0
 30
    1UNL     C1    1   0.343  -0.025   0.175
    1UNL     C2    2   0.313  -0.032   0.049
    1UNL     C3    3   0.172  -0.054  -0.009
    1UNL     C4    4   0.182  -0.151  -0.133
    1UNL     O1    5   0.091  -0.118   0.091
    1UNL     C5    6   0.114   0.084  -0.040
    1UNL     C6    7  -0.030   0.079  -0.120
    1UNL     C7    8  -0.145   0.101  -0.034
    1UNL     C8    9  -0.230   0.017   0.027
    1UNL     C9   10  -0.212  -0.130   0.016
    1UNL    C10   11  -0.337   0.083   0.107
    1UNL     O2   12  -0.388   0.202   0.053
    1UNL     H1   13   0.447  -0.001   0.205
    1UNL     H2   14   0.264  -0.030   0.246
    1UNL     H3   15   0.399  -0.026  -0.022
    1UNL     H4   16   0.218  -0.243  -0.085
    1UNL     H5   17   0.086  -0.178  -0.175
    1UNL     H6   18   0.252  -0.116  -0.212
    1UNL     H7   19   0.074  -0.058   0.167
    1UNL     H8   20   0.108   0.144   0.047
    1UNL     H9   21   0.191   0.129  -0.110
    1UNL    H10   22  -0.040   0.171  -0.188
    1UNL    H11   23  -0.045  -0.011  -0.181
    1UNL    H12   24  -0.148   0.201   0.003
    1UNL    H13   25  -0.116  -0.158   0.051
    1UNL    H14   26  -0.224  -0.164  -0.091
    1UNL    H15   27  -0.287  -0.174   0.086
    1UNL    H16   28  -0.430   0.008   0.109
    1UNL    H17   29  -0.304   0.103   0.211
    1UNL    H18   30  -0.411   0.179  -0.042
   0.00000   0.00000   0.00000   0.00000   0.00000   0.00000   0.00000   0.00000   0.00000
Generated with MDTraj, t= 87.0
 30
    1UNL     C1    1   0.328   0.015   0.169
    1UNL     C2    2   0.325  -0.041   0.052
    1UNL     C3    3   0.186  -0.077  -0.014
    1UNL     C4    4   0.199  -0.146  -0.150
    1UNL     O1    5   0.113  -0.160   0.072
    1UNL     C5    6   0.109   0.056  -0.025
    1UNL     C6    7  -0.030   0.068  -0.107
    1UNL     C7    8  -0.147   0.120  -0.030
    1UNL     C8    9  -0.231   0.034   0.035
    1UNL     C9   10  -0.208  -0.112   0.035
    1UNL    C10   11  -0.354   0.098   0.102
    1UNL     O2   12  -0.418   0.204   0.041
    1UNL     H1   13   0.421   0.036   0.216
    1UNL     H2   14   0.232   0.028   0.217
    1UNL     H3   15   0.406  -0.075  -0.004
    1UNL     H4   16   0.266  -0.233  -0.152
    1UNL     H5   17   0.104  -0.186  -0.189
    1UNL     H6   18   0.247  -0.067  -0.210
    1UNL     H7   19   0.105  -0.125   0.164
    1UNL     H8   20   0.097   0.089   0.076
    1UNL     H9   21   0.179   0.128  -0.075
    1UNL    H10   22  -0.018   0.146  -0.189
    1UNL    H11   23  -0.058  -0.026  -0.158
    1UNL    H12   24  -0.160   0.233  -0.029
    1UNL    H13   25  -0.102  -0.133   0.064
    1UNL    H14   26  -0.216  -0.148  -0.067
    1UNL    H15   27  -0.271  -0.176   0.103
    1UNL    H16   28  -0.437   0.014   0.109
    1UNL    H17   29  -0.333   0.126   0.207
    1UNL    H18   30  -0.402   0.290   0.091
   0.00000   0.00000   0.00000   0.00000   0.00000   0.00000   0.00000   0.00000   0.00000
Generated with MDTraj, t= 88.0
 30
    1UNL     C1    1   0.339   0.030   0.164
    1UNL     C2    2   0.317  -0.049   0.063
    1UNL     C3    3   0.192  -0.065  -0.016
    1UNL     C4    4   0.224  -0.096  -0.164
    1UNL     O1    5   0.126  -0.177   0.046
    1UNL     C5    6   0.101   0.054  -0.014
    1UNL     C6    7  -0.029   0.022  -0.085
    1UNL     C7    8  -0.141   0.092  -0.025
    1UNL     C8    9  -0.249   0.032   0.038
    1UNL     C9   10  -0.256  -0.117   0.053
    1UNL    C10   11  -0.344   0.119   0.108
    1UNL     O2   12  -0.411   0.218   0.024
    1UNL     H1   13   0.427   0.017   0.223
    1UNL     H2   14   0.251   0.072   0.216
    1UNL     H3   15   0.382  -0.126   0.022
    1UNL     H4   16   0.295  -0.176  -0.189
    1UNL     H5   17   0.129  -0.144  -0.197
    1UNL     H6   18   0.251  -0.004  -0.217
    1UNL     H7   19   0.105  -0.154   0.139
    1UNL     H8   20   0.074   0.072   0.090
    1UNL     H9   21   0.148   0.147  -0.051
    1UNL    H10   22  -0.014   0.038  -0.196
    1UNL    H11   23  -0.047  -0.087  -0.082
    1UNL    H12   24  -0.138   0.194  -0.043
    1UNL    H13   25  -0.155  -0.163   0.078
    1UNL    H14   26  -0.296  -0.157  -0.037
    1UNL    H15   27  -0.324  -0.149   0.138
    1UNL    H16   28  -0.426   0.061   0.171
    1UNL    H17   29  -0.288   0.178   0.182
    1UNL    H18   30  -0.349   0.240  -0.049
   0.00000   0.00000   0.00000   0.00000   0.00000   0.00000   0.00000   0.00000   0.00000
Generated with MDTraj, t= 89.0
 30
    1UNL     C1    1   0.321   0.032   0.169
    1UNL     C2    2   0.331  -0.036   0.058
    1UNL     C3    3   0.211  -0.081  -0.029
    1UNL     C4    4   0.255  -0.066  -0.170
    1UNL     O1    5   0.182  -0.218   0.004
    1UNL     C5    6   0.097   0.013  -0.006
    1UNL     C6    7  -0.040  -0.003  -0.053
    1UNL     C7    8  -0.143   0.088  -0.005
    1UNL     C8    9  -0.263   0.054   0.047
    1UNL     C9   10  -0.294  -0.087   0.080
    1UNL    C10   11  -0.348   0.159   0.105
    1UNL     O2   12  -0.443   0.208   0.004
    1UNL     H1   13   0.404   0.051   0.237
    1UNL     H2   14   0.222   0.043   0.203
    1UNL     H3   15   0.420  -0.094   0.031
    1UNL     H4   16   0.308  -0.156  -0.198
    1UNL     H5   17   0.164  -0.075  -0.235
    1UNL     H6   18   0.317   0.023  -0.185
    1UNL     H7   19   0.148  -0.219   0.095
    1UNL     H8   20   0.083   0.021   0.105
    1UNL     H9   21   0.135   0.109  -0.034
    1UNL    H10   22  -0.043   0.003  -0.166
    1UNL    H11   23  -0.053  -0.113  -0.043
    1UNL    H12   24  -0.134   0.197  -0.037
    1UNL    H13   25  -0.252  -0.113   0.181
    1UNL    H14   26  -0.254  -0.148  -0.001
    1UNL    H15   27  -0.404  -0.104   0.082
    1UNL    H16   28  -0.410   0.113   0.192
    1UNL    H17   29  -0.301   0.247   0.151
    1UNL    H18   30  -0.394   0.257  -0.062
   0.00000   0.00000   0.00000   0.00000   0.00000   0.00000   0.00000   0.00000   0.00000
Generated with MDTraj, t= 90.0
 30
    1UNL     C1    1   0.364  -0.005   0.172
    1UNL     C2    2   0.343  -0.030   0.045
    1UNL     C3    3   0.215  -0.074  -0.020
    1UNL     C4    4   0.219  -0.022  -0.166
    1UNL     O1    5   0.200  -0.211  -0.010
    1UNL     C5    6   0.091  -0.009   0.040
    1UNL     C6    7  -0.043  -0.031  -0.035
    1UNL     C7    8  -0.137   0.073  -0.013
    1UNL     C8    9  -0.259   0.060   0.052
    1UNL     C9   10  -0.319  -0.061   0.091
    1UNL    C10   11  -0.342   0.184   0.069
    1UNL     O2   12  -0.458   0.189  -0.011
    1UNL     H1   13   0.455   0.029   0.219
    1UNL     H2   14   0.291  -0.038   0.240
    1UNL     H3   15   0.427  -0.046  -0.015
    1UNL     H4   16   0.303  -0.046  -0.232
    1UNL     H5   17   0.134  -0.072  -0.216
    1UNL     H6   18   0.210   0.087  -0.158
    1UNL     H7   19   0.188  -0.234   0.085
    1UNL     H8   20   0.090  -0.029   0.152
    1UNL     H9   21   0.118   0.093   0.033
    1UNL    H10   22  -0.021  -0.046  -0.143
    1UNL    H11   23  -0.093  -0.126  -0.009
    1UNL    H12   24  -0.113   0.164  -0.057
    1UNL    H13   25  -0.257  -0.128   0.153
    1UNL    H14   26  -0.356  -0.112  -0.004
    1UNL    H15   27  -0.411  -0.044   0.149
    1UNL    H16   28  -0.384   0.195   0.175
    1UNL    H17   29  -0.280   0.269   0.047
    1UNL    H18   30  -0.436   0.181  -0.106
   0.00000   0.00000   0.00000   0.00000   0.00000   0.00000   0.00000   0.00000   0.00000
Generated with MDTraj, t= 91.0
 30
    1UNL     C1    1   0.384  -0.077   0.161
    1UNL     C2    2   0.348  -0.021   0.047
    1UNL     C3    3   0.222  -0.058  -0.028
    1UNL     C4    4   0.226  -0.005  -0.174
    1UNL     O1    5   0.211  -0.201  -0.026
    1UNL     C5    6   0.103   0.018   0.042
    1UNL     C6    7  -0.041  -0.044   0.008
    1UNL     C7    8  -0.137   0.062   0.019
    1UNL     C8    9  -0.269   0.074   0.060
    1UNL     C9   10  -0.345  -0.040   0.118
    1UNL    C10   11  -0.356   0.198   0.027
    1UNL     O2   12  -0.472   0.164  -0.031
    1UNL     H1   13   0.474  -0.059   0.217
    1UNL     H2   14   0.342  -0.176   0.191
    1UNL     H3   15   0.418   0.058   0.008
    1UNL     H4   16   0.313  -0.047  -0.226
    1UNL     H5   17   0.144  -0.048  -0.230
    1UNL     H6   18   0.235   0.104  -0.182
    1UNL     H7   19   0.175  -0.227   0.061
    1UNL     H8   20   0.121   0.004   0.155
    1UNL     H9   21   0.113   0.122   0.029
    1UNL    H10   22  -0.054  -0.083  -0.097
    1UNL    H11   23  -0.053  -0.128   0.080
    1UNL    H12   24  -0.096   0.161  -0.020
    1UNL    H13   25  -0.311  -0.069   0.217
    1UNL    H14   26  -0.336  -0.128   0.043
    1UNL    H15   27  -0.452  -0.018   0.114
    1UNL    H16   28  -0.377   0.243   0.129
    1UNL    H17   29  -0.306   0.266  -0.040
    1UNL    H18   30  -0.453   0.098  -0.105
   0.00000   0.00000   0.00000   0.00000   0.00000   0.00000   0.00000   0.00000   0.00000
Generated with MDTraj, t= 92.0
 30
    1UNL     C1    1   0.420  -0.138   0.113
    1UNL     C2    2   0.355  -0.034   0.064
    1UNL     C3    3   0.218  -0.043  -0.013
    1UNL     C4    4   0.220   0.002  -0.158
    1UNL     O1    5   0.171  -0.185  -0.014
    1UNL     C5    6   0.109   0.041   0.056
    1UNL     C6    7  -0.039  -0.012   0.033
    1UNL     C7    8  -0.136   0.091  -0.001
    1UNL     C8    9  -0.269   0.074   0.043
    1UNL     C9   10  -0.315  -0.042   0.129
    1UNL    C10   11  -0.372   0.182   0.021
    1UNL     O2   12  -0.484   0.138  -0.054
    1UNL     H1   13   0.510  -0.137   0.171
    1UNL     H2   14   0.379  -0.234   0.097
    1UNL     H3   15   0.407   0.055   0.060
    1UNL     H4   16   0.285  -0.064  -0.216
    1UNL     H5   17   0.128  -0.006  -0.211
    1UNL     H6   18   0.263   0.103  -0.172
    1UNL     H7   19   0.157  -0.216   0.078
    1UNL     H8   20   0.130   0.043   0.169
    1UNL     H9   21   0.126   0.143   0.031
    1UNL    H10   22  -0.033  -0.094  -0.044
    1UNL    H11   23  -0.070  -0.055   0.129
    1UNL    H12   24  -0.100   0.186  -0.033
    1UNL    H13   25  -0.320  -0.016   0.235
    1UNL    H14   26  -0.239  -0.123   0.119
    1UNL    H15   27  -0.403  -0.098   0.088
    1UNL    H16   28  -0.410   0.212   0.122
    1UNL    H17   29  -0.324   0.265  -0.031
    1UNL    H18   30  -0.458   0.097  -0.141
   0.00000   0.00000   0.00000   0.00000   0.00000   0.00000   0.00000   0.00000   0.00000
Generated with MDTraj, t= 93.0
 30
    1UNL     C1    1   0.446  -0.129   0.041
    1UNL     C2    2   0.342  -0.052   0.076
    1UNL     C3    3   0.213  -0.054   0.001
    1UNL     C4    4   0.231  -0.031  -0.152
    1UNL     O1    5   0.155  -0.183   0.015
    1UNL     C5    6   0.110   0.062   0.062
    1UNL     C6    7  -0.036   0.017   0.044
    1UNL     C7    8  -0.140   0.120   0.044
    1UNL     C8    9  -0.274   0.087   0.060
    1UNL     C9   10  -0.318  -0.048   0.106
    1UNL    C10   11  -0.376   0.180   0.011
    1UNL     O2   12  -0.475   0.113  -0.077
    1UNL     H1   13   0.536  -0.140   0.104
    1UNL     H2   14   0.449  -0.200  -0.040
    1UNL     H3   15   0.350   0.013   0.166
    1UNL     H4   16   0.285  -0.102  -0.215
    1UNL     H5   17   0.133  -0.034  -0.194
    1UNL     H6   18   0.269   0.068  -0.176
    1UNL     H7   19   0.151  -0.203   0.112
    1UNL     H8   20   0.142   0.101   0.164
    1UNL     H9   21   0.122   0.146  -0.003
    1UNL    H10   22  -0.038  -0.031  -0.057
    1UNL    H11   23  -0.064  -0.054   0.123
    1UNL    H12   24  -0.106   0.224   0.043
    1UNL    H13   25  -0.233  -0.111   0.141
    1UNL    H14   26  -0.351  -0.097   0.016
    1UNL    H15   27  -0.407  -0.062   0.174
    1UNL    H16   28  -0.427   0.232   0.093
    1UNL    H17   29  -0.325   0.254  -0.052
    1UNL    H18   30  -0.430   0.061  -0.145
   0.00000   0.00000   0.00000   0.00000   0.00000   0.00000   0.00000   0.00000   0.00000
Generated with MDTraj, t= 94.0
 30
    1UNL     C1    1   0.459  -0.065   0.017
    1UNL     C2    2   0.338  -0.039   0.073
    1UNL     C3    3   0.201  -0.060   0.007
    1UNL     C4    4   0.211  -0.062  -0.151
    1UNL     O1    5   0.157  -0.197   0.051
    1UNL     C5    6   0.109   0.054   0.052
    1UNL     C6    7  -0.030  -0.002   0.064
    1UNL     C7    8  -0.141   0.088   0.037
    1UNL     C8    9  -0.272   0.067   0.049
    1UNL     C9   10  -0.327  -0.067   0.075
    1UNL    C10   11  -0.366   0.183   0.025
    1UNL     O2   12  -0.465   0.170  -0.078
    1UNL     H1   13   0.550  -0.041   0.064
    1UNL     H2   14   0.457  -0.112  -0.079
    1UNL     H3   15   0.330  -0.031   0.179
    1UNL     H4   16   0.281  -0.143  -0.171
    1UNL     H5   17   0.117  -0.080  -0.203
    1UNL     H6   18   0.258   0.027  -0.191
    1UNL     H7   19   0.151  -0.204   0.149
    1UNL     H8   20   0.143   0.112   0.142
    1UNL     H9   21   0.114   0.136  -0.021
    1UNL    H10   22  -0.041  -0.089  -0.006
    1UNL    H11   23  -0.032  -0.040   0.168
    1UNL    H12   24  -0.111   0.192   0.028
    1UNL    H13   25  -0.241  -0.135   0.104
    1UNL    H14   26  -0.365  -0.103  -0.017
    1UNL    H15   27  -0.411  -0.079   0.149
    1UNL    H16   28  -0.413   0.207   0.118
    1UNL    H17   29  -0.315   0.277  -0.012
    1UNL    H18   30  -0.422   0.130  -0.155
   0.00000   0.00000   0.00000   0.00000   0.00000   0.00000   0.00000   0.00000   0.00000
Generated with MDTraj, t= 95.0
 30
    1UNL     C1    1   0.457  -0.028  -0.011
    1UNL     C2    2   0.341   0.005   0.047
    1UNL     C3    3   0.216  -0.077   0.019
    1UNL     C4    4   0.207  -0.113  -0.137
    1UNL     O1    5   0.217  -0.203   0.098
    1UNL     C5    6   0.091   0.017   0.054
    1UNL     C6    7  -0.059  -0.022   0.022
    1UNL     C7    8  -0.153   0.083   0.055
    1UNL     C8    9  -0.285   0.066   0.053
    1UNL     C9   10  -0.356  -0.059   0.029
    1UNL    C10   11  -0.375   0.189   0.052
    1UNL     O2   12  -0.438   0.206  -0.070
    1UNL     H1   13   0.549   0.024   0.012
    1UNL     H2   14   0.460  -0.131  -0.049
    1UNL     H3   15   0.334   0.087   0.120
    1UNL     H4   16   0.280  -0.189  -0.157
    1UNL     H5   17   0.107  -0.159  -0.145
    1UNL     H6   18   0.219  -0.030  -0.204
    1UNL     H7   19   0.237  -0.182   0.192
    1UNL     H8   20   0.092   0.019   0.162
    1UNL     H9   21   0.109   0.123   0.030
    1UNL    H10   22  -0.061  -0.048  -0.087
    1UNL    H11   23  -0.087  -0.104   0.089
    1UNL    H12   24  -0.114   0.177   0.082
    1UNL    H13   25  -0.322  -0.140   0.099
    1UNL    H14   26  -0.341  -0.092  -0.070
    1UNL    H15   27  -0.467  -0.043   0.040
    1UNL    H16   28  -0.463   0.188   0.112
    1UNL    H17   29  -0.313   0.280   0.073
    1UNL    H18   30  -0.374   0.187  -0.144
   0.00000   0.00000   0.00000   0.00000   0.00000   0.00000   0.00000   0.00000   0.00000
Generated with MDTraj, t= 96.0
 30
    1UNL     C1    1   0.445  -0.034  -0.005
    1UNL     C2    2   0.325   0.020  -0.009
    1UNL     C3    3   0.208  -0.071   0.022
    1UNL     C4    4   0.176  -0.150  -0.105
    1UNL     O1    5   0.240  -0.167   0.125
    1UNL     C5    6   0.084   0.016   0.067
    1UNL     C6    7  -0.054  -0.031   0.028
    1UNL     C7    8  -0.154   0.072   0.033
    1UNL     C8    9  -0.283   0.052   0.022
    1UNL     C9   10  -0.340  -0.075  -0.028
    1UNL    C10   11  -0.381   0.160   0.072
    1UNL     O2   12  -0.412   0.256  -0.030
    1UNL     H1   13   0.528   0.028  -0.034
    1UNL     H2   14   0.459  -0.124   0.047
    1UNL     H3   15   0.308   0.120  -0.050
    1UNL     H4   16   0.259  -0.211  -0.134
    1UNL     H5   17   0.087  -0.214  -0.093
    1UNL     H6   18   0.158  -0.076  -0.180
    1UNL     H7   19   0.262  -0.112   0.204
    1UNL     H8   20   0.093   0.047   0.169
    1UNL     H9   21   0.105   0.114   0.018
    1UNL    H10   22  -0.052  -0.060  -0.080
    1UNL    H11   23  -0.078  -0.117   0.090
    1UNL    H12   24  -0.125   0.163   0.092
    1UNL    H13   25  -0.371  -0.138   0.055
    1UNL    H14   26  -0.279  -0.140  -0.094
    1UNL    H15   27  -0.434  -0.047  -0.081
    1UNL    H16   28  -0.468   0.111   0.102
    1UNL    H17   29  -0.343   0.225   0.155
    1UNL    H18   30  -0.327   0.287  -0.073
   0.00000   0.00000   0.00000   0.00000   0.00000   0.00000   0.00000   0.00000   0.00000
Generated with MDTraj, t= 97.0
 30
    1UNL     C1    1   0.444  -0.044   0.013
    1UNL     C2    2   0.327  -0.001  -0.034
    1UNL     C3    3   0.196  -0.059   0.003
    1UNL     C4    4   0.181  -0.178  -0.088
    1UNL     O1    5   0.210  -0.106   0.139
    1UNL     C5    6   0.077   0.033   0.001
    1UNL     C6    7  -0.047  -0.035   0.052
    1UNL     C7    8  -0.166   0.054   0.070
    1UNL     C8    9  -0.290   0.035   0.030
    1UNL     C9   10  -0.324  -0.068  -0.078
    1UNL    C10   11  -0.402   0.136   0.061
    1UNL     O2   12  -0.362   0.270   0.016
    1UNL     H1   13   0.535   0.003  -0.024
    1UNL     H2   14   0.456  -0.129   0.081
    1UNL     H3   15   0.327   0.078  -0.101
    1UNL     H4   16   0.270  -0.239  -0.079
    1UNL     H5   17   0.093  -0.241  -0.078
    1UNL     H6   18   0.182  -0.145  -0.191
    1UNL     H7   19   0.215  -0.030   0.201
    1UNL     H8   20   0.106   0.120   0.052
    1UNL     H9   21   0.061   0.072  -0.103
    1UNL    H10   22  -0.073  -0.112  -0.025
    1UNL    H11   23  -0.021  -0.088   0.143
    1UNL    H12   24  -0.147   0.123   0.144
    1UNL    H13   25  -0.331  -0.165  -0.033
    1UNL    H14   26  -0.241  -0.085  -0.157
    1UNL    H15   27  -0.418  -0.051  -0.131
    1UNL    H16   28  -0.488   0.114   0.007
    1UNL    H17   29  -0.426   0.130   0.169
    1UNL    H18   30  -0.301   0.308   0.083
   0.00000   0.00000   0.00000   0.00000   0.00000   0.00000   0.00000   0.00000   0.00000
Generated with MDTraj, t= 98.0
 30
    1UNL     C1    1   0.430   0.001  -0.007
    1UNL     C2    2   0.301   0.008  -0.044
    1UNL     C3    3   0.194  -0.075   0.008
    1UNL     C4    4   0.203  -0.213  -0.055
    1UNL     O1    5   0.203  -0.089   0.144
    1UNL     C5    6   0.056  -0.007  -0.020
    1UNL     C6    7  -0.066  -0.056   0.067
    1UNL     C7    8  -0.174   0.045   0.087
    1UNL     C8    9  -0.281   0.045   0.011
    1UNL     C9   10  -0.301  -0.043  -0.113
    1UNL    C10   11  -0.393   0.147   0.030
    1UNL     O2   12  -0.334   0.270   0.075
    1UNL     H1   13   0.495   0.068  -0.055
    1UNL     H2   14   0.481  -0.071   0.056
    1UNL     H3   15   0.275   0.059  -0.143
    1UNL     H4   16   0.299  -0.263  -0.043
    1UNL     H5   17   0.131  -0.277  -0.010
    1UNL     H6   18   0.178  -0.224  -0.160
    1UNL     H7   19   0.199   0.001   0.183
    1UNL     H8   20   0.069   0.093   0.009
    1UNL     H9   21   0.045  -0.007  -0.133
    1UNL    H10   22  -0.099  -0.158   0.036
    1UNL    H11   23  -0.025  -0.069   0.167
    1UNL    H12   24  -0.171   0.115   0.177
    1UNL    H13   25  -0.256  -0.135  -0.083
    1UNL    H14   26  -0.222  -0.017  -0.193
    1UNL    H15   27  -0.401  -0.062  -0.154
    1UNL    H16   28  -0.449   0.159  -0.056
    1UNL    H17   29  -0.464   0.118   0.109
    1UNL    H18   30  -0.293   0.314  -0.001
   0.00000   0.00000   0.00000   0.00000   0.00000   0.00000   0.00000   0.00000   0.00000
Generated with MDTraj, t= 99.0
 30
    1UNL     C1    1   0.394   0.046  -0.041
    1UNL     C2    2   0.277  -0.007  -0.079
    1UNL     C3    3   0.189  -0.079   0.019
    1UNL     C4    4   0.175  -0.225  -0.013
    1UNL     O1    5   0.231  -0.074   0.152
    1UNL     C5    6   0.053  -0.009   0.015
    1UNL     C6    7  -0.076  -0.074   0.064
    1UNL     C7    8  -0.192   0.011   0.089
    1UNL     C8    9  -0.275   0.046  -0.004
    1UNL     C9   10  -0.265  -0.016  -0.142
    1UNL    C10   11  -0.372   0.155   0.017
    1UNL     O2   12  -0.317   0.258   0.094
    1UNL     H1   13   0.463   0.095  -0.111
    1UNL     H2   14   0.429   0.021   0.057
    1UNL     H3   15   0.262  -0.020  -0.179
    1UNL     H4   16   0.273  -0.272  -0.016
    1UNL     H5   17   0.111  -0.278   0.052
    1UNL     H6   18   0.129  -0.237  -0.111
    1UNL     H7   19   0.241   0.018   0.188
    1UNL     H8   20   0.079   0.076   0.070
    1UNL     H9   21   0.041   0.023  -0.092
    1UNL    H10   22  -0.115  -0.143  -0.015
    1UNL    H11   23  -0.058  -0.139   0.148
    1UNL    H12   24  -0.192   0.051   0.185
    1UNL    H13   25  -0.308  -0.116  -0.135
    1UNL    H14   26  -0.160  -0.039  -0.171
    1UNL    H15   27  -0.321   0.038  -0.220
    1UNL    H16   28  -0.414   0.191  -0.070
    1UNL    H17   29  -0.448   0.111   0.082
    1UNL    H18   30  -0.219   0.268   0.081
   0.00000   0.00000   0.00000   0.00000   0.00000   0.00000   0.00000   0.00000   0.00000
