1TPCN02819
9
    1res  C1    1    0.350  -0.076  -0.191
    1res  C2    2    0.242  -0.099   0.063
    1res  C3    3    0.383   0.144   0.076
    1res  C4    4    0.159   0.179  -0.047
    1res  C5    5   -0.042   0.045   0.095
    1res  C6    6   -0.254   0.248  -0.017
    1res  C7    7   -0.328  -0.013  -0.032
    1res  C8    8   -0.339  -0.255   0.101
    1res  C9    9   -0.024  -0.341   0.001
  10.00000  10.00000  10.00000
