1TPCN04500
43
    1res  C1    1   -1.129   0.263   0.382
    1res  C2    2   -0.982   0.252   0.174
    1res  C3    3   -0.810   0.153   0.160
    1res  C4    4   -0.589   0.225   0.100
    1res  C5    5   -0.562  -0.090   0.147
    1res  C6    6   -0.432  -0.083  -0.037
    1res  C7    7   -0.348   0.046  -0.293
    1res  C8    8   -0.596  -0.087  -0.309
    1res  C9    9   -0.554   0.189  -0.414
    1res  C10   10   -0.124  -0.167  -0.416
    1res  C11   11   -0.021   0.101  -0.144
    1res  C12   12    0.110  -0.245  -0.222
    1res  C13   13    0.290   0.043  -0.070
    1res  C14   14    0.425  -0.206  -0.043
    1res  C15   15    0.605  -0.014  -0.081
    1res  C16   16    0.832   0.056  -0.184
    1res  C17   17    0.920   0.078  -0.517
    1res  C18   18    1.130   0.065  -0.255
    1res  C19   19    1.071   0.119  -0.046
    1res  C20   20    1.251   0.302   0.083
    1res  C21   21    1.498   0.403   0.106
    1res  C22   22    1.564   0.191   0.122
    1res  C23   23    1.400   0.047   0.018
    1res  C24   24    0.926  -0.014   0.019
    1res  C25   25    0.803  -0.123   0.276
    1res  C26   26    0.666  -0.104   0.563
    1res  C27   27    0.949  -0.231   0.509
    1res  C28   28    0.995  -0.344   0.278
    1res  C29   29    1.094  -0.128   0.233
    1res  C30   30    0.568  -0.088  -0.342
    1res  C31   31    0.551   0.183  -0.291
    1res  C32   32    0.218  -0.071  -0.420
    1res  C33   33   -0.271  -0.314  -0.217
    1res  C34   34   -0.766  -0.193   0.052
    1res  C35   35   -0.864  -0.044   0.215
    1res  C36   36   -1.037  -0.216   0.320
    1res  C37   37   -1.232  -0.242   0.138
    1res  C38   38   -1.265  -0.259   0.437
    1res  C39   39   -1.114  -0.249   0.625
    1res  C40   40   -0.908  -0.132   0.573
    1res  C41   41   -1.012   0.402  -0.030
    1res  C42   42   -1.232   0.359  -0.031
    1res  C43   43   -1.247   0.435   0.206
  10.00000  10.00000  10.00000
