1TPCN01960
7
    1res  C1    1    0.060  -0.113   0.013
    1res  C2    2    0.262   0.009  -0.032
    1res  C3    3    0.443   0.141   0.051
    1res  C4    4    0.089   0.148   0.167
    1res  C5    5   -0.214  -0.076   0.128
    1res  C6    6   -0.302   0.185   0.017
    1res  C7    7   -0.088  -0.100  -0.207
  10.00000  10.00000  10.00000
