1TPCN06001
27
    1res  C1    1    0.989  -0.024   0.333
    1res  C2    2    0.982   0.152   0.007
    1res  C3    3    0.829  -0.072  -0.098
    1res  C4    4    0.553  -0.101  -0.001
    1res  C5    5    0.632  -0.178  -0.288
    1res  C6    6    0.487  -0.390  -0.163
    1res  C7    7    0.357  -0.138  -0.105
    1res  C8    8    0.333   0.085  -0.084
    1res  C9    9    0.121   0.088  -0.116
    1res  C10   10   -0.124   0.006  -0.044
    1res  C11   11   -0.172   0.225   0.157
    1res  C12   12   -0.305  -0.091   0.304
    1res  C13   13   -0.500   0.146   0.307
    1res  C14   14   -0.533   0.263   0.026
    1res  C15   15   -0.677  -0.067   0.204
    1res  C16   16   -0.838   0.026  -0.016
    1res  C17   17   -1.105  -0.092  -0.011
    1res  C18   18   -0.876  -0.245  -0.124
    1res  C19   19   -0.712  -0.077  -0.360
    1res  C20   20   -0.515  -0.146  -0.037
    1res  C21   21    0.047  -0.098   0.248
    1res  C22   22    0.112   0.172   0.296
    1res  C23   23    0.187   0.213  -0.341
    1res  C24   24    0.394   0.310  -0.342
    1res  C25   25    0.421   0.306  -0.097
    1res  C26   26    1.100  -0.145  -0.116
    1res  C27   27    1.181   0.061  -0.147
  10.00000  10.00000  10.00000
