[ moleculetype ]
; name        nrexcl
res           1

[ atoms ]
;    nr  type  resnr resid  atom  cgnr     charge       mass
      1 SN6       1 res   C1        1      0.000     54.000
      2 TC3       1 res   C2        2      0.000     36.000
      3 TC5       1 res   C3        3      0.000     36.000
      4 TC5       1 res   C4        4      0.000     36.000
      5 SP2       1 res   C5        5      0.000     54.000
      6 TN4a      1 res   C6        6      0.000     36.000
      7 TN6       1 res   C7        7      0.000     36.000
      8 TN4a      1 res   C8        8      0.000     36.000
      9 TP1       1 res   C9        9      0.000     36.000
     10 TN6       1 res   C10      10      0.000     36.000
     11 TN6       1 res   C11      11      0.000     36.000
     12 TN6       1 res   C12      12      0.000     36.000

[ bonds ]
;  ai    aj   funct      b0(nm)          k(kJ/mol/nm^2)
    1     2     1      0.30196          24739.9
    1     3     1      0.31032          24330.3
    2     3     1      0.25578          65708.4
    3     4     1      0.29655         141917.9
    3     6     1      0.23584          83146.9
    4     5     1      0.25607          46088.0
    4     6     1      0.23435          22373.2
    6     7     1      0.19728          42837.8
    7     8     1      0.23087          20717.5
    7    12     1      0.24532          25724.4
    8     9     1      0.21723          62537.8
    8    10     1      0.24053          59901.5
   10    11     1      0.20628          28574.8
   11    12     1      0.23291          25165.3

[ angles ]
;  ai    aj    ak  funct     th0(deg)        k(kJ/mol/rad^2)
    1     2     3     1     66.99766          1629.47
    1     3     2     1     63.62538          1320.33
    1     3     4     1     85.42636           200.59
    1     3     6     1     71.15203           814.24
    2     1     3     1     49.37643          2056.99
    2     3     4     1     90.43895           278.42
    2     3     6     1    121.20071           181.85
    3     4     5     1     97.73348           794.14
    3     4     6     1     51.07565          3359.19
    3     6     4     1     78.26193          1005.78
    3     6     7     1    134.03247           617.97
    4     3     6     1     50.66281          1146.95
    4     6     7     1    137.51392           184.20
    5     4     6     1    143.83053           295.15
    6     7     8     1    143.82683           319.08
    6     7    12     1     87.84194           208.57
    7     8     9     1    139.91876           134.61
    7     8    10     1    110.59541           130.00
    7    12    11     1    103.81765           466.56
    8     7    12     1     97.23071           351.89
    8    10    11     1    100.39008           854.14
    9     8    10     1     75.72403           398.29
   10    11    12     1    109.52818           168.82
