[ moleculetype ]
; name        nrexcl
res           1

[ atoms ]
;    nr  type resnr resid  atom  cgnr     charge       mass
      1 SN4a      1 res   C1        1      0.000     54.000
      2 SN6       1 res   C2        2      0.000     54.000
      3 TC4       1 res   C3        3      0.000     36.000
      4 TN4a      1 res   C4        4      0.000     36.000
      5 TN6       1 res   C5        5      0.000     36.000
      6 SN4a      1 res   C6        6      0.000     54.000
      7 SN4a      1 res   C7        7      0.000     54.000
      8 SC5       1 res   C8        8      0.000     54.000
      9 TC3       1 res   C9        9      0.000     36.000
     10 SC4       1 res   C10      10      0.000     54.000
     11 SC4       1 res   C11      11      0.000     54.000
     12 TC3       1 res   C12      12      0.000     36.000
     13 SC4       1 res   C13      13      0.000     54.000
     14 SC4       1 res   C14      14      0.000     54.000
     15 SN6       1 res   C15      15      0.000     54.000
     16 TN6       1 res   C16      16      0.000     36.000
     17 SN4a      1 res   C17      17      0.000     54.000
     18 TP1       1 res   C18      18      0.000     36.000
     19 TN6       1 res   C19      19      0.000     36.000
     20 TN6       1 res   C20      20      0.000     36.000
     21 SN4a      1 res   C21      21      0.000     54.000
     22 TP1       1 res   C22      22      0.000     36.000
     23 TN6       1 res   C23      23      0.000     36.000
     24 TN6       1 res   C24      24      0.000     36.000
     25 TN6       1 res   C25      25      0.000     36.000
     26 TN6       1 res   C26      26      0.000     36.000
     27 TC4       1 res   C27      27      0.000     36.000
     28 SP2       1 res   C28      28      0.000     54.000
     29 TC3       1 res   C29      29      0.000     36.000
     30 SN6       1 res   C30      30      0.000     54.000
     31 TN6       1 res   C31      31      0.000     36.000
     32 TN6       1 res   C32      32      0.000     36.000
     33 TN6       1 res   C33      33      0.000     36.000

[ bonds ]
;  ai    aj   funct      b0(nm)        k
    1     2     1      0.38508    20000
    2     3     1      0.33669    20000
    2    33     1      0.22713    20000
    3     4     1      0.30524    20000
    4     5     1      0.22018    20000
    4    33     1      0.20717    20000
    5     6     1      0.25020    20000
    5    32     1      0.22790    20000
    6     7     1      0.31041    20000
    6    31     1      0.26627    20000
    7     8     1      0.31126    20000
    8     9     1      0.29135    20000
    8    10     1      0.27475    20000
    8    11     1      0.27435    20000
    8    30     1      0.37873    20000
    9    10     1      0.31019    20000
   11    12     1      0.39652    20000
   11    13     1      0.32175    20000
   11    30     1      0.33589    20000
   12    13     1      0.38629    20000
   13    14     1      0.38559    20000
   13    29     1      0.31972    20000
   14    15     1      0.33325    20000
   14    27     1      0.41622    20000
   14    29     1      0.37526    20000
   15    16     1      0.24803    20000
   16    17     1      0.27086    20000
   16    27     1      0.26958    20000
   17    18     1      0.31659    20000
   17    19     1      0.24538    20000
   17    26     1      0.31214    20000
   19    20     1      0.25207    20000
   20    21     1      0.27485    20000
   20    26     1      0.22091    20000
   21    22     1      0.29684    20000
   21    23     1      0.27431    20000
   21    25     1      0.26234    20000
   23    24     1      0.21274    20000
   24    25     1      0.21014    20000
   27    28     1      0.29558    20000
   31    32     1      0.24639    20000
