[ moleculetype ]
; name        nrexcl
res           1

[ atoms ]
;    nr  type  resnr resid  atom  cgnr     charge       mass
      1 TC3       1 res   C1        1      0.000     36.000
      2 TC3       1 res   C2        2      0.000     36.000
      3 TN6d      1 res   C3        3      0.000     36.000
      4 TC3       1 res   C4        4      0.000     36.000
      5 TC5       1 res   C5        5      0.000     36.000
      6 TC5       1 res   C6        6      0.000     36.000
      7 TC5       1 res   C7        7      0.000     36.000
      8 TC5       1 res   C8        8      0.000     36.000
      9 TN6d      1 res   C9        9      0.000     36.000
     10 TN2a      1 res   C10      10      0.000     36.000
     11 SC3       1 res   C11      11      0.000     54.000
     12 TN4a      1 res   C12      12      0.000     36.000
     13 N4a       1 res   C13      13      0.000     72.000

[ constraints ]
;  ai    aj   funct      b0(nm)
    1     2     1      0.26092
    5    11     1      0.26969
    3     5     1      0.22906
    2     3     1      0.26732
   11    12     1      0.35244
    4     5     1      0.22137
    6     9     1      0.21813
    5    10     1      0.18223
    3    11     1      0.25400
    6     8     1      0.24880
    3     4     1      0.29986
    7     8     1      0.28943
    5     6     1      0.19120
    4    10     1      0.21397
    6     7     1      0.24855
    2    11     1      0.29740
    5     9     1      0.22227
   11    13     1      0.39432

[ bonds ]
;  ai    aj   funct      b0(nm)          k(kJ/mol/nm^2)

[ angles ]
;  ai    aj    ak  funct     th0(deg)        k(kJ/mol/rad^2)
    1     2     3     1    149.26775           785.50
    1     2    11     1     98.43207          1118.67
    2     3     4     1     63.97881          1269.16
    2     3     5     1     94.93702          1484.40
    2     3    11     1     69.50664          3295.64
    2    11     3     1     57.35253          4072.29
    2    11     5     1     80.39674          2403.06
    2    11    12     1     82.39462           472.83
    2    11    13     1    141.08696           535.69
    3     2    11     1     53.14085          4323.71
    3     4     5     1     49.36687          4687.89
    3     4    10     1     48.48324          3524.47
    3     5     4     1     83.46786          2618.91
    3     5     6     1    151.11561          1168.90
    3     5     9     1     88.34374          1080.47
    3     5    10     1     65.20960          1977.30
    3     5    11     1     60.58891          2963.90
    3    11     5     1     51.75542          7447.69
    3    11    12     1    110.49211          1377.56
    3    11    13     1    121.48125           306.90
    4     3     5     1     47.16525          8331.64
    4     3    11     1     90.04067          2756.50
    4     5     6     1    117.16031           915.10
    4     5     9     1    139.70305           126.73
    4     5    10     1     63.15516          2747.87
    4     5    11     1    105.96774          1401.60
    4    10     5     1     67.39426          2948.48
    5     3    11     1     67.65567          3068.18
    5     4    10     1     49.45056          4652.94
    5     6     7     1    126.73566          1743.30
    5     6     8     1    160.31279          1198.52
    5     6     9     1     65.38817          2203.08
    5     9     6     1     51.46615          3291.85
    5    11    12     1     69.15068          2523.44
    5    11    13     1     75.06752           538.29
    6     5     9     1     63.14588          3636.00
    6     5    10     1    104.75945          1093.23
    6     5    11     1    124.55085          1032.41
    6     7     8     1     54.45284          6602.04
    6     8     7     1     54.36751          7607.61
    7     6     8     1     71.17967          4275.12
    7     6     9     1    164.27912           573.77
    8     6     9     1     96.16973           968.59
    9     5    10     1     77.74871           145.10
    9     5    11     1    103.76257           154.79
   10     5    11     1    125.59094          1165.69
   12    11    13     1     61.42449          1063.14

[ dihedrals ]
;  ai    aj    ak    al  funct   phi0(deg)        k(kJ/mol)   mult
    1     2     3     4     1    -91.10660       25.182      1
    1     2     3     5     1   -125.96223       27.102      1
    1     2     3    11     1    170.73251       27.199      1
    1     2    11     3     1     -4.36280       17.695      1
    1     2    11     5     1    -54.27969       16.381      1
    1     2    11    12     1   -124.11782       16.390      1
    1     2    11    13     1   -107.46536       19.007      1
    2     3     4     5     1     54.01775        6.247      1
    2     3     4    10     1    -14.87751        6.994      1
    2     3     5     4     1   -133.93296        6.261      1
    2     3     5     6     1      4.79590       11.450      1
    2     3     5     9     1      9.94862       15.024      1
    2     3     5    10     1    -69.95272        6.306      1
    2     3     5    11     1    114.97714        4.029      1
    2     3    11     5     1    -73.85233        6.283      1
    2     3    11    12     1   -114.00043        9.288      1
    2     3    11    13     1    -47.98126       10.725      1
    2    11     3     4     1    117.06090        6.976      1
    2    11     3     5     1     73.85233        6.283      1
    2    11     5     3     1   -124.98937        5.482      1
    2    11     5     4     1    163.89856        6.268      1
    2    11     5     6     1     22.18761        7.800      1
    2    11     5     9     1    -42.25234       10.720      1
    2    11     5    10     1   -130.09345        7.772      1
    3     2    11     5     1    130.91574        3.988      1
    3     2    11    12     1     59.97689        6.231      1
    3     2    11    13     1     80.98858       14.377      1
    3     4     5     6     1     20.98910        6.986      1
    3     4     5     9     1    102.88938       10.033      1
    3     4     5    10     1    114.98742        5.479      1
    3     4     5    11     1   -123.01315        4.003      1
    3     4    10     5     1   -112.03681        4.701      1
    3     5     4    10     1   -114.98742        5.479      1
    3     5     6     7     1      8.14347       15.080      1
    3     5     6     8     1    174.51183       22.607      1
    3     5     6     9     1   -174.20943       16.397      1
    3     5     9     6     1      1.97657        9.275      1
    3     5    10     4     1     84.94946        5.481      1
    3     5    11    12     1    -38.98331        8.519      1
    3     5    11    13     1     25.85321       10.740      1
    3    11     5     4     1    107.92639        4.758      1
    3    11     5     6     1    -33.78259        7.735      1
    3    11     5     9     1    -99.81205        9.304      1
    3    11     5    10     1    174.83698        7.021      1
    4     3     2    11     1    -79.04099        5.507      1
    4     3     5     6     1    -42.07591       12.186      1
    4     3     5     9     1    -35.14761       14.283      1
    4     3     5    10     1   -116.98120        4.027      1
    4     3     5    11     1     67.04632        5.514      1
    4     3    11     5     1   -137.94171        3.219      1
    4     3    11    12     1   -176.01937        7.838      1
    4     3    11    13     1   -110.95045        9.985      1
    4     5     3    11     1    -67.04632        5.514      1
    4     5     6     7     1    139.77010       13.636      1
    4     5     6     8     1    -54.99437       24.591      1
    4     5     6     9     1    -39.36138       15.670      1
    4     5     9     6     1     80.02135        9.287      1
    4     5    11    12     1   -110.11485        7.786      1
    4     5    11    13     1    -46.96313       10.023      1
    4    10     5     6     1    -66.93791        7.032      1
    4    10     5     9     1     -9.92825        9.279      1
    4    10     5    11     1     89.93421        7.722      1
    5     3     2    11     1   -116.03475        4.747      1
    5     3     4    10     1    112.01516        4.758      1
    5     3    11    12     1    141.01262        7.080      1
    5     3    11    13     1   -152.22508        9.245      1
    5     4     3    11     1    121.93627        4.764      1
    5     6     7     8     1     -5.85899       15.004      1
    5     6     8     7     1      8.59021       23.838      1
    5     9     6     7     1     -8.51980       27.278      1
    5     9     6     8     1     -3.01446       12.908      1
    6     5     3    11     1     69.14796       11.481      1
    6     5     4    10     1     85.60048        6.303      1
    6     5    11    12     1    109.12069        8.557      1
    6     5    11    13     1    174.30122       10.747      1
    6     9     5    10     1     66.82304       10.020      1
    6     9     5    11     1    -56.05855        7.798      1
    7     6     5     9     1      2.57467       17.044      1
    7     6     5    10     1     72.03183       14.996      1
    7     6     5    11     1    -81.73778       15.019      1
    7     8     6     9     1      0.01346       15.058      1
    8     6     5     9     1    172.78144       25.585      1
    8     6     5    10     1   -125.09259       22.565      1
    8     6     5    11     1     82.56469       24.109      1
    8     7     6     9     1   -179.08861       28.204      1
    9     5     3    11     1     75.34296       14.222      1
    9     5     4    10     1    168.86297       11.465      1
    9     5    11    12     1     43.83754       10.794      1
    9     5    11    13     1    107.17449       12.870      1
    9     6     5    10     1   -109.33409       13.530      1
    9     6     5    11     1     93.94221       15.054      1
   10     4     3    11     1     54.01684        6.266      1
   10     4     5    11     1    -59.83765        6.265      1
   10     5     3    11     1     -4.23936        6.262      1
   10     5    11    12     1    -43.01617        8.512      1
   10     5    11    13     1     22.08736        9.287      1
