[ moleculetype ]
; name        nrexcl
res           1

[ atoms ]
;    nr  type  resnr resid  atom  cgnr     charge       mass
      1 TC3       1 res   C1        1      0.000     36.000
      2 TC3       1 res   C2        2      0.000     36.000
      3 TN6d      1 res   C3        3      0.000     36.000
      4 TC3       1 res   C4        4      0.000     36.000
      5 TC5       1 res   C5        5      0.000     36.000
      6 TC5       1 res   C6        6      0.000     36.000
      7 TC5       1 res   C7        7      0.000     36.000
      8 TC5       1 res   C8        8      0.000     36.000
      9 TN6d      1 res   C9        9      0.000     36.000
     10 TN2a      1 res   C10      10      0.000     36.000
     11 SC3       1 res   C11      11      0.000     54.000
     12 TN4a      1 res   C12      12      0.000     36.000
     13 N4a       1 res   C13      13      0.000     72.000

[ constraints ]
;  ai    aj   funct      b0(nm)
    1     2     1      0.26249
    5    11     1      0.26989
    3     5     1      0.22891
    2     3     1      0.26646
   11    12     1      0.35283
    4     5     1      0.22071
    6     9     1      0.21796
    5    10     1      0.18241
    3    11     1      0.25272
    6     8     1      0.24912
    3     4     1      0.30095
    7     8     1      0.28995
    5     6     1      0.19080
    4    10     1      0.21362
    6     7     1      0.24847
    2    11     1      0.29740
    5     9     1      0.22252

[ bonds ]
;  ai    aj   funct      b0(nm)          k(kJ/mol/nm^2)
   11    13     1      0.39021          17792.8

[ angles ]
;  ai    aj    ak  funct     th0(deg)        k(kJ/mol/rad^2)
    1     2     3     1    149.27013           700.04
    1     2    11     1     98.68281           999.63
    2     3     4     1     63.95418          1697.91
    2     3     5     1     94.84061          1778.31
    2     3    11     1     69.82933          4574.95
    2    11     3     1     57.25304          4576.24
    2    11     5     1     80.09511          2879.71
    2    11    12     1     82.67095           397.23
    2    11    13     1    141.67379           342.10
    3     2    11     1     52.91764          4963.81
    3     4     5     1     49.15104          6489.07
    3     4    10     1     48.50326          4157.63
    3     5     4     1     84.01794          3911.65
    3     5     6     1    150.97998          1330.56
    3     5     9     1     88.21157          1140.66
    3     5    10     1     65.48196          3251.33
    3     5    11     1     60.22112          4766.69
    3    11     5     1     51.82149          6918.04
    3    11    12     1    110.59824           997.66
    3    11    13     1    121.96276           252.61
    4     3     5     1     46.83101          8916.10
    4     3    11     1     90.24842          2317.13
    4     5     6     1    116.70186           890.69
    4     5     9     1    137.62828           190.57
    4     5    10     1     63.15622          4448.28
    4     5    11     1    106.37034          1439.06
    4    10     5     1     67.21584          3960.22
    5     3    11     1     67.95737          3920.16
    5     4    10     1     49.62788          7348.84
    5     6     7     1    126.93217          1538.78
    5     6     8     1    159.82565          1118.63
    5     6     9     1     65.57069          3541.93
    5     9     6     1     51.33203          5110.52
    5    11    12     1     68.86990          2362.17
    5    11    13     1     75.88262           396.68
    6     5     9     1     63.09728          5223.54
    6     5    10     1    104.49365           979.60
    6     5    11     1    124.81568           744.53
    6     7     8     1     54.46258         10779.59
    6     8     7     1     54.25122         13764.40
    7     6     8     1     71.28622          5944.15
    7     6     9     1    163.52858           620.63
    8     6     9     1     95.41713           989.44
    9     5    10     1     75.85414           215.41
    9     5    11     1    105.34501           238.29
   10     5    11     1    125.50764          2330.35
   12    11    13     1     61.72838          1124.42

[ dihedrals ]
;  ai    aj    ak    al  funct   phi0(deg)        k(kJ/mol)   mult
    1     2     3     4     1    -93.46913       27.303      1
    1     2     3     5     1   -129.11518       27.297      1
    1     2     3    11     1    164.29806       24.340      1
    1     2    11     3     1     -6.87908       17.173      1
    1     2    11     5     1    -57.20586       17.117      1
    1     2    11    12     1   -126.76297       17.092      1
    1     2    11    13     1   -109.41055       18.380      1
    2     3     4     5     1     54.00438        4.791      1
    2     3     4    10     1    -12.13537        6.271      1
    2     3     5     4     1   -133.92643        4.775      1
    2     3     5     6     1      4.77595       12.884      1
    2     3     5     9     1      7.96911        9.971      1
    2     3     5    10     1    -70.00453        4.811      1
    2     3     5    11     1    114.92367        3.986      1
    2     3    11     5     1    -75.98853        6.263      1
    2     3    11    12     1   -113.06842        8.573      1
    2     3    11    13     1    -46.16418       12.199      1
    2    11     3     4     1    118.91500        5.528      1
    2    11     3     5     1     75.98853        6.263      1
    2    11     5     3     1   -124.94000        5.495      1
    2    11     5     4     1    162.99811        5.563      1
    2    11     5     6     1     22.37539        7.777      1
    2    11     5     9     1    -42.17565        9.273      1
    2    11     5    10     1   -129.89403        7.770      1
    3     2    11     5     1    129.03539        3.941      1
    3     2    11    12     1     59.03059        5.470      1
    3     2    11    13     1     79.85023       17.790      1
    3     4     5     6     1     21.95196        6.247      1
    3     4     5     9     1    102.93249        9.217      1
    3     4     5    10     1    114.07238        4.740      1
    3     4     5    11     1   -124.88854        3.958      1
    3     4    10     5     1   -113.02462        3.986      1
    3     5     4    10     1   -114.07238        4.740      1
    3     5     6     7     1      4.13484       16.421      1
    3     5     6     8     1    173.68521       24.079      1
    3     5     6     9     1   -177.59657       14.958      1
    3     5     9     6     1      1.27160        8.533      1
    3     5    10     4     1     84.03463        4.752      1
    3     5    11    12     1    -38.98546        8.559      1
    3     5    11    13     1     26.97387       11.500      1
    3    11     5     4     1    107.00125        4.018      1
    3    11     5     6     1    -32.12040        6.295      1
    3    11     5     9     1    -98.01765        9.209      1
    3    11     5    10     1    175.03753        5.564      1
    4     3     2    11     1    -79.00508        5.534      1
    4     3     5     6     1    -43.06127       11.468      1
    4     3     5     9     1    -37.05685       10.683      1
    4     3     5    10     1   -116.98393        4.004      1
    4     3     5    11     1     66.98793        5.522      1
    4     3    11     5     1   -137.98209        3.235      1
    4     3    11    12     1   -176.91882        8.548      1
    4     3    11    13     1   -107.16994       11.509      1
    4     5     3    11     1    -66.98793        5.522      1
    4     5     6     7     1    138.96460       14.260      1
    4     5     6     8     1    -55.98951       23.159      1
    4     5     6     9     1    -41.75478       12.080      1
    4     5     9     6     1     78.78212        9.250      1
    4     5    11    12     1   -112.91313        7.085      1
    4     5    11    13     1    -46.83036       11.441      1
    4    10     5     6     1    -66.98650        7.012      1
    4    10     5     9     1     -8.16446        9.252      1
    4    10     5    11     1     87.09730        7.024      1
    5     3     2    11     1   -115.03981        4.025      1
    5     3     4    10     1    111.06091        5.494      1
    5     3    11    12     1    141.95521        7.797      1
    5     3    11    13     1   -149.99803       12.154      1
    5     4     3    11     1    121.94130        4.758      1
    5     6     7     8     1     -6.05633       14.941      1
    5     6     8     7     1      8.42730       22.393      1
    5     9     6     7     1    -14.56426       22.434      1
    5     9     6     8     1     -5.23179       12.838      1
    6     5     3    11     1     70.05991       13.587      1
    6     5     4    10     1     86.03740        6.292      1
    6     5    11    12     1    110.00403        9.297      1
    6     5    11    13     1    175.17937       12.862      1
    6     9     5    10     1     66.88944       10.019      1
    6     9     5    11     1    -57.08013        9.944      1
    7     6     5     9     1      2.03279       16.865      1
    7     6     5    10     1     72.76030       12.903      1
    7     6     5    11     1    -86.15969       14.957      1
    7     8     6     9     1      3.82847       12.830      1
    8     6     5     9     1    170.84219       24.719      1
    8     6     5    10     1   -122.21696       24.461      1
    8     6     5    11     1     85.26372       25.744      1
    8     7     6     9     1   -168.02486       24.759      1
    9     5     3    11     1     75.54823       12.740      1
    9     5     4    10     1    168.35468       10.670      1
    9     5    11    12     1     43.93237       10.741      1
    9     5    11    13     1    106.03354       12.207      1
    9     6     5    10     1   -107.87319       11.369      1
    9     6     5    11     1     94.56209       13.479      1
   10     4     3    11     1     53.96043        6.282      1
   10     4     5    11     1    -57.99906        4.783      1
   10     5     3    11     1     -4.01422        4.819      1
   10     5    11    12     1    -42.99917        7.075      1
   10     5    11    13     1     23.07932       10.041      1
