[ moleculetype ]
; name        nrexcl
res           1

[ atoms ]
;    nr  type resnr resid  atom  cgnr     charge       mass
      1 SC1       1 res   C1        1      0.000     54.000
      2 SN3r      1 res   C2        2      0.000     54.000
      3 SN4a      1 res   C3        3      0.000     54.000
      4 TP1       1 res   C4        4      0.000     36.000
      5 TN6       1 res   C5        5      0.000     36.000
      6 TN6       1 res   C6        6      0.000     36.000
      7 TN6       1 res   C7        7      0.000     36.000
      8 SC5       1 res   C8        8      0.000     54.000
      9 SP2       1 res   C9        9      0.000     54.000
     10 SC4       1 res   C10      10      0.000     54.000
     11 TC3       1 res   C11      11      0.000     36.000
     12 SC4       1 res   C12      12      0.000     54.000
     13 SC4       1 res   C13      13      0.000     54.000
     14 TC3       1 res   C14      14      0.000     36.000
     15 TN6       1 res   C15      15      0.000     36.000
     16 SN4a      1 res   C16      16      0.000     54.000
     17 TP1       1 res   C17      17      0.000     36.000
     18 TN6       1 res   C18      18      0.000     36.000
     19 TN6       1 res   C19      19      0.000     36.000
     20 TN6       1 res   C20      20      0.000     36.000
     21 SN4a      1 res   C21      21      0.000     54.000
     22 TP1       1 res   C22      22      0.000     36.000
     23 TN6       1 res   C23      23      0.000     36.000
     24 TN6       1 res   C24      24      0.000     36.000
     25 TN6       1 res   C25      25      0.000     36.000
     26 SC4       1 res   C26      26      0.000     54.000
     27 TC3       1 res   C27      27      0.000     36.000

[ bonds ]
;  ai    aj   funct      b0(nm)        k
    1     2     1      0.27506    20000
    1     8     1      0.37789    20000
    2     3     1      0.35640    20000
    3     4     1      0.30434    20000
    3     5     1      0.28714    20000
    3     7     1      0.29040    20000
    5     6     1      0.24295    20000
    6     7     1      0.24517    20000
    8     9     1      0.33567    20000
    8    10     1      0.28522    20000
   10    11     1      0.31446    20000
   10    12     1      0.27357    20000
   11    12     1      0.38204    20000
   12    13     1      0.38317    20000
   12    27     1      0.31770    20000
   13    14     1      0.28444    20000
   13    26     1      0.38513    20000
   13    27     1      0.37625    20000
   14    15     1      0.26362    20000
   15    16     1      0.22880    20000
   15    26     1      0.24311    20000
   16    17     1      0.29491    20000
   16    18     1      0.30913    20000
   16    20     1      0.25827    20000
   18    19     1      0.22803    20000
   19    20     1      0.24149    20000
   20    21     1      0.28302    20000
   21    22     1      0.28785    20000
   21    23     1      0.28457    20000
   21    25     1      0.21630    20000
   23    24     1      0.24174    20000
   24    25     1      0.25514    20000
