1TPCN04958
27
    1res  C1    1    0.602  -0.147   0.220
    1res  C2    2    0.801  -0.095   0.036
    1res  C3    3    0.997  -0.008  -0.248
    1res  C4    4    1.062   0.246  -0.093
    1res  C5    5    1.236  -0.021  -0.089
    1res  C6    6    1.250  -0.151  -0.294
    1res  C7    7    1.057  -0.292  -0.238
    1res  C8    8    0.334   0.119   0.229
    1res  C9    9    0.307  -0.049   0.518
    1res  C10   10    0.323   0.131  -0.056
    1res  C11   11    0.149  -0.130  -0.076
    1res  C12   12    0.074   0.244  -0.059
    1res  C13   13   -0.161  -0.044  -0.151
    1res  C14   14   -0.265   0.220  -0.149
    1res  C15   15   -0.450   0.053  -0.061
    1res  C16   16   -0.631   0.145  -0.167
    1res  C17   17   -0.637   0.347  -0.382
    1res  C18   18   -0.860   0.348  -0.123
    1res  C19   19   -0.938   0.137  -0.162
    1res  C20   20   -0.792   0.025  -0.006
    1res  C21   21   -0.889  -0.195   0.144
    1res  C22   22   -1.166  -0.149   0.208
    1res  C23   23   -1.072  -0.289  -0.053
    1res  C24   24   -0.879  -0.430  -0.089
    1res  C25   25   -0.727  -0.326   0.088
    1res  C26   26   -0.363   0.041   0.166
    1res  C27   27   -0.028   0.066   0.183
  10.00000  10.00000  10.00000
