Generated with MDTraj, t= 0.0
 52
    1UNL     C1    1  -0.208  -0.281   0.037
    1UNL     C2    2  -0.269  -0.171   0.116
    1UNL     C3    3  -0.401  -0.197   0.178
    1UNL     C4    4  -0.209  -0.051   0.129
    1UNL     C5    5  -0.279   0.067   0.190
    1UNL     C6    6  -0.306   0.173   0.082
    1UNL     C7    7  -0.175   0.216   0.011
    1UNL     C8    8  -0.204   0.318  -0.099
    1UNL     O1    9  -0.085   0.274   0.107
    1UNL     C9   10  -0.105   0.088  -0.050
    1UNL     O2   11  -0.182   0.027  -0.153
    1UNL    C10   12  -0.077  -0.015   0.063
    1UNL     O3   13  -0.001  -0.128   0.021
    1UNL    C11   14   0.109  -0.092  -0.060
    1UNL     O4   15   0.173   0.029  -0.014
    1UNL    C12   16   0.303   0.052  -0.071
    1UNL    C13   17   0.350   0.194  -0.039
    1UNL     O5   18   0.482   0.217  -0.081
    1UNL    C14   19   0.405  -0.056  -0.019
    1UNL     O6   20   0.486  -0.006   0.085
    1UNL    C15   21   0.328  -0.182   0.030
    1UNL     O7   22   0.279  -0.159   0.160
    1UNL    C16   23   0.210  -0.212  -0.065
    1UNL     O8   24   0.147  -0.332  -0.027
    1UNL     H1   25  -0.282  -0.353   0.004
    1UNL     H2   26  -0.159  -0.241  -0.053
    1UNL     H3   27  -0.132  -0.333   0.096
    1UNL     H4   28  -0.399  -0.178   0.286
    1UNL     H5   29  -0.431  -0.301   0.165
    1UNL     H6   30  -0.479  -0.135   0.134
    1UNL     H7   31  -0.371   0.038   0.241
    1UNL     H8   32  -0.214   0.110   0.268
    1UNL     H9   33  -0.375   0.133   0.008
    1UNL    H10   34  -0.355   0.261   0.125
    1UNL    H11   35  -0.274   0.278  -0.173
    1UNL    H12   36  -0.112   0.346  -0.150
    1UNL    H13   37  -0.248   0.408  -0.057
    1UNL    H14   38  -0.125   0.354   0.145
    1UNL    H15   39  -0.009   0.120  -0.093
    1UNL    H16   40  -0.189   0.087  -0.231
    1UNL    H17   41  -0.014   0.034   0.139
    1UNL    H18   42   0.069  -0.072  -0.160
    1UNL    H19   43   0.291   0.041  -0.180
    1UNL    H20   44   0.286   0.268  -0.088
    1UNL    H21   45   0.344   0.212   0.069
    1UNL    H22   46   0.541   0.152  -0.037
    1UNL    H23   47   0.474  -0.083  -0.101
    1UNL    H24   48   0.436  -0.015   0.169
    1UNL    H25   49   0.395  -0.269   0.038
    1UNL    H26   50   0.208  -0.092   0.153
    1UNL    H27   51   0.248  -0.227  -0.168
    1UNL    H28   52   0.104  -0.315   0.059
   0.00000   0.00000   0.00000   0.00000   0.00000   0.00000   0.00000   0.00000   0.00000
Generated with MDTraj, t= 1.0
 52
    1UNL     C1    1  -0.225  -0.272   0.035
    1UNL     C2    2  -0.275  -0.162   0.116
    1UNL     C3    3  -0.429  -0.172   0.157
    1UNL     C4    4  -0.202  -0.053   0.141
    1UNL     C5    5  -0.265   0.064   0.207
    1UNL     C6    6  -0.298   0.174   0.113
    1UNL     C7    7  -0.185   0.213   0.007
    1UNL     C8    8  -0.254   0.283  -0.118
    1UNL     O1    9  -0.088   0.306   0.062
    1UNL     C9   10  -0.106   0.084  -0.038
    1UNL     O2   11  -0.167   0.019  -0.151
    1UNL    C10   12  -0.076  -0.025   0.068
    1UNL     O3   13   0.009  -0.139   0.028
    1UNL    C11   14   0.121  -0.088  -0.052
    1UNL     O4   15   0.185   0.032   0.010
    1UNL    C12   16   0.311   0.054  -0.055
    1UNL    C13   17   0.358   0.199  -0.020
    1UNL     O5   18   0.483   0.227  -0.087
    1UNL    C14   19   0.409  -0.060  -0.024
    1UNL     O6   20   0.493  -0.019   0.088
    1UNL    C15   21   0.332  -0.188   0.027
    1UNL     O7   22   0.272  -0.172   0.150
    1UNL    C16   23   0.216  -0.208  -0.077
    1UNL     O8   24   0.163  -0.331  -0.044
    1UNL     H1   25  -0.318  -0.311  -0.001
    1UNL     H2   26  -0.164  -0.233  -0.057
    1UNL     H3   27  -0.165  -0.343   0.086
    1UNL     H4   28  -0.440  -0.283   0.154
    1UNL     H5   29  -0.501  -0.101   0.115
    1UNL     H6   30  -0.444  -0.154   0.260
    1UNL     H7   31  -0.351   0.044   0.273
    1UNL     H8   32  -0.190   0.102   0.278
    1UNL     H9   33  -0.385   0.159   0.051
    1UNL    H10   34  -0.323   0.266   0.164
    1UNL    H11   35  -0.176   0.305  -0.184
    1UNL    H12   36  -0.292   0.381  -0.079
    1UNL    H13   37  -0.334   0.217  -0.153
    1UNL    H14   38  -0.119   0.392   0.089
    1UNL    H15   39  -0.007   0.124  -0.067
    1UNL    H16   40  -0.261   0.052  -0.152
    1UNL    H17   41  -0.010   0.017   0.146
    1UNL    H18   42   0.076  -0.065  -0.147
    1UNL    H19   43   0.279   0.038  -0.156
    1UNL    H20   44   0.282   0.271  -0.045
    1UNL    H21   45   0.357   0.196   0.088
    1UNL    H22   46   0.504   0.166  -0.159
    1UNL    H23   47   0.473  -0.077  -0.113
    1UNL    H24   48   0.447   0.002   0.174
    1UNL    H25   49   0.393  -0.278   0.033
    1UNL    H26   50   0.244  -0.077   0.152
    1UNL    H27   51   0.250  -0.215  -0.179
    1UNL    H28   52   0.118  -0.305   0.043
   0.00000   0.00000   0.00000   0.00000   0.00000   0.00000   0.00000   0.00000   0.00000
Generated with MDTraj, t= 2.0
 52
    1UNL     C1    1  -0.200  -0.258   0.044
    1UNL     C2    2  -0.264  -0.162   0.128
    1UNL     C3    3  -0.404  -0.161   0.172
    1UNL     C4    4  -0.192  -0.047   0.145
    1UNL     C5    5  -0.256   0.085   0.206
    1UNL     C6    6  -0.313   0.161   0.090
    1UNL     C7    7  -0.192   0.214  -0.002
    1UNL     C8    8  -0.249   0.285  -0.122
    1UNL     O1    9  -0.115   0.308   0.071
    1UNL     C9   10  -0.104   0.089  -0.047
    1UNL     O2   11  -0.188   0.013  -0.144
    1UNL    C10   12  -0.064  -0.007   0.065
    1UNL     O3   13   0.010  -0.121   0.009
    1UNL    C11   14   0.122  -0.088  -0.065
    1UNL     O4   15   0.181   0.025  -0.005
    1UNL    C12   16   0.308   0.050  -0.061
    1UNL    C13   17   0.359   0.193  -0.009
    1UNL     O5   18   0.469   0.241  -0.083
    1UNL    C14   19   0.407  -0.065  -0.013
    1UNL     O6   20   0.481  -0.026   0.103
    1UNL    C15   21   0.339  -0.201   0.027
    1UNL     O7   22   0.295  -0.209   0.161
    1UNL    C16   23   0.217  -0.217  -0.079
    1UNL     O8   24   0.143  -0.329  -0.048
    1UNL     H1   25  -0.272  -0.334   0.015
    1UNL     H2   26  -0.168  -0.210  -0.054
    1UNL     H3   27  -0.116  -0.303   0.090
    1UNL     H4   28  -0.465  -0.141   0.078
    1UNL     H5   29  -0.415  -0.100   0.261
    1UNL     H6   30  -0.444  -0.252   0.204
    1UNL     H7   31  -0.327   0.074   0.290
    1UNL     H8   32  -0.187   0.150   0.265
    1UNL     H9   33  -0.386   0.107   0.032
    1UNL    H10   34  -0.367   0.256   0.100
    1UNL    H11   35  -0.167   0.309  -0.181
    1UNL    H12   36  -0.285   0.381  -0.072
    1UNL    H13   37  -0.327   0.219  -0.158
    1UNL    H14   38  -0.161   0.349   0.144
    1UNL    H15   39  -0.020   0.135  -0.102
    1UNL    H16   40  -0.134  -0.000  -0.226
    1UNL    H17   41  -0.007   0.041   0.145
    1UNL    H18   42   0.083  -0.066  -0.162
    1UNL    H19   43   0.297   0.048  -0.168
    1UNL    H20   44   0.272   0.254   0.006
    1UNL    H21   45   0.396   0.189   0.090
    1UNL    H22   46   0.453   0.271  -0.176
    1UNL    H23   47   0.482  -0.089  -0.094
    1UNL    H24   48   0.427  -0.039   0.181
    1UNL    H25   49   0.409  -0.279   0.019
    1UNL    H26   50   0.221  -0.147   0.179
    1UNL    H27   51   0.251  -0.232  -0.178
    1UNL    H28   52   0.102  -0.300   0.036
   0.00000   0.00000   0.00000   0.00000   0.00000   0.00000   0.00000   0.00000   0.00000
Generated with MDTraj, t= 3.0
 52
    1UNL     C1    1  -0.187  -0.277   0.086
    1UNL     C2    2  -0.258  -0.172   0.140
    1UNL     C3    3  -0.381  -0.207   0.235
    1UNL     C4    4  -0.210  -0.048   0.125
    1UNL     C5    5  -0.281   0.070   0.179
    1UNL     C6    6  -0.311   0.177   0.077
    1UNL     C7    7  -0.188   0.220  -0.017
    1UNL     C8    8  -0.238   0.319  -0.121
    1UNL     O1    9  -0.090   0.294   0.075
    1UNL     C9   10  -0.115   0.083  -0.066
    1UNL     O2   11  -0.187   0.019  -0.173
    1UNL    C10   12  -0.083  -0.014   0.045
    1UNL     O3   13  -0.001  -0.124   0.002
    1UNL    C11   14   0.112  -0.071  -0.054
    1UNL     O4   15   0.189   0.038   0.011
    1UNL    C12   16   0.317   0.053  -0.045
    1UNL    C13   17   0.375   0.191  -0.008
    1UNL     O5   18   0.473   0.227  -0.092
    1UNL    C14   19   0.412  -0.069  -0.002
    1UNL     O6   20   0.485  -0.035   0.113
    1UNL    C15   21   0.326  -0.192   0.031
    1UNL     O7   22   0.266  -0.184   0.158
    1UNL    C16   23   0.214  -0.194  -0.080
    1UNL     O8   24   0.144  -0.314  -0.083
    1UNL     H1   25  -0.243  -0.373   0.094
    1UNL     H2   26  -0.162  -0.258  -0.016
    1UNL     H3   27  -0.094  -0.278   0.147
    1UNL     H4   28  -0.400  -0.140   0.321
    1UNL     H5   29  -0.380  -0.310   0.260
    1UNL     H6   30  -0.473  -0.185   0.185
    1UNL     H7   31  -0.374   0.038   0.228
    1UNL     H8   32  -0.227   0.114   0.266
    1UNL     H9   33  -0.397   0.156   0.015
    1UNL    H10   34  -0.349   0.270   0.122
    1UNL    H11   35  -0.158   0.387  -0.148
    1UNL    H12   36  -0.319   0.380  -0.080
    1UNL    H13   37  -0.272   0.254  -0.201
    1UNL    H14   38  -0.005   0.241   0.081
    1UNL    H15   39  -0.025   0.129  -0.116
    1UNL    H16   40  -0.281   0.009  -0.142
    1UNL    H17   41  -0.019   0.033   0.120
    1UNL    H18   42   0.074  -0.039  -0.148
    1UNL    H19   43   0.315   0.048  -0.153
    1UNL    H20   44   0.296   0.265  -0.005
    1UNL    H21   45   0.407   0.190   0.095
    1UNL    H22   46   0.428   0.243  -0.181
    1UNL    H23   47   0.487  -0.091  -0.084
    1UNL    H24   48   0.428  -0.065   0.190
    1UNL    H25   49   0.384  -0.279   0.033
    1UNL    H26   50   0.167  -0.179   0.163
    1UNL    H27   51   0.265  -0.188  -0.172
    1UNL    H28   52   0.126  -0.343   0.009
   0.00000   0.00000   0.00000   0.00000   0.00000   0.00000   0.00000   0.00000   0.00000
Generated with MDTraj, t= 4.0
 52
    1UNL     C1    1  -0.146  -0.287   0.108
    1UNL     C2    2  -0.234  -0.172   0.160
    1UNL     C3    3  -0.346  -0.211   0.258
    1UNL     C4    4  -0.208  -0.049   0.119
    1UNL     C5    5  -0.294   0.067   0.162
    1UNL     C6    6  -0.307   0.174   0.056
    1UNL     C7    7  -0.172   0.221  -0.009
    1UNL     C8    8  -0.199   0.318  -0.122
    1UNL     O1    9  -0.097   0.290   0.094
    1UNL     C9   10  -0.113   0.083  -0.069
    1UNL     O2   11  -0.205   0.015  -0.149
    1UNL    C10   12  -0.083  -0.007   0.044
    1UNL     O3   13   0.000  -0.112  -0.011
    1UNL    C11   14   0.111  -0.075  -0.083
    1UNL     O4   15   0.178   0.031  -0.014
    1UNL    C12   16   0.311   0.049  -0.050
    1UNL    C13   17   0.360   0.185  -0.017
    1UNL     O5   18   0.487   0.225  -0.069
    1UNL    C14   19   0.400  -0.065   0.010
    1UNL     O6   20   0.443  -0.036   0.140
    1UNL    C15   21   0.309  -0.188   0.025
    1UNL     O7   22   0.240  -0.170   0.144
    1UNL    C16   23   0.211  -0.194  -0.095
    1UNL     O8   24   0.136  -0.310  -0.096
    1UNL     H1   25  -0.181  -0.384   0.151
    1UNL     H2   26  -0.131  -0.298   0.007
    1UNL     H3   27  -0.048  -0.264   0.158
    1UNL     H4   28  -0.336  -0.302   0.314
    1UNL     H5   29  -0.440  -0.211   0.209
    1UNL     H6   30  -0.342  -0.135   0.339
    1UNL     H7   31  -0.393   0.043   0.203
    1UNL     H8   32  -0.240   0.119   0.246
    1UNL     H9   33  -0.371   0.138  -0.023
    1UNL    H10   34  -0.356   0.264   0.093
    1UNL    H11   35  -0.114   0.314  -0.196
    1UNL    H12   36  -0.203   0.419  -0.098
    1UNL    H13   37  -0.291   0.298  -0.175
    1UNL    H14   38  -0.080   0.391   0.093
    1UNL    H15   39  -0.024   0.104  -0.136
    1UNL    H16   40  -0.156  -0.053  -0.196
    1UNL    H17   41  -0.027   0.039   0.126
    1UNL    H18   42   0.086  -0.048  -0.182
    1UNL    H19   43   0.326   0.050  -0.160
    1UNL    H20   44   0.286   0.264  -0.041
    1UNL    H21   45   0.361   0.195   0.092
    1UNL    H22   46   0.493   0.214  -0.166
    1UNL    H23   47   0.491  -0.078  -0.058
    1UNL    H24   48   0.369  -0.060   0.199
    1UNL    H25   49   0.360  -0.279   0.028
    1UNL    H26   50   0.147  -0.141   0.133
    1UNL    H27   51   0.270  -0.187  -0.182
    1UNL    H28   52   0.123  -0.348  -0.005
   0.00000   0.00000   0.00000   0.00000   0.00000   0.00000   0.00000   0.00000   0.00000
Generated with MDTraj, t= 5.0
 52
    1UNL     C1    1  -0.121  -0.280   0.154
    1UNL     C2    2  -0.217  -0.170   0.174
    1UNL     C3    3  -0.338  -0.191   0.250
    1UNL     C4    4  -0.189  -0.049   0.129
    1UNL     C5    5  -0.254   0.076   0.186
    1UNL     C6    6  -0.310   0.164   0.069
    1UNL     C7    7  -0.185   0.221  -0.007
    1UNL     C8    8  -0.233   0.317  -0.108
    1UNL     O1    9  -0.104   0.288   0.090
    1UNL     C9   10  -0.111   0.098  -0.074
    1UNL     O2   11  -0.174   0.046  -0.195
    1UNL    C10   12  -0.067  -0.012   0.038
    1UNL     O3   13  -0.004  -0.127  -0.019
    1UNL    C11   14   0.109  -0.086  -0.093
    1UNL     O4   15   0.168   0.045  -0.061
    1UNL    C12   16   0.315   0.049  -0.069
    1UNL    C13   17   0.351   0.185  -0.027
    1UNL     O5   18   0.492   0.204  -0.033
    1UNL    C14   19   0.381  -0.056   0.024
    1UNL     O6   20   0.387  -0.017   0.158
    1UNL    C15   21   0.308  -0.194   0.029
    1UNL     O7   22   0.230  -0.198   0.143
    1UNL    C16   23   0.217  -0.203  -0.104
    1UNL     O8   24   0.145  -0.325  -0.111
    1UNL     H1   25  -0.147  -0.377   0.199
    1UNL     H2   26  -0.089  -0.301   0.055
    1UNL     H3   27  -0.035  -0.241   0.213
    1UNL     H4   28  -0.369  -0.290   0.251
    1UNL     H5   29  -0.418  -0.128   0.213
    1UNL     H6   30  -0.312  -0.162   0.354
    1UNL     H7   31  -0.336   0.044   0.252
    1UNL     H8   32  -0.181   0.142   0.239
    1UNL     H9   33  -0.358   0.098  -0.001
    1UNL    H10   34  -0.387   0.235   0.101
    1UNL    H11   35  -0.155   0.398  -0.117
    1UNL    H12   36  -0.322   0.370  -0.090
    1UNL    H13   37  -0.246   0.283  -0.210
    1UNL    H14   38  -0.029   0.335   0.044
    1UNL    H15   39  -0.017   0.143  -0.119
    1UNL    H16   40  -0.248  -0.010  -0.163
    1UNL    H17   41   0.012   0.029   0.100
    1UNL    H18   42   0.070  -0.072  -0.193
    1UNL    H19   43   0.341   0.036  -0.178
    1UNL    H20   44   0.291   0.259  -0.086
    1UNL    H21   45   0.320   0.215   0.077
    1UNL    H22   46   0.525   0.183  -0.121
    1UNL    H23   47   0.491  -0.078  -0.006
    1UNL    H24   48   0.316  -0.059   0.209
    1UNL    H25   49   0.374  -0.273   0.029
    1UNL    H26   50   0.143  -0.153   0.125
    1UNL    H27   51   0.271  -0.176  -0.191
    1UNL    H28   52   0.091  -0.346  -0.032
   0.00000   0.00000   0.00000   0.00000   0.00000   0.00000   0.00000   0.00000   0.00000
Generated with MDTraj, t= 6.0
 52
    1UNL     C1    1  -0.125  -0.282   0.126
    1UNL     C2    2  -0.208  -0.165   0.173
    1UNL     C3    3  -0.329  -0.200   0.270
    1UNL     C4    4  -0.181  -0.041   0.136
    1UNL     C5    5  -0.246   0.073   0.204
    1UNL     C6    6  -0.299   0.174   0.096
    1UNL     C7    7  -0.192   0.223  -0.009
    1UNL     C8    8  -0.238   0.282  -0.143
    1UNL     O1    9  -0.104   0.323   0.057
    1UNL     C9   10  -0.095   0.096  -0.049
    1UNL     O2   11  -0.153   0.031  -0.162
    1UNL    C10   12  -0.058  -0.006   0.051
    1UNL     O3   13  -0.003  -0.117  -0.021
    1UNL    C11   14   0.106  -0.077  -0.106
    1UNL     O4   15   0.162   0.044  -0.057
    1UNL    C12   16   0.313   0.048  -0.057
    1UNL    C13   17   0.365   0.188  -0.034
    1UNL     O5   18   0.503   0.203  -0.033
    1UNL    C14   19   0.367  -0.058   0.040
    1UNL     O6   20   0.340  -0.015   0.174
    1UNL    C15   21   0.290  -0.194   0.023
    1UNL     O7   22   0.206  -0.215   0.135
    1UNL    C16   23   0.214  -0.190  -0.119
    1UNL     O8   24   0.162  -0.323  -0.141
    1UNL     H1   25  -0.171  -0.378   0.146
    1UNL     H2   26  -0.090  -0.286   0.016
    1UNL     H3   27  -0.037  -0.281   0.189
    1UNL     H4   28  -0.305  -0.297   0.300
    1UNL     H5   29  -0.432  -0.192   0.237
    1UNL     H6   30  -0.327  -0.143   0.364
    1UNL     H7   31  -0.335   0.033   0.257
    1UNL     H8   32  -0.171   0.115   0.276
    1UNL     H9   33  -0.383   0.125   0.048
    1UNL    H10   34  -0.345   0.256   0.150
    1UNL    H11   35  -0.208   0.226  -0.233
    1UNL    H12   36  -0.222   0.389  -0.154
    1UNL    H13   37  -0.345   0.278  -0.137
    1UNL    H14   38  -0.018   0.298   0.026
    1UNL    H15   39  -0.001   0.145  -0.093
    1UNL    H16   40  -0.118  -0.062  -0.177
    1UNL    H17   41   0.022   0.044   0.104
    1UNL    H18   42   0.065  -0.074  -0.207
    1UNL    H19   43   0.332   0.020  -0.165
    1UNL    H20   44   0.327   0.270  -0.102
    1UNL    H21   45   0.318   0.225   0.062
    1UNL    H22   46   0.542   0.164  -0.114
    1UNL    H23   47   0.482  -0.075   0.033
    1UNL    H24   48   0.242  -0.010   0.195
    1UNL    H25   49   0.357  -0.272   0.024
    1UNL    H26   50   0.122  -0.171   0.116
    1UNL    H27   51   0.280  -0.162  -0.199
    1UNL    H28   52   0.117  -0.363  -0.064
   0.00000   0.00000   0.00000   0.00000   0.00000   0.00000   0.00000   0.00000   0.00000
Generated with MDTraj, t= 7.0
 52
    1UNL     C1    1  -0.169  -0.281   0.083
    1UNL     C2    2  -0.206  -0.158   0.169
    1UNL     C3    3  -0.296  -0.179   0.278
    1UNL     C4    4  -0.161  -0.031   0.138
    1UNL     C5    5  -0.228   0.101   0.200
    1UNL     C6    6  -0.305   0.158   0.083
    1UNL     C7    7  -0.202   0.207  -0.020
    1UNL     C8    8  -0.267   0.301  -0.125
    1UNL     O1    9  -0.104   0.275   0.053
    1UNL     C9   10  -0.129   0.083  -0.084
    1UNL     O2   11  -0.228  -0.007  -0.149
    1UNL    C10   12  -0.056   0.013   0.034
    1UNL     O3   13   0.015  -0.098  -0.014
    1UNL    C11   14   0.124  -0.064  -0.100
    1UNL     O4   15   0.189   0.065  -0.066
    1UNL    C12   16   0.328   0.055  -0.040
    1UNL    C13   17   0.392   0.189  -0.007
    1UNL     O5   18   0.523   0.208  -0.043
    1UNL    C14   19   0.367  -0.051   0.063
    1UNL     O6   20   0.318  -0.024   0.194
    1UNL    C15   21   0.308  -0.196   0.020
    1UNL     O7   22   0.228  -0.249   0.127
    1UNL    C16   23   0.219  -0.193  -0.112
    1UNL     O8   24   0.146  -0.313  -0.129
    1UNL     H1   25  -0.252  -0.348   0.080
    1UNL     H2   26  -0.135  -0.257  -0.027
    1UNL     H3   27  -0.093  -0.334   0.137
    1UNL     H4   28  -0.300  -0.285   0.308
    1UNL     H5   29  -0.386  -0.118   0.275
    1UNL     H6   30  -0.249  -0.123   0.359
    1UNL     H7   31  -0.294   0.085   0.286
    1UNL     H8   32  -0.149   0.176   0.227
    1UNL     H9   33  -0.374   0.087   0.039
    1UNL    H10   34  -0.370   0.239   0.112
    1UNL    H11   35  -0.329   0.248  -0.191
    1UNL    H12   36  -0.180   0.347  -0.179
    1UNL    H13   37  -0.313   0.383  -0.073
    1UNL    H14   38  -0.038   0.314  -0.004
    1UNL    H15   39  -0.052   0.108  -0.168
    1UNL    H16   40  -0.181  -0.091  -0.173
    1UNL    H17   41   0.013   0.081   0.079
    1UNL    H18   42   0.081  -0.048  -0.201
    1UNL    H19   43   0.371   0.025  -0.142
    1UNL    H20   44   0.330   0.275  -0.039
    1UNL    H21   45   0.399   0.208   0.104
    1UNL    H22   46   0.538   0.205  -0.141
    1UNL    H23   47   0.482  -0.073   0.063
    1UNL    H24   48   0.230  -0.060   0.214
    1UNL    H25   49   0.381  -0.266   0.000
    1UNL    H26   50   0.134  -0.215   0.125
    1UNL    H27   51   0.283  -0.166  -0.195
    1UNL    H28   52   0.096  -0.328  -0.046
   0.00000   0.00000   0.00000   0.00000   0.00000   0.00000   0.00000   0.00000   0.00000
Generated with MDTraj, t= 8.0
 52
    1UNL     C1    1  -0.165  -0.285   0.093
    1UNL     C2    2  -0.201  -0.163   0.160
    1UNL     C3    3  -0.298  -0.197   0.278
    1UNL     C4    4  -0.162  -0.034   0.133
    1UNL     C5    5  -0.216   0.087   0.201
    1UNL     C6    6  -0.284   0.193   0.107
    1UNL     C7    7  -0.201   0.219  -0.027
    1UNL     C8    8  -0.299   0.285  -0.138
    1UNL     O1    9  -0.080   0.306  -0.007
    1UNL     C9   10  -0.151   0.081  -0.079
    1UNL     O2   11  -0.264   0.002  -0.117
    1UNL    C10   12  -0.069   0.005   0.025
    1UNL     O3   13   0.006  -0.106  -0.010
    1UNL    C11   14   0.123  -0.069  -0.084
    1UNL     O4   15   0.188   0.056  -0.045
    1UNL    C12   16   0.329   0.057  -0.035
    1UNL    C13   17   0.396   0.191   0.001
    1UNL     O5   18   0.537   0.192  -0.019
    1UNL    C14   19   0.371  -0.054   0.067
    1UNL     O6   20   0.312  -0.023   0.187
    1UNL    C15   21   0.310  -0.194   0.025
    1UNL     O7   22   0.223  -0.250   0.122
    1UNL    C16   23   0.228  -0.180  -0.107
    1UNL     O8   24   0.181  -0.304  -0.166
    1UNL     H1   25  -0.250  -0.355   0.080
    1UNL     H2   26  -0.123  -0.265  -0.003
    1UNL     H3   27  -0.091  -0.332   0.159
    1UNL     H4   28  -0.287  -0.307   0.301
    1UNL     H5   29  -0.402  -0.169   0.271
    1UNL     H6   30  -0.272  -0.155   0.371
    1UNL     H7   31  -0.284   0.051   0.280
    1UNL     H8   32  -0.134   0.140   0.257
    1UNL     H9   33  -0.377   0.152   0.066
    1UNL    H10   34  -0.331   0.279   0.156
    1UNL    H11   35  -0.380   0.333  -0.096
    1UNL    H12   36  -0.336   0.197  -0.197
    1UNL    H13   37  -0.235   0.340  -0.207
    1UNL    H14   38  -0.038   0.336  -0.090
    1UNL    H15   39  -0.084   0.099  -0.172
    1UNL    H16   40  -0.246  -0.093  -0.121
    1UNL    H17   41   0.008   0.067   0.061
    1UNL    H18   42   0.077  -0.059  -0.186
    1UNL    H19   43   0.371   0.043  -0.140
    1UNL    H20   44   0.347   0.271  -0.055
    1UNL    H21   45   0.375   0.221   0.104
    1UNL    H22   46   0.552   0.191  -0.118
    1UNL    H23   47   0.488  -0.057   0.065
    1UNL    H24   48   0.216  -0.006   0.172
    1UNL    H25   49   0.387  -0.261   0.015
    1UNL    H26   50   0.129  -0.234   0.103
    1UNL    H27   51   0.306  -0.144  -0.176
    1UNL    H28   52   0.107  -0.344  -0.116
   0.00000   0.00000   0.00000   0.00000   0.00000   0.00000   0.00000   0.00000   0.00000
Generated with MDTraj, t= 9.0
 52
    1UNL     C1    1  -0.151  -0.281   0.106
    1UNL     C2    2  -0.188  -0.151   0.176
    1UNL     C3    3  -0.296  -0.162   0.275
    1UNL     C4    4  -0.143  -0.026   0.147
    1UNL     C5    5  -0.183   0.105   0.213
    1UNL     C6    6  -0.268   0.179   0.107
    1UNL     C7    7  -0.200   0.197  -0.030
    1UNL     C8    8  -0.298   0.262  -0.128
    1UNL     O1    9  -0.082   0.277  -0.007
    1UNL     C9   10  -0.145   0.070  -0.083
    1UNL     O2   11  -0.244  -0.025  -0.129
    1UNL    C10   12  -0.053  -0.002   0.029
    1UNL     O3   13   0.012  -0.108  -0.036
    1UNL    C11   14   0.120  -0.059  -0.113
    1UNL     O4   15   0.181   0.068  -0.060
    1UNL    C12   16   0.321   0.059  -0.038
    1UNL    C13   17   0.386   0.189   0.019
    1UNL     O5   18   0.531   0.197   0.037
    1UNL    C14   19   0.351  -0.057   0.061
    1UNL     O6   20   0.304  -0.024   0.183
    1UNL    C15   21   0.290  -0.187   0.013
    1UNL     O7   22   0.197  -0.243   0.099
    1UNL    C16   23   0.224  -0.171  -0.126
    1UNL     O8   24   0.151  -0.293  -0.157
    1UNL     H1   25  -0.195  -0.379   0.142
    1UNL     H2   26  -0.164  -0.279   0.006
    1UNL     H3   27  -0.042  -0.295   0.118
    1UNL     H4   28  -0.332  -0.267   0.259
    1UNL     H5   29  -0.372  -0.086   0.270
    1UNL     H6   30  -0.260  -0.162   0.374
    1UNL     H7   31  -0.220   0.102   0.319
    1UNL     H8   32  -0.092   0.171   0.223
    1UNL     H9   33  -0.365   0.130   0.099
    1UNL    H10   34  -0.299   0.283   0.120
    1UNL    H11   35  -0.248   0.351  -0.159
    1UNL    H12   36  -0.390   0.291  -0.079
    1UNL    H13   37  -0.320   0.189  -0.207
    1UNL    H14   38  -0.019   0.275  -0.086
    1UNL    H15   39  -0.077   0.099  -0.173
    1UNL    H16   40  -0.203  -0.110  -0.148
    1UNL    H17   41   0.027   0.054   0.064
    1UNL    H18   42   0.073  -0.039  -0.215
    1UNL    H19   43   0.370   0.049  -0.139
    1UNL    H20   44   0.359   0.273  -0.041
    1UNL    H21   45   0.335   0.204   0.114
    1UNL    H22   46   0.574   0.194  -0.050
    1UNL    H23   47   0.465  -0.066   0.067
    1UNL    H24   48   0.204  -0.021   0.193
    1UNL    H25   49   0.366  -0.258   0.011
    1UNL    H26   50   0.121  -0.182   0.121
    1UNL    H27   51   0.303  -0.153  -0.205
    1UNL    H28   52   0.098  -0.321  -0.080
   0.00000   0.00000   0.00000   0.00000   0.00000   0.00000   0.00000   0.00000   0.00000
Generated with MDTraj, t= 10.0
 52
    1UNL     C1    1  -0.143  -0.256   0.110
    1UNL     C2    2  -0.175  -0.134   0.190
    1UNL     C3    3  -0.263  -0.145   0.306
    1UNL     C4    4  -0.136  -0.017   0.139
    1UNL     C5    5  -0.201   0.113   0.198
    1UNL     C6    6  -0.301   0.175   0.104
    1UNL     C7    7  -0.212   0.216  -0.024
    1UNL     C8    8  -0.302   0.275  -0.135
    1UNL     O1    9  -0.113   0.304   0.020
    1UNL     C9   10  -0.135   0.085  -0.080
    1UNL     O2   11  -0.231  -0.001  -0.129
    1UNL    C10   12  -0.051   0.002   0.025
    1UNL     O3   13   0.027  -0.102  -0.027
    1UNL    C11   14   0.124  -0.080  -0.124
    1UNL     O4   15   0.191   0.051  -0.107
    1UNL    C12   16   0.322   0.046  -0.044
    1UNL    C13   17   0.353   0.183   0.013
    1UNL     O5   18   0.482   0.203   0.065
    1UNL    C14   19   0.347  -0.065   0.065
    1UNL     O6   20   0.286  -0.041   0.190
    1UNL    C15   21   0.302  -0.204   0.007
    1UNL     O7   22   0.220  -0.284   0.090
    1UNL    C16   23   0.237  -0.186  -0.133
    1UNL     O8   24   0.192  -0.316  -0.169
    1UNL     H1   25  -0.231  -0.322   0.101
    1UNL     H2   26  -0.102  -0.237   0.011
    1UNL     H3   27  -0.065  -0.307   0.167
    1UNL     H4   28  -0.252  -0.247   0.344
    1UNL     H5   29  -0.366  -0.115   0.289
    1UNL     H6   30  -0.229  -0.088   0.393
    1UNL     H7   31  -0.254   0.093   0.296
    1UNL     H8   32  -0.130   0.193   0.234
    1UNL     H9   33  -0.376   0.104   0.067
    1UNL    H10   34  -0.359   0.250   0.157
    1UNL    H11   35  -0.282   0.235  -0.238
    1UNL    H12   36  -0.286   0.379  -0.149
    1UNL    H13   37  -0.406   0.264  -0.113
    1UNL    H14   38  -0.040   0.315  -0.049
    1UNL    H15   39  -0.063   0.123  -0.164
    1UNL    H16   40  -0.188  -0.089  -0.141
    1UNL    H17   41   0.022   0.065   0.063
    1UNL    H18   42   0.074  -0.069  -0.225
    1UNL    H19   43   0.388   0.020  -0.129
    1UNL    H20   44   0.339   0.251  -0.068
    1UNL    H21   45   0.290   0.212   0.097
    1UNL    H22   46   0.555   0.177   0.006
    1UNL    H23   47   0.454  -0.084   0.092
    1UNL    H24   48   0.191  -0.067   0.187
    1UNL    H25   49   0.387  -0.262  -0.014
    1UNL    H26   50   0.132  -0.240   0.096
    1UNL    H27   51   0.303  -0.146  -0.218
    1UNL    H28   52   0.126  -0.347  -0.104
   0.00000   0.00000   0.00000   0.00000   0.00000   0.00000   0.00000   0.00000   0.00000
Generated with MDTraj, t= 11.0
 52
    1UNL     C1    1  -0.126  -0.262   0.131
    1UNL     C2    2  -0.167  -0.145   0.198
    1UNL     C3    3  -0.229  -0.150   0.338
    1UNL     C4    4  -0.138  -0.022   0.151
    1UNL     C5    5  -0.198   0.106   0.205
    1UNL     C6    6  -0.267   0.177   0.092
    1UNL     C7    7  -0.187   0.210  -0.033
    1UNL     C8    8  -0.276   0.251  -0.144
    1UNL     O1    9  -0.091   0.317  -0.005
    1UNL     C9   10  -0.120   0.085  -0.081
    1UNL     O2   11  -0.199  -0.004  -0.156
    1UNL    C10   12  -0.045   0.010   0.034
    1UNL     O3   13   0.012  -0.103  -0.021
    1UNL    C11   14   0.112  -0.073  -0.120
    1UNL     O4   15   0.179   0.063  -0.106
    1UNL    C12   16   0.308   0.059  -0.034
    1UNL    C13   17   0.335   0.188   0.040
    1UNL     O5   18   0.465   0.195   0.084
    1UNL    C14   19   0.317  -0.057   0.067
    1UNL     O6   20   0.209  -0.039   0.159
    1UNL    C15   21   0.312  -0.200  -0.007
    1UNL     O7   22   0.260  -0.298   0.078
    1UNL    C16   23   0.217  -0.186  -0.137
    1UNL     O8   24   0.137  -0.301  -0.167
    1UNL     H1   25  -0.203  -0.337   0.146
    1UNL     H2   26  -0.104  -0.248   0.016
    1UNL     H3   27  -0.036  -0.289   0.185
    1UNL     H4   28  -0.227  -0.243   0.390
    1UNL     H5   29  -0.328  -0.106   0.340
    1UNL     H6   30  -0.160  -0.097   0.408
    1UNL     H7   31  -0.256   0.095   0.302
    1UNL     H8   32  -0.113   0.165   0.249
    1UNL     H9   33  -0.360   0.118   0.078
    1UNL    H10   34  -0.292   0.277   0.125
    1UNL    H11   35  -0.230   0.324  -0.219
    1UNL    H12   36  -0.357   0.305  -0.105
    1UNL    H13   37  -0.322   0.174  -0.199
    1UNL    H14   38  -0.021   0.314  -0.077
    1UNL    H15   39  -0.035   0.122  -0.155
    1UNL    H16   40  -0.153  -0.093  -0.153
    1UNL    H17   41   0.031   0.076   0.058
    1UNL    H18   42   0.061  -0.082  -0.221
    1UNL    H19   43   0.373   0.045  -0.120
    1UNL    H20   44   0.323   0.280  -0.018
    1UNL    H21   45   0.271   0.183   0.128
    1UNL    H22   46   0.528   0.205   0.008
    1UNL    H23   47   0.400  -0.044   0.138
    1UNL    H24   48   0.127  -0.070   0.116
    1UNL    H25   49   0.414  -0.213  -0.033
    1UNL    H26   50   0.163  -0.303   0.073
    1UNL    H27   51   0.284  -0.174  -0.229
    1UNL    H28   52   0.182  -0.379  -0.124
   0.00000   0.00000   0.00000   0.00000   0.00000   0.00000   0.00000   0.00000   0.00000
Generated with MDTraj, t= 12.0
 52
    1UNL     C1    1  -0.088  -0.240   0.159
    1UNL     C2    2  -0.152  -0.115   0.203
    1UNL     C3    3  -0.238  -0.132   0.321
    1UNL     C4    4  -0.129   0.003   0.150
    1UNL     C5    5  -0.204   0.127   0.192
    1UNL     C6    6  -0.287   0.171   0.073
    1UNL     C7    7  -0.194   0.213  -0.037
    1UNL     C8    8  -0.275   0.286  -0.143
    1UNL     O1    9  -0.086   0.307  -0.000
    1UNL     C9   10  -0.133   0.079  -0.096
    1UNL     O2   11  -0.239  -0.007  -0.138
    1UNL    C10   12  -0.052   0.015   0.021
    1UNL     O3   13   0.019  -0.100  -0.010
    1UNL    C11   14   0.116  -0.077  -0.113
    1UNL     O4   15   0.178   0.049  -0.093
    1UNL    C12   16   0.303   0.051  -0.032
    1UNL    C13   17   0.300   0.182   0.053
    1UNL     O5   18   0.436   0.201   0.101
    1UNL    C14   19   0.331  -0.076   0.063
    1UNL     O6   20   0.237  -0.085   0.166
    1UNL    C15   21   0.322  -0.212  -0.025
    1UNL     O7   22   0.279  -0.313   0.065
    1UNL    C16   23   0.222  -0.185  -0.145
    1UNL     O8   24   0.154  -0.303  -0.180
    1UNL     H1   25  -0.137  -0.323   0.209
    1UNL     H2   26  -0.085  -0.265   0.049
    1UNL     H3   27   0.013  -0.248   0.203
    1UNL     H4   28  -0.216  -0.228   0.354
    1UNL     H5   29  -0.345  -0.129   0.296
    1UNL     H6   30  -0.193  -0.080   0.409
    1UNL     H7   31  -0.262   0.102   0.285
    1UNL     H8   32  -0.137   0.202   0.242
    1UNL     H9   33  -0.339   0.079   0.036
    1UNL    H10   34  -0.358   0.248   0.101
    1UNL    H11   35  -0.226   0.271  -0.242
    1UNL    H12   36  -0.284   0.392  -0.126
    1UNL    H13   37  -0.375   0.255  -0.154
    1UNL    H14   38  -0.037   0.347  -0.075
    1UNL    H15   39  -0.054   0.106  -0.179
    1UNL    H16   40  -0.208  -0.090  -0.177
    1UNL    H17   41   0.019   0.087   0.040
    1UNL    H18   42   0.062  -0.062  -0.209
    1UNL    H19   43   0.371   0.057  -0.115
    1UNL    H20   44   0.271   0.272  -0.004
    1UNL    H21   45   0.242   0.164   0.145
    1UNL    H22   46   0.497   0.198   0.022
    1UNL    H23   47   0.426  -0.077   0.112
    1UNL    H24   48   0.148  -0.081   0.128
    1UNL    H25   49   0.417  -0.238  -0.073
    1UNL    H26   50   0.338  -0.351   0.137
    1UNL    H27   51   0.274  -0.158  -0.244
    1UNL    H28   52   0.099  -0.326  -0.101
   0.00000   0.00000   0.00000   0.00000   0.00000   0.00000   0.00000   0.00000   0.00000
Generated with MDTraj, t= 13.0
 52
    1UNL     C1    1  -0.078  -0.237   0.191
    1UNL     C2    2  -0.161  -0.116   0.225
    1UNL     C3    3  -0.255  -0.120   0.333
    1UNL     C4    4  -0.142  -0.008   0.150
    1UNL     C5    5  -0.214   0.121   0.187
    1UNL     C6    6  -0.284   0.192   0.068
    1UNL     C7    7  -0.188   0.217  -0.047
    1UNL     C8    8  -0.280   0.276  -0.166
    1UNL     O1    9  -0.084   0.301  -0.012
    1UNL     C9   10  -0.139   0.079  -0.089
    1UNL     O2   11  -0.247  -0.012  -0.114
    1UNL    C10   12  -0.049   0.015   0.027
    1UNL     O3   13   0.030  -0.098  -0.008
    1UNL    C11   14   0.118  -0.072  -0.126
    1UNL     O4   15   0.189   0.056  -0.095
    1UNL    C12   16   0.321   0.051  -0.034
    1UNL    C13   17   0.304   0.173   0.064
    1UNL     O5   18   0.426   0.205   0.133
    1UNL    C14   19   0.338  -0.079   0.056
    1UNL     O6   20   0.239  -0.098   0.147
    1UNL    C15   21   0.333  -0.208  -0.041
    1UNL     O7   22   0.286  -0.313   0.037
    1UNL    C16   23   0.220  -0.185  -0.155
    1UNL     O8   24   0.144  -0.301  -0.174
    1UNL     H1   25  -0.111  -0.328   0.246
    1UNL     H2   26  -0.080  -0.259   0.088
    1UNL     H3   27   0.028  -0.220   0.226
    1UNL     H4   28  -0.252  -0.219   0.364
    1UNL     H5   29  -0.360  -0.099   0.310
    1UNL     H6   30  -0.213  -0.067   0.419
    1UNL     H7   31  -0.281   0.107   0.276
    1UNL     H8   32  -0.141   0.185   0.244
    1UNL     H9   33  -0.366   0.127   0.029
    1UNL    H10   34  -0.323   0.287   0.104
    1UNL    H11   35  -0.225   0.326  -0.240
    1UNL    H12   36  -0.356   0.342  -0.121
    1UNL    H13   37  -0.335   0.200  -0.220
    1UNL    H14   38  -0.027   0.324  -0.085
    1UNL    H15   39  -0.080   0.073  -0.190
    1UNL    H16   40  -0.219  -0.100  -0.142
    1UNL    H17   41   0.019   0.085   0.056
    1UNL    H18   42   0.055  -0.045  -0.212
    1UNL    H19   43   0.403   0.073  -0.100
    1UNL    H20   44   0.275   0.264   0.004
    1UNL    H21   45   0.228   0.152   0.140
    1UNL    H22   46   0.499   0.191   0.068
    1UNL    H23   47   0.429  -0.084   0.108
    1UNL    H24   48   0.152  -0.096   0.098
    1UNL    H25   49   0.438  -0.219  -0.078
    1UNL    H26   50   0.195  -0.299   0.067
    1UNL    H27   51   0.266  -0.157  -0.254
    1UNL    H28   52   0.207  -0.374  -0.157
   0.00000   0.00000   0.00000   0.00000   0.00000   0.00000   0.00000   0.00000   0.00000
Generated with MDTraj, t= 14.0
 52
    1UNL     C1    1  -0.094  -0.238   0.169
    1UNL     C2    2  -0.147  -0.111   0.221
    1UNL     C3    3  -0.242  -0.115   0.340
    1UNL     C4    4  -0.138   0.003   0.151
    1UNL     C5    5  -0.202   0.137   0.183
    1UNL     C6    6  -0.284   0.194   0.071
    1UNL     C7    7  -0.204   0.203  -0.053
    1UNL     C8    8  -0.290   0.257  -0.174
    1UNL     O1    9  -0.097   0.304  -0.024
    1UNL     C9   10  -0.125   0.068  -0.084
    1UNL     O2   11  -0.209  -0.026  -0.129
    1UNL    C10   12  -0.040   0.020   0.034
    1UNL     O3   13   0.023  -0.096  -0.011
    1UNL    C11   14   0.110  -0.062  -0.116
    1UNL     O4   15   0.172   0.064  -0.093
    1UNL    C12   16   0.298   0.058  -0.022
    1UNL    C13   17   0.316   0.168   0.081
    1UNL     O5   18   0.444   0.166   0.138
    1UNL    C14   19   0.322  -0.072   0.051
    1UNL     O6   20   0.225  -0.103   0.151
    1UNL    C15   21   0.328  -0.192  -0.057
    1UNL     O7   22   0.321  -0.306   0.026
    1UNL    C16   23   0.202  -0.178  -0.155
    1UNL     O8   24   0.131  -0.296  -0.158
    1UNL     H1   25  -0.164  -0.325   0.191
    1UNL     H2   26  -0.081  -0.227   0.066
    1UNL     H3   27   0.005  -0.259   0.220
    1UNL     H4   28  -0.252  -0.205   0.395
    1UNL     H5   29  -0.344  -0.091   0.315
    1UNL     H6   30  -0.206  -0.044   0.413
    1UNL     H7   31  -0.259   0.126   0.279
    1UNL     H8   32  -0.125   0.206   0.228
    1UNL     H9   33  -0.380   0.139   0.062
    1UNL    H10   34  -0.306   0.299   0.098
    1UNL    H11   35  -0.255   0.228  -0.266
    1UNL    H12   36  -0.308   0.365  -0.154
    1UNL    H13   37  -0.390   0.213  -0.161
    1UNL    H14   38  -0.015   0.261  -0.051
    1UNL    H15   39  -0.051   0.093  -0.174
    1UNL    H16   40  -0.165  -0.116  -0.128
    1UNL    H17   41   0.036   0.085   0.059
    1UNL    H18   42   0.038  -0.056  -0.201
    1UNL    H19   43   0.365   0.071  -0.106
    1UNL    H20   44   0.298   0.273   0.040
    1UNL    H21   45   0.245   0.136   0.159
    1UNL    H22   46   0.514   0.162   0.071
    1UNL    H23   47   0.409  -0.072   0.106
    1UNL    H24   48   0.134  -0.092   0.117
    1UNL    H25   49   0.430  -0.186  -0.108
    1UNL    H26   50   0.276  -0.294   0.112
    1UNL    H27   51   0.227  -0.169  -0.260
    1UNL    H28   52   0.173  -0.354  -0.089
   0.00000   0.00000   0.00000   0.00000   0.00000   0.00000   0.00000   0.00000   0.00000
Generated with MDTraj, t= 15.0
 52
    1UNL     C1    1  -0.118  -0.236   0.155
    1UNL     C2    2  -0.153  -0.098   0.206
    1UNL     C3    3  -0.230  -0.109   0.333
    1UNL     C4    4  -0.130   0.017   0.144
    1UNL     C5    5  -0.201   0.143   0.188
    1UNL     C6    6  -0.304   0.189   0.085
    1UNL     C7    7  -0.225   0.227  -0.047
    1UNL     C8    8  -0.328   0.266  -0.161
    1UNL     O1    9  -0.133   0.329  -0.014
    1UNL     C9   10  -0.147   0.085  -0.093
    1UNL     O2   11  -0.238  -0.006  -0.152
    1UNL    C10   12  -0.050   0.023   0.019
    1UNL     O3   13   0.025  -0.100  -0.007
    1UNL    C11   14   0.125  -0.080  -0.106
    1UNL     O4   15   0.203   0.043  -0.097
    1UNL    C12   16   0.325   0.042  -0.015
    1UNL    C13   17   0.327   0.168   0.079
    1UNL     O5   18   0.443   0.194   0.149
    1UNL    C14   19   0.350  -0.090   0.055
    1UNL     O6   20   0.259  -0.104   0.162
    1UNL    C15   21   0.335  -0.208  -0.051
    1UNL     O7   22   0.342  -0.326   0.019
    1UNL    C16   23   0.213  -0.206  -0.142
    1UNL     O8   24   0.131  -0.316  -0.152
    1UNL     H1   25  -0.150  -0.320   0.224
    1UNL     H2   26  -0.156  -0.262   0.055
    1UNL     H3   27  -0.011  -0.257   0.158
    1UNL     H4   28  -0.249  -0.209   0.370
    1UNL     H5   29  -0.329  -0.069   0.319
    1UNL     H6   30  -0.179  -0.045   0.400
    1UNL     H7   31  -0.228   0.143   0.298
    1UNL     H8   32  -0.122   0.220   0.204
    1UNL     H9   33  -0.376   0.109   0.063
    1UNL    H10   34  -0.367   0.272   0.125
    1UNL    H11   35  -0.281   0.313  -0.244
    1UNL    H12   36  -0.423   0.309  -0.129
    1UNL    H13   37  -0.349   0.167  -0.205
    1UNL    H14   38  -0.111   0.377  -0.098
    1UNL    H15   39  -0.077   0.118  -0.184
    1UNL    H16   40  -0.197  -0.094  -0.143
    1UNL    H17   41   0.024   0.094   0.034
    1UNL    H18   42   0.053  -0.062  -0.189
    1UNL    H19   43   0.406   0.065  -0.086
    1UNL    H20   44   0.313   0.254   0.007
    1UNL    H21   45   0.250   0.158   0.155
    1UNL    H22   46   0.524   0.198   0.094
    1UNL    H23   47   0.442  -0.097   0.101
    1UNL    H24   48   0.167  -0.099   0.131
    1UNL    H25   49   0.435  -0.197  -0.109
    1UNL    H26   50   0.280  -0.334   0.094
    1UNL    H27   51   0.241  -0.190  -0.243
    1UNL    H28   52   0.189  -0.395  -0.155
   0.00000   0.00000   0.00000   0.00000   0.00000   0.00000   0.00000   0.00000   0.00000
Generated with MDTraj, t= 16.0
 52
    1UNL     C1    1  -0.099  -0.236   0.137
    1UNL     C2    2  -0.145  -0.102   0.203
    1UNL     C3    3  -0.241  -0.117   0.313
    1UNL     C4    4  -0.121   0.019   0.150
    1UNL     C5    5  -0.187   0.142   0.201
    1UNL     C6    6  -0.291   0.187   0.096
    1UNL     C7    7  -0.219   0.204  -0.045
    1UNL     C8    8  -0.320   0.231  -0.157
    1UNL     O1    9  -0.140   0.327  -0.025
    1UNL     C9   10  -0.133   0.080  -0.094
    1UNL     O2   11  -0.217  -0.029  -0.131
    1UNL    C10   12  -0.036   0.042   0.026
    1UNL     O3   13   0.027  -0.075  -0.025
    1UNL    C11   14   0.122  -0.056  -0.126
    1UNL     O4   15   0.213   0.049  -0.116
    1UNL    C12   16   0.312   0.046  -0.010
    1UNL    C13   17   0.324   0.160   0.098
    1UNL     O5   18   0.462   0.176   0.143
    1UNL    C14   19   0.326  -0.085   0.057
    1UNL     O6   20   0.224  -0.102   0.146
    1UNL    C15   21   0.323  -0.197  -0.049
    1UNL     O7   22   0.344  -0.319   0.017
    1UNL    C16   23   0.198  -0.196  -0.137
    1UNL     O8   24   0.100  -0.304  -0.114
    1UNL     H1   25  -0.167  -0.321   0.149
    1UNL     H2   26  -0.078  -0.219   0.024
    1UNL     H3   27  -0.011  -0.270   0.187
    1UNL     H4   28  -0.247  -0.225   0.340
    1UNL     H5   29  -0.341  -0.096   0.282
    1UNL     H6   30  -0.217  -0.048   0.389
    1UNL     H7   31  -0.220   0.125   0.305
    1UNL     H8   32  -0.113   0.223   0.221
    1UNL     H9   33  -0.371   0.113   0.081
    1UNL    H10   34  -0.340   0.286   0.118
    1UNL    H11   35  -0.264   0.228  -0.254
    1UNL    H12   36  -0.339   0.335  -0.141
    1UNL    H13   37  -0.407   0.169  -0.178
    1UNL    H14   38  -0.093   0.364  -0.106
    1UNL    H15   39  -0.080   0.123  -0.192
    1UNL    H16   40  -0.156  -0.103  -0.144
    1UNL    H17   41   0.042   0.110   0.041
    1UNL    H18   42   0.052  -0.024  -0.203
    1UNL    H19   43   0.408   0.058  -0.067
    1UNL    H20   44   0.290   0.255   0.052
    1UNL    H21   45   0.265   0.127   0.183
    1UNL    H22   46   0.509   0.232   0.074
    1UNL    H23   47   0.416  -0.095   0.107
    1UNL    H24   48   0.143  -0.099   0.092
    1UNL    H25   49   0.423  -0.178  -0.107
    1UNL    H26   50   0.290  -0.323   0.098
    1UNL    H27   51   0.215  -0.214  -0.243
    1UNL    H28   52   0.152  -0.374  -0.066
   0.00000   0.00000   0.00000   0.00000   0.00000   0.00000   0.00000   0.00000   0.00000
Generated with MDTraj, t= 17.0
 52
    1UNL     C1    1  -0.080  -0.232   0.163
    1UNL     C2    2  -0.155  -0.104   0.207
    1UNL     C3    3  -0.251  -0.117   0.326
    1UNL     C4    4  -0.133   0.017   0.155
    1UNL     C5    5  -0.201   0.136   0.204
    1UNL     C6    6  -0.294   0.194   0.093
    1UNL     C7    7  -0.228   0.217  -0.050
    1UNL     C8    8  -0.326   0.247  -0.165
    1UNL     O1    9  -0.138   0.331  -0.040
    1UNL     C9   10  -0.139   0.083  -0.094
    1UNL     O2   11  -0.218  -0.028  -0.143
    1UNL    C10   12  -0.049   0.040   0.031
    1UNL     O3   13   0.031  -0.080  -0.011
    1UNL    C11   14   0.124  -0.059  -0.108
    1UNL     O4   15   0.202   0.057  -0.104
    1UNL    C12   16   0.325   0.052  -0.028
    1UNL    C13   17   0.327   0.166   0.071
    1UNL     O5   18   0.441   0.166   0.163
    1UNL    C14   19   0.344  -0.090   0.043
    1UNL     O6   20   0.257  -0.122   0.155
    1UNL    C15   21   0.325  -0.205  -0.055
    1UNL     O7   22   0.326  -0.321   0.028
    1UNL    C16   23   0.206  -0.191  -0.141
    1UNL     O8   24   0.120  -0.306  -0.142
    1UNL     H1   25  -0.132  -0.326   0.182
    1UNL     H2   26  -0.062  -0.223   0.054
    1UNL     H3   27   0.013  -0.240   0.220
    1UNL     H4   28  -0.290  -0.222   0.323
    1UNL     H5   29  -0.340  -0.060   0.327
    1UNL     H6   30  -0.203  -0.086   0.415
    1UNL     H7   31  -0.254   0.122   0.300
    1UNL     H8   32  -0.115   0.202   0.224
    1UNL     H9   33  -0.377   0.123   0.081
    1UNL    H10   34  -0.330   0.295   0.128
    1UNL    H11   35  -0.283   0.281  -0.266
    1UNL    H12   36  -0.389   0.327  -0.138
    1UNL    H13   37  -0.388   0.162  -0.188
    1UNL    H14   38  -0.098   0.355  -0.129
    1UNL    H15   39  -0.067   0.117  -0.182
    1UNL    H16   40  -0.155  -0.104  -0.133
    1UNL    H17   41   0.024   0.113   0.048
    1UNL    H18   42   0.062  -0.036  -0.195
    1UNL    H19   43   0.412   0.070  -0.098
    1UNL    H20   44   0.327   0.261   0.015
    1UNL    H21   45   0.242   0.163   0.136
    1UNL    H22   46   0.522   0.167   0.106
    1UNL    H23   47   0.439  -0.095   0.083
    1UNL    H24   48   0.166  -0.116   0.113
    1UNL    H25   49   0.426  -0.202  -0.113
    1UNL    H26   50   0.267  -0.299   0.105
    1UNL    H27   51   0.239  -0.193  -0.249
    1UNL    H28   52   0.182  -0.380  -0.155
   0.00000   0.00000   0.00000   0.00000   0.00000   0.00000   0.00000   0.00000   0.00000
Generated with MDTraj, t= 18.0
 52
    1UNL     C1    1  -0.100  -0.228   0.194
    1UNL     C2    2  -0.152  -0.095   0.233
    1UNL     C3    3  -0.253  -0.099   0.343
    1UNL     C4    4  -0.128   0.018   0.157
    1UNL     C5    5  -0.214   0.145   0.187
    1UNL     C6    6  -0.311   0.166   0.069
    1UNL     C7    7  -0.217   0.205  -0.053
    1UNL     C8    8  -0.296   0.258  -0.173
    1UNL     O1    9  -0.136   0.316  -0.020
    1UNL     C9   10  -0.131   0.073  -0.088
    1UNL     O2   11  -0.215  -0.036  -0.131
    1UNL    C10   12  -0.038   0.037   0.028
    1UNL     O3   13   0.026  -0.085  -0.009
    1UNL    C11   14   0.111  -0.064  -0.117
    1UNL     O4   15   0.184   0.060  -0.082
    1UNL    C12   16   0.315   0.051  -0.016
    1UNL    C13   17   0.336   0.171   0.068
    1UNL     O5   18   0.444   0.166   0.156
    1UNL    C14   19   0.341  -0.089   0.043
    1UNL     O6   20   0.256  -0.123   0.152
    1UNL    C15   21   0.329  -0.199  -0.058
    1UNL     O7   22   0.309  -0.322   0.015
    1UNL    C16   23   0.216  -0.179  -0.159
    1UNL     O8   24   0.142  -0.298  -0.181
    1UNL     H1   25  -0.113  -0.309   0.268
    1UNL     H2   26  -0.148  -0.261   0.107
    1UNL     H3   27   0.012  -0.236   0.177
    1UNL     H4   28  -0.252  -0.191   0.405
    1UNL     H5   29  -0.353  -0.095   0.306
    1UNL     H6   30  -0.238  -0.005   0.388
    1UNL     H7   31  -0.263   0.134   0.283
    1UNL     H8   32  -0.153   0.237   0.185
    1UNL     H9   33  -0.357   0.069   0.046
    1UNL    H10   34  -0.386   0.246   0.099
    1UNL    H11   35  -0.231   0.300  -0.256
    1UNL    H12   36  -0.358   0.343  -0.153
    1UNL    H13   37  -0.348   0.177  -0.218
    1UNL    H14   38  -0.083   0.345  -0.098
    1UNL    H15   39  -0.071   0.098  -0.187
    1UNL    H16   40  -0.162  -0.116  -0.118
    1UNL    H17   41   0.036   0.111   0.040
    1UNL    H18   42   0.058  -0.021  -0.203
    1UNL    H19   43   0.389   0.062  -0.101
    1UNL    H20   44   0.342   0.270   0.018
    1UNL    H21   45   0.252   0.172   0.133
    1UNL    H22   46   0.527   0.146   0.109
    1UNL    H23   47   0.433  -0.093   0.094
    1UNL    H24   48   0.168  -0.090   0.127
    1UNL    H25   49   0.429  -0.214  -0.110
    1UNL    H26   50   0.278  -0.307   0.107
    1UNL    H27   51   0.252  -0.157  -0.266
    1UNL    H28   52   0.140  -0.331  -0.088
   0.00000   0.00000   0.00000   0.00000   0.00000   0.00000   0.00000   0.00000   0.00000
Generated with MDTraj, t= 19.0
 52
    1UNL     C1    1  -0.085  -0.243   0.194
    1UNL     C2    2  -0.150  -0.113   0.231
    1UNL     C3    3  -0.228  -0.122   0.365
    1UNL     C4    4  -0.150  -0.002   0.151
    1UNL     C5    5  -0.228   0.123   0.191
    1UNL     C6    6  -0.297   0.185   0.062
    1UNL     C7    7  -0.212   0.202  -0.063
    1UNL     C8    8  -0.295   0.247  -0.188
    1UNL     O1    9  -0.107   0.307  -0.040
    1UNL     C9   10  -0.134   0.071  -0.086
    1UNL     O2   11  -0.216  -0.028  -0.143
    1UNL    C10   12  -0.056   0.021   0.032
    1UNL     O3   13   0.026  -0.090  -0.006
    1UNL    C11   14   0.115  -0.048  -0.114
    1UNL     O4   15   0.188   0.075  -0.088
    1UNL    C12   16   0.319   0.057  -0.018
    1UNL    C13   17   0.342   0.160   0.094
    1UNL     O5   18   0.477   0.170   0.125
    1UNL    C14   19   0.332  -0.084   0.054
    1UNL     O6   20   0.241  -0.081   0.169
    1UNL    C15   21   0.309  -0.204  -0.042
    1UNL     O7   22   0.269  -0.321   0.024
    1UNL    C16   23   0.210  -0.163  -0.154
    1UNL     O8   24   0.139  -0.281  -0.192
    1UNL     H1   25  -0.143  -0.331   0.228
    1UNL     H2   26  -0.076  -0.244   0.090
    1UNL     H3   27   0.015  -0.246   0.245
    1UNL     H4   28  -0.236  -0.225   0.401
    1UNL     H5   29  -0.333  -0.100   0.361
    1UNL     H6   30  -0.185  -0.050   0.432
    1UNL     H7   31  -0.310   0.092   0.256
    1UNL     H8   32  -0.156   0.187   0.244
    1UNL     H9   33  -0.386   0.122   0.043
    1UNL    H10   34  -0.327   0.288   0.098
    1UNL    H11   35  -0.241   0.224  -0.278
    1UNL    H12   36  -0.313   0.357  -0.191
    1UNL    H13   37  -0.384   0.185  -0.192
    1UNL    H14   38  -0.021   0.275  -0.069
    1UNL    H15   39  -0.064   0.100  -0.176
    1UNL    H16   40  -0.161  -0.104  -0.172
    1UNL    H17   41   0.017   0.096   0.055
    1UNL    H18   42   0.053  -0.018  -0.201
    1UNL    H19   43   0.386   0.073  -0.104
    1UNL    H20   44   0.308   0.261   0.061
    1UNL    H21   45   0.292   0.140   0.186
    1UNL    H22   46   0.531   0.219   0.060
    1UNL    H23   47   0.430  -0.081   0.095
    1UNL    H24   48   0.151  -0.079   0.133
    1UNL    H25   49   0.405  -0.232  -0.090
    1UNL    H26   50   0.314  -0.329   0.109
    1UNL    H27   51   0.248  -0.138  -0.260
    1UNL    H28   52   0.102  -0.307  -0.105
   0.00000   0.00000   0.00000   0.00000   0.00000   0.00000   0.00000   0.00000   0.00000
Generated with MDTraj, t= 20.0
 52
    1UNL     C1    1  -0.070  -0.244   0.166
    1UNL     C2    2  -0.134  -0.117   0.212
    1UNL     C3    3  -0.229  -0.132   0.321
    1UNL     C4    4  -0.124  -0.001   0.143
    1UNL     C5    5  -0.206   0.118   0.183
    1UNL     C6    6  -0.301   0.173   0.071
    1UNL     C7    7  -0.221   0.211  -0.054
    1UNL     C8    8  -0.315   0.258  -0.164
    1UNL     O1    9  -0.116   0.300  -0.013
    1UNL     C9   10  -0.152   0.080  -0.099
    1UNL     O2   11  -0.252  -0.022  -0.128
    1UNL    C10   12  -0.061   0.017   0.013
    1UNL     O3   13   0.009  -0.095  -0.048
    1UNL    C11   14   0.130  -0.050  -0.118
    1UNL     O4   15   0.190   0.061  -0.062
    1UNL    C12   16   0.325   0.043  -0.016
    1UNL    C13   17   0.372   0.180   0.056
    1UNL     O5   18   0.504   0.184   0.105
    1UNL    C14   19   0.332  -0.084   0.084
    1UNL     O6   20   0.243  -0.054   0.186
    1UNL    C15   21   0.299  -0.217  -0.002
    1UNL     O7   22   0.217  -0.315   0.058
    1UNL    C16   23   0.225  -0.174  -0.137
    1UNL     O8   24   0.158  -0.285  -0.194
    1UNL     H1   25  -0.135  -0.328   0.141
    1UNL     H2   26  -0.006  -0.225   0.077
    1UNL     H3   27  -0.004  -0.277   0.246
    1UNL     H4   28  -0.216  -0.232   0.357
    1UNL     H5   29  -0.333  -0.139   0.292
    1UNL     H6   30  -0.216  -0.053   0.395
    1UNL     H7   31  -0.259   0.097   0.275
    1UNL     H8   32  -0.133   0.196   0.205
    1UNL     H9   33  -0.367   0.087   0.045
    1UNL    H10   34  -0.361   0.262   0.104
    1UNL    H11   35  -0.257   0.280  -0.246
    1UNL    H12   36  -0.363   0.354  -0.131
    1UNL    H13   37  -0.382   0.174  -0.189
    1UNL    H14   38  -0.064   0.311  -0.091
    1UNL    H15   39  -0.095   0.104  -0.196
    1UNL    H16   40  -0.204  -0.093  -0.180
    1UNL    H17   41   0.017   0.090   0.036
    1UNL    H18   42   0.107  -0.007  -0.221
    1UNL    H19   43   0.379   0.023  -0.107
    1UNL    H20   44   0.352   0.268  -0.011
    1UNL    H21   45   0.303   0.195   0.138
    1UNL    H22   46   0.570   0.166   0.032
    1UNL    H23   47   0.437  -0.093   0.114
    1UNL    H24   48   0.159  -0.037   0.135
    1UNL    H25   49   0.395  -0.258  -0.020
    1UNL    H26   50   0.268  -0.369   0.124
    1UNL    H27   51   0.300  -0.144  -0.218
    1UNL    H28   52   0.095  -0.309  -0.123
   0.00000   0.00000   0.00000   0.00000   0.00000   0.00000   0.00000   0.00000   0.00000
Generated with MDTraj, t= 21.0
 52
    1UNL     C1    1  -0.097  -0.255   0.127
    1UNL     C2    2  -0.141  -0.130   0.187
    1UNL     C3    3  -0.223  -0.154   0.306
    1UNL     C4    4  -0.123  -0.007   0.135
    1UNL     C5    5  -0.201   0.112   0.188
    1UNL     C6    6  -0.304   0.164   0.091
    1UNL     C7    7  -0.225   0.206  -0.041
    1UNL     C8    8  -0.333   0.254  -0.134
    1UNL     O1    9  -0.128   0.308  -0.019
    1UNL     C9   10  -0.154   0.083  -0.098
    1UNL     O2   11  -0.250  -0.017  -0.128
    1UNL    C10   12  -0.055   0.021   0.008
    1UNL     O3   13   0.021  -0.088  -0.040
    1UNL    C11   14   0.142  -0.054  -0.124
    1UNL     O4   15   0.205   0.068  -0.083
    1UNL    C12   16   0.334   0.051  -0.027
    1UNL    C13   17   0.394   0.170   0.049
    1UNL     O5   18   0.529   0.142   0.082
    1UNL    C14   19   0.320  -0.059   0.085
    1UNL     O6   20   0.212  -0.018   0.169
    1UNL    C15   21   0.295  -0.199   0.023
    1UNL     O7   22   0.198  -0.288   0.089
    1UNL    C16   23   0.235  -0.179  -0.123
    1UNL     O8   24   0.175  -0.294  -0.167
    1UNL     H1   25  -0.172  -0.318   0.077
    1UNL     H2   26  -0.016  -0.239   0.051
    1UNL     H3   27  -0.051  -0.320   0.197
    1UNL     H4   28  -0.252  -0.255   0.306
    1UNL     H5   29  -0.320  -0.106   0.308
    1UNL     H6   30  -0.167  -0.121   0.395
    1UNL     H7   31  -0.244   0.091   0.286
    1UNL     H8   32  -0.136   0.196   0.215
    1UNL     H9   33  -0.381   0.091   0.051
    1UNL    H10   34  -0.354   0.249   0.142
    1UNL    H11   35  -0.282   0.297  -0.215
    1UNL    H12   36  -0.388   0.337  -0.085
    1UNL    H13   37  -0.396   0.169  -0.168
    1UNL    H14   38  -0.060   0.317  -0.089
    1UNL    H15   39  -0.096   0.113  -0.192
    1UNL    H16   40  -0.193  -0.083  -0.173
    1UNL    H17   41   0.018   0.103   0.022
    1UNL    H18   42   0.097  -0.036  -0.228
    1UNL    H19   43   0.400   0.020  -0.108
    1UNL    H20   44   0.391   0.257  -0.023
    1UNL    H21   45   0.333   0.197   0.134
    1UNL    H22   46   0.581   0.129  -0.002
    1UNL    H23   47   0.403  -0.073   0.159
    1UNL    H24   48   0.136  -0.023   0.108
    1UNL    H25   49   0.383  -0.256   0.019
    1UNL    H26   50   0.227  -0.337   0.169
    1UNL    H27   51   0.326  -0.158  -0.185
    1UNL    H28   52   0.122  -0.327  -0.091
   0.00000   0.00000   0.00000   0.00000   0.00000   0.00000   0.00000   0.00000   0.00000
Generated with MDTraj, t= 22.0
 52
    1UNL     C1    1  -0.137  -0.253   0.086
    1UNL     C2    2  -0.164  -0.134   0.173
    1UNL     C3    3  -0.230  -0.154   0.307
    1UNL     C4    4  -0.132  -0.007   0.139
    1UNL     C5    5  -0.198   0.109   0.204
    1UNL     C6    6  -0.285   0.168   0.100
    1UNL     C7    7  -0.228   0.205  -0.041
    1UNL     C8    8  -0.349   0.236  -0.126
    1UNL     O1    9  -0.138   0.318  -0.029
    1UNL     C9   10  -0.136   0.084  -0.089
    1UNL     O2   11  -0.214  -0.014  -0.151
    1UNL    C10   12  -0.047   0.023   0.018
    1UNL     O3   13   0.030  -0.086  -0.019
    1UNL    C11   14   0.139  -0.058  -0.113
    1UNL     O4   15   0.201   0.067  -0.076
    1UNL    C12   16   0.336   0.055  -0.030
    1UNL    C13   17   0.394   0.179   0.024
    1UNL     O5   18   0.520   0.163   0.079
    1UNL    C14   19   0.333  -0.069   0.080
    1UNL     O6   20   0.233  -0.037   0.179
    1UNL    C15   21   0.301  -0.205   0.011
    1UNL     O7   22   0.213  -0.288   0.094
    1UNL    C16   23   0.232  -0.185  -0.125
    1UNL     O8   24   0.153  -0.293  -0.145
    1UNL     H1   25  -0.143  -0.226  -0.022
    1UNL     H2   26  -0.038  -0.280   0.109
    1UNL     H3   27  -0.211  -0.329   0.107
    1UNL     H4   28  -0.224  -0.247   0.353
    1UNL     H5   29  -0.337  -0.140   0.300
    1UNL     H6   30  -0.189  -0.071   0.368
    1UNL     H7   31  -0.253   0.088   0.296
    1UNL     H8   32  -0.129   0.181   0.245
    1UNL     H9   33  -0.378   0.102   0.095
    1UNL    H10   34  -0.315   0.275   0.119
    1UNL    H11   35  -0.325   0.233  -0.234
    1UNL    H12   36  -0.387   0.334  -0.106
    1UNL    H13   37  -0.426   0.162  -0.107
    1UNL    H14   38  -0.060   0.332  -0.092
    1UNL    H15   39  -0.074   0.119  -0.174
    1UNL    H16   40  -0.153  -0.071  -0.199
    1UNL    H17   41   0.030   0.106   0.036
    1UNL    H18   42   0.078  -0.052  -0.210
    1UNL    H19   43   0.399   0.028  -0.114
    1UNL    H20   44   0.393   0.265  -0.048
    1UNL    H21   45   0.332   0.205   0.109
    1UNL    H22   46   0.584   0.106   0.032
    1UNL    H23   47   0.426  -0.067   0.143
    1UNL    H24   48   0.146  -0.048   0.134
    1UNL    H25   49   0.393  -0.257  -0.002
    1UNL    H26   50   0.247  -0.294   0.184
    1UNL    H27   51   0.298  -0.175  -0.213
    1UNL    H28   52   0.095  -0.311  -0.068
   0.00000   0.00000   0.00000   0.00000   0.00000   0.00000   0.00000   0.00000   0.00000
Generated with MDTraj, t= 23.0
 52
    1UNL     C1    1  -0.133  -0.252   0.124
    1UNL     C2    2  -0.179  -0.123   0.187
    1UNL     C3    3  -0.276  -0.126   0.301
    1UNL     C4    4  -0.136  -0.006   0.142
    1UNL     C5    5  -0.209   0.111   0.194
    1UNL     C6    6  -0.301   0.167   0.086
    1UNL     C7    7  -0.219   0.207  -0.039
    1UNL     C8    8  -0.316   0.235  -0.143
    1UNL     O1    9  -0.145   0.330  -0.021
    1UNL     C9   10  -0.121   0.089  -0.083
    1UNL     O2   11  -0.205  -0.018  -0.134
    1UNL    C10   12  -0.038   0.025   0.030
    1UNL     O3   13   0.035  -0.084  -0.006
    1UNL    C11   14   0.128  -0.058  -0.111
    1UNL     O4   15   0.199   0.061  -0.078
    1UNL    C12   16   0.332   0.053  -0.024
    1UNL    C13   17   0.365   0.181   0.044
    1UNL     O5   18   0.501   0.199   0.075
    1UNL    C14   19   0.349  -0.081   0.070
    1UNL     O6   20   0.260  -0.067   0.172
    1UNL    C15   21   0.316  -0.211  -0.012
    1UNL     O7   22   0.252  -0.313   0.072
    1UNL    C16   23   0.224  -0.188  -0.136
    1UNL     O8   24   0.143  -0.301  -0.156
    1UNL     H1   25  -0.094  -0.233   0.028
    1UNL     H2   26  -0.054  -0.296   0.181
    1UNL     H3   27  -0.219  -0.319   0.110
    1UNL     H4   28  -0.316  -0.222   0.320
    1UNL     H5   29  -0.367  -0.070   0.288
    1UNL     H6   30  -0.218  -0.086   0.384
    1UNL     H7   31  -0.264   0.107   0.288
    1UNL     H8   32  -0.137   0.183   0.232
    1UNL     H9   33  -0.364   0.084   0.039
    1UNL    H10   34  -0.379   0.237   0.128
    1UNL    H11   35  -0.270   0.301  -0.224
    1UNL    H12   36  -0.402   0.282  -0.107
    1UNL    H13   37  -0.343   0.140  -0.187
    1UNL    H14   38  -0.064   0.342  -0.080
    1UNL    H15   39  -0.060   0.118  -0.167
    1UNL    H16   40  -0.150  -0.099  -0.132
    1UNL    H17   41   0.039   0.100   0.077
    1UNL    H18   42   0.067  -0.051  -0.208
    1UNL    H19   43   0.400   0.042  -0.108
    1UNL    H20   44   0.328   0.266  -0.020
    1UNL    H21   45   0.311   0.182   0.136
    1UNL    H22   46   0.545   0.176  -0.009
    1UNL    H23   47   0.454  -0.084   0.116
    1UNL    H24   48   0.176  -0.057   0.122
    1UNL    H25   49   0.410  -0.256  -0.043
    1UNL    H26   50   0.228  -0.274   0.161
    1UNL    H27   51   0.267  -0.169  -0.233
    1UNL    H28   52   0.099  -0.330  -0.071
   0.00000   0.00000   0.00000   0.00000   0.00000   0.00000   0.00000   0.00000   0.00000
Generated with MDTraj, t= 24.0
 52
    1UNL     C1    1  -0.092  -0.237   0.196
    1UNL     C2    2  -0.184  -0.114   0.210
    1UNL     C3    3  -0.309  -0.132   0.294
    1UNL     C4    4  -0.158   0.007   0.161
    1UNL     C5    5  -0.240   0.126   0.194
    1UNL     C6    6  -0.302   0.178   0.064
    1UNL     C7    7  -0.202   0.207  -0.051
    1UNL     C8    8  -0.283   0.248  -0.174
    1UNL     O1    9  -0.102   0.307  -0.006
    1UNL     C9   10  -0.125   0.078  -0.078
    1UNL     O2   11  -0.202  -0.029  -0.145
    1UNL    C10   12  -0.047   0.021   0.047
    1UNL     O3   13   0.025  -0.094   0.008
    1UNL    C11   14   0.116  -0.056  -0.096
    1UNL     O4   15   0.177   0.071  -0.079
    1UNL    C12   16   0.308   0.062  -0.030
    1UNL    C13   17   0.350   0.175   0.065
    1UNL     O5   18   0.494   0.179   0.076
    1UNL    C14   19   0.338  -0.072   0.052
    1UNL     O6   20   0.254  -0.082   0.164
    1UNL    C15   21   0.325  -0.196  -0.038
    1UNL     O7   22   0.305  -0.315   0.040
    1UNL    C16   23   0.210  -0.181  -0.142
    1UNL     O8   24   0.139  -0.300  -0.174
    1UNL     H1   25  -0.100  -0.291   0.106
    1UNL     H2   26   0.014  -0.215   0.202
    1UNL     H3   27  -0.111  -0.315   0.268
    1UNL     H4   28  -0.290  -0.231   0.339
    1UNL     H5   29  -0.402  -0.153   0.244
    1UNL     H6   30  -0.314  -0.063   0.374
    1UNL     H7   31  -0.309   0.090   0.268
    1UNL     H8   32  -0.193   0.208   0.246
    1UNL     H9   33  -0.374   0.095   0.036
    1UNL    H10   34  -0.370   0.264   0.087
    1UNL    H11   35  -0.214   0.244  -0.262
    1UNL    H12   36  -0.302   0.353  -0.158
    1UNL    H13   37  -0.378   0.199  -0.190
    1UNL    H14   38  -0.028   0.297  -0.069
    1UNL    H15   39  -0.057   0.090  -0.158
    1UNL    H16   40  -0.153  -0.113  -0.126
    1UNL    H17   41   0.039   0.085   0.097
    1UNL    H18   42   0.054  -0.049  -0.190
    1UNL    H19   43   0.374   0.065  -0.119
    1UNL    H20   44   0.326   0.271   0.015
    1UNL    H21   45   0.307   0.172   0.163
    1UNL    H22   46   0.533   0.198  -0.014
    1UNL    H23   47   0.443  -0.066   0.102
    1UNL    H24   48   0.167  -0.096   0.121
    1UNL    H25   49   0.423  -0.218  -0.085
    1UNL    H26   50   0.300  -0.294   0.135
    1UNL    H27   51   0.258  -0.146  -0.228
    1UNL    H28   52   0.164  -0.349  -0.093
   0.00000   0.00000   0.00000   0.00000   0.00000   0.00000   0.00000   0.00000   0.00000
Generated with MDTraj, t= 25.0
 52
    1UNL     C1    1  -0.078  -0.232   0.224
    1UNL     C2    2  -0.176  -0.116   0.227
    1UNL     C3    3  -0.290  -0.147   0.329
    1UNL     C4    4  -0.171  -0.012   0.144
    1UNL     C5    5  -0.257   0.118   0.171
    1UNL     C6    6  -0.311   0.181   0.041
    1UNL     C7    7  -0.200   0.210  -0.051
    1UNL     C8    8  -0.240   0.269  -0.188
    1UNL     O1    9  -0.104   0.294   0.017
    1UNL     C9   10  -0.128   0.077  -0.094
    1UNL     O2   11  -0.230  -0.006  -0.145
    1UNL    C10   12  -0.061   0.014   0.034
    1UNL     O3   13   0.010  -0.095  -0.000
    1UNL    C11   14   0.113  -0.064  -0.098
    1UNL     O4   15   0.178   0.060  -0.073
    1UNL    C12   16   0.316   0.056  -0.029
    1UNL    C13   17   0.354   0.188   0.047
    1UNL     O5   18   0.479   0.193   0.110
    1UNL    C14   19   0.352  -0.077   0.041
    1UNL     O6   20   0.266  -0.078   0.150
    1UNL    C15   21   0.327  -0.202  -0.045
    1UNL     O7   22   0.328  -0.314   0.034
    1UNL    C16   23   0.201  -0.181  -0.142
    1UNL     O8   24   0.126  -0.300  -0.158
    1UNL     H1   25  -0.126  -0.314   0.174
    1UNL     H2   26   0.004  -0.205   0.159
    1UNL     H3   27  -0.051  -0.267   0.320
    1UNL     H4   28  -0.304  -0.256   0.338
    1UNL     H5   29  -0.387  -0.110   0.304
    1UNL     H6   30  -0.264  -0.111   0.423
    1UNL     H7   31  -0.336   0.112   0.244
    1UNL     H8   32  -0.186   0.181   0.221
    1UNL     H9   33  -0.388   0.109  -0.001
    1UNL    H10   34  -0.370   0.269   0.078
    1UNL    H11   35  -0.155   0.314  -0.236
    1UNL    H12   36  -0.317   0.345  -0.161
    1UNL    H13   37  -0.290   0.192  -0.247
    1UNL    H14   38  -0.026   0.308  -0.037
    1UNL    H15   39  -0.059   0.093  -0.173
    1UNL    H16   40  -0.194  -0.091  -0.173
    1UNL    H17   41   0.008   0.096   0.085
    1UNL    H18   42   0.048  -0.054  -0.188
    1UNL    H19   43   0.371   0.053  -0.127
    1UNL    H20   44   0.356   0.275  -0.021
    1UNL    H21   45   0.286   0.201   0.129
    1UNL    H22   46   0.559   0.185   0.051
    1UNL    H23   47   0.457  -0.072   0.093
    1UNL    H24   48   0.174  -0.085   0.115
    1UNL    H25   49   0.416  -0.226  -0.111
    1UNL    H26   50   0.284  -0.294   0.122
    1UNL    H27   51   0.225  -0.159  -0.244
    1UNL    H28   52   0.092  -0.327  -0.069
   0.00000   0.00000   0.00000   0.00000   0.00000   0.00000   0.00000   0.00000   0.00000
Generated with MDTraj, t= 26.0
 52
    1UNL     C1    1  -0.085  -0.249   0.183
    1UNL     C2    2  -0.156  -0.122   0.221
    1UNL     C3    3  -0.248  -0.134   0.340
    1UNL     C4    4  -0.155  -0.011   0.143
    1UNL     C5    5  -0.257   0.109   0.166
    1UNL     C6    6  -0.320   0.173   0.035
    1UNL     C7    7  -0.202   0.223  -0.045
    1UNL     C8    8  -0.263   0.301  -0.173
    1UNL     O1    9  -0.117   0.297   0.036
    1UNL     C9   10  -0.119   0.092  -0.092
    1UNL     O2   11  -0.200  -0.005  -0.153
    1UNL    C10   12  -0.051   0.019   0.032
    1UNL     O3   13   0.018  -0.095  -0.009
    1UNL    C11   14   0.112  -0.071  -0.114
    1UNL     O4   15   0.182   0.061  -0.104
    1UNL    C12   16   0.310   0.056  -0.038
    1UNL    C13   17   0.338   0.170   0.050
    1UNL     O5   18   0.471   0.184   0.095
    1UNL    C14   19   0.334  -0.069   0.049
    1UNL     O6   20   0.244  -0.081   0.157
    1UNL    C15   21   0.318  -0.203  -0.026
    1UNL     O7   22   0.311  -0.306   0.066
    1UNL    C16   23   0.208  -0.195  -0.135
    1UNL     O8   24   0.134  -0.313  -0.144
    1UNL     H1   25  -0.122  -0.281   0.086
    1UNL     H2   26   0.021  -0.237   0.176
    1UNL     H3   27  -0.114  -0.325   0.247
    1UNL     H4   28  -0.218  -0.201   0.421
    1UNL     H5   29  -0.345  -0.169   0.314
    1UNL     H6   30  -0.258  -0.037   0.379
    1UNL     H7   31  -0.330   0.075   0.238
    1UNL     H8   32  -0.209   0.192   0.214
    1UNL     H9   33  -0.388   0.093  -0.006
    1UNL    H10   34  -0.391   0.256   0.063
    1UNL    H11   35  -0.196   0.294  -0.252
    1UNL    H12   36  -0.288   0.411  -0.160
    1UNL    H13   37  -0.356   0.252  -0.203
    1UNL    H14   38  -0.036   0.319  -0.012
    1UNL    H15   39  -0.045   0.130  -0.160
    1UNL    H16   40  -0.141  -0.084  -0.164
    1UNL    H17   41   0.021   0.103   0.076
    1UNL    H18   42   0.048  -0.059  -0.202
    1UNL    H19   43   0.379   0.051  -0.126
    1UNL    H20   44   0.310   0.259  -0.009
    1UNL    H21   45   0.281   0.151   0.141
    1UNL    H22   46   0.527   0.199   0.017
    1UNL    H23   47   0.440  -0.061   0.098
    1UNL    H24   48   0.152  -0.072   0.129
    1UNL    H25   49   0.418  -0.218  -0.082
    1UNL    H26   50   0.295  -0.261   0.151
    1UNL    H27   51   0.241  -0.174  -0.239
    1UNL    H28   52   0.149  -0.372  -0.067
   0.00000   0.00000   0.00000   0.00000   0.00000   0.00000   0.00000   0.00000   0.00000
Generated with MDTraj, t= 27.0
 52
    1UNL     C1    1  -0.095  -0.267   0.161
    1UNL     C2    2  -0.148  -0.137   0.203
    1UNL     C3    3  -0.227  -0.147   0.335
    1UNL     C4    4  -0.144  -0.016   0.142
    1UNL     C5    5  -0.223   0.101   0.186
    1UNL     C6    6  -0.303   0.172   0.068
    1UNL     C7    7  -0.200   0.213  -0.042
    1UNL     C8    8  -0.286   0.282  -0.158
    1UNL     O1    9  -0.115   0.325   0.005
    1UNL     C9   10  -0.107   0.098  -0.086
    1UNL     O2   11  -0.170   0.010  -0.174
    1UNL    C10   12  -0.047   0.017   0.030
    1UNL     O3   13   0.022  -0.105  -0.022
    1UNL    C11   14   0.113  -0.072  -0.120
    1UNL     O4   15   0.186   0.050  -0.105
    1UNL    C12   16   0.305   0.051  -0.031
    1UNL    C13   17   0.334   0.191   0.030
    1UNL     O5   18   0.467   0.206   0.080
    1UNL    C14   19   0.323  -0.071   0.071
    1UNL     O6   20   0.227  -0.078   0.175
    1UNL    C15   21   0.305  -0.205  -0.007
    1UNL     O7   22   0.249  -0.295   0.088
    1UNL    C16   23   0.213  -0.192  -0.131
    1UNL     O8   24   0.132  -0.305  -0.156
    1UNL     H1   25  -0.119  -0.304   0.063
    1UNL     H2   26   0.012  -0.264   0.164
    1UNL     H3   27  -0.130  -0.344   0.223
    1UNL     H4   28  -0.242  -0.249   0.368
    1UNL     H5   29  -0.329  -0.119   0.320
    1UNL     H6   30  -0.186  -0.087   0.414
    1UNL     H7   31  -0.287   0.068   0.267
    1UNL     H8   32  -0.151   0.169   0.227
    1UNL     H9   33  -0.389   0.103   0.045
    1UNL    H10   34  -0.359   0.261   0.111
    1UNL    H11   35  -0.244   0.358  -0.219
    1UNL    H12   36  -0.384   0.315  -0.116
    1UNL    H13   37  -0.318   0.208  -0.233
    1UNL    H14   38  -0.039   0.343  -0.054
    1UNL    H15   39  -0.021   0.154  -0.126
    1UNL    H16   40  -0.124  -0.076  -0.150
    1UNL    H17   41   0.041   0.078   0.079
    1UNL    H18   42   0.053  -0.056  -0.207
    1UNL    H19   43   0.390   0.040  -0.104
    1UNL    H20   44   0.321   0.266  -0.050
    1UNL    H21   45   0.265   0.204   0.114
    1UNL    H22   46   0.534   0.186   0.013
    1UNL    H23   47   0.426  -0.063   0.126
    1UNL    H24   48   0.138  -0.097   0.135
    1UNL    H25   49   0.405  -0.253  -0.040
    1UNL    H26   50   0.294  -0.277   0.176
    1UNL    H27   51   0.287  -0.177  -0.217
    1UNL    H28   52   0.113  -0.345  -0.068
   0.00000   0.00000   0.00000   0.00000   0.00000   0.00000   0.00000   0.00000   0.00000
Generated with MDTraj, t= 28.0
 52
    1UNL     C1    1  -0.101  -0.256   0.126
    1UNL     C2    2  -0.154  -0.129   0.192
    1UNL     C3    3  -0.257  -0.140   0.290
    1UNL     C4    4  -0.114  -0.008   0.152
    1UNL     C5    5  -0.184   0.117   0.203
    1UNL     C6    6  -0.281   0.175   0.099
    1UNL     C7    7  -0.208   0.205  -0.030
    1UNL     C8    8  -0.297   0.261  -0.145
    1UNL     O1    9  -0.116   0.313  -0.007
    1UNL     C9   10  -0.133   0.080  -0.085
    1UNL     O2   11  -0.213  -0.026  -0.140
    1UNL    C10   12  -0.043   0.021   0.026
    1UNL     O3   13   0.019  -0.103  -0.035
    1UNL    C11   14   0.122  -0.074  -0.125
    1UNL     O4   15   0.186   0.051  -0.097
    1UNL    C12   16   0.316   0.051  -0.029
    1UNL    C13   17   0.350   0.192   0.035
    1UNL     O5   18   0.483   0.194   0.079
    1UNL    C14   19   0.321  -0.071   0.077
    1UNL     O6   20   0.228  -0.053   0.181
    1UNL    C15   21   0.300  -0.204   0.011
    1UNL     O7   22   0.200  -0.267   0.094
    1UNL    C16   23   0.230  -0.187  -0.131
    1UNL     O8   24   0.175  -0.309  -0.183
    1UNL     H1   25  -0.137  -0.285   0.031
    1UNL     H2   26   0.003  -0.243   0.116
    1UNL     H3   27  -0.129  -0.344   0.181
    1UNL     H4   28  -0.256  -0.239   0.325
    1UNL     H5   29  -0.350  -0.122   0.242
    1UNL     H6   30  -0.245  -0.069   0.373
    1UNL     H7   31  -0.235   0.102   0.298
    1UNL     H8   32  -0.107   0.189   0.218
    1UNL     H9   33  -0.365   0.100   0.089
    1UNL    H10   34  -0.334   0.269   0.135
    1UNL    H11   35  -0.258   0.240  -0.247
    1UNL    H12   36  -0.313   0.368  -0.140
    1UNL    H13   37  -0.396   0.216  -0.162
    1UNL    H14   38  -0.033   0.306  -0.062
    1UNL    H15   39  -0.074   0.119  -0.173
    1UNL    H16   40  -0.169  -0.110  -0.163
    1UNL    H17   41   0.043   0.091   0.062
    1UNL    H18   42   0.073  -0.068  -0.218
    1UNL    H19   43   0.396   0.034  -0.104
    1UNL    H20   44   0.332   0.272  -0.041
    1UNL    H21   45   0.283   0.208   0.122
    1UNL    H22   46   0.544   0.187   0.002
    1UNL    H23   47   0.425  -0.065   0.128
    1UNL    H24   48   0.139  -0.073   0.144
    1UNL    H25   49   0.385  -0.280   0.013
    1UNL    H26   50   0.233  -0.268   0.188
    1UNL    H27   51   0.321  -0.165  -0.199
    1UNL    H28   52   0.124  -0.346  -0.106
   0.00000   0.00000   0.00000   0.00000   0.00000   0.00000   0.00000   0.00000   0.00000
Generated with MDTraj, t= 29.0
 52
    1UNL     C1    1  -0.131  -0.257   0.111
    1UNL     C2    2  -0.172  -0.134   0.182
    1UNL     C3    3  -0.269  -0.144   0.293
    1UNL     C4    4  -0.128  -0.011   0.145
    1UNL     C5    5  -0.174   0.116   0.205
    1UNL     C6    6  -0.265   0.192   0.107
    1UNL     C7    7  -0.211   0.202  -0.038
    1UNL     C8    8  -0.307   0.256  -0.149
    1UNL     O1    9  -0.100   0.295  -0.040
    1UNL     C9   10  -0.171   0.054  -0.087
    1UNL     O2   11  -0.281  -0.031  -0.103
    1UNL    C10   12  -0.063   0.011   0.012
    1UNL     O3   13   0.028  -0.095  -0.025
    1UNL    C11   14   0.128  -0.060  -0.117
    1UNL     O4   15   0.206   0.066  -0.088
    1UNL    C12   16   0.344   0.056  -0.025
    1UNL    C13   17   0.379   0.185   0.046
    1UNL     O5   18   0.510   0.183   0.096
    1UNL    C14   19   0.330  -0.062   0.075
    1UNL     O6   20   0.223  -0.039   0.168
    1UNL    C15   21   0.314  -0.194   0.000
    1UNL     O7   22   0.239  -0.282   0.089
    1UNL    C16   23   0.230  -0.179  -0.132
    1UNL     O8   24   0.172  -0.300  -0.169
    1UNL     H1   25  -0.204  -0.285   0.044
    1UNL     H2   26  -0.040  -0.236   0.060
    1UNL     H3   27  -0.127  -0.344   0.174
    1UNL     H4   28  -0.341  -0.214   0.266
    1UNL     H5   29  -0.323  -0.054   0.317
    1UNL     H6   30  -0.224  -0.185   0.383
    1UNL     H7   31  -0.221   0.103   0.303
    1UNL     H8   32  -0.087   0.174   0.227
    1UNL     H9   33  -0.370   0.153   0.099
    1UNL    H10   34  -0.282   0.294   0.155
    1UNL    H11   35  -0.256   0.297  -0.243
    1UNL    H12   36  -0.373   0.330  -0.114
    1UNL    H13   37  -0.354   0.175  -0.208
    1UNL    H14   38  -0.068   0.284  -0.135
    1UNL    H15   39  -0.119   0.052  -0.189
    1UNL    H16   40  -0.257  -0.128  -0.117
    1UNL    H17   41   0.015   0.095   0.021
    1UNL    H18   42   0.084  -0.037  -0.208
    1UNL    H19   43   0.412   0.022  -0.105
    1UNL    H20   44   0.355   0.270  -0.021
    1UNL    H21   45   0.311   0.192   0.134
    1UNL    H22   46   0.577   0.194   0.022
    1UNL    H23   47   0.431  -0.064   0.128
    1UNL    H24   48   0.141  -0.068   0.123
    1UNL    H25   49   0.411  -0.246  -0.015
    1UNL    H26   50   0.273  -0.256   0.176
    1UNL    H27   51   0.285  -0.134  -0.224
    1UNL    H28   52   0.119  -0.322  -0.091
   0.00000   0.00000   0.00000   0.00000   0.00000   0.00000   0.00000   0.00000   0.00000
Generated with MDTraj, t= 30.0
 52
    1UNL     C1    1  -0.133  -0.259   0.126
    1UNL     C2    2  -0.167  -0.130   0.193
    1UNL     C3    3  -0.257  -0.133   0.312
    1UNL     C4    4  -0.141  -0.007   0.142
    1UNL     C5    5  -0.179   0.125   0.198
    1UNL     C6    6  -0.275   0.191   0.091
    1UNL     C7    7  -0.214   0.207  -0.056
    1UNL     C8    8  -0.306   0.255  -0.166
    1UNL     O1    9  -0.107   0.302  -0.038
    1UNL     C9   10  -0.161   0.060  -0.097
    1UNL     O2   11  -0.271  -0.029  -0.120
    1UNL    C10   12  -0.057   0.009   0.013
    1UNL     O3   13   0.022  -0.099  -0.015
    1UNL    C11   14   0.117  -0.058  -0.108
    1UNL     O4   15   0.182   0.066  -0.057
    1UNL    C12   16   0.323   0.051  -0.012
    1UNL    C13   17   0.373   0.181   0.046
    1UNL     O5   18   0.507   0.175   0.095
    1UNL    C14   19   0.338  -0.069   0.080
    1UNL     O6   20   0.239  -0.066   0.184
    1UNL    C15   21   0.326  -0.188  -0.013
    1UNL     O7   22   0.280  -0.298   0.063
    1UNL    C16   23   0.223  -0.167  -0.133
    1UNL     O8   24   0.159  -0.284  -0.173
    1UNL     H1   25  -0.187  -0.261   0.038
    1UNL     H2   26  -0.030  -0.274   0.104
    1UNL     H3   27  -0.180  -0.346   0.170
    1UNL     H4   28  -0.277  -0.231   0.348
    1UNL     H5   29  -0.350  -0.083   0.288
    1UNL     H6   30  -0.208  -0.081   0.391
    1UNL     H7   31  -0.226   0.106   0.295
    1UNL     H8   32  -0.095   0.187   0.223
    1UNL     H9   33  -0.374   0.139   0.089
    1UNL    H10   34  -0.305   0.295   0.127
    1UNL    H11   35  -0.312   0.199  -0.266
    1UNL    H12   36  -0.275   0.356  -0.178
    1UNL    H13   37  -0.405   0.260  -0.123
    1UNL    H14   38  -0.072   0.315  -0.130
    1UNL    H15   39  -0.106   0.063  -0.198
    1UNL    H16   40  -0.234  -0.121  -0.123
    1UNL    H17   41   0.012   0.095   0.017
    1UNL    H18   42   0.069  -0.048  -0.200
    1UNL    H19   43   0.372   0.028  -0.107
    1UNL    H20   44   0.358   0.269  -0.020
    1UNL    H21   45   0.307   0.203   0.133
    1UNL    H22   46   0.582   0.153   0.036
    1UNL    H23   47   0.443  -0.051   0.119
    1UNL    H24   48   0.151  -0.068   0.143
    1UNL    H25   49   0.421  -0.223  -0.055
    1UNL    H26   50   0.325  -0.292   0.152
    1UNL    H27   51   0.270  -0.135  -0.234
    1UNL    H28   52   0.139  -0.329  -0.086
   0.00000   0.00000   0.00000   0.00000   0.00000   0.00000   0.00000   0.00000   0.00000
Generated with MDTraj, t= 31.0
 52
    1UNL     C1    1  -0.100  -0.245   0.172
    1UNL     C2    2  -0.167  -0.110   0.215
    1UNL     C3    3  -0.248  -0.128   0.339
    1UNL     C4    4  -0.145   0.004   0.149
    1UNL     C5    5  -0.221   0.130   0.186
    1UNL     C6    6  -0.305   0.188   0.068
    1UNL     C7    7  -0.218   0.216  -0.057
    1UNL     C8    8  -0.303   0.257  -0.181
    1UNL     O1    9  -0.123   0.315  -0.013
    1UNL     C9   10  -0.133   0.075  -0.090
    1UNL     O2   11  -0.214  -0.035  -0.136
    1UNL    C10   12  -0.048   0.019   0.032
    1UNL     O3   13   0.022  -0.096  -0.008
    1UNL    C11   14   0.123  -0.062  -0.102
    1UNL     O4   15   0.200   0.058  -0.084
    1UNL    C12   16   0.328   0.044  -0.017
    1UNL    C13   17   0.349   0.162   0.080
    1UNL     O5   18   0.488   0.194   0.096
    1UNL    C14   19   0.341  -0.086   0.064
    1UNL     O6   20   0.236  -0.080   0.164
    1UNL    C15   21   0.320  -0.202  -0.030
    1UNL     O7   22   0.271  -0.313   0.044
    1UNL    C16   23   0.218  -0.179  -0.143
    1UNL     O8   24   0.152  -0.292  -0.189
    1UNL     H1   25  -0.106  -0.263   0.066
    1UNL     H2   26   0.000  -0.258   0.205
    1UNL     H3   27  -0.166  -0.324   0.199
    1UNL     H4   28  -0.201  -0.084   0.426
    1UNL     H5   29  -0.275  -0.231   0.359
    1UNL     H6   30  -0.337  -0.075   0.323
    1UNL     H7   31  -0.291   0.126   0.270
    1UNL     H8   32  -0.148   0.198   0.227
    1UNL     H9   33  -0.392   0.124   0.040
    1UNL    H10   34  -0.352   0.284   0.106
    1UNL    H11   35  -0.245   0.342  -0.229
    1UNL    H12   36  -0.400   0.295  -0.154
    1UNL    H13   37  -0.307   0.168  -0.243
    1UNL    H14   38  -0.074   0.358  -0.084
    1UNL    H15   39  -0.065   0.105  -0.176
    1UNL    H16   40  -0.176  -0.123  -0.144
    1UNL    H17   41   0.023   0.095   0.060
    1UNL    H18   42   0.063  -0.044  -0.186
    1UNL    H19   43   0.396   0.035  -0.102
    1UNL    H20   44   0.287   0.246   0.044
    1UNL    H21   45   0.306   0.144   0.181
    1UNL    H22   46   0.519   0.232   0.012
    1UNL    H23   47   0.439  -0.087   0.113
    1UNL    H24   48   0.148  -0.074   0.119
    1UNL    H25   49   0.410  -0.242  -0.073
    1UNL    H26   50   0.203  -0.276   0.103
    1UNL    H27   51   0.282  -0.147  -0.231
    1UNL    H28   52   0.143  -0.343  -0.106
   0.00000   0.00000   0.00000   0.00000   0.00000   0.00000   0.00000   0.00000   0.00000
Generated with MDTraj, t= 32.0
 52
    1UNL     C1    1  -0.042  -0.221   0.203
    1UNL     C2    2  -0.136  -0.103   0.231
    1UNL     C3    3  -0.235  -0.138   0.342
    1UNL     C4    4  -0.144   0.010   0.156
    1UNL     C5    5  -0.242   0.125   0.173
    1UNL     C6    6  -0.318   0.159   0.046
    1UNL     C7    7  -0.215   0.203  -0.061
    1UNL     C8    8  -0.293   0.254  -0.187
    1UNL     O1    9  -0.145   0.316   0.005
    1UNL     C9   10  -0.111   0.091  -0.090
    1UNL     O2   11  -0.153  -0.014  -0.170
    1UNL    C10   12  -0.042   0.041   0.041
    1UNL     O3   13   0.026  -0.082  -0.001
    1UNL    C11   14   0.115  -0.054  -0.104
    1UNL     O4   15   0.199   0.058  -0.093
    1UNL    C12   16   0.314   0.039  -0.019
    1UNL    C13   17   0.334   0.164   0.077
    1UNL     O5   18   0.464   0.186   0.116
    1UNL    C14   19   0.331  -0.095   0.056
    1UNL     O6   20   0.240  -0.095   0.164
    1UNL    C15   21   0.305  -0.208  -0.040
    1UNL     O7   22   0.260  -0.325   0.031
    1UNL    C16   23   0.199  -0.185  -0.148
    1UNL     O8   24   0.106  -0.288  -0.169
    1UNL     H1   25  -0.030  -0.234   0.094
    1UNL     H2   26   0.049  -0.207   0.253
    1UNL     H3   27  -0.098  -0.307   0.220
    1UNL     H4   28  -0.316  -0.066   0.353
    1UNL     H5   29  -0.187  -0.159   0.435
    1UNL     H6   30  -0.283  -0.225   0.311
    1UNL     H7   31  -0.293   0.119   0.270
    1UNL     H8   32  -0.179   0.213   0.179
    1UNL     H9   33  -0.360   0.061   0.013
    1UNL    H10   34  -0.407   0.230   0.052
    1UNL    H11   35  -0.215   0.243  -0.265
    1UNL    H12   36  -0.303   0.366  -0.184
    1UNL    H13   37  -0.388   0.206  -0.201
    1UNL    H14   38  -0.083   0.351  -0.059
    1UNL    H15   39  -0.023   0.137  -0.145
    1UNL    H16   40  -0.121  -0.106  -0.148
    1UNL    H17   41   0.043   0.093   0.077
    1UNL    H18   42   0.058  -0.023  -0.189
    1UNL    H19   43   0.403   0.037  -0.082
    1UNL    H20   44   0.303   0.252   0.020
    1UNL    H21   45   0.268   0.167   0.165
    1UNL    H22   46   0.514   0.195   0.030
    1UNL    H23   47   0.428  -0.099   0.103
    1UNL    H24   48   0.150  -0.094   0.121
    1UNL    H25   49   0.398  -0.233  -0.087
    1UNL    H26   50   0.230  -0.290   0.118
    1UNL    H27   51   0.251  -0.166  -0.243
    1UNL    H28   52   0.111  -0.354  -0.094
   0.00000   0.00000   0.00000   0.00000   0.00000   0.00000   0.00000   0.00000   0.00000
Generated with MDTraj, t= 33.0
 52
    1UNL     C1    1  -0.023  -0.198   0.232
    1UNL     C2    2  -0.142  -0.107   0.233
    1UNL     C3    3  -0.239  -0.129   0.343
    1UNL     C4    4  -0.151  -0.006   0.147
    1UNL     C5    5  -0.262   0.105   0.172
    1UNL     C6    6  -0.328   0.157   0.045
    1UNL     C7    7  -0.226   0.217  -0.063
    1UNL     C8    8  -0.295   0.269  -0.194
    1UNL     O1    9  -0.160   0.331  -0.000
    1UNL     C9   10  -0.122   0.105  -0.092
    1UNL     O2   11  -0.181   0.011  -0.177
    1UNL    C10   12  -0.052   0.027   0.042
    1UNL     O3   13   0.021  -0.090  -0.010
    1UNL    C11   14   0.117  -0.059  -0.110
    1UNL     O4   15   0.195   0.057  -0.090
    1UNL    C12   16   0.327   0.045  -0.033
    1UNL    C13   17   0.352   0.160   0.061
    1UNL     O5   18   0.461   0.141   0.146
    1UNL    C14   19   0.351  -0.090   0.040
    1UNL     O6   20   0.269  -0.094   0.158
    1UNL    C15   21   0.313  -0.210  -0.046
    1UNL     O7   22   0.265  -0.315   0.040
    1UNL    C16   23   0.206  -0.184  -0.149
    1UNL     O8   24   0.123  -0.299  -0.155
    1UNL     H1   25   0.009  -0.213   0.129
    1UNL     H2   26   0.057  -0.161   0.290
    1UNL     H3   27  -0.049  -0.298   0.252
    1UNL     H4   28  -0.341  -0.134   0.307
    1UNL     H5   29  -0.236  -0.057   0.421
    1UNL     H6   30  -0.221  -0.227   0.380
    1UNL     H7   31  -0.337   0.061   0.238
    1UNL     H8   32  -0.220   0.190   0.226
    1UNL     H9   33  -0.385   0.072  -0.001
    1UNL    H10   34  -0.408   0.231   0.071
    1UNL    H11   35  -0.251   0.359  -0.237
    1UNL    H12   36  -0.407   0.290  -0.184
    1UNL    H13   37  -0.298   0.180  -0.257
    1UNL    H14   38  -0.086   0.367  -0.054
    1UNL    H15   39  -0.035   0.152  -0.139
    1UNL    H16   40  -0.220  -0.064  -0.124
    1UNL    H17   41   0.012   0.095   0.089
    1UNL    H18   42   0.061  -0.035  -0.200
    1UNL    H19   43   0.396   0.041  -0.118
    1UNL    H20   44   0.360   0.249   0.001
    1UNL    H21   45   0.262   0.169   0.123
    1UNL    H22   46   0.544   0.112   0.098
    1UNL    H23   47   0.449  -0.103   0.078
    1UNL    H24   48   0.178  -0.088   0.122
    1UNL    H25   49   0.403  -0.248  -0.094
    1UNL    H26   50   0.312  -0.299   0.125
    1UNL    H27   51   0.232  -0.174  -0.252
    1UNL    H28   52   0.110  -0.349  -0.071
   0.00000   0.00000   0.00000   0.00000   0.00000   0.00000   0.00000   0.00000   0.00000
Generated with MDTraj, t= 34.0
 52
    1UNL     C1    1  -0.054  -0.206   0.218
    1UNL     C2    2  -0.151  -0.101   0.236
    1UNL     C3    3  -0.256  -0.119   0.348
    1UNL     C4    4  -0.150   0.003   0.155
    1UNL     C5    5  -0.270   0.102   0.172
    1UNL     C6    6  -0.331   0.130   0.037
    1UNL     C7    7  -0.219   0.203  -0.055
    1UNL     C8    8  -0.270   0.263  -0.186
    1UNL     O1    9  -0.147   0.305   0.008
    1UNL     C9   10  -0.124   0.089  -0.090
    1UNL     O2   11  -0.189  -0.017  -0.154
    1UNL    C10   12  -0.050   0.030   0.044
    1UNL     O3   13   0.026  -0.079  -0.004
    1UNL    C11   14   0.122  -0.047  -0.116
    1UNL     O4   15   0.199   0.066  -0.084
    1UNL    C12   16   0.341   0.044  -0.031
    1UNL    C13   17   0.376   0.164   0.047
    1UNL     O5   18   0.494   0.145   0.126
    1UNL    C14   19   0.342  -0.088   0.052
    1UNL     O6   20   0.241  -0.075   0.156
    1UNL    C15   21   0.308  -0.211  -0.036
    1UNL     O7   22   0.248  -0.316   0.038
    1UNL    C16   23   0.208  -0.168  -0.151
    1UNL     O8   24   0.123  -0.277  -0.178
    1UNL     H1   25  -0.058  -0.243   0.120
    1UNL     H2   26   0.045  -0.168   0.231
    1UNL     H3   27  -0.074  -0.293   0.275
    1UNL     H4   28  -0.347  -0.164   0.315
    1UNL     H5   29  -0.283  -0.036   0.407
    1UNL     H6   30  -0.218  -0.191   0.422
    1UNL     H7   31  -0.350   0.067   0.238
    1UNL     H8   32  -0.232   0.194   0.218
    1UNL     H9   33  -0.376   0.034  -0.002
    1UNL    H10   34  -0.416   0.203   0.037
    1UNL    H11   35  -0.203   0.255  -0.270
    1UNL    H12   36  -0.289   0.374  -0.177
    1UNL    H13   37  -0.364   0.215  -0.216
    1UNL    H14   38  -0.076   0.337  -0.055
    1UNL    H15   39  -0.056   0.122  -0.166
    1UNL    H16   40  -0.145  -0.102  -0.135
    1UNL    H17   41   0.006   0.114   0.069
    1UNL    H18   42   0.066  -0.023  -0.210
    1UNL    H19   43   0.414   0.036  -0.113
    1UNL    H20   44   0.385   0.252  -0.013
    1UNL    H21   45   0.292   0.178   0.117
    1UNL    H22   46   0.574   0.111   0.082
    1UNL    H23   47   0.431  -0.099   0.106
    1UNL    H24   48   0.159  -0.055   0.106
    1UNL    H25   49   0.406  -0.245  -0.076
    1UNL    H26   50   0.228  -0.287   0.131
    1UNL    H27   51   0.257  -0.144  -0.240
    1UNL    H28   52   0.131  -0.342  -0.106
   0.00000   0.00000   0.00000   0.00000   0.00000   0.00000   0.00000   0.00000   0.00000
Generated with MDTraj, t= 35.0
 52
    1UNL     C1    1  -0.061  -0.231   0.183
    1UNL     C2    2  -0.151  -0.121   0.215
    1UNL     C3    3  -0.241  -0.137   0.339
    1UNL     C4    4  -0.157  -0.002   0.148
    1UNL     C5    5  -0.253   0.113   0.179
    1UNL     C6    6  -0.318   0.156   0.047
    1UNL     C7    7  -0.220   0.197  -0.063
    1UNL     C8    8  -0.302   0.245  -0.186
    1UNL     O1    9  -0.128   0.313  -0.019
    1UNL     C9   10  -0.136   0.081  -0.098
    1UNL     O2   11  -0.210  -0.017  -0.159
    1UNL    C10   12  -0.064   0.028   0.028
    1UNL     O3   13   0.014  -0.078  -0.010
    1UNL    C11   14   0.123  -0.033  -0.098
    1UNL     O4   15   0.192   0.073  -0.037
    1UNL    C12   16   0.335   0.045  -0.014
    1UNL    C13   17   0.389   0.161   0.068
    1UNL     O5   18   0.530   0.158   0.059
    1UNL    C14   19   0.343  -0.090   0.071
    1UNL     O6   20   0.256  -0.080   0.183
    1UNL    C15   21   0.302  -0.213  -0.013
    1UNL     O7   22   0.225  -0.305   0.060
    1UNL    C16   23   0.211  -0.160  -0.134
    1UNL     O8   24   0.132  -0.267  -0.186
    1UNL     H1   25  -0.019  -0.233   0.088
    1UNL     H2   26   0.016  -0.220   0.256
    1UNL     H3   27  -0.120  -0.319   0.200
    1UNL     H4   28  -0.337  -0.104   0.317
    1UNL     H5   29  -0.201  -0.087   0.424
    1UNL     H6   30  -0.249  -0.244   0.362
    1UNL     H7   31  -0.331   0.077   0.245
    1UNL     H8   32  -0.216   0.210   0.217
    1UNL     H9   33  -0.370   0.072  -0.007
    1UNL    H10   34  -0.396   0.234   0.059
    1UNL    H11   35  -0.234   0.308  -0.241
    1UNL    H12   36  -0.387   0.308  -0.163
    1UNL    H13   37  -0.332   0.168  -0.263
    1UNL    H14   38  -0.048   0.319  -0.080
    1UNL    H15   39  -0.065   0.111  -0.172
    1UNL    H16   40  -0.153  -0.094  -0.183
    1UNL    H17   41   0.013   0.090   0.065
    1UNL    H18   42   0.092   0.013  -0.197
    1UNL    H19   43   0.387   0.038  -0.111
    1UNL    H20   44   0.350   0.256   0.036
    1UNL    H21   45   0.368   0.143   0.176
    1UNL    H22   46   0.548   0.171  -0.035
    1UNL    H23   47   0.439  -0.107   0.107
    1UNL    H24   48   0.166  -0.067   0.139
    1UNL    H25   49   0.385  -0.272  -0.061
    1UNL    H26   50   0.257  -0.348   0.142
    1UNL    H27   51   0.273  -0.132  -0.211
    1UNL    H28   52   0.106  -0.316  -0.104
   0.00000   0.00000   0.00000   0.00000   0.00000   0.00000   0.00000   0.00000   0.00000
Generated with MDTraj, t= 36.0
 52
    1UNL     C1    1  -0.110  -0.244   0.144
    1UNL     C2    2  -0.171  -0.114   0.198
    1UNL     C3    3  -0.263  -0.142   0.310
    1UNL     C4    4  -0.143   0.003   0.140
    1UNL     C5    5  -0.224   0.119   0.181
    1UNL     C6    6  -0.321   0.162   0.071
    1UNL     C7    7  -0.240   0.211  -0.055
    1UNL     C8    8  -0.344   0.232  -0.163
    1UNL     O1    9  -0.155   0.318  -0.021
    1UNL     C9   10  -0.151   0.096  -0.099
    1UNL     O2   11  -0.227  -0.015  -0.152
    1UNL    C10   12  -0.060   0.034   0.016
    1UNL     O3   13   0.021  -0.075  -0.033
    1UNL    C11   14   0.141  -0.035  -0.098
    1UNL     O4   15   0.212   0.066  -0.036
    1UNL    C12   16   0.350   0.033  -0.000
    1UNL    C13   17   0.417   0.154   0.066
    1UNL     O5   18   0.552   0.163   0.032
    1UNL    C14   19   0.349  -0.095   0.089
    1UNL     O6   20   0.260  -0.070   0.194
    1UNL    C15   21   0.302  -0.222  -0.001
    1UNL     O7   22   0.224  -0.306   0.082
    1UNL    C16   23   0.231  -0.166  -0.121
    1UNL     O8   24   0.162  -0.271  -0.179
    1UNL     H1   25  -0.153  -0.288   0.053
    1UNL     H2   26  -0.009  -0.231   0.118
    1UNL     H3   27  -0.116  -0.316   0.218
    1UNL     H4   28  -0.342  -0.204   0.279
    1UNL     H5   29  -0.303  -0.055   0.358
    1UNL     H6   30  -0.204  -0.195   0.386
    1UNL     H7   31  -0.282   0.126   0.274
    1UNL     H8   32  -0.146   0.197   0.193
    1UNL     H9   33  -0.376   0.070   0.041
    1UNL    H10   34  -0.400   0.237   0.092
    1UNL    H11   35  -0.312   0.203  -0.265
    1UNL    H12   36  -0.393   0.326  -0.156
    1UNL    H13   37  -0.418   0.147  -0.142
    1UNL    H14   38  -0.094   0.328  -0.099
    1UNL    H15   39  -0.093   0.126  -0.181
    1UNL    H16   40  -0.169  -0.092  -0.172
    1UNL    H17   41   0.018   0.098   0.053
    1UNL    H18   42   0.117   0.012  -0.199
    1UNL    H19   43   0.403   0.017  -0.096
    1UNL    H20   44   0.378   0.250   0.036
    1UNL    H21   45   0.420   0.148   0.178
    1UNL    H22   46   0.558   0.180  -0.066
    1UNL    H23   47   0.446  -0.106   0.124
    1UNL    H24   48   0.172  -0.056   0.152
    1UNL    H25   49   0.397  -0.274  -0.028
    1UNL    H26   50   0.269  -0.319   0.169
    1UNL    H27   51   0.299  -0.145  -0.195
    1UNL    H28   52   0.089  -0.288  -0.117
   0.00000   0.00000   0.00000   0.00000   0.00000   0.00000   0.00000   0.00000   0.00000
Generated with MDTraj, t= 37.0
 52
    1UNL     C1    1  -0.137  -0.242   0.100
    1UNL     C2    2  -0.175  -0.119   0.173
    1UNL     C3    3  -0.275  -0.149   0.283
    1UNL     C4    4  -0.134   0.007   0.143
    1UNL     C5    5  -0.203   0.130   0.193
    1UNL     C6    6  -0.307   0.166   0.090
    1UNL     C7    7  -0.240   0.190  -0.047
    1UNL     C8    8  -0.353   0.204  -0.152
    1UNL     O1    9  -0.156   0.313  -0.032
    1UNL     C9   10  -0.137   0.083  -0.091
    1UNL     O2   11  -0.208  -0.032  -0.124
    1UNL    C10   12  -0.041   0.045   0.029
    1UNL     O3   13   0.034  -0.059  -0.011
    1UNL    C11   14   0.142  -0.034  -0.099
    1UNL     O4   15   0.221   0.077  -0.058
    1UNL    C12   16   0.351   0.040  -0.013
    1UNL    C13   17   0.419   0.162   0.047
    1UNL     O5   18   0.560   0.151   0.062
    1UNL    C14   19   0.341  -0.081   0.084
    1UNL     O6   20   0.244  -0.053   0.178
    1UNL    C15   21   0.298  -0.215   0.000
    1UNL     O7   22   0.221  -0.305   0.083
    1UNL    C16   23   0.226  -0.174  -0.119
    1UNL     O8   24   0.135  -0.270  -0.160
    1UNL     H1   25  -0.173  -0.240  -0.003
    1UNL     H2   26  -0.032  -0.254   0.090
    1UNL     H3   27  -0.171  -0.330   0.145
    1UNL     H4   28  -0.352  -0.223   0.268
    1UNL     H5   29  -0.321  -0.061   0.327
    1UNL     H6   30  -0.215  -0.189   0.360
    1UNL     H7   31  -0.252   0.100   0.287
    1UNL     H8   32  -0.134   0.213   0.220
    1UNL     H9   33  -0.389   0.091   0.079
    1UNL    H10   34  -0.351   0.262   0.119
    1UNL    H11   35  -0.329   0.288  -0.220
    1UNL    H12   36  -0.434   0.232  -0.089
    1UNL    H13   37  -0.370   0.112  -0.213
    1UNL    H14   38  -0.095   0.325  -0.107
    1UNL    H15   39  -0.093   0.129  -0.174
    1UNL    H16   40  -0.149  -0.109  -0.119
    1UNL    H17   41   0.021   0.136   0.034
    1UNL    H18   42   0.096   0.000  -0.197
    1UNL    H19   43   0.405   0.012  -0.105
    1UNL    H20   44   0.408   0.249  -0.018
    1UNL    H21   45   0.377   0.186   0.150
    1UNL    H22   46   0.603   0.126  -0.026
    1UNL    H23   47   0.425  -0.105   0.140
    1UNL    H24   48   0.161  -0.026   0.134
    1UNL    H25   49   0.389  -0.273  -0.024
    1UNL    H26   50   0.176  -0.256   0.157
    1UNL    H27   51   0.287  -0.175  -0.202
    1UNL    H28   52   0.105  -0.327  -0.085
   0.00000   0.00000   0.00000   0.00000   0.00000   0.00000   0.00000   0.00000   0.00000
Generated with MDTraj, t= 38.0
 52
    1UNL     C1    1  -0.119  -0.256   0.136
    1UNL     C2    2  -0.181  -0.121   0.183
    1UNL     C3    3  -0.289  -0.136   0.284
    1UNL     C4    4  -0.141   0.001   0.143
    1UNL     C5    5  -0.213   0.124   0.203
    1UNL     C6    6  -0.309   0.169   0.095
    1UNL     C7    7  -0.233   0.208  -0.042
    1UNL     C8    8  -0.347   0.205  -0.153
    1UNL     O1    9  -0.157   0.321  -0.032
    1UNL     C9   10  -0.132   0.087  -0.083
    1UNL     O2   11  -0.189  -0.019  -0.148
    1UNL    C10   12  -0.041   0.035   0.036
    1UNL     O3   13   0.036  -0.075  -0.001
    1UNL    C11   14   0.130  -0.043  -0.102
    1UNL     O4   15   0.209   0.078  -0.078
    1UNL    C12   16   0.346   0.050  -0.042
    1UNL    C13   17   0.406   0.167   0.037
    1UNL     O5   18   0.523   0.124   0.112
    1UNL    C14   19   0.351  -0.072   0.058
    1UNL     O6   20   0.272  -0.052   0.167
    1UNL    C15   21   0.301  -0.207  -0.009
    1UNL     O7   22   0.218  -0.288   0.079
    1UNL    C16   23   0.219  -0.172  -0.134
    1UNL     O8   24   0.144  -0.283  -0.163
    1UNL     H1   25  -0.128  -0.269   0.030
    1UNL     H2   26  -0.014  -0.261   0.160
    1UNL     H3   27  -0.170  -0.331   0.191
    1UNL     H4   28  -0.286  -0.227   0.344
    1UNL     H5   29  -0.384  -0.115   0.232
    1UNL     H6   30  -0.273  -0.064   0.357
    1UNL     H7   31  -0.256   0.100   0.303
    1UNL     H8   32  -0.131   0.197   0.219
    1UNL     H9   33  -0.382   0.091   0.068
    1UNL    H10   34  -0.360   0.260   0.129
    1UNL    H11   35  -0.318   0.134  -0.234
    1UNL    H12   36  -0.355   0.307  -0.195
    1UNL    H13   37  -0.445   0.178  -0.119
    1UNL    H14   38  -0.096   0.321  -0.107
    1UNL    H15   39  -0.058   0.131  -0.143
    1UNL    H16   40  -0.118  -0.091  -0.144
    1UNL    H17   41   0.037   0.111   0.074
    1UNL    H18   42   0.075  -0.011  -0.195
    1UNL    H19   43   0.406   0.038  -0.132
    1UNL    H20   44   0.426   0.254  -0.026
    1UNL    H21   45   0.328   0.198   0.114
    1UNL    H22   46   0.595   0.101   0.049
    1UNL    H23   47   0.445  -0.083   0.103
    1UNL    H24   48   0.181  -0.035   0.134
    1UNL    H25   49   0.393  -0.258  -0.035
    1UNL    H26   50   0.261  -0.309   0.163
    1UNL    H27   51   0.289  -0.164  -0.210
    1UNL    H28   52   0.144  -0.341  -0.082
   0.00000   0.00000   0.00000   0.00000   0.00000   0.00000   0.00000   0.00000   0.00000
Generated with MDTraj, t= 39.0
 52
    1UNL     C1    1  -0.068  -0.243   0.177
    1UNL     C2    2  -0.156  -0.119   0.197
    1UNL     C3    3  -0.257  -0.130   0.306
    1UNL     C4    4  -0.147   0.004   0.144
    1UNL     C5    5  -0.234   0.124   0.184
    1UNL     C6    6  -0.320   0.160   0.062
    1UNL     C7    7  -0.225   0.211  -0.051
    1UNL     C8    8  -0.300   0.243  -0.178
    1UNL     O1    9  -0.148   0.319  -0.009
    1UNL     C9   10  -0.122   0.090  -0.089
    1UNL     O2   11  -0.202  -0.013  -0.153
    1UNL    C10   12  -0.051   0.037   0.036
    1UNL     O3   13   0.026  -0.077  -0.001
    1UNL    C11   14   0.122  -0.050  -0.102
    1UNL     O4   15   0.196   0.067  -0.073
    1UNL    C12   16   0.338   0.044  -0.022
    1UNL    C13   17   0.371   0.171   0.063
    1UNL     O5   18   0.508   0.176   0.096
    1UNL    C14   19   0.346  -0.092   0.066
    1UNL     O6   20   0.257  -0.084   0.166
    1UNL    C15   21   0.302  -0.220  -0.016
    1UNL     O7   22   0.232  -0.321   0.062
    1UNL    C16   23   0.206  -0.170  -0.137
    1UNL     O8   24   0.136  -0.286  -0.175
    1UNL     H1   25  -0.081  -0.287   0.082
    1UNL     H2   26   0.034  -0.208   0.173
    1UNL     H3   27  -0.074  -0.314   0.260
    1UNL     H4   28  -0.289  -0.235   0.319
    1UNL     H5   29  -0.343  -0.074   0.272
    1UNL     H6   30  -0.220  -0.104   0.401
    1UNL     H7   31  -0.287   0.106   0.280
    1UNL     H8   32  -0.156   0.203   0.201
    1UNL     H9   33  -0.356   0.066   0.016
    1UNL    H10   34  -0.396   0.233   0.091
    1UNL    H11   35  -0.258   0.196  -0.269
    1UNL    H12   36  -0.313   0.355  -0.195
    1UNL    H13   37  -0.401   0.210  -0.172
    1UNL    H14   38  -0.070   0.334  -0.063
    1UNL    H15   39  -0.057   0.135  -0.164
    1UNL    H16   40  -0.157  -0.096  -0.177
    1UNL    H17   41   0.029   0.099   0.094
    1UNL    H18   42   0.068  -0.021  -0.194
    1UNL    H19   43   0.404   0.035  -0.107
    1UNL    H20   44   0.335   0.261   0.011
    1UNL    H21   45   0.308   0.166   0.157
    1UNL    H22   46   0.559   0.193   0.016
    1UNL    H23   47   0.444  -0.110   0.102
    1UNL    H24   48   0.171  -0.061   0.125
    1UNL    H25   49   0.387  -0.262  -0.065
    1UNL    H26   50   0.287  -0.346   0.142
    1UNL    H27   51   0.264  -0.156  -0.224
    1UNL    H28   52   0.124  -0.344  -0.097
   0.00000   0.00000   0.00000   0.00000   0.00000   0.00000   0.00000   0.00000   0.00000
Generated with MDTraj, t= 40.0
 52
    1UNL     C1    1  -0.070  -0.243   0.191
    1UNL     C2    2  -0.153  -0.117   0.218
    1UNL     C3    3  -0.230  -0.123   0.348
    1UNL     C4    4  -0.150  -0.006   0.142
    1UNL     C5    5  -0.245   0.107   0.171
    1UNL     C6    6  -0.317   0.158   0.047
    1UNL     C7    7  -0.207   0.206  -0.058
    1UNL     C8    8  -0.257   0.268  -0.193
    1UNL     O1    9  -0.115   0.294   0.013
    1UNL     C9   10  -0.131   0.088  -0.099
    1UNL     O2   11  -0.212  -0.013  -0.163
    1UNL    C10   12  -0.057   0.031   0.024
    1UNL     O3   13   0.017  -0.084  -0.010
    1UNL    C11   14   0.118  -0.051  -0.101
    1UNL     O4   15   0.187   0.074  -0.065
    1UNL    C12   16   0.327   0.044  -0.013
    1UNL    C13   17   0.366   0.163   0.075
    1UNL     O5   18   0.498   0.200   0.076
    1UNL    C14   19   0.324  -0.087   0.070
    1UNL     O6   20   0.223  -0.089   0.163
    1UNL    C15   21   0.311  -0.215  -0.021
    1UNL     O7   22   0.251  -0.324   0.048
    1UNL    C16   23   0.204  -0.171  -0.135
    1UNL     O8   24   0.130  -0.282  -0.176
    1UNL     H1   25  -0.066  -0.268   0.089
    1UNL     H2   26   0.034  -0.219   0.213
    1UNL     H3   27  -0.088  -0.333   0.251
    1UNL     H4   28  -0.169  -0.142   0.438
    1UNL     H5   29  -0.302  -0.199   0.335
    1UNL     H6   30  -0.281  -0.033   0.386
    1UNL     H7   31  -0.321   0.077   0.246
    1UNL     H8   32  -0.186   0.190   0.217
    1UNL     H9   33  -0.370   0.066   0.017
    1UNL    H10   34  -0.374   0.249   0.071
    1UNL    H11   35  -0.192   0.350  -0.226
    1UNL    H12   36  -0.360   0.309  -0.167
    1UNL    H13   37  -0.271   0.208  -0.281
    1UNL    H14   38  -0.036   0.304  -0.047
    1UNL    H15   39  -0.064   0.130  -0.176
    1UNL    H16   40  -0.154  -0.095  -0.164
    1UNL    H17   41   0.022   0.105   0.068
    1UNL    H18   42   0.077  -0.022  -0.197
    1UNL    H19   43   0.392   0.035  -0.098
    1UNL    H20   44   0.306   0.250   0.049
    1UNL    H21   45   0.337   0.145   0.183
    1UNL    H22   46   0.532   0.237  -0.009
    1UNL    H23   47   0.415  -0.092   0.128
    1UNL    H24   48   0.139  -0.074   0.119
    1UNL    H25   49   0.404  -0.241  -0.068
    1UNL    H26   50   0.233  -0.296   0.139
    1UNL    H27   51   0.255  -0.148  -0.226
    1UNL    H28   52   0.105  -0.341  -0.102
   0.00000   0.00000   0.00000   0.00000   0.00000   0.00000   0.00000   0.00000   0.00000
Generated with MDTraj, t= 41.0
 52
    1UNL     C1    1  -0.093  -0.255   0.193
    1UNL     C2    2  -0.162  -0.127   0.218
    1UNL     C3    3  -0.218  -0.119   0.355
    1UNL     C4    4  -0.162  -0.016   0.140
    1UNL     C5    5  -0.256   0.100   0.171
    1UNL     C6    6  -0.321   0.178   0.053
    1UNL     C7    7  -0.204   0.218  -0.053
    1UNL     C8    8  -0.269   0.293  -0.178
    1UNL     O1    9  -0.108   0.298   0.013
    1UNL     C9   10  -0.129   0.090  -0.099
    1UNL     O2   11  -0.215   0.007  -0.179
    1UNL    C10   12  -0.069   0.008   0.021
    1UNL     O3   13   0.004  -0.101  -0.026
    1UNL    C11   14   0.112  -0.063  -0.116
    1UNL     O4   15   0.173   0.060  -0.064
    1UNL    C12   16   0.311   0.047  -0.021
    1UNL    C13   17   0.348   0.171   0.051
    1UNL     O5   18   0.488   0.174   0.078
    1UNL    C14   19   0.343  -0.079   0.059
    1UNL     O6   20   0.274  -0.076   0.183
    1UNL    C15   21   0.307  -0.212  -0.016
    1UNL     O7   22   0.247  -0.303   0.076
    1UNL    C16   23   0.220  -0.178  -0.133
    1UNL     O8   24   0.174  -0.293  -0.187
    1UNL     H1   25   0.017  -0.240   0.218
    1UNL     H2   26  -0.138  -0.319   0.266
    1UNL     H3   27  -0.109  -0.301   0.097
    1UNL     H4   28  -0.137  -0.087   0.421
    1UNL     H5   29  -0.262  -0.212   0.378
    1UNL     H6   30  -0.289  -0.032   0.367
    1UNL     H7   31  -0.345   0.068   0.231
    1UNL     H8   32  -0.209   0.175   0.240
    1UNL     H9   33  -0.391   0.117  -0.003
    1UNL    H10   34  -0.360   0.266   0.106
    1UNL    H11   35  -0.206   0.259  -0.259
    1UNL    H12   36  -0.280   0.405  -0.175
    1UNL    H13   37  -0.370   0.254  -0.202
    1UNL    H14   38  -0.053   0.350  -0.054
    1UNL    H15   39  -0.041   0.134  -0.156
    1UNL    H16   40  -0.185  -0.083  -0.148
    1UNL    H17   41   0.008   0.081   0.065
    1UNL    H18   42   0.086  -0.031  -0.214
    1UNL    H19   43   0.366   0.050  -0.115
    1UNL    H20   44   0.314   0.261   0.003
    1UNL    H21   45   0.292   0.176   0.148
    1UNL    H22   46   0.542   0.198  -0.002
    1UNL    H23   47   0.447  -0.084   0.096
    1UNL    H24   48   0.176  -0.082   0.169
    1UNL    H25   49   0.396  -0.260  -0.057
    1UNL    H26   50   0.284  -0.282   0.167
    1UNL    H27   51   0.294  -0.144  -0.207
    1UNL    H28   52   0.144  -0.355  -0.116
   0.00000   0.00000   0.00000   0.00000   0.00000   0.00000   0.00000   0.00000   0.00000
Generated with MDTraj, t= 42.0
 52
    1UNL     C1    1  -0.084  -0.263   0.181
    1UNL     C2    2  -0.148  -0.140   0.214
    1UNL     C3    3  -0.256  -0.146   0.322
    1UNL     C4    4  -0.138  -0.025   0.142
    1UNL     C5    5  -0.221   0.096   0.183
    1UNL     C6    6  -0.298   0.168   0.062
    1UNL     C7    7  -0.199   0.211  -0.048
    1UNL     C8    8  -0.265   0.285  -0.168
    1UNL     O1    9  -0.100   0.300   0.016
    1UNL     C9   10  -0.124   0.080  -0.088
    1UNL     O2   11  -0.209  -0.014  -0.145
    1UNL    C10   12  -0.046   0.013   0.025
    1UNL     O3   13   0.015  -0.092  -0.035
    1UNL    C11   14   0.119  -0.052  -0.122
    1UNL     O4   15   0.190   0.065  -0.088
    1UNL    C12   16   0.321   0.051  -0.040
    1UNL    C13   17   0.363   0.185   0.024
    1UNL     O5   18   0.489   0.179   0.090
    1UNL    C14   19   0.324  -0.065   0.064
    1UNL     O6   20   0.224  -0.052   0.163
    1UNL    C15   21   0.298  -0.207  -0.005
    1UNL     O7   22   0.213  -0.280   0.088
    1UNL    C16   23   0.216  -0.182  -0.131
    1UNL     O8   24   0.134  -0.294  -0.157
    1UNL     H1   25  -0.140  -0.352   0.220
    1UNL     H2   26  -0.084  -0.261   0.074
    1UNL     H3   27   0.023  -0.273   0.215
    1UNL     H4   28  -0.251  -0.058   0.385
    1UNL     H5   29  -0.250  -0.239   0.375
    1UNL     H6   30  -0.355  -0.135   0.275
    1UNL     H7   31  -0.280   0.089   0.277
    1UNL     H8   32  -0.144   0.171   0.215
    1UNL     H9   33  -0.372   0.096   0.031
    1UNL    H10   34  -0.332   0.270   0.083
    1UNL    H11   35  -0.190   0.353  -0.208
    1UNL    H12   36  -0.352   0.335  -0.129
    1UNL    H13   37  -0.304   0.213  -0.247
    1UNL    H14   38  -0.013   0.301  -0.033
    1UNL    H15   39  -0.061   0.120  -0.176
    1UNL    H16   40  -0.156  -0.084  -0.183
    1UNL    H17   41   0.026   0.092   0.058
    1UNL    H18   42   0.079  -0.037  -0.216
    1UNL    H19   43   0.386   0.036  -0.127
    1UNL    H20   44   0.364   0.268  -0.043
    1UNL    H21   45   0.284   0.220   0.093
    1UNL    H22   46   0.559   0.177   0.019
    1UNL    H23   47   0.424  -0.076   0.114
    1UNL    H24   48   0.139  -0.065   0.117
    1UNL    H25   49   0.393  -0.259  -0.031
    1UNL    H26   50   0.251  -0.271   0.177
    1UNL    H27   51   0.287  -0.183  -0.218
    1UNL    H28   52   0.104  -0.329  -0.071
   0.00000   0.00000   0.00000   0.00000   0.00000   0.00000   0.00000   0.00000   0.00000
Generated with MDTraj, t= 43.0
 52
    1UNL     C1    1  -0.086  -0.246   0.132
    1UNL     C2    2  -0.156  -0.128   0.188
    1UNL     C3    3  -0.278  -0.163   0.270
    1UNL     C4    4  -0.129  -0.002   0.149
    1UNL     C5    5  -0.210   0.112   0.199
    1UNL     C6    6  -0.300   0.181   0.092
    1UNL     C7    7  -0.210   0.219  -0.039
    1UNL     C8    8  -0.292   0.280  -0.153
    1UNL     O1    9  -0.110   0.322  -0.003
    1UNL     C9   10  -0.133   0.085  -0.082
    1UNL     O2   11  -0.220  -0.019  -0.135
    1UNL    C10   12  -0.041   0.028   0.035
    1UNL     O3   13   0.031  -0.083  -0.004
    1UNL    C11   14   0.118  -0.068  -0.116
    1UNL     O4   15   0.188   0.053  -0.103
    1UNL    C12   16   0.320   0.039  -0.045
    1UNL    C13   17   0.352   0.182   0.017
    1UNL     O5   18   0.479   0.178   0.069
    1UNL    C14   19   0.335  -0.073   0.066
    1UNL     O6   20   0.251  -0.050   0.179
    1UNL    C15   21   0.298  -0.212   0.011
    1UNL     O7   22   0.226  -0.291   0.105
    1UNL    C16   23   0.221  -0.193  -0.122
    1UNL     O8   24   0.158  -0.314  -0.158
    1UNL     H1   25  -0.050  -0.240   0.028
    1UNL     H2   26   0.003  -0.274   0.199
    1UNL     H3   27  -0.144  -0.340   0.129
    1UNL     H4   28  -0.284  -0.154   0.378
    1UNL     H5   29  -0.312  -0.267   0.247
    1UNL     H6   30  -0.368  -0.108   0.245
    1UNL     H7   31  -0.269   0.082   0.288
    1UNL     H8   32  -0.143   0.191   0.245
    1UNL     H9   33  -0.380   0.122   0.054
    1UNL    H10   34  -0.338   0.276   0.127
    1UNL    H11   35  -0.237   0.266  -0.248
    1UNL    H12   36  -0.327   0.379  -0.139
    1UNL    H13   37  -0.387   0.217  -0.157
    1UNL    H14   38  -0.026   0.317  -0.052
    1UNL    H15   39  -0.070   0.123  -0.174
    1UNL    H16   40  -0.163  -0.083  -0.187
    1UNL    H17   41   0.031   0.101   0.075
    1UNL    H18   42   0.066  -0.069  -0.204
    1UNL    H19   43   0.395   0.030  -0.126
    1UNL    H20   44   0.327   0.270  -0.037
    1UNL    H21   45   0.295   0.199   0.110
    1UNL    H22   46   0.537   0.178  -0.008
    1UNL    H23   47   0.444  -0.085   0.102
    1UNL    H24   48   0.163  -0.063   0.139
    1UNL    H25   49   0.399  -0.258  -0.012
    1UNL    H26   50   0.276  -0.299   0.189
    1UNL    H27   51   0.295  -0.169  -0.206
    1UNL    H28   52   0.175  -0.378  -0.084
   0.00000   0.00000   0.00000   0.00000   0.00000   0.00000   0.00000   0.00000   0.00000
Generated with MDTraj, t= 44.0
 52
    1UNL     C1    1  -0.179  -0.266   0.124
    1UNL     C2    2  -0.200  -0.132   0.191
    1UNL     C3    3  -0.313  -0.134   0.287
    1UNL     C4    4  -0.147  -0.014   0.155
    1UNL     C5    5  -0.202   0.117   0.212
    1UNL     C6    6  -0.279   0.179   0.103
    1UNL     C7    7  -0.202   0.204  -0.038
    1UNL     C8    8  -0.297   0.253  -0.145
    1UNL     O1    9  -0.121   0.321  -0.011
    1UNL     C9   10  -0.130   0.075  -0.086
    1UNL     O2   11  -0.214  -0.016  -0.160
    1UNL    C10   12  -0.050   0.007   0.036
    1UNL     O3   13   0.027  -0.101  -0.012
    1UNL    C11   14   0.133  -0.066  -0.109
    1UNL     O4   15   0.197   0.058  -0.087
    1UNL    C12   16   0.339   0.052  -0.036
    1UNL    C13   17   0.375   0.182   0.032
    1UNL     O5   18   0.511   0.206   0.063
    1UNL    C14   19   0.357  -0.064   0.055
    1UNL     O6   20   0.253  -0.051   0.162
    1UNL    C15   21   0.330  -0.205  -0.008
    1UNL     O7   22   0.273  -0.301   0.093
    1UNL    C16   23   0.225  -0.187  -0.130
    1UNL     O8   24   0.141  -0.298  -0.138
    1UNL     H1   25  -0.214  -0.267   0.018
    1UNL     H2   26  -0.069  -0.297   0.137
    1UNL     H3   27  -0.239  -0.341   0.178
    1UNL     H4   28  -0.291  -0.098   0.386
    1UNL     H5   29  -0.354  -0.240   0.300
    1UNL     H6   30  -0.398  -0.082   0.253
    1UNL     H7   31  -0.262   0.103   0.305
    1UNL     H8   32  -0.124   0.190   0.247
    1UNL     H9   33  -0.356   0.113   0.071
    1UNL    H10   34  -0.328   0.272   0.128
    1UNL    H11   35  -0.227   0.277  -0.230
    1UNL    H12   36  -0.349   0.342  -0.115
    1UNL    H13   37  -0.377   0.187  -0.184
    1UNL    H14   38  -0.055   0.321  -0.081
    1UNL    H15   39  -0.047   0.096  -0.165
    1UNL    H16   40  -0.284  -0.039  -0.091
    1UNL    H17   41   0.025   0.071   0.077
    1UNL    H18   42   0.082  -0.058  -0.198
    1UNL    H19   43   0.403   0.040  -0.127
    1UNL    H20   44   0.342   0.267  -0.023
    1UNL    H21   45   0.315   0.188   0.125
    1UNL    H22   46   0.561   0.214  -0.020
    1UNL    H23   47   0.460  -0.069   0.107
    1UNL    H24   48   0.167  -0.063   0.115
    1UNL    H25   49   0.425  -0.252  -0.047
    1UNL    H26   50   0.304  -0.297   0.186
    1UNL    H27   51   0.272  -0.179  -0.236
    1UNL    H28   52   0.116  -0.324  -0.048
   0.00000   0.00000   0.00000   0.00000   0.00000   0.00000   0.00000   0.00000   0.00000
Generated with MDTraj, t= 45.0
 52
    1UNL     C1    1  -0.180  -0.243   0.098
    1UNL     C2    2  -0.202  -0.130   0.184
    1UNL     C3    3  -0.313  -0.140   0.295
    1UNL     C4    4  -0.155  -0.008   0.155
    1UNL     C5    5  -0.212   0.120   0.204
    1UNL     C6    6  -0.291   0.186   0.086
    1UNL     C7    7  -0.206   0.212  -0.043
    1UNL     C8    8  -0.265   0.262  -0.171
    1UNL     O1    9  -0.099   0.309  -0.007
    1UNL     C9   10  -0.133   0.070  -0.074
    1UNL     O2   11  -0.216  -0.024  -0.138
    1UNL    C10   12  -0.053   0.015   0.044
    1UNL     O3   13   0.017  -0.104   0.021
    1UNL    C11   14   0.112  -0.070  -0.087
    1UNL     O4   15   0.169   0.065  -0.064
    1UNL    C12   16   0.310   0.058  -0.023
    1UNL    C13   17   0.364   0.187   0.025
    1UNL     O5   18   0.506   0.172   0.035
    1UNL    C14   19   0.346  -0.059   0.064
    1UNL     O6   20   0.263  -0.064   0.179
    1UNL    C15   21   0.333  -0.189  -0.014
    1UNL     O7   22   0.325  -0.303   0.067
    1UNL    C16   23   0.220  -0.182  -0.119
    1UNL     O8   24   0.161  -0.303  -0.154
    1UNL     H1   25  -0.280  -0.289   0.077
    1UNL     H2   26  -0.126  -0.214   0.005
    1UNL     H3   27  -0.115  -0.314   0.154
    1UNL     H4   28  -0.262  -0.105   0.385
    1UNL     H5   29  -0.348  -0.248   0.298
    1UNL     H6   30  -0.399  -0.085   0.270
    1UNL     H7   31  -0.281   0.111   0.290
    1UNL     H8   32  -0.129   0.188   0.241
    1UNL     H9   33  -0.368   0.118   0.056
    1UNL    H10   34  -0.339   0.279   0.110
    1UNL    H11   35  -0.188   0.289  -0.248
    1UNL    H12   36  -0.336   0.343  -0.144
    1UNL    H13   37  -0.335   0.189  -0.208
    1UNL    H14   38  -0.059   0.336  -0.091
    1UNL    H15   39  -0.061   0.096  -0.163
    1UNL    H16   40  -0.242  -0.102  -0.080
    1UNL    H17   41   0.015   0.091   0.074
    1UNL    H18   42   0.049  -0.058  -0.166
    1UNL    H19   43   0.361   0.044  -0.123
    1UNL    H20   44   0.327   0.270  -0.035
    1UNL    H21   45   0.333   0.203   0.131
    1UNL    H22   46   0.556   0.129  -0.040
    1UNL    H23   47   0.454  -0.050   0.110
    1UNL    H24   48   0.178  -0.089   0.136
    1UNL    H25   49   0.432  -0.186  -0.070
    1UNL    H26   50   0.291  -0.281   0.156
    1UNL    H27   51   0.267  -0.144  -0.217
    1UNL    H28   52   0.180  -0.373  -0.087
   0.00000   0.00000   0.00000   0.00000   0.00000   0.00000   0.00000   0.00000   0.00000
Generated with MDTraj, t= 46.0
 52
    1UNL     C1    1  -0.117  -0.261   0.167
    1UNL     C2    2  -0.208  -0.145   0.200
    1UNL     C3    3  -0.333  -0.155   0.285
    1UNL     C4    4  -0.184  -0.029   0.140
    1UNL     C5    5  -0.247   0.101   0.188
    1UNL     C6    6  -0.295   0.201   0.076
    1UNL     C7    7  -0.188   0.222  -0.035
    1UNL     C8    8  -0.249   0.294  -0.157
    1UNL     O1    9  -0.086   0.303   0.012
    1UNL     C9   10  -0.132   0.078  -0.076
    1UNL     O2   11  -0.221  -0.003  -0.154
    1UNL    C10   12  -0.064   0.008   0.045
    1UNL     O3   13   0.019  -0.098  -0.007
    1UNL    C11   14   0.122  -0.066  -0.101
    1UNL     O4   15   0.195   0.053  -0.091
    1UNL    C12   16   0.329   0.050  -0.038
    1UNL    C13   17   0.359   0.184   0.030
    1UNL     O5   18   0.497   0.225   0.045
    1UNL    C14   19   0.354  -0.067   0.055
    1UNL     O6   20   0.269  -0.055   0.166
    1UNL    C15   21   0.322  -0.201  -0.022
    1UNL     O7   22   0.295  -0.302   0.081
    1UNL    C16   23   0.211  -0.195  -0.128
    1UNL     O8   24   0.141  -0.317  -0.133
    1UNL     H1   25  -0.165  -0.355   0.207
    1UNL     H2   26  -0.093  -0.283   0.065
    1UNL     H3   27  -0.014  -0.261   0.215
    1UNL     H4   28  -0.312  -0.084   0.366
    1UNL     H5   29  -0.342  -0.261   0.318
    1UNL     H6   30  -0.424  -0.133   0.233
    1UNL     H7   31  -0.340   0.075   0.244
    1UNL     H8   32  -0.178   0.155   0.261
    1UNL     H9   33  -0.392   0.177   0.039
    1UNL    H10   34  -0.300   0.297   0.125
    1UNL    H11   35  -0.178   0.272  -0.239
    1UNL    H12   36  -0.266   0.406  -0.141
    1UNL    H13   37  -0.345   0.254  -0.178
    1UNL    H14   38   0.000   0.256  -0.003
    1UNL    H15   39  -0.047   0.105  -0.152
    1UNL    H16   40  -0.211  -0.097  -0.126
    1UNL    H17   41  -0.008   0.079   0.102
    1UNL    H18   42   0.060  -0.043  -0.181
    1UNL    H19   43   0.392   0.032  -0.129
    1UNL    H20   44   0.315   0.259  -0.038
    1UNL    H21   45   0.300   0.191   0.127
    1UNL    H22   46   0.544   0.201  -0.039
    1UNL    H23   47   0.466  -0.080   0.085
    1UNL    H24   48   0.178  -0.057   0.125
    1UNL    H25   49   0.412  -0.232  -0.083
    1UNL    H26   50   0.324  -0.270   0.171
    1UNL    H27   51   0.251  -0.191  -0.236
    1UNL    H28   52   0.130  -0.358  -0.044
   0.00000   0.00000   0.00000   0.00000   0.00000   0.00000   0.00000   0.00000   0.00000
Generated with MDTraj, t= 47.0
 52
    1UNL     C1    1  -0.076  -0.262   0.184
    1UNL     C2    2  -0.167  -0.138   0.194
    1UNL     C3    3  -0.292  -0.175   0.266
    1UNL     C4    4  -0.152  -0.015   0.141
    1UNL     C5    5  -0.245   0.099   0.180
    1UNL     C6    6  -0.297   0.177   0.052
    1UNL     C7    7  -0.175   0.222  -0.034
    1UNL     C8    8  -0.207   0.310  -0.160
    1UNL     O1    9  -0.089   0.299   0.057
    1UNL     C9   10  -0.106   0.090  -0.087
    1UNL     O2   11  -0.188  -0.002  -0.146
    1UNL    C10   12  -0.038   0.017   0.038
    1UNL     O3   13   0.021  -0.102  -0.000
    1UNL    C11   14   0.104  -0.081  -0.111
    1UNL     O4   15   0.164   0.051  -0.100
    1UNL    C12   16   0.296   0.049  -0.051
    1UNL    C13   17   0.335   0.188   0.015
    1UNL     O5   18   0.469   0.198   0.044
    1UNL    C14   19   0.324  -0.059   0.055
    1UNL     O6   20   0.249  -0.035   0.174
    1UNL    C15   21   0.297  -0.195  -0.005
    1UNL     O7   22   0.244  -0.282   0.092
    1UNL    C16   23   0.202  -0.200  -0.132
    1UNL     O8   24   0.135  -0.320  -0.140
    1UNL     H1   25  -0.101  -0.333   0.268
    1UNL     H2   26  -0.079  -0.317   0.092
    1UNL     H3   27   0.033  -0.233   0.189
    1UNL     H4   28  -0.294  -0.129   0.364
    1UNL     H5   29  -0.300  -0.280   0.288
    1UNL     H6   30  -0.395  -0.161   0.228
    1UNL     H7   31  -0.332   0.062   0.239
    1UNL     H8   32  -0.176   0.164   0.244
    1UNL     H9   33  -0.347   0.103  -0.007
    1UNL    H10   34  -0.367   0.252   0.085
    1UNL    H11   35  -0.118   0.372  -0.179
    1UNL    H12   36  -0.300   0.370  -0.130
    1UNL    H13   37  -0.234   0.261  -0.252
    1UNL    H14   38   0.004   0.280   0.025
    1UNL    H15   39  -0.026   0.119  -0.165
    1UNL    H16   40  -0.215  -0.055  -0.070
    1UNL    H17   41   0.042   0.076   0.083
    1UNL    H18   42   0.035  -0.083  -0.190
    1UNL    H19   43   0.361   0.036  -0.140
    1UNL    H20   44   0.313   0.273  -0.052
    1UNL    H21   45   0.281   0.206   0.114
    1UNL    H22   46   0.521   0.165  -0.032
    1UNL    H23   47   0.432  -0.043   0.092
    1UNL    H24   48   0.159  -0.071   0.162
    1UNL    H25   49   0.397  -0.231  -0.036
    1UNL    H26   50   0.272  -0.253   0.180
    1UNL    H27   51   0.274  -0.198  -0.217
    1UNL    H28   52   0.147  -0.374  -0.058
   0.00000   0.00000   0.00000   0.00000   0.00000   0.00000   0.00000   0.00000   0.00000
Generated with MDTraj, t= 48.0
 52
    1UNL     C1    1  -0.085  -0.267   0.190
    1UNL     C2    2  -0.184  -0.152   0.205
    1UNL     C3    3  -0.286  -0.167   0.314
    1UNL     C4    4  -0.165  -0.030   0.146
    1UNL     C5    5  -0.251   0.092   0.177
    1UNL     C6    6  -0.301   0.174   0.060
    1UNL     C7    7  -0.187   0.228  -0.028
    1UNL     C8    8  -0.238   0.312  -0.146
    1UNL     O1    9  -0.104   0.311   0.061
    1UNL     C9   10  -0.093   0.109  -0.080
    1UNL     O2   11  -0.156   0.040  -0.187
    1UNL    C10   12  -0.048   0.007   0.046
    1UNL     O3   13   0.021  -0.107  -0.002
    1UNL    C11   14   0.106  -0.093  -0.110
    1UNL     O4   15   0.184   0.034  -0.117
    1UNL    C12   16   0.317   0.043  -0.059
    1UNL    C13   17   0.339   0.189  -0.014
    1UNL     O5   18   0.459   0.206   0.056
    1UNL    C14   19   0.336  -0.059   0.058
    1UNL     O6   20   0.246  -0.032   0.163
    1UNL    C15   21   0.304  -0.208   0.005
    1UNL     O7   22   0.216  -0.284   0.093
    1UNL    C16   23   0.214  -0.208  -0.128
    1UNL     O8   24   0.163  -0.329  -0.158
    1UNL     H1   25  -0.136  -0.360   0.227
    1UNL     H2   26  -0.040  -0.278   0.088
    1UNL     H3   27   0.005  -0.241   0.250
    1UNL     H4   28  -0.264  -0.088   0.387
    1UNL     H5   29  -0.291  -0.259   0.362
    1UNL     H6   30  -0.393  -0.151   0.283
    1UNL     H7   31  -0.332   0.051   0.242
    1UNL     H8   32  -0.183   0.162   0.235
    1UNL     H9   33  -0.369   0.110   0.007
    1UNL    H10   34  -0.356   0.257   0.098
    1UNL    H11   35  -0.173   0.315  -0.234
    1UNL    H12   36  -0.259   0.413  -0.103
    1UNL    H13   37  -0.340   0.287  -0.184
    1UNL    H14   38  -0.031   0.355   0.009
    1UNL    H15   39  -0.011   0.164  -0.138
    1UNL    H16   40  -0.128  -0.054  -0.199
    1UNL    H17   41   0.021   0.061   0.116
    1UNL    H18   42   0.054  -0.094  -0.201
    1UNL    H19   43   0.383   0.013  -0.142
    1UNL    H20   44   0.337   0.261  -0.098
    1UNL    H21   45   0.258   0.215   0.061
    1UNL    H22   46   0.536   0.172   0.008
    1UNL    H23   47   0.439  -0.059   0.106
    1UNL    H24   48   0.158  -0.047   0.125
    1UNL    H25   49   0.390  -0.273  -0.012
    1UNL    H26   50   0.228  -0.249   0.185
    1UNL    H27   51   0.270  -0.178  -0.215
    1UNL    H28   52   0.140  -0.372  -0.071
   0.00000   0.00000   0.00000   0.00000   0.00000   0.00000   0.00000   0.00000   0.00000
Generated with MDTraj, t= 49.0
 52
    1UNL     C1    1  -0.093  -0.259   0.142
    1UNL     C2    2  -0.157  -0.139   0.197
    1UNL     C3    3  -0.251  -0.157   0.314
    1UNL     C4    4  -0.163  -0.023   0.131
    1UNL     C5    5  -0.241   0.104   0.176
    1UNL     C6    6  -0.310   0.164   0.057
    1UNL     C7    7  -0.193   0.225  -0.034
    1UNL     C8    8  -0.243   0.314  -0.155
    1UNL     O1    9  -0.102   0.301   0.045
    1UNL     C9   10  -0.119   0.098  -0.093
    1UNL     O2   11  -0.204   0.022  -0.173
    1UNL    C10   12  -0.065   0.004   0.018
    1UNL     O3   13  -0.004  -0.109  -0.043
    1UNL    C11   14   0.106  -0.072  -0.116
    1UNL     O4   15   0.167   0.056  -0.069
    1UNL    C12   16   0.310   0.051  -0.039
    1UNL    C13   17   0.350   0.178   0.029
    1UNL     O5   18   0.492   0.188   0.047
    1UNL    C14   19   0.344  -0.068   0.063
    1UNL     O6   20   0.272  -0.040   0.185
    1UNL    C15   21   0.311  -0.210   0.002
    1UNL     O7   22   0.257  -0.291   0.097
    1UNL    C16   23   0.205  -0.202  -0.117
    1UNL     O8   24   0.131  -0.318  -0.119
    1UNL     H1   25  -0.139  -0.348   0.192
    1UNL     H2   26  -0.093  -0.274   0.027
    1UNL     H3   27   0.015  -0.262   0.163
    1UNL     H4   28  -0.219  -0.081   0.386
    1UNL     H5   29  -0.250  -0.259   0.338
    1UNL     H6   30  -0.352  -0.129   0.276
    1UNL     H7   31  -0.308   0.079   0.262
    1UNL     H8   32  -0.161   0.173   0.217
    1UNL     H9   33  -0.376   0.095   0.007
    1UNL    H10   34  -0.370   0.243   0.096
    1UNL    H11   35  -0.172   0.376  -0.212
    1UNL    H12   36  -0.340   0.362  -0.146
    1UNL    H13   37  -0.270   0.239  -0.238
    1UNL    H14   38  -0.040   0.353  -0.009
    1UNL    H15   39  -0.035   0.124  -0.162
    1UNL    H16   40  -0.153  -0.060  -0.203
    1UNL    H17   41   0.018   0.051   0.081
    1UNL    H18   42   0.086  -0.059  -0.221
    1UNL    H19   43   0.362   0.046  -0.135
    1UNL    H20   44   0.315   0.267  -0.021
    1UNL    H21   45   0.303   0.166   0.130
    1UNL    H22   46   0.538   0.199  -0.041
    1UNL    H23   47   0.453  -0.062   0.091
    1UNL    H24   48   0.176  -0.042   0.162
    1UNL    H25   49   0.400  -0.256  -0.039
    1UNL    H26   50   0.310  -0.269   0.176
    1UNL    H27   51   0.248  -0.203  -0.214
    1UNL    H28   52   0.094  -0.325  -0.029
   0.00000   0.00000   0.00000   0.00000   0.00000   0.00000   0.00000   0.00000   0.00000
Generated with MDTraj, t= 50.0
 52
    1UNL     C1    1  -0.110  -0.255   0.133
    1UNL     C2    2  -0.181  -0.142   0.187
    1UNL     C3    3  -0.264  -0.157   0.308
    1UNL     C4    4  -0.165  -0.021   0.135
    1UNL     C5    5  -0.253   0.098   0.184
    1UNL     C6    6  -0.306   0.197   0.070
    1UNL     C7    7  -0.207   0.217  -0.044
    1UNL     C8    8  -0.277   0.289  -0.161
    1UNL     O1    9  -0.093   0.304  -0.005
    1UNL     C9   10  -0.148   0.074  -0.085
    1UNL     O2   11  -0.247  -0.005  -0.140
    1UNL    C10   12  -0.063   0.015   0.026
    1UNL     O3   13   0.023  -0.093  -0.009
    1UNL    C11   14   0.121  -0.052  -0.100
    1UNL     O4   15   0.197   0.062  -0.064
    1UNL    C12   16   0.337   0.047  -0.020
    1UNL    C13   17   0.392   0.177   0.039
    1UNL     O5   18   0.535   0.187   0.037
    1UNL    C14   19   0.329  -0.075   0.081
    1UNL     O6   20   0.230  -0.054   0.172
    1UNL    C15   21   0.320  -0.207   0.008
    1UNL     O7   22   0.263  -0.314   0.080
    1UNL    C16   23   0.224  -0.177  -0.123
    1UNL     O8   24   0.149  -0.294  -0.152
    1UNL     H1   25  -0.001  -0.240   0.157
    1UNL     H2   26  -0.141  -0.357   0.174
    1UNL     H3   27  -0.128  -0.262   0.024
    1UNL     H4   28  -0.230  -0.087   0.386
    1UNL     H5   29  -0.253  -0.260   0.337
    1UNL     H6   30  -0.372  -0.147   0.295
    1UNL     H7   31  -0.340   0.064   0.246
    1UNL     H8   32  -0.193   0.161   0.256
    1UNL     H9   33  -0.395   0.152   0.027
    1UNL    H10   34  -0.334   0.293   0.104
    1UNL    H11   35  -0.222   0.265  -0.253
    1UNL    H12   36  -0.286   0.396  -0.151
    1UNL    H13   37  -0.384   0.257  -0.188
    1UNL    H14   38  -0.034   0.316  -0.079
    1UNL    H15   39  -0.080   0.094  -0.167
    1UNL    H16   40  -0.210  -0.086  -0.181
    1UNL    H17   41   0.010   0.095   0.068
    1UNL    H18   42   0.068  -0.033  -0.193
    1UNL    H19   43   0.399   0.030  -0.109
    1UNL    H20   44   0.349   0.258  -0.017
    1UNL    H21   45   0.364   0.185   0.145
    1UNL    H22   46   0.571   0.192  -0.056
    1UNL    H23   47   0.419  -0.074   0.144
    1UNL    H24   48   0.145  -0.053   0.123
    1UNL    H25   49   0.417  -0.238  -0.028
    1UNL    H26   50   0.241  -0.275   0.169
    1UNL    H27   51   0.279  -0.164  -0.210
    1UNL    H28   52   0.149  -0.341  -0.064
   0.00000   0.00000   0.00000   0.00000   0.00000   0.00000   0.00000   0.00000   0.00000
Generated with MDTraj, t= 51.0
 52
    1UNL     C1    1  -0.131  -0.248   0.138
    1UNL     C2    2  -0.186  -0.120   0.188
    1UNL     C3    3  -0.307  -0.118   0.273
    1UNL     C4    4  -0.135  -0.005   0.149
    1UNL     C5    5  -0.189   0.120   0.195
    1UNL     C6    6  -0.285   0.169   0.082
    1UNL     C7    7  -0.216   0.199  -0.054
    1UNL     C8    8  -0.309   0.244  -0.158
    1UNL     O1    9  -0.122   0.298  -0.032
    1UNL     C9   10  -0.146   0.062  -0.091
    1UNL     O2   11  -0.246  -0.037  -0.108
    1UNL    C10   12  -0.050   0.019   0.028
    1UNL     O3   13   0.027  -0.090  -0.010
    1UNL    C11   14   0.132  -0.047  -0.095
    1UNL     O4   15   0.190   0.071  -0.045
    1UNL    C12   16   0.333   0.060  -0.015
    1UNL    C13   17   0.402   0.179   0.042
    1UNL     O5   18   0.534   0.147   0.071
    1UNL    C14   19   0.343  -0.070   0.075
    1UNL     O6   20   0.244  -0.059   0.182
    1UNL    C15   21   0.309  -0.201  -0.008
    1UNL     O7   22   0.242  -0.302   0.060
    1UNL    C16   23   0.228  -0.162  -0.133
    1UNL     O8   24   0.159  -0.267  -0.185
    1UNL     H1   25  -0.042  -0.233   0.067
    1UNL     H2   26  -0.098  -0.304   0.227
    1UNL     H3   27  -0.221  -0.303   0.099
    1UNL     H4   28  -0.321  -0.044   0.350
    1UNL     H5   29  -0.294  -0.208   0.335
    1UNL     H6   30  -0.407  -0.128   0.234
    1UNL     H7   31  -0.247   0.113   0.290
    1UNL     H8   32  -0.113   0.199   0.218
    1UNL     H9   33  -0.362   0.095   0.070
    1UNL    H10   34  -0.329   0.260   0.114
    1UNL    H11   35  -0.250   0.282  -0.246
    1UNL    H12   36  -0.364   0.330  -0.125
    1UNL    H13   37  -0.374   0.159  -0.189
    1UNL    H14   38  -0.033   0.260  -0.037
    1UNL    H15   39  -0.096   0.085  -0.181
    1UNL    H16   40  -0.211  -0.122  -0.136
    1UNL    H17   41   0.026   0.104   0.053
    1UNL    H18   42   0.080  -0.012  -0.185
    1UNL    H19   43   0.388   0.041  -0.107
    1UNL    H20   44   0.404   0.267  -0.018
    1UNL    H21   45   0.349   0.202   0.135
    1UNL    H22   46   0.580   0.129  -0.014
    1UNL    H23   47   0.437  -0.091   0.127
    1UNL    H24   48   0.157  -0.050   0.138
    1UNL    H25   49   0.399  -0.257  -0.037
    1UNL    H26   50   0.200  -0.262   0.139
    1UNL    H27   51   0.293  -0.126  -0.204
    1UNL    H28   52   0.157  -0.336  -0.115
   0.00000   0.00000   0.00000   0.00000   0.00000   0.00000   0.00000   0.00000   0.00000
Generated with MDTraj, t= 52.0
 52
    1UNL     C1    1  -0.144  -0.242   0.140
    1UNL     C2    2  -0.191  -0.112   0.190
    1UNL     C3    3  -0.295  -0.115   0.298
    1UNL     C4    4  -0.142   0.004   0.149
    1UNL     C5    5  -0.193   0.137   0.203
    1UNL     C6    6  -0.278   0.205   0.098
    1UNL     C7    7  -0.225   0.201  -0.050
    1UNL     C8    8  -0.344   0.185  -0.141
    1UNL     O1    9  -0.154   0.324  -0.085
    1UNL     C9   10  -0.147   0.069  -0.085
    1UNL     O2   11  -0.220  -0.044  -0.122
    1UNL    C10   12  -0.048   0.029   0.032
    1UNL     O3   13   0.043  -0.074  -0.006
    1UNL    C11   14   0.141  -0.041  -0.108
    1UNL     O4   15   0.222   0.071  -0.072
    1UNL    C12   16   0.351   0.048  -0.016
    1UNL    C13   17   0.385   0.157   0.076
    1UNL     O5   18   0.514   0.155   0.125
    1UNL    C14   19   0.353  -0.087   0.057
    1UNL     O6   20   0.272  -0.078   0.173
    1UNL    C15   21   0.307  -0.214  -0.028
    1UNL     O7   22   0.233  -0.298   0.059
    1UNL    C16   23   0.228  -0.172  -0.151
    1UNL     O8   24   0.147  -0.273  -0.192
    1UNL     H1   25  -0.086  -0.242   0.045
    1UNL     H2   26  -0.075  -0.290   0.213
    1UNL     H3   27  -0.230  -0.319   0.138
    1UNL     H4   28  -0.251  -0.111   0.396
    1UNL     H5   29  -0.352  -0.212   0.288
    1UNL     H6   30  -0.359  -0.032   0.295
    1UNL     H7   31  -0.265   0.128   0.288
    1UNL     H8   32  -0.108   0.203   0.234
    1UNL     H9   33  -0.370   0.148   0.101
    1UNL    H10   34  -0.307   0.307   0.117
    1UNL    H11   35  -0.322   0.198  -0.251
    1UNL    H12   36  -0.405   0.273  -0.110
    1UNL    H13   37  -0.394   0.092  -0.116
    1UNL    H14   38  -0.062   0.321  -0.050
    1UNL    H15   39  -0.079   0.099  -0.157
    1UNL    H16   40  -0.146  -0.101  -0.154
    1UNL    H17   41   0.020   0.117   0.065
    1UNL    H18   42   0.082  -0.007  -0.194
    1UNL    H19   43   0.423   0.055  -0.097
    1UNL    H20   44   0.359   0.251   0.030
    1UNL    H21   45   0.326   0.154   0.168
    1UNL    H22   46   0.578   0.183   0.058
    1UNL    H23   47   0.452  -0.098   0.095
    1UNL    H24   48   0.181  -0.065   0.141
    1UNL    H25   49   0.391  -0.282  -0.049
    1UNL    H26   50   0.268  -0.283   0.151
    1UNL    H27   51   0.291  -0.149  -0.228
    1UNL    H28   52   0.118  -0.324  -0.113
   0.00000   0.00000   0.00000   0.00000   0.00000   0.00000   0.00000   0.00000   0.00000
Generated with MDTraj, t= 53.0
 52
    1UNL     C1    1  -0.115  -0.215   0.134
    1UNL     C2    2  -0.144  -0.091   0.197
    1UNL     C3    3  -0.229  -0.106   0.325
    1UNL     C4    4  -0.119   0.030   0.144
    1UNL     C5    5  -0.189   0.153   0.192
    1UNL     C6    6  -0.287   0.194   0.091
    1UNL     C7    7  -0.239   0.193  -0.054
    1UNL     C8    8  -0.364   0.162  -0.139
    1UNL     O1    9  -0.183   0.326  -0.077
    1UNL     C9   10  -0.129   0.089  -0.096
    1UNL     O2   11  -0.178  -0.030  -0.157
    1UNL    C10   12  -0.037   0.048   0.019
    1UNL     O3   13   0.033  -0.063  -0.019
    1UNL    C11   14   0.131  -0.032  -0.111
    1UNL     O4   15   0.215   0.073  -0.067
    1UNL    C12   16   0.336   0.036  -0.001
    1UNL    C13   17   0.369   0.154   0.090
    1UNL     O5   18   0.493   0.147   0.153
    1UNL    C14   19   0.328  -0.103   0.078
    1UNL     O6   20   0.229  -0.108   0.170
    1UNL    C15   21   0.310  -0.214  -0.028
    1UNL     O7   22   0.273  -0.333   0.034
    1UNL    C16   23   0.208  -0.172  -0.146
    1UNL     O8   24   0.115  -0.279  -0.174
    1UNL     H1   25  -0.103  -0.212   0.026
    1UNL     H2   26  -0.015  -0.250   0.166
    1UNL     H3   27  -0.186  -0.300   0.169
    1UNL     H4   28  -0.206  -0.040   0.405
    1UNL     H5   29  -0.215  -0.213   0.364
    1UNL     H6   30  -0.325  -0.079   0.294
    1UNL     H7   31  -0.242   0.127   0.287
    1UNL     H8   32  -0.124   0.242   0.206
    1UNL     H9   33  -0.373   0.130   0.091
    1UNL    H10   34  -0.330   0.291   0.110
    1UNL    H11   35  -0.326   0.143  -0.241
    1UNL    H12   36  -0.433   0.252  -0.143
    1UNL    H13   37  -0.411   0.076  -0.098
    1UNL    H14   38  -0.083   0.322  -0.088
    1UNL    H15   39  -0.087   0.136  -0.181
    1UNL    H16   40  -0.108  -0.102  -0.151
    1UNL    H17   41   0.043   0.127   0.042
    1UNL    H18   42   0.071   0.006  -0.197
    1UNL    H19   43   0.404   0.025  -0.085
    1UNL    H20   44   0.364   0.252   0.040
    1UNL    H21   45   0.290   0.164   0.167
    1UNL    H22   46   0.567   0.140   0.090
    1UNL    H23   47   0.423  -0.109   0.123
    1UNL    H24   48   0.147  -0.094   0.115
    1UNL    H25   49   0.407  -0.238  -0.076
    1UNL    H26   50   0.237  -0.317   0.124
    1UNL    H27   51   0.256  -0.157  -0.236
    1UNL    H28   52   0.139  -0.362  -0.125
   0.00000   0.00000   0.00000   0.00000   0.00000   0.00000   0.00000   0.00000   0.00000
Generated with MDTraj, t= 54.0
 52
    1UNL     C1    1  -0.076  -0.213   0.171
    1UNL     C2    2  -0.114  -0.072   0.215
    1UNL     C3    3  -0.174  -0.070   0.354
    1UNL     C4    4  -0.112   0.037   0.135
    1UNL     C5    5  -0.202   0.151   0.173
    1UNL     C6    6  -0.312   0.161   0.062
    1UNL     C7    7  -0.256   0.204  -0.075
    1UNL     C8    8  -0.382   0.196  -0.168
    1UNL     O1    9  -0.203   0.333  -0.052
    1UNL     C9   10  -0.145   0.099  -0.114
    1UNL     O2   11  -0.203  -0.017  -0.159
    1UNL    C10   12  -0.048   0.055   0.002
    1UNL     O3   13   0.021  -0.062  -0.035
    1UNL    C11   14   0.136  -0.045  -0.112
    1UNL     O4   15   0.210   0.065  -0.069
    1UNL    C12   16   0.340   0.033   0.003
    1UNL    C13   17   0.358   0.133   0.120
    1UNL     O5   18   0.481   0.117   0.191
    1UNL    C14   19   0.343  -0.114   0.075
    1UNL     O6   20   0.232  -0.117   0.159
    1UNL    C15   21   0.326  -0.219  -0.039
    1UNL     O7   22   0.292  -0.337   0.025
    1UNL    C16   23   0.214  -0.180  -0.148
    1UNL     O8   24   0.117  -0.280  -0.164
    1UNL     H1   25  -0.083  -0.217   0.063
    1UNL     H2   26   0.035  -0.231   0.191
    1UNL     H3   27  -0.139  -0.289   0.227
    1UNL     H4   28  -0.140   0.006   0.421
    1UNL     H5   29  -0.140  -0.167   0.403
    1UNL     H6   30  -0.277  -0.048   0.349
    1UNL     H7   31  -0.254   0.135   0.271
    1UNL     H8   32  -0.144   0.245   0.175
    1UNL     H9   33  -0.367   0.070   0.047
    1UNL    H10   34  -0.390   0.232   0.085
    1UNL    H11   35  -0.348   0.228  -0.267
    1UNL    H12   36  -0.471   0.258  -0.139
    1UNL    H13   37  -0.402   0.090  -0.172
    1UNL    H14   38  -0.277   0.402  -0.048
    1UNL    H15   39  -0.101   0.128  -0.208
    1UNL    H16   40  -0.134  -0.086  -0.170
    1UNL    H17   41   0.031   0.132   0.018
    1UNL    H18   42   0.085  -0.011  -0.207
    1UNL    H19   43   0.411   0.038  -0.080
    1UNL    H20   44   0.360   0.233   0.074
    1UNL    H21   45   0.271   0.135   0.189
    1UNL    H22   46   0.558   0.129   0.128
    1UNL    H23   47   0.431  -0.126   0.129
    1UNL    H24   48   0.155  -0.096   0.098
    1UNL    H25   49   0.423  -0.238  -0.088
    1UNL    H26   50   0.225  -0.320   0.094
    1UNL    H27   51   0.267  -0.168  -0.235
    1UNL    H28   52   0.166  -0.364  -0.172
   0.00000   0.00000   0.00000   0.00000   0.00000   0.00000   0.00000   0.00000   0.00000
Generated with MDTraj, t= 55.0
 52
    1UNL     C1    1  -0.043  -0.192   0.211
    1UNL     C2    2  -0.105  -0.061   0.239
    1UNL     C3    3  -0.155  -0.050   0.374
    1UNL     C4    4  -0.129   0.032   0.143
    1UNL     C5    5  -0.235   0.139   0.168
    1UNL     C6    6  -0.333   0.160   0.048
    1UNL     C7    7  -0.253   0.192  -0.077
    1UNL     C8    8  -0.353   0.216  -0.184
    1UNL     O1    9  -0.166   0.319  -0.068
    1UNL     C9   10  -0.159   0.072  -0.115
    1UNL     O2   11  -0.231  -0.042  -0.147
    1UNL    C10   12  -0.059   0.038   0.008
    1UNL     O3   13   0.022  -0.077  -0.025
    1UNL    C11   14   0.132  -0.032  -0.113
    1UNL     O4   15   0.230   0.076  -0.073
    1UNL    C12   16   0.339   0.038   0.014
    1UNL    C13   17   0.359   0.132   0.126
    1UNL     O5   18   0.465   0.100   0.212
    1UNL    C14   19   0.330  -0.109   0.061
    1UNL     O6   20   0.231  -0.122   0.150
    1UNL    C15   21   0.319  -0.208  -0.054
    1UNL     O7   22   0.294  -0.340   0.002
    1UNL    C16   23   0.208  -0.160  -0.164
    1UNL     O8   24   0.114  -0.256  -0.193
    1UNL     H1   25  -0.033  -0.206   0.098
    1UNL     H2   26   0.065  -0.205   0.247
    1UNL     H3   27  -0.103  -0.271   0.259
    1UNL     H4   28  -0.138   0.049   0.413
    1UNL     H5   29  -0.088  -0.104   0.445
    1UNL     H6   30  -0.260  -0.067   0.387
    1UNL     H7   31  -0.302   0.108   0.252
    1UNL     H8   32  -0.189   0.238   0.188
    1UNL     H9   33  -0.388   0.071   0.022
    1UNL    H10   34  -0.408   0.238   0.066
    1UNL    H11   35  -0.311   0.262  -0.274
    1UNL    H12   36  -0.420   0.297  -0.148
    1UNL    H13   37  -0.407   0.122  -0.205
    1UNL    H14   38  -0.076   0.302  -0.104
    1UNL    H15   39  -0.097   0.093  -0.202
    1UNL    H16   40  -0.165  -0.112  -0.118
    1UNL    H17   41   0.020   0.113   0.017
    1UNL    H18   42   0.075   0.011  -0.201
    1UNL    H19   43   0.435   0.039  -0.040
    1UNL    H20   44   0.362   0.238   0.093
    1UNL    H21   45   0.271   0.120   0.192
    1UNL    H22   46   0.554   0.098   0.168
    1UNL    H23   47   0.411  -0.129   0.123
    1UNL    H24   48   0.151  -0.087   0.104
    1UNL    H25   49   0.417  -0.219  -0.101
    1UNL    H26   50   0.244  -0.338   0.088
    1UNL    H27   51   0.258  -0.146  -0.253
    1UNL    H28   52   0.105  -0.315  -0.112
   0.00000   0.00000   0.00000   0.00000   0.00000   0.00000   0.00000   0.00000   0.00000
Generated with MDTraj, t= 56.0
 52
    1UNL     C1    1  -0.055  -0.188   0.221
    1UNL     C2    2  -0.117  -0.060   0.254
    1UNL     C3    3  -0.197  -0.043   0.381
    1UNL     C4    4  -0.134   0.037   0.162
    1UNL     C5    5  -0.226   0.149   0.169
    1UNL     C6    6  -0.314   0.171   0.047
    1UNL     C7    7  -0.225   0.178  -0.087
    1UNL     C8    8  -0.306   0.204  -0.212
    1UNL     O1    9  -0.131   0.287  -0.076
    1UNL     C9   10  -0.155   0.039  -0.100
    1UNL     O2   11  -0.244  -0.068  -0.100
    1UNL    C10   12  -0.061   0.027   0.022
    1UNL     O3   13   0.030  -0.080  -0.004
    1UNL    C11   14   0.123  -0.037  -0.106
    1UNL     O4   15   0.197   0.071  -0.057
    1UNL    C12   16   0.327   0.052   0.009
    1UNL    C13   17   0.346   0.135   0.134
    1UNL     O5   18   0.468   0.107   0.202
    1UNL    C14   19   0.350  -0.101   0.048
    1UNL     O6   20   0.263  -0.131   0.163
    1UNL    C15   21   0.308  -0.203  -0.071
    1UNL     O7   22   0.247  -0.318  -0.014
    1UNL    C16   23   0.211  -0.141  -0.175
    1UNL     O8   24   0.125  -0.225  -0.248
    1UNL     H1   25  -0.018  -0.210   0.113
    1UNL     H2   26   0.039  -0.214   0.278
    1UNL     H3   27  -0.120  -0.272   0.250
    1UNL     H4   28  -0.172   0.051   0.426
    1UNL     H5   29  -0.165  -0.106   0.462
    1UNL     H6   30  -0.305  -0.060   0.365
    1UNL     H7   31  -0.296   0.143   0.255
    1UNL     H8   32  -0.163   0.241   0.178
    1UNL     H9   33  -0.392   0.096   0.045
    1UNL    H10   34  -0.361   0.270   0.052
    1UNL    H11   35  -0.253   0.216  -0.306
    1UNL    H12   36  -0.353   0.304  -0.209
    1UNL    H13   37  -0.381   0.119  -0.221
    1UNL    H14   38  -0.124   0.344  -0.154
    1UNL    H15   39  -0.105   0.034  -0.198
    1UNL    H16   40  -0.184  -0.144  -0.103
    1UNL    H17   41   0.001   0.111   0.003
    1UNL    H18   42   0.060   0.008  -0.185
    1UNL    H19   43   0.409   0.075  -0.063
    1UNL    H20   44   0.346   0.243   0.105
    1UNL    H21   45   0.259   0.117   0.200
    1UNL    H22   46   0.539   0.112   0.135
    1UNL    H23   47   0.446  -0.116   0.089
    1UNL    H24   48   0.176  -0.121   0.120
    1UNL    H25   49   0.397  -0.231  -0.123
    1UNL    H26   50   0.280  -0.332   0.078
    1UNL    H27   51   0.259  -0.094  -0.255
    1UNL    H28   52   0.102  -0.306  -0.200
   0.00000   0.00000   0.00000   0.00000   0.00000   0.00000   0.00000   0.00000   0.00000
Generated with MDTraj, t= 57.0
 52
    1UNL     C1    1  -0.080  -0.204   0.222
    1UNL     C2    2  -0.146  -0.073   0.247
    1UNL     C3    3  -0.245  -0.058   0.355
    1UNL     C4    4  -0.123   0.025   0.158
    1UNL     C5    5  -0.193   0.160   0.180
    1UNL     C6    6  -0.289   0.194   0.063
    1UNL     C7    7  -0.238   0.176  -0.084
    1UNL     C8    8  -0.341   0.192  -0.195
    1UNL     O1    9  -0.135   0.284  -0.104
    1UNL     C9   10  -0.173   0.028  -0.090
    1UNL     O2   11  -0.276  -0.070  -0.067
    1UNL    C10   12  -0.058   0.020   0.018
    1UNL     O3   13   0.042  -0.086  -0.024
    1UNL    C11   14   0.139  -0.022  -0.117
    1UNL     O4   15   0.223   0.077  -0.051
    1UNL    C12   16   0.348   0.041   0.011
    1UNL    C13   17   0.367   0.137   0.140
    1UNL     O5   18   0.502   0.140   0.183
    1UNL    C14   19   0.340  -0.109   0.059
    1UNL     O6   20   0.244  -0.131   0.167
    1UNL    C15   21   0.306  -0.200  -0.062
    1UNL     O7   22   0.227  -0.307  -0.015
    1UNL    C16   23   0.229  -0.130  -0.182
    1UNL     O8   24   0.155  -0.226  -0.254
    1UNL     H1   25  -0.075  -0.247   0.117
    1UNL     H2   26   0.029  -0.190   0.247
    1UNL     H3   27  -0.118  -0.279   0.298
    1UNL     H4   28  -0.193  -0.006   0.437
    1UNL     H5   29  -0.273  -0.148   0.397
    1UNL     H6   30  -0.335  -0.017   0.302
    1UNL     H7   31  -0.249   0.172   0.276
    1UNL     H8   32  -0.118   0.242   0.186
    1UNL     H9   33  -0.385   0.144   0.068
    1UNL    H10   34  -0.310   0.301   0.076
    1UNL    H11   35  -0.295   0.176  -0.293
    1UNL    H12   36  -0.367   0.297  -0.211
    1UNL    H13   37  -0.424   0.114  -0.185
    1UNL    H14   38  -0.060   0.256  -0.157
    1UNL    H15   39  -0.141   0.012  -0.194
    1UNL    H16   40  -0.231  -0.154  -0.047
    1UNL    H17   41   0.001   0.106   0.012
    1UNL    H18   42   0.084   0.042  -0.187
    1UNL    H19   43   0.434   0.043  -0.061
    1UNL    H20   44   0.328   0.240   0.126
    1UNL    H21   45   0.313   0.094   0.226
    1UNL    H22   46   0.557   0.165   0.107
    1UNL    H23   47   0.429  -0.142   0.106
    1UNL    H24   48   0.160  -0.119   0.118
    1UNL    H25   49   0.402  -0.226  -0.101
    1UNL    H26   50   0.255  -0.330   0.077
    1UNL    H27   51   0.291  -0.085  -0.255
    1UNL    H28   52   0.098  -0.281  -0.194
   0.00000   0.00000   0.00000   0.00000   0.00000   0.00000   0.00000   0.00000   0.00000
Generated with MDTraj, t= 58.0
 52
    1UNL     C1    1  -0.100  -0.218   0.161
    1UNL     C2    2  -0.131  -0.081   0.208
    1UNL     C3    3  -0.229  -0.083   0.325
    1UNL     C4    4  -0.110   0.031   0.135
    1UNL     C5    5  -0.169   0.161   0.177
    1UNL     C6    6  -0.279   0.216   0.079
    1UNL     C7    7  -0.249   0.182  -0.075
    1UNL     C8    8  -0.378   0.183  -0.153
    1UNL     O1    9  -0.167   0.296  -0.119
    1UNL     C9   10  -0.174   0.039  -0.094
    1UNL     O2   11  -0.263  -0.074  -0.081
    1UNL    C10   12  -0.056   0.041  -0.002
    1UNL     O3   13   0.029  -0.070  -0.030
    1UNL    C11   14   0.142  -0.018  -0.111
    1UNL     O4   15   0.205   0.075  -0.023
    1UNL    C12   16   0.331   0.036   0.029
    1UNL    C13   17   0.392   0.140   0.126
    1UNL     O5   18   0.532   0.119   0.142
    1UNL    C14   19   0.332  -0.102   0.086
    1UNL     O6   20   0.230  -0.117   0.191
    1UNL    C15   21   0.317  -0.197  -0.039
    1UNL     O7   22   0.249  -0.314   0.008
    1UNL    C16   23   0.230  -0.138  -0.159
    1UNL     O8   24   0.160  -0.242  -0.221
    1UNL     H1   25  -0.037  -0.213   0.075
    1UNL     H2   26  -0.035  -0.255   0.244
    1UNL     H3   27  -0.202  -0.274   0.154
    1UNL     H4   28  -0.189  -0.029   0.412
    1UNL     H5   29  -0.231  -0.179   0.365
    1UNL     H6   30  -0.332  -0.071   0.282
    1UNL     H7   31  -0.209   0.158   0.280
    1UNL     H8   32  -0.083   0.231   0.185
    1UNL     H9   33  -0.377   0.175   0.103
    1UNL    H10   34  -0.297   0.324   0.086
    1UNL    H11   35  -0.361   0.184  -0.263
    1UNL    H12   36  -0.413   0.286  -0.141
    1UNL    H13   37  -0.444   0.097  -0.127
    1UNL    H14   38  -0.182   0.309  -0.214
    1UNL    H15   39  -0.139   0.026  -0.200
    1UNL    H16   40  -0.212  -0.157  -0.100
    1UNL    H17   41   0.002   0.130  -0.008
    1UNL    H18   42   0.104   0.035  -0.196
    1UNL    H19   43   0.400   0.024  -0.059
    1UNL    H20   44   0.381   0.244   0.088
    1UNL    H21   45   0.347   0.142   0.225
    1UNL    H22   46   0.585   0.113   0.058
    1UNL    H23   47   0.425  -0.124   0.136
    1UNL    H24   48   0.145  -0.097   0.147
    1UNL    H25   49   0.414  -0.223  -0.078
    1UNL    H26   50   0.174  -0.293   0.067
    1UNL    H27   51   0.297  -0.110  -0.236
    1UNL    H28   52   0.130  -0.307  -0.153
   0.00000   0.00000   0.00000   0.00000   0.00000   0.00000   0.00000   0.00000   0.00000
Generated with MDTraj, t= 59.0
 52
    1UNL     C1    1  -0.127  -0.223   0.135
    1UNL     C2    2  -0.129  -0.090   0.195
    1UNL     C3    3  -0.179  -0.091   0.336
    1UNL     C4    4  -0.120   0.026   0.128
    1UNL     C5    5  -0.179   0.153   0.174
    1UNL     C6    6  -0.301   0.179   0.086
    1UNL     C7    7  -0.275   0.190  -0.066
    1UNL     C8    8  -0.405   0.197  -0.148
    1UNL     O1    9  -0.199   0.314  -0.075
    1UNL     C9   10  -0.181   0.066  -0.109
    1UNL     O2   11  -0.262  -0.053  -0.137
    1UNL    C10   12  -0.059   0.041  -0.012
    1UNL     O3   13   0.025  -0.072  -0.047
    1UNL    C11   14   0.155  -0.032  -0.107
    1UNL     O4   15   0.229   0.077  -0.046
    1UNL    C12   16   0.361   0.032   0.017
    1UNL    C13   17   0.422   0.145   0.099
    1UNL     O5   18   0.547   0.114   0.153
    1UNL    C14   19   0.342  -0.098   0.094
    1UNL     O6   20   0.229  -0.082   0.183
    1UNL    C15   21   0.311  -0.209  -0.015
    1UNL     O7   22   0.231  -0.307   0.054
    1UNL    C16   23   0.235  -0.159  -0.138
    1UNL     O8   24   0.165  -0.264  -0.199
    1UNL     H1   25  -0.036  -0.234   0.077
    1UNL     H2   26  -0.111  -0.312   0.204
    1UNL     H3   27  -0.222  -0.237   0.072
    1UNL     H4   28  -0.097  -0.063   0.400
    1UNL     H5   29  -0.197  -0.191   0.376
    1UNL     H6   30  -0.275  -0.040   0.349
    1UNL     H7   31  -0.202   0.143   0.280
    1UNL     H8   32  -0.105   0.237   0.158
    1UNL     H9   33  -0.383   0.110   0.110
    1UNL    H10   34  -0.348   0.276   0.110
    1UNL    H11   35  -0.380   0.226  -0.255
    1UNL    H12   36  -0.475   0.276  -0.119
    1UNL    H13   37  -0.436   0.092  -0.151
    1UNL    H14   38  -0.243   0.381  -0.135
    1UNL    H15   39  -0.134   0.094  -0.208
    1UNL    H16   40  -0.195  -0.125  -0.153
    1UNL    H17   41   0.004   0.129  -0.016
    1UNL    H18   42   0.128  -0.001  -0.206
    1UNL    H19   43   0.424   0.013  -0.072
    1UNL    H20   44   0.424   0.236   0.036
    1UNL    H21   45   0.358   0.171   0.181
    1UNL    H22   46   0.608   0.090   0.077
    1UNL    H23   47   0.436  -0.126   0.145
    1UNL    H24   48   0.151  -0.065   0.124
    1UNL    H25   49   0.403  -0.254  -0.051
    1UNL    H26   50   0.267  -0.336   0.141
    1UNL    H27   51   0.312  -0.133  -0.207
    1UNL    H28   52   0.130  -0.313  -0.123
   0.00000   0.00000   0.00000   0.00000   0.00000   0.00000   0.00000   0.00000   0.00000
Generated with MDTraj, t= 60.0
 52
    1UNL     C1    1  -0.067  -0.221   0.126
    1UNL     C2    2  -0.099  -0.093   0.201
    1UNL     C3    3  -0.170  -0.119   0.326
    1UNL     C4    4  -0.107   0.020   0.130
    1UNL     C5    5  -0.190   0.137   0.182
    1UNL     C6    6  -0.306   0.157   0.087
    1UNL     C7    7  -0.256   0.188  -0.058
    1UNL     C8    8  -0.369   0.190  -0.164
    1UNL     O1    9  -0.205   0.325  -0.058
    1UNL     C9   10  -0.145   0.087  -0.102
    1UNL     O2   11  -0.204  -0.029  -0.154
    1UNL    C10   12  -0.043   0.045  -0.002
    1UNL     O3   13   0.018  -0.070  -0.047
    1UNL    C11   14   0.137  -0.043  -0.117
    1UNL     O4   15   0.211   0.064  -0.060
    1UNL    C12   16   0.343   0.028  -0.001
    1UNL    C13   17   0.392   0.147   0.084
    1UNL     O5   18   0.520   0.125   0.139
    1UNL    C14   19   0.325  -0.093   0.084
    1UNL     O6   20   0.238  -0.061   0.181
    1UNL    C15   21   0.278  -0.214   0.008
    1UNL     O7   22   0.181  -0.286   0.090
    1UNL    C16   23   0.223  -0.174  -0.130
    1UNL     O8   24   0.137  -0.269  -0.195
    1UNL     H1   25   0.033  -0.216   0.075
    1UNL     H2   26  -0.056  -0.323   0.176
    1UNL     H3   27  -0.143  -0.232   0.046
    1UNL     H4   28  -0.156  -0.030   0.382
    1UNL     H5   29  -0.128  -0.199   0.392
    1UNL     H6   30  -0.276  -0.130   0.316
    1UNL     H7   31  -0.226   0.126   0.285
    1UNL     H8   32  -0.127   0.229   0.172
    1UNL     H9   33  -0.359   0.060   0.080
    1UNL    H10   34  -0.384   0.228   0.119
    1UNL    H11   35  -0.333   0.216  -0.268
    1UNL    H12   36  -0.440   0.272  -0.141
    1UNL    H13   37  -0.410   0.091  -0.168
    1UNL    H14   38  -0.137   0.319   0.016
    1UNL    H15   39  -0.088   0.140  -0.187
    1UNL    H16   40  -0.134  -0.074  -0.204
    1UNL    H17   41   0.032   0.125   0.017
    1UNL    H18   42   0.108  -0.010  -0.215
    1UNL    H19   43   0.413   0.012  -0.083
    1UNL    H20   44   0.385   0.247   0.038
    1UNL    H21   45   0.325   0.152   0.168
    1UNL    H22   46   0.586   0.112   0.066
    1UNL    H23   47   0.429  -0.113   0.123
    1UNL    H24   48   0.146  -0.067   0.148
    1UNL    H25   49   0.367  -0.278  -0.010
    1UNL    H26   50   0.212  -0.291   0.182
    1UNL    H27   51   0.298  -0.144  -0.201
    1UNL    H28   52   0.079  -0.313  -0.128
   0.00000   0.00000   0.00000   0.00000   0.00000   0.00000   0.00000   0.00000   0.00000
Generated with MDTraj, t= 61.0
 52
    1UNL     C1    1  -0.091  -0.251   0.163
    1UNL     C2    2  -0.150  -0.120   0.209
    1UNL     C3    3  -0.216  -0.104   0.348
    1UNL     C4    4  -0.139   0.000   0.149
    1UNL     C5    5  -0.218   0.122   0.190
    1UNL     C6    6  -0.312   0.177   0.081
    1UNL     C7    7  -0.240   0.206  -0.056
    1UNL     C8    8  -0.343   0.212  -0.165
    1UNL     O1    9  -0.169   0.328  -0.048
    1UNL     C9   10  -0.132   0.093  -0.088
    1UNL     O2   11  -0.179  -0.013  -0.178
    1UNL    C10   12  -0.046   0.027   0.030
    1UNL     O3   13   0.030  -0.086  -0.021
    1UNL    C11   14   0.134  -0.050  -0.115
    1UNL     O4   15   0.210   0.068  -0.083
    1UNL    C12   16   0.337   0.039  -0.017
    1UNL    C13   17   0.376   0.162   0.062
    1UNL     O5   18   0.511   0.153   0.117
    1UNL    C14   19   0.326  -0.083   0.078
    1UNL     O6   20   0.221  -0.078   0.172
    1UNL    C15   21   0.303  -0.207  -0.010
    1UNL     O7   22   0.238  -0.319   0.067
    1UNL    C16   23   0.229  -0.172  -0.139
    1UNL     O8   24   0.139  -0.275  -0.183
    1UNL     H1   25  -0.094  -0.239   0.052
    1UNL     H2   26   0.018  -0.263   0.194
    1UNL     H3   27  -0.155  -0.334   0.201
    1UNL     H4   28  -0.168  -0.027   0.406
    1UNL     H5   29  -0.204  -0.197   0.413
    1UNL     H6   30  -0.315  -0.069   0.349
    1UNL     H7   31  -0.285   0.102   0.274
    1UNL     H8   32  -0.147   0.206   0.209
    1UNL     H9   33  -0.392   0.105   0.054
    1UNL    H10   34  -0.370   0.262   0.122
    1UNL    H11   35  -0.283   0.233  -0.255
    1UNL    H12   36  -0.403   0.307  -0.158
    1UNL    H13   37  -0.397   0.121  -0.186
    1UNL    H14   38  -0.188   0.384  -0.127
    1UNL    H15   39  -0.063   0.150  -0.162
    1UNL    H16   40  -0.104  -0.065  -0.215
    1UNL    H17   41   0.040   0.091   0.067
    1UNL    H18   42   0.081  -0.032  -0.207
    1UNL    H19   43   0.411   0.029  -0.096
    1UNL    H20   44   0.375   0.244  -0.012
    1UNL    H21   45   0.307   0.190   0.139
    1UNL    H22   46   0.578   0.130   0.051
    1UNL    H23   47   0.425  -0.095   0.135
    1UNL    H24   48   0.133  -0.095   0.135
    1UNL    H25   49   0.402  -0.253  -0.036
    1UNL    H26   50   0.259  -0.302   0.162
    1UNL    H27   51   0.297  -0.144  -0.219
    1UNL    H28   52   0.110  -0.334  -0.108
   0.00000   0.00000   0.00000   0.00000   0.00000   0.00000   0.00000   0.00000   0.00000
Generated with MDTraj, t= 62.0
 52
    1UNL     C1    1  -0.096  -0.241   0.198
    1UNL     C2    2  -0.173  -0.112   0.215
    1UNL     C3    3  -0.285  -0.110   0.317
    1UNL     C4    4  -0.150   0.001   0.144
    1UNL     C5    5  -0.230   0.122   0.184
    1UNL     C6    6  -0.317   0.171   0.063
    1UNL     C7    7  -0.220   0.205  -0.063
    1UNL     C8    8  -0.282   0.258  -0.185
    1UNL     O1    9  -0.122   0.309  -0.023
    1UNL     C9   10  -0.126   0.081  -0.090
    1UNL     O2   11  -0.207  -0.024  -0.148
    1UNL    C10   12  -0.049   0.019   0.030
    1UNL     O3   13   0.030  -0.098   0.008
    1UNL    C11   14   0.123  -0.063  -0.095
    1UNL     O4   15   0.182   0.066  -0.072
    1UNL    C12   16   0.315   0.053  -0.023
    1UNL    C13   17   0.351   0.175   0.065
    1UNL     O5   18   0.490   0.174   0.091
    1UNL    C14   19   0.357  -0.078   0.055
    1UNL     O6   20   0.272  -0.088   0.169
    1UNL    C15   21   0.324  -0.202  -0.037
    1UNL     O7   22   0.275  -0.315   0.046
    1UNL    C16   23   0.215  -0.174  -0.143
    1UNL     O8   24   0.141  -0.294  -0.168
    1UNL     H1   25  -0.117  -0.297   0.103
    1UNL     H2   26   0.016  -0.229   0.195
    1UNL     H3   27  -0.114  -0.307   0.287
    1UNL     H4   28  -0.269  -0.051   0.406
    1UNL     H5   29  -0.310  -0.219   0.337
    1UNL     H6   30  -0.367  -0.059   0.274
    1UNL     H7   31  -0.297   0.101   0.267
    1UNL     H8   32  -0.171   0.213   0.208
    1UNL     H9   33  -0.394   0.097   0.034
    1UNL    H10   34  -0.379   0.259   0.088
    1UNL    H11   35  -0.216   0.313  -0.250
    1UNL    H12   36  -0.356   0.333  -0.147
    1UNL    H13   37  -0.331   0.178  -0.244
    1UNL    H14   38  -0.160   0.371   0.040
    1UNL    H15   39  -0.054   0.117  -0.171
    1UNL    H16   40  -0.242  -0.077  -0.072
    1UNL    H17   41   0.024   0.100   0.071
    1UNL    H18   42   0.059  -0.051  -0.184
    1UNL    H19   43   0.369   0.056  -0.117
    1UNL    H20   44   0.316   0.275   0.031
    1UNL    H21   45   0.307   0.149   0.160
    1UNL    H22   46   0.536   0.190   0.006
    1UNL    H23   47   0.468  -0.077   0.087
    1UNL    H24   48   0.178  -0.094   0.143
    1UNL    H25   49   0.418  -0.244  -0.085
    1UNL    H26   50   0.302  -0.288   0.136
    1UNL    H27   51   0.274  -0.146  -0.231
    1UNL    H28   52   0.160  -0.362  -0.102
   0.00000   0.00000   0.00000   0.00000   0.00000   0.00000   0.00000   0.00000   0.00000
Generated with MDTraj, t= 63.0
 52
    1UNL     C1    1  -0.103  -0.243   0.192
    1UNL     C2    2  -0.188  -0.127   0.210
    1UNL     C3    3  -0.316  -0.149   0.281
    1UNL     C4    4  -0.163  -0.003   0.160
    1UNL     C5    5  -0.256   0.119   0.183
    1UNL     C6    6  -0.307   0.187   0.052
    1UNL     C7    7  -0.191   0.212  -0.050
    1UNL     C8    8  -0.239   0.275  -0.179
    1UNL     O1    9  -0.093   0.297   0.014
    1UNL     C9   10  -0.122   0.072  -0.074
    1UNL     O2   11  -0.222  -0.019  -0.128
    1UNL    C10   12  -0.051   0.021   0.048
    1UNL     O3   13   0.023  -0.092   0.019
    1UNL    C11   14   0.114  -0.067  -0.098
    1UNL     O4   15   0.192   0.060  -0.089
    1UNL    C12   16   0.328   0.051  -0.040
    1UNL    C13   17   0.345   0.184   0.043
    1UNL     O5   18   0.472   0.219   0.075
    1UNL    C14   19   0.355  -0.078   0.042
    1UNL     O6   20   0.271  -0.071   0.151
    1UNL    C15   21   0.332  -0.210  -0.041
    1UNL     O7   22   0.302  -0.317   0.051
    1UNL    C16   23   0.203  -0.189  -0.136
    1UNL     O8   24   0.123  -0.305  -0.132
    1UNL     H1   25  -0.127  -0.309   0.103
    1UNL     H2   26   0.002  -0.215   0.174
    1UNL     H3   27  -0.090  -0.307   0.284
    1UNL     H4   28  -0.338  -0.080   0.363
    1UNL     H5   29  -0.326  -0.256   0.307
    1UNL     H6   30  -0.395  -0.113   0.218
    1UNL     H7   31  -0.351   0.109   0.239
    1UNL     H8   32  -0.196   0.195   0.234
    1UNL     H9   33  -0.392   0.133   0.004
    1UNL    H10   34  -0.354   0.286   0.070
    1UNL    H11   35  -0.157   0.283  -0.247
    1UNL    H12   36  -0.275   0.379  -0.167
    1UNL    H13   37  -0.316   0.207  -0.225
    1UNL    H14   38  -0.007   0.251   0.004
    1UNL    H15   39  -0.050   0.097  -0.157
    1UNL    H16   40  -0.168  -0.097  -0.146
    1UNL    H17   41   0.023   0.103   0.083
    1UNL    H18   42   0.051  -0.059  -0.189
    1UNL    H19   43   0.397   0.049  -0.125
    1UNL    H20   44   0.312   0.264  -0.030
    1UNL    H21   45   0.290   0.187   0.135
    1UNL    H22   46   0.521   0.240  -0.009
    1UNL    H23   47   0.465  -0.071   0.079
    1UNL    H24   48   0.179  -0.061   0.114
    1UNL    H25   49   0.412  -0.243  -0.111
    1UNL    H26   50   0.255  -0.271   0.126
    1UNL    H27   51   0.245  -0.178  -0.236
    1UNL    H28   52   0.135  -0.348  -0.044
   0.00000   0.00000   0.00000   0.00000   0.00000   0.00000   0.00000   0.00000   0.00000
Generated with MDTraj, t= 64.0
 52
    1UNL     C1    1  -0.129  -0.262   0.147
    1UNL     C2    2  -0.195  -0.140   0.196
    1UNL     C3    3  -0.313  -0.167   0.275
    1UNL     C4    4  -0.165  -0.016   0.152
    1UNL     C5    5  -0.233   0.106   0.190
    1UNL     C6    6  -0.289   0.187   0.074
    1UNL     C7    7  -0.178   0.226  -0.028
    1UNL     C8    8  -0.244   0.285  -0.156
    1UNL     O1    9  -0.083   0.316   0.032
    1UNL     C9   10  -0.099   0.092  -0.073
    1UNL     O2   11  -0.181   0.010  -0.164
    1UNL    C10   12  -0.055   0.015   0.046
    1UNL     O3   13   0.026  -0.094   0.021
    1UNL    C11   14   0.105  -0.084  -0.097
    1UNL     O4   15   0.167   0.045  -0.114
    1UNL    C12   16   0.298   0.045  -0.064
    1UNL    C13   17   0.326   0.182   0.004
    1UNL     O5   18   0.464   0.202   0.037
    1UNL    C14   19   0.331  -0.059   0.050
    1UNL     O6   20   0.243  -0.050   0.167
    1UNL    C15   21   0.333  -0.197  -0.014
    1UNL     O7   22   0.324  -0.304   0.078
    1UNL    C16   23   0.206  -0.198  -0.109
    1UNL     O8   24   0.143  -0.325  -0.100
    1UNL     H1   25  -0.081  -0.232   0.050
    1UNL     H2   26  -0.057  -0.296   0.222
    1UNL     H3   27  -0.209  -0.342   0.137
    1UNL     H4   28  -0.303  -0.149   0.384
    1UNL     H5   29  -0.334  -0.269   0.272
    1UNL     H6   30  -0.404  -0.111   0.254
    1UNL     H7   31  -0.315   0.077   0.257
    1UNL     H8   32  -0.169   0.183   0.235
    1UNL     H9   33  -0.376   0.143   0.020
    1UNL    H10   34  -0.330   0.284   0.110
    1UNL    H11   35  -0.167   0.289  -0.232
    1UNL    H12   36  -0.274   0.390  -0.143
    1UNL    H13   37  -0.327   0.215  -0.187
    1UNL    H14   38  -0.012   0.353  -0.028
    1UNL    H15   39  -0.020   0.130  -0.139
    1UNL    H16   40  -0.271   0.003  -0.130
    1UNL    H17   41   0.016   0.096   0.095
    1UNL    H18   42   0.036  -0.088  -0.186
    1UNL    H19   43   0.363   0.023  -0.151
    1UNL    H20   44   0.291   0.266  -0.063
    1UNL    H21   45   0.269   0.184   0.095
    1UNL    H22   46   0.521   0.201  -0.044
    1UNL    H23   47   0.436  -0.027   0.089
    1UNL    H24   48   0.157  -0.081   0.135
    1UNL    H25   49   0.413  -0.211  -0.087
    1UNL    H26   50   0.356  -0.267   0.162
    1UNL    H27   51   0.249  -0.193  -0.211
    1UNL    H28   52   0.190  -0.379  -0.032
   0.00000   0.00000   0.00000   0.00000   0.00000   0.00000   0.00000   0.00000   0.00000
Generated with MDTraj, t= 65.0
 52
    1UNL     C1    1  -0.197  -0.271   0.098
    1UNL     C2    2  -0.214  -0.146   0.178
    1UNL     C3    3  -0.322  -0.156   0.280
    1UNL     C4    4  -0.153  -0.031   0.151
    1UNL     C5    5  -0.209   0.097   0.207
    1UNL     C6    6  -0.276   0.170   0.083
    1UNL     C7    7  -0.172   0.224  -0.019
    1UNL     C8    8  -0.244   0.299  -0.135
    1UNL     O1    9  -0.087   0.317   0.060
    1UNL     C9   10  -0.100   0.100  -0.070
    1UNL     O2   11  -0.185   0.025  -0.159
    1UNL    C10   12  -0.049   0.002   0.041
    1UNL     O3   13   0.014  -0.116  -0.013
    1UNL    C11   14   0.111  -0.100  -0.111
    1UNL     O4   15   0.174   0.032  -0.107
    1UNL    C12   16   0.314   0.044  -0.071
    1UNL    C13   17   0.320   0.193  -0.028
    1UNL     O5   18   0.455   0.228   0.017
    1UNL    C14   19   0.355  -0.056   0.040
    1UNL     O6   20   0.276  -0.024   0.153
    1UNL    C15   21   0.331  -0.202   0.008
    1UNL     O7   22   0.297  -0.280   0.124
    1UNL    C16   23   0.220  -0.210  -0.101
    1UNL     O8   24   0.152  -0.337  -0.081
    1UNL     H1   25  -0.167  -0.240  -0.003
    1UNL     H2   26  -0.123  -0.346   0.139
    1UNL     H3   27  -0.293  -0.332   0.094
    1UNL     H4   28  -0.284  -0.113   0.374
    1UNL     H5   29  -0.341  -0.255   0.302
    1UNL     H6   30  -0.417  -0.103   0.261
    1UNL     H7   31  -0.283   0.095   0.288
    1UNL     H8   32  -0.118   0.148   0.237
    1UNL     H9   33  -0.343   0.102   0.025
    1UNL    H10   34  -0.343   0.257   0.105
    1UNL    H11   35  -0.189   0.377  -0.191
    1UNL    H12   36  -0.312   0.359  -0.072
    1UNL    H13   37  -0.302   0.225  -0.194
    1UNL    H14   38  -0.068   0.399   0.006
    1UNL    H15   39  -0.014   0.130  -0.130
    1UNL    H16   40  -0.121  -0.035  -0.206
    1UNL    H17   41   0.025   0.064   0.109
    1UNL    H18   42   0.069  -0.104  -0.217
    1UNL    H19   43   0.371   0.019  -0.165
    1UNL    H20   44   0.277   0.260  -0.109
    1UNL    H21   45   0.254   0.204   0.057
    1UNL    H22   46   0.519   0.217  -0.055
    1UNL    H23   47   0.461  -0.044   0.083
    1UNL    H24   48   0.187  -0.043   0.118
    1UNL    H25   49   0.420  -0.247  -0.031
    1UNL    H26   50   0.305  -0.219   0.201
    1UNL    H27   51   0.275  -0.220  -0.196
    1UNL    H28   52   0.150  -0.356   0.014
   0.00000   0.00000   0.00000   0.00000   0.00000   0.00000   0.00000   0.00000   0.00000
Generated with MDTraj, t= 66.0
 52
    1UNL     C1    1  -0.178  -0.257   0.065
    1UNL     C2    2  -0.218  -0.153   0.154
    1UNL     C3    3  -0.334  -0.182   0.250
    1UNL     C4    4  -0.168  -0.032   0.146
    1UNL     C5    5  -0.215   0.093   0.215
    1UNL     C6    6  -0.260   0.193   0.109
    1UNL     C7    7  -0.166   0.217  -0.007
    1UNL     C8    8  -0.231   0.308  -0.114
    1UNL     O1    9  -0.041   0.283   0.029
    1UNL     C9   10  -0.114   0.078  -0.073
    1UNL     O2   11  -0.218  -0.006  -0.130
    1UNL    C10   12  -0.056   0.003   0.049
    1UNL     O3   13   0.028  -0.102   0.011
    1UNL    C11   14   0.114  -0.094  -0.094
    1UNL     O4   15   0.170   0.044  -0.106
    1UNL    C12   16   0.309   0.051  -0.068
    1UNL    C13   17   0.336   0.197  -0.044
    1UNL     O5   18   0.473   0.215  -0.028
    1UNL    C14   19   0.336  -0.037   0.055
    1UNL     O6   20   0.257  -0.003   0.168
    1UNL    C15   21   0.321  -0.192   0.027
    1UNL     O7   22   0.256  -0.264   0.138
    1UNL    C16   23   0.228  -0.204  -0.095
    1UNL     O8   24   0.171  -0.339  -0.102
    1UNL     H1   25  -0.192  -0.232  -0.040
    1UNL     H2   26  -0.072  -0.295   0.078
    1UNL     H3   27  -0.229  -0.356   0.085
    1UNL     H4   28  -0.293  -0.175   0.350
    1UNL     H5   29  -0.362  -0.283   0.236
    1UNL     H6   30  -0.421  -0.116   0.233
    1UNL     H7   31  -0.298   0.048   0.271
    1UNL     H8   32  -0.146   0.142   0.281
    1UNL     H9   33  -0.354   0.161   0.059
    1UNL    H10   34  -0.282   0.291   0.159
    1UNL    H11   35  -0.157   0.313  -0.198
    1UNL    H12   36  -0.238   0.416  -0.092
    1UNL    H13   37  -0.324   0.263  -0.145
    1UNL    H14   38   0.025   0.218  -0.004
    1UNL    H15   39  -0.040   0.089  -0.150
    1UNL    H16   40  -0.191  -0.065  -0.207
    1UNL    H17   41   0.009   0.077   0.116
    1UNL    H18   42   0.050  -0.103  -0.188
    1UNL    H19   43   0.378   0.029  -0.155
    1UNL    H20   44   0.303   0.262  -0.131
    1UNL    H21   45   0.286   0.237   0.042
    1UNL    H22   46   0.524   0.186  -0.106
    1UNL    H23   47   0.439  -0.018   0.098
    1UNL    H24   48   0.164  -0.029   0.144
    1UNL    H25   49   0.420  -0.233   0.009
    1UNL    H26   50   0.264  -0.205   0.216
    1UNL    H27   51   0.284  -0.196  -0.188
    1UNL    H28   52   0.151  -0.370  -0.009
   0.00000   0.00000   0.00000   0.00000   0.00000   0.00000   0.00000   0.00000   0.00000
Generated with MDTraj, t= 67.0
 52
    1UNL     C1    1  -0.160  -0.290   0.109
    1UNL     C2    2  -0.228  -0.167   0.159
    1UNL     C3    3  -0.361  -0.178   0.232
    1UNL     C4    4  -0.172  -0.048   0.139
    1UNL     C5    5  -0.227   0.084   0.207
    1UNL     C6    6  -0.246   0.207   0.115
    1UNL     C7    7  -0.149   0.215  -0.013
    1UNL     C8    8  -0.205   0.296  -0.131
    1UNL     O1    9  -0.020   0.266   0.019
    1UNL     C9   10  -0.136   0.071  -0.059
    1UNL     O2   11  -0.256   0.008  -0.104
    1UNL    C10   12  -0.062  -0.017   0.043
    1UNL     O3   13   0.018  -0.120  -0.017
    1UNL    C11   14   0.116  -0.081  -0.108
    1UNL     O4   15   0.158   0.063  -0.082
    1UNL    C12   16   0.305   0.067  -0.054
    1UNL    C13   17   0.363   0.207  -0.035
    1UNL     O5   18   0.499   0.205  -0.047
    1UNL    C14   19   0.338  -0.028   0.064
    1UNL     O6   20   0.256  -0.004   0.171
    1UNL    C15   21   0.316  -0.182   0.022
    1UNL     O7   22   0.250  -0.247   0.129
    1UNL    C16   23   0.232  -0.189  -0.108
    1UNL     O8   24   0.176  -0.320  -0.101
    1UNL     H1   25  -0.156  -0.300  -0.002
    1UNL     H2   26  -0.056  -0.290   0.154
    1UNL     H3   27  -0.206  -0.376   0.163
    1UNL     H4   28  -0.361  -0.132   0.325
    1UNL     H5   29  -0.390  -0.283   0.253
    1UNL     H6   30  -0.441  -0.140   0.167
    1UNL     H7   31  -0.327   0.069   0.248
    1UNL     H8   32  -0.164   0.091   0.292
    1UNL     H9   33  -0.345   0.191   0.065
    1UNL    H10   34  -0.254   0.301   0.176
    1UNL    H11   35  -0.137   0.293  -0.221
    1UNL    H12   36  -0.208   0.405  -0.120
    1UNL    H13   37  -0.302   0.259  -0.155
    1UNL    H14   38   0.051   0.206  -0.010
    1UNL    H15   39  -0.076   0.078  -0.149
    1UNL    H16   40  -0.239  -0.084  -0.133
    1UNL    H17   41   0.022   0.046   0.096
    1UNL    H18   42   0.058  -0.076  -0.204
    1UNL    H19   43   0.355   0.032  -0.149
    1UNL    H20   44   0.314   0.294  -0.090
    1UNL    H21   45   0.348   0.228   0.069
    1UNL    H22   46   0.513   0.184  -0.143
    1UNL    H23   47   0.442  -0.018   0.100
    1UNL    H24   48   0.169  -0.032   0.142
    1UNL    H25   49   0.410  -0.235   0.002
    1UNL    H26   50   0.282  -0.207   0.213
    1UNL    H27   51   0.289  -0.190  -0.199
    1UNL    H28   52   0.141  -0.330  -0.011
   0.00000   0.00000   0.00000   0.00000   0.00000   0.00000   0.00000   0.00000   0.00000
Generated with MDTraj, t= 68.0
 52
    1UNL     C1    1  -0.152  -0.284   0.127
    1UNL     C2    2  -0.230  -0.154   0.172
    1UNL     C3    3  -0.328  -0.166   0.274
    1UNL     C4    4  -0.178  -0.038   0.129
    1UNL     C5    5  -0.226   0.094   0.196
    1UNL     C6    6  -0.275   0.187   0.086
    1UNL     C7    7  -0.171   0.208  -0.024
    1UNL     C8    8  -0.201   0.308  -0.131
    1UNL     O1    9  -0.060   0.265   0.048
    1UNL     C9   10  -0.126   0.078  -0.087
    1UNL     O2   11  -0.239   0.030  -0.153
    1UNL    C10   12  -0.069  -0.012   0.032
    1UNL     O3   13  -0.001  -0.125  -0.016
    1UNL    C11   14   0.109  -0.086  -0.096
    1UNL     O4   15   0.160   0.049  -0.061
    1UNL    C12   16   0.309   0.057  -0.055
    1UNL    C13   17   0.343   0.203  -0.030
    1UNL     O5   18   0.487   0.232  -0.023
    1UNL    C14   19   0.363  -0.041   0.049
    1UNL     O6   20   0.311  -0.014   0.177
    1UNL    C15   21   0.319  -0.198   0.018
    1UNL     O7   22   0.256  -0.265   0.127
    1UNL    C16   23   0.223  -0.200  -0.105
    1UNL     O8   24   0.170  -0.327  -0.119
    1UNL     H1   25  -0.160  -0.309   0.016
    1UNL     H2   26  -0.045  -0.269   0.158
    1UNL     H3   27  -0.192  -0.361   0.194
    1UNL     H4   28  -0.285  -0.166   0.370
    1UNL     H5   29  -0.382  -0.264   0.263
    1UNL     H6   30  -0.405  -0.093   0.258
    1UNL     H7   31  -0.304   0.072   0.269
    1UNL     H8   32  -0.151   0.141   0.256
    1UNL     H9   33  -0.361   0.128   0.047
    1UNL    H10   34  -0.306   0.292   0.118
    1UNL    H11   35  -0.113   0.349  -0.188
    1UNL    H12   36  -0.238   0.400  -0.085
    1UNL    H13   37  -0.276   0.276  -0.201
    1UNL    H14   38   0.026   0.227   0.014
    1UNL    H15   39  -0.045   0.099  -0.156
    1UNL    H16   40  -0.291  -0.034  -0.102
    1UNL    H17   41   0.020   0.048   0.085
    1UNL    H18   42   0.059  -0.071  -0.192
    1UNL    H19   43   0.349   0.041  -0.158
    1UNL    H20   44   0.301   0.263  -0.117
    1UNL    H21   45   0.296   0.248   0.055
    1UNL    H22   46   0.539   0.189  -0.096
    1UNL    H23   47   0.472  -0.036   0.053
    1UNL    H24   48   0.215  -0.001   0.169
    1UNL    H25   49   0.410  -0.257  -0.005
    1UNL    H26   50   0.278  -0.218   0.210
    1UNL    H27   51   0.288  -0.182  -0.188
    1UNL    H28   52   0.131  -0.346  -0.030
   0.00000   0.00000   0.00000   0.00000   0.00000   0.00000   0.00000   0.00000   0.00000
Generated with MDTraj, t= 69.0
 52
    1UNL     C1    1  -0.152  -0.282   0.115
    1UNL     C2    2  -0.200  -0.158   0.174
    1UNL     C3    3  -0.285  -0.166   0.303
    1UNL     C4    4  -0.178  -0.032   0.134
    1UNL     C5    5  -0.245   0.092   0.182
    1UNL     C6    6  -0.295   0.177   0.065
    1UNL     C7    7  -0.175   0.225  -0.019
    1UNL     C8    8  -0.228   0.299  -0.146
    1UNL     O1    9  -0.082   0.303   0.060
    1UNL     C9   10  -0.103   0.094  -0.075
    1UNL     O2   11  -0.164   0.021  -0.178
    1UNL    C10   12  -0.064  -0.002   0.049
    1UNL     O3   13   0.003  -0.116   0.002
    1UNL    C11   14   0.102  -0.085  -0.094
    1UNL     O4   15   0.158   0.045  -0.080
    1UNL    C12   16   0.300   0.050  -0.062
    1UNL    C13   17   0.336   0.191   0.004
    1UNL     O5   18   0.482   0.221  -0.001
    1UNL    C14   19   0.355  -0.053   0.031
    1UNL     O6   20   0.330  -0.023   0.162
    1UNL    C15   21   0.301  -0.200   0.009
    1UNL     O7   22   0.246  -0.263   0.124
    1UNL    C16   23   0.203  -0.204  -0.109
    1UNL     O8   24   0.141  -0.328  -0.113
    1UNL     H1   25  -0.149  -0.272   0.000
    1UNL     H2   26  -0.046  -0.296   0.148
    1UNL     H3   27  -0.215  -0.369   0.143
    1UNL     H4   28  -0.268  -0.087   0.374
    1UNL     H5   29  -0.226  -0.249   0.354
    1UNL     H6   30  -0.384  -0.203   0.290
    1UNL     H7   31  -0.328   0.072   0.249
    1UNL     H8   32  -0.174   0.145   0.243
    1UNL     H9   33  -0.362   0.115  -0.001
    1UNL    H10   34  -0.361   0.260   0.106
    1UNL    H11   35  -0.145   0.307  -0.217
    1UNL    H12   36  -0.264   0.402  -0.143
    1UNL    H13   37  -0.301   0.235  -0.198
    1UNL    H14   38  -0.030   0.364   0.002
    1UNL    H15   39  -0.011   0.137  -0.119
    1UNL    H16   40  -0.177  -0.073  -0.156
    1UNL    H17   41   0.029   0.056   0.097
    1UNL    H18   42   0.039  -0.083  -0.181
    1UNL    H19   43   0.342   0.038  -0.163
    1UNL    H20   44   0.278   0.281  -0.029
    1UNL    H21   45   0.310   0.186   0.107
    1UNL    H22   46   0.518   0.216  -0.092
    1UNL    H23   47   0.460  -0.063   0.022
    1UNL    H24   48   0.232  -0.033   0.178
    1UNL    H25   49   0.387  -0.270  -0.011
    1UNL    H26   50   0.286  -0.221   0.204
    1UNL    H27   51   0.263  -0.199  -0.196
    1UNL    H28   52   0.122  -0.356  -0.021
   0.00000   0.00000   0.00000   0.00000   0.00000   0.00000   0.00000   0.00000   0.00000
Generated with MDTraj, t= 70.0
 52
    1UNL     C1    1  -0.113  -0.263   0.149
    1UNL     C2    2  -0.185  -0.148   0.196
    1UNL     C3    3  -0.296  -0.165   0.284
    1UNL     C4    4  -0.167  -0.028   0.136
    1UNL     C5    5  -0.253   0.097   0.184
    1UNL     C6    6  -0.314   0.167   0.060
    1UNL     C7    7  -0.194   0.221  -0.028
    1UNL     C8    8  -0.261   0.283  -0.147
    1UNL     O1    9  -0.121   0.317   0.057
    1UNL     C9   10  -0.114   0.093  -0.073
    1UNL     O2   11  -0.187   0.005  -0.144
    1UNL    C10   12  -0.057   0.016   0.048
    1UNL     O3   13   0.011  -0.098  -0.005
    1UNL    C11   14   0.115  -0.069  -0.099
    1UNL     O4   15   0.187   0.058  -0.089
    1UNL    C12   16   0.332   0.040  -0.055
    1UNL    C13   17   0.384   0.184  -0.012
    1UNL     O5   18   0.520   0.202   0.007
    1UNL    C14   19   0.347  -0.067   0.050
    1UNL     O6   20   0.270  -0.038   0.164
    1UNL    C15   21   0.298  -0.207   0.003
    1UNL     O7   22   0.241  -0.279   0.110
    1UNL    C16   23   0.207  -0.193  -0.117
    1UNL     O8   24   0.147  -0.315  -0.132
    1UNL     H1   25  -0.139  -0.304   0.046
    1UNL     H2   26  -0.002  -0.256   0.143
    1UNL     H3   27  -0.133  -0.353   0.213
    1UNL     H4   28  -0.282  -0.088   0.365
    1UNL     H5   29  -0.270  -0.252   0.347
    1UNL     H6   30  -0.390  -0.169   0.234
    1UNL     H7   31  -0.321   0.084   0.268
    1UNL     H8   32  -0.193   0.175   0.226
    1UNL     H9   33  -0.390   0.103   0.008
    1UNL    H10   34  -0.367   0.259   0.099
    1UNL    H11   35  -0.197   0.343  -0.210
    1UNL    H12   36  -0.329   0.357  -0.103
    1UNL    H13   37  -0.323   0.208  -0.203
    1UNL    H14   38  -0.060   0.367   0.000
    1UNL    H15   39  -0.031   0.128  -0.142
    1UNL    H16   40  -0.145  -0.085  -0.138
    1UNL    H17   41   0.017   0.092   0.100
    1UNL    H18   42   0.063  -0.058  -0.191
    1UNL    H19   43   0.380   0.009  -0.146
    1UNL    H20   44   0.351   0.251  -0.094
    1UNL    H21   45   0.333   0.224   0.072
    1UNL    H22   46   0.566   0.154  -0.064
    1UNL    H23   47   0.447  -0.065   0.082
    1UNL    H24   48   0.177  -0.046   0.133
    1UNL    H25   49   0.388  -0.268  -0.027
    1UNL    H26   50   0.310  -0.268   0.179
    1UNL    H27   51   0.268  -0.180  -0.202
    1UNL    H28   52   0.118  -0.349  -0.046
   0.00000   0.00000   0.00000   0.00000   0.00000   0.00000   0.00000   0.00000   0.00000
Generated with MDTraj, t= 71.0
 52
    1UNL     C1    1  -0.070  -0.239   0.192
    1UNL     C2    2  -0.174  -0.138   0.199
    1UNL     C3    3  -0.301  -0.172   0.266
    1UNL     C4    4  -0.150  -0.011   0.151
    1UNL     C5    5  -0.234   0.107   0.193
    1UNL     C6    6  -0.317   0.164   0.077
    1UNL     C7    7  -0.224   0.208  -0.044
    1UNL     C8    8  -0.305   0.272  -0.157
    1UNL     O1    9  -0.122   0.299   0.019
    1UNL     C9   10  -0.139   0.081  -0.098
    1UNL     O2   11  -0.232  -0.018  -0.134
    1UNL    C10   12  -0.060   0.031   0.033
    1UNL     O3   13   0.022  -0.077  -0.008
    1UNL    C11   14   0.119  -0.047  -0.106
    1UNL     O4   15   0.193   0.078  -0.076
    1UNL    C12   16   0.330   0.050  -0.032
    1UNL    C13   17   0.421   0.168   0.008
    1UNL     O5   18   0.554   0.127   0.018
    1UNL    C14   19   0.337  -0.057   0.074
    1UNL     O6   20   0.244  -0.048   0.177
    1UNL    C15   21   0.307  -0.194   0.000
    1UNL     O7   22   0.250  -0.293   0.089
    1UNL    C16   23   0.218  -0.170  -0.127
    1UNL     O8   24   0.142  -0.281  -0.161
    1UNL     H1   25  -0.108  -0.343   0.204
    1UNL     H2   26  -0.010  -0.230   0.100
    1UNL     H3   27  -0.005  -0.221   0.286
    1UNL     H4   28  -0.279  -0.211   0.371
    1UNL     H5   29  -0.346  -0.260   0.230
    1UNL     H6   30  -0.382  -0.101   0.259
    1UNL     H7   31  -0.306   0.087   0.272
    1UNL     H8   32  -0.168   0.177   0.240
    1UNL     H9   33  -0.401   0.094   0.053
    1UNL    H10   34  -0.366   0.258   0.116
    1UNL    H11   35  -0.240   0.311  -0.232
    1UNL    H12   36  -0.380   0.347  -0.128
    1UNL    H13   37  -0.363   0.182  -0.192
    1UNL    H14   38  -0.054   0.322  -0.044
    1UNL    H15   39  -0.068   0.102  -0.185
    1UNL    H16   40  -0.183  -0.100  -0.158
    1UNL    H17   41   0.019   0.111   0.066
    1UNL    H18   42   0.082  -0.028  -0.202
    1UNL    H19   43   0.381   0.008  -0.117
    1UNL    H20   44   0.414   0.255  -0.060
    1UNL    H21   45   0.393   0.206   0.102
    1UNL    H22   46   0.587   0.081  -0.061
    1UNL    H23   47   0.433  -0.048   0.113
    1UNL    H24   48   0.155  -0.047   0.138
    1UNL    H25   49   0.390  -0.250  -0.046
    1UNL    H26   50   0.239  -0.250   0.176
    1UNL    H27   51   0.275  -0.153  -0.213
    1UNL    H28   52   0.126  -0.338  -0.081
   0.00000   0.00000   0.00000   0.00000   0.00000   0.00000   0.00000   0.00000   0.00000
Generated with MDTraj, t= 72.0
 52
    1UNL     C1    1  -0.077  -0.238   0.162
    1UNL     C2    2  -0.157  -0.115   0.210
    1UNL     C3    3  -0.265  -0.155   0.309
    1UNL     C4    4  -0.147   0.009   0.154
    1UNL     C5    5  -0.244   0.119   0.194
    1UNL     C6    6  -0.331   0.174   0.082
    1UNL     C7    7  -0.241   0.202  -0.049
    1UNL     C8    8  -0.334   0.228  -0.171
    1UNL     O1    9  -0.156   0.324  -0.038
    1UNL     C9   10  -0.152   0.082  -0.079
    1UNL     O2   11  -0.226  -0.028  -0.130
    1UNL    C10   12  -0.051   0.040   0.030
    1UNL     O3   13   0.031  -0.074  -0.014
    1UNL    C11   14   0.130  -0.034  -0.103
    1UNL     O4   15   0.214   0.078  -0.051
    1UNL    C12   16   0.353   0.042  -0.023
    1UNL    C13   17   0.412   0.159   0.057
    1UNL     O5   18   0.556   0.148   0.061
    1UNL    C14   19   0.363  -0.093   0.062
    1UNL     O6   20   0.295  -0.084   0.185
    1UNL    C15   21   0.298  -0.212  -0.023
    1UNL     O7   22   0.222  -0.299   0.069
    1UNL    C16   23   0.207  -0.166  -0.149
    1UNL     O8   24   0.110  -0.268  -0.186
    1UNL     H1   25  -0.057  -0.291   0.256
    1UNL     H2   26  -0.136  -0.302   0.094
    1UNL     H3   27   0.027  -0.205   0.124
    1UNL     H4   28  -0.285  -0.084   0.394
    1UNL     H5   29  -0.233  -0.236   0.365
    1UNL     H6   30  -0.357  -0.185   0.256
    1UNL     H7   31  -0.289   0.095   0.290
    1UNL     H8   32  -0.179   0.201   0.218
    1UNL     H9   33  -0.410   0.098   0.058
    1UNL    H10   34  -0.389   0.268   0.104
    1UNL    H11   35  -0.272   0.222  -0.260
    1UNL    H12   36  -0.385   0.326  -0.172
    1UNL    H13   37  -0.412   0.152  -0.172
    1UNL    H14   38  -0.097   0.347  -0.111
    1UNL    H15   39  -0.100   0.111  -0.176
    1UNL    H16   40  -0.172  -0.107  -0.124
    1UNL    H17   41   0.031   0.123   0.044
    1UNL    H18   42   0.096   0.007  -0.193
    1UNL    H19   43   0.408   0.028  -0.112
    1UNL    H20   44   0.376   0.259   0.028
    1UNL    H21   45   0.381   0.146   0.158
    1UNL    H22   46   0.594   0.155  -0.030
    1UNL    H23   47   0.464  -0.104   0.085
    1UNL    H24   48   0.199  -0.068   0.165
    1UNL    H25   49   0.380  -0.273  -0.058
    1UNL    H26   50   0.238  -0.260   0.160
    1UNL    H27   51   0.270  -0.152  -0.231
    1UNL    H28   52   0.087  -0.315  -0.105
   0.00000   0.00000   0.00000   0.00000   0.00000   0.00000   0.00000   0.00000   0.00000
Generated with MDTraj, t= 73.0
 52
    1UNL     C1    1  -0.121  -0.216   0.148
    1UNL     C2    2  -0.140  -0.090   0.233
    1UNL     C3    3  -0.199  -0.100   0.372
    1UNL     C4    4  -0.131   0.024   0.165
    1UNL     C5    5  -0.228   0.143   0.189
    1UNL     C6    6  -0.328   0.145   0.074
    1UNL     C7    7  -0.255   0.176  -0.062
    1UNL     C8    8  -0.350   0.188  -0.183
    1UNL     O1    9  -0.196   0.310  -0.047
    1UNL     C9   10  -0.133   0.080  -0.090
    1UNL     O2   11  -0.186  -0.039  -0.147
    1UNL    C10   12  -0.046   0.046   0.040
    1UNL     O3   13   0.041  -0.061   0.004
    1UNL    C11   14   0.133  -0.024  -0.098
    1UNL     O4   15   0.230   0.076  -0.060
    1UNL    C12   16   0.358   0.032  -0.002
    1UNL    C13   17   0.399   0.144   0.100
    1UNL     O5   18   0.544   0.152   0.101
    1UNL    C14   19   0.353  -0.118   0.056
    1UNL     O6   20   0.270  -0.111   0.170
    1UNL    C15   21   0.294  -0.220  -0.051
    1UNL     O7   22   0.217  -0.310   0.032
    1UNL    C16   23   0.204  -0.149  -0.160
    1UNL     O8   24   0.095  -0.237  -0.205
    1UNL     H1   25  -0.018  -0.255   0.161
    1UNL     H2   26  -0.189  -0.304   0.170
    1UNL     H3   27  -0.121  -0.203   0.042
    1UNL     H4   28  -0.131  -0.035   0.428
    1UNL     H5   29  -0.193  -0.196   0.412
    1UNL     H6   30  -0.304  -0.063   0.374
    1UNL     H7   31  -0.283   0.124   0.278
    1UNL     H8   32  -0.174   0.233   0.209
    1UNL     H9   33  -0.373   0.040   0.067
    1UNL    H10   34  -0.423   0.202   0.091
    1UNL    H11   35  -0.291   0.238  -0.263
    1UNL    H12   36  -0.433   0.256  -0.163
    1UNL    H13   37  -0.391   0.097  -0.223
    1UNL    H14   38  -0.147   0.339  -0.129
    1UNL    H15   39  -0.078   0.131  -0.174
    1UNL    H16   40  -0.119  -0.096  -0.192
    1UNL    H17   41   0.016   0.140   0.067
    1UNL    H18   42   0.084   0.015  -0.182
    1UNL    H19   43   0.428   0.023  -0.082
    1UNL    H20   44   0.352   0.238   0.060
    1UNL    H21   45   0.358   0.129   0.198
    1UNL    H22   46   0.572   0.190   0.013
    1UNL    H23   47   0.446  -0.152   0.095
    1UNL    H24   48   0.181  -0.089   0.136
    1UNL    H25   49   0.371  -0.281  -0.094
    1UNL    H26   50   0.234  -0.281   0.123
    1UNL    H27   51   0.265  -0.133  -0.243
    1UNL    H28   52   0.069  -0.291  -0.125
   0.00000   0.00000   0.00000   0.00000   0.00000   0.00000   0.00000   0.00000   0.00000
Generated with MDTraj, t= 74.0
 52
    1UNL     C1    1  -0.059  -0.201   0.186
    1UNL     C2    2  -0.111  -0.071   0.233
    1UNL     C3    3  -0.188  -0.074   0.370
    1UNL     C4    4  -0.117   0.037   0.158
    1UNL     C5    5  -0.209   0.148   0.192
    1UNL     C6    6  -0.320   0.152   0.081
    1UNL     C7    7  -0.273   0.181  -0.067
    1UNL     C8    8  -0.378   0.153  -0.169
    1UNL     O1    9  -0.232   0.315  -0.081
    1UNL     C9   10  -0.149   0.083  -0.097
    1UNL     O2   11  -0.182  -0.043  -0.148
    1UNL    C10   12  -0.043   0.058   0.022
    1UNL     O3   13   0.039  -0.053  -0.018
    1UNL    C11   14   0.135  -0.015  -0.101
    1UNL     O4   15   0.227   0.085  -0.051
    1UNL    C12   16   0.341   0.029   0.009
    1UNL    C13   17   0.402   0.122   0.118
    1UNL     O5   18   0.536   0.090   0.142
    1UNL    C14   19   0.324  -0.111   0.064
    1UNL     O6   20   0.222  -0.130   0.158
    1UNL    C15   21   0.304  -0.205  -0.058
    1UNL     O7   22   0.250  -0.324  -0.006
    1UNL    C16   23   0.206  -0.139  -0.158
    1UNL     O8   24   0.101  -0.225  -0.205
    1UNL     H1   25   0.012  -0.183   0.106
    1UNL     H2   26  -0.003  -0.253   0.270
    1UNL     H3   27  -0.127  -0.269   0.138
    1UNL     H4   28  -0.140  -0.002   0.432
    1UNL     H5   29  -0.170  -0.172   0.412
    1UNL     H6   30  -0.298  -0.059   0.374
    1UNL     H7   31  -0.243   0.127   0.291
    1UNL     H8   32  -0.154   0.241   0.194
    1UNL     H9   33  -0.389   0.062   0.083
    1UNL    H10   34  -0.390   0.230   0.117
    1UNL    H11   35  -0.357   0.192  -0.272
    1UNL    H12   36  -0.476   0.195  -0.145
    1UNL    H13   37  -0.381   0.046  -0.169
    1UNL    H14   38  -0.198   0.308  -0.175
    1UNL    H15   39  -0.090   0.128  -0.179
    1UNL    H16   40  -0.105  -0.093  -0.181
    1UNL    H17   41   0.026   0.148   0.036
    1UNL    H18   42   0.088   0.036  -0.181
    1UNL    H19   43   0.417   0.014  -0.066
    1UNL    H20   44   0.402   0.228   0.084
    1UNL    H21   45   0.348   0.116   0.211
    1UNL    H22   46   0.598   0.111   0.070
    1UNL    H23   47   0.411  -0.137   0.122
    1UNL    H24   48   0.150  -0.064   0.140
    1UNL    H25   49   0.394  -0.228  -0.112
    1UNL    H26   50   0.224  -0.305   0.088
    1UNL    H27   51   0.256  -0.096  -0.241
    1UNL    H28   52   0.117  -0.317  -0.176
   0.00000   0.00000   0.00000   0.00000   0.00000   0.00000   0.00000   0.00000   0.00000
Generated with MDTraj, t= 75.0
 52
    1UNL     C1    1  -0.040  -0.176   0.201
    1UNL     C2    2  -0.122  -0.050   0.234
    1UNL     C3    3  -0.204  -0.072   0.355
    1UNL     C4    4  -0.125   0.056   0.151
    1UNL     C5    5  -0.210   0.184   0.176
    1UNL     C6    6  -0.333   0.172   0.084
    1UNL     C7    7  -0.287   0.174  -0.059
    1UNL     C8    8  -0.417   0.143  -0.143
    1UNL     O1    9  -0.251   0.313  -0.092
    1UNL     C9   10  -0.171   0.062  -0.093
    1UNL     O2   11  -0.218  -0.061  -0.134
    1UNL    C10   12  -0.060   0.053   0.010
    1UNL     O3   13   0.030  -0.052  -0.024
    1UNL    C11   14   0.143  -0.011  -0.109
    1UNL     O4   15   0.236   0.074  -0.029
    1UNL    C12   16   0.373   0.027  -0.002
    1UNL    C13   17   0.428   0.109   0.121
    1UNL     O5   18   0.517   0.047   0.208
    1UNL    C14   19   0.364  -0.115   0.041
    1UNL     O6   20   0.265  -0.128   0.140
    1UNL    C15   21   0.315  -0.207  -0.071
    1UNL     O7   22   0.264  -0.319  -0.017
    1UNL    C16   23   0.218  -0.134  -0.165
    1UNL     O8   24   0.121  -0.218  -0.218
    1UNL     H1   25  -0.031  -0.190   0.093
    1UNL     H2   26   0.052  -0.161   0.253
    1UNL     H3   27  -0.089  -0.263   0.245
    1UNL     H4   28  -0.229   0.023   0.390
    1UNL     H5   29  -0.151  -0.125   0.435
    1UNL     H6   30  -0.301  -0.123   0.352
    1UNL     H7   31  -0.248   0.191   0.275
    1UNL     H8   32  -0.158   0.277   0.155
    1UNL     H9   33  -0.392   0.077   0.101
    1UNL    H10   34  -0.406   0.253   0.104
    1UNL    H11   35  -0.394   0.117  -0.249
    1UNL    H12   36  -0.464   0.241  -0.161
    1UNL    H13   37  -0.494   0.080  -0.103
    1UNL    H14   38  -0.237   0.329  -0.188
    1UNL    H15   39  -0.117   0.093  -0.182
    1UNL    H16   40  -0.142  -0.126  -0.127
    1UNL    H17   41  -0.001   0.149   0.002
    1UNL    H18   42   0.102   0.035  -0.196
    1UNL    H19   43   0.428   0.038  -0.096
    1UNL    H20   44   0.469   0.207   0.084
    1UNL    H21   45   0.341   0.128   0.183
    1UNL    H22   46   0.601   0.039   0.160
    1UNL    H23   47   0.455  -0.149   0.092
    1UNL    H24   48   0.184  -0.087   0.104
    1UNL    H25   49   0.398  -0.241  -0.131
    1UNL    H26   50   0.200  -0.288   0.052
    1UNL    H27   51   0.276  -0.095  -0.247
    1UNL    H28   52   0.153  -0.310  -0.193
   0.00000   0.00000   0.00000   0.00000   0.00000   0.00000   0.00000   0.00000   0.00000
Generated with MDTraj, t= 76.0
 52
    1UNL     C1    1  -0.093  -0.180   0.198
    1UNL     C2    2  -0.128  -0.043   0.244
    1UNL     C3    3  -0.207  -0.036   0.370
    1UNL     C4    4  -0.122   0.060   0.158
    1UNL     C5    5  -0.203   0.176   0.171
    1UNL     C6    6  -0.321   0.160   0.069
    1UNL     C7    7  -0.276   0.161  -0.074
    1UNL     C8    8  -0.387   0.121  -0.173
    1UNL     O1    9  -0.222   0.289  -0.089
    1UNL     C9   10  -0.164   0.047  -0.091
    1UNL     O2   11  -0.205  -0.093  -0.065
    1UNL    C10   12  -0.051   0.057   0.019
    1UNL     O3   13   0.048  -0.046  -0.003
    1UNL    C11   14   0.145  -0.000  -0.100
    1UNL     O4   15   0.249   0.084  -0.047
    1UNL    C12   16   0.366   0.032   0.010
    1UNL    C13   17   0.403   0.107   0.141
    1UNL     O5   18   0.530   0.055   0.190
    1UNL    C14   19   0.346  -0.115   0.044
    1UNL     O6   20   0.244  -0.136   0.140
    1UNL    C15   21   0.310  -0.200  -0.090
    1UNL     O7   22   0.252  -0.321  -0.052
    1UNL    C16   23   0.207  -0.114  -0.177
    1UNL     O8   24   0.104  -0.189  -0.231
    1UNL     H1   25  -0.021  -0.191   0.117
    1UNL     H2   26  -0.055  -0.231   0.280
    1UNL     H3   27  -0.183  -0.237   0.164
    1UNL     H4   28  -0.141  -0.003   0.447
    1UNL     H5   29  -0.254  -0.135   0.393
    1UNL     H6   30  -0.280   0.043   0.375
    1UNL     H7   31  -0.242   0.198   0.268
    1UNL     H8   32  -0.142   0.261   0.144
    1UNL     H9   33  -0.365   0.059   0.090
    1UNL    H10   34  -0.403   0.233   0.081
    1UNL    H11   35  -0.371   0.157  -0.276
    1UNL    H12   36  -0.484   0.161  -0.145
    1UNL    H13   37  -0.397   0.012  -0.166
    1UNL    H14   38  -0.165   0.301  -0.166
    1UNL    H15   39  -0.125   0.057  -0.190
    1UNL    H16   40  -0.135  -0.152  -0.095
    1UNL    H17   41   0.003   0.155   0.006
    1UNL    H18   42   0.088   0.051  -0.176
    1UNL    H19   43   0.449   0.047  -0.064
    1UNL    H20   44   0.407   0.219   0.131
    1UNL    H21   45   0.329   0.082   0.216
    1UNL    H22   46   0.605   0.085   0.133
    1UNL    H23   47   0.441  -0.150   0.092
    1UNL    H24   48   0.165  -0.083   0.111
    1UNL    H25   49   0.397  -0.225  -0.152
    1UNL    H26   50   0.296  -0.352   0.029
    1UNL    H27   51   0.258  -0.060  -0.258
    1UNL    H28   52   0.079  -0.238  -0.150
   0.00000   0.00000   0.00000   0.00000   0.00000   0.00000   0.00000   0.00000   0.00000
Generated with MDTraj, t= 77.0
 52
    1UNL     C1    1  -0.079  -0.191   0.207
    1UNL     C2    2  -0.122  -0.055   0.248
    1UNL     C3    3  -0.183  -0.041   0.383
    1UNL     C4    4  -0.135   0.048   0.158
    1UNL     C5    5  -0.214   0.167   0.165
    1UNL     C6    6  -0.320   0.189   0.054
    1UNL     C7    7  -0.259   0.148  -0.085
    1UNL     C8    8  -0.374   0.131  -0.185
    1UNL     O1    9  -0.190   0.274  -0.125
    1UNL     C9   10  -0.163   0.030  -0.085
    1UNL     O2   11  -0.232  -0.095  -0.078
    1UNL    C10   12  -0.063   0.044   0.030
    1UNL     O3   13   0.047  -0.047   0.025
    1UNL    C11   14   0.137   0.005  -0.078
    1UNL     O4   15   0.248   0.091  -0.030
    1UNL    C12   16   0.366   0.027   0.016
    1UNL    C13   17   0.395   0.105   0.151
    1UNL     O5   18   0.537   0.102   0.170
    1UNL    C14   19   0.354  -0.132   0.041
    1UNL     O6   20   0.278  -0.157   0.151
    1UNL    C15   21   0.292  -0.201  -0.091
    1UNL     O7   22   0.225  -0.320  -0.055
    1UNL    C16   23   0.196  -0.105  -0.170
    1UNL     O8   24   0.089  -0.157  -0.248
    1UNL     H1   25  -0.003  -0.194   0.133
    1UNL     H2   26  -0.034  -0.237   0.291
    1UNL     H3   27  -0.160  -0.259   0.169
    1UNL     H4   28  -0.175  -0.140   0.431
    1UNL     H5   29  -0.289  -0.015   0.370
    1UNL     H6   30  -0.123   0.020   0.443
    1UNL     H7   31  -0.271   0.157   0.257
    1UNL     H8   32  -0.148   0.251   0.180
    1UNL     H9   33  -0.410   0.126   0.075
    1UNL    H10   34  -0.355   0.294   0.063
    1UNL    H11   35  -0.344   0.100  -0.282
    1UNL    H12   36  -0.421   0.228  -0.195
    1UNL    H13   37  -0.444   0.058  -0.139
    1UNL    H14   38  -0.148   0.252  -0.209
    1UNL    H15   39  -0.107   0.036  -0.174
    1UNL    H16   40  -0.166  -0.167  -0.072
    1UNL    H17   41  -0.014   0.142   0.022
    1UNL    H18   42   0.078   0.067  -0.146
    1UNL    H19   43   0.451   0.048  -0.057
    1UNL    H20   44   0.361   0.212   0.146
    1UNL    H21   45   0.353   0.061   0.240
    1UNL    H22   46   0.585   0.154   0.099
    1UNL    H23   47   0.454  -0.184   0.057
    1UNL    H24   48   0.199  -0.099   0.142
    1UNL    H25   49   0.370  -0.240  -0.162
    1UNL    H26   50   0.155  -0.297   0.012
    1UNL    H27   51   0.259  -0.043  -0.238
    1UNL    H28   52   0.050  -0.227  -0.190
   0.00000   0.00000   0.00000   0.00000   0.00000   0.00000   0.00000   0.00000   0.00000
Generated with MDTraj, t= 78.0
 52
    1UNL     C1    1  -0.043  -0.182   0.236
    1UNL     C2    2  -0.131  -0.058   0.248
    1UNL     C3    3  -0.202  -0.054   0.368
    1UNL     C4    4  -0.132   0.039   0.155
    1UNL     C5    5  -0.223   0.161   0.166
    1UNL     C6    6  -0.326   0.172   0.053
    1UNL     C7    7  -0.261   0.161  -0.082
    1UNL     C8    8  -0.371   0.159  -0.199
    1UNL     O1    9  -0.178   0.275  -0.107
    1UNL     C9   10  -0.185   0.027  -0.080
    1UNL     O2   11  -0.273  -0.087  -0.069
    1UNL    C10   12  -0.068   0.034   0.024
    1UNL     O3   13   0.041  -0.067  -0.004
    1UNL    C11   14   0.139  -0.001  -0.085
    1UNL     O4   15   0.221   0.088   0.002
    1UNL    C12   16   0.355   0.035   0.021
    1UNL    C13   17   0.426   0.097   0.142
    1UNL     O5   18   0.567   0.084   0.139
    1UNL    C14   19   0.348  -0.117   0.050
    1UNL     O6   20   0.252  -0.136   0.150
    1UNL    C15   21   0.305  -0.192  -0.088
    1UNL     O7   22   0.219  -0.297  -0.040
    1UNL    C16   23   0.220  -0.099  -0.175
    1UNL     O8   24   0.124  -0.179  -0.251
    1UNL     H1   25  -0.057  -0.217   0.135
    1UNL     H2   26   0.059  -0.153   0.251
    1UNL     H3   27  -0.075  -0.257   0.306
    1UNL     H4   28  -0.295  -0.116   0.378
    1UNL     H5   29  -0.235   0.044   0.390
    1UNL     H6   30  -0.140  -0.086   0.448
    1UNL     H7   31  -0.278   0.171   0.260
    1UNL     H8   32  -0.163   0.249   0.167
    1UNL     H9   33  -0.406   0.097   0.065
    1UNL    H10   34  -0.371   0.274   0.050
    1UNL    H11   35  -0.315   0.139  -0.287
    1UNL    H12   36  -0.421   0.251  -0.226
    1UNL    H13   37  -0.446   0.076  -0.185
    1UNL    H14   38  -0.129   0.252  -0.189
    1UNL    H15   39  -0.143   0.025  -0.177
    1UNL    H16   40  -0.220  -0.167  -0.092
    1UNL    H17   41  -0.024   0.130   0.008
    1UNL    H18   42   0.075   0.056  -0.157
    1UNL    H19   43   0.406   0.055  -0.079
    1UNL    H20   44   0.403   0.205   0.155
    1UNL    H21   45   0.384   0.049   0.230
    1UNL    H22   46   0.596   0.144   0.066
    1UNL    H23   47   0.446  -0.151   0.102
    1UNL    H24   48   0.171  -0.091   0.117
    1UNL    H25   49   0.399  -0.234  -0.135
    1UNL    H26   50   0.263  -0.351   0.029
    1UNL    H27   51   0.282  -0.040  -0.248
    1UNL    H28   52   0.134  -0.274  -0.223
   0.00000   0.00000   0.00000   0.00000   0.00000   0.00000   0.00000   0.00000   0.00000
Generated with MDTraj, t= 79.0
 52
    1UNL     C1    1  -0.060  -0.187   0.240
    1UNL     C2    2  -0.138  -0.061   0.247
    1UNL     C3    3  -0.222  -0.057   0.372
    1UNL     C4    4  -0.145   0.032   0.152
    1UNL     C5    5  -0.233   0.149   0.173
    1UNL     C6    6  -0.342   0.156   0.058
    1UNL     C7    7  -0.274   0.173  -0.078
    1UNL     C8    8  -0.373   0.186  -0.196
    1UNL     O1    9  -0.195   0.284  -0.077
    1UNL     C9   10  -0.174   0.044  -0.098
    1UNL     O2   11  -0.254  -0.067  -0.082
    1UNL    C10   12  -0.076   0.032   0.018
    1UNL     O3   13   0.028  -0.066  -0.013
    1UNL    C11   14   0.136  -0.008  -0.088
    1UNL     O4   15   0.225   0.077  -0.005
    1UNL    C12   16   0.360   0.035   0.012
    1UNL    C13   17   0.444   0.127   0.102
    1UNL     O5   18   0.570   0.070   0.122
    1UNL    C14   19   0.355  -0.112   0.059
    1UNL     O6   20   0.259  -0.130   0.153
    1UNL    C15   21   0.309  -0.193  -0.066
    1UNL     O7   22   0.243  -0.306  -0.023
    1UNL    C16   23   0.225  -0.112  -0.164
    1UNL     O8   24   0.145  -0.201  -0.241
    1UNL     H1   25  -0.017  -0.197   0.141
    1UNL     H2   26   0.025  -0.189   0.312
    1UNL     H3   27  -0.119  -0.271   0.250
    1UNL     H4   28  -0.288   0.027   0.390
    1UNL     H5   29  -0.160  -0.067   0.455
    1UNL     H6   30  -0.285  -0.147   0.363
    1UNL     H7   31  -0.271   0.158   0.275
    1UNL     H8   32  -0.171   0.234   0.166
    1UNL     H9   33  -0.399   0.064   0.046
    1UNL    H10   34  -0.411   0.244   0.063
    1UNL    H11   35  -0.332   0.228  -0.287
    1UNL    H12   36  -0.457   0.251  -0.173
    1UNL    H13   37  -0.421   0.090  -0.217
    1UNL    H14   38  -0.141   0.294  -0.161
    1UNL    H15   39  -0.129   0.048  -0.196
    1UNL    H16   40  -0.198  -0.149  -0.093
    1UNL    H17   41  -0.020   0.121   0.016
    1UNL    H18   42   0.085   0.059  -0.164
    1UNL    H19   43   0.412   0.034  -0.090
    1UNL    H20   44   0.450   0.229   0.060
    1UNL    H21   45   0.406   0.140   0.202
    1UNL    H22   46   0.618   0.054   0.039
    1UNL    H23   47   0.450  -0.145   0.114
    1UNL    H24   48   0.181  -0.089   0.109
    1UNL    H25   49   0.401  -0.230  -0.124
    1UNL    H26   50   0.213  -0.303   0.069
    1UNL    H27   51   0.284  -0.056  -0.244
    1UNL    H28   52   0.132  -0.286  -0.197
   0.00000   0.00000   0.00000   0.00000   0.00000   0.00000   0.00000   0.00000   0.00000
Generated with MDTraj, t= 80.0
 52
    1UNL     C1    1  -0.086  -0.213   0.165
    1UNL     C2    2  -0.143  -0.087   0.224
    1UNL     C3    3  -0.214  -0.088   0.360
    1UNL     C4    4  -0.138   0.031   0.164
    1UNL     C5    5  -0.238   0.149   0.183
    1UNL     C6    6  -0.340   0.162   0.069
    1UNL     C7    7  -0.271   0.177  -0.066
    1UNL     C8    8  -0.375   0.166  -0.177
    1UNL     O1    9  -0.189   0.304  -0.074
    1UNL     C9   10  -0.155   0.070  -0.086
    1UNL     O2   11  -0.185  -0.063  -0.133
    1UNL    C10   12  -0.061   0.058   0.035
    1UNL     O3   13   0.035  -0.043   0.008
    1UNL    C11   14   0.137  -0.013  -0.086
    1UNL     O4   15   0.238   0.081  -0.049
    1UNL    C12   16   0.365   0.033  -0.012
    1UNL    C13   17   0.419   0.130   0.095
    1UNL     O5   18   0.558   0.116   0.116
    1UNL    C14   19   0.359  -0.110   0.048
    1UNL     O6   20   0.278  -0.118   0.164
    1UNL    C15   21   0.301  -0.212  -0.053
    1UNL     O7   22   0.238  -0.318   0.010
    1UNL    C16   23   0.197  -0.139  -0.149
    1UNL     O8   24   0.084  -0.221  -0.185
    1UNL     H1   25  -0.139  -0.238   0.073
    1UNL     H2   26   0.020  -0.211   0.138
    1UNL     H3   27  -0.103  -0.300   0.221
    1UNL     H4   28  -0.157  -0.028   0.423
    1UNL     H5   29  -0.224  -0.187   0.400
    1UNL     H6   30  -0.313  -0.045   0.343
    1UNL     H7   31  -0.298   0.120   0.270
    1UNL     H8   32  -0.184   0.236   0.210
    1UNL     H9   33  -0.409   0.078   0.058
    1UNL    H10   34  -0.400   0.255   0.082
    1UNL    H11   35  -0.330   0.154  -0.277
    1UNL    H12   36  -0.410   0.270  -0.178
    1UNL    H13   37  -0.463   0.107  -0.162
    1UNL    H14   38  -0.154   0.314  -0.167
    1UNL    H15   39  -0.088   0.110  -0.163
    1UNL    H16   40  -0.102  -0.112  -0.123
    1UNL    H17   41   0.004   0.137   0.055
    1UNL    H18   42   0.081   0.047  -0.162
    1UNL    H19   43   0.429   0.019  -0.106
    1UNL    H20   44   0.405   0.232   0.057
    1UNL    H21   45   0.357   0.128   0.185
    1UNL    H22   46   0.607   0.115   0.032
    1UNL    H23   47   0.463  -0.140   0.085
    1UNL    H24   48   0.190  -0.081   0.133
    1UNL    H25   49   0.385  -0.255  -0.117
    1UNL    H26   50   0.242  -0.310   0.110
    1UNL    H27   51   0.250  -0.110  -0.248
    1UNL    H28   52   0.059  -0.269  -0.102
   0.00000   0.00000   0.00000   0.00000   0.00000   0.00000   0.00000   0.00000   0.00000
Generated with MDTraj, t= 81.0
 52
    1UNL     C1    1  -0.098  -0.225   0.134
    1UNL     C2    2  -0.146  -0.094   0.204
    1UNL     C3    3  -0.245  -0.126   0.312
    1UNL     C4    4  -0.120   0.030   0.162
    1UNL     C5    5  -0.228   0.130   0.195
    1UNL     C6    6  -0.324   0.141   0.085
    1UNL     C7    7  -0.255   0.189  -0.050
    1UNL     C8    8  -0.349   0.163  -0.169
    1UNL     O1    9  -0.216   0.322  -0.049
    1UNL     C9   10  -0.128   0.103  -0.079
    1UNL     O2   11  -0.161  -0.027  -0.135
    1UNL    C10   12  -0.032   0.072   0.043
    1UNL     O3   13   0.049  -0.035   0.014
    1UNL    C11   14   0.135  -0.023  -0.102
    1UNL     O4   15   0.239   0.074  -0.100
    1UNL    C12   16   0.359   0.030  -0.030
    1UNL    C13   17   0.410   0.135   0.067
    1UNL     O5   18   0.543   0.117   0.105
    1UNL    C14   19   0.343  -0.104   0.051
    1UNL     O6   20   0.266  -0.071   0.174
    1UNL    C15   21   0.287  -0.222  -0.035
    1UNL     O7   22   0.247  -0.319   0.051
    1UNL    C16   23   0.183  -0.160  -0.139
    1UNL     O8   24   0.068  -0.246  -0.145
    1UNL     H1   25  -0.131  -0.227   0.032
    1UNL     H2   26   0.005  -0.246   0.141
    1UNL     H3   27  -0.161  -0.298   0.183
    1UNL     H4   28  -0.242  -0.061   0.392
    1UNL     H5   29  -0.241  -0.225   0.360
    1UNL     H6   30  -0.345  -0.119   0.271
    1UNL     H7   31  -0.273   0.117   0.295
    1UNL     H8   32  -0.171   0.220   0.201
    1UNL     H9   33  -0.371   0.046   0.060
    1UNL    H10   34  -0.405   0.211   0.119
    1UNL    H11   35  -0.323   0.220  -0.261
    1UNL    H12   36  -0.451   0.188  -0.140
    1UNL    H13   37  -0.343   0.058  -0.184
    1UNL    H14   38  -0.175   0.335  -0.138
    1UNL    H15   39  -0.068   0.161  -0.155
    1UNL    H16   40  -0.089  -0.096  -0.140
    1UNL    H17   41   0.033   0.151   0.061
    1UNL    H18   42   0.069   0.007  -0.188
    1UNL    H19   43   0.428   0.007  -0.117
    1UNL    H20   44   0.386   0.235   0.029
    1UNL    H21   45   0.353   0.124   0.159
    1UNL    H22   46   0.604   0.126   0.026
    1UNL    H23   47   0.444  -0.128   0.096
    1UNL    H24   48   0.177  -0.049   0.144
    1UNL    H25   49   0.376  -0.262  -0.090
    1UNL    H26   50   0.204  -0.277   0.128
    1UNL    H27   51   0.241  -0.160  -0.241
    1UNL    H28   52   0.102  -0.329  -0.104
   0.00000   0.00000   0.00000   0.00000   0.00000   0.00000   0.00000   0.00000   0.00000
Generated with MDTraj, t= 82.0
 52
    1UNL     C1    1  -0.068  -0.231   0.168
    1UNL     C2    2  -0.155  -0.113   0.199
    1UNL     C3    3  -0.277  -0.140   0.279
    1UNL     C4    4  -0.139   0.017   0.155
    1UNL     C5    5  -0.238   0.129   0.197
    1UNL     C6    6  -0.331   0.150   0.078
    1UNL     C7    7  -0.256   0.198  -0.050
    1UNL     C8    8  -0.362   0.217  -0.169
    1UNL     O1    9  -0.192   0.322  -0.017
    1UNL     C9   10  -0.140   0.093  -0.088
    1UNL     O2   11  -0.216  -0.011  -0.149
    1UNL    C10   12  -0.051   0.053   0.036
    1UNL     O3   13   0.036  -0.046   0.009
    1UNL    C11   14   0.127  -0.034  -0.106
    1UNL     O4   15   0.231   0.070  -0.077
    1UNL    C12   16   0.365   0.029  -0.037
    1UNL    C13   17   0.435   0.150   0.021
    1UNL     O5   18   0.545   0.130   0.104
    1UNL    C14   19   0.367  -0.096   0.055
    1UNL     O6   20   0.297  -0.058   0.173
    1UNL    C15   21   0.301  -0.222  -0.020
    1UNL     O7   22   0.251  -0.312   0.077
    1UNL    C16   23   0.194  -0.174  -0.131
    1UNL     O8   24   0.092  -0.278  -0.153
    1UNL     H1   25  -0.033  -0.222   0.069
    1UNL     H2   26   0.018  -0.245   0.227
    1UNL     H3   27  -0.133  -0.319   0.165
    1UNL     H4   28  -0.278  -0.091   0.373
    1UNL     H5   29  -0.303  -0.246   0.293
    1UNL     H6   30  -0.353  -0.095   0.222
    1UNL     H7   31  -0.292   0.102   0.290
    1UNL     H8   32  -0.179   0.214   0.230
    1UNL     H9   33  -0.381   0.055   0.055
    1UNL    H10   34  -0.406   0.228   0.101
    1UNL    H11   35  -0.308   0.255  -0.257
    1UNL    H12   36  -0.439   0.289  -0.143
    1UNL    H13   37  -0.406   0.122  -0.190
    1UNL    H14   38  -0.142   0.345  -0.096
    1UNL    H15   39  -0.075   0.139  -0.172
    1UNL    H16   40  -0.168  -0.097  -0.156
    1UNL    H17   41   0.006   0.138   0.041
    1UNL    H18   42   0.073   0.001  -0.197
    1UNL    H19   43   0.425   0.001  -0.126
    1UNL    H20   44   0.462   0.226  -0.054
    1UNL    H21   45   0.362   0.198   0.088
    1UNL    H22   46   0.613   0.069   0.065
    1UNL    H23   47   0.469  -0.125   0.085
    1UNL    H24   48   0.208  -0.042   0.137
    1UNL    H25   49   0.373  -0.285  -0.074
    1UNL    H26   50   0.306  -0.317   0.159
    1UNL    H27   51   0.238  -0.155  -0.238
    1UNL    H28   52   0.081  -0.332  -0.072
   0.00000   0.00000   0.00000   0.00000   0.00000   0.00000   0.00000   0.00000   0.00000
Generated with MDTraj, t= 83.0
 52
    1UNL     C1    1  -0.067  -0.224   0.194
    1UNL     C2    2  -0.165  -0.117   0.223
    1UNL     C3    3  -0.281  -0.157   0.309
    1UNL     C4    4  -0.164   0.001   0.149
    1UNL     C5    5  -0.264   0.109   0.189
    1UNL     C6    6  -0.339   0.168   0.060
    1UNL     C7    7  -0.227   0.207  -0.049
    1UNL     C8    8  -0.295   0.246  -0.184
    1UNL     O1    9  -0.125   0.307  -0.004
    1UNL     C9   10  -0.148   0.080  -0.087
    1UNL     O2   11  -0.234  -0.026  -0.139
    1UNL    C10   12  -0.063   0.030   0.036
    1UNL     O3   13   0.019  -0.080  -0.005
    1UNL    C11   14   0.119  -0.037  -0.097
    1UNL     O4   15   0.197   0.078  -0.052
    1UNL    C12   16   0.341   0.051  -0.030
    1UNL    C13   17   0.427   0.159   0.041
    1UNL     O5   18   0.567   0.128   0.035
    1UNL    C14   19   0.350  -0.071   0.065
    1UNL     O6   20   0.261  -0.054   0.175
    1UNL    C15   21   0.304  -0.201  -0.015
    1UNL     O7   22   0.240  -0.295   0.067
    1UNL    C16   23   0.206  -0.166  -0.131
    1UNL     O8   24   0.136  -0.286  -0.178
    1UNL     H1   25  -0.105  -0.279   0.111
    1UNL     H2   26   0.030  -0.198   0.163
    1UNL     H3   27  -0.057  -0.306   0.264
    1UNL     H4   28  -0.272  -0.125   0.414
    1UNL     H5   29  -0.281  -0.264   0.301
    1UNL     H6   30  -0.367  -0.122   0.264
    1UNL     H7   31  -0.335   0.074   0.266
    1UNL     H8   32  -0.212   0.187   0.245
    1UNL     H9   33  -0.405   0.095   0.008
    1UNL    H10   34  -0.391   0.258   0.094
    1UNL    H11   35  -0.221   0.236  -0.263
    1UNL    H12   36  -0.331   0.349  -0.187
    1UNL    H13   37  -0.378   0.178  -0.209
    1UNL    H14   38  -0.053   0.313  -0.067
    1UNL    H15   39  -0.073   0.106  -0.170
    1UNL    H16   40  -0.182  -0.104  -0.164
    1UNL    H17   41   0.010   0.094   0.073
    1UNL    H18   42   0.069  -0.009  -0.193
    1UNL    H19   43   0.378   0.042  -0.131
    1UNL    H20   44   0.408   0.259  -0.001
    1UNL    H21   45   0.398   0.163   0.147
    1UNL    H22   46   0.585   0.106  -0.059
    1UNL    H23   47   0.448  -0.081   0.111
    1UNL    H24   48   0.175  -0.055   0.128
    1UNL    H25   49   0.395  -0.251  -0.046
    1UNL    H26   50   0.284  -0.293   0.157
    1UNL    H27   51   0.273  -0.127  -0.219
    1UNL    H28   52   0.083  -0.331  -0.107
   0.00000   0.00000   0.00000   0.00000   0.00000   0.00000   0.00000   0.00000   0.00000
Generated with MDTraj, t= 84.0
 52
    1UNL     C1    1  -0.097  -0.254   0.189
    1UNL     C2    2  -0.168  -0.124   0.220
    1UNL     C3    3  -0.257  -0.125   0.338
    1UNL     C4    4  -0.154  -0.008   0.149
    1UNL     C5    5  -0.260   0.101   0.173
    1UNL     C6    6  -0.316   0.170   0.042
    1UNL     C7    7  -0.194   0.205  -0.055
    1UNL     C8    8  -0.254   0.280  -0.171
    1UNL     O1    9  -0.104   0.294   0.016
    1UNL     C9   10  -0.123   0.070  -0.093
    1UNL     O2   11  -0.217  -0.025  -0.141
    1UNL    C10   12  -0.057   0.016   0.035
    1UNL     O3   13   0.017  -0.100  -0.020
    1UNL    C11   14   0.124  -0.051  -0.098
    1UNL     O4   15   0.190   0.063  -0.051
    1UNL    C12   16   0.326   0.050  -0.009
    1UNL    C13   17   0.396   0.185   0.044
    1UNL     O5   18   0.525   0.207  -0.015
    1UNL    C14   19   0.331  -0.084   0.075
    1UNL     O6   20   0.247  -0.083   0.181
    1UNL    C15   21   0.293  -0.211  -0.006
    1UNL     O7   22   0.209  -0.293   0.070
    1UNL    C16   23   0.216  -0.172  -0.132
    1UNL     O8   24   0.142  -0.281  -0.178
    1UNL     H1   25  -0.175  -0.322   0.164
    1UNL     H2   26  -0.035  -0.238   0.100
    1UNL     H3   27  -0.046  -0.299   0.271
    1UNL     H4   28  -0.287  -0.037   0.401
    1UNL     H5   29  -0.209  -0.185   0.410
    1UNL     H6   30  -0.347  -0.172   0.312
    1UNL     H7   31  -0.347   0.069   0.233
    1UNL     H8   32  -0.211   0.178   0.233
    1UNL     H9   33  -0.377   0.092  -0.007
    1UNL    H10   34  -0.372   0.261   0.062
    1UNL    H11   35  -0.187   0.341  -0.227
    1UNL    H12   36  -0.326   0.348  -0.126
    1UNL    H13   37  -0.315   0.220  -0.243
    1UNL    H14   38  -0.017   0.302  -0.026
    1UNL    H15   39  -0.051   0.093  -0.177
    1UNL    H16   40  -0.181  -0.115  -0.152
    1UNL    H17   41   0.021   0.072   0.069
    1UNL    H18   42   0.084  -0.027  -0.199
    1UNL    H19   43   0.373   0.034  -0.104
    1UNL    H20   44   0.337   0.276   0.022
    1UNL    H21   45   0.413   0.183   0.153
    1UNL    H22   46   0.527   0.179  -0.107
    1UNL    H23   47   0.426  -0.105   0.122
    1UNL    H24   48   0.161  -0.048   0.148
    1UNL    H25   49   0.378  -0.271  -0.035
    1UNL    H26   50   0.227  -0.283   0.165
    1UNL    H27   51   0.302  -0.142  -0.207
    1UNL    H28   52   0.113  -0.332  -0.102
   0.00000   0.00000   0.00000   0.00000   0.00000   0.00000   0.00000   0.00000   0.00000
Generated with MDTraj, t= 85.0
 52
    1UNL     C1    1  -0.090  -0.246   0.158
    1UNL     C2    2  -0.165  -0.130   0.205
    1UNL     C3    3  -0.227  -0.138   0.345
    1UNL     C4    4  -0.158  -0.019   0.132
    1UNL     C5    5  -0.233   0.106   0.173
    1UNL     C6    6  -0.294   0.177   0.060
    1UNL     C7    7  -0.192   0.228  -0.047
    1UNL     C8    8  -0.271   0.307  -0.157
    1UNL     O1    9  -0.100   0.321   0.015
    1UNL     C9   10  -0.112   0.096  -0.102
    1UNL     O2   11  -0.195   0.015  -0.177
    1UNL    C10   12  -0.053   0.015   0.027
    1UNL     O3   13   0.026  -0.106  -0.008
    1UNL    C11   14   0.124  -0.085  -0.106
    1UNL     O4   15   0.195   0.040  -0.091
    1UNL    C12   16   0.321   0.034  -0.026
    1UNL    C13   17   0.352   0.164   0.058
    1UNL     O5   18   0.434   0.262  -0.005
    1UNL    C14   19   0.329  -0.090   0.074
    1UNL     O6   20   0.253  -0.079   0.188
    1UNL    C15   21   0.297  -0.233   0.010
    1UNL     O7   22   0.227  -0.309   0.106
    1UNL    C16   23   0.215  -0.208  -0.121
    1UNL     O8   24   0.137  -0.313  -0.161
    1UNL     H1   25  -0.111  -0.329   0.222
    1UNL     H2   26  -0.135  -0.268   0.059
    1UNL     H3   27   0.014  -0.240   0.154
    1UNL     H4   28  -0.174  -0.097   0.432
    1UNL     H5   29  -0.249  -0.235   0.377
    1UNL     H6   30  -0.322  -0.084   0.338
    1UNL     H7   31  -0.307   0.087   0.252
    1UNL     H8   32  -0.167   0.181   0.222
    1UNL     H9   33  -0.363   0.106   0.010
    1UNL    H10   34  -0.346   0.261   0.104
    1UNL    H11   35  -0.200   0.349  -0.226
    1UNL    H12   36  -0.332   0.390  -0.124
    1UNL    H13   37  -0.340   0.245  -0.219
    1UNL    H14   38  -0.029   0.347  -0.048
    1UNL    H15   39  -0.031   0.142  -0.164
    1UNL    H16   40  -0.161  -0.078  -0.176
    1UNL    H17   41   0.012   0.081   0.072
    1UNL    H18   42   0.069  -0.081  -0.204
    1UNL    H19   43   0.398   0.029  -0.101
    1UNL    H20   44   0.258   0.220   0.067
    1UNL    H21   45   0.396   0.141   0.158
    1UNL    H22   46   0.431   0.256  -0.103
    1UNL    H23   47   0.430  -0.100   0.101
    1UNL    H24   48   0.163  -0.063   0.156
    1UNL    H25   49   0.389  -0.282  -0.023
    1UNL    H26   50   0.246  -0.278   0.199
    1UNL    H27   51   0.291  -0.183  -0.208
    1UNL    H28   52   0.116  -0.365  -0.079
   0.00000   0.00000   0.00000   0.00000   0.00000   0.00000   0.00000   0.00000   0.00000
Generated with MDTraj, t= 86.0
 52
    1UNL     C1    1  -0.090  -0.244   0.143
    1UNL     C2    2  -0.148  -0.116   0.190
    1UNL     C3    3  -0.264  -0.137   0.296
    1UNL     C4    4  -0.110  -0.002   0.143
    1UNL     C5    5  -0.177   0.130   0.187
    1UNL     C6    6  -0.268   0.188   0.082
    1UNL     C7    7  -0.171   0.228  -0.035
    1UNL     C8    8  -0.251   0.282  -0.154
    1UNL     O1    9  -0.095   0.336   0.018
    1UNL     C9   10  -0.099   0.092  -0.086
    1UNL     O2   11  -0.181   0.003  -0.146
    1UNL    C10   12  -0.017   0.025   0.028
    1UNL     O3   13   0.031  -0.096  -0.031
    1UNL    C11   14   0.135  -0.077  -0.127
    1UNL     O4   15   0.209   0.043  -0.096
    1UNL    C12   16   0.326   0.022  -0.012
    1UNL    C13   17   0.336   0.157   0.061
    1UNL     O5   18   0.298   0.261  -0.027
    1UNL    C14   19   0.312  -0.090   0.095
    1UNL     O6   20   0.195  -0.084   0.180
    1UNL    C15   21   0.301  -0.231   0.020
    1UNL     O7   22   0.254  -0.332   0.103
    1UNL    C16   23   0.214  -0.212  -0.122
    1UNL     O8   24   0.124  -0.314  -0.144
    1UNL     H1   25  -0.086  -0.320   0.221
    1UNL     H2   26  -0.159  -0.279   0.067
    1UNL     H3   27   0.011  -0.247   0.102
    1UNL     H4   28  -0.275  -0.063   0.370
    1UNL     H5   29  -0.257  -0.233   0.341
    1UNL     H6   30  -0.355  -0.126   0.231
    1UNL     H7   31  -0.224   0.118   0.283
    1UNL     H8   32  -0.093   0.201   0.211
    1UNL     H9   33  -0.333   0.102   0.054
    1UNL    H10   34  -0.330   0.269   0.117
    1UNL    H11   35  -0.191   0.291  -0.245
    1UNL    H12   36  -0.296   0.380  -0.136
    1UNL    H13   37  -0.333   0.212  -0.167
    1UNL    H14   38  -0.029   0.359  -0.055
    1UNL    H15   39  -0.024   0.128  -0.158
    1UNL    H16   40  -0.133  -0.083  -0.144
    1UNL    H17   41   0.061   0.091   0.049
    1UNL    H18   42   0.096  -0.077  -0.234
    1UNL    H19   43   0.404  -0.002  -0.080
    1UNL    H20   44   0.265   0.153   0.143
    1UNL    H21   45   0.441   0.178   0.090
    1UNL    H22   46   0.238   0.226  -0.099
    1UNL    H23   47   0.397  -0.090   0.158
    1UNL    H24   48   0.119  -0.099   0.123
    1UNL    H25   49   0.408  -0.254  -0.000
    1UNL    H26   50   0.260  -0.304   0.198
    1UNL    H27   51   0.277  -0.220  -0.221
    1UNL    H28   52   0.132  -0.385  -0.077
   0.00000   0.00000   0.00000   0.00000   0.00000   0.00000   0.00000   0.00000   0.00000
Generated with MDTraj, t= 87.0
 52
    1UNL     C1    1  -0.132  -0.238   0.131
    1UNL     C2    2  -0.185  -0.108   0.182
    1UNL     C3    3  -0.286  -0.113   0.286
    1UNL     C4    4  -0.130   0.004   0.143
    1UNL     C5    5  -0.158   0.143   0.206
    1UNL     C6    6  -0.238   0.219   0.094
    1UNL     C7    7  -0.166   0.224  -0.040
    1UNL     C8    8  -0.252   0.283  -0.150
    1UNL     O1    9  -0.059   0.320  -0.007
    1UNL     C9   10  -0.114   0.085  -0.090
    1UNL     O2   11  -0.213   0.002  -0.144
    1UNL    C10   12  -0.031   0.015   0.025
    1UNL     O3   13   0.040  -0.112  -0.010
    1UNL    C11   14   0.135  -0.097  -0.115
    1UNL     O4   15   0.202   0.032  -0.113
    1UNL    C12   16   0.319   0.028  -0.026
    1UNL    C13   17   0.321   0.155   0.070
    1UNL     O5   18   0.218   0.242   0.030
    1UNL    C14   19   0.344  -0.092   0.070
    1UNL     O6   20   0.261  -0.069   0.182
    1UNL    C15   21   0.317  -0.233   0.010
    1UNL     O7   22   0.254  -0.313   0.108
    1UNL    C16   23   0.234  -0.217  -0.129
    1UNL     O8   24   0.172  -0.333  -0.160
    1UNL     H1   25  -0.190  -0.324   0.161
    1UNL     H2   26  -0.143  -0.217   0.027
    1UNL     H3   27  -0.024  -0.252   0.161
    1UNL     H4   28  -0.256  -0.121   0.385
    1UNL     H5   29  -0.343  -0.204   0.264
    1UNL     H6   30  -0.351  -0.025   0.274
    1UNL     H7   31  -0.222   0.125   0.291
    1UNL     H8   32  -0.067   0.192   0.253
    1UNL     H9   33  -0.336   0.173   0.082
    1UNL    H10   34  -0.253   0.322   0.123
    1UNL    H11   35  -0.183   0.296  -0.237
    1UNL    H12   36  -0.295   0.380  -0.122
    1UNL    H13   37  -0.331   0.213  -0.165
    1UNL    H14   38   0.001   0.343  -0.084
    1UNL    H15   39  -0.049   0.110  -0.173
    1UNL    H16   40  -0.177  -0.081  -0.181
    1UNL    H17   41   0.048   0.079   0.050
    1UNL    H18   42   0.077  -0.096  -0.213
    1UNL    H19   43   0.408   0.025  -0.089
    1UNL    H20   44   0.293   0.126   0.171
    1UNL    H21   45   0.419   0.207   0.070
    1UNL    H22   46   0.190   0.216  -0.059
    1UNL    H23   47   0.439  -0.086   0.118
    1UNL    H24   48   0.168  -0.088   0.153
    1UNL    H25   49   0.417  -0.285  -0.003
    1UNL    H26   50   0.284  -0.301   0.201
    1UNL    H27   51   0.304  -0.191  -0.221
    1UNL    H28   52   0.102  -0.357  -0.096
   0.00000   0.00000   0.00000   0.00000   0.00000   0.00000   0.00000   0.00000   0.00000
Generated with MDTraj, t= 88.0
 52
    1UNL     C1    1  -0.174  -0.234   0.118
    1UNL     C2    2  -0.194  -0.104   0.193
    1UNL     C3    3  -0.285  -0.105   0.307
    1UNL     C4    4  -0.125   0.001   0.149
    1UNL     C5    5  -0.154   0.136   0.193
    1UNL     C6    6  -0.226   0.217   0.083
    1UNL     C7    7  -0.151   0.217  -0.052
    1UNL     C8    8  -0.238   0.263  -0.171
    1UNL     O1    9  -0.041   0.303  -0.041
    1UNL     C9   10  -0.105   0.070  -0.087
    1UNL     O2   11  -0.216  -0.013  -0.124
    1UNL    C10   12  -0.038   0.007   0.030
    1UNL     O3   13   0.043  -0.110   0.010
    1UNL    C11   14   0.131  -0.083  -0.097
    1UNL     O4   15   0.198   0.042  -0.099
    1UNL    C12   16   0.315   0.039  -0.023
    1UNL    C13   17   0.330   0.171   0.056
    1UNL     O5   18   0.212   0.240   0.086
    1UNL    C14   19   0.344  -0.087   0.073
    1UNL     O6   20   0.268  -0.079   0.189
    1UNL    C15   21   0.319  -0.221  -0.011
    1UNL     O7   22   0.261  -0.317   0.072
    1UNL    C16   23   0.230  -0.203  -0.135
    1UNL     O8   24   0.156  -0.314  -0.158
    1UNL     H1   25  -0.270  -0.268   0.080
    1UNL     H2   26  -0.114  -0.225   0.031
    1UNL     H3   27  -0.144  -0.322   0.183
    1UNL     H4   28  -0.244  -0.127   0.403
    1UNL     H5   29  -0.349  -0.191   0.284
    1UNL     H6   30  -0.346  -0.020   0.320
    1UNL     H7   31  -0.210   0.133   0.285
    1UNL     H8   32  -0.054   0.181   0.228
    1UNL     H9   33  -0.324   0.175   0.062
    1UNL    H10   34  -0.240   0.320   0.116
    1UNL    H11   35  -0.163   0.279  -0.252
    1UNL    H12   36  -0.297   0.354  -0.154
    1UNL    H13   37  -0.306   0.184  -0.196
    1UNL    H14   38  -0.005   0.329  -0.129
    1UNL    H15   39  -0.042   0.062  -0.172
    1UNL    H16   40  -0.188  -0.095  -0.173
    1UNL    H17   41   0.043   0.070   0.059
    1UNL    H18   42   0.065  -0.083  -0.190
    1UNL    H19   43   0.395   0.042  -0.100
    1UNL    H20   44   0.375   0.158   0.151
    1UNL    H21   45   0.389   0.243  -0.004
    1UNL    H22   46   0.155   0.252   0.006
    1UNL    H23   47   0.448  -0.084   0.103
    1UNL    H24   48   0.180  -0.094   0.151
    1UNL    H25   49   0.419  -0.260  -0.044
    1UNL    H26   50   0.296  -0.319   0.165
    1UNL    H27   51   0.298  -0.181  -0.230
    1UNL    H28   52   0.109  -0.342  -0.075
   0.00000   0.00000   0.00000   0.00000   0.00000   0.00000   0.00000   0.00000   0.00000
Generated with MDTraj, t= 89.0
 52
    1UNL     C1    1  -0.150  -0.237   0.154
    1UNL     C2    2  -0.187  -0.106   0.199
    1UNL     C3    3  -0.284  -0.099   0.316
    1UNL     C4    4  -0.124   0.006   0.151
    1UNL     C5    5  -0.165   0.147   0.176
    1UNL     C6    6  -0.242   0.216   0.067
    1UNL     C7    7  -0.169   0.220  -0.063
    1UNL     C8    8  -0.251   0.277  -0.176
    1UNL     O1    9  -0.053   0.310  -0.051
    1UNL     C9   10  -0.125   0.071  -0.089
    1UNL     O2   11  -0.230  -0.019  -0.132
    1UNL    C10   12  -0.040   0.003   0.021
    1UNL     O3   13   0.020  -0.115  -0.023
    1UNL    C11   14   0.122  -0.085  -0.115
    1UNL     O4   15   0.189   0.040  -0.097
    1UNL    C12   16   0.316   0.043  -0.026
    1UNL    C13   17   0.350   0.173   0.044
    1UNL     O5   18   0.292   0.189   0.170
    1UNL    C14   19   0.327  -0.071   0.075
    1UNL     O6   20   0.225  -0.072   0.161
    1UNL    C15   21   0.331  -0.206  -0.007
    1UNL     O7   22   0.288  -0.319   0.067
    1UNL    C16   23   0.236  -0.199  -0.135
    1UNL     O8   24   0.172  -0.323  -0.143
    1UNL     H1   25  -0.175  -0.249   0.049
    1UNL     H2   26  -0.043  -0.257   0.155
    1UNL     H3   27  -0.211  -0.317   0.195
    1UNL     H4   28  -0.269  -0.006   0.371
    1UNL     H5   29  -0.262  -0.179   0.387
    1UNL     H6   30  -0.384  -0.097   0.291
    1UNL     H7   31  -0.208   0.155   0.276
    1UNL     H8   32  -0.067   0.207   0.188
    1UNL     H9   33  -0.336   0.168   0.044
    1UNL    H10   34  -0.263   0.319   0.100
    1UNL    H11   35  -0.204   0.263  -0.274
    1UNL    H12   36  -0.256   0.386  -0.161
    1UNL    H13   37  -0.356   0.248  -0.175
    1UNL    H14   38   0.025   0.273  -0.094
    1UNL    H15   39  -0.066   0.077  -0.178
    1UNL    H16   40  -0.185  -0.098  -0.173
    1UNL    H17   41   0.047   0.067   0.037
    1UNL    H18   42   0.065  -0.089  -0.213
    1UNL    H19   43   0.386   0.030  -0.115
    1UNL    H20   44   0.455   0.181   0.060
    1UNL    H21   45   0.310   0.263  -0.007
    1UNL    H22   46   0.233   0.114   0.190
    1UNL    H23   47   0.421  -0.063   0.132
    1UNL    H24   48   0.146  -0.086   0.103
    1UNL    H25   49   0.439  -0.220  -0.032
    1UNL    H26   50   0.217  -0.300   0.131
    1UNL    H27   51   0.305  -0.179  -0.230
    1UNL    H28   52   0.132  -0.349  -0.058
   0.00000   0.00000   0.00000   0.00000   0.00000   0.00000   0.00000   0.00000   0.00000
Generated with MDTraj, t= 90.0
 52
    1UNL     C1    1  -0.100  -0.239   0.173
    1UNL     C2    2  -0.159  -0.104   0.205
    1UNL     C3    3  -0.244  -0.108   0.324
    1UNL     C4    4  -0.150   0.009   0.126
    1UNL     C5    5  -0.212   0.145   0.167
    1UNL     C6    6  -0.281   0.211   0.050
    1UNL     C7    7  -0.186   0.227  -0.076
    1UNL     C8    8  -0.250   0.305  -0.189
    1UNL     O1    9  -0.068   0.299  -0.046
    1UNL     C9   10  -0.133   0.080  -0.118
    1UNL     O2   11  -0.244  -0.009  -0.142
    1UNL    C10   12  -0.063   0.012   0.005
    1UNL     O3   13   0.011  -0.105  -0.027
    1UNL    C11   14   0.128  -0.082  -0.111
    1UNL     O4   15   0.191   0.043  -0.078
    1UNL    C12   16   0.330   0.040  -0.023
    1UNL    C13   17   0.364   0.175   0.048
    1UNL     O5   18   0.331   0.178   0.186
    1UNL    C14   19   0.344  -0.083   0.076
    1UNL     O6   20   0.246  -0.081   0.175
    1UNL    C15   21   0.321  -0.219  -0.004
    1UNL     O7   22   0.276  -0.326   0.070
    1UNL    C16   23   0.231  -0.203  -0.133
    1UNL     O8   24   0.161  -0.324  -0.141
    1UNL     H1   25  -0.021  -0.237   0.096
    1UNL     H2   26  -0.052  -0.274   0.266
    1UNL     H3   27  -0.181  -0.297   0.140
    1UNL     H4   28  -0.182  -0.065   0.403
    1UNL     H5   29  -0.279  -0.205   0.352
    1UNL     H6   30  -0.321  -0.037   0.318
    1UNL     H7   31  -0.284   0.127   0.249
    1UNL     H8   32  -0.129   0.208   0.212
    1UNL     H9   33  -0.377   0.165   0.034
    1UNL    H10   34  -0.299   0.315   0.083
    1UNL    H11   35  -0.186   0.335  -0.270
    1UNL    H12   36  -0.288   0.400  -0.150
    1UNL    H13   37  -0.345   0.259  -0.226
    1UNL    H14   38  -0.002   0.286  -0.116
    1UNL    H15   39  -0.077   0.088  -0.209
    1UNL    H16   40  -0.253  -0.062  -0.061
    1UNL    H17   41   0.010   0.088   0.028
    1UNL    H18   42   0.083  -0.066  -0.211
    1UNL    H19   43   0.384   0.034  -0.122
    1UNL    H20   44   0.470   0.191   0.045
    1UNL    H21   45   0.308   0.259  -0.002
    1UNL    H22   46   0.234   0.162   0.196
    1UNL    H23   47   0.445  -0.082   0.126
    1UNL    H24   48   0.159  -0.095   0.131
    1UNL    H25   49   0.420  -0.253  -0.041
    1UNL    H26   50   0.284  -0.317   0.169
    1UNL    H27   51   0.302  -0.177  -0.226
    1UNL    H28   52   0.140  -0.360  -0.053
   0.00000   0.00000   0.00000   0.00000   0.00000   0.00000   0.00000   0.00000   0.00000
Generated with MDTraj, t= 91.0
 52
    1UNL     C1    1  -0.087  -0.232   0.170
    1UNL     C2    2  -0.158  -0.109   0.213
    1UNL     C3    3  -0.236  -0.108   0.342
    1UNL     C4    4  -0.134   0.006   0.143
    1UNL     C5    5  -0.223   0.132   0.170
    1UNL     C6    6  -0.295   0.188   0.037
    1UNL     C7    7  -0.191   0.212  -0.077
    1UNL     C8    8  -0.256   0.267  -0.208
    1UNL     O1    9  -0.085   0.301  -0.035
    1UNL     C9   10  -0.120   0.076  -0.103
    1UNL     O2   11  -0.214  -0.024  -0.152
    1UNL    C10   12  -0.041   0.025   0.023
    1UNL     O3   13   0.028  -0.089  -0.014
    1UNL    C11   14   0.137  -0.054  -0.104
    1UNL     O4   15   0.222   0.058  -0.059
    1UNL    C12   16   0.350   0.024  -0.013
    1UNL    C13   17   0.405   0.143   0.052
    1UNL     O5   18   0.312   0.202   0.146
    1UNL    C14   19   0.336  -0.093   0.079
    1UNL     O6   20   0.239  -0.061   0.175
    1UNL    C15   21   0.299  -0.229  -0.002
    1UNL     O7   22   0.225  -0.328   0.065
    1UNL    C16   23   0.214  -0.182  -0.134
    1UNL     O8   24   0.123  -0.288  -0.175
    1UNL     H1   25   0.016  -0.234   0.214
    1UNL     H2   26  -0.135  -0.312   0.231
    1UNL     H3   27  -0.090  -0.248   0.067
    1UNL     H4   28  -0.197  -0.035   0.412
    1UNL     H5   29  -0.234  -0.200   0.393
    1UNL     H6   30  -0.343  -0.078   0.333
    1UNL     H7   31  -0.292   0.125   0.261
    1UNL     H8   32  -0.145   0.209   0.194
    1UNL     H9   33  -0.371   0.119   0.004
    1UNL    H10   34  -0.344   0.279   0.072
    1UNL    H11   35  -0.179   0.302  -0.274
    1UNL    H12   36  -0.331   0.345  -0.194
    1UNL    H13   37  -0.311   0.182  -0.257
    1UNL    H14   38   0.002   0.256  -0.044
    1UNL    H15   39  -0.050   0.097  -0.184
    1UNL    H16   40  -0.157  -0.097  -0.183
    1UNL    H17   41   0.025   0.103   0.048
    1UNL    H18   42   0.093  -0.018  -0.197
    1UNL    H19   43   0.413  -0.003  -0.102
    1UNL    H20   44   0.498   0.108   0.094
    1UNL    H21   45   0.418   0.220  -0.031
    1UNL    H22   46   0.283   0.125   0.201
    1UNL    H23   47   0.434  -0.101   0.137
    1UNL    H24   48   0.155  -0.051   0.123
    1UNL    H25   49   0.388  -0.278  -0.041
    1UNL    H26   50   0.195  -0.293   0.151
    1UNL    H27   51   0.286  -0.157  -0.227
    1UNL    H28   52   0.048  -0.299  -0.112
   0.00000   0.00000   0.00000   0.00000   0.00000   0.00000   0.00000   0.00000   0.00000
Generated with MDTraj, t= 92.0
 52
    1UNL     C1    1  -0.091  -0.214   0.169
    1UNL     C2    2  -0.146  -0.089   0.214
    1UNL     C3    3  -0.253  -0.108   0.325
    1UNL     C4    4  -0.126   0.029   0.152
    1UNL     C5    5  -0.210   0.146   0.174
    1UNL     C6    6  -0.302   0.161   0.047
    1UNL     C7    7  -0.208   0.207  -0.068
    1UNL     C8    8  -0.289   0.230  -0.197
    1UNL     O1    9  -0.140   0.338  -0.031
    1UNL     C9   10  -0.099   0.099  -0.093
    1UNL     O2   11  -0.174  -0.011  -0.164
    1UNL    C10   12  -0.028   0.047   0.032
    1UNL     O3   13   0.033  -0.079  -0.010
    1UNL    C11   14   0.139  -0.065  -0.105
    1UNL     O4   15   0.226   0.050  -0.073
    1UNL    C12   16   0.357   0.012  -0.024
    1UNL    C13   17   0.409   0.132   0.049
    1UNL     O5   18   0.311   0.180   0.148
    1UNL    C14   19   0.344  -0.110   0.076
    1UNL     O6   20   0.265  -0.066   0.185
    1UNL    C15   21   0.278  -0.234   0.001
    1UNL     O7   22   0.193  -0.316   0.076
    1UNL    C16   23   0.218  -0.191  -0.135
    1UNL     O8   24   0.147  -0.303  -0.196
    1UNL     H1   25  -0.110  -0.304   0.228
    1UNL     H2   26  -0.121  -0.246   0.067
    1UNL     H3   27   0.018  -0.207   0.162
    1UNL     H4   28  -0.274  -0.030   0.395
    1UNL     H5   29  -0.236  -0.198   0.377
    1UNL     H6   30  -0.351  -0.131   0.274
    1UNL     H7   31  -0.266   0.137   0.275
    1UNL     H8   32  -0.147   0.239   0.175
    1UNL     H9   33  -0.330   0.057   0.032
    1UNL    H10   34  -0.392   0.222   0.061
    1UNL    H11   35  -0.210   0.217  -0.272
    1UNL    H12   36  -0.325   0.333  -0.201
    1UNL    H13   37  -0.376   0.164  -0.214
    1UNL    H14   38  -0.102   0.381  -0.113
    1UNL    H15   39  -0.022   0.136  -0.164
    1UNL    H16   40  -0.117  -0.091  -0.153
    1UNL    H17   41   0.055   0.101   0.065
    1UNL    H18   42   0.094  -0.038  -0.199
    1UNL    H19   43   0.428  -0.015  -0.104
    1UNL    H20   44   0.499   0.105   0.104
    1UNL    H21   45   0.428   0.211  -0.031
    1UNL    H22   46   0.267   0.107   0.192
    1UNL    H23   47   0.440  -0.151   0.127
    1UNL    H24   48   0.173  -0.064   0.149
    1UNL    H25   49   0.357  -0.306  -0.026
    1UNL    H26   50   0.208  -0.284   0.170
    1UNL    H27   51   0.316  -0.165  -0.200
    1UNL    H28   52   0.068  -0.325  -0.145
   0.00000   0.00000   0.00000   0.00000   0.00000   0.00000   0.00000   0.00000   0.00000
Generated with MDTraj, t= 93.0
 52
    1UNL     C1    1  -0.087  -0.225   0.171
    1UNL     C2    2  -0.159  -0.095   0.202
    1UNL     C3    3  -0.263  -0.106   0.314
    1UNL     C4    4  -0.131   0.019   0.139
    1UNL     C5    5  -0.193   0.149   0.181
    1UNL     C6    6  -0.283   0.179   0.064
    1UNL     C7    7  -0.213   0.214  -0.073
    1UNL     C8    8  -0.325   0.210  -0.183
    1UNL     O1    9  -0.156   0.346  -0.061
    1UNL     C9   10  -0.100   0.108  -0.104
    1UNL     O2   11  -0.156   0.006  -0.192
    1UNL    C10   12  -0.035   0.043   0.023
    1UNL     O3   13   0.030  -0.077  -0.019
    1UNL    C11   14   0.134  -0.057  -0.106
    1UNL     O4   15   0.227   0.050  -0.073
    1UNL    C12   16   0.355   0.022  -0.015
    1UNL    C13   17   0.421   0.140   0.057
    1UNL     O5   18   0.349   0.170   0.174
    1UNL    C14   19   0.335  -0.101   0.076
    1UNL     O6   20   0.244  -0.077   0.177
    1UNL    C15   21   0.302  -0.231  -0.006
    1UNL     O7   22   0.247  -0.347   0.064
    1UNL    C16   23   0.204  -0.193  -0.132
    1UNL     O8   24   0.104  -0.300  -0.139
    1UNL     H1   25  -0.140  -0.318   0.176
    1UNL     H2   26  -0.037  -0.221   0.073
    1UNL     H3   27   0.001  -0.231   0.245
    1UNL     H4   28  -0.235  -0.079   0.412
    1UNL     H5   29  -0.308  -0.206   0.310
    1UNL     H6   30  -0.346  -0.042   0.282
    1UNL     H7   31  -0.259   0.150   0.275
    1UNL     H8   32  -0.123   0.238   0.194
    1UNL     H9   33  -0.333   0.085   0.041
    1UNL    H10   34  -0.355   0.255   0.091
    1UNL    H11   35  -0.297   0.272  -0.270
    1UNL    H12   36  -0.418   0.245  -0.135
    1UNL    H13   37  -0.351   0.109  -0.215
    1UNL    H14   38  -0.156   0.404  -0.143
    1UNL    H15   39  -0.018   0.151  -0.168
    1UNL    H16   40  -0.094  -0.069  -0.195
    1UNL    H17   41   0.035   0.103   0.071
    1UNL    H18   42   0.095  -0.023  -0.200
    1UNL    H19   43   0.431  -0.006  -0.088
    1UNL    H20   44   0.524   0.118   0.088
    1UNL    H21   45   0.418   0.239  -0.001
    1UNL    H22   46   0.304   0.089   0.209
    1UNL    H23   47   0.430  -0.124   0.140
    1UNL    H24   48   0.155  -0.078   0.137
    1UNL    H25   49   0.394  -0.276  -0.050
    1UNL    H26   50   0.234  -0.303   0.151
    1UNL    H27   51   0.270  -0.198  -0.232
    1UNL    H28   52   0.085  -0.329  -0.047
   0.00000   0.00000   0.00000   0.00000   0.00000   0.00000   0.00000   0.00000   0.00000
Generated with MDTraj, t= 94.0
 52
    1UNL     C1    1  -0.101  -0.201   0.151
    1UNL     C2    2  -0.167  -0.075   0.194
    1UNL     C3    3  -0.262  -0.091   0.315
    1UNL     C4    4  -0.136   0.038   0.136
    1UNL     C5    5  -0.217   0.157   0.165
    1UNL     C6    6  -0.304   0.191   0.052
    1UNL     C7    7  -0.221   0.221  -0.077
    1UNL     C8    8  -0.323   0.227  -0.188
    1UNL     O1    9  -0.149   0.335  -0.058
    1UNL     C9   10  -0.129   0.092  -0.101
    1UNL     O2   11  -0.196  -0.029  -0.153
    1UNL    C10   12  -0.037   0.052   0.020
    1UNL     O3   13   0.035  -0.070  -0.004
    1UNL    C11   14   0.135  -0.053  -0.096
    1UNL     O4   15   0.221   0.054  -0.059
    1UNL    C12   16   0.355   0.012  -0.014
    1UNL    C13   17   0.418   0.130   0.060
    1UNL     O5   18   0.358   0.153   0.189
    1UNL    C14   19   0.356  -0.119   0.075
    1UNL     O6   20   0.256  -0.099   0.172
    1UNL    C15   21   0.326  -0.235  -0.019
    1UNL     O7   22   0.279  -0.347   0.043
    1UNL    C16   23   0.218  -0.190  -0.126
    1UNL     O8   24   0.131  -0.297  -0.138
    1UNL     H1   25  -0.159  -0.283   0.190
    1UNL     H2   26  -0.093  -0.193   0.042
    1UNL     H3   27   0.003  -0.191   0.198
    1UNL     H4   28  -0.241  -0.020   0.392
    1UNL     H5   29  -0.263  -0.195   0.357
    1UNL     H6   30  -0.363  -0.079   0.285
    1UNL     H7   31  -0.279   0.141   0.258
    1UNL     H8   32  -0.154   0.250   0.189
    1UNL     H9   33  -0.368   0.107   0.030
    1UNL    H10   34  -0.364   0.279   0.072
    1UNL    H11   35  -0.283   0.218  -0.293
    1UNL    H12   36  -0.382   0.320  -0.178
    1UNL    H13   37  -0.396   0.152  -0.169
    1UNL    H14   38  -0.092   0.350  -0.138
    1UNL    H15   39  -0.062   0.115  -0.187
    1UNL    H16   40  -0.140  -0.107  -0.131
    1UNL    H17   41   0.024   0.133   0.036
    1UNL    H18   42   0.090  -0.020  -0.189
    1UNL    H19   43   0.414   0.005  -0.104
    1UNL    H20   44   0.523   0.122   0.086
    1UNL    H21   45   0.405   0.230   0.008
    1UNL    H22   46   0.282   0.096   0.209
    1UNL    H23   47   0.452  -0.124   0.140
    1UNL    H24   48   0.169  -0.092   0.124
    1UNL    H25   49   0.405  -0.279  -0.086
    1UNL    H26   50   0.222  -0.305   0.112
    1UNL    H27   51   0.278  -0.175  -0.229
    1UNL    H28   52   0.177  -0.384  -0.131
   0.00000   0.00000   0.00000   0.00000   0.00000   0.00000   0.00000   0.00000   0.00000
Generated with MDTraj, t= 95.0
 52
    1UNL     C1    1  -0.119  -0.214   0.181
    1UNL     C2    2  -0.174  -0.081   0.203
    1UNL     C3    3  -0.261  -0.068   0.326
    1UNL     C4    4  -0.151   0.029   0.135
    1UNL     C5    5  -0.218   0.162   0.159
    1UNL     C6    6  -0.298   0.194   0.034
    1UNL     C7    7  -0.209   0.198  -0.089
    1UNL     C8    8  -0.291   0.230  -0.209
    1UNL     O1    9  -0.109   0.309  -0.063
    1UNL     C9   10  -0.140   0.063  -0.102
    1UNL     O2   11  -0.234  -0.044  -0.115
    1UNL    C10   12  -0.051   0.033   0.018
    1UNL     O3   13   0.037  -0.073   0.002
    1UNL    C11   14   0.141  -0.036  -0.094
    1UNL     O4   15   0.226   0.071  -0.051
    1UNL    C12   16   0.357   0.026  -0.009
    1UNL    C13   17   0.424   0.126   0.083
    1UNL     O5   18   0.347   0.154   0.200
    1UNL    C14   19   0.355  -0.107   0.058
    1UNL     O6   20   0.264  -0.113   0.167
    1UNL    C15   21   0.332  -0.224  -0.043
    1UNL     O7   22   0.275  -0.333   0.023
    1UNL    C16   23   0.216  -0.174  -0.141
    1UNL     O8   24   0.119  -0.267  -0.145
    1UNL     H1   25  -0.118  -0.277   0.272
    1UNL     H2   26  -0.189  -0.260   0.108
    1UNL     H3   27  -0.017  -0.216   0.140
    1UNL     H4   28  -0.206   0.006   0.384
    1UNL     H5   29  -0.276  -0.161   0.386
    1UNL     H6   30  -0.356  -0.033   0.305
    1UNL     H7   31  -0.288   0.153   0.245
    1UNL     H8   32  -0.139   0.242   0.191
    1UNL     H9   33  -0.374   0.118   0.015
    1UNL    H10   34  -0.356   0.284   0.038
    1UNL    H11   35  -0.221   0.236  -0.296
    1UNL    H12   36  -0.347   0.325  -0.200
    1UNL    H13   37  -0.367   0.156  -0.230
    1UNL    H14   38  -0.022   0.273  -0.084
    1UNL    H15   39  -0.075   0.076  -0.189
    1UNL    H16   40  -0.179  -0.125  -0.124
    1UNL    H17   41   0.003   0.119   0.028
    1UNL    H18   42   0.099   0.008  -0.184
    1UNL    H19   43   0.403   0.022  -0.109
    1UNL    H20   44   0.519   0.091   0.117
    1UNL    H21   45   0.435   0.230   0.042
    1UNL    H22   46   0.258   0.112   0.188
    1UNL    H23   47   0.456  -0.120   0.112
    1UNL    H24   48   0.183  -0.079   0.125
    1UNL    H25   49   0.417  -0.275  -0.102
    1UNL    H26   50   0.294  -0.308   0.116
    1UNL    H27   51   0.270  -0.159  -0.245
    1UNL    H28   52   0.146  -0.352  -0.107
   0.00000   0.00000   0.00000   0.00000   0.00000   0.00000   0.00000   0.00000   0.00000
Generated with MDTraj, t= 96.0
 52
    1UNL     C1    1  -0.093  -0.206   0.203
    1UNL     C2    2  -0.171  -0.081   0.219
    1UNL     C3    3  -0.263  -0.067   0.329
    1UNL     C4    4  -0.141   0.024   0.142
    1UNL     C5    5  -0.206   0.159   0.161
    1UNL     C6    6  -0.282   0.215   0.033
    1UNL     C7    7  -0.201   0.202  -0.094
    1UNL     C8    8  -0.292   0.222  -0.209
    1UNL     O1    9  -0.096   0.298  -0.088
    1UNL     C9   10  -0.137   0.059  -0.100
    1UNL     O2   11  -0.237  -0.035  -0.118
    1UNL    C10   12  -0.055   0.021   0.023
    1UNL     O3   13   0.032  -0.090   0.006
    1UNL    C11   14   0.133  -0.045  -0.089
    1UNL     O4   15   0.209   0.064  -0.044
    1UNL    C12   16   0.347   0.035  -0.007
    1UNL    C13   17   0.410   0.148   0.094
    1UNL     O5   18   0.327   0.157   0.205
    1UNL    C14   19   0.353  -0.111   0.061
    1UNL     O6   20   0.275  -0.119   0.175
    1UNL    C15   21   0.314  -0.227  -0.039
    1UNL     O7   22   0.263  -0.341   0.021
    1UNL    C16   23   0.215  -0.162  -0.145
    1UNL     O8   24   0.135  -0.256  -0.197
    1UNL     H1   25  -0.006  -0.223   0.272
    1UNL     H2   26  -0.163  -0.291   0.221
    1UNL     H3   27  -0.055  -0.234   0.110
    1UNL     H4   28  -0.241   0.031   0.372
    1UNL     H5   29  -0.248  -0.146   0.403
    1UNL     H6   30  -0.365  -0.080   0.303
    1UNL     H7   31  -0.272   0.160   0.249
    1UNL     H8   32  -0.113   0.227   0.187
    1UNL     H9   33  -0.379   0.167   0.018
    1UNL    H10   34  -0.310   0.318   0.043
    1UNL    H11   35  -0.224   0.233  -0.295
    1UNL    H12   36  -0.359   0.309  -0.200
    1UNL    H13   37  -0.358   0.135  -0.225
    1UNL    H14   38  -0.031   0.271  -0.153
    1UNL    H15   39  -0.078   0.061  -0.190
    1UNL    H16   40  -0.202  -0.126  -0.128
    1UNL    H17   41   0.011   0.098   0.047
    1UNL    H18   42   0.082  -0.011  -0.180
    1UNL    H19   43   0.400   0.042  -0.105
    1UNL    H20   44   0.506   0.121   0.129
    1UNL    H21   45   0.412   0.249   0.050
    1UNL    H22   46   0.315   0.064   0.231
    1UNL    H23   47   0.463  -0.122   0.083
    1UNL    H24   48   0.181  -0.122   0.142
    1UNL    H25   49   0.401  -0.270  -0.097
    1UNL    H26   50   0.217  -0.300   0.099
    1UNL    H27   51   0.286  -0.123  -0.233
    1UNL    H28   52   0.118  -0.335  -0.138
   0.00000   0.00000   0.00000   0.00000   0.00000   0.00000   0.00000   0.00000   0.00000
Generated with MDTraj, t= 97.0
 52
    1UNL     C1    1  -0.084  -0.202   0.195
    1UNL     C2    2  -0.148  -0.072   0.220
    1UNL     C3    3  -0.235  -0.059   0.339
    1UNL     C4    4  -0.121   0.034   0.138
    1UNL     C5    5  -0.187   0.163   0.155
    1UNL     C6    6  -0.295   0.191   0.048
    1UNL     C7    7  -0.213   0.203  -0.085
    1UNL     C8    8  -0.304   0.232  -0.204
    1UNL     O1    9  -0.107   0.296  -0.068
    1UNL     C9   10  -0.149   0.062  -0.110
    1UNL     O2   11  -0.243  -0.040  -0.112
    1UNL    C10   12  -0.045   0.029   0.004
    1UNL     O3   13   0.036  -0.090  -0.026
    1UNL    C11   14   0.144  -0.052  -0.110
    1UNL     O4   15   0.218   0.060  -0.054
    1UNL    C12   16   0.345   0.024  -0.003
    1UNL    C13   17   0.400   0.132   0.098
    1UNL     O5   18   0.327   0.146   0.210
    1UNL    C14   19   0.330  -0.108   0.082
    1UNL     O6   20   0.220  -0.095   0.164
    1UNL    C15   21   0.319  -0.229  -0.014
    1UNL     O7   22   0.241  -0.336   0.045
    1UNL    C16   23   0.239  -0.172  -0.145
    1UNL     O8   24   0.173  -0.264  -0.223
    1UNL     H1   25   0.010  -0.172   0.150
    1UNL     H2   26  -0.073  -0.259   0.290
    1UNL     H3   27  -0.139  -0.255   0.122
    1UNL     H4   28  -0.178  -0.046   0.432
    1UNL     H5   29  -0.297  -0.146   0.346
    1UNL     H6   30  -0.319   0.011   0.337
    1UNL     H7   31  -0.230   0.172   0.258
    1UNL     H8   32  -0.103   0.242   0.133
    1UNL     H9   33  -0.374   0.115   0.046
    1UNL    H10   34  -0.334   0.285   0.079
    1UNL    H11   35  -0.251   0.200  -0.294
    1UNL    H12   36  -0.320   0.340  -0.203
    1UNL    H13   37  -0.407   0.186  -0.191
    1UNL    H14   38  -0.067   0.314  -0.156
    1UNL    H15   39  -0.102   0.063  -0.206
    1UNL    H16   40  -0.205  -0.130  -0.109
    1UNL    H17   41   0.029   0.102   0.012
    1UNL    H18   42   0.097  -0.013  -0.203
    1UNL    H19   43   0.424   0.016  -0.084
    1UNL    H20   44   0.499   0.105   0.128
    1UNL    H21   45   0.398   0.228   0.046
    1UNL    H22   46   0.274   0.061   0.211
    1UNL    H23   47   0.417  -0.120   0.151
    1UNL    H24   48   0.141  -0.072   0.110
    1UNL    H25   49   0.414  -0.284  -0.038
    1UNL    H26   50   0.169  -0.297   0.098
    1UNL    H27   51   0.324  -0.126  -0.214
    1UNL    H28   52   0.092  -0.296  -0.181
   0.00000   0.00000   0.00000   0.00000   0.00000   0.00000   0.00000   0.00000   0.00000
Generated with MDTraj, t= 98.0
 52
    1UNL     C1    1  -0.109  -0.225   0.143
    1UNL     C2    2  -0.134  -0.085   0.195
    1UNL     C3    3  -0.181  -0.080   0.336
    1UNL     C4    4  -0.102   0.033   0.131
    1UNL     C5    5  -0.164   0.169   0.170
    1UNL     C6    6  -0.269   0.205   0.066
    1UNL     C7    7  -0.217   0.204  -0.086
    1UNL     C8    8  -0.337   0.225  -0.182
    1UNL     O1    9  -0.125   0.316  -0.100
    1UNL     C9   10  -0.141   0.064  -0.120
    1UNL     O2   11  -0.235  -0.036  -0.132
    1UNL    C10   12  -0.039   0.034  -0.005
    1UNL     O3   13   0.036  -0.084  -0.041
    1UNL    C11   14   0.154  -0.048  -0.114
    1UNL     O4   15   0.228   0.064  -0.042
    1UNL    C12   16   0.352   0.019   0.008
    1UNL    C13   17   0.394   0.134   0.103
    1UNL     O5   18   0.300   0.168   0.208
    1UNL    C14   19   0.337  -0.116   0.091
    1UNL     O6   20   0.229  -0.097   0.179
    1UNL    C15   21   0.302  -0.230  -0.006
    1UNL     O7   22   0.209  -0.318   0.059
    1UNL    C16   23   0.236  -0.184  -0.142
    1UNL     O8   24   0.149  -0.278  -0.188
    1UNL     H1   25  -0.074  -0.219   0.043
    1UNL     H2   26  -0.032  -0.278   0.200
    1UNL     H3   27  -0.192  -0.298   0.143
    1UNL     H4   28  -0.177   0.018   0.382
    1UNL     H5   29  -0.132  -0.150   0.396
    1UNL     H6   30  -0.284  -0.126   0.333
    1UNL     H7   31  -0.219   0.158   0.268
    1UNL     H8   32  -0.085   0.253   0.170
    1UNL     H9   33  -0.348   0.130   0.075
    1UNL    H10   34  -0.308   0.302   0.087
    1UNL    H11   35  -0.314   0.287  -0.268
    1UNL    H12   36  -0.413   0.271  -0.116
    1UNL    H13   37  -0.387   0.129  -0.210
    1UNL    H14   38  -0.047   0.297  -0.160
    1UNL    H15   39  -0.076   0.070  -0.204
    1UNL    H16   40  -0.185  -0.120  -0.125
    1UNL    H17   41   0.030   0.115  -0.007
    1UNL    H18   42   0.129  -0.014  -0.219
    1UNL    H19   43   0.429   0.010  -0.074
    1UNL    H20   44   0.489   0.113   0.148
    1UNL    H21   45   0.403   0.229   0.049
    1UNL    H22   46   0.249   0.102   0.259
    1UNL    H23   47   0.419  -0.135   0.160
    1UNL    H24   48   0.153  -0.074   0.121
    1UNL    H25   49   0.391  -0.293  -0.025
    1UNL    H26   50   0.243  -0.340   0.149
    1UNL    H27   51   0.320  -0.159  -0.220
    1UNL    H28   52   0.071  -0.277  -0.128
   0.00000   0.00000   0.00000   0.00000   0.00000   0.00000   0.00000   0.00000   0.00000
Generated with MDTraj, t= 99.0
 52
    1UNL     C1    1  -0.107  -0.213   0.114
    1UNL     C2    2  -0.117  -0.087   0.189
    1UNL     C3    3  -0.158  -0.107   0.334
    1UNL     C4    4  -0.102   0.032   0.125
    1UNL     C5    5  -0.163   0.157   0.182
    1UNL     C6    6  -0.268   0.210   0.079
    1UNL     C7    7  -0.220   0.214  -0.075
    1UNL     C8    8  -0.351   0.225  -0.159
    1UNL     O1    9  -0.139   0.327  -0.104
    1UNL     C9   10  -0.134   0.087  -0.122
    1UNL     O2   11  -0.211  -0.030  -0.155
    1UNL    C10   12  -0.030   0.047  -0.007
    1UNL     O3   13   0.046  -0.074  -0.034
    1UNL    C11   14   0.154  -0.060  -0.115
    1UNL     O4   15   0.239   0.050  -0.070
    1UNL    C12   16   0.345   0.023   0.020
    1UNL    C13   17   0.391   0.142   0.099
    1UNL     O5   18   0.288   0.189   0.189
    1UNL    C14   19   0.323  -0.109   0.107
    1UNL     O6   20   0.212  -0.098   0.190
    1UNL    C15   21   0.292  -0.233   0.008
    1UNL     O7   22   0.195  -0.329   0.061
    1UNL    C16   23   0.233  -0.193  -0.129
    1UNL     O8   24   0.161  -0.304  -0.181
    1UNL     H1   25  -0.188  -0.229   0.044
    1UNL     H2   26  -0.015  -0.230   0.065
    1UNL     H3   27  -0.101  -0.302   0.181
    1UNL     H4   28  -0.144  -0.012   0.379
    1UNL     H5   29  -0.112  -0.182   0.392
    1UNL     H6   30  -0.267  -0.135   0.334
    1UNL     H7   31  -0.213   0.149   0.285
    1UNL     H8   32  -0.079   0.232   0.191
    1UNL     H9   33  -0.355   0.146   0.077
    1UNL    H10   34  -0.300   0.310   0.100
    1UNL    H11   35  -0.334   0.159  -0.246
    1UNL    H12   36  -0.378   0.324  -0.200
    1UNL    H13   37  -0.445   0.191  -0.112
    1UNL    H14   38  -0.086   0.326  -0.189
    1UNL    H15   39  -0.084   0.122  -0.210
    1UNL    H16   40  -0.160  -0.111  -0.127
    1UNL    H17   41   0.036   0.133  -0.003
    1UNL    H18   42   0.115  -0.052  -0.223
    1UNL    H19   43   0.418  -0.010  -0.057
    1UNL    H20   44   0.479   0.110   0.157
    1UNL    H21   45   0.417   0.221   0.026
    1UNL    H22   46   0.237   0.111   0.229
    1UNL    H23   47   0.402  -0.129   0.177
    1UNL    H24   48   0.133  -0.088   0.132
    1UNL    H25   49   0.387  -0.279  -0.019
    1UNL    H26   50   0.233  -0.356   0.147
    1UNL    H27   51   0.309  -0.175  -0.216
    1UNL    H28   52   0.087  -0.328  -0.117
   0.00000   0.00000   0.00000   0.00000   0.00000   0.00000   0.00000   0.00000   0.00000
