[ moleculetype ]
; name        nrexcl
res           1

[ atoms ]
;    nr  type resnr resid  atom  cgnr     charge       mass
      1 TC4       1 res   C1        1      0.000     36.000
      2 TN4a      1 res   C2        2      0.000     36.000
      3 TN6       1 res   C3        3      0.000     36.000
      4 TN6       1 res   C4        4      0.000     36.000
      5 TN6       1 res   C5        5      0.000     36.000
      6 SC3       1 res   C6        6      0.000     54.000
      7 SC4       1 res   C7        7      0.000     54.000
      8 TC3       1 res   C8        8      0.000     36.000
      9 SC4       1 res   C9        9      0.000     54.000
     10 TC3       1 res   C10      10      0.000     36.000
     11 SC4       1 res   C11      11      0.000     54.000
     12 SC5       1 res   C12      12      0.000     54.000
     13 SC4       1 res   C13      13      0.000     54.000
     14 TC3       1 res   C14      14      0.000     36.000
     15 SN4a      1 res   C15      15      0.000     54.000
     16 SN4a      1 res   C16      16      0.000     54.000
     17 TP1       1 res   C17      17      0.000     36.000
     18 TN6       1 res   C18      18      0.000     36.000
     19 TN6       1 res   C19      19      0.000     36.000
     20 TN6       1 res   C20      20      0.000     36.000
     21 TC3       1 res   C21      21      0.000     36.000
     22 TC4       1 res   C22      22      0.000     36.000
     23 TP1       1 res   C23      23      0.000     36.000
     24 TN4a      1 res   C24      24      0.000     36.000
     25 SP2       1 res   C25      25      0.000     54.000
     26 TN6       1 res   C26      26      0.000     36.000
     27 TN6       1 res   C27      27      0.000     36.000
     28 TN6       1 res   C28      28      0.000     36.000
     29 TN6       1 res   C29      29      0.000     36.000

[ bonds ]
;  ai    aj   funct      b0(nm)        k
    1     2     1      0.32189    20000
    1    29     1      0.26649    20000
    2     3     1      0.21897    20000
    2    27     1      0.23046    20000
    3     4     1      0.22875    20000
    3    26     1      0.24107    20000
    4     5     1      0.24363    20000
    5     6     1      0.29038    20000
    5    24     1      0.22979    20000
    6     7     1      0.26041    20000
    6    22     1      0.30623    20000
    7     8     1      0.36807    20000
    7     9     1      0.25483    20000
    7    22     1      0.41068    20000
    8     9     1      0.30151    20000
    9    10     1      0.37673    20000
    9    11     1      0.26468    20000
   10    11     1      0.35497    20000
   11    12     1      0.34514    20000
   11    21     1      0.31325    20000
   12    13     1      0.28396    20000
   12    14     1      0.28191    20000
   12    15     1      0.30036    20000
   12    21     1      0.36197    20000
   13    14     1      0.29794    20000
   15    16     1      0.32116    20000
   16    17     1      0.29561    20000
   16    18     1      0.27802    20000
   16    20     1      0.28292    20000
   18    19     1      0.24728    20000
   19    20     1      0.24877    20000
   22    23     1      0.28448    20000
   24    25     1      0.25866    20000
   24    26     1      0.24710    20000
   27    28     1      0.24262    20000
   28    29     1      0.24441    20000
