[ moleculetype ]
; name        nrexcl
res           1

[ atoms ]
;    nr  type resnr resid  atom  cgnr     charge       mass
      1 SC2       1 res   C1        1      0.000     54.000
      2 SC2       1 res   C2        2      0.000     54.000
      3 SP1       1 res   C3        3      0.000     54.000
      4 TC3       1 res   C4        4      0.000     36.000
      5 SC3       1 res   C5        5      0.000     54.000
      6 SN6       1 res   C6        6      0.000     54.000
      7 SN4a      1 res   C7        7      0.000     54.000
      8 TP1       1 res   C8        8      0.000     36.000
      9 TN6       1 res   C9        9      0.000     36.000
     10 TN6       1 res   C10      10      0.000     36.000
     11 TN6       1 res   C11      11      0.000     36.000
     12 SC4       1 res   C12      12      0.000     54.000
     13 SC4       1 res   C13      13      0.000     54.000
     14 TC3       1 res   C14      14      0.000     36.000
     15 TN6       1 res   C15      15      0.000     36.000
     16 SC4       1 res   C16      16      0.000     54.000
     17 SN6       1 res   C17      17      0.000     54.000
     18 SN4a      1 res   C18      18      0.000     54.000
     19 TP1       1 res   C19      19      0.000     36.000
     20 TN6       1 res   C20      20      0.000     36.000
     21 TN6       1 res   C21      21      0.000     36.000
     22 TN6       1 res   C22      22      0.000     36.000
     23 TN4a      1 res   C23      23      0.000     36.000
     24 TC4       1 res   C24      24      0.000     36.000
     25 TN6       1 res   C25      25      0.000     36.000
     26 TN6       1 res   C26      26      0.000     36.000
     27 TN6       1 res   C27      27      0.000     36.000

[ bonds ]
;  ai    aj   funct      b0(nm)        k
    1     2     1      0.32419    20000
    2     3     1      0.26193    20000
    3     4     1      0.29963    20000
    4     5     1      0.22069    20000
    5     6     1      0.33642    20000
    5    12     1      0.30687    20000
    6     7     1      0.38789    20000
    6    12     1      0.32950    20000
    7     8     1      0.29440    20000
    7     9     1      0.29743    20000
    7    11     1      0.28520    20000
    9    10     1      0.22697    20000
   10    11     1      0.28248    20000
   12    13     1      0.41206    20000
   12    17     1      0.30998    20000
   13    14     1      0.27845    20000
   13    16     1      0.32853    20000
   13    17     1      0.38500    20000
   14    15     1      0.27139    20000
   15    16     1      0.27115    20000
   17    18     1      0.25655    20000
   18    19     1      0.28991    20000
   18    20     1      0.26134    20000
   18    22     1      0.27525    20000
   20    21     1      0.23745    20000
   21    22     1      0.21852    20000
   22    23     1      0.21742    20000
   23    24     1      0.25119    20000
   23    27     1      0.24142    20000
   24    25     1      0.28027    20000
   25    26     1      0.22137    20000
   26    27     1      0.26660    20000
