[ moleculetype ]
; name        nrexcl
res           1

[ atoms ]
;    nr  type resnr resid  atom  cgnr     charge       mass
      1 SC4       1 res   C1        1      0.000     54.000
      2 TN6a      1 res   C2        2      0.000     36.000
      3 TN4a      1 res   C3        3      0.000     36.000
      4 SC4       1 res   C4        4      0.000     54.000
      5 TC4       1 res   C5        5      0.000     36.000
      6 TC3       1 res   C6        6      0.000     36.000
      7 SC4       1 res   C7        7      0.000     54.000
      8 TC5       1 res   C8        8      0.000     36.000
      9 SP2       1 res   C9        9      0.000     54.000
     10 TC3       1 res   C10      10      0.000     36.000

[ bonds ]
;  ai    aj   funct      b0(nm)        k
    1     2     1      0.35233    20000
    1     3     1      0.27288    20000
    2     3     1      0.27006    20000
    3     4     1      0.22419    20000
    4     5     1      0.29248    20000
    4     7     1      0.35232    20000
    5     6     1      0.30389    20000
    6     7     1      0.31204    20000
    7     8     1      0.33507    20000
    7    10     1      0.35527    20000
    8     9     1      0.25946    20000
    8    10     1      0.24420    20000
