1TPCN05267
28
    1res  C1    1   -1.132   0.233   0.247
    1res  C2    2   -1.087   0.308  -0.033
    1res  C3    3   -0.901   0.154   0.114
    1res  C4    4   -0.752   0.371  -0.128
    1res  C5    5   -0.816   0.064  -0.233
    1res  C6    6   -0.793  -0.126  -0.032
    1res  C7    7   -0.538   0.118   0.141
    1res  C8    8   -0.509  -0.099  -0.165
    1res  C9    9   -0.246  -0.061  -0.134
    1res  C10   10   -0.129   0.089   0.068
    1res  C11   11    0.012  -0.129   0.070
    1res  C12   12    0.201  -0.347  -0.039
    1res  C13   13    0.340  -0.458   0.152
    1res  C14   14    0.425  -0.413  -0.188
    1res  C15   15    0.432  -0.186  -0.110
    1res  C16   16    0.686  -0.086  -0.088
    1res  C17   17    0.772   0.129   0.089
    1res  C18   18    1.071   0.231   0.136
    1res  C19   19    1.133   0.466   0.046
    1res  C20   20    1.324   0.226   0.045
    1res  C21   21    1.304   0.015   0.157
    1res  C22   22    1.071  -0.062   0.130
    1res  C23   23    0.868   0.140  -0.194
    1res  C24   24    0.728   0.058  -0.376
    1res  C25   25    0.683  -0.170  -0.341
    1res  C26   26    0.235  -0.064  -0.135
    1res  C27   27   -0.156  -0.260   0.197
    1res  C28   28   -0.476  -0.272   0.057
  10.00000  10.00000  10.00000
