1TPCN05277
35
    1res  C1    1    1.374  -0.093   0.107
    1res  C2    2    1.071  -0.046   0.123
    1res  C3    3    0.872  -0.113   0.038
    1res  C4    4    0.731   0.029  -0.074
    1res  C5    5    0.823   0.205   0.048
    1res  C6    6    0.523  -0.105   0.016
    1res  C7    7    0.308  -0.001   0.066
    1res  C8    8    0.306  -0.232   0.197
    1res  C9    9    0.224  -0.364  -0.051
    1res  C10   10    0.094  -0.105   0.013
    1res  C11   11   -0.072  -0.033  -0.074
    1res  C12   12   -0.270   0.067   0.075
    1res  C13   13   -0.365  -0.150  -0.080
    1res  C14   14   -0.494   0.053  -0.369
    1res  C15   15   -0.562   0.161  -0.114
    1res  C16   16   -0.693  -0.191  -0.179
    1res  C17   17   -0.835   0.137  -0.265
    1res  C18   18   -0.968  -0.041  -0.215
    1res  C19   19   -1.012   0.003  -0.059
    1res  C20   20   -1.108  -0.001   0.198
    1res  C21   21   -0.983  -0.259   0.197
    1res  C22   22   -0.889   0.233  -0.006
    1res  C23   23   -0.105  -0.010  -0.321
    1res  C24   24   -0.142   0.254  -0.207
    1res  C25   25    0.259   0.181   0.156
    1res  C26   26    0.153   0.401   0.048
    1res  C27   27    0.302   0.412  -0.133
    1res  C28   28    0.330   0.541   0.161
    1res  C29   29    0.141   0.484   0.334
    1res  C30   30    0.266   0.263   0.378
    1res  C31   31    0.605  -0.202  -0.164
    1res  C32   32    0.815  -0.245  -0.124
    1res  C33   33    1.023  -0.238   0.244
    1res  C34   34    1.129  -0.400   0.091
    1res  C35   35    1.278  -0.298  -0.064
  10.00000  10.00000  10.00000
