[ moleculetype ]
; name        nrexcl
res           1

[ atoms ]
;    nr  type resnr resid  atom  cgnr     charge       mass
      1 TC4       1 res   C1        1      0.000     36.000
      2 TN4a      1 res   C2        2      0.000     36.000
      3 TN6       1 res   C3        3      0.000     36.000
      4 SN4a      1 res   C4        4      0.000     54.000
      5 SN4a      1 res   C5        5      0.000     54.000
      6 SC5       1 res   C6        6      0.000     54.000
      7 TC3       1 res   C7        7      0.000     36.000
      8 SC4       1 res   C8        8      0.000     54.000
      9 SC4       1 res   C9        9      0.000     54.000
     10 TC3       1 res   C10      10      0.000     36.000
     11 SC4       1 res   C11      11      0.000     54.000
     12 SC4       1 res   C12      12      0.000     54.000
     13 TC3       1 res   C13      13      0.000     36.000
     14 TN6       1 res   C14      14      0.000     36.000
     15 SN4a      1 res   C15      15      0.000     54.000
     16 TP1       1 res   C16      16      0.000     36.000
     17 TN6       1 res   C17      17      0.000     36.000
     18 TN6       1 res   C18      18      0.000     36.000
     19 TN6       1 res   C19      19      0.000     36.000
     20 TN4a      1 res   C20      20      0.000     36.000
     21 TC4       1 res   C21      21      0.000     36.000
     22 TN6       1 res   C22      22      0.000     36.000
     23 TN6       1 res   C23      23      0.000     36.000
     24 TN6       1 res   C24      24      0.000     36.000
     25 SC4       1 res   C25      25      0.000     54.000
     26 TC3       1 res   C26      26      0.000     36.000
     27 TC3       1 res   C27      27      0.000     36.000
     28 TN3r      1 res   C28      28      0.000     36.000
     29 SN4a      1 res   C29      29      0.000     54.000
     30 TN6       1 res   C30      30      0.000     36.000
     31 TN6       1 res   C31      31      0.000     36.000
     32 TN6       1 res   C32      32      0.000     36.000
     33 TN6       1 res   C33      33      0.000     36.000
     34 TN6       1 res   C34      34      0.000     36.000
     35 TN6       1 res   C35      35      0.000     36.000
     36 TN6       1 res   C36      36      0.000     36.000
     37 TN6       1 res   C37      37      0.000     36.000

[ bonds ]
;  ai    aj   funct      b0(nm)        k
    1     2     1      0.32222    20000
    1    37     1      0.26624    20000
    2     3     1      0.21941    20000
    2    35     1      0.24141    20000
    3     4     1      0.23424    20000
    3    34     1      0.23716    20000
    4     5     1      0.32689    20000
    4    28     1      0.29032    20000
    4    33     1      0.31243    20000
    5     6     1      0.31457    20000
    6     7     1      0.29564    20000
    6     8     1      0.29840    20000
    6     9     1      0.32371    20000
    6    27     1      0.38689    20000
    7     8     1      0.28840    20000
    9    10     1      0.40195    20000
    9    11     1      0.29791    20000
    9    27     1      0.29691    20000
   10    11     1      0.31169    20000
   11    12     1      0.35389    20000
   11    26     1      0.27752    20000
   12    13     1      0.27129    20000
   12    25     1      0.32767    20000
   12    26     1      0.32208    20000
   13    14     1      0.26018    20000
   14    15     1      0.30439    20000
   14    25     1      0.24914    20000
   15    16     1      0.27981    20000
   15    17     1      0.28674    20000
   15    19     1      0.25892    20000
   17    18     1      0.24807    20000
   18    19     1      0.21537    20000
   19    20     1      0.21169    20000
   20    21     1      0.32314    20000
   20    24     1      0.25450    20000
   21    22     1      0.27744    20000
   22    23     1      0.23404    20000
   23    24     1      0.23646    20000
   28    29     1      0.32620    20000
   29    30     1      0.27696    20000
   29    32     1      0.30175    20000
   30    31     1      0.25012    20000
   31    32     1      0.22762    20000
   33    34     1      0.21777    20000
   35    36     1      0.22128    20000
   36    37     1      0.22167    20000
