[ moleculetype ]
; name        nrexcl
res           1

[ atoms ]
;    nr  type  resnr resid  atom  cgnr     charge       mass
      1 SN4a      1 res   C1        1      0.000     54.000
      2 SN6       1 res   C2        2      0.000     54.000
      3 TC4       1 res   C3        3      0.000     36.000
      4 TN4a      1 res   C4        4      0.000     36.000
      5 SN3r      1 res   C5        5      0.000     54.000
      6 TC3       1 res   C6        6      0.000     36.000
      7 SC2       1 res   C7        7      0.000     54.000
      8 N3r       1 res   C8        8      0.000     72.000
      9 TN4a      1 res   C9        9      0.000     36.000
     10 TC4       1 res   C10      10      0.000     36.000
     11 SP4       1 res   C11      11      0.000     54.000
     12 TN6       1 res   C12      12      0.000     36.000
     13 TN6       1 res   C13      13      0.000     36.000
     14 TN4a      1 res   C14      14      0.000     36.000
     15 TC4       1 res   C15      15      0.000     36.000
     16 TN6       1 res   C16      16      0.000     36.000
     17 SN6       1 res   C17      17      0.000     54.000
     18 TN4a      1 res   C18      18      0.000     36.000
     19 TC4       1 res   C19      19      0.000     36.000
     20 SP4       1 res   C20      20      0.000     54.000
     21 TN6       1 res   C21      21      0.000     36.000
     22 SN4a      1 res   C22      22      0.000     54.000
     23 C4        1 res   C23      23      0.000     72.000
     24 SC2       1 res   C24      24      0.000     54.000
     25 SP1       1 res   C25      25      0.000     54.000

[ constraints ]
;  ai    aj   funct      b0(nm)
   17    18     1      0.26392
   22    23     1      0.24146
   18    19     1      0.26055
    2    13     1      0.25545
   19    20     1      0.34168
    5     6     1      0.35024
    4    13     1      0.24064
   15    16     1      0.26358
   24    25     1      0.32276
    9    12     1      0.23336
    2     3     1      0.32424
   18    21     1      0.22642
   20    21     1      0.26614
   14    17     1      0.26091
   17    22     1      0.25821
    3     4     1      0.30212

[ bonds ]
;  ai    aj   funct      b0(nm)          k(kJ/mol/nm^2)
    4     5     1      0.24845           5339.4
   23    24     1      0.37762           5706.8
    9    10     1      0.31433           6774.1
   14    15     1      0.26409          10704.4
    6     7     1      0.30669           4815.4
    1     2     1      0.37224           6352.2
   10    11     1      0.30156           8667.7
   11    12     1      0.26784           8430.7
    7     8     1      0.34922          18340.1
   16    17     1      0.24292          14331.7
    2    14     1      0.23684           3522.5
    8     9     1      0.33556           3300.5

[ angles ]
;  ai    aj    ak  funct     th0(deg)        k(kJ/mol/rad^2)
    1     2     3     1     74.73877            78.99
    1     2    13     1    106.92311           133.06
    1     2    14     1    132.37591            39.74
    2     3     4     1     54.32474          3769.14
    2    13     4     1     70.52994          1553.07
    2    14    15     1    122.03466            45.27
    2    14    17     1    136.47888            61.13
    3     2    13     1    108.46004          1310.52
    3     2    14     1    132.28093            27.71
    3     4     5     1    115.02961           217.33
    3     4    13     1    120.47051           835.97
    4     5     6     1    115.47050            71.00
    5     4    13     1    102.64074            23.81
    5     6     7     1     65.50138           222.61
    6     7     8     1    105.69252            18.83
    7     8     9     1    126.42057            29.93
    8     9    10     1    103.99172            41.74
    8     9    12     1    108.40401           100.84
    9    10    11     1     57.84973           734.99
    9    12    11     1     72.90872           443.63
   10     9    12     1    105.55016            80.63
   10    11    12     1    101.22711            59.63
   13     2    14     1     95.61164            21.78
   14    15    16     1     62.59921           610.03
   14    17    16     1     65.80133           790.70
   14    17    18     1    148.06773           185.16
   14    17    22     1     85.46950           514.01
   15    14    17     1     99.83014           438.43
   15    16    17     1    104.88856           341.46
   16    17    18     1    106.62006           356.70
   16    17    22     1    115.11273           127.23
   17    18    19     1    150.94428           288.36
   17    18    21     1     59.58029           701.84
   17    22    23     1    141.05902           313.41
   18    17    22     1     70.32868           932.60
   18    19    20     1     61.45540          1167.34
   18    21    20     1     79.22708          1150.77
   19    18    21     1    122.84958           263.14
   19    20    21     1     88.59522           374.16
   22    23    24     1    118.22127           390.80
   23    24    25     1     89.85943           185.06

[ dihedrals ]
;  ai    aj    ak    al  funct   phi0(deg)        k(kJ/mol)   mult
    1     2     3     4     1     61.05428       12.949      1
    1     2    13     4     1    -83.18971       17.068      1
    1     2    14    15     1   -151.41012       22.438      1
    1     2    14    17     1     22.89168       30.773      1
    2     3     4     5     1    -31.43556       24.231      1
    2     3     4    13     1   -162.30687       10.759      1
    2    13     4     3     1    160.69726       10.757      1
    2    13     4     5     1     20.09399       22.649      1
    2    14    15    16     1     36.57686       18.996      1
    2    14    17    16     1    -34.09439       21.963      1
    2    14    17    18     1   -112.78057       22.251      1
    2    14    17    22     1   -158.84149       24.627      1
    3     2    13     4     1   -162.65798        9.285      1
    3     2    14    15     1    -30.15459       28.237      1
    3     2    14    17     1    144.88969       27.919      1
    3     4     5     6     1    123.16495       23.165      1
    4     3     2    13     1    165.24847        8.581      1
    4     3     2    14     1    -83.73830       20.728      1
    4     5     6     7     1     59.61900       30.762      1
    4    13     2    14     1     63.56435       18.309      1
    5     6     7     8     1    -89.10908       26.430      1
    6     5     4    13     1   -106.56274       14.187      1
    6     7     8     9     1     91.48840       15.960      1
    7     8     9    10     1     83.71519       25.006      1
    7     8     9    12     1   -160.60329       26.154      1
    8     9    10    11     1    -54.85066       27.519      1
    8     9    12    11     1     55.95016       26.667      1
    9    10    11    12     1    176.77693       24.878      1
    9    12    11    10     1   -175.72196       24.969      1
   10     9    12    11     1    175.94654       25.689      1
   11    10     9    12     1   -173.87544       27.555      1
   13     2    14    15     1     81.82439       30.388      1
   13     2    14    17     1   -102.49373       25.195      1
   14    15    16    17     1    141.10128       12.900      1
   14    17    16    15     1   -138.44654       15.630      1
   14    17    18    19     1    137.37142       20.891      1
   14    17    18    21     1     33.92380       17.795      1
   14    17    22    23     1    -91.25715       19.693      1
   15    14    17    16     1    143.11911       11.544      1
   15    14    17    18     1     60.07882       13.596      1
   15    14    17    22     1     18.97593       19.798      1
   15    16    17    18     1      5.94107       16.383      1
   15    16    17    22     1    -70.89445       12.994      1
   16    15    14    17     1   -143.40772       13.588      1
   16    17    18    19     1     69.53899       20.250      1
   16    17    18    21     1    -36.20210       14.949      1
   16    17    22    23     1   -150.58669       18.967      1
   17    18    19    20     1     69.71010       14.975      1
   17    18    21    20     1     -4.54017       14.293      1
   17    22    23    24     1   -161.96375       18.898      1
   18    17    22    23     1    112.78070       16.899      1
   18    19    20    21     1   -161.34967       10.722      1
   18    21    20    19     1    160.28663       11.417      1
   19    18    17    22     1    178.15014       17.684      1
   19    18    21    20     1   -152.35397       15.676      1
   20    19    18    21     1    155.45932       13.573      1
   21    18    17    22     1     74.17154       11.418      1
   22    23    24    25     1    175.24491       15.751      1
