[ moleculetype ]
; name        nrexcl
res           1

[ atoms ]
;    nr  type  resnr resid  atom  cgnr     charge       mass
      1 TN6a      1 res   C1        1      0.000     36.000
      2 TC5       1 res   C2        2      0.000     36.000
      3 TC5       1 res   C3        3      0.000     36.000
      4 TC5       1 res   C4        4      0.000     36.000
      5 TN2a      1 res   C5        5      0.000     36.000

[ constraints ]
;  ai    aj   funct      b0(nm)
    1     2     1      0.27267
    2     3     1      0.29232
    1     5     1      0.16805
    4     5     1      0.17186
    1     4     1      0.22348
    3     4     1      0.30650

[ bonds ]
;  ai    aj   funct      b0(nm)          k(kJ/mol/nm^2)

[ angles ]
;  ai    aj    ak  funct     th0(deg)        k(kJ/mol/rad^2)
    1     2     3     1     78.72946         12040.49
    1     4     3     1     83.62037          3508.75
    1     4     5     1     48.15685          8476.94
    1     5     4     1     82.21119          4630.45
    2     1     4     1    111.12991          2276.17
    2     1     5     1    160.05827          1669.22
    2     3     4     1     86.41140          9225.09
    3     4     5     1    131.49120          2342.97
    4     1     5     1     49.63197          5699.23

[ dihedrals ]
;  ai    aj    ak    al  funct   phi0(deg)        k(kJ/mol)   mult
    1     2     3     4     1    179.05831        4.027      1
    1     4     3     2     1   -179.98111        4.788      1
    1     5     4     3     1    179.96899       13.677      1
    2     1     4     3     1    179.05515        5.561      1
    2     1     4     5     1      0.02600       10.816      1
    2     1     5     4     1   -178.02762       24.243      1
    2     3     4     5     1    179.88124       10.803      1
    3     2     1     4     1   -179.97139        6.289      1
    3     2     1     5     1    179.14848       21.079      1
    3     4     1     5     1     -0.00082       10.786      1
