1TPCN02868
22
    1res  C1    1    1.175  -0.038   0.080
    1res  C2    2    0.907  -0.243  -0.031
    1res  C3    3    0.771  -0.018  -0.087
    1res  C4    4    0.597  -0.084   0.139
    1res  C5    5    0.476   0.089  -0.072
    1res  C6    6    0.247   0.055   0.088
    1res  C7    7    0.180   0.279   0.182
    1res  C8    8    0.050   0.119   0.008
    1res  C9    9   -0.183   0.277   0.182
    1res  C10   10   -0.296   0.061   0.165
    1res  C11   11   -0.492  -0.016   0.134
    1res  C12   12   -0.503  -0.161  -0.155
    1res  C13   13   -0.679   0.012  -0.146
    1res  C14   14   -0.881  -0.182  -0.122
    1res  C15   15   -1.146  -0.348  -0.066
    1res  C16   16   -1.072  -0.069   0.065
    1res  C17   17   -1.076   0.077  -0.123
    1res  C18   18   -0.918   0.041  -0.305
    1res  C19   19   -0.658   0.223  -0.086
    1res  C20   20   -0.614   0.175   0.171
    1res  C21   21   -0.145  -0.075   0.020
    1res  C22   22    0.263  -0.166  -0.033
  10.00000  10.00000  10.00000
