[ moleculetype ]
; name        nrexcl
res           1

[ atoms ]
;    nr  type resnr resid  atom  cgnr     charge       mass
      1 TC5       1 res   C1        1      0.000     36.000
      2 TP1d      1 res   C2        2      0.000     36.000
      3 SN4a      1 res   C3        3      0.000     54.000
      4 C4        1 res   C4        4      0.000     72.000
      5 TC3       1 res   C5        5      0.000     36.000
      6 TN6       1 res   C6        6      0.000     36.000
      7 P4        1 res   C7        7      0.000     72.000
      8 TC5       1 res   C8        8      0.000     36.000
      9 TN4a      1 res   C9        9      0.000     36.000
     10 TN6a      1 res   C10      10      0.000     36.000
     11 SC4       1 res   C11      11      0.000     54.000

[ bonds ]
;  ai    aj   funct      b0(nm)        k
    1     2     1      0.27909    20000
    1     3     1      0.28264    20000
    3     4     1      0.30261    20000
    4     5     1      0.30706    20000
    4    11     1      0.40067    20000
    5     6     1      0.24519    20000
    5     8     1      0.25485    20000
    6     7     1      0.28555    20000
    7     8     1      0.26212    20000
    8     9     1      0.21856    20000
    9    10     1      0.27168    20000
    9    11     1      0.30444    20000
   10    11     1      0.25544    20000
