1TPCN00841
11
    1res  C1    1    0.420  -0.362  -0.206
    1res  C2    2    0.485  -0.206   0.016
    1res  C3    3    0.200  -0.207  -0.120
    1res  C4    4   -0.002   0.010  -0.180
    1res  C5    5   -0.223   0.212  -0.111
    1res  C6    6   -0.443   0.267  -0.017
    1res  C7    7   -0.424   0.040   0.155
    1res  C8    8   -0.217  -0.015   0.004
    1res  C9    9   -0.128   0.028   0.199
    1res  C10   10    0.042   0.226   0.272
    1res  C11   11    0.176   0.030   0.179
  10.00000  10.00000  10.00000
