1TPCN04604
24
    1res  C1    1   -0.987   0.089  -0.220
    1res  C2    2   -0.951  -0.078   0.023
    1res  C3    3   -0.736   0.032  -0.109
    1res  C4    4   -0.732  -0.327  -0.036
    1res  C5    5   -0.617  -0.001   0.188
    1res  C6    6   -0.517   0.062  -0.025
    1res  C7    7   -0.514   0.301   0.027
    1res  C8    8   -0.365   0.029  -0.221
    1res  C9    9   -0.317  -0.037   0.032
    1res  C10   10   -0.208   0.200   0.138
    1res  C11   11   -0.037  -0.009  -0.113
    1res  C12   12    0.172   0.208   0.117
    1res  C13   13    0.023   0.112   0.343
    1res  C14   14    0.039  -0.148   0.093
    1res  C15   15    0.358  -0.023   0.124
    1res  C16   16    0.489  -0.173  -0.053
    1res  C17   17    0.688  -0.097   0.001
    1res  C18   18    0.942  -0.028  -0.068
    1res  C19   19    1.060   0.204   0.043
    1res  C20   20    1.100   0.077  -0.262
    1res  C21   21    1.099  -0.165  -0.296
    1res  C22   22    0.962  -0.269  -0.123
    1res  C23   23    0.710  -0.139   0.213
    1res  C24   24    0.490  -0.072   0.290
  10.00000  10.00000  10.00000
