1TPCN00432
11
    1res  C1    1    0.247   0.365   0.047
    1res  C2    2   -0.027   0.128   0.029
    1res  C3    3   -0.141  -0.050  -0.111
    1res  C4    4    0.137  -0.168  -0.182
    1res  C5    5    0.264  -0.065  -0.107
    1res  C6    6    0.465  -0.129  -0.242
    1res  C7    7    0.465   0.051  -0.012
    1res  C8    8    0.066  -0.059   0.154
    1res  C9    9   -0.095  -0.224   0.101
    1res  C10   10   -0.328  -0.181   0.083
    1res  C11   11   -0.492   0.041   0.012
  10.00000  10.00000  10.00000
