1TPCN04807
19
    1res  C1    1    0.135  -0.488  -0.114
    1res  C2    2    0.266  -0.253  -0.227
    1res  C3    3    0.128  -0.222   0.037
    1res  C4    4    0.384  -0.065  -0.008
    1res  C5    5    0.580   0.180   0.058
    1res  C6    6    0.739   0.451   0.001
    1res  C7    7    0.846   0.198   0.119
    1res  C8    8    0.852   0.033  -0.049
    1res  C9    9    0.656  -0.071  -0.052
    1res  C10   10    0.097   0.102  -0.171
    1res  C11   11    0.011   0.080   0.084
    1res  C12   12   -0.217  -0.165  -0.131
    1res  C13   13   -0.258   0.139  -0.063
    1res  C14   14   -0.509   0.082  -0.112
    1res  C15   15   -0.564  -0.155   0.084
    1res  C16   16   -0.740  -0.017   0.256
    1res  C17   17   -0.762   0.134   0.026
    1res  C18   18   -0.714   0.284   0.286
    1res  C19   19   -0.321   0.172   0.195
  10.00000  10.00000  10.00000
