1TPCN05156
18
    1res  C1    1    0.106  -0.273   0.286
    1res  C2    2    0.271  -0.375   0.071
    1res  C3    3    0.258  -0.278  -0.105
    1res  C4    4    0.264  -0.011  -0.028
    1res  C5    5    0.453   0.248  -0.028
    1res  C6    6    0.582   0.463  -0.212
    1res  C7    7    0.764   0.272  -0.027
    1res  C8    8    0.695   0.038  -0.006
    1res  C9    9    0.491   0.082   0.156
    1res  C10   10    0.136  -0.103  -0.290
    1res  C11   11   -0.089  -0.220  -0.208
    1res  C12   12   -0.219  -0.275   0.030
    1res  C13   13   -0.264  -0.027  -0.257
    1res  C14   14   -0.432   0.084  -0.064
    1res  C15   15   -0.640  -0.029   0.062
    1res  C16   16   -0.594   0.146   0.292
    1res  C17   17   -0.417   0.291   0.183
    1res  C18   18   -0.133   0.149   0.017
  10.00000  10.00000  10.00000
