1TPCN06357
16
    1res  C1    1   -0.556  -0.185  -0.270
    1res  C2    2   -0.221  -0.212  -0.162
    1res  C3    3   -0.181  -0.202   0.095
    1res  C4    4   -0.074   0.161   0.048
    1res  C5    5   -0.083   0.412   0.057
    1res  C6    6   -0.071   0.660  -0.039
    1res  C7    7    0.160   0.585  -0.087
    1res  C8    8    0.202   0.462   0.146
    1res  C9    9    0.038  -0.076   0.160
    1res  C10   10    0.231  -0.138   0.071
    1res  C11   11    0.318   0.066  -0.173
    1res  C12   12    0.539   0.050  -0.004
    1res  C13   13    0.734  -0.215   0.065
    1res  C14   14   -0.371   0.077  -0.140
    1res  C15   15   -0.525  -0.073   0.148
    1res  C16   16   -0.573  -0.460   0.190
  10.00000  10.00000  10.00000
