1TPCN00099
16
    1res  C1    1    0.311   0.006   0.259
    1res  C2    2    0.336  -0.051  -0.010
    1res  C3    3    0.521   0.155  -0.053
    1res  C4    4    0.845   0.054  -0.032
    1res  C5    5    0.850  -0.097  -0.302
    1res  C6    6    0.158   0.121  -0.152
    1res  C7    7   -0.053   0.260  -0.081
    1res  C8    8   -0.332   0.211  -0.044
    1res  C9    9   -0.561   0.346   0.095
    1res  C10   10   -0.129   0.011  -0.031
    1res  C11   11   -0.202  -0.283  -0.032
    1res  C12   12   -0.335  -0.549  -0.147
    1res  C13   13   -0.302  -0.463   0.149
    1res  C14   14   -0.464  -0.286   0.183
    1res  C15   15   -0.301  -0.106   0.153
    1res  C16   16    0.016  -0.023  -0.201
  10.00000  10.00000  10.00000
