[ moleculetype ]
; name        nrexcl
res           1

[ atoms ]
;    nr  type  resnr resid  atom  cgnr     charge       mass
      1 SX2       1 res   C1        1      0.000     54.000
      2 SX2       1 res   C2        2      0.000     54.000
      3 TX2       1 res   C3        3      0.000     36.000
      4 TX2       1 res   C4        4      0.000     36.000

[ constraints ]
;  ai    aj   funct      b0(nm)
    1     2     1      0.30932
    2     3     1      0.30311
    1     4     1      0.30283
    3     4     1      0.23554

[ bonds ]
;  ai    aj   funct      b0(nm)          k(kJ/mol/nm^2)

[ angles ]
;  ai    aj    ak  funct     th0(deg)        k(kJ/mol/rad^2)
    1     2     3     1     82.92445          4157.85
    1     4     3     1     96.95556          2926.25
    2     1     4     1     83.03130          4253.98
    2     3     4     1     96.96597          2680.11

[ dihedrals ]
;  ai    aj    ak    al  funct   phi0(deg)        k(kJ/mol)   mult
    1     2     3     4     1   -179.96399        6.273      1
    1     4     3     2     1    179.96973        6.280      1
    2     1     4     3     1   -179.96920        6.279      1
    3     2     1     4     1    179.98052        4.749      1
