[ moleculetype ]
; name        nrexcl
res           1

[ atoms ]
;    nr  type  resnr resid  atom  cgnr     charge       mass
      1 SX2       1 res   C1        1      0.000     54.000
      2 SX2       1 res   C2        2      0.000     54.000
      3 TX2       1 res   C3        3      0.000     36.000
      4 TX2       1 res   C4        4      0.000     36.000

[ constraints ]
;  ai    aj   funct      b0(nm)
    1     2     1      0.30987
    2     3     1      0.30238
    1     4     1      0.30254

[ bonds ]
;  ai    aj   funct      b0(nm)          k(kJ/mol/nm^2)
    3     4     1      0.23652          18300.8

[ angles ]
;  ai    aj    ak  funct     th0(deg)        k(kJ/mol/rad^2)
    1     2     3     1     82.98456          2261.32
    1     4     3     1     96.84028          2580.93
    2     1     4     1     82.99802          2226.18
    2     3     4     1     96.93358          2450.28

[ dihedrals ]
;  ai    aj    ak    al  funct   phi0(deg)        k(kJ/mol)   mult
    1     2     3     4     1   -179.99526        7.812      1
    1     4     3     2     1   -179.99554        7.839      1
    2     1     4     3     1   -179.99241        7.812      1
    3     2     1     4     1    179.06823        7.038      1
