1TPCN04089
12
    1res  C1    1    0.387  -0.083   0.009
    1res  C2    2    0.542   0.076   0.172
    1res  C3    3    0.789   0.032   0.007
    1res  C4    4    0.203  -0.054  -0.193
    1res  C5    5    0.053   0.094  -0.037
    1res  C6    6   -0.200   0.027   0.036
    1res  C7    7   -0.341   0.108  -0.201
    1res  C8    8   -0.404  -0.100  -0.024
    1res  C9    9   -0.671   0.115  -0.065
    1res  C10   10   -0.723  -0.027   0.114
    1res  C11   11   -0.501  -0.113   0.218
    1res  C12   12   -0.069  -0.181   0.089
  10.00000  10.00000  10.00000
