1TPCN04106
12
    1res  C1    1   -0.378   0.215   0.216
    1res  C2    2   -0.274   0.245  -0.093
    1res  C3    3   -0.184  -0.031  -0.091
    1res  C4    4   -0.117  -0.120   0.130
    1res  C5    5    0.040  -0.248  -0.077
    1res  C6    6    0.212   0.057  -0.010
    1res  C7    7    0.382  -0.243   0.015
    1res  C8    8    0.546  -0.077   0.149
    1res  C9    9    0.744   0.106   0.130
    1res  C10   10    0.052  -0.020  -0.250
    1res  C11   11   -0.407   0.014  -0.208
    1res  C12   12   -0.625  -0.026   0.026
  10.00000  10.00000  10.00000
