Generated with MDTraj, t= 0.0
 51
    1UNL     C1    1  -0.431   0.053  -0.120
    1UNL     C2    2  -0.371   0.052   0.020
    1UNL     O1    3  -0.390   0.178   0.084
    1UNL     C3    4  -0.222   0.004   0.019
    1UNL     C4    5  -0.209  -0.141   0.070
    1UNL     N1    6  -0.064  -0.195   0.067
    1UNL     C5    7  -0.055  -0.314   0.160
    1UNL     C6    8  -0.026  -0.237  -0.076
    1UNL     C7    9   0.051  -0.122  -0.138
    1UNL     C8   10   0.106  -0.033  -0.022
    1UNL     C9   11   0.073   0.114  -0.048
    1UNL    C10   12  -0.039   0.177  -0.003
    1UNL    C11   13  -0.065   0.316  -0.036
    1UNL     O2   14   0.021   0.385  -0.089
    1UNL     O3   15  -0.188   0.366  -0.006
    1UNL    C12   16  -0.125   0.101   0.095
    1UNL    C13   17  -0.029   0.024   0.190
    1UNL    C14   18   0.040  -0.088   0.109
    1UNL     N2   19   0.188   0.174  -0.097
    1UNL    C15   20   0.300   0.090  -0.076
    1UNL    C16   21   0.436   0.119  -0.095
    1UNL     O4   22   0.478   0.241  -0.145
    1UNL    C17   23   0.528   0.020  -0.059
    1UNL    C18   24   0.486  -0.102  -0.009
    1UNL    C19   25   0.351  -0.129   0.009
    1UNL    C20   26   0.259  -0.032  -0.024
    1UNL     H1   27  -0.378   0.124  -0.183
    1UNL     H2   28  -0.424  -0.045  -0.167
    1UNL     H3   29  -0.535   0.083  -0.118
    1UNL     H4   30  -0.429  -0.018   0.083
    1UNL     H5   31  -0.329   0.245   0.045
    1UNL     H6   32  -0.189   0.005  -0.086
    1UNL     H7   33  -0.273  -0.208   0.012
    1UNL     H8   34  -0.245  -0.147   0.172
    1UNL     H9   35  -0.126  -0.390   0.130
    1UNL    H10   36   0.045  -0.356   0.157
    1UNL    H11   37  -0.077  -0.284   0.262
    1UNL    H12   38   0.036  -0.327  -0.070
    1UNL    H13   39  -0.115  -0.263  -0.133
    1UNL    H14   40   0.134  -0.157  -0.201
    1UNL    H15   41  -0.013  -0.061  -0.203
    1UNL    H16   42  -0.187   0.460  -0.034
    1UNL    H17   43  -0.183   0.172   0.155
    1UNL    H18   44  -0.083  -0.019   0.275
    1UNL    H19   45   0.046   0.092   0.231
    1UNL    H20   46   0.117  -0.136   0.170
    1UNL    H21   47   0.194   0.276  -0.099
    1UNL    H22   48   0.399   0.296  -0.166
    1UNL    H23   49   0.632   0.041  -0.073
    1UNL    H24   50   0.559  -0.177   0.017
    1UNL    H25   51   0.318  -0.225   0.047
   0.00000   0.00000   0.00000   0.00000   0.00000   0.00000   0.00000   0.00000   0.00000
Generated with MDTraj, t= 1.0
 51
    1UNL     C1    1  -0.447   0.017  -0.097
    1UNL     C2    2  -0.377   0.044   0.037
    1UNL     O1    3  -0.399   0.176   0.075
    1UNL     C3    4  -0.228  -0.004   0.025
    1UNL     C4    5  -0.218  -0.151   0.082
    1UNL     N1    6  -0.070  -0.192   0.071
    1UNL     C5    7  -0.033  -0.314   0.141
    1UNL     C6    8  -0.047  -0.220  -0.081
    1UNL     C7    9   0.051  -0.125  -0.145
    1UNL     C8   10   0.105  -0.033  -0.031
    1UNL     C9   11   0.081   0.120  -0.055
    1UNL    C10   12  -0.038   0.183  -0.023
    1UNL    C11   13  -0.064   0.323  -0.040
    1UNL     O2   14   0.020   0.396  -0.086
    1UNL     O3   15  -0.185   0.373  -0.003
    1UNL    C12   16  -0.126   0.109   0.087
    1UNL    C13   17  -0.024   0.047   0.174
    1UNL    C14   18   0.030  -0.078   0.105
    1UNL     N2   19   0.193   0.178  -0.094
    1UNL    C15   20   0.308   0.089  -0.078
    1UNL    C16   21   0.445   0.111  -0.086
    1UNL     O4   22   0.495   0.237  -0.128
    1UNL    C17   23   0.536   0.012  -0.049
    1UNL    C18   24   0.485  -0.110  -0.009
    1UNL    C19   25   0.349  -0.132   0.008
    1UNL    C20   26   0.259  -0.031  -0.022
    1UNL     H1   27  -0.413   0.082  -0.176
    1UNL     H2   28  -0.429  -0.080  -0.154
    1UNL     H3   29  -0.552   0.024  -0.090
    1UNL     H4   30  -0.434  -0.016   0.114
    1UNL     H5   31  -0.331   0.233   0.033
    1UNL     H6   32  -0.199  -0.006  -0.080
    1UNL     H7   33  -0.285  -0.209   0.019
    1UNL     H8   34  -0.248  -0.165   0.186
    1UNL     H9   35  -0.125  -0.374   0.140
    1UNL    H10   36   0.061  -0.357   0.102
    1UNL    H11   37  -0.006  -0.283   0.239
    1UNL    H12   38  -0.009  -0.323  -0.091
    1UNL    H13   39  -0.141  -0.222  -0.123
    1UNL    H14   40   0.133  -0.165  -0.199
    1UNL    H15   41  -0.001  -0.065  -0.219
    1UNL    H16   42  -0.191   0.463  -0.021
    1UNL    H17   43  -0.169   0.185   0.153
    1UNL    H18   44  -0.075   0.016   0.265
    1UNL    H19   45   0.059   0.117   0.196
    1UNL    H20   46   0.115  -0.118   0.160
    1UNL    H21   47   0.205   0.273  -0.114
    1UNL    H22   48   0.419   0.291  -0.128
    1UNL    H23   49   0.642   0.023  -0.059
    1UNL    H24   50   0.556  -0.191  -0.003
    1UNL    H25   51   0.314  -0.234   0.010
   0.00000   0.00000   0.00000   0.00000   0.00000   0.00000   0.00000   0.00000   0.00000
Generated with MDTraj, t= 2.0
 51
    1UNL     C1    1  -0.451   0.003  -0.068
    1UNL     C2    2  -0.375   0.059   0.052
    1UNL     O1    3  -0.381   0.199   0.062
    1UNL     C3    4  -0.230   0.014   0.033
    1UNL     C4    5  -0.218  -0.142   0.039
    1UNL     N1    6  -0.072  -0.196   0.056
    1UNL     C5    7  -0.063  -0.319   0.147
    1UNL     C6    8  -0.022  -0.238  -0.081
    1UNL     C7    9   0.045  -0.118  -0.139
    1UNL     C8   10   0.107  -0.034  -0.025
    1UNL     C9   11   0.078   0.114  -0.039
    1UNL    C10   12  -0.034   0.188   0.003
    1UNL    C11   13  -0.060   0.320  -0.046
    1UNL     O2   14   0.023   0.384  -0.107
    1UNL     O3   15  -0.186   0.370  -0.028
    1UNL    C12   16  -0.119   0.103   0.103
    1UNL    C13   17  -0.021   0.020   0.194
    1UNL    C14   18   0.040  -0.091   0.105
    1UNL     N2   19   0.190   0.175  -0.089
    1UNL    C15   20   0.304   0.091  -0.076
    1UNL    C16   21   0.447   0.128  -0.081
    1UNL     O4   22   0.483   0.251  -0.118
    1UNL    C17   23   0.529   0.020  -0.052
    1UNL    C18   24   0.485  -0.109  -0.008
    1UNL    C19   25   0.350  -0.133  -0.008
    1UNL    C20   26   0.256  -0.036  -0.040
    1UNL     H1   27  -0.414   0.019  -0.169
    1UNL     H2   28  -0.465  -0.110  -0.086
    1UNL     H3   29  -0.550   0.032  -0.054
    1UNL     H4   30  -0.424   0.022   0.148
    1UNL     H5   31  -0.307   0.242   0.019
    1UNL     H6   32  -0.211   0.035  -0.073
    1UNL     H7   33  -0.250  -0.204  -0.043
    1UNL     H8   34  -0.287  -0.161   0.121
    1UNL     H9   35  -0.103  -0.399   0.084
    1UNL    H10   36   0.046  -0.318   0.166
    1UNL    H11   37  -0.113  -0.314   0.240
    1UNL    H12   38   0.039  -0.329  -0.063
    1UNL    H13   39  -0.101  -0.266  -0.137
    1UNL    H14   40   0.114  -0.138  -0.213
    1UNL    H15   41  -0.025  -0.052  -0.194
    1UNL    H16   42  -0.191   0.451  -0.073
    1UNL    H17   43  -0.169   0.165   0.178
    1UNL    H18   44  -0.062  -0.013   0.287
    1UNL    H19   45   0.064   0.086   0.219
    1UNL    H20   46   0.116  -0.148   0.158
    1UNL    H21   47   0.193   0.271  -0.125
    1UNL    H22   48   0.414   0.314  -0.119
    1UNL    H23   49   0.637   0.046  -0.060
    1UNL    H24   50   0.560  -0.186   0.008
    1UNL    H25   51   0.323  -0.238   0.011
   0.00000   0.00000   0.00000   0.00000   0.00000   0.00000   0.00000   0.00000   0.00000
Generated with MDTraj, t= 3.0
 51
    1UNL     C1    1  -0.497   0.011  -0.039
    1UNL     C2    2  -0.388   0.051   0.061
    1UNL     O1    3  -0.392   0.194   0.079
    1UNL     C3    4  -0.242   0.011   0.012
    1UNL     C4    5  -0.218  -0.142   0.024
    1UNL     N1    6  -0.071  -0.186   0.046
    1UNL     C5    7  -0.065  -0.311   0.155
    1UNL     C6    8  -0.019  -0.234  -0.088
    1UNL     C7    9   0.072  -0.124  -0.139
    1UNL     C8   10   0.116  -0.033  -0.021
    1UNL     C9   11   0.080   0.114  -0.061
    1UNL    C10   12  -0.039   0.172  -0.025
    1UNL    C11   13  -0.057   0.316  -0.055
    1UNL     O2   14   0.033   0.389  -0.097
    1UNL     O3   15  -0.179   0.361  -0.021
    1UNL    C12   16  -0.130   0.102   0.082
    1UNL    C13   17  -0.035   0.024   0.186
    1UNL    C14   18   0.037  -0.086   0.105
    1UNL     N2   19   0.202   0.179  -0.085
    1UNL    C15   20   0.312   0.091  -0.054
    1UNL    C16   21   0.445   0.121  -0.088
    1UNL     O4   22   0.485   0.246  -0.125
    1UNL    C17   23   0.531   0.021  -0.061
    1UNL    C18   24   0.498  -0.104  -0.018
    1UNL    C19   25   0.363  -0.136   0.008
    1UNL    C20   26   0.268  -0.033  -0.012
    1UNL     H1   27  -0.484   0.061  -0.133
    1UNL     H2   28  -0.485  -0.098  -0.072
    1UNL     H3   29  -0.590   0.019   0.010
    1UNL     H4   30  -0.408   0.009   0.166
    1UNL     H5   31  -0.317   0.242   0.027
    1UNL     H6   32  -0.227   0.038  -0.093
    1UNL     H7   33  -0.253  -0.183  -0.069
    1UNL     H8   34  -0.287  -0.189   0.093
    1UNL     H9   35  -0.152  -0.372   0.128
    1UNL    H10   36   0.038  -0.350   0.160
    1UNL    H11   37  -0.080  -0.270   0.251
    1UNL    H12   38   0.032  -0.329  -0.067
    1UNL    H13   39  -0.098  -0.253  -0.153
    1UNL    H14   40   0.157  -0.165  -0.182
    1UNL    H15   41   0.036  -0.054  -0.215
    1UNL    H16   42  -0.180   0.461  -0.033
    1UNL    H17   43  -0.180   0.185   0.133
    1UNL    H18   44  -0.084  -0.017   0.272
    1UNL    H19   45   0.037   0.098   0.224
    1UNL    H20   46   0.111  -0.138   0.165
    1UNL    H21   47   0.209   0.285  -0.090
    1UNL    H22   48   0.415   0.325  -0.114
    1UNL    H23   49   0.631   0.047  -0.068
    1UNL    H24   50   0.572  -0.171   0.016
    1UNL    H25   51   0.324  -0.227   0.044
   0.00000   0.00000   0.00000   0.00000   0.00000   0.00000   0.00000   0.00000   0.00000
Generated with MDTraj, t= 4.0
 51
    1UNL     C1    1  -0.486   0.005  -0.025
    1UNL     C2    2  -0.376   0.049   0.070
    1UNL     O1    3  -0.399   0.190   0.068
    1UNL     C3    4  -0.227   0.015   0.025
    1UNL     C4    5  -0.209  -0.139   0.037
    1UNL     N1    6  -0.063  -0.189   0.046
    1UNL     C5    7  -0.072  -0.331   0.124
    1UNL     C6    8  -0.024  -0.225  -0.098
    1UNL     C7    9   0.061  -0.107  -0.156
    1UNL     C8   10   0.114  -0.033  -0.029
    1UNL     C9   11   0.080   0.116  -0.048
    1UNL    C10   12  -0.034   0.173  -0.013
    1UNL    C11   13  -0.059   0.319  -0.056
    1UNL     O2   14   0.027   0.399  -0.098
    1UNL     O3   15  -0.186   0.358  -0.033
    1UNL    C12   16  -0.121   0.105   0.098
    1UNL    C13   17  -0.024   0.022   0.182
    1UNL    C14   18   0.042  -0.089   0.104
    1UNL     N2   19   0.194   0.175  -0.105
    1UNL    C15   20   0.305   0.098  -0.077
    1UNL    C16   21   0.446   0.115  -0.088
    1UNL     O4   22   0.494   0.230  -0.137
    1UNL    C17   23   0.534   0.017  -0.035
    1UNL    C18   24   0.484  -0.098   0.017
    1UNL    C19   25   0.351  -0.126   0.028
    1UNL    C20   26   0.265  -0.029  -0.019
    1UNL     H1   27  -0.460   0.043  -0.123
    1UNL     H2   28  -0.494  -0.107  -0.025
    1UNL     H3   29  -0.576   0.035   0.025
    1UNL     H4   30  -0.392   0.015   0.175
    1UNL     H5   31  -0.333   0.239   0.017
    1UNL     H6   32  -0.224   0.046  -0.081
    1UNL     H7   33  -0.268  -0.169  -0.048
    1UNL     H8   34  -0.258  -0.186   0.122
    1UNL     H9   35  -0.166  -0.373   0.091
    1UNL    H10   36   0.024  -0.379   0.103
    1UNL    H11   37  -0.073  -0.302   0.227
    1UNL    H12   38   0.031  -0.316  -0.095
    1UNL    H13   39  -0.116  -0.233  -0.155
    1UNL    H14   40   0.151  -0.128  -0.208
    1UNL    H15   41   0.004  -0.041  -0.216
    1UNL    H16   42  -0.183   0.461  -0.051
    1UNL    H17   43  -0.187   0.173   0.153
    1UNL    H18   44  -0.080  -0.019   0.263
    1UNL    H19   45   0.052   0.090   0.224
    1UNL    H20   46   0.107  -0.143   0.173
    1UNL    H21   47   0.209   0.280  -0.109
    1UNL    H22   48   0.402   0.275  -0.166
    1UNL    H23   49   0.642   0.046  -0.023
    1UNL    H24   50   0.551  -0.176   0.055
    1UNL    H25   51   0.317  -0.210   0.091
   0.00000   0.00000   0.00000   0.00000   0.00000   0.00000   0.00000   0.00000   0.00000
Generated with MDTraj, t= 5.0
 51
    1UNL     C1    1  -0.491  -0.004  -0.024
    1UNL     C2    2  -0.380   0.055   0.068
    1UNL     O1    3  -0.394   0.199   0.059
    1UNL     C3    4  -0.234   0.014   0.035
    1UNL     C4    5  -0.209  -0.148   0.050
    1UNL     N1    6  -0.063  -0.194   0.045
    1UNL     C5    7  -0.059  -0.329   0.118
    1UNL     C6    8  -0.033  -0.223  -0.102
    1UNL     C7    9   0.055  -0.107  -0.154
    1UNL     C8   10   0.109  -0.034  -0.029
    1UNL     C9   11   0.082   0.115  -0.050
    1UNL    C10   12  -0.030   0.180  -0.011
    1UNL    C11   13  -0.054   0.324  -0.046
    1UNL     O2   14   0.039   0.379  -0.106
    1UNL     O3   15  -0.179   0.367  -0.027
    1UNL    C12   16  -0.118   0.107   0.091
    1UNL    C13   17  -0.019   0.020   0.178
    1UNL    C14   18   0.045  -0.096   0.097
    1UNL     N2   19   0.199   0.175  -0.099
    1UNL    C15   20   0.306   0.087  -0.074
    1UNL    C16   21   0.443   0.120  -0.082
    1UNL     O4   22   0.484   0.237  -0.143
    1UNL    C17   23   0.526   0.032  -0.020
    1UNL    C18   24   0.476  -0.088   0.028
    1UNL    C19   25   0.343  -0.128   0.021
    1UNL    C20   26   0.263  -0.036  -0.030
    1UNL     H1   27  -0.456   0.007  -0.128
    1UNL     H2   28  -0.500  -0.106   0.009
    1UNL     H3   29  -0.584   0.038   0.015
    1UNL     H4   30  -0.399   0.017   0.169
    1UNL     H5   31  -0.315   0.253   0.011
    1UNL     H6   32  -0.227   0.020  -0.074
    1UNL     H7   33  -0.251  -0.214  -0.024
    1UNL     H8   34  -0.272  -0.180   0.135
    1UNL     H9   35  -0.132  -0.384   0.061
    1UNL    H10   36   0.047  -0.357   0.112
    1UNL    H11   37  -0.092  -0.306   0.219
    1UNL    H12   38   0.020  -0.311  -0.119
    1UNL    H13   39  -0.131  -0.212  -0.155
    1UNL    H14   40   0.133  -0.129  -0.225
    1UNL    H15   41  -0.004  -0.030  -0.191
    1UNL    H16   42  -0.190   0.456  -0.078
    1UNL    H17   43  -0.178   0.175   0.152
    1UNL    H18   44  -0.065  -0.014   0.269
    1UNL    H19   45   0.059   0.090   0.207
    1UNL    H20   46   0.119  -0.150   0.155
    1UNL    H21   47   0.198   0.276  -0.089
    1UNL    H22   48   0.419   0.269  -0.206
    1UNL    H23   49   0.630   0.050  -0.022
    1UNL    H24   50   0.552  -0.158   0.059
    1UNL    H25   51   0.317  -0.225   0.052
   0.00000   0.00000   0.00000   0.00000   0.00000   0.00000   0.00000   0.00000   0.00000
Generated with MDTraj, t= 6.0
 51
    1UNL     C1    1  -0.493  -0.017  -0.020
    1UNL     C2    2  -0.381   0.058   0.053
    1UNL     O1    3  -0.405   0.199   0.048
    1UNL     C3    4  -0.230   0.016   0.014
    1UNL     C4    5  -0.225  -0.135   0.041
    1UNL     N1    6  -0.080  -0.188   0.051
    1UNL     C5    7  -0.061  -0.306   0.147
    1UNL     C6    8  -0.037  -0.222  -0.095
    1UNL     C7    9   0.081  -0.141  -0.137
    1UNL     C8   10   0.115  -0.036  -0.027
    1UNL     C9   11   0.080   0.108  -0.068
    1UNL    C10   12  -0.035   0.170  -0.028
    1UNL    C11   13  -0.052   0.315  -0.042
    1UNL     O2   14   0.030   0.389  -0.099
    1UNL     O3   15  -0.168   0.362   0.007
    1UNL    C12   16  -0.119   0.102   0.085
    1UNL    C13   17  -0.022   0.026   0.173
    1UNL    C14   18   0.039  -0.090   0.094
    1UNL     N2   19   0.197   0.175  -0.102
    1UNL    C15   20   0.310   0.091  -0.077
    1UNL    C16   21   0.447   0.124  -0.082
    1UNL     O4   22   0.482   0.253  -0.108
    1UNL    C17   23   0.531   0.020  -0.052
    1UNL    C18   24   0.491  -0.101  -0.002
    1UNL    C19   25   0.354  -0.125   0.017
    1UNL    C20   26   0.263  -0.031  -0.026
    1UNL     H1   27  -0.479   0.006  -0.128
    1UNL     H2   28  -0.498  -0.119  -0.006
    1UNL     H3   29  -0.590   0.009   0.032
    1UNL     H4   30  -0.388   0.031   0.155
    1UNL     H5   31  -0.335   0.253   0.023
    1UNL     H6   32  -0.222   0.033  -0.095
    1UNL     H7   33  -0.285  -0.178  -0.036
    1UNL     H8   34  -0.272  -0.163   0.136
    1UNL     H9   35  -0.129  -0.379   0.107
    1UNL    H10   36   0.046  -0.319   0.156
    1UNL    H11   37  -0.096  -0.259   0.242
    1UNL    H12   38  -0.014  -0.321  -0.102
    1UNL    H13   39  -0.121  -0.198  -0.168
    1UNL    H14   40   0.167  -0.201  -0.164
    1UNL    H15   41   0.072  -0.084  -0.222
    1UNL    H16   42  -0.166   0.455  -0.018
    1UNL    H17   43  -0.173   0.178   0.141
    1UNL    H18   44  -0.057  -0.002   0.271
    1UNL    H19   45   0.055   0.101   0.191
    1UNL    H20   46   0.108  -0.151   0.153
    1UNL    H21   47   0.192   0.274  -0.112
    1UNL    H22   48   0.409   0.296  -0.144
    1UNL    H23   49   0.639   0.025  -0.064
    1UNL    H24   50   0.558  -0.187   0.002
    1UNL    H25   51   0.322  -0.229   0.036
   0.00000   0.00000   0.00000   0.00000   0.00000   0.00000   0.00000   0.00000   0.00000
Generated with MDTraj, t= 7.0
 51
    1UNL     C1    1  -0.481  -0.022  -0.003
    1UNL     C2    2  -0.372   0.065   0.042
    1UNL     O1    3  -0.383   0.195  -0.017
    1UNL     C3    4  -0.232   0.007   0.017
    1UNL     C4    5  -0.215  -0.139   0.058
    1UNL     N1    6  -0.076  -0.195   0.054
    1UNL     C5    7  -0.066  -0.327   0.137
    1UNL     C6    8  -0.043  -0.232  -0.093
    1UNL     C7    9   0.033  -0.115  -0.145
    1UNL     C8   10   0.108  -0.033  -0.031
    1UNL     C9   11   0.082   0.117  -0.043
    1UNL    C10   12  -0.036   0.177  -0.005
    1UNL    C11   13  -0.051   0.313  -0.041
    1UNL     O2   14   0.023   0.378  -0.117
    1UNL     O3   15  -0.149   0.383   0.019
    1UNL    C12   16  -0.124   0.098   0.095
    1UNL    C13   17  -0.019   0.016   0.182
    1UNL    C14   18   0.036  -0.099   0.100
    1UNL     N2   19   0.196   0.183  -0.086
    1UNL    C15   20   0.305   0.097  -0.073
    1UNL    C16   21   0.439   0.128  -0.084
    1UNL     O4   22   0.478   0.253  -0.120
    1UNL    C17   23   0.531   0.026  -0.046
    1UNL    C18   24   0.489  -0.097  -0.008
    1UNL    C19   25   0.362  -0.129   0.012
    1UNL    C20   26   0.263  -0.032  -0.024
    1UNL     H1   27  -0.470  -0.042  -0.108
    1UNL     H2   28  -0.499  -0.115   0.043
    1UNL     H3   29  -0.580   0.023   0.029
    1UNL     H4   30  -0.382   0.084   0.146
    1UNL     H5   31  -0.291   0.249  -0.020
    1UNL     H6   32  -0.210   0.022  -0.089
    1UNL     H7   33  -0.267  -0.208  -0.004
    1UNL     H8   34  -0.256  -0.144   0.160
    1UNL     H9   35  -0.136  -0.391   0.085
    1UNL    H10   36   0.040  -0.350   0.128
    1UNL    H11   37  -0.087  -0.302   0.243
    1UNL    H12   38   0.017  -0.319  -0.094
    1UNL    H13   39  -0.135  -0.250  -0.157
    1UNL    H14   40   0.117  -0.146  -0.205
    1UNL    H15   41  -0.020  -0.056  -0.210
    1UNL    H16   42  -0.131   0.468  -0.013
    1UNL    H17   43  -0.172   0.177   0.155
    1UNL    H18   44  -0.064  -0.018   0.275
    1UNL    H19   45   0.061   0.079   0.218
    1UNL    H20   46   0.122  -0.148   0.148
    1UNL    H21   47   0.210   0.281  -0.098
    1UNL    H22   48   0.395   0.299  -0.137
    1UNL    H23   49   0.632   0.066  -0.028
    1UNL    H24   50   0.566  -0.172  -0.000
    1UNL    H25   51   0.335  -0.230   0.022
   0.00000   0.00000   0.00000   0.00000   0.00000   0.00000   0.00000   0.00000   0.00000
Generated with MDTraj, t= 8.0
 51
    1UNL     C1    1  -0.469  -0.029  -0.007
    1UNL     C2    2  -0.361   0.077   0.026
    1UNL     O1    3  -0.368   0.179  -0.071
    1UNL     C3    4  -0.212   0.017   0.027
    1UNL     C4    5  -0.207  -0.131   0.072
    1UNL     N1    6  -0.064  -0.190   0.056
    1UNL     C5    7  -0.048  -0.328   0.133
    1UNL     C6    8  -0.039  -0.222  -0.092
    1UNL     C7    9   0.049  -0.112  -0.147
    1UNL     C8   10   0.101  -0.029  -0.032
    1UNL     C9   11   0.068   0.117  -0.053
    1UNL    C10   12  -0.034   0.189   0.013
    1UNL    C11   13  -0.066   0.328  -0.015
    1UNL     O2   14   0.001   0.395  -0.097
    1UNL     O3   15  -0.181   0.373   0.044
    1UNL    C12   16  -0.112   0.109   0.104
    1UNL    C13   17  -0.018   0.022   0.191
    1UNL    C14   18   0.042  -0.090   0.107
    1UNL     N2   19   0.185   0.169  -0.110
    1UNL    C15   20   0.300   0.090  -0.060
    1UNL    C16   21   0.443   0.118  -0.078
    1UNL     O4   22   0.494   0.238  -0.139
    1UNL    C17   23   0.527   0.012  -0.046
    1UNL    C18   24   0.476  -0.109  -0.008
    1UNL    C19   25   0.343  -0.135   0.008
    1UNL    C20   26   0.252  -0.034  -0.033
    1UNL     H1   27  -0.441  -0.078  -0.095
    1UNL     H2   28  -0.500  -0.104   0.064
    1UNL     H3   29  -0.570   0.021  -0.014
    1UNL     H4   30  -0.390   0.129   0.115
    1UNL     H5   31  -0.301   0.239  -0.047
    1UNL     H6   32  -0.174   0.017  -0.078
    1UNL     H7   33  -0.280  -0.182   0.010
    1UNL     H8   34  -0.228  -0.145   0.178
    1UNL     H9   35  -0.141  -0.384   0.112
    1UNL    H10   36   0.047  -0.378   0.113
    1UNL    H11   37  -0.047  -0.286   0.233
    1UNL    H12   38   0.023  -0.318  -0.100
    1UNL    H13   39  -0.130  -0.232  -0.154
    1UNL    H14   40   0.133  -0.147  -0.202
    1UNL    H15   41  -0.001  -0.046  -0.216
    1UNL    H16   42  -0.201   0.464   0.024
    1UNL    H17   43  -0.160   0.172   0.179
    1UNL    H18   44  -0.076  -0.018   0.276
    1UNL    H19   45   0.059   0.079   0.238
    1UNL    H20   46   0.123  -0.145   0.155
    1UNL    H21   47   0.202   0.270  -0.125
    1UNL    H22   48   0.415   0.298  -0.172
    1UNL    H23   49   0.632   0.023  -0.046
    1UNL    H24   50   0.545  -0.183   0.028
    1UNL    H25   51   0.308  -0.233   0.046
   0.00000   0.00000   0.00000   0.00000   0.00000   0.00000   0.00000   0.00000   0.00000
Generated with MDTraj, t= 9.0
 51
    1UNL     C1    1  -0.476  -0.045  -0.056
    1UNL     C2    2  -0.373   0.059   0.008
    1UNL     O1    3  -0.389   0.182  -0.055
    1UNL     C3    4  -0.226   0.009   0.020
    1UNL     C4    5  -0.207  -0.140   0.079
    1UNL     N1    6  -0.064  -0.188   0.068
    1UNL     C5    7  -0.046  -0.305   0.161
    1UNL     C6    8  -0.035  -0.239  -0.077
    1UNL     C7    9   0.038  -0.114  -0.145
    1UNL     C8   10   0.101  -0.031  -0.022
    1UNL     C9   11   0.074   0.116  -0.047
    1UNL    C10   12  -0.036   0.179   0.001
    1UNL    C11   13  -0.047   0.323  -0.003
    1UNL     O2   14   0.044   0.391  -0.050
    1UNL     O3   15  -0.166   0.381   0.035
    1UNL    C12   16  -0.130   0.116   0.088
    1UNL    C13   17  -0.043   0.035   0.196
    1UNL    C14   18   0.037  -0.076   0.107
    1UNL     N2   19   0.187   0.174  -0.096
    1UNL    C15   20   0.303   0.093  -0.062
    1UNL    C16   21   0.438   0.118  -0.098
    1UNL     O4   22   0.485   0.235  -0.150
    1UNL    C17   23   0.531   0.017  -0.071
    1UNL    C18   24   0.491  -0.107  -0.023
    1UNL    C19   25   0.355  -0.130  -0.007
    1UNL    C20   26   0.258  -0.033  -0.021
    1UNL     H1   27  -0.440  -0.071  -0.150
    1UNL     H2   28  -0.507  -0.135  -0.000
    1UNL     H3   29  -0.572   0.010  -0.056
    1UNL     H4   30  -0.416   0.076   0.108
    1UNL     H5   31  -0.321   0.250  -0.008
    1UNL     H6   32  -0.198   0.002  -0.089
    1UNL     H7   33  -0.262  -0.222   0.035
    1UNL     H8   34  -0.241  -0.124   0.181
    1UNL     H9   35  -0.124  -0.375   0.123
    1UNL    H10   36   0.057  -0.338   0.142
    1UNL    H11   37  -0.061  -0.269   0.262
    1UNL    H12   38   0.031  -0.339  -0.089
    1UNL    H13   39  -0.128  -0.250  -0.133
    1UNL    H14   40   0.117  -0.141  -0.206
    1UNL    H15   41  -0.024  -0.043  -0.201
    1UNL    H16   42  -0.168   0.483   0.023
    1UNL    H17   43  -0.191   0.196   0.133
    1UNL    H18   44  -0.110  -0.012   0.270
    1UNL    H19   45   0.024   0.097   0.249
    1UNL    H20   46   0.112  -0.128   0.167
    1UNL    H21   47   0.190   0.280  -0.096
    1UNL    H22   48   0.404   0.302  -0.166
    1UNL    H23   49   0.642   0.030  -0.073
    1UNL    H24   50   0.564  -0.187  -0.011
    1UNL    H25   51   0.322  -0.228   0.020
   0.00000   0.00000   0.00000   0.00000   0.00000   0.00000   0.00000   0.00000   0.00000
Generated with MDTraj, t= 10.0
 51
    1UNL     C1    1  -0.446  -0.034  -0.081
    1UNL     C2    2  -0.356   0.058   0.008
    1UNL     O1    3  -0.377   0.190  -0.022
    1UNL     C3    4  -0.212   0.010   0.004
    1UNL     C4    5  -0.207  -0.132   0.054
    1UNL     N1    6  -0.067  -0.192   0.074
    1UNL     C5    7  -0.085  -0.305   0.181
    1UNL     C6    8  -0.006  -0.248  -0.054
    1UNL     C7    9   0.048  -0.133  -0.136
    1UNL     C8   10   0.100  -0.031  -0.023
    1UNL     C9   11   0.066   0.116  -0.045
    1UNL    C10   12  -0.036   0.185   0.006
    1UNL    C11   13  -0.050   0.330  -0.007
    1UNL     O2   14   0.048   0.402  -0.027
    1UNL     O3   15  -0.172   0.385   0.011
    1UNL    C12   16  -0.125   0.101   0.094
    1UNL    C13   17  -0.037   0.025   0.187
    1UNL    C14   18   0.033  -0.083   0.105
    1UNL     N2   19   0.180   0.173  -0.082
    1UNL    C15   20   0.293   0.098  -0.070
    1UNL    C16   21   0.426   0.115  -0.104
    1UNL     O4   22   0.468   0.243  -0.152
    1UNL    C17   23   0.521   0.011  -0.092
    1UNL    C18   24   0.483  -0.108  -0.037
    1UNL    C19   25   0.354  -0.121   0.003
    1UNL    C20   26   0.254  -0.031  -0.022
    1UNL     H1   27  -0.413  -0.018  -0.182
    1UNL     H2   28  -0.455  -0.144  -0.061
    1UNL     H3   29  -0.545  -0.003  -0.058
    1UNL     H4   30  -0.383   0.042   0.118
    1UNL     H5   31  -0.302   0.240  -0.001
    1UNL     H6   32  -0.170   0.019  -0.102
    1UNL     H7   33  -0.262  -0.198  -0.014
    1UNL     H8   34  -0.246  -0.135   0.154
    1UNL     H9   35  -0.152  -0.387   0.144
    1UNL    H10   36   0.018  -0.330   0.212
    1UNL    H11   37  -0.124  -0.256   0.269
    1UNL    H12   38   0.083  -0.319  -0.023
    1UNL    H13   39  -0.078  -0.307  -0.116
    1UNL    H14   40   0.128  -0.154  -0.198
    1UNL    H15   41  -0.032  -0.089  -0.200
    1UNL    H16   42  -0.163   0.483  -0.016
    1UNL    H17   43  -0.195   0.167   0.148
    1UNL    H18   44  -0.106  -0.027   0.256
    1UNL    H19   45   0.030   0.092   0.238
    1UNL    H20   46   0.106  -0.128   0.173
    1UNL    H21   47   0.182   0.278  -0.070
    1UNL    H22   48   0.400   0.313  -0.126
    1UNL    H23   49   0.613   0.031  -0.136
    1UNL    H24   50   0.551  -0.189  -0.053
    1UNL    H25   51   0.329  -0.219   0.041
   0.00000   0.00000   0.00000   0.00000   0.00000   0.00000   0.00000   0.00000   0.00000
Generated with MDTraj, t= 11.0
 51
    1UNL     C1    1  -0.464  -0.041  -0.078
    1UNL     C2    2  -0.376   0.059   0.002
    1UNL     O1    3  -0.388   0.197  -0.035
    1UNL     C3    4  -0.228   0.004   0.004
    1UNL     C4    5  -0.214  -0.138   0.072
    1UNL     N1    6  -0.067  -0.186   0.064
    1UNL     C5    7  -0.053  -0.298   0.161
    1UNL     C6    8  -0.018  -0.233  -0.074
    1UNL     C7    9   0.047  -0.109  -0.127
    1UNL     C8   10   0.105  -0.026  -0.015
    1UNL     C9   11   0.075   0.123  -0.040
    1UNL    C10   12  -0.036   0.183   0.007
    1UNL    C11   13  -0.057   0.326  -0.006
    1UNL     O2   14   0.036   0.389  -0.055
    1UNL     O3   15  -0.168   0.378   0.044
    1UNL    C12   16  -0.136   0.105   0.094
    1UNL    C13   17  -0.044   0.027   0.195
    1UNL    C14   18   0.030  -0.079   0.113
    1UNL     N2   19   0.196   0.177  -0.082
    1UNL    C15   20   0.303   0.087  -0.071
    1UNL    C16   21   0.440   0.112  -0.107
    1UNL     O4   22   0.482   0.229  -0.170
    1UNL    C17   23   0.529   0.015  -0.080
    1UNL    C18   24   0.488  -0.102  -0.020
    1UNL    C19   25   0.354  -0.136   0.001
    1UNL    C20   26   0.260  -0.036  -0.022
    1UNL     H1   27  -0.410  -0.051  -0.174
    1UNL     H2   28  -0.474  -0.144  -0.041
    1UNL     H3   29  -0.564  -0.013  -0.086
    1UNL     H4   30  -0.408   0.057   0.113
    1UNL     H5   31  -0.312   0.257   0.006
    1UNL     H6   32  -0.196   0.008  -0.108
    1UNL     H7   33  -0.274  -0.223   0.034
    1UNL     H8   34  -0.239  -0.129   0.176
    1UNL     H9   35  -0.121  -0.379   0.128
    1UNL    H10   36   0.051  -0.330   0.178
    1UNL    H11   37  -0.086  -0.261   0.258
    1UNL    H12   38   0.067  -0.308  -0.069
    1UNL    H13   39  -0.107  -0.291  -0.123
    1UNL    H14   40   0.127  -0.133  -0.189
    1UNL    H15   41  -0.027  -0.061  -0.193
    1UNL    H16   42  -0.160   0.474   0.023
    1UNL    H17   43  -0.208   0.164   0.154
    1UNL    H18   44  -0.105  -0.021   0.273
    1UNL    H19   45   0.025   0.093   0.245
    1UNL    H20   46   0.103  -0.128   0.177
    1UNL    H21   47   0.206   0.278  -0.075
    1UNL    H22   48   0.413   0.298  -0.168
    1UNL    H23   49   0.630   0.020  -0.128
    1UNL    H24   50   0.554  -0.185   0.007
    1UNL    H25   51   0.327  -0.237   0.037
   0.00000   0.00000   0.00000   0.00000   0.00000   0.00000   0.00000   0.00000   0.00000
Generated with MDTraj, t= 12.0
 51
    1UNL     C1    1  -0.458  -0.034  -0.031
    1UNL     C2    2  -0.365   0.066   0.023
    1UNL     O1    3  -0.372   0.184  -0.061
    1UNL     C3    4  -0.225   0.015   0.029
    1UNL     C4    5  -0.207  -0.129   0.075
    1UNL     N1    6  -0.066  -0.194   0.053
    1UNL     C5    7  -0.052  -0.323   0.130
    1UNL     C6    8  -0.028  -0.222  -0.091
    1UNL     C7    9   0.067  -0.110  -0.144
    1UNL     C8   10   0.106  -0.028  -0.020
    1UNL     C9   11   0.066   0.118  -0.042
    1UNL    C10   12  -0.041   0.182   0.010
    1UNL    C11   13  -0.060   0.325  -0.010
    1UNL     O2   14   0.012   0.384  -0.089
    1UNL     O3   15  -0.160   0.387   0.053
    1UNL    C12   16  -0.128   0.106   0.101
    1UNL    C13   17  -0.035   0.027   0.190
    1UNL    C14   18   0.037  -0.084   0.104
    1UNL     N2   19   0.184   0.179  -0.101
    1UNL    C15   20   0.298   0.094  -0.074
    1UNL    C16   21   0.439   0.118  -0.096
    1UNL     O4   22   0.482   0.231  -0.155
    1UNL    C17   23   0.524   0.007  -0.057
    1UNL    C18   24   0.476  -0.112  -0.006
    1UNL    C19   25   0.340  -0.134   0.013
    1UNL    C20   26   0.259  -0.025  -0.011
    1UNL     H1   27  -0.412  -0.074  -0.126
    1UNL     H2   28  -0.482  -0.116   0.035
    1UNL     H3   29  -0.552   0.010  -0.048
    1UNL     H4   30  -0.402   0.097   0.127
    1UNL     H5   31  -0.321   0.253  -0.028
    1UNL     H6   32  -0.194   0.019  -0.084
    1UNL     H7   33  -0.287  -0.197   0.041
    1UNL     H8   34  -0.214  -0.129   0.183
    1UNL     H9   35  -0.116  -0.404   0.097
    1UNL    H10   36   0.054  -0.349   0.115
    1UNL    H11   37  -0.055  -0.315   0.241
    1UNL    H12   38   0.010  -0.327  -0.088
    1UNL    H13   39  -0.128  -0.232  -0.157
    1UNL    H14   40   0.148  -0.155  -0.193
    1UNL    H15   41   0.028  -0.048  -0.225
    1UNL    H16   42  -0.154   0.478   0.033
    1UNL    H17   43  -0.186   0.169   0.170
    1UNL    H18   44  -0.069  -0.009   0.288
    1UNL    H19   45   0.039   0.103   0.211
    1UNL    H20   46   0.111  -0.142   0.159
    1UNL    H21   47   0.186   0.270  -0.138
    1UNL    H22   48   0.414   0.287  -0.183
    1UNL    H23   49   0.629   0.019  -0.056
    1UNL    H24   50   0.547  -0.184   0.030
    1UNL    H25   51   0.296  -0.219   0.054
   0.00000   0.00000   0.00000   0.00000   0.00000   0.00000   0.00000   0.00000   0.00000
Generated with MDTraj, t= 13.0
 51
    1UNL     C1    1  -0.485  -0.018  -0.002
    1UNL     C2    2  -0.368   0.074   0.032
    1UNL     O1    3  -0.377   0.196  -0.047
    1UNL     C3    4  -0.229   0.011   0.027
    1UNL     C4    5  -0.219  -0.139   0.077
    1UNL     N1    6  -0.072  -0.200   0.055
    1UNL     C5    7  -0.080  -0.321   0.142
    1UNL     C6    8  -0.036  -0.229  -0.091
    1UNL     C7    9   0.046  -0.112  -0.152
    1UNL     C8   10   0.109  -0.047  -0.032
    1UNL     C9   11   0.081   0.114  -0.049
    1UNL    C10   12  -0.036   0.176  -0.011
    1UNL    C11   13  -0.056   0.316  -0.028
    1UNL     O2   14   0.028   0.378  -0.092
    1UNL     O3   15  -0.167   0.375   0.030
    1UNL    C12   16  -0.118   0.103   0.095
    1UNL    C13   17  -0.021   0.020   0.185
    1UNL    C14   18   0.038  -0.097   0.101
    1UNL     N2   19   0.200   0.176  -0.095
    1UNL    C15   20   0.306   0.088  -0.086
    1UNL    C16   21   0.436   0.125  -0.082
    1UNL     O4   22   0.475   0.248  -0.132
    1UNL    C17   23   0.532   0.036  -0.038
    1UNL    C18   24   0.495  -0.095  -0.007
    1UNL    C19   25   0.360  -0.125   0.006
    1UNL    C20   26   0.262  -0.037  -0.034
    1UNL     H1   27  -0.471  -0.039  -0.110
    1UNL     H2   28  -0.471  -0.110   0.049
    1UNL     H3   29  -0.584   0.021   0.020
    1UNL     H4   30  -0.386   0.110   0.136
    1UNL     H5   31  -0.318   0.272  -0.010
    1UNL     H6   32  -0.182   0.010  -0.079
    1UNL     H7   33  -0.278  -0.203   0.009
    1UNL     H8   34  -0.254  -0.159   0.178
    1UNL     H9   35  -0.171  -0.373   0.115
    1UNL    H10   36  -0.001  -0.396   0.131
    1UNL    H11   37  -0.080  -0.307   0.253
    1UNL    H12   38   0.027  -0.321  -0.096
    1UNL    H13   39  -0.137  -0.253  -0.147
    1UNL    H14   40   0.111  -0.151  -0.228
    1UNL    H15   41  -0.012  -0.037  -0.202
    1UNL    H16   42  -0.158   0.468   0.028
    1UNL    H17   43  -0.163   0.184   0.154
    1UNL    H18   44  -0.073  -0.013   0.274
    1UNL    H19   45   0.068   0.075   0.213
    1UNL    H20   46   0.111  -0.154   0.158
    1UNL    H21   47   0.214   0.277  -0.084
    1UNL    H22   48   0.399   0.287  -0.164
    1UNL    H23   49   0.634   0.080  -0.041
    1UNL    H24   50   0.569  -0.156   0.044
    1UNL    H25   51   0.328  -0.220   0.057
   0.00000   0.00000   0.00000   0.00000   0.00000   0.00000   0.00000   0.00000   0.00000
Generated with MDTraj, t= 14.0
 51
    1UNL     C1    1  -0.482  -0.033   0.003
    1UNL     C2    2  -0.373   0.062   0.050
    1UNL     O1    3  -0.394   0.195  -0.005
    1UNL     C3    4  -0.235   0.010   0.015
    1UNL     C4    5  -0.218  -0.139   0.052
    1UNL     N1    6  -0.064  -0.189   0.054
    1UNL     C5    7  -0.057  -0.303   0.152
    1UNL     C6    8  -0.026  -0.232  -0.087
    1UNL     C7    9   0.066  -0.129  -0.151
    1UNL     C8   10   0.107  -0.040  -0.038
    1UNL     C9   11   0.066   0.107  -0.078
    1UNL    C10   12  -0.042   0.182  -0.028
    1UNL    C11   13  -0.044   0.329  -0.036
    1UNL     O2   14   0.052   0.392  -0.085
    1UNL     O3   15  -0.154   0.388   0.025
    1UNL    C12   16  -0.124   0.097   0.080
    1UNL    C13   17  -0.029   0.021   0.169
    1UNL    C14   18   0.044  -0.090   0.100
    1UNL     N2   19   0.186   0.167  -0.111
    1UNL    C15   20   0.301   0.091  -0.086
    1UNL    C16   21   0.438   0.118  -0.079
    1UNL     O4   22   0.473   0.252  -0.097
    1UNL    C17   23   0.529   0.019  -0.052
    1UNL    C18   24   0.480  -0.104   0.001
    1UNL    C19   25   0.343  -0.129   0.010
    1UNL    C20   26   0.256  -0.024  -0.027
    1UNL     H1   27  -0.469  -0.041  -0.105
    1UNL     H2   28  -0.465  -0.128   0.045
    1UNL     H3   29  -0.584   0.004   0.029
    1UNL     H4   30  -0.388   0.080   0.155
    1UNL     H5   31  -0.321   0.251  -0.001
    1UNL     H6   32  -0.233   0.019  -0.101
    1UNL     H7   33  -0.272  -0.190  -0.027
    1UNL     H8   34  -0.269  -0.160   0.147
    1UNL     H9   35  -0.120  -0.385   0.124
    1UNL    H10   36   0.042  -0.348   0.157
    1UNL    H11   37  -0.072  -0.288   0.262
    1UNL    H12   38   0.023  -0.334  -0.080
    1UNL    H13   39  -0.118  -0.242  -0.147
    1UNL    H14   40   0.155  -0.175  -0.194
    1UNL    H15   41   0.005  -0.089  -0.226
    1UNL    H16   42  -0.157   0.487   0.015
    1UNL    H17   43  -0.183   0.170   0.138
    1UNL    H18   44  -0.079  -0.023   0.254
    1UNL    H19   45   0.044   0.092   0.207
    1UNL    H20   46   0.113  -0.136   0.172
    1UNL    H21   47   0.191   0.271  -0.109
    1UNL    H22   48   0.395   0.294  -0.137
    1UNL    H23   49   0.634   0.029  -0.062
    1UNL    H24   50   0.546  -0.175   0.049
    1UNL    H25   51   0.308  -0.217   0.053
   0.00000   0.00000   0.00000   0.00000   0.00000   0.00000   0.00000   0.00000   0.00000
Generated with MDTraj, t= 15.0
 51
    1UNL     C1    1  -0.473  -0.029  -0.021
    1UNL     C2    2  -0.376   0.059   0.053
    1UNL     O1    3  -0.408   0.195   0.017
    1UNL     C3    4  -0.235   0.016   0.024
    1UNL     C4    5  -0.210  -0.140   0.051
    1UNL     N1    6  -0.067  -0.192   0.055
    1UNL     C5    7  -0.057  -0.305   0.155
    1UNL     C6    8  -0.034  -0.232  -0.089
    1UNL     C7    9   0.045  -0.112  -0.155
    1UNL     C8   10   0.111  -0.027  -0.036
    1UNL     C9   11   0.087   0.122  -0.056
    1UNL    C10   12  -0.033   0.183  -0.017
    1UNL    C11   13  -0.059   0.320  -0.044
    1UNL     O2   14   0.026   0.395  -0.091
    1UNL     O3   15  -0.175   0.376  -0.001
    1UNL    C12   16  -0.121   0.103   0.092
    1UNL    C13   17  -0.026   0.024   0.184
    1UNL    C14   18   0.044  -0.088   0.095
    1UNL     N2   19   0.203   0.189  -0.094
    1UNL    C15   20   0.305   0.089  -0.086
    1UNL    C16   21   0.440   0.121  -0.069
    1UNL     O4   22   0.497   0.233  -0.121
    1UNL    C17   23   0.529   0.018  -0.023
    1UNL    C18   24   0.482  -0.110   0.007
    1UNL    C19   25   0.350  -0.144  -0.016
    1UNL    C20   26   0.264  -0.038  -0.044
    1UNL     H1   27  -0.449  -0.036  -0.122
    1UNL     H2   28  -0.482  -0.130   0.018
    1UNL     H3   29  -0.574   0.019  -0.014
    1UNL     H4   30  -0.380   0.046   0.159
    1UNL     H5   31  -0.322   0.253   0.000
    1UNL     H6   32  -0.226   0.014  -0.091
    1UNL     H7   33  -0.263  -0.198  -0.022
    1UNL     H8   34  -0.259  -0.166   0.146
    1UNL     H9   35  -0.104  -0.402   0.131
    1UNL    H10   36   0.045  -0.332   0.173
    1UNL    H11   37  -0.086  -0.288   0.259
    1UNL    H12   38   0.027  -0.330  -0.096
    1UNL    H13   39  -0.126  -0.256  -0.135
    1UNL    H14   40   0.104  -0.152  -0.237
    1UNL    H15   41  -0.027  -0.058  -0.200
    1UNL    H16   42  -0.173   0.477  -0.012
    1UNL    H17   43  -0.177   0.180   0.150
    1UNL    H18   44  -0.075  -0.020   0.270
    1UNL    H19   45   0.045   0.092   0.233
    1UNL    H20   46   0.125  -0.139   0.146
    1UNL    H21   47   0.195   0.296  -0.090
    1UNL    H22   48   0.446   0.261  -0.204
    1UNL    H23   49   0.635   0.032  -0.037
    1UNL    H24   50   0.558  -0.179   0.041
    1UNL    H25   51   0.303  -0.241   0.005
   0.00000   0.00000   0.00000   0.00000   0.00000   0.00000   0.00000   0.00000   0.00000
Generated with MDTraj, t= 16.0
 51
    1UNL     C1    1  -0.477  -0.032  -0.019
    1UNL     C2    2  -0.375   0.062   0.047
    1UNL     O1    3  -0.394   0.191  -0.006
    1UNL     C3    4  -0.227   0.011   0.019
    1UNL     C4    5  -0.211  -0.142   0.057
    1UNL     N1    6  -0.066  -0.199   0.057
    1UNL     C5    7  -0.047  -0.330   0.132
    1UNL     C6    8  -0.032  -0.214  -0.092
    1UNL     C7    9   0.059  -0.095  -0.139
    1UNL     C8   10   0.109  -0.020  -0.012
    1UNL     C9   11   0.080   0.123  -0.044
    1UNL    C10   12  -0.035   0.184  -0.007
    1UNL    C11   13  -0.058   0.324  -0.039
    1UNL     O2   14   0.019   0.390  -0.113
    1UNL     O3   15  -0.176   0.381   0.002
    1UNL    C12   16  -0.126   0.105   0.095
    1UNL    C13   17  -0.037   0.028   0.186
    1UNL    C14   18   0.035  -0.082   0.105
    1UNL     N2   19   0.201   0.180  -0.086
    1UNL    C15   20   0.310   0.086  -0.074
    1UNL    C16   21   0.445   0.112  -0.091
    1UNL     O4   22   0.494   0.244  -0.120
    1UNL    C17   23   0.531  -0.002  -0.067
    1UNL    C18   24   0.478  -0.123  -0.027
    1UNL    C19   25   0.346  -0.130   0.023
    1UNL    C20   26   0.259  -0.024  -0.000
    1UNL     H1   27  -0.454  -0.036  -0.120
    1UNL     H2   28  -0.475  -0.138   0.014
    1UNL     H3   29  -0.581   0.002  -0.012
    1UNL     H4   30  -0.376   0.068   0.153
    1UNL     H5   31  -0.316   0.242  -0.008
    1UNL     H6   32  -0.215   0.019  -0.094
    1UNL     H7   33  -0.271  -0.209  -0.001
    1UNL     H8   34  -0.257  -0.139   0.158
    1UNL     H9   35  -0.125  -0.402   0.099
    1UNL    H10   36   0.044  -0.387   0.134
    1UNL    H11   37  -0.065  -0.325   0.238
    1UNL    H12   38   0.018  -0.316  -0.098
    1UNL    H13   39  -0.117  -0.227  -0.154
    1UNL    H14   40   0.132  -0.132  -0.210
    1UNL    H15   41   0.003  -0.035  -0.205
    1UNL    H16   42  -0.166   0.479  -0.018
    1UNL    H17   43  -0.187   0.178   0.152
    1UNL    H18   44  -0.083  -0.006   0.276
    1UNL    H19   45   0.043   0.097   0.218
    1UNL    H20   46   0.102  -0.138   0.170
    1UNL    H21   47   0.216   0.282  -0.082
    1UNL    H22   48   0.407   0.294  -0.156
    1UNL    H23   49   0.632   0.008  -0.106
    1UNL    H24   50   0.539  -0.209  -0.004
    1UNL    H25   51   0.308  -0.221   0.067
   0.00000   0.00000   0.00000   0.00000   0.00000   0.00000   0.00000   0.00000   0.00000
Generated with MDTraj, t= 17.0
 51
    1UNL     C1    1  -0.482  -0.036  -0.012
    1UNL     C2    2  -0.379   0.071   0.021
    1UNL     O1    3  -0.394   0.187  -0.061
    1UNL     C3    4  -0.231   0.009   0.020
    1UNL     C4    5  -0.218  -0.135   0.058
    1UNL     N1    6  -0.078  -0.187   0.058
    1UNL     C5    7  -0.076  -0.301   0.147
    1UNL     C6    8  -0.036  -0.229  -0.082
    1UNL     C7    9   0.054  -0.115  -0.134
    1UNL     C8   10   0.108  -0.030  -0.021
    1UNL     C9   11   0.085   0.122  -0.030
    1UNL    C10   12  -0.030   0.180   0.002
    1UNL    C11   13  -0.056   0.319  -0.025
    1UNL     O2   14   0.026   0.387  -0.092
    1UNL     O3   15  -0.173   0.371   0.033
    1UNL    C12   16  -0.117   0.103   0.091
    1UNL    C13   17  -0.022   0.023   0.187
    1UNL    C14   18   0.039  -0.092   0.107
    1UNL     N2   19   0.203   0.179  -0.071
    1UNL    C15   20   0.309   0.095  -0.057
    1UNL    C16   21   0.446   0.120  -0.078
    1UNL     O4   22   0.480   0.237  -0.149
    1UNL    C17   23   0.534   0.015  -0.074
    1UNL    C18   24   0.493  -0.107  -0.029
    1UNL    C19   25   0.359  -0.132  -0.004
    1UNL    C20   26   0.268  -0.028  -0.016
    1UNL     H1   27  -0.467  -0.068  -0.115
    1UNL     H2   28  -0.476  -0.122   0.057
    1UNL     H3   29  -0.577   0.011  -0.006
    1UNL     H4   30  -0.393   0.107   0.123
    1UNL     H5   31  -0.315   0.252  -0.035
    1UNL     H6   32  -0.205   0.022  -0.091
    1UNL     H7   33  -0.281  -0.189  -0.010
    1UNL     H8   34  -0.261  -0.151   0.158
    1UNL     H9   35  -0.159  -0.372   0.133
    1UNL    H10   36   0.012  -0.365   0.138
    1UNL    H11   37  -0.069  -0.280   0.251
    1UNL    H12   38   0.019  -0.323  -0.081
    1UNL    H13   39  -0.123  -0.256  -0.140
    1UNL    H14   40   0.130  -0.159  -0.192
    1UNL    H15   41  -0.004  -0.061  -0.207
    1UNL    H16   42  -0.162   0.464   0.032
    1UNL    H17   43  -0.168   0.188   0.143
    1UNL    H18   44  -0.088  -0.017   0.262
    1UNL    H19   45   0.059   0.081   0.234
    1UNL    H20   46   0.104  -0.151   0.171
    1UNL    H21   47   0.215   0.277  -0.076
    1UNL    H22   48   0.394   0.285  -0.189
    1UNL    H23   49   0.636   0.030  -0.106
    1UNL    H24   50   0.560  -0.183   0.004
    1UNL    H25   51   0.330  -0.218   0.051
   0.00000   0.00000   0.00000   0.00000   0.00000   0.00000   0.00000   0.00000   0.00000
Generated with MDTraj, t= 18.0
 51
    1UNL     C1    1  -0.472  -0.025  -0.050
    1UNL     C2    2  -0.359   0.066   0.011
    1UNL     O1    3  -0.361   0.192  -0.062
    1UNL     C3    4  -0.213   0.010   0.022
    1UNL     C4    5  -0.212  -0.135   0.069
    1UNL     N1    6  -0.066  -0.195   0.073
    1UNL     C5    7  -0.043  -0.316   0.159
    1UNL     C6    8  -0.026  -0.237  -0.070
    1UNL     C7    9   0.038  -0.122  -0.138
    1UNL     C8   10   0.095  -0.034  -0.028
    1UNL     C9   11   0.060   0.106  -0.058
    1UNL    C10   12  -0.028   0.176   0.015
    1UNL    C11   13  -0.046   0.323  -0.005
    1UNL     O2   14   0.045   0.393  -0.049
    1UNL     O3   15  -0.165   0.388   0.025
    1UNL    C12   16  -0.114   0.107   0.098
    1UNL    C13   17  -0.021   0.025   0.192
    1UNL    C14   18   0.039  -0.088   0.105
    1UNL     N2   19   0.171   0.171  -0.112
    1UNL    C15   20   0.287   0.090  -0.089
    1UNL    C16   21   0.430   0.122  -0.101
    1UNL     O4   22   0.473   0.246  -0.140
    1UNL    C17   23   0.516   0.019  -0.060
    1UNL    C18   24   0.475  -0.107  -0.007
    1UNL    C19   25   0.340  -0.127   0.001
    1UNL    C20   26   0.248  -0.031  -0.024
    1UNL     H1   27  -0.442  -0.054  -0.155
    1UNL     H2   28  -0.488  -0.118   0.005
    1UNL     H3   29  -0.557   0.034  -0.059
    1UNL     H4   30  -0.393   0.090   0.115
    1UNL     H5   31  -0.298   0.252  -0.029
    1UNL     H6   32  -0.176   0.014  -0.085
    1UNL     H7   33  -0.273  -0.202   0.014
    1UNL     H8   34  -0.262  -0.139   0.169
    1UNL     H9   35  -0.105  -0.401   0.130
    1UNL    H10   36   0.060  -0.353   0.165
    1UNL    H11   37  -0.064  -0.298   0.263
    1UNL    H12   38   0.044  -0.313  -0.062
    1UNL    H13   39  -0.107  -0.282  -0.130
    1UNL    H14   40   0.109  -0.165  -0.197
    1UNL    H15   41  -0.033  -0.079  -0.211
    1UNL    H16   42  -0.160   0.472  -0.016
    1UNL    H17   43  -0.167   0.184   0.159
    1UNL    H18   44  -0.090  -0.015   0.264
    1UNL    H19   45   0.064   0.075   0.241
    1UNL    H20   46   0.121  -0.131   0.161
    1UNL    H21   47   0.166   0.269  -0.094
    1UNL    H22   48   0.396   0.307  -0.161
    1UNL    H23   49   0.623   0.037  -0.069
    1UNL    H24   50   0.551  -0.164   0.044
    1UNL    H25   51   0.296  -0.219   0.045
   0.00000   0.00000   0.00000   0.00000   0.00000   0.00000   0.00000   0.00000   0.00000
Generated with MDTraj, t= 19.0
 51
    1UNL     C1    1  -0.458  -0.039  -0.084
    1UNL     C2    2  -0.365   0.053   0.002
    1UNL     O1    3  -0.378   0.182  -0.047
    1UNL     C3    4  -0.213   0.006   0.016
    1UNL     C4    5  -0.202  -0.131   0.086
    1UNL     N1    6  -0.060  -0.184   0.080
    1UNL     C5    7  -0.061  -0.300   0.171
    1UNL     C6    8  -0.050  -0.242  -0.064
    1UNL     C7    9   0.033  -0.132  -0.141
    1UNL     C8   10   0.094  -0.029  -0.032
    1UNL     C9   11   0.067   0.121  -0.055
    1UNL    C10   12  -0.039   0.184  -0.005
    1UNL    C11   13  -0.047   0.327  -0.001
    1UNL     O2   14   0.048   0.399  -0.033
    1UNL     O3   15  -0.158   0.376   0.059
    1UNL    C12   16  -0.121   0.112   0.086
    1UNL    C13   17  -0.023   0.044   0.184
    1UNL    C14   18   0.042  -0.074   0.102
    1UNL     N2   19   0.183   0.166  -0.110
    1UNL    C15   20   0.295   0.085  -0.097
    1UNL    C16   21   0.428   0.117  -0.096
    1UNL     O4   22   0.475   0.239  -0.153
    1UNL    C17   23   0.523   0.025  -0.053
    1UNL    C18   24   0.483  -0.101  -0.006
    1UNL    C19   25   0.346  -0.133  -0.002
    1UNL    C20   26   0.247  -0.040  -0.046
    1UNL     H1   27  -0.405  -0.069  -0.179
    1UNL     H2   28  -0.460  -0.136  -0.038
    1UNL     H3   29  -0.553  -0.004  -0.115
    1UNL     H4   30  -0.414   0.053   0.105
    1UNL     H5   31  -0.305   0.251  -0.011
    1UNL     H6   32  -0.181  -0.010  -0.089
    1UNL     H7   33  -0.261  -0.211   0.048
    1UNL     H8   34  -0.238  -0.125   0.191
    1UNL     H9   35  -0.130  -0.378   0.141
    1UNL    H10   36   0.040  -0.341   0.185
    1UNL    H11   37  -0.090  -0.268   0.270
    1UNL    H12   38   0.002  -0.330  -0.066
    1UNL    H13   39  -0.148  -0.264  -0.111
    1UNL    H14   40   0.098  -0.182  -0.202
    1UNL    H15   41  -0.032  -0.086  -0.218
    1UNL    H16   42  -0.143   0.472   0.062
    1UNL    H17   43  -0.179   0.179   0.152
    1UNL    H18   44  -0.070  -0.001   0.272
    1UNL    H19   45   0.049   0.119   0.222
    1UNL    H20   46   0.121  -0.121   0.159
    1UNL    H21   47   0.191   0.268  -0.127
    1UNL    H22   48   0.407   0.302  -0.158
    1UNL    H23   49   0.628   0.038  -0.079
    1UNL    H24   50   0.555  -0.174   0.031
    1UNL    H25   51   0.322  -0.223   0.043
   0.00000   0.00000   0.00000   0.00000   0.00000   0.00000   0.00000   0.00000   0.00000
Generated with MDTraj, t= 20.0
 51
    1UNL     C1    1  -0.460  -0.023  -0.072
    1UNL     C2    2  -0.358   0.060   0.012
    1UNL     O1    3  -0.353   0.192  -0.049
    1UNL     C3    4  -0.222   0.008   0.004
    1UNL     C4    5  -0.201  -0.131   0.057
    1UNL     N1    6  -0.059  -0.193   0.070
    1UNL     C5    7  -0.060  -0.312   0.173
    1UNL     C6    8  -0.022  -0.241  -0.068
    1UNL     C7    9   0.053  -0.117  -0.132
    1UNL     C8   10   0.094  -0.028  -0.014
    1UNL     C9   11   0.068   0.118  -0.044
    1UNL    C10   12  -0.040   0.180   0.011
    1UNL    C11   13  -0.053   0.326  -0.004
    1UNL     O2   14   0.019   0.391  -0.078
    1UNL     O3   15  -0.162   0.389   0.043
    1UNL    C12   16  -0.134   0.099   0.100
    1UNL    C13   17  -0.038   0.027   0.198
    1UNL    C14   18   0.037  -0.083   0.116
    1UNL     N2   19   0.181   0.176  -0.077
    1UNL    C15   20   0.291   0.090  -0.069
    1UNL    C16   21   0.429   0.116  -0.100
    1UNL     O4   22   0.473   0.238  -0.161
    1UNL    C17   23   0.521   0.009  -0.085
    1UNL    C18   24   0.484  -0.110  -0.025
    1UNL    C19   25   0.348  -0.134  -0.004
    1UNL    C20   26   0.254  -0.030  -0.018
    1UNL     H1   27  -0.425  -0.044  -0.174
    1UNL     H2   28  -0.487  -0.120  -0.036
    1UNL     H3   29  -0.546   0.043  -0.087
    1UNL     H4   30  -0.393   0.065   0.121
    1UNL     H5   31  -0.292   0.253  -0.014
    1UNL     H6   32  -0.187   0.016  -0.098
    1UNL     H7   33  -0.264  -0.199   0.004
    1UNL     H8   34  -0.241  -0.135   0.160
    1UNL     H9   35  -0.139  -0.383   0.158
    1UNL    H10   36   0.042  -0.353   0.175
    1UNL    H11   37  -0.076  -0.269   0.272
    1UNL    H12   38   0.048  -0.320  -0.070
    1UNL    H13   39  -0.111  -0.271  -0.124
    1UNL    H14   40   0.142  -0.134  -0.188
    1UNL    H15   41  -0.018  -0.079  -0.205
    1UNL    H16   42  -0.152   0.486   0.014
    1UNL    H17   43  -0.195   0.174   0.152
    1UNL    H18   44  -0.093  -0.014   0.283
    1UNL    H19   45   0.038   0.095   0.241
    1UNL    H20   46   0.116  -0.126   0.176
    1UNL    H21   47   0.180   0.283  -0.072
    1UNL    H22   48   0.419   0.307  -0.136
    1UNL    H23   49   0.617   0.029  -0.127
    1UNL    H24   50   0.553  -0.191  -0.014
    1UNL    H25   51   0.310  -0.231   0.039
   0.00000   0.00000   0.00000   0.00000   0.00000   0.00000   0.00000   0.00000   0.00000
Generated with MDTraj, t= 21.0
 51
    1UNL     C1    1  -0.470  -0.038  -0.046
    1UNL     C2    2  -0.362   0.065   0.004
    1UNL     O1    3  -0.382   0.189  -0.059
    1UNL     C3    4  -0.218   0.014   0.014
    1UNL     C4    5  -0.215  -0.132   0.060
    1UNL     N1    6  -0.074  -0.182   0.062
    1UNL     C5    7  -0.073  -0.308   0.142
    1UNL     C6    8  -0.028  -0.219  -0.076
    1UNL     C7    9   0.064  -0.105  -0.132
    1UNL     C8   10   0.109  -0.027  -0.003
    1UNL     C9   11   0.081   0.123  -0.019
    1UNL    C10   12  -0.037   0.186   0.018
    1UNL    C11   13  -0.061   0.321  -0.019
    1UNL     O2   14   0.012   0.377  -0.097
    1UNL     O3   15  -0.172   0.375   0.039
    1UNL    C12   16  -0.129   0.108   0.114
    1UNL    C13   17  -0.040   0.025   0.208
    1UNL    C14   18   0.033  -0.082   0.124
    1UNL     N2   19   0.195   0.180  -0.070
    1UNL    C15   20   0.305   0.089  -0.060
    1UNL    C16   21   0.437   0.117  -0.110
    1UNL     O4   22   0.486   0.232  -0.162
    1UNL    C17   23   0.524   0.007  -0.094
    1UNL    C18   24   0.493  -0.116  -0.039
    1UNL    C19   25   0.361  -0.141   0.005
    1UNL    C20   26   0.269  -0.034  -0.002
    1UNL     H1   27  -0.446  -0.080  -0.140
    1UNL     H2   28  -0.466  -0.124   0.018
    1UNL     H3   29  -0.572   0.009  -0.050
    1UNL     H4   30  -0.394   0.091   0.110
    1UNL     H5   31  -0.302   0.254  -0.033
    1UNL     H6   32  -0.180   0.014  -0.086
    1UNL     H7   33  -0.276  -0.191  -0.007
    1UNL     H8   34  -0.264  -0.136   0.158
    1UNL     H9   35  -0.149  -0.369   0.098
    1UNL    H10   36   0.030  -0.345   0.137
    1UNL    H11   37  -0.104  -0.283   0.245
    1UNL    H12   38   0.031  -0.310  -0.071
    1UNL    H13   39  -0.103  -0.242  -0.146
    1UNL    H14   40   0.146  -0.143  -0.199
    1UNL    H15   41   0.008  -0.047  -0.201
    1UNL    H16   42  -0.173   0.476   0.025
    1UNL    H17   43  -0.201   0.171   0.168
    1UNL    H18   44  -0.104  -0.024   0.283
    1UNL    H19   45   0.036   0.081   0.266
    1UNL    H20   46   0.094  -0.144   0.189
    1UNL    H21   47   0.197   0.273  -0.116
    1UNL    H22   48   0.439   0.307  -0.123
    1UNL    H23   49   0.620   0.031  -0.140
    1UNL    H24   50   0.575  -0.185  -0.016
    1UNL    H25   51   0.322  -0.233   0.037
   0.00000   0.00000   0.00000   0.00000   0.00000   0.00000   0.00000   0.00000   0.00000
Generated with MDTraj, t= 22.0
 51
    1UNL     C1    1  -0.474  -0.034  -0.027
    1UNL     C2    2  -0.371   0.064   0.032
    1UNL     O1    3  -0.381   0.186  -0.039
    1UNL     C3    4  -0.226   0.011   0.017
    1UNL     C4    5  -0.211  -0.131   0.076
    1UNL     N1    6  -0.066  -0.186   0.056
    1UNL     C5    7  -0.038  -0.314   0.135
    1UNL     C6    8  -0.031  -0.226  -0.086
    1UNL     C7    9   0.049  -0.111  -0.143
    1UNL     C8   10   0.105  -0.036  -0.022
    1UNL     C9   11   0.075   0.112  -0.033
    1UNL    C10   12  -0.037   0.184  -0.002
    1UNL    C11   13  -0.056   0.329  -0.025
    1UNL     O2   14   0.037   0.394  -0.071
    1UNL     O3   15  -0.181   0.379   0.013
    1UNL    C12   16  -0.128   0.112   0.088
    1UNL    C13   17  -0.030   0.035   0.182
    1UNL    C14   18   0.040  -0.087   0.111
    1UNL     N2   19   0.190   0.181  -0.077
    1UNL    C15   20   0.307   0.096  -0.063
    1UNL    C16   21   0.440   0.110  -0.086
    1UNL     O4   22   0.482   0.226  -0.153
    1UNL    C17   23   0.529   0.008  -0.056
    1UNL    C18   24   0.481  -0.117  -0.018
    1UNL    C19   25   0.342  -0.135  -0.002
    1UNL    C20   26   0.255  -0.028  -0.018
    1UNL     H1   27  -0.456  -0.059  -0.126
    1UNL     H2   28  -0.468  -0.134   0.018
    1UNL     H3   29  -0.577   0.010  -0.011
    1UNL     H4   30  -0.385   0.086   0.139
    1UNL     H5   31  -0.315   0.248  -0.021
    1UNL     H6   32  -0.201   0.002  -0.086
    1UNL     H7   33  -0.283  -0.194   0.022
    1UNL     H8   34  -0.247  -0.128   0.177
    1UNL     H9   35  -0.107  -0.381   0.085
    1UNL    H10   36   0.066  -0.335   0.122
    1UNL    H11   37  -0.071  -0.301   0.239
    1UNL    H12   38   0.028  -0.320  -0.087
    1UNL    H13   39  -0.111  -0.246  -0.146
    1UNL    H14   40   0.114  -0.158  -0.229
    1UNL    H15   41  -0.007  -0.038  -0.194
    1UNL    H16   42  -0.190   0.466  -0.027
    1UNL    H17   43  -0.187   0.183   0.148
    1UNL    H18   44  -0.066   0.000   0.282
    1UNL    H19   45   0.039   0.117   0.210
    1UNL    H20   46   0.117  -0.128   0.176
    1UNL    H21   47   0.200   0.276  -0.109
    1UNL    H22   48   0.416   0.306  -0.147
    1UNL    H23   49   0.633   0.027  -0.064
    1UNL    H24   50   0.542  -0.197   0.015
    1UNL    H25   51   0.298  -0.230   0.026
   0.00000   0.00000   0.00000   0.00000   0.00000   0.00000   0.00000   0.00000   0.00000
Generated with MDTraj, t= 23.0
 51
    1UNL     C1    1  -0.474  -0.046  -0.006
    1UNL     C2    2  -0.372   0.058   0.039
    1UNL     O1    3  -0.396   0.188  -0.020
    1UNL     C3    4  -0.225   0.012   0.019
    1UNL     C4    5  -0.207  -0.133   0.063
    1UNL     N1    6  -0.069  -0.191   0.058
    1UNL     C5    7  -0.061  -0.306   0.165
    1UNL     C6    8  -0.027  -0.238  -0.083
    1UNL     C7    9   0.037  -0.122  -0.159
    1UNL     C8   10   0.100  -0.037  -0.046
    1UNL     C9   11   0.074   0.115  -0.075
    1UNL    C10   12  -0.031   0.184  -0.018
    1UNL    C11   13  -0.045   0.329  -0.023
    1UNL     O2   14   0.053   0.396  -0.050
    1UNL     O3   15  -0.170   0.377   0.010
    1UNL    C12   16  -0.118   0.110   0.084
    1UNL    C13   17  -0.019   0.035   0.180
    1UNL    C14   18   0.037  -0.086   0.096
    1UNL     N2   19   0.197   0.170  -0.119
    1UNL    C15   20   0.299   0.085  -0.097
    1UNL    C16   21   0.437   0.122  -0.084
    1UNL     O4   22   0.496   0.242  -0.105
    1UNL    C17   23   0.521   0.022  -0.044
    1UNL    C18   24   0.468  -0.103   0.004
    1UNL    C19   25   0.335  -0.132  -0.000
    1UNL    C20   26   0.250  -0.036  -0.045
    1UNL     H1   27  -0.467  -0.086  -0.105
    1UNL     H2   28  -0.471  -0.137   0.055
    1UNL     H3   29  -0.572   0.002   0.013
    1UNL     H4   30  -0.375   0.071   0.145
    1UNL     H5   31  -0.325   0.260   0.010
    1UNL     H6   32  -0.210   0.018  -0.087
    1UNL     H7   33  -0.275  -0.190  -0.005
    1UNL     H8   34  -0.248  -0.153   0.160
    1UNL     H9   35  -0.146  -0.371   0.140
    1UNL    H10   36   0.036  -0.343   0.142
    1UNL    H11   37  -0.069  -0.270   0.269
    1UNL    H12   38   0.041  -0.325  -0.075
    1UNL    H13   39  -0.111  -0.274  -0.130
    1UNL    H14   40   0.121  -0.144  -0.235
    1UNL    H15   41  -0.041  -0.067  -0.208
    1UNL    H16   42  -0.157   0.469  -0.006
    1UNL    H17   43  -0.171   0.191   0.136
    1UNL    H18   44  -0.067   0.021   0.280
    1UNL    H19   45   0.071   0.096   0.200
    1UNL    H20   46   0.121  -0.117   0.156
    1UNL    H21   47   0.220   0.268  -0.114
    1UNL    H22   48   0.439   0.322  -0.061
    1UNL    H23   49   0.623   0.054  -0.024
    1UNL    H24   50   0.545  -0.171   0.041
    1UNL    H25   51   0.301  -0.229   0.039
   0.00000   0.00000   0.00000   0.00000   0.00000   0.00000   0.00000   0.00000   0.00000
Generated with MDTraj, t= 24.0
 51
    1UNL     C1    1  -0.485  -0.009   0.001
    1UNL     C2    2  -0.371   0.071   0.048
    1UNL     O1    3  -0.387   0.196  -0.021
    1UNL     C3    4  -0.230   0.007   0.014
    1UNL     C4    5  -0.213  -0.142   0.058
    1UNL     N1    6  -0.062  -0.195   0.056
    1UNL     C5    7  -0.053  -0.309   0.158
    1UNL     C6    8  -0.035  -0.240  -0.085
    1UNL     C7    9   0.043  -0.132  -0.151
    1UNL     C8   10   0.110  -0.038  -0.042
    1UNL     C9   11   0.071   0.111  -0.064
    1UNL    C10   12  -0.045   0.172  -0.024
    1UNL    C11   13  -0.043   0.325  -0.038
    1UNL     O2   14   0.044   0.393  -0.093
    1UNL     O3   15  -0.150   0.377   0.023
    1UNL    C12   16  -0.130   0.100   0.087
    1UNL    C13   17  -0.028   0.021   0.171
    1UNL    C14   18   0.041  -0.086   0.092
    1UNL     N2   19   0.188   0.175  -0.093
    1UNL    C15   20   0.298   0.092  -0.071
    1UNL    C16   21   0.436   0.125  -0.071
    1UNL     O4   22   0.468   0.257  -0.109
    1UNL    C17   23   0.530   0.026  -0.034
    1UNL    C18   24   0.489  -0.106  -0.005
    1UNL    C19   25   0.355  -0.139  -0.009
    1UNL    C20   26   0.264  -0.039  -0.042
    1UNL     H1   27  -0.470  -0.038  -0.106
    1UNL     H2   28  -0.486  -0.105   0.052
    1UNL     H3   29  -0.575   0.046   0.018
    1UNL     H4   30  -0.377   0.085   0.153
    1UNL     H5   31  -0.316   0.251   0.005
    1UNL     H6   32  -0.232   0.015  -0.093
    1UNL     H7   33  -0.284  -0.212   0.004
    1UNL     H8   34  -0.259  -0.155   0.154
    1UNL     H9   35  -0.142  -0.374   0.141
    1UNL    H10   36   0.041  -0.357   0.140
    1UNL    H11   37  -0.058  -0.262   0.255
    1UNL    H12   38   0.024  -0.332  -0.079
    1UNL    H13   39  -0.130  -0.268  -0.125
    1UNL    H14   40   0.131  -0.161  -0.218
    1UNL    H15   41  -0.026  -0.062  -0.207
    1UNL    H16   42  -0.139   0.475   0.019
    1UNL    H17   43  -0.180   0.171   0.155
    1UNL    H18   44  -0.073  -0.027   0.262
    1UNL    H19   45   0.043   0.096   0.208
    1UNL    H20   46   0.111  -0.142   0.152
    1UNL    H21   47   0.189   0.276  -0.107
    1UNL    H22   48   0.384   0.319  -0.097
    1UNL    H23   49   0.635   0.050  -0.044
    1UNL    H24   50   0.560  -0.179   0.027
    1UNL    H25   51   0.321  -0.237  -0.003
   0.00000   0.00000   0.00000   0.00000   0.00000   0.00000   0.00000   0.00000   0.00000
Generated with MDTraj, t= 25.0
 51
    1UNL     C1    1  -0.471  -0.030  -0.022
    1UNL     C2    2  -0.374   0.070   0.043
    1UNL     O1    3  -0.383   0.201  -0.024
    1UNL     C3    4  -0.224   0.024   0.030
    1UNL     C4    5  -0.212  -0.129   0.059
    1UNL     N1    6  -0.068  -0.192   0.054
    1UNL     C5    7  -0.072  -0.325   0.132
    1UNL     C6    8  -0.038  -0.215  -0.093
    1UNL     C7    9   0.062  -0.115  -0.142
    1UNL     C8   10   0.116  -0.025  -0.016
    1UNL     C9   11   0.081   0.123  -0.052
    1UNL    C10   12  -0.035   0.178  -0.000
    1UNL    C11   13  -0.072   0.316  -0.040
    1UNL     O2   14  -0.013   0.374  -0.129
    1UNL     O3   15  -0.159   0.385   0.034
    1UNL    C12   16  -0.118   0.106   0.108
    1UNL    C13   17  -0.024   0.012   0.197
    1UNL    C14   18   0.042  -0.094   0.106
    1UNL     N2   19   0.198   0.180  -0.093
    1UNL    C15   20   0.307   0.087  -0.075
    1UNL    C16   21   0.443   0.114  -0.087
    1UNL     O4   22   0.489   0.241  -0.119
    1UNL    C17   23   0.533   0.016  -0.053
    1UNL    C18   24   0.488  -0.105  -0.006
    1UNL    C19   25   0.349  -0.136   0.001
    1UNL    C20   26   0.262  -0.034  -0.026
    1UNL     H1   27  -0.436  -0.058  -0.127
    1UNL     H2   28  -0.469  -0.127   0.026
    1UNL     H3   29  -0.567   0.012  -0.023
    1UNL     H4   30  -0.392   0.072   0.147
    1UNL     H5   31  -0.294   0.251   0.002
    1UNL     H6   32  -0.200   0.029  -0.075
    1UNL     H7   33  -0.280  -0.200   0.004
    1UNL     H8   34  -0.254  -0.146   0.155
    1UNL     H9   35  -0.132  -0.402   0.079
    1UNL    H10   36   0.032  -0.356   0.145
    1UNL    H11   37  -0.116  -0.303   0.227
    1UNL    H12   38  -0.009  -0.317  -0.103
    1UNL    H13   39  -0.134  -0.200  -0.145
    1UNL    H14   40   0.144  -0.171  -0.193
    1UNL    H15   41   0.029  -0.023  -0.211
    1UNL    H16   42  -0.171   0.475  -0.011
    1UNL    H17   43  -0.158   0.176   0.183
    1UNL    H18   44  -0.090  -0.035   0.275
    1UNL    H19   45   0.052   0.069   0.253
    1UNL    H20   46   0.110  -0.165   0.150
    1UNL    H21   47   0.199   0.267  -0.151
    1UNL    H22   48   0.409   0.295  -0.124
    1UNL    H23   49   0.636   0.038  -0.059
    1UNL    H24   50   0.558  -0.186   0.017
    1UNL    H25   51   0.304  -0.235   0.032
   0.00000   0.00000   0.00000   0.00000   0.00000   0.00000   0.00000   0.00000   0.00000
Generated with MDTraj, t= 26.0
 51
    1UNL     C1    1  -0.474  -0.019  -0.036
    1UNL     C2    2  -0.377   0.065   0.034
    1UNL     O1    3  -0.388   0.195  -0.029
    1UNL     C3    4  -0.232   0.003   0.031
    1UNL     C4    5  -0.218  -0.147   0.069
    1UNL     N1    6  -0.065  -0.189   0.058
    1UNL     C5    7  -0.049  -0.324   0.129
    1UNL     C6    8  -0.032  -0.205  -0.096
    1UNL     C7    9   0.058  -0.096  -0.142
    1UNL     C8   10   0.118  -0.021  -0.013
    1UNL     C9   11   0.083   0.122  -0.030
    1UNL    C10   12  -0.038   0.180  -0.001
    1UNL    C11   13  -0.064   0.320  -0.034
    1UNL     O2   14   0.001   0.381  -0.118
    1UNL     O3   15  -0.166   0.381   0.039
    1UNL    C12   16  -0.127   0.099   0.093
    1UNL    C13   17  -0.035   0.020   0.189
    1UNL    C14   18   0.043  -0.086   0.106
    1UNL     N2   19   0.201   0.181  -0.066
    1UNL    C15   20   0.312   0.093  -0.059
    1UNL    C16   21   0.449   0.112  -0.097
    1UNL     O4   22   0.487   0.223  -0.163
    1UNL    C17   23   0.536   0.003  -0.061
    1UNL    C18   24   0.478  -0.111  -0.004
    1UNL    C19   25   0.345  -0.127   0.017
    1UNL    C20   26   0.263  -0.028  -0.018
    1UNL     H1   27  -0.454  -0.030  -0.146
    1UNL     H2   28  -0.470  -0.122  -0.003
    1UNL     H3   29  -0.569   0.025  -0.020
    1UNL     H4   30  -0.404   0.080   0.138
    1UNL     H5   31  -0.315   0.248  -0.008
    1UNL     H6   32  -0.211  -0.001  -0.075
    1UNL     H7   33  -0.278  -0.216   0.004
    1UNL     H8   34  -0.252  -0.173   0.168
    1UNL     H9   35  -0.114  -0.398   0.082
    1UNL    H10   36   0.055  -0.349   0.111
    1UNL    H11   37  -0.075  -0.323   0.234
    1UNL    H12   38   0.010  -0.300  -0.113
    1UNL    H13   39  -0.131  -0.194  -0.147
    1UNL    H14   40   0.147  -0.135  -0.198
    1UNL    H15   41   0.002  -0.016  -0.210
    1UNL    H16   42  -0.167   0.477   0.007
    1UNL    H17   43  -0.180   0.175   0.154
    1UNL    H18   44  -0.100  -0.021   0.271
    1UNL    H19   45   0.036   0.091   0.234
    1UNL    H20   46   0.116  -0.130   0.172
    1UNL    H21   47   0.205   0.283  -0.090
    1UNL    H22   48   0.421   0.286  -0.165
    1UNL    H23   49   0.643   0.020  -0.084
    1UNL    H24   50   0.539  -0.198   0.010
    1UNL    H25   51   0.311  -0.216   0.057
   0.00000   0.00000   0.00000   0.00000   0.00000   0.00000   0.00000   0.00000   0.00000
Generated with MDTraj, t= 27.0
 51
    1UNL     C1    1  -0.463  -0.043  -0.036
    1UNL     C2    2  -0.376   0.062   0.028
    1UNL     O1    3  -0.400   0.189  -0.035
    1UNL     C3    4  -0.221   0.016   0.016
    1UNL     C4    5  -0.213  -0.135   0.047
    1UNL     N1    6  -0.070  -0.195   0.058
    1UNL     C5    7  -0.075  -0.305   0.162
    1UNL     C6    8  -0.013  -0.243  -0.079
    1UNL     C7    9   0.055  -0.121  -0.132
    1UNL     C8   10   0.115  -0.027  -0.025
    1UNL     C9   11   0.079   0.120  -0.045
    1UNL    C10   12  -0.033   0.185  -0.002
    1UNL    C11   13  -0.046   0.328  -0.008
    1UNL     O2   14   0.047   0.399  -0.042
    1UNL     O3   15  -0.172   0.379   0.014
    1UNL    C12   16  -0.118   0.111   0.095
    1UNL    C13   17  -0.030   0.023   0.185
    1UNL    C14   18   0.036  -0.089   0.103
    1UNL     N2   19   0.189   0.180  -0.101
    1UNL    C15   20   0.299   0.092  -0.076
    1UNL    C16   21   0.431   0.106  -0.111
    1UNL     O4   22   0.472   0.237  -0.152
    1UNL    C17   23   0.523   0.010  -0.068
    1UNL    C18   24   0.482  -0.107  -0.012
    1UNL    C19   25   0.348  -0.126   0.014
    1UNL    C20   26   0.260  -0.026  -0.022
    1UNL     H1   27  -0.430  -0.063  -0.139
    1UNL     H2   28  -0.449  -0.140   0.008
    1UNL     H3   29  -0.567  -0.006  -0.043
    1UNL     H4   30  -0.408   0.091   0.133
    1UNL     H5   31  -0.326   0.261  -0.009
    1UNL     H6   32  -0.198   0.027  -0.088
    1UNL     H7   33  -0.252  -0.180  -0.047
    1UNL     H8   34  -0.275  -0.165   0.133
    1UNL     H9   35  -0.162  -0.364   0.145
    1UNL    H10   36   0.010  -0.376   0.167
    1UNL    H11   37  -0.096  -0.264   0.261
    1UNL    H12   38   0.061  -0.315  -0.063
    1UNL    H13   39  -0.098  -0.278  -0.144
    1UNL    H14   40   0.142  -0.148  -0.203
    1UNL    H15   41  -0.024  -0.060  -0.189
    1UNL    H16   42  -0.153   0.474   0.021
    1UNL    H17   43  -0.169   0.195   0.147
    1UNL    H18   44  -0.101  -0.029   0.253
    1UNL    H19   45   0.041   0.089   0.238
    1UNL    H20   46   0.103  -0.134   0.174
    1UNL    H21   47   0.216   0.280  -0.099
    1UNL    H22   48   0.414   0.305  -0.141
    1UNL    H23   49   0.627   0.024  -0.070
    1UNL    H24   50   0.551  -0.186   0.013
    1UNL    H25   51   0.314  -0.223   0.053
   0.00000   0.00000   0.00000   0.00000   0.00000   0.00000   0.00000   0.00000   0.00000
Generated with MDTraj, t= 28.0
 51
    1UNL     C1    1  -0.478  -0.027  -0.046
    1UNL     C2    2  -0.373   0.064   0.016
    1UNL     O1    3  -0.376   0.192  -0.053
    1UNL     C3    4  -0.230   0.007   0.010
    1UNL     C4    5  -0.214  -0.139   0.064
    1UNL     N1    6  -0.069  -0.201   0.076
    1UNL     C5    7  -0.052  -0.304   0.181
    1UNL     C6    8  -0.016  -0.246  -0.061
    1UNL     C7    9   0.042  -0.124  -0.140
    1UNL     C8   10   0.101  -0.028  -0.029
    1UNL     C9   11   0.066   0.112  -0.066
    1UNL    C10   12  -0.039   0.178  -0.011
    1UNL    C11   13  -0.043   0.321  -0.004
    1UNL     O2   14   0.059   0.385  -0.000
    1UNL     O3   15  -0.165   0.387   0.010
    1UNL    C12   16  -0.128   0.104   0.086
    1UNL    C13   17  -0.035   0.030   0.184
    1UNL    C14   18   0.034  -0.081   0.108
    1UNL     N2   19   0.184   0.176  -0.108
    1UNL    C15   20   0.301   0.087  -0.078
    1UNL    C16   21   0.439   0.126  -0.096
    1UNL     O4   22   0.475   0.249  -0.146
    1UNL    C17   23   0.527   0.025  -0.064
    1UNL    C18   24   0.480  -0.102  -0.020
    1UNL    C19   25   0.347  -0.131  -0.012
    1UNL    C20   26   0.252  -0.040  -0.040
    1UNL     H1   27  -0.466  -0.049  -0.149
    1UNL     H2   28  -0.477  -0.124   0.001
    1UNL     H3   29  -0.570   0.038  -0.038
    1UNL     H4   30  -0.402   0.089   0.125
    1UNL     H5   31  -0.299   0.240  -0.033
    1UNL     H6   32  -0.193  -0.003  -0.089
    1UNL     H7   33  -0.281  -0.210   0.016
    1UNL     H8   34  -0.247  -0.126   0.171
    1UNL     H9   35  -0.107  -0.393   0.164
    1UNL    H10   36   0.052  -0.341   0.185
    1UNL    H11   37  -0.082  -0.276   0.283
    1UNL    H12   38   0.052  -0.323  -0.042
    1UNL    H13   39  -0.097  -0.281  -0.131
    1UNL    H14   40   0.130  -0.174  -0.203
    1UNL    H15   41  -0.015  -0.062  -0.212
    1UNL    H16   42  -0.151   0.474   0.042
    1UNL    H17   43  -0.186   0.178   0.143
    1UNL    H18   44  -0.106  -0.006   0.262
    1UNL    H19   45   0.046   0.094   0.223
    1UNL    H20   46   0.113  -0.121   0.170
    1UNL    H21   47   0.197   0.274  -0.099
    1UNL    H22   48   0.389   0.294  -0.163
    1UNL    H23   49   0.633   0.053  -0.049
    1UNL    H24   50   0.546  -0.189  -0.018
    1UNL    H25   51   0.310  -0.229   0.018
   0.00000   0.00000   0.00000   0.00000   0.00000   0.00000   0.00000   0.00000   0.00000
Generated with MDTraj, t= 29.0
 51
    1UNL     C1    1  -0.446  -0.052  -0.048
    1UNL     C2    2  -0.364   0.060   0.014
    1UNL     O1    3  -0.366   0.178  -0.071
    1UNL     C3    4  -0.221   0.003   0.020
    1UNL     C4    5  -0.205  -0.134   0.091
    1UNL     N1    6  -0.066  -0.186   0.070
    1UNL     C5    7  -0.062  -0.306   0.151
    1UNL     C6    8  -0.056  -0.226  -0.076
    1UNL     C7    9   0.036  -0.121  -0.140
    1UNL     C8   10   0.101  -0.026  -0.029
    1UNL     C9   11   0.068   0.120  -0.048
    1UNL    C10   12  -0.031   0.190   0.011
    1UNL    C11   13  -0.049   0.334  -0.009
    1UNL     O2   14   0.037   0.405  -0.056
    1UNL     O3   15  -0.167   0.387   0.034
    1UNL    C12   16  -0.125   0.104   0.099
    1UNL    C13   17  -0.027   0.026   0.196
    1UNL    C14   18   0.044  -0.080   0.108
    1UNL     N2   19   0.186   0.176  -0.103
    1UNL    C15   20   0.294   0.088  -0.076
    1UNL    C16   21   0.434   0.115  -0.093
    1UNL     O4   22   0.477   0.244  -0.132
    1UNL    C17   23   0.524   0.012  -0.063
    1UNL    C18   24   0.478  -0.111  -0.027
    1UNL    C19   25   0.344  -0.135  -0.001
    1UNL    C20   26   0.254  -0.037  -0.037
    1UNL     H1   27  -0.406  -0.098  -0.132
    1UNL     H2   28  -0.454  -0.138   0.019
    1UNL     H3   29  -0.541  -0.004  -0.084
    1UNL     H4   30  -0.402   0.085   0.120
    1UNL     H5   31  -0.293   0.246  -0.045
    1UNL     H6   32  -0.189  -0.019  -0.078
    1UNL     H7   33  -0.272  -0.211   0.057
    1UNL     H8   34  -0.229  -0.129   0.203
    1UNL     H9   35  -0.133  -0.382   0.123
    1UNL    H10   36   0.032  -0.361   0.147
    1UNL    H11   37  -0.083  -0.290   0.258
    1UNL    H12   38  -0.013  -0.323  -0.082
    1UNL    H13   39  -0.157  -0.237  -0.122
    1UNL    H14   40   0.120  -0.183  -0.201
    1UNL    H15   41  -0.003  -0.056  -0.219
    1UNL    H16   42  -0.165   0.481   0.029
    1UNL    H17   43  -0.190   0.172   0.156
    1UNL    H18   44  -0.072  -0.025   0.282
    1UNL    H19   45   0.046   0.102   0.229
    1UNL    H20   46   0.119  -0.137   0.159
    1UNL    H21   47   0.197   0.275  -0.108
    1UNL    H22   48   0.394   0.299  -0.166
    1UNL    H23   49   0.629   0.030  -0.069
    1UNL    H24   50   0.559  -0.182  -0.025
    1UNL    H25   51   0.311  -0.234   0.009
   0.00000   0.00000   0.00000   0.00000   0.00000   0.00000   0.00000   0.00000   0.00000
Generated with MDTraj, t= 30.0
 51
    1UNL     C1    1  -0.473  -0.020  -0.051
    1UNL     C2    2  -0.356   0.067   0.011
    1UNL     O1    3  -0.354   0.192  -0.050
    1UNL     C3    4  -0.209   0.012   0.016
    1UNL     C4    5  -0.208  -0.132   0.073
    1UNL     N1    6  -0.067  -0.195   0.064
    1UNL     C5    7  -0.042  -0.314   0.160
    1UNL     C6    8  -0.032  -0.218  -0.083
    1UNL     C7    9   0.041  -0.103  -0.141
    1UNL     C8   10   0.108  -0.032  -0.022
    1UNL     C9   11   0.077   0.122  -0.035
    1UNL    C10   12  -0.037   0.182   0.009
    1UNL    C11   13  -0.073   0.325  -0.019
    1UNL     O2   14  -0.011   0.376  -0.112
    1UNL     O3   15  -0.175   0.384   0.051
    1UNL    C12   16  -0.122   0.104   0.108
    1UNL    C13   17  -0.036   0.018   0.197
    1UNL    C14   18   0.034  -0.086   0.107
    1UNL     N2   19   0.191   0.184  -0.075
    1UNL    C15   20   0.301   0.095  -0.069
    1UNL    C16   21   0.436   0.111  -0.099
    1UNL     O4   22   0.491   0.234  -0.133
    1UNL    C17   23   0.525   0.002  -0.074
    1UNL    C18   24   0.484  -0.118  -0.020
    1UNL    C19   25   0.350  -0.132   0.001
    1UNL    C20   26   0.261  -0.031  -0.033
    1UNL     H1   27  -0.457  -0.056  -0.149
    1UNL     H2   28  -0.474  -0.116  -0.001
    1UNL     H3   29  -0.571   0.031  -0.061
    1UNL     H4   30  -0.387   0.087   0.120
    1UNL     H5   31  -0.311   0.260  -0.003
    1UNL     H6   32  -0.176   0.014  -0.084
    1UNL     H7   33  -0.283  -0.196   0.026
    1UNL     H8   34  -0.250  -0.138   0.179
    1UNL     H9   35  -0.105  -0.404   0.150
    1UNL    H10   36   0.058  -0.356   0.159
    1UNL    H11   37  -0.058  -0.287   0.265
    1UNL    H12   38   0.034  -0.303  -0.082
    1UNL    H13   39  -0.123  -0.252  -0.133
    1UNL    H14   40   0.132  -0.119  -0.209
    1UNL    H15   41  -0.033  -0.049  -0.204
    1UNL    H16   42  -0.184   0.474   0.011
    1UNL    H17   43  -0.185   0.177   0.162
    1UNL    H18   44  -0.091  -0.037   0.274
    1UNL    H19   45   0.038   0.083   0.248
    1UNL    H20   46   0.113  -0.130   0.165
    1UNL    H21   47   0.191   0.285  -0.091
    1UNL    H22   48   0.417   0.303  -0.166
    1UNL    H23   49   0.632   0.006  -0.092
    1UNL    H24   50   0.535  -0.213  -0.008
    1UNL    H25   51   0.318  -0.237   0.028
   0.00000   0.00000   0.00000   0.00000   0.00000   0.00000   0.00000   0.00000   0.00000
Generated with MDTraj, t= 31.0
 51
    1UNL     C1    1  -0.472  -0.030  -0.039
    1UNL     C2    2  -0.370   0.056   0.032
    1UNL     O1    3  -0.402   0.193  -0.010
    1UNL     C3    4  -0.230   0.011   0.008
    1UNL     C4    5  -0.209  -0.138   0.044
    1UNL     N1    6  -0.064  -0.187   0.058
    1UNL     C5    7  -0.083  -0.305   0.148
    1UNL     C6    8  -0.013  -0.242  -0.078
    1UNL     C7    9   0.061  -0.121  -0.140
    1UNL     C8   10   0.110  -0.034  -0.016
    1UNL     C9   11   0.082   0.120  -0.036
    1UNL    C10   12  -0.036   0.183  -0.006
    1UNL    C11   13  -0.050   0.325  -0.028
    1UNL     O2   14   0.016   0.378  -0.114
    1UNL     O3   15  -0.147   0.383   0.047
    1UNL    C12   16  -0.131   0.106   0.085
    1UNL    C13   17  -0.041   0.032   0.190
    1UNL    C14   18   0.031  -0.084   0.112
    1UNL     N2   19   0.200   0.177  -0.079
    1UNL    C15   20   0.307   0.097  -0.057
    1UNL    C16   21   0.442   0.118  -0.096
    1UNL     O4   22   0.487   0.238  -0.140
    1UNL    C17   23   0.528   0.014  -0.076
    1UNL    C18   24   0.484  -0.103  -0.026
    1UNL    C19   25   0.351  -0.131   0.004
    1UNL    C20   26   0.261  -0.030  -0.009
    1UNL     H1   27  -0.451  -0.049  -0.146
    1UNL     H2   28  -0.475  -0.129   0.005
    1UNL     H3   29  -0.566   0.023  -0.039
    1UNL     H4   30  -0.390   0.051   0.142
    1UNL     H5   31  -0.333   0.260   0.029
    1UNL     H6   32  -0.214   0.022  -0.096
    1UNL     H7   33  -0.279  -0.206  -0.008
    1UNL     H8   34  -0.252  -0.152   0.149
    1UNL     H9   35  -0.146  -0.386   0.102
    1UNL    H10   36   0.014  -0.350   0.166
    1UNL    H11   37  -0.126  -0.286   0.246
    1UNL    H12   38   0.049  -0.333  -0.065
    1UNL    H13   39  -0.101  -0.264  -0.132
    1UNL    H14   40   0.146  -0.157  -0.198
    1UNL    H15   41  -0.005  -0.060  -0.212
    1UNL    H16   42  -0.171   0.476   0.012
    1UNL    H17   43  -0.195   0.175   0.144
    1UNL    H18   44  -0.103  -0.005   0.270
    1UNL    H19   45   0.041   0.089   0.239
    1UNL    H20   46   0.104  -0.135   0.174
    1UNL    H21   47   0.203   0.279  -0.065
    1UNL    H22   48   0.404   0.287  -0.179
    1UNL    H23   49   0.633   0.037  -0.096
    1UNL    H24   50   0.559  -0.179  -0.047
    1UNL    H25   51   0.327  -0.224   0.042
   0.00000   0.00000   0.00000   0.00000   0.00000   0.00000   0.00000   0.00000   0.00000
Generated with MDTraj, t= 32.0
 51
    1UNL     C1    1  -0.486  -0.019  -0.026
    1UNL     C2    2  -0.376   0.063   0.040
    1UNL     O1    3  -0.399   0.205   0.013
    1UNL     C3    4  -0.232   0.019   0.014
    1UNL     C4    5  -0.210  -0.126   0.052
    1UNL     N1    6  -0.065  -0.190   0.054
    1UNL     C5    7  -0.060  -0.316   0.143
    1UNL     C6    8  -0.013  -0.241  -0.081
    1UNL     C7    9   0.060  -0.121  -0.146
    1UNL     C8   10   0.107  -0.038  -0.030
    1UNL     C9   11   0.075   0.114  -0.056
    1UNL    C10   12  -0.036   0.177  -0.005
    1UNL    C11   13  -0.047   0.322  -0.028
    1UNL     O2   14   0.048   0.397  -0.046
    1UNL     O3   15  -0.175   0.364  -0.017
    1UNL    C12   16  -0.129   0.105   0.089
    1UNL    C13   17  -0.030   0.024   0.185
    1UNL    C14   18   0.041  -0.087   0.101
    1UNL     N2   19   0.189   0.170  -0.110
    1UNL    C15   20   0.304   0.083  -0.082
    1UNL    C16   21   0.440   0.120  -0.093
    1UNL     O4   22   0.480   0.245  -0.142
    1UNL    C17   23   0.527   0.027  -0.042
    1UNL    C18   24   0.483  -0.101  -0.003
    1UNL    C19   25   0.351  -0.133   0.018
    1UNL    C20   26   0.258  -0.043  -0.029
    1UNL     H1   27  -0.480  -0.015  -0.139
    1UNL     H2   28  -0.475  -0.124  -0.000
    1UNL     H3   29  -0.580   0.023  -0.000
    1UNL     H4   30  -0.389   0.052   0.148
    1UNL     H5   31  -0.315   0.250   0.021
    1UNL     H6   32  -0.208   0.029  -0.089
    1UNL     H7   33  -0.278  -0.191  -0.009
    1UNL     H8   34  -0.260  -0.144   0.152
    1UNL     H9   35  -0.130  -0.398   0.111
    1UNL    H10   36   0.043  -0.354   0.144
    1UNL    H11   37  -0.092  -0.287   0.241
    1UNL    H12   38   0.063  -0.321  -0.059
    1UNL    H13   39  -0.092  -0.272  -0.142
    1UNL    H14   40   0.126  -0.166  -0.215
    1UNL    H15   41  -0.003  -0.045  -0.207
    1UNL    H16   42  -0.181   0.456  -0.059
    1UNL    H17   43  -0.177   0.177   0.158
    1UNL    H18   44  -0.064  -0.026   0.274
    1UNL    H19   45   0.042   0.099   0.225
    1UNL    H20   46   0.112  -0.150   0.152
    1UNL    H21   47   0.192   0.276  -0.112
    1UNL    H22   48   0.407   0.289  -0.185
    1UNL    H23   49   0.630   0.048  -0.048
    1UNL    H24   50   0.555  -0.177   0.022
    1UNL    H25   51   0.316  -0.222   0.077
   0.00000   0.00000   0.00000   0.00000   0.00000   0.00000   0.00000   0.00000   0.00000
Generated with MDTraj, t= 33.0
 51
    1UNL     C1    1  -0.485  -0.037  -0.007
    1UNL     C2    2  -0.373   0.054   0.047
    1UNL     O1    3  -0.394   0.188   0.016
    1UNL     C3    4  -0.223   0.009   0.020
    1UNL     C4    5  -0.211  -0.133   0.073
    1UNL     N1    6  -0.072  -0.191   0.051
    1UNL     C5    7  -0.051  -0.313   0.136
    1UNL     C6    8  -0.045  -0.233  -0.101
    1UNL     C7    9   0.044  -0.116  -0.153
    1UNL     C8   10   0.106  -0.037  -0.040
    1UNL     C9   11   0.076   0.116  -0.063
    1UNL    C10   12  -0.039   0.178  -0.013
    1UNL    C11   13  -0.046   0.324  -0.033
    1UNL     O2   14   0.055   0.394  -0.034
    1UNL     O3   15  -0.165   0.377  -0.047
    1UNL    C12   16  -0.123   0.107   0.092
    1UNL    C13   17  -0.023   0.026   0.178
    1UNL    C14   18   0.042  -0.084   0.093
    1UNL     N2   19   0.193   0.183  -0.107
    1UNL    C15   20   0.300   0.092  -0.083
    1UNL    C16   21   0.436   0.118  -0.086
    1UNL     O4   22   0.485   0.236  -0.136
    1UNL    C17   23   0.522   0.023  -0.032
    1UNL    C18   24   0.478  -0.094   0.022
    1UNL    C19   25   0.346  -0.131   0.014
    1UNL    C20   26   0.258  -0.033  -0.038
    1UNL     H1   27  -0.470  -0.048  -0.117
    1UNL     H2   28  -0.474  -0.140   0.027
    1UNL     H3   29  -0.583  -0.003   0.010
    1UNL     H4   30  -0.384   0.061   0.153
    1UNL     H5   31  -0.303   0.240   0.000
    1UNL     H6   32  -0.207   0.023  -0.084
    1UNL     H7   33  -0.287  -0.202   0.027
    1UNL     H8   34  -0.241  -0.133   0.181
    1UNL     H9   35  -0.147  -0.365   0.128
    1UNL    H10   36   0.037  -0.370   0.100
    1UNL    H11   37  -0.044  -0.275   0.239
    1UNL    H12   38   0.018  -0.324  -0.106
    1UNL    H13   39  -0.130  -0.247  -0.160
    1UNL    H14   40   0.117  -0.140  -0.223
    1UNL    H15   41  -0.033  -0.058  -0.219
    1UNL    H16   42  -0.137   0.469  -0.057
    1UNL    H17   43  -0.178   0.179   0.155
    1UNL    H18   44  -0.060   0.003   0.276
    1UNL    H19   45   0.069   0.085   0.198
    1UNL    H20   46   0.120  -0.130   0.154
    1UNL    H21   47   0.216   0.278  -0.069
    1UNL    H22   48   0.424   0.282  -0.186
    1UNL    H23   49   0.628   0.045  -0.007
    1UNL    H24   50   0.548  -0.161   0.069
    1UNL    H25   51   0.307  -0.225   0.043
   0.00000   0.00000   0.00000   0.00000   0.00000   0.00000   0.00000   0.00000   0.00000
Generated with MDTraj, t= 34.0
 51
    1UNL     C1    1  -0.477  -0.030   0.016
    1UNL     C2    2  -0.367   0.063   0.048
    1UNL     O1    3  -0.397   0.183  -0.019
    1UNL     C3    4  -0.231   0.009   0.017
    1UNL     C4    5  -0.209  -0.134   0.057
    1UNL     N1    6  -0.067  -0.183   0.056
    1UNL     C5    7  -0.065  -0.311   0.139
    1UNL     C6    8  -0.033  -0.224  -0.090
    1UNL     C7    9   0.054  -0.119  -0.151
    1UNL     C8   10   0.101  -0.032  -0.038
    1UNL     C9   11   0.076   0.117  -0.051
    1UNL    C10   12  -0.036   0.187  -0.011
    1UNL    C11   13  -0.056   0.327  -0.033
    1UNL     O2   14   0.036   0.390  -0.087
    1UNL     O3   15  -0.183   0.372  -0.001
    1UNL    C12   16  -0.129   0.108   0.085
    1UNL    C13   17  -0.027   0.031   0.175
    1UNL    C14   18   0.042  -0.086   0.096
    1UNL     N2   19   0.198   0.168  -0.090
    1UNL    C15   20   0.309   0.086  -0.071
    1UNL    C16   21   0.448   0.118  -0.078
    1UNL     O4   22   0.491   0.243  -0.111
    1UNL    C17   23   0.536   0.011  -0.057
    1UNL    C18   24   0.481  -0.109  -0.012
    1UNL    C19   25   0.351  -0.129   0.011
    1UNL    C20   26   0.261  -0.035  -0.030
    1UNL     H1   27  -0.476  -0.065  -0.088
    1UNL     H2   28  -0.495  -0.117   0.080
    1UNL     H3   29  -0.561   0.037   0.029
    1UNL     H4   30  -0.369   0.082   0.152
    1UNL     H5   31  -0.334   0.250  -0.002
    1UNL     H6   32  -0.215   0.017  -0.088
    1UNL     H7   33  -0.269  -0.199  -0.018
    1UNL     H8   34  -0.249  -0.158   0.157
    1UNL     H9   35  -0.143  -0.379   0.110
    1UNL    H10   36   0.042  -0.342   0.137
    1UNL    H11   37  -0.088  -0.264   0.237
    1UNL    H12   38   0.020  -0.321  -0.097
    1UNL    H13   39  -0.119  -0.237  -0.148
    1UNL    H14   40   0.128  -0.159  -0.214
    1UNL    H15   41  -0.003  -0.062  -0.234
    1UNL    H16   42  -0.170   0.468  -0.006
    1UNL    H17   43  -0.179   0.189   0.142
    1UNL    H18   44  -0.072  -0.015   0.260
    1UNL    H19   45   0.046   0.102   0.214
    1UNL    H20   46   0.118  -0.128   0.162
    1UNL    H21   47   0.205   0.268  -0.097
    1UNL    H22   48   0.415   0.298  -0.111
    1UNL    H23   49   0.636   0.038  -0.061
    1UNL    H24   50   0.553  -0.185   0.008
    1UNL    H25   51   0.317  -0.229   0.032
   0.00000   0.00000   0.00000   0.00000   0.00000   0.00000   0.00000   0.00000   0.00000
Generated with MDTraj, t= 35.0
 51
    1UNL     C1    1  -0.492  -0.032   0.003
    1UNL     C2    2  -0.373   0.073   0.029
    1UNL     O1    3  -0.381   0.195  -0.046
    1UNL     C3    4  -0.223   0.017   0.017
    1UNL     C4    5  -0.206  -0.134   0.048
    1UNL     N1    6  -0.063  -0.188   0.061
    1UNL     C5    7  -0.056  -0.312   0.151
    1UNL     C6    8  -0.023  -0.233  -0.083
    1UNL     C7    9   0.049  -0.108  -0.138
    1UNL     C8   10   0.111  -0.032  -0.017
    1UNL     C9   11   0.083   0.113  -0.048
    1UNL    C10   12  -0.030   0.178  -0.004
    1UNL    C11   13  -0.069   0.316  -0.032
    1UNL     O2   14  -0.012   0.367  -0.125
    1UNL     O3   15  -0.159   0.390   0.039
    1UNL    C12   16  -0.122   0.107   0.093
    1UNL    C13   17  -0.038   0.029   0.188
    1UNL    C14   18   0.036  -0.085   0.110
    1UNL     N2   19   0.199   0.184  -0.073
    1UNL    C15   20   0.311   0.093  -0.062
    1UNL    C16   21   0.447   0.116  -0.077
    1UNL     O4   22   0.494   0.242  -0.108
    1UNL    C17   23   0.530   0.012  -0.061
    1UNL    C18   24   0.490  -0.115  -0.039
    1UNL    C19   25   0.350  -0.142  -0.020
    1UNL    C20   26   0.261  -0.036  -0.031
    1UNL     H1   27  -0.480  -0.070  -0.095
    1UNL     H2   28  -0.494  -0.118   0.069
    1UNL     H3   29  -0.592   0.016   0.014
    1UNL     H4   30  -0.393   0.099   0.131
    1UNL     H5   31  -0.308   0.261  -0.014
    1UNL     H6   32  -0.202   0.014  -0.087
    1UNL     H7   33  -0.261  -0.204  -0.027
    1UNL     H8   34  -0.262  -0.142   0.142
    1UNL     H9   35  -0.097  -0.392   0.094
    1UNL    H10   36   0.049  -0.324   0.186
    1UNL    H11   37  -0.130  -0.285   0.230
    1UNL    H12   38   0.042  -0.320  -0.079
    1UNL    H13   39  -0.100  -0.262  -0.152
    1UNL    H14   40   0.114  -0.136  -0.218
    1UNL    H15   41  -0.011  -0.039  -0.200
    1UNL    H16   42  -0.160   0.487   0.014
    1UNL    H17   43  -0.182   0.178   0.153
    1UNL    H18   44  -0.100  -0.015   0.266
    1UNL    H19   45   0.035   0.091   0.239
    1UNL    H20   46   0.098  -0.137   0.183
    1UNL    H21   47   0.190   0.281  -0.094
    1UNL    H22   48   0.409   0.292  -0.108
    1UNL    H23   49   0.639   0.028  -0.078
    1UNL    H24   50   0.563  -0.194  -0.026
    1UNL    H25   51   0.316  -0.246  -0.016
   0.00000   0.00000   0.00000   0.00000   0.00000   0.00000   0.00000   0.00000   0.00000
Generated with MDTraj, t= 36.0
 51
    1UNL     C1    1  -0.447  -0.029  -0.068
    1UNL     C2    2  -0.365   0.061   0.027
    1UNL     O1    3  -0.383   0.191  -0.023
    1UNL     C3    4  -0.217   0.009   0.024
    1UNL     C4    5  -0.206  -0.138   0.079
    1UNL     N1    6  -0.070  -0.184   0.073
    1UNL     C5    7  -0.056  -0.323   0.145
    1UNL     C6    8  -0.046  -0.221  -0.071
    1UNL     C7    9   0.048  -0.116  -0.138
    1UNL     C8   10   0.103  -0.031  -0.024
    1UNL     C9   11   0.067   0.118  -0.045
    1UNL    C10   12  -0.038   0.186   0.007
    1UNL    C11   13  -0.062   0.320  -0.035
    1UNL     O2   14   0.020   0.382  -0.100
    1UNL     O3   15  -0.168   0.387   0.024
    1UNL    C12   16  -0.125   0.105   0.104
    1UNL    C13   17  -0.020   0.030   0.192
    1UNL    C14   18   0.044  -0.086   0.105
    1UNL     N2   19   0.182   0.179  -0.089
    1UNL    C15   20   0.300   0.098  -0.062
    1UNL    C16   21   0.438   0.121  -0.087
    1UNL     O4   22   0.489   0.244  -0.124
    1UNL    C17   23   0.524   0.008  -0.071
    1UNL    C18   24   0.480  -0.116  -0.025
    1UNL    C19   25   0.345  -0.140  -0.015
    1UNL    C20   26   0.260  -0.033  -0.023
    1UNL     H1   27  -0.399  -0.024  -0.161
    1UNL     H2   28  -0.446  -0.131  -0.036
    1UNL     H3   29  -0.556   0.002  -0.066
    1UNL     H4   30  -0.413   0.062   0.127
    1UNL     H5   31  -0.307   0.244  -0.012
    1UNL     H6   32  -0.183   0.003  -0.077
    1UNL     H7   33  -0.282  -0.207   0.025
    1UNL     H8   34  -0.232  -0.131   0.186
    1UNL     H9   35  -0.154  -0.367   0.161
    1UNL    H10   36   0.017  -0.389   0.096
    1UNL    H11   37  -0.020  -0.293   0.245
    1UNL    H12   38   0.003  -0.314  -0.086
    1UNL    H13   39  -0.141  -0.227  -0.123
    1UNL    H14   40   0.127  -0.152  -0.202
    1UNL    H15   41  -0.007  -0.059  -0.205
    1UNL    H16   42  -0.161   0.484   0.005
    1UNL    H17   43  -0.183   0.173   0.169
    1UNL    H18   44  -0.063  -0.009   0.284
    1UNL    H19   45   0.063   0.092   0.221
    1UNL    H20   46   0.121  -0.145   0.156
    1UNL    H21   47   0.179   0.279  -0.080
    1UNL    H22   48   0.419   0.321  -0.107
    1UNL    H23   49   0.628   0.016  -0.085
    1UNL    H24   50   0.540  -0.205  -0.023
    1UNL    H25   51   0.304  -0.232   0.018
   0.00000   0.00000   0.00000   0.00000   0.00000   0.00000   0.00000   0.00000   0.00000
Generated with MDTraj, t= 37.0
 51
    1UNL     C1    1  -0.450  -0.035  -0.091
    1UNL     C2    2  -0.373   0.054   0.008
    1UNL     O1    3  -0.389   0.196  -0.026
    1UNL     C3    4  -0.225   0.006   0.019
    1UNL     C4    5  -0.209  -0.137   0.079
    1UNL     N1    6  -0.065  -0.184   0.077
    1UNL     C5    7  -0.052  -0.312   0.167
    1UNL     C6    8  -0.039  -0.234  -0.070
    1UNL     C7    9   0.032  -0.113  -0.138
    1UNL     C8   10   0.096  -0.028  -0.029
    1UNL     C9   11   0.070   0.117  -0.057
    1UNL    C10   12  -0.042   0.178  -0.013
    1UNL    C11   13  -0.050   0.326  -0.011
    1UNL     O2   14   0.049   0.395  -0.035
    1UNL     O3   15  -0.167   0.373   0.039
    1UNL    C12   16  -0.127   0.102   0.089
    1UNL    C13   17  -0.018   0.039   0.189
    1UNL    C14   18   0.042  -0.077   0.111
    1UNL     N2   19   0.192   0.168  -0.105
    1UNL    C15   20   0.296   0.086  -0.082
    1UNL    C16   21   0.433   0.111  -0.104
    1UNL     O4   22   0.473   0.233  -0.158
    1UNL    C17   23   0.526   0.018  -0.062
    1UNL    C18   24   0.482  -0.100  -0.011
    1UNL    C19   25   0.351  -0.130   0.006
    1UNL    C20   26   0.252  -0.035  -0.030
    1UNL     H1   27  -0.410  -0.030  -0.188
    1UNL     H2   28  -0.457  -0.138  -0.065
    1UNL     H3   29  -0.558  -0.002  -0.079
    1UNL     H4   30  -0.422   0.049   0.110
    1UNL     H5   31  -0.312   0.264  -0.003
    1UNL     H6   32  -0.194   0.008  -0.083
    1UNL     H7   33  -0.280  -0.213   0.035
    1UNL     H8   34  -0.241  -0.120   0.184
    1UNL     H9   35  -0.113  -0.397   0.134
    1UNL    H10   36   0.053  -0.343   0.175
    1UNL    H11   37  -0.085  -0.288   0.267
    1UNL    H12   38   0.021  -0.320  -0.071
    1UNL    H13   39  -0.130  -0.253  -0.128
    1UNL    H14   40   0.115  -0.146  -0.197
    1UNL    H15   41  -0.031  -0.070  -0.205
    1UNL    H16   42  -0.165   0.470   0.045
    1UNL    H17   43  -0.178   0.185   0.139
    1UNL    H18   44  -0.061   0.001   0.282
    1UNL    H19   45   0.059   0.110   0.210
    1UNL    H20   46   0.122  -0.124   0.170
    1UNL    H21   47   0.209   0.270  -0.092
    1UNL    H22   48   0.407   0.312  -0.132
    1UNL    H23   49   0.630   0.039  -0.089
    1UNL    H24   50   0.564  -0.163   0.022
    1UNL    H25   51   0.332  -0.216   0.072
   0.00000   0.00000   0.00000   0.00000   0.00000   0.00000   0.00000   0.00000   0.00000
Generated with MDTraj, t= 38.0
 51
    1UNL     C1    1  -0.462  -0.029  -0.053
    1UNL     C2    2  -0.365   0.069   0.010
    1UNL     O1    3  -0.364   0.186  -0.068
    1UNL     C3    4  -0.216   0.017   0.005
    1UNL     C4    5  -0.208  -0.138   0.039
    1UNL     N1    6  -0.067  -0.199   0.068
    1UNL     C5    7  -0.070  -0.302   0.176
    1UNL     C6    8  -0.007  -0.255  -0.070
    1UNL     C7    9   0.053  -0.128  -0.135
    1UNL     C8   10   0.101  -0.037  -0.018
    1UNL     C9   11   0.065   0.117  -0.046
    1UNL    C10   12  -0.039   0.182   0.001
    1UNL    C11   13  -0.046   0.324   0.003
    1UNL     O2   14   0.049   0.396  -0.029
    1UNL     O3   15  -0.157   0.387   0.060
    1UNL    C12   16  -0.125   0.105   0.092
    1UNL    C13   17  -0.032   0.023   0.191
    1UNL    C14   18   0.037  -0.089   0.112
    1UNL     N2   19   0.172   0.177  -0.104
    1UNL    C15   20   0.295   0.094  -0.083
    1UNL    C16   21   0.430   0.120  -0.110
    1UNL     O4   22   0.466   0.227  -0.188
    1UNL    C17   23   0.514   0.021  -0.066
    1UNL    C18   24   0.478  -0.098  -0.003
    1UNL    C19   25   0.344  -0.121   0.015
    1UNL    C20   26   0.251  -0.023  -0.022
    1UNL     H1   27  -0.417  -0.068  -0.142
    1UNL     H2   28  -0.482  -0.113   0.010
    1UNL     H3   29  -0.564   0.015  -0.060
    1UNL     H4   30  -0.393   0.091   0.119
    1UNL     H5   31  -0.307   0.254  -0.031
    1UNL     H6   32  -0.185   0.027  -0.097
    1UNL     H7   33  -0.238  -0.193  -0.051
    1UNL     H8   34  -0.282  -0.172   0.118
    1UNL     H9   35  -0.125  -0.397   0.155
    1UNL    H10   36   0.022  -0.327   0.228
    1UNL    H11   37  -0.128  -0.257   0.254
    1UNL    H12   38   0.066  -0.328  -0.055
    1UNL    H13   39  -0.079  -0.302  -0.138
    1UNL    H14   40   0.127  -0.164  -0.203
    1UNL    H15   41  -0.011  -0.073  -0.197
    1UNL    H16   42  -0.161   0.479   0.033
    1UNL    H17   43  -0.192   0.158   0.162
    1UNL    H18   44  -0.097  -0.023   0.267
    1UNL    H19   45   0.041   0.083   0.240
    1UNL    H20   46   0.123  -0.125   0.171
    1UNL    H21   47   0.177   0.282  -0.110
    1UNL    H22   48   0.389   0.296  -0.172
    1UNL    H23   49   0.619   0.034  -0.088
    1UNL    H24   50   0.549  -0.168   0.039
    1UNL    H25   51   0.313  -0.207   0.067
   0.00000   0.00000   0.00000   0.00000   0.00000   0.00000   0.00000   0.00000   0.00000
Generated with MDTraj, t= 39.0
 51
    1UNL     C1    1  -0.474  -0.019  -0.057
    1UNL     C2    2  -0.366   0.069   0.007
    1UNL     O1    3  -0.368   0.195  -0.068
    1UNL     C3    4  -0.223   0.004   0.022
    1UNL     C4    5  -0.224  -0.145   0.071
    1UNL     N1    6  -0.075  -0.194   0.069
    1UNL     C5    7  -0.066  -0.319   0.151
    1UNL     C6    8  -0.042  -0.218  -0.084
    1UNL     C7    9   0.065  -0.116  -0.136
    1UNL     C8   10   0.107  -0.034  -0.010
    1UNL     C9   11   0.078   0.113  -0.027
    1UNL    C10   12  -0.035   0.183   0.015
    1UNL    C11   13  -0.060   0.329  -0.010
    1UNL     O2   14   0.029   0.392  -0.067
    1UNL     O3   15  -0.169   0.379   0.043
    1UNL    C12   16  -0.125   0.099   0.101
    1UNL    C13   17  -0.038   0.019   0.199
    1UNL    C14   18   0.034  -0.091   0.118
    1UNL     N2   19   0.186   0.172  -0.087
    1UNL    C15   20   0.299   0.087  -0.079
    1UNL    C16   21   0.434   0.122  -0.115
    1UNL     O4   22   0.477   0.237  -0.183
    1UNL    C17   23   0.530   0.018  -0.081
    1UNL    C18   24   0.496  -0.095  -0.013
    1UNL    C19   25   0.366  -0.129   0.019
    1UNL    C20   26   0.266  -0.032   0.000
    1UNL     H1   27  -0.439  -0.052  -0.157
    1UNL     H2   28  -0.488  -0.108   0.001
    1UNL     H3   29  -0.568   0.031  -0.045
    1UNL     H4   30  -0.397   0.087   0.116
    1UNL     H5   31  -0.297   0.250  -0.023
    1UNL     H6   32  -0.175   0.003  -0.075
    1UNL     H7   33  -0.282  -0.217   0.014
    1UNL     H8   34  -0.269  -0.157   0.174
    1UNL     H9   35  -0.161  -0.377   0.152
    1UNL    H10   36   0.010  -0.392   0.125
    1UNL    H11   37  -0.050  -0.303   0.256
    1UNL    H12   38  -0.009  -0.317  -0.090
    1UNL    H13   39  -0.134  -0.219  -0.144
    1UNL    H14   40   0.149  -0.155  -0.186
    1UNL    H15   41   0.015  -0.057  -0.213
    1UNL    H16   42  -0.161   0.477   0.029
    1UNL    H17   43  -0.187   0.168   0.158
    1UNL    H18   44  -0.094  -0.034   0.278
    1UNL    H19   45   0.025   0.090   0.246
    1UNL    H20   46   0.102  -0.153   0.179
    1UNL    H21   47   0.191   0.272  -0.111
    1UNL    H22   48   0.413   0.301  -0.208
    1UNL    H23   49   0.634   0.036  -0.100
    1UNL    H24   50   0.581  -0.151   0.021
    1UNL    H25   51   0.345  -0.235   0.046
   0.00000   0.00000   0.00000   0.00000   0.00000   0.00000   0.00000   0.00000   0.00000
Generated with MDTraj, t= 40.0
 51
    1UNL     C1    1  -0.451  -0.041  -0.052
    1UNL     C2    2  -0.371   0.054   0.028
    1UNL     O1    3  -0.380   0.194  -0.029
    1UNL     C3    4  -0.221   0.015   0.023
    1UNL     C4    5  -0.201  -0.127   0.081
    1UNL     N1    6  -0.068  -0.189   0.061
    1UNL     C5    7  -0.055  -0.327   0.131
    1UNL     C6    8  -0.045  -0.210  -0.090
    1UNL     C7    9   0.057  -0.109  -0.138
    1UNL     C8   10   0.103  -0.032  -0.015
    1UNL     C9   11   0.077   0.119  -0.044
    1UNL    C10   12  -0.031   0.192   0.003
    1UNL    C11   13  -0.059   0.329  -0.030
    1UNL     O2   14   0.010   0.395  -0.109
    1UNL     O3   15  -0.167   0.386   0.031
    1UNL    C12   16  -0.118   0.111   0.101
    1UNL    C13   17  -0.024   0.026   0.195
    1UNL    C14   18   0.039  -0.094   0.117
    1UNL     N2   19   0.189   0.177  -0.087
    1UNL    C15   20   0.297   0.089  -0.080
    1UNL    C16   21   0.438   0.110  -0.082
    1UNL     O4   22   0.468   0.229  -0.140
    1UNL    C17   23   0.527   0.007  -0.057
    1UNL    C18   24   0.484  -0.116  -0.019
    1UNL    C19   25   0.350  -0.128   0.009
    1UNL    C20   26   0.258  -0.031  -0.020
    1UNL     H1   27  -0.399  -0.058  -0.150
    1UNL     H2   28  -0.460  -0.140  -0.006
    1UNL     H3   29  -0.550  -0.008  -0.056
    1UNL     H4   30  -0.409   0.061   0.134
    1UNL     H5   31  -0.305   0.245  -0.001
    1UNL     H6   32  -0.201   0.025  -0.084
    1UNL     H7   33  -0.276  -0.197   0.049
    1UNL     H8   34  -0.215  -0.122   0.193
    1UNL     H9   35  -0.115  -0.406   0.085
    1UNL    H10   36   0.048  -0.364   0.127
    1UNL    H11   37  -0.083  -0.337   0.236
    1UNL    H12   38  -0.009  -0.308  -0.109
    1UNL    H13   39  -0.145  -0.197  -0.130
    1UNL    H14   40   0.140  -0.152  -0.183
    1UNL    H15   41   0.013  -0.042  -0.216
    1UNL    H16   42  -0.157   0.485   0.018
    1UNL    H17   43  -0.191   0.175   0.150
    1UNL    H18   44  -0.073  -0.000   0.290
    1UNL    H19   45   0.059   0.086   0.223
    1UNL    H20   46   0.112  -0.157   0.170
    1UNL    H21   47   0.192   0.277  -0.094
    1UNL    H22   48   0.395   0.280  -0.157
    1UNL    H23   49   0.629   0.020  -0.098
    1UNL    H24   50   0.548  -0.194   0.025
    1UNL    H25   51   0.313  -0.220   0.044
   0.00000   0.00000   0.00000   0.00000   0.00000   0.00000   0.00000   0.00000   0.00000
Generated with MDTraj, t= 41.0
 51
    1UNL     C1    1  -0.489  -0.018  -0.012
    1UNL     C2    2  -0.379   0.064   0.041
    1UNL     O1    3  -0.399   0.197  -0.016
    1UNL     C3    4  -0.227   0.006   0.014
    1UNL     C4    5  -0.208  -0.144   0.059
    1UNL     N1    6  -0.058  -0.190   0.057
    1UNL     C5    7  -0.048  -0.296   0.162
    1UNL     C6    8  -0.019  -0.239  -0.075
    1UNL     C7    9   0.038  -0.119  -0.150
    1UNL     C8   10   0.108  -0.030  -0.043
    1UNL     C9   11   0.079   0.121  -0.070
    1UNL    C10   12  -0.037   0.176  -0.017
    1UNL    C11   13  -0.060   0.320  -0.034
    1UNL     O2   14   0.021   0.385  -0.100
    1UNL     O3   15  -0.166   0.372   0.035
    1UNL    C12   16  -0.123   0.098   0.087
    1UNL    C13   17  -0.029   0.024   0.177
    1UNL    C14   18   0.042  -0.077   0.094
    1UNL     N2   19   0.200   0.186  -0.088
    1UNL    C15   20   0.309   0.093  -0.083
    1UNL    C16   21   0.447   0.120  -0.071
    1UNL     O4   22   0.505   0.243  -0.107
    1UNL    C17   23   0.521   0.012  -0.041
    1UNL    C18   24   0.479  -0.116  -0.008
    1UNL    C19   25   0.340  -0.138  -0.021
    1UNL    C20   26   0.255  -0.030  -0.040
    1UNL     H1   27  -0.464  -0.042  -0.118
    1UNL     H2   28  -0.491  -0.119   0.031
    1UNL     H3   29  -0.583   0.021   0.006
    1UNL     H4   30  -0.388   0.074   0.150
    1UNL     H5   31  -0.319   0.261  -0.010
    1UNL     H6   32  -0.200   0.008  -0.093
    1UNL     H7   33  -0.266  -0.207  -0.007
    1UNL     H8   34  -0.251  -0.159   0.161
    1UNL     H9   35  -0.110  -0.379   0.140
    1UNL    H10   36   0.054  -0.329   0.184
    1UNL    H11   37  -0.087  -0.251   0.255
    1UNL    H12   38   0.049  -0.320  -0.055
    1UNL    H13   39  -0.105  -0.272  -0.130
    1UNL    H14   40   0.102  -0.160  -0.220
    1UNL    H15   41  -0.040  -0.060  -0.206
    1UNL    H16   42  -0.166   0.469   0.050
    1UNL    H17   43  -0.183   0.165   0.150
    1UNL    H18   44  -0.082  -0.022   0.261
    1UNL    H19   45   0.042   0.092   0.218
    1UNL    H20   46   0.122  -0.122   0.155
    1UNL    H21   47   0.211   0.285  -0.094
    1UNL    H22   48   0.432   0.290  -0.146
    1UNL    H23   49   0.624   0.028  -0.036
    1UNL    H24   50   0.548  -0.186   0.032
    1UNL    H25   51   0.296  -0.231   0.016
   0.00000   0.00000   0.00000   0.00000   0.00000   0.00000   0.00000   0.00000   0.00000
Generated with MDTraj, t= 42.0
 51
    1UNL     C1    1  -0.476  -0.042   0.019
    1UNL     C2    2  -0.371   0.059   0.051
    1UNL     O1    3  -0.401   0.185  -0.015
    1UNL     C3    4  -0.229   0.021   0.013
    1UNL     C4    5  -0.206  -0.132   0.058
    1UNL     N1    6  -0.068  -0.190   0.059
    1UNL     C5    7  -0.068  -0.307   0.160
    1UNL     C6    8  -0.030  -0.239  -0.083
    1UNL     C7    9   0.048  -0.125  -0.160
    1UNL     C8   10   0.108  -0.036  -0.048
    1UNL     C9   11   0.074   0.111  -0.070
    1UNL    C10   12  -0.030   0.177  -0.015
    1UNL    C11   13  -0.044   0.320  -0.034
    1UNL     O2   14   0.047   0.387  -0.085
    1UNL     O3   15  -0.159   0.381   0.003
    1UNL    C12   16  -0.120   0.112   0.083
    1UNL    C13   17  -0.027   0.027   0.168
    1UNL    C14   18   0.039  -0.083   0.088
    1UNL     N2   19   0.194   0.175  -0.111
    1UNL    C15   20   0.304   0.092  -0.077
    1UNL    C16   21   0.439   0.133  -0.067
    1UNL     O4   22   0.479   0.262  -0.078
    1UNL    C17   23   0.528   0.016  -0.053
    1UNL    C18   24   0.470  -0.110  -0.014
    1UNL    C19   25   0.341  -0.139  -0.006
    1UNL    C20   26   0.259  -0.035  -0.036
    1UNL     H1   27  -0.466  -0.078  -0.083
    1UNL     H2   28  -0.470  -0.129   0.084
    1UNL     H3   29  -0.567   0.012   0.044
    1UNL     H4   30  -0.378   0.077   0.156
    1UNL     H5   31  -0.330   0.254  -0.004
    1UNL     H6   32  -0.216   0.015  -0.096
    1UNL     H7   33  -0.265  -0.194  -0.012
    1UNL     H8   34  -0.255  -0.150   0.153
    1UNL     H9   35  -0.156  -0.360   0.132
    1UNL    H10   36   0.021  -0.367   0.141
    1UNL    H11   37  -0.070  -0.278   0.267
    1UNL    H12   38   0.035  -0.326  -0.075
    1UNL    H13   39  -0.117  -0.272  -0.133
    1UNL    H14   40   0.123  -0.163  -0.229
    1UNL    H15   41  -0.019  -0.059  -0.218
    1UNL    H16   42  -0.139   0.474  -0.013
    1UNL    H17   43  -0.165   0.184   0.153
    1UNL    H18   44  -0.066  -0.012   0.261
    1UNL    H19   45   0.048   0.099   0.200
    1UNL    H20   46   0.117  -0.135   0.145
    1UNL    H21   47   0.194   0.275  -0.092
    1UNL    H22   48   0.403   0.327  -0.109
    1UNL    H23   49   0.636   0.023  -0.079
    1UNL    H24   50   0.546  -0.176   0.031
    1UNL    H25   51   0.311  -0.231   0.041
   0.00000   0.00000   0.00000   0.00000   0.00000   0.00000   0.00000   0.00000   0.00000
Generated with MDTraj, t= 43.0
 51
    1UNL     C1    1  -0.488  -0.023   0.010
    1UNL     C2    2  -0.366   0.067   0.043
    1UNL     O1    3  -0.390   0.194  -0.022
    1UNL     C3    4  -0.224   0.010   0.023
    1UNL     C4    5  -0.206  -0.133   0.084
    1UNL     N1    6  -0.069  -0.191   0.051
    1UNL     C5    7  -0.048  -0.321   0.122
    1UNL     C6    8  -0.050  -0.220  -0.097
    1UNL     C7    9   0.045  -0.116  -0.150
    1UNL     C8   10   0.107  -0.031  -0.031
    1UNL     C9   11   0.081   0.120  -0.051
    1UNL    C10   12  -0.036   0.177  -0.018
    1UNL    C11   13  -0.059   0.321  -0.036
    1UNL     O2   14   0.030   0.394  -0.079
    1UNL     O3   15  -0.182   0.364  -0.011
    1UNL    C12   16  -0.118   0.103   0.088
    1UNL    C13   17  -0.021   0.028   0.178
    1UNL    C14   18   0.047  -0.090   0.098
    1UNL     N2   19   0.201   0.179  -0.087
    1UNL    C15   20   0.304   0.082  -0.074
    1UNL    C16   21   0.443   0.111  -0.069
    1UNL     O4   22   0.475   0.236  -0.121
    1UNL    C17   23   0.540   0.023  -0.027
    1UNL    C18   24   0.489  -0.101  -0.011
    1UNL    C19   25   0.350  -0.132  -0.006
    1UNL    C20   26   0.257  -0.034  -0.029
    1UNL     H1   27  -0.487  -0.043  -0.095
    1UNL     H2   28  -0.483  -0.114   0.065
    1UNL     H3   29  -0.573   0.038   0.050
    1UNL     H4   30  -0.385   0.093   0.144
    1UNL     H5   31  -0.315   0.260  -0.004
    1UNL     H6   32  -0.209   0.008  -0.087
    1UNL     H7   33  -0.289  -0.197   0.044
    1UNL     H8   34  -0.232  -0.135   0.187
    1UNL     H9   35  -0.122  -0.390   0.082
    1UNL    H10   36   0.055  -0.350   0.106
    1UNL    H11   37  -0.066  -0.299   0.228
    1UNL    H12   38  -0.019  -0.324  -0.117
    1UNL    H13   39  -0.146  -0.212  -0.141
    1UNL    H14   40   0.137  -0.154  -0.207
    1UNL    H15   41  -0.011  -0.053  -0.217
    1UNL    H16   42  -0.188   0.452  -0.050
    1UNL    H17   43  -0.177   0.176   0.145
    1UNL    H18   44  -0.078   0.003   0.265
    1UNL    H19   45   0.055   0.093   0.221
    1UNL    H20   46   0.133  -0.136   0.151
    1UNL    H21   47   0.209   0.284  -0.084
    1UNL    H22   48   0.397   0.280  -0.178
    1UNL    H23   49   0.641   0.036  -0.055
    1UNL    H24   50   0.553  -0.173   0.032
    1UNL    H25   51   0.313  -0.225   0.035
   0.00000   0.00000   0.00000   0.00000   0.00000   0.00000   0.00000   0.00000   0.00000
Generated with MDTraj, t= 44.0
 51
    1UNL     C1    1  -0.481  -0.048   0.002
    1UNL     C2    2  -0.376   0.058   0.033
    1UNL     O1    3  -0.405   0.176  -0.032
    1UNL     C3    4  -0.228   0.012   0.011
    1UNL     C4    5  -0.216  -0.136   0.064
    1UNL     N1    6  -0.069  -0.184   0.051
    1UNL     C5    7  -0.058  -0.319   0.125
    1UNL     C6    8  -0.034  -0.207  -0.099
    1UNL     C7    9   0.072  -0.111  -0.137
    1UNL     C8   10   0.116  -0.022  -0.014
    1UNL     C9   11   0.076   0.124  -0.044
    1UNL    C10   12  -0.036   0.187   0.003
    1UNL    C11   13  -0.050   0.329  -0.018
    1UNL     O2   14   0.024   0.391  -0.095
    1UNL     O3   15  -0.164   0.387   0.029
    1UNL    C12   16  -0.130   0.108   0.097
    1UNL    C13   17  -0.039   0.025   0.186
    1UNL    C14   18   0.034  -0.085   0.105
    1UNL     N2   19   0.191   0.172  -0.099
    1UNL    C15   20   0.305   0.089  -0.087
    1UNL    C16   21   0.447   0.113  -0.097
    1UNL     O4   22   0.503   0.230  -0.148
    1UNL    C17   23   0.525   0.005  -0.061
    1UNL    C18   24   0.487  -0.113  -0.003
    1UNL    C19   25   0.351  -0.127   0.020
    1UNL    C20   26   0.265  -0.021  -0.006
    1UNL     H1   27  -0.460  -0.094  -0.089
    1UNL     H2   28  -0.485  -0.129   0.072
    1UNL     H3   29  -0.584   0.001   0.006
    1UNL     H4   30  -0.384   0.083   0.137
    1UNL     H5   31  -0.332   0.238  -0.026
    1UNL     H6   32  -0.188   0.017  -0.093
    1UNL     H7   33  -0.282  -0.205   0.006
    1UNL     H8   34  -0.260  -0.147   0.160
    1UNL     H9   35  -0.125  -0.383   0.065
    1UNL    H10   36   0.046  -0.349   0.123
    1UNL    H11   37  -0.098  -0.311   0.225
    1UNL    H12   38  -0.009  -0.314  -0.117
    1UNL    H13   39  -0.118  -0.193  -0.160
    1UNL    H14   40   0.162  -0.169  -0.184
    1UNL    H15   41   0.047  -0.038  -0.211
    1UNL    H16   42  -0.185   0.469  -0.025
    1UNL    H17   43  -0.184   0.185   0.154
    1UNL    H18   44  -0.104  -0.029   0.251
    1UNL    H19   45   0.019   0.087   0.256
    1UNL    H20   46   0.090  -0.150   0.173
    1UNL    H21   47   0.207   0.276  -0.084
    1UNL    H22   48   0.423   0.289  -0.169
    1UNL    H23   49   0.632   0.016  -0.086
    1UNL    H24   50   0.551  -0.198   0.029
    1UNL    H25   51   0.323  -0.205   0.091
   0.00000   0.00000   0.00000   0.00000   0.00000   0.00000   0.00000   0.00000   0.00000
Generated with MDTraj, t= 45.0
 51
    1UNL     C1    1  -0.480  -0.015  -0.041
    1UNL     C2    2  -0.371   0.068   0.028
    1UNL     O1    3  -0.377   0.203  -0.023
    1UNL     C3    4  -0.226   0.012   0.012
    1UNL     C4    5  -0.207  -0.138   0.050
    1UNL     N1    6  -0.063  -0.196   0.053
    1UNL     C5    7  -0.068  -0.312   0.162
    1UNL     C6    8  -0.022  -0.241  -0.088
    1UNL     C7    9   0.056  -0.123  -0.145
    1UNL     C8   10   0.112  -0.030  -0.024
    1UNL     C9   11   0.082   0.117  -0.030
    1UNL    C10   12  -0.038   0.177   0.002
    1UNL    C11   13  -0.061   0.319  -0.024
    1UNL     O2   14   0.021   0.387  -0.085
    1UNL     O3   15  -0.168   0.381   0.037
    1UNL    C12   16  -0.126   0.096   0.089
    1UNL    C13   17  -0.034   0.014   0.188
    1UNL    C14   18   0.040  -0.091   0.097
    1UNL     N2   19   0.197   0.184  -0.073
    1UNL    C15   20   0.305   0.092  -0.061
    1UNL    C16   21   0.436   0.124  -0.097
    1UNL     O4   22   0.469   0.234  -0.177
    1UNL    C17   23   0.526   0.020  -0.065
    1UNL    C18   24   0.486  -0.096   0.003
    1UNL    C19   25   0.355  -0.131   0.014
    1UNL    C20   26   0.266  -0.036  -0.013
    1UNL     H1   27  -0.455  -0.042  -0.139
    1UNL     H2   28  -0.523  -0.107  -0.004
    1UNL     H3   29  -0.572   0.050  -0.040
    1UNL     H4   30  -0.391   0.077   0.135
    1UNL     H5   31  -0.287   0.251  -0.010
    1UNL     H6   32  -0.213   0.017  -0.099
    1UNL     H7   33  -0.273  -0.206  -0.008
    1UNL     H8   34  -0.247  -0.151   0.147
    1UNL     H9   35  -0.150  -0.387   0.146
    1UNL    H10   36   0.032  -0.351   0.159
    1UNL    H11   37  -0.084  -0.269   0.258
    1UNL    H12   38   0.046  -0.328  -0.080
    1UNL    H13   39  -0.108  -0.265  -0.145
    1UNL    H14   40   0.151  -0.163  -0.200
    1UNL    H15   41  -0.006  -0.068  -0.215
    1UNL    H16   42  -0.156   0.480   0.019
    1UNL    H17   43  -0.184   0.158   0.158
    1UNL    H18   44  -0.087  -0.028   0.270
    1UNL    H19   45   0.035   0.084   0.238
    1UNL    H20   46   0.119  -0.140   0.155
    1UNL    H21   47   0.206   0.284  -0.093
    1UNL    H22   48   0.391   0.275  -0.208
    1UNL    H23   49   0.621   0.028  -0.112
    1UNL    H24   50   0.567  -0.150   0.043
    1UNL    H25   51   0.323  -0.227   0.049
   0.00000   0.00000   0.00000   0.00000   0.00000   0.00000   0.00000   0.00000   0.00000
Generated with MDTraj, t= 46.0
 51
    1UNL     C1    1  -0.449  -0.026  -0.082
    1UNL     C2    2  -0.369   0.062   0.012
    1UNL     O1    3  -0.384   0.194  -0.033
    1UNL     C3    4  -0.218   0.010   0.010
    1UNL     C4    5  -0.206  -0.139   0.067
    1UNL     N1    6  -0.065  -0.195   0.075
    1UNL     C5    7  -0.076  -0.314   0.168
    1UNL     C6    8  -0.024  -0.240  -0.066
    1UNL     C7    9   0.042  -0.119  -0.139
    1UNL     C8   10   0.098  -0.034  -0.022
    1UNL     C9   11   0.065   0.108  -0.056
    1UNL    C10   12  -0.034   0.178   0.003
    1UNL    C11   13  -0.041   0.327  -0.007
    1UNL     O2   14   0.042   0.392  -0.070
    1UNL     O3   15  -0.147   0.380   0.055
    1UNL    C12   16  -0.120   0.103   0.096
    1UNL    C13   17  -0.025   0.025   0.203
    1UNL    C14   18   0.036  -0.090   0.116
    1UNL     N2   19   0.175   0.165  -0.116
    1UNL    C15   20   0.291   0.081  -0.097
    1UNL    C16   21   0.429   0.120  -0.106
    1UNL     O4   22   0.461   0.251  -0.139
    1UNL    C17   23   0.528   0.025  -0.072
    1UNL    C18   24   0.482  -0.096  -0.020
    1UNL    C19   25   0.350  -0.122   0.011
    1UNL    C20   26   0.250  -0.028  -0.028
    1UNL     H1   27  -0.400  -0.023  -0.178
    1UNL     H2   28  -0.445  -0.131  -0.062
    1UNL     H3   29  -0.555  -0.003  -0.086
    1UNL     H4   30  -0.408   0.060   0.117
    1UNL     H5   31  -0.305   0.239  -0.008
    1UNL     H6   32  -0.188   0.012  -0.099
    1UNL     H7   33  -0.279  -0.211   0.030
    1UNL     H8   34  -0.232  -0.129   0.170
    1UNL     H9   35  -0.147  -0.390   0.130
    1UNL    H10   36   0.024  -0.350   0.182
    1UNL    H11   37  -0.114  -0.284   0.265
    1UNL    H12   38   0.057  -0.313  -0.058
    1UNL    H13   39  -0.108  -0.278  -0.120
    1UNL    H14   40   0.134  -0.145  -0.205
    1UNL    H15   41  -0.030  -0.056  -0.196
    1UNL    H16   42  -0.142   0.479   0.051
    1UNL    H17   43  -0.174   0.178   0.156
    1UNL    H18   44  -0.079  -0.002   0.291
    1UNL    H19   45   0.058   0.090   0.236
    1UNL    H20   46   0.113  -0.141   0.174
    1UNL    H21   47   0.195   0.262  -0.109
    1UNL    H22   48   0.393   0.311  -0.125
    1UNL    H23   49   0.635   0.030  -0.083
    1UNL    H24   50   0.548  -0.171   0.030
    1UNL    H25   51   0.321  -0.216   0.054
   0.00000   0.00000   0.00000   0.00000   0.00000   0.00000   0.00000   0.00000   0.00000
Generated with MDTraj, t= 47.0
 51
    1UNL     C1    1  -0.456  -0.034  -0.081
    1UNL     C2    2  -0.360   0.064  -0.002
    1UNL     O1    3  -0.358   0.196  -0.065
    1UNL     C3    4  -0.223   0.001   0.027
    1UNL     C4    5  -0.214  -0.137   0.092
    1UNL     N1    6  -0.063  -0.189   0.081
    1UNL     C5    7  -0.041  -0.305   0.175
    1UNL     C6    8  -0.036  -0.235  -0.059
    1UNL     C7    9   0.037  -0.131  -0.142
    1UNL     C8   10   0.101  -0.033  -0.032
    1UNL     C9   11   0.064   0.121  -0.059
    1UNL    C10   12  -0.045   0.182  -0.008
    1UNL    C11   13  -0.053   0.325  -0.004
    1UNL     O2   14   0.040   0.390  -0.054
    1UNL     O3   15  -0.167   0.369   0.068
    1UNL    C12   16  -0.121   0.101   0.093
    1UNL    C13   17  -0.019   0.035   0.186
    1UNL    C14   18   0.041  -0.081   0.107
    1UNL     N2   19   0.176   0.182  -0.103
    1UNL    C15   20   0.288   0.098  -0.083
    1UNL    C16   21   0.427   0.125  -0.082
    1UNL     O4   22   0.477   0.233  -0.154
    1UNL    C17   23   0.511   0.018  -0.051
    1UNL    C18   24   0.481  -0.112  -0.027
    1UNL    C19   25   0.348  -0.132  -0.023
    1UNL    C20   26   0.249  -0.030  -0.037
    1UNL     H1   27  -0.405  -0.046  -0.178
    1UNL     H2   28  -0.460  -0.136  -0.042
    1UNL     H3   29  -0.553   0.003  -0.091
    1UNL     H4   30  -0.412   0.086   0.097
    1UNL     H5   31  -0.290   0.252  -0.011
    1UNL     H6   32  -0.180  -0.004  -0.080
    1UNL     H7   33  -0.276  -0.206   0.043
    1UNL     H8   34  -0.250  -0.130   0.194
    1UNL     H9   35  -0.117  -0.380   0.161
    1UNL    H10   36   0.057  -0.349   0.171
    1UNL    H11   37  -0.059  -0.274   0.279
    1UNL    H12   38   0.024  -0.325  -0.054
    1UNL    H13   39  -0.129  -0.258  -0.110
    1UNL    H14   40   0.121  -0.176  -0.202
    1UNL    H15   41  -0.023  -0.058  -0.209
    1UNL    H16   42  -0.160   0.461   0.090
    1UNL    H17   43  -0.174   0.177   0.152
    1UNL    H18   44  -0.078  -0.005   0.268
    1UNL    H19   45   0.056   0.107   0.223
    1UNL    H20   46   0.113  -0.121   0.179
    1UNL    H21   47   0.177   0.282  -0.104
    1UNL    H22   48   0.410   0.301  -0.154
    1UNL    H23   49   0.614   0.057  -0.035
    1UNL    H24   50   0.559  -0.181  -0.008
    1UNL    H25   51   0.313  -0.231   0.003
   0.00000   0.00000   0.00000   0.00000   0.00000   0.00000   0.00000   0.00000   0.00000
Generated with MDTraj, t= 48.0
 51
    1UNL     C1    1  -0.452  -0.044  -0.038
    1UNL     C2    2  -0.357   0.065   0.012
    1UNL     O1    3  -0.365   0.178  -0.075
    1UNL     C3    4  -0.220   0.011   0.020
    1UNL     C4    5  -0.208  -0.133   0.067
    1UNL     N1    6  -0.066  -0.191   0.066
    1UNL     C5    7  -0.053  -0.305   0.160
    1UNL     C6    8  -0.027  -0.231  -0.081
    1UNL     C7    9   0.041  -0.113  -0.140
    1UNL     C8   10   0.100  -0.029  -0.018
    1UNL     C9   11   0.073   0.116  -0.036
    1UNL    C10   12  -0.033   0.185   0.015
    1UNL    C11   13  -0.062   0.330  -0.004
    1UNL     O2   14   0.020   0.401  -0.063
    1UNL     O3   15  -0.176   0.390   0.033
    1UNL    C12   16  -0.124   0.106   0.099
    1UNL    C13   17  -0.027   0.026   0.202
    1UNL    C14   18   0.038  -0.089   0.116
    1UNL     N2   19   0.188   0.178  -0.091
    1UNL    C15   20   0.302   0.093  -0.078
    1UNL    C16   21   0.438   0.112  -0.109
    1UNL     O4   22   0.479   0.243  -0.136
    1UNL    C17   23   0.517  -0.001  -0.084
    1UNL    C18   24   0.471  -0.118  -0.028
    1UNL    C19   25   0.340  -0.134  -0.003
    1UNL    C20   26   0.255  -0.029  -0.021
    1UNL     H1   27  -0.397  -0.093  -0.121
    1UNL     H2   28  -0.475  -0.126   0.031
    1UNL     H3   29  -0.538   0.001  -0.070
    1UNL     H4   30  -0.394   0.095   0.116
    1UNL     H5   31  -0.312   0.250  -0.037
    1UNL     H6   32  -0.192   0.012  -0.092
    1UNL     H7   33  -0.254  -0.189  -0.007
    1UNL     H8   34  -0.251  -0.152   0.166
    1UNL     H9   35  -0.126  -0.380   0.147
    1UNL    H10   36   0.042  -0.356   0.141
    1UNL    H11   37  -0.053  -0.285   0.268
    1UNL    H12   38   0.039  -0.315  -0.082
    1UNL    H13   39  -0.110  -0.267  -0.143
    1UNL    H14   40   0.132  -0.135  -0.201
    1UNL    H15   41  -0.020  -0.043  -0.214
    1UNL    H16   42  -0.169   0.482   0.006
    1UNL    H17   43  -0.186   0.174   0.159
    1UNL    H18   44  -0.085  -0.012   0.285
    1UNL    H19   45   0.049   0.095   0.240
    1UNL    H20   46   0.121  -0.134   0.172
    1UNL    H21   47   0.177   0.276  -0.122
    1UNL    H22   48   0.407   0.307  -0.103
    1UNL    H23   49   0.618   0.009  -0.108
    1UNL    H24   50   0.545  -0.184   0.019
    1UNL    H25   51   0.308  -0.232   0.024
   0.00000   0.00000   0.00000   0.00000   0.00000   0.00000   0.00000   0.00000   0.00000
Generated with MDTraj, t= 49.0
 51
    1UNL     C1    1  -0.492  -0.031  -0.020
    1UNL     C2    2  -0.375   0.064   0.027
    1UNL     O1    3  -0.391   0.184  -0.031
    1UNL     C3    4  -0.232   0.008   0.013
    1UNL     C4    5  -0.222  -0.141   0.058
    1UNL     N1    6  -0.072  -0.193   0.062
    1UNL     C5    7  -0.063  -0.317   0.147
    1UNL     C6    8  -0.034  -0.220  -0.081
    1UNL     C7    9   0.059  -0.110  -0.134
    1UNL     C8   10   0.110  -0.026  -0.011
    1UNL     C9   11   0.085   0.126  -0.025
    1UNL    C10   12  -0.038   0.183  -0.005
    1UNL    C11   13  -0.065   0.325  -0.030
    1UNL     O2   14   0.031   0.389  -0.075
    1UNL     O3   15  -0.180   0.381   0.003
    1UNL    C12   16  -0.132   0.107   0.084
    1UNL    C13   17  -0.047   0.024   0.186
    1UNL    C14   18   0.036  -0.086   0.118
    1UNL     N2   19   0.210   0.184  -0.049
    1UNL    C15   20   0.315   0.087  -0.055
    1UNL    C16   21   0.449   0.119  -0.094
    1UNL     O4   22   0.485   0.240  -0.156
    1UNL    C17   23   0.542   0.017  -0.087
    1UNL    C18   24   0.497  -0.104  -0.039
    1UNL    C19   25   0.361  -0.143  -0.004
    1UNL    C20   26   0.269  -0.040  -0.015
    1UNL     H1   27  -0.468  -0.064  -0.121
    1UNL     H2   28  -0.496  -0.129   0.026
    1UNL     H3   29  -0.588   0.012  -0.020
    1UNL     H4   30  -0.384   0.079   0.138
    1UNL     H5   31  -0.317   0.253  -0.028
    1UNL     H6   32  -0.201   0.007  -0.096
    1UNL     H7   33  -0.279  -0.207   0.003
    1UNL     H8   34  -0.253  -0.146   0.162
    1UNL     H9   35  -0.119  -0.399   0.111
    1UNL    H10   36   0.039  -0.355   0.155
    1UNL    H11   37  -0.098  -0.306   0.250
    1UNL    H12   38   0.024  -0.307  -0.084
    1UNL    H13   39  -0.121  -0.243  -0.146
    1UNL    H14   40   0.149  -0.144  -0.192
    1UNL    H15   41   0.010  -0.038  -0.211
    1UNL    H16   42  -0.172   0.477  -0.016
    1UNL    H17   43  -0.189   0.175   0.148
    1UNL    H18   44  -0.104  -0.018   0.270
    1UNL    H19   45   0.021   0.101   0.222
    1UNL    H20   46   0.112  -0.132   0.182
    1UNL    H21   47   0.229   0.286  -0.069
    1UNL    H22   48   0.412   0.311  -0.140
    1UNL    H23   49   0.645   0.005  -0.132
    1UNL    H24   50   0.565  -0.184  -0.021
    1UNL    H25   51   0.345  -0.246   0.031
   0.00000   0.00000   0.00000   0.00000   0.00000   0.00000   0.00000   0.00000   0.00000
Generated with MDTraj, t= 50.0
 51
    1UNL     C1    1  -0.476  -0.040  -0.006
    1UNL     C2    2  -0.368   0.059   0.047
    1UNL     O1    3  -0.403   0.188   0.003
    1UNL     C3    4  -0.229   0.018   0.017
    1UNL     C4    5  -0.203  -0.133   0.040
    1UNL     N1    6  -0.059  -0.189   0.050
    1UNL     C5    7  -0.069  -0.313   0.135
    1UNL     C6    8  -0.018  -0.234  -0.084
    1UNL     C7    9   0.062  -0.115  -0.141
    1UNL     C8   10   0.110  -0.025  -0.024
    1UNL     C9   11   0.068   0.122  -0.054
    1UNL    C10   12  -0.039   0.187   0.002
    1UNL    C11   13  -0.053   0.325  -0.030
    1UNL     O2   14   0.030   0.394  -0.091
    1UNL     O3   15  -0.178   0.376  -0.005
    1UNL    C12   16  -0.128   0.112   0.102
    1UNL    C13   17  -0.029   0.023   0.187
    1UNL    C14   18   0.041  -0.082   0.102
    1UNL     N2   19   0.188   0.182  -0.103
    1UNL    C15   20   0.301   0.093  -0.077
    1UNL    C16   21   0.442   0.113  -0.083
    1UNL     O4   22   0.492   0.234  -0.129
    1UNL    C17   23   0.528   0.005  -0.047
    1UNL    C18   24   0.485  -0.117  -0.009
    1UNL    C19   25   0.349  -0.131  -0.000
    1UNL    C20   26   0.261  -0.026  -0.018
    1UNL     H1   27  -0.469  -0.040  -0.112
    1UNL     H2   28  -0.464  -0.144   0.017
    1UNL     H3   29  -0.577  -0.002   0.021
    1UNL     H4   30  -0.372   0.064   0.157
    1UNL     H5   31  -0.324   0.251  -0.007
    1UNL     H6   32  -0.209   0.052  -0.089
    1UNL     H7   33  -0.251  -0.177  -0.042
    1UNL     H8   34  -0.252  -0.163   0.131
    1UNL     H9   35  -0.122  -0.392   0.083
    1UNL    H10   36   0.026  -0.356   0.164
    1UNL    H11   37  -0.128  -0.291   0.223
    1UNL    H12   38   0.043  -0.318  -0.072
    1UNL    H13   39  -0.103  -0.253  -0.154
    1UNL    H14   40   0.151  -0.144  -0.208
    1UNL    H15   41  -0.009  -0.045  -0.193
    1UNL    H16   42  -0.172   0.469  -0.046
    1UNL    H17   43  -0.189   0.182   0.161
    1UNL    H18   44  -0.089  -0.034   0.261
    1UNL    H19   45   0.046   0.079   0.241
    1UNL    H20   46   0.119  -0.135   0.156
    1UNL    H21   47   0.193   0.286  -0.099
    1UNL    H22   48   0.420   0.310  -0.111
    1UNL    H23   49   0.628   0.031  -0.053
    1UNL    H24   50   0.561  -0.197  -0.011
    1UNL    H25   51   0.314  -0.222   0.044
   0.00000   0.00000   0.00000   0.00000   0.00000   0.00000   0.00000   0.00000   0.00000
Generated with MDTraj, t= 51.0
 51
    1UNL     C1    1  -0.498  -0.029   0.004
    1UNL     C2    2  -0.373   0.057   0.050
    1UNL     O1    3  -0.403   0.190   0.013
    1UNL     C3    4  -0.233   0.009   0.023
    1UNL     C4    5  -0.206  -0.133   0.059
    1UNL     N1    6  -0.062  -0.186   0.048
    1UNL     C5    7  -0.044  -0.301   0.144
    1UNL     C6    8  -0.030  -0.231  -0.097
    1UNL     C7    9   0.048  -0.112  -0.164
    1UNL     C8   10   0.109  -0.031  -0.049
    1UNL     C9   11   0.077   0.110  -0.071
    1UNL    C10   12  -0.036   0.168  -0.026
    1UNL    C11   13  -0.049   0.314  -0.035
    1UNL     O2   14   0.030   0.387  -0.094
    1UNL     O3   15  -0.155   0.370   0.027
    1UNL    C12   16  -0.118   0.101   0.080
    1UNL    C13   17  -0.021   0.032   0.171
    1UNL    C14   18   0.036  -0.077   0.086
    1UNL     N2   19   0.196   0.170  -0.113
    1UNL    C15   20   0.306   0.094  -0.068
    1UNL    C16   21   0.440   0.119  -0.075
    1UNL     O4   22   0.489   0.236  -0.118
    1UNL    C17   23   0.519   0.025  -0.020
    1UNL    C18   24   0.475  -0.098   0.025
    1UNL    C19   25   0.347  -0.132   0.007
    1UNL    C20   26   0.257  -0.036  -0.046
    1UNL     H1   27  -0.504  -0.035  -0.101
    1UNL     H2   28  -0.494  -0.130   0.036
    1UNL     H3   29  -0.592   0.027   0.036
    1UNL     H4   30  -0.380   0.061   0.158
    1UNL     H5   31  -0.320   0.245   0.017
    1UNL     H6   32  -0.217   0.027  -0.087
    1UNL     H7   33  -0.265  -0.192  -0.008
    1UNL     H8   34  -0.245  -0.146   0.156
    1UNL     H9   35  -0.127  -0.372   0.129
    1UNL    H10   36   0.046  -0.349   0.108
    1UNL    H11   37  -0.040  -0.272   0.247
    1UNL    H12   38   0.025  -0.321  -0.100
    1UNL    H13   39  -0.130  -0.241  -0.145
    1UNL    H14   40   0.140  -0.155  -0.222
    1UNL    H15   41  -0.014  -0.049  -0.229
    1UNL    H16   42  -0.150   0.469   0.018
    1UNL    H17   43  -0.173   0.186   0.123
    1UNL    H18   44  -0.072  -0.018   0.257
    1UNL    H19   45   0.055   0.101   0.208
    1UNL    H20   46   0.117  -0.122   0.143
    1UNL    H21   47   0.194   0.271  -0.121
    1UNL    H22   48   0.414   0.306  -0.117
    1UNL    H23   49   0.628   0.044  -0.039
    1UNL    H24   50   0.542  -0.164   0.074
    1UNL    H25   51   0.317  -0.232   0.032
   0.00000   0.00000   0.00000   0.00000   0.00000   0.00000   0.00000   0.00000   0.00000
Generated with MDTraj, t= 52.0
 51
    1UNL     C1    1  -0.484  -0.023   0.011
    1UNL     C2    2  -0.365   0.072   0.053
    1UNL     O1    3  -0.373   0.193  -0.013
    1UNL     C3    4  -0.225   0.010   0.024
    1UNL     C4    5  -0.214  -0.134   0.076
    1UNL     N1    6  -0.074  -0.191   0.046
    1UNL     C5    7  -0.069  -0.327   0.118
    1UNL     C6    8  -0.063  -0.208  -0.105
    1UNL     C7    9   0.063  -0.147  -0.148
    1UNL     C8   10   0.106  -0.049  -0.035
    1UNL     C9   11   0.069   0.099  -0.070
    1UNL    C10   12  -0.032   0.175  -0.019
    1UNL    C11   13  -0.044   0.314  -0.039
    1UNL     O2   14   0.032   0.379  -0.111
    1UNL     O3   15  -0.149   0.375   0.032
    1UNL    C12   16  -0.111   0.107   0.083
    1UNL    C13   17  -0.009   0.022   0.172
    1UNL    C14   18   0.044  -0.100   0.092
    1UNL     N2   19   0.185   0.162  -0.112
    1UNL    C15   20   0.300   0.091  -0.069
    1UNL    C16   21   0.435   0.135  -0.076
    1UNL     O4   22   0.468   0.269  -0.109
    1UNL    C17   23   0.528   0.041  -0.038
    1UNL    C18   24   0.481  -0.083   0.015
    1UNL    C19   25   0.349  -0.127   0.016
    1UNL    C20   26   0.254  -0.036  -0.028
    1UNL     H1   27  -0.454  -0.064  -0.082
    1UNL     H2   28  -0.501  -0.114   0.064
    1UNL     H3   29  -0.580   0.032  -0.013
    1UNL     H4   30  -0.366   0.084   0.159
    1UNL     H5   31  -0.298   0.260   0.013
    1UNL     H6   32  -0.214   0.005  -0.086
    1UNL     H7   33  -0.294  -0.202   0.044
    1UNL     H8   34  -0.219  -0.141   0.180
    1UNL     H9   35  -0.162  -0.386   0.102
    1UNL    H10   36   0.016  -0.380   0.079
    1UNL    H11   37  -0.063  -0.302   0.221
    1UNL    H12   38  -0.062  -0.313  -0.120
    1UNL    H13   39  -0.154  -0.171  -0.153
    1UNL    H14   40   0.152  -0.219  -0.175
    1UNL    H15   41   0.042  -0.087  -0.238
    1UNL    H16   42  -0.155   0.469   0.015
    1UNL    H17   43  -0.165   0.175   0.151
    1UNL    H18   44  -0.053  -0.022   0.265
    1UNL    H19   45   0.073   0.084   0.206
    1UNL    H20   46   0.122  -0.158   0.140
    1UNL    H21   47   0.192   0.260  -0.129
    1UNL    H22   48   0.399   0.337  -0.090
    1UNL    H23   49   0.632   0.052  -0.029
    1UNL    H24   50   0.559  -0.157   0.053
    1UNL    H25   51   0.315  -0.225   0.053
   0.00000   0.00000   0.00000   0.00000   0.00000   0.00000   0.00000   0.00000   0.00000
Generated with MDTraj, t= 53.0
 51
    1UNL     C1    1  -0.491  -0.003   0.020
    1UNL     C2    2  -0.365   0.080   0.039
    1UNL     O1    3  -0.380   0.198  -0.031
    1UNL     C3    4  -0.227   0.014   0.025
    1UNL     C4    5  -0.226  -0.134   0.061
    1UNL     N1    6  -0.082  -0.196   0.041
    1UNL     C5    7  -0.068  -0.332   0.104
    1UNL     C6    8  -0.063  -0.203  -0.112
    1UNL     C7    9   0.069  -0.141  -0.141
    1UNL     C8   10   0.115  -0.042  -0.022
    1UNL     C9   11   0.081   0.103  -0.040
    1UNL    C10   12  -0.027   0.174   0.009
    1UNL    C11   13  -0.057   0.310  -0.037
    1UNL     O2   14   0.010   0.364  -0.125
    1UNL     O3   15  -0.154   0.373   0.033
    1UNL    C12   16  -0.116   0.099   0.101
    1UNL    C13   17  -0.022   0.006   0.190
    1UNL    C14   18   0.038  -0.104   0.104
    1UNL     N2   19   0.186   0.168  -0.094
    1UNL    C15   20   0.303   0.089  -0.091
    1UNL    C16   21   0.435   0.134  -0.087
    1UNL     O4   22   0.469   0.260  -0.135
    1UNL    C17   23   0.536   0.043  -0.035
    1UNL    C18   24   0.503  -0.086   0.009
    1UNL    C19   25   0.371  -0.123   0.020
    1UNL    C20   26   0.273  -0.037  -0.026
    1UNL     H1   27  -0.491  -0.045  -0.078
    1UNL     H2   28  -0.502  -0.090   0.083
    1UNL     H3   29  -0.578   0.064   0.022
    1UNL     H4   30  -0.365   0.106   0.142
    1UNL     H5   31  -0.304   0.261  -0.014
    1UNL     H6   32  -0.197   0.027  -0.080
    1UNL     H7   33  -0.305  -0.199   0.021
    1UNL     H8   34  -0.253  -0.146   0.161
    1UNL     H9   35  -0.132  -0.400   0.047
    1UNL    H10   36   0.034  -0.362   0.086
    1UNL    H11   37  -0.102  -0.323   0.207
    1UNL    H12   38  -0.077  -0.307  -0.137
    1UNL    H13   39  -0.145  -0.156  -0.161
    1UNL    H14   40   0.150  -0.220  -0.151
    1UNL    H15   41   0.075  -0.084  -0.236
    1UNL    H16   42  -0.174   0.467   0.010
    1UNL    H17   43  -0.167   0.172   0.166
    1UNL    H18   44  -0.070  -0.030   0.285
    1UNL    H19   45   0.064   0.063   0.227
    1UNL    H20   46   0.105  -0.171   0.158
    1UNL    H21   47   0.182   0.268  -0.116
    1UNL    H22   48   0.405   0.319  -0.106
    1UNL    H23   49   0.629   0.094  -0.009
    1UNL    H24   50   0.585  -0.145   0.034
    1UNL    H25   51   0.355  -0.211   0.074
   0.00000   0.00000   0.00000   0.00000   0.00000   0.00000   0.00000   0.00000   0.00000
Generated with MDTraj, t= 54.0
 51
    1UNL     C1    1  -0.489  -0.033   0.007
    1UNL     C2    2  -0.374   0.059   0.050
    1UNL     O1    3  -0.404   0.197   0.008
    1UNL     C3    4  -0.235   0.013   0.010
    1UNL     C4    5  -0.213  -0.130   0.050
    1UNL     N1    6  -0.076  -0.194   0.039
    1UNL     C5    7  -0.051  -0.327   0.109
    1UNL     C6    8  -0.039  -0.207  -0.118
    1UNL     C7    9   0.093  -0.131  -0.143
    1UNL     C8   10   0.110  -0.034  -0.024
    1UNL     C9   11   0.082   0.118  -0.056
    1UNL    C10   12  -0.032   0.176  -0.004
    1UNL    C11   13  -0.054   0.320  -0.027
    1UNL     O2   14   0.012   0.388  -0.110
    1UNL     O3   15  -0.162   0.378   0.037
    1UNL    C12   16  -0.125   0.099   0.086
    1UNL    C13   17  -0.026   0.022   0.181
    1UNL    C14   18   0.029  -0.090   0.100
    1UNL     N2   19   0.201   0.179  -0.094
    1UNL    C15   20   0.305   0.093  -0.066
    1UNL    C16   21   0.439   0.111  -0.096
    1UNL     O4   22   0.487   0.222  -0.168
    1UNL    C17   23   0.525   0.019  -0.041
    1UNL    C18   24   0.488  -0.093   0.021
    1UNL    C19   25   0.350  -0.114   0.040
    1UNL    C20   26   0.262  -0.019  -0.005
    1UNL     H1   27  -0.488  -0.039  -0.103
    1UNL     H2   28  -0.484  -0.137   0.041
    1UNL     H3   29  -0.581   0.015   0.028
    1UNL     H4   30  -0.382   0.069   0.158
    1UNL     H5   31  -0.319   0.253   0.017
    1UNL     H6   32  -0.223   0.036  -0.098
    1UNL     H7   33  -0.275  -0.180  -0.023
    1UNL     H8   34  -0.255  -0.157   0.142
    1UNL     H9   35  -0.104  -0.402   0.055
    1UNL    H10   36   0.054  -0.350   0.093
    1UNL    H11   37  -0.085  -0.320   0.214
    1UNL    H12   38  -0.029  -0.313  -0.141
    1UNL    H13   39  -0.121  -0.169  -0.169
    1UNL    H14   40   0.183  -0.194  -0.144
    1UNL    H15   41   0.088  -0.068  -0.237
    1UNL    H16   42  -0.161   0.474   0.009
    1UNL    H17   43  -0.179   0.175   0.146
    1UNL    H18   44  -0.074  -0.022   0.271
    1UNL    H19   45   0.051   0.091   0.218
    1UNL    H20   46   0.097  -0.144   0.166
    1UNL    H21   47   0.207   0.284  -0.091
    1UNL    H22   48   0.434   0.297  -0.133
    1UNL    H23   49   0.626   0.046  -0.061
    1UNL    H24   50   0.557  -0.164   0.074
    1UNL    H25   51   0.308  -0.216   0.056
   0.00000   0.00000   0.00000   0.00000   0.00000   0.00000   0.00000   0.00000   0.00000
Generated with MDTraj, t= 55.0
 51
    1UNL     C1    1  -0.488  -0.026  -0.021
    1UNL     C2    2  -0.382   0.055   0.052
    1UNL     O1    3  -0.413   0.191   0.040
    1UNL     C3    4  -0.237   0.017   0.020
    1UNL     C4    5  -0.213  -0.135   0.062
    1UNL     N1    6  -0.067  -0.189   0.040
    1UNL     C5    7  -0.060  -0.322   0.106
    1UNL     C6    8  -0.046  -0.207  -0.108
    1UNL     C7    9   0.070  -0.114  -0.155
    1UNL     C8   10   0.114  -0.030  -0.025
    1UNL     C9   11   0.081   0.117  -0.048
    1UNL    C10   12  -0.036   0.175  -0.011
    1UNL    C11   13  -0.051   0.321  -0.028
    1UNL     O2   14   0.046   0.391  -0.067
    1UNL     O3   15  -0.179   0.359  -0.011
    1UNL    C12   16  -0.125   0.103   0.087
    1UNL    C13   17  -0.026   0.019   0.182
    1UNL    C14   18   0.042  -0.094   0.101
    1UNL     N2   19   0.200   0.172  -0.103
    1UNL    C15   20   0.310   0.096  -0.070
    1UNL    C16   21   0.450   0.120  -0.094
    1UNL     O4   22   0.490   0.225  -0.177
    1UNL    C17   23   0.536   0.017  -0.049
    1UNL    C18   24   0.486  -0.085   0.036
    1UNL    C19   25   0.347  -0.115   0.044
    1UNL    C20   26   0.259  -0.026  -0.019
    1UNL     H1   27  -0.466  -0.032  -0.131
    1UNL     H2   28  -0.478  -0.132   0.008
    1UNL     H3   29  -0.584   0.009  -0.012
    1UNL     H4   30  -0.399   0.040   0.162
    1UNL     H5   31  -0.337   0.247   0.024
    1UNL     H6   32  -0.218   0.028  -0.087
    1UNL     H7   33  -0.283  -0.200   0.015
    1UNL     H8   34  -0.228  -0.144   0.169
    1UNL     H9   35  -0.152  -0.368   0.082
    1UNL    H10   36   0.020  -0.391   0.074
    1UNL    H11   37  -0.067  -0.304   0.215
    1UNL    H12   38  -0.016  -0.312  -0.114
    1UNL    H13   39  -0.138  -0.190  -0.152
    1UNL    H14   40   0.150  -0.179  -0.186
    1UNL    H15   41   0.033  -0.047  -0.241
    1UNL    H16   42  -0.175   0.456  -0.021
    1UNL    H17   43  -0.175   0.177   0.153
    1UNL    H18   44  -0.076  -0.013   0.277
    1UNL    H19   45   0.055   0.087   0.212
    1UNL    H20   46   0.112  -0.144   0.166
    1UNL    H21   47   0.194   0.272  -0.128
    1UNL    H22   48   0.441   0.310  -0.152
    1UNL    H23   49   0.643   0.022  -0.059
    1UNL    H24   50   0.550  -0.158   0.080
    1UNL    H25   51   0.306  -0.207   0.077
   0.00000   0.00000   0.00000   0.00000   0.00000   0.00000   0.00000   0.00000   0.00000
Generated with MDTraj, t= 56.0
 51
    1UNL     C1    1  -0.488  -0.003  -0.026
    1UNL     C2    2  -0.368   0.064   0.050
    1UNL     O1    3  -0.390   0.209   0.036
    1UNL     C3    4  -0.222   0.016   0.024
    1UNL     C4    5  -0.210  -0.138   0.064
    1UNL     N1    6  -0.072  -0.193   0.050
    1UNL     C5    7  -0.064  -0.325   0.125
    1UNL     C6    8  -0.042  -0.218  -0.100
    1UNL     C7    9   0.070  -0.131  -0.149
    1UNL     C8   10   0.111  -0.038  -0.027
    1UNL     C9   11   0.073   0.102  -0.060
    1UNL    C10   12  -0.030   0.170  -0.005
    1UNL    C11   13  -0.046   0.313  -0.037
    1UNL     O2   14   0.052   0.385  -0.059
    1UNL     O3   15  -0.174   0.358  -0.040
    1UNL    C12   16  -0.120   0.104   0.093
    1UNL    C13   17  -0.031   0.010   0.189
    1UNL    C14   18   0.041  -0.100   0.102
    1UNL     N2   19   0.184   0.173  -0.116
    1UNL    C15   20   0.294   0.096  -0.070
    1UNL    C16   21   0.427   0.128  -0.082
    1UNL     O4   22   0.465   0.255  -0.139
    1UNL    C17   23   0.533   0.037  -0.038
    1UNL    C18   24   0.493  -0.095   0.001
    1UNL    C19   25   0.361  -0.128   0.013
    1UNL    C20   26   0.264  -0.033  -0.014
    1UNL     H1   27  -0.472  -0.001  -0.136
    1UNL     H2   28  -0.499  -0.110  -0.009
    1UNL     H3   29  -0.577   0.052  -0.011
    1UNL     H4   30  -0.378   0.046   0.162
    1UNL     H5   31  -0.314   0.264  -0.000
    1UNL     H6   32  -0.200   0.020  -0.083
    1UNL     H7   33  -0.276  -0.195   0.004
    1UNL     H8   34  -0.228  -0.154   0.172
    1UNL     H9   35  -0.140  -0.390   0.089
    1UNL    H10   36   0.027  -0.368   0.082
    1UNL    H11   37  -0.067  -0.333   0.235
    1UNL    H12   38  -0.030  -0.326  -0.108
    1UNL    H13   39  -0.132  -0.196  -0.146
    1UNL    H14   40   0.146  -0.188  -0.197
    1UNL    H15   41   0.024  -0.058  -0.226
    1UNL    H16   42  -0.166   0.448  -0.070
    1UNL    H17   43  -0.177   0.171   0.160
    1UNL    H18   44  -0.086  -0.043   0.269
    1UNL    H19   45   0.034   0.080   0.247
    1UNL    H20   46   0.114  -0.154   0.162
    1UNL    H21   47   0.175   0.272  -0.101
    1UNL    H22   48   0.401   0.335  -0.119
    1UNL    H23   49   0.638   0.065  -0.039
    1UNL    H24   50   0.574  -0.165   0.014
    1UNL    H25   51   0.330  -0.229   0.036
   0.00000   0.00000   0.00000   0.00000   0.00000   0.00000   0.00000   0.00000   0.00000
Generated with MDTraj, t= 57.0
 51
    1UNL     C1    1  -0.483  -0.012  -0.028
    1UNL     C2    2  -0.376   0.055   0.052
    1UNL     O1    3  -0.398   0.193   0.062
    1UNL     C3    4  -0.232   0.016   0.015
    1UNL     C4    5  -0.211  -0.131   0.067
    1UNL     N1    6  -0.068  -0.193   0.053
    1UNL     C5    7  -0.066  -0.310   0.146
    1UNL     C6    8  -0.041  -0.225  -0.094
    1UNL     C7    9   0.061  -0.138  -0.150
    1UNL     C8   10   0.109  -0.038  -0.035
    1UNL     C9   11   0.076   0.108  -0.069
    1UNL    C10   12  -0.038   0.173  -0.027
    1UNL    C11   13  -0.054   0.317  -0.047
    1UNL     O2   14   0.042   0.389  -0.074
    1UNL     O3   15  -0.177   0.369  -0.025
    1UNL    C12   16  -0.125   0.105   0.077
    1UNL    C13   17  -0.028   0.024   0.173
    1UNL    C14   18   0.037  -0.088   0.094
    1UNL     N2   19   0.194   0.167  -0.104
    1UNL    C15   20   0.308   0.091  -0.062
    1UNL    C16   21   0.445   0.125  -0.073
    1UNL     O4   22   0.480   0.258  -0.105
    1UNL    C17   23   0.537   0.032  -0.037
    1UNL    C18   24   0.501  -0.101  -0.013
    1UNL    C19   25   0.360  -0.129  -0.009
    1UNL    C20   26   0.263  -0.034  -0.034
    1UNL     H1   27  -0.472   0.009  -0.133
    1UNL     H2   28  -0.471  -0.118  -0.014
    1UNL     H3   29  -0.580   0.034   0.005
    1UNL     H4   30  -0.384   0.024   0.163
    1UNL     H5   31  -0.326   0.254   0.027
    1UNL     H6   32  -0.218   0.037  -0.093
    1UNL     H7   33  -0.269  -0.188  -0.002
    1UNL     H8   34  -0.247  -0.143   0.172
    1UNL     H9   35  -0.143  -0.380   0.113
    1UNL    H10   36   0.022  -0.373   0.153
    1UNL    H11   37  -0.102  -0.282   0.244
    1UNL    H12   38  -0.029  -0.330  -0.113
    1UNL    H13   39  -0.139  -0.206  -0.129
    1UNL    H14   40   0.149  -0.192  -0.179
    1UNL    H15   41   0.019  -0.090  -0.244
    1UNL    H16   42  -0.174   0.459  -0.060
    1UNL    H17   43  -0.183   0.181   0.134
    1UNL    H18   44  -0.082  -0.017   0.259
    1UNL    H19   45   0.047   0.091   0.222
    1UNL    H20   46   0.099  -0.142   0.165
    1UNL    H21   47   0.196   0.267  -0.108
    1UNL    H22   48   0.397   0.309  -0.082
    1UNL    H23   49   0.642   0.058  -0.035
    1UNL    H24   50   0.573  -0.181   0.019
    1UNL    H25   51   0.322  -0.224   0.029
   0.00000   0.00000   0.00000   0.00000   0.00000   0.00000   0.00000   0.00000   0.00000
Generated with MDTraj, t= 58.0
 51
    1UNL     C1    1  -0.475  -0.018  -0.030
    1UNL     C2    2  -0.372   0.055   0.059
    1UNL     O1    3  -0.398   0.199   0.061
    1UNL     C3    4  -0.225   0.013   0.018
    1UNL     C4    5  -0.202  -0.142   0.052
    1UNL     N1    6  -0.056  -0.197   0.048
    1UNL     C5    7  -0.036  -0.310   0.139
    1UNL     C6    8  -0.023  -0.233  -0.100
    1UNL     C7    9   0.038  -0.104  -0.159
    1UNL     C8   10   0.103  -0.024  -0.037
    1UNL     C9   11   0.080   0.129  -0.049
    1UNL    C10   12  -0.044   0.185  -0.010
    1UNL    C11   13  -0.073   0.323  -0.045
    1UNL     O2   14   0.004   0.375  -0.124
    1UNL     O3   15  -0.189   0.387  -0.015
    1UNL    C12   16  -0.128   0.104   0.091
    1UNL    C13   17  -0.025   0.021   0.172
    1UNL    C14   18   0.042  -0.081   0.094
    1UNL     N2   19   0.203   0.177  -0.088
    1UNL    C15   20   0.310   0.088  -0.065
    1UNL    C16   21   0.450   0.115  -0.074
    1UNL     O4   22   0.508   0.238  -0.099
    1UNL    C17   23   0.533   0.005  -0.044
    1UNL    C18   24   0.478  -0.111   0.011
    1UNL    C19   25   0.342  -0.137  -0.002
    1UNL    C20   26   0.256  -0.036  -0.043
    1UNL     H1   27  -0.463   0.019  -0.128
    1UNL     H2   28  -0.461  -0.124  -0.031
    1UNL     H3   29  -0.579   0.022  -0.002
    1UNL     H4   30  -0.388   0.016   0.165
    1UNL     H5   31  -0.321   0.256   0.040
    1UNL     H6   32  -0.203   0.039  -0.086
    1UNL     H7   33  -0.260  -0.204  -0.014
    1UNL     H8   34  -0.233  -0.164   0.158
    1UNL     H9   35  -0.084  -0.402   0.099
    1UNL    H10   36   0.067  -0.338   0.148
    1UNL    H11   37  -0.080  -0.297   0.236
    1UNL    H12   38   0.050  -0.309  -0.088
    1UNL    H13   39  -0.102  -0.284  -0.151
    1UNL    H14   40   0.107  -0.127  -0.241
    1UNL    H15   41  -0.035  -0.033  -0.200
    1UNL    H16   42  -0.192   0.473  -0.064
    1UNL    H17   43  -0.192   0.171   0.153
    1UNL    H18   44  -0.073  -0.026   0.258
    1UNL    H19   45   0.052   0.087   0.222
    1UNL    H20   46   0.116  -0.129   0.160
    1UNL    H21   47   0.220   0.274  -0.104
    1UNL    H22   48   0.443   0.304  -0.086
    1UNL    H23   49   0.637   0.029  -0.046
    1UNL    H24   50   0.534  -0.191   0.043
    1UNL    H25   51   0.298  -0.216   0.053
   0.00000   0.00000   0.00000   0.00000   0.00000   0.00000   0.00000   0.00000   0.00000
Generated with MDTraj, t= 59.0
 51
    1UNL     C1    1  -0.465  -0.028  -0.032
    1UNL     C2    2  -0.376   0.060   0.049
    1UNL     O1    3  -0.418   0.194   0.045
    1UNL     C3    4  -0.230   0.022   0.022
    1UNL     C4    5  -0.212  -0.132   0.058
    1UNL     N1    6  -0.070  -0.190   0.043
    1UNL     C5    7  -0.056  -0.310   0.127
    1UNL     C6    8  -0.026  -0.221  -0.094
    1UNL     C7    9   0.054  -0.100  -0.153
    1UNL     C8   10   0.115  -0.027  -0.028
    1UNL     C9   11   0.082   0.117  -0.047
    1UNL    C10   12  -0.037   0.182  -0.011
    1UNL    C11   13  -0.073   0.318  -0.046
    1UNL     O2   14  -0.004   0.370  -0.132
    1UNL     O3   15  -0.183   0.382   0.003
    1UNL    C12   16  -0.125   0.112   0.091
    1UNL    C13   17  -0.026   0.023   0.182
    1UNL    C14   18   0.041  -0.084   0.095
    1UNL     N2   19   0.200   0.185  -0.073
    1UNL    C15   20   0.312   0.095  -0.055
    1UNL    C16   21   0.451   0.112  -0.078
    1UNL     O4   22   0.500   0.239  -0.120
    1UNL    C17   23   0.542   0.005  -0.046
    1UNL    C18   24   0.491  -0.118  -0.013
    1UNL    C19   25   0.358  -0.143   0.010
    1UNL    C20   26   0.270  -0.034  -0.015
    1UNL     H1   27  -0.465  -0.010  -0.137
    1UNL     H2   28  -0.456  -0.136  -0.017
    1UNL     H3   29  -0.570   0.008  -0.009
    1UNL     H4   30  -0.401   0.019   0.150
    1UNL     H5   31  -0.333   0.253   0.046
    1UNL     H6   32  -0.213   0.027  -0.086
    1UNL     H7   33  -0.273  -0.202  -0.004
    1UNL     H8   34  -0.235  -0.149   0.165
    1UNL     H9   35  -0.122  -0.395   0.099
    1UNL    H10   36   0.044  -0.350   0.116
    1UNL    H11   37  -0.073  -0.288   0.230
    1UNL    H12   38   0.036  -0.304  -0.084
    1UNL    H13   39  -0.109  -0.258  -0.154
    1UNL    H14   40   0.138  -0.140  -0.214
    1UNL    H15   41  -0.007  -0.036  -0.210
    1UNL    H16   42  -0.189   0.470  -0.045
    1UNL    H17   43  -0.188   0.184   0.148
    1UNL    H18   44  -0.059  -0.018   0.277
    1UNL    H19   45   0.053   0.097   0.215
    1UNL    H20   46   0.123  -0.138   0.143
    1UNL    H21   47   0.207   0.276  -0.114
    1UNL    H22   48   0.443   0.308  -0.098
    1UNL    H23   49   0.645   0.021  -0.076
    1UNL    H24   50   0.568  -0.203  -0.019
    1UNL    H25   51   0.311  -0.242   0.025
   0.00000   0.00000   0.00000   0.00000   0.00000   0.00000   0.00000   0.00000   0.00000
Generated with MDTraj, t= 60.0
 51
    1UNL     C1    1  -0.484  -0.026  -0.009
    1UNL     C2    2  -0.375   0.069   0.041
    1UNL     O1    3  -0.391   0.203  -0.016
    1UNL     C3    4  -0.229   0.007   0.013
    1UNL     C4    5  -0.215  -0.135   0.058
    1UNL     N1    6  -0.074  -0.190   0.050
    1UNL     C5    7  -0.067  -0.318   0.136
    1UNL     C6    8  -0.027  -0.225  -0.093
    1UNL     C7    9   0.070  -0.119  -0.138
    1UNL     C8   10   0.112  -0.038  -0.011
    1UNL     C9   11   0.077   0.113  -0.039
    1UNL    C10   12  -0.042   0.173  -0.010
    1UNL    C11   13  -0.058   0.315  -0.037
    1UNL     O2   14   0.040   0.375  -0.081
    1UNL     O3   15  -0.166   0.375   0.010
    1UNL    C12   16  -0.128   0.098   0.084
    1UNL    C13   17  -0.035   0.020   0.186
    1UNL    C14   18   0.029  -0.089   0.114
    1UNL     N2   19   0.188   0.168  -0.102
    1UNL    C15   20   0.305   0.097  -0.059
    1UNL    C16   21   0.443   0.129  -0.080
    1UNL     O4   22   0.479   0.246  -0.135
    1UNL    C17   23   0.538   0.033  -0.056
    1UNL    C18   24   0.495  -0.100  -0.027
    1UNL    C19   25   0.362  -0.127   0.002
    1UNL    C20   26   0.262  -0.028  -0.010
    1UNL     H1   27  -0.482  -0.035  -0.119
    1UNL     H2   28  -0.481  -0.132   0.029
    1UNL     H3   29  -0.584   0.015  -0.000
    1UNL     H4   30  -0.392   0.078   0.147
    1UNL     H5   31  -0.317   0.257   0.002
    1UNL     H6   32  -0.200   0.016  -0.093
    1UNL     H7   33  -0.285  -0.204  -0.001
    1UNL     H8   34  -0.234  -0.142   0.168
    1UNL     H9   35  -0.152  -0.374   0.096
    1UNL    H10   36   0.017  -0.385   0.118
    1UNL    H11   37  -0.088  -0.305   0.242
    1UNL    H12   38   0.009  -0.321  -0.106
    1UNL    H13   39  -0.115  -0.219  -0.157
    1UNL    H14   40   0.160  -0.165  -0.188
    1UNL    H15   41   0.019  -0.062  -0.210
    1UNL    H16   42  -0.156   0.471  -0.011
    1UNL    H17   43  -0.190   0.172   0.140
    1UNL    H18   44  -0.085  -0.026   0.272
    1UNL    H19   45   0.043   0.090   0.227
    1UNL    H20   46   0.098  -0.150   0.173
    1UNL    H21   47   0.196   0.266  -0.131
    1UNL    H22   48   0.409   0.307  -0.129
    1UNL    H23   49   0.644   0.044  -0.075
    1UNL    H24   50   0.554  -0.184  -0.037
    1UNL    H25   51   0.325  -0.227   0.000
   0.00000   0.00000   0.00000   0.00000   0.00000   0.00000   0.00000   0.00000   0.00000
Generated with MDTraj, t= 61.0
 51
    1UNL     C1    1  -0.469  -0.031  -0.001
    1UNL     C2    2  -0.363   0.071   0.022
    1UNL     O1    3  -0.372   0.179  -0.070
    1UNL     C3    4  -0.219   0.003   0.009
    1UNL     C4    5  -0.212  -0.138   0.066
    1UNL     N1    6  -0.064  -0.195   0.060
    1UNL     C5    7  -0.069  -0.311   0.161
    1UNL     C6    8  -0.027  -0.228  -0.084
    1UNL     C7    9   0.041  -0.107  -0.152
    1UNL     C8   10   0.104  -0.036  -0.036
    1UNL     C9   11   0.072   0.112  -0.056
    1UNL    C10   12  -0.032   0.179  -0.003
    1UNL    C11   13  -0.046   0.322  -0.000
    1UNL     O2   14   0.049   0.392  -0.034
    1UNL     O3   15  -0.169   0.378   0.033
    1UNL    C12   16  -0.125   0.097   0.090
    1UNL    C13   17  -0.025   0.018   0.189
    1UNL    C14   18   0.037  -0.088   0.105
    1UNL     N2   19   0.184   0.167  -0.113
    1UNL    C15   20   0.295   0.090  -0.091
    1UNL    C16   21   0.430   0.124  -0.100
    1UNL     O4   22   0.482   0.246  -0.149
    1UNL    C17   23   0.517   0.029  -0.050
    1UNL    C18   24   0.477  -0.090   0.010
    1UNL    C19   25   0.344  -0.127   0.007
    1UNL    C20   26   0.257  -0.037  -0.040
    1UNL     H1   27  -0.455  -0.088  -0.099
    1UNL     H2   28  -0.463  -0.106   0.081
    1UNL     H3   29  -0.564   0.015  -0.018
    1UNL     H4   30  -0.384   0.117   0.116
    1UNL     H5   31  -0.311   0.258  -0.049
    1UNL     H6   32  -0.189   0.022  -0.096
    1UNL     H7   33  -0.277  -0.207   0.001
    1UNL     H8   34  -0.251  -0.137   0.170
    1UNL     H9   35  -0.152  -0.375   0.141
    1UNL    H10   36   0.022  -0.371   0.159
    1UNL    H11   37  -0.086  -0.262   0.257
    1UNL    H12   38   0.020  -0.320  -0.093
    1UNL    H13   39  -0.117  -0.236  -0.145
    1UNL    H14   40   0.118  -0.150  -0.223
    1UNL    H15   41  -0.018  -0.045  -0.213
    1UNL    H16   42  -0.169   0.472   0.014
    1UNL    H17   43  -0.192   0.165   0.147
    1UNL    H18   44  -0.079  -0.040   0.265
    1UNL    H19   45   0.056   0.077   0.240
    1UNL    H20   46   0.117  -0.139   0.162
    1UNL    H21   47   0.186   0.271  -0.107
    1UNL    H22   48   0.410   0.298  -0.193
    1UNL    H23   49   0.613   0.071  -0.026
    1UNL    H24   50   0.565  -0.144   0.055
    1UNL    H25   51   0.317  -0.225   0.044
   0.00000   0.00000   0.00000   0.00000   0.00000   0.00000   0.00000   0.00000   0.00000
Generated with MDTraj, t= 62.0
 51
    1UNL     C1    1  -0.456  -0.040  -0.059
    1UNL     C2    2  -0.358   0.059   0.010
    1UNL     O1    3  -0.364   0.190  -0.056
    1UNL     C3    4  -0.215   0.004   0.020
    1UNL     C4    5  -0.199  -0.137   0.082
    1UNL     N1    6  -0.061  -0.193   0.065
    1UNL     C5    7  -0.040  -0.314   0.164
    1UNL     C6    8  -0.049  -0.234  -0.085
    1UNL     C7    9   0.045  -0.124  -0.152
    1UNL     C8   10   0.105  -0.032  -0.034
    1UNL     C9   11   0.068   0.123  -0.048
    1UNL    C10   12  -0.044   0.186  -0.008
    1UNL    C11   13  -0.057   0.333  -0.005
    1UNL     O2   14   0.037   0.402  -0.037
    1UNL     O3   15  -0.173   0.383   0.047
    1UNL    C12   16  -0.125   0.103   0.090
    1UNL    C13   17  -0.019   0.025   0.187
    1UNL    C14   18   0.050  -0.083   0.102
    1UNL     N2   19   0.186   0.186  -0.084
    1UNL    C15   20   0.291   0.092  -0.085
    1UNL    C16   21   0.427   0.111  -0.107
    1UNL     O4   22   0.469   0.229  -0.163
    1UNL    C17   23   0.516   0.012  -0.058
    1UNL    C18   24   0.472  -0.104   0.004
    1UNL    C19   25   0.332  -0.124   0.015
    1UNL    C20   26   0.251  -0.034  -0.044
    1UNL     H1   27  -0.427  -0.079  -0.162
    1UNL     H2   28  -0.478  -0.126   0.008
    1UNL     H3   29  -0.539   0.022  -0.084
    1UNL     H4   30  -0.403   0.074   0.107
    1UNL     H5   31  -0.297   0.254  -0.025
    1UNL     H6   32  -0.179   0.005  -0.084
    1UNL     H7   33  -0.284  -0.208   0.053
    1UNL     H8   34  -0.198  -0.128   0.195
    1UNL     H9   35  -0.091  -0.404   0.142
    1UNL    H10   36   0.068  -0.335   0.159
    1UNL    H11   37  -0.080  -0.279   0.262
    1UNL    H12   38   0.009  -0.322  -0.093
    1UNL    H13   39  -0.141  -0.257  -0.133
    1UNL    H14   40   0.128  -0.169  -0.212
    1UNL    H15   41  -0.009  -0.064  -0.221
    1UNL    H16   42  -0.172   0.478   0.062
    1UNL    H17   43  -0.192   0.166   0.151
    1UNL    H18   44  -0.064  -0.026   0.274
    1UNL    H19   45   0.057   0.098   0.223
    1UNL    H20   46   0.132  -0.129   0.159
    1UNL    H21   47   0.189   0.290  -0.067
    1UNL    H22   48   0.393   0.283  -0.203
    1UNL    H23   49   0.621   0.042  -0.056
    1UNL    H24   50   0.526  -0.168   0.070
    1UNL    H25   51   0.302  -0.217   0.063
   0.00000   0.00000   0.00000   0.00000   0.00000   0.00000   0.00000   0.00000   0.00000
Generated with MDTraj, t= 63.0
 51
    1UNL     C1    1  -0.454  -0.031  -0.096
    1UNL     C2    2  -0.372   0.060  -0.000
    1UNL     O1    3  -0.394   0.193  -0.039
    1UNL     C3    4  -0.220   0.011   0.009
    1UNL     C4    5  -0.216  -0.135   0.069
    1UNL     N1    6  -0.066  -0.194   0.083
    1UNL     C5    7  -0.070  -0.320   0.165
    1UNL     C6    8  -0.021  -0.233  -0.059
    1UNL     C7    9   0.058  -0.116  -0.126
    1UNL     C8   10   0.113  -0.028  -0.004
    1UNL     C9   11   0.075   0.121  -0.028
    1UNL    C10   12  -0.036   0.184   0.019
    1UNL    C11   13  -0.053   0.323  -0.008
    1UNL     O2   14   0.022   0.378  -0.086
    1UNL     O3   15  -0.158   0.390   0.048
    1UNL    C12   16  -0.135   0.101   0.099
    1UNL    C13   17  -0.036   0.020   0.203
    1UNL    C14   18   0.038  -0.086   0.124
    1UNL     N2   19   0.194   0.185  -0.075
    1UNL    C15   20   0.299   0.092  -0.085
    1UNL    C16   21   0.435   0.118  -0.117
    1UNL     O4   22   0.476   0.246  -0.140
    1UNL    C17   23   0.528   0.014  -0.101
    1UNL    C18   24   0.484  -0.105  -0.050
    1UNL    C19   25   0.351  -0.133  -0.004
    1UNL    C20   26   0.264  -0.028  -0.024
    1UNL     H1   27  -0.421  -0.032  -0.202
    1UNL     H2   28  -0.452  -0.136  -0.061
    1UNL     H3   29  -0.555   0.010  -0.111
    1UNL     H4   30  -0.415   0.044   0.099
    1UNL     H5   31  -0.314   0.243  -0.013
    1UNL     H6   32  -0.165   0.011  -0.084
    1UNL     H7   33  -0.277  -0.211   0.011
    1UNL     H8   34  -0.268  -0.128   0.171
    1UNL     H9   35  -0.129  -0.394   0.116
    1UNL    H10   36   0.030  -0.367   0.175
    1UNL    H11   37  -0.126  -0.289   0.256
    1UNL    H12   38   0.041  -0.321  -0.056
    1UNL    H13   39  -0.097  -0.269  -0.120
    1UNL    H14   40   0.147  -0.152  -0.177
    1UNL    H15   41   0.006  -0.063  -0.205
    1UNL    H16   42  -0.154   0.484   0.021
    1UNL    H17   43  -0.211   0.161   0.152
    1UNL    H18   44  -0.089  -0.032   0.286
    1UNL    H19   45   0.032   0.096   0.247
    1UNL    H20   46   0.111  -0.135   0.189
    1UNL    H21   47   0.209   0.285  -0.055
    1UNL    H22   48   0.395   0.311  -0.149
    1UNL    H23   49   0.633   0.030  -0.107
    1UNL    H24   50   0.548  -0.191  -0.049
    1UNL    H25   51   0.315  -0.224   0.041
   0.00000   0.00000   0.00000   0.00000   0.00000   0.00000   0.00000   0.00000   0.00000
Generated with MDTraj, t= 64.0
 51
    1UNL     C1    1  -0.463  -0.023  -0.071
    1UNL     C2    2  -0.365   0.065   0.002
    1UNL     O1    3  -0.381   0.201  -0.039
    1UNL     C3    4  -0.217   0.010   0.005
    1UNL     C4    5  -0.209  -0.134   0.052
    1UNL     N1    6  -0.065  -0.189   0.075
    1UNL     C5    7  -0.067  -0.310   0.167
    1UNL     C6    8   0.003  -0.241  -0.058
    1UNL     C7    9   0.069  -0.128  -0.120
    1UNL     C8   10   0.111  -0.026  -0.011
    1UNL     C9   11   0.083   0.125  -0.033
    1UNL    C10   12  -0.036   0.181   0.011
    1UNL    C11   13  -0.063   0.319  -0.016
    1UNL     O2   14   0.005   0.376  -0.098
    1UNL     O3   15  -0.162   0.382   0.053
    1UNL    C12   16  -0.137   0.098   0.097
    1UNL    C13   17  -0.033   0.023   0.196
    1UNL    C14   18   0.037  -0.082   0.120
    1UNL     N2   19   0.201   0.189  -0.072
    1UNL    C15   20   0.304   0.097  -0.052
    1UNL    C16   21   0.435   0.119  -0.093
    1UNL     O4   22   0.465   0.251  -0.140
    1UNL    C17   23   0.522   0.008  -0.090
    1UNL    C18   24   0.476  -0.123  -0.052
    1UNL    C19   25   0.346  -0.137  -0.025
    1UNL    C20   26   0.259  -0.029  -0.017
    1UNL     H1   27  -0.451  -0.042  -0.177
    1UNL     H2   28  -0.474  -0.122  -0.027
    1UNL     H3   29  -0.565   0.029  -0.082
    1UNL     H4   30  -0.400   0.066   0.110
    1UNL     H5   31  -0.307   0.253  -0.014
    1UNL     H6   32  -0.172   0.027  -0.091
    1UNL     H7   33  -0.266  -0.194  -0.025
    1UNL     H8   34  -0.271  -0.151   0.149
    1UNL     H9   35  -0.158  -0.370   0.152
    1UNL    H10   36   0.014  -0.377   0.141
    1UNL    H11   37  -0.067  -0.273   0.272
    1UNL    H12   38   0.065  -0.331  -0.059
    1UNL    H13   39  -0.075  -0.267  -0.120
    1UNL    H14   40   0.141  -0.166  -0.187
    1UNL    H15   41  -0.005  -0.067  -0.175
    1UNL    H16   42  -0.159   0.476   0.020
    1UNL    H17   43  -0.218   0.157   0.146
    1UNL    H18   44  -0.095  -0.027   0.274
    1UNL    H19   45   0.036   0.096   0.240
    1UNL    H20   46   0.106  -0.132   0.188
    1UNL    H21   47   0.208   0.287  -0.057
    1UNL    H22   48   0.382   0.285  -0.178
    1UNL    H23   49   0.619   0.026  -0.139
    1UNL    H24   50   0.540  -0.203  -0.084
    1UNL    H25   51   0.298  -0.233  -0.014
   0.00000   0.00000   0.00000   0.00000   0.00000   0.00000   0.00000   0.00000   0.00000
Generated with MDTraj, t= 65.0
 51
    1UNL     C1    1  -0.472  -0.054  -0.031
    1UNL     C2    2  -0.368   0.050   0.017
    1UNL     O1    3  -0.377   0.176  -0.050
    1UNL     C3    4  -0.220   0.005   0.018
    1UNL     C4    5  -0.208  -0.133   0.078
    1UNL     N1    6  -0.063  -0.189   0.067
    1UNL     C5    7  -0.049  -0.314   0.146
    1UNL     C6    8  -0.044  -0.221  -0.083
    1UNL     C7    9   0.040  -0.106  -0.144
    1UNL     C8   10   0.104  -0.021  -0.029
    1UNL     C9   11   0.078   0.123  -0.056
    1UNL    C10   12  -0.030   0.186   0.003
    1UNL    C11   13  -0.053   0.328  -0.004
    1UNL     O2   14   0.034   0.387  -0.064
    1UNL     O3   15  -0.167   0.378   0.042
    1UNL    C12   16  -0.129   0.110   0.086
    1UNL    C13   17  -0.028   0.028   0.186
    1UNL    C14   18   0.041  -0.079   0.105
    1UNL     N2   19   0.194   0.180  -0.102
    1UNL    C15   20   0.308   0.093  -0.085
    1UNL    C16   21   0.442   0.113  -0.095
    1UNL     O4   22   0.483   0.239  -0.135
    1UNL    C17   23   0.527   0.014  -0.055
    1UNL    C18   24   0.470  -0.109  -0.007
    1UNL    C19   25   0.337  -0.127   0.009
    1UNL    C20   26   0.256  -0.025  -0.037
    1UNL     H1   27  -0.454  -0.111  -0.120
    1UNL     H2   28  -0.496  -0.129   0.045
    1UNL     H3   29  -0.566   0.004  -0.068
    1UNL     H4   30  -0.401   0.078   0.123
    1UNL     H5   31  -0.308   0.246  -0.019
    1UNL     H6   32  -0.192   0.012  -0.085
    1UNL     H7   33  -0.287  -0.203   0.037
    1UNL     H8   34  -0.244  -0.128   0.187
    1UNL     H9   35  -0.111  -0.391   0.092
    1UNL    H10   36   0.050  -0.357   0.144
    1UNL    H11   37  -0.089  -0.305   0.247
    1UNL    H12   38  -0.006  -0.321  -0.086
    1UNL    H13   39  -0.132  -0.233  -0.136
    1UNL    H14   40   0.119  -0.143  -0.201
    1UNL    H15   41  -0.019  -0.045  -0.217
    1UNL    H16   42  -0.163   0.473   0.008
    1UNL    H17   43  -0.197   0.181   0.137
    1UNL    H18   44  -0.076  -0.007   0.281
    1UNL    H19   45   0.047   0.104   0.205
    1UNL    H20   46   0.114  -0.126   0.171
    1UNL    H21   47   0.201   0.280  -0.111
    1UNL    H22   48   0.408   0.280  -0.172
    1UNL    H23   49   0.631   0.018  -0.075
    1UNL    H24   50   0.534  -0.194   0.011
    1UNL    H25   51   0.290  -0.219   0.043
   0.00000   0.00000   0.00000   0.00000   0.00000   0.00000   0.00000   0.00000   0.00000
Generated with MDTraj, t= 66.0
 51
    1UNL     C1    1  -0.479  -0.027   0.007
    1UNL     C2    2  -0.359   0.061   0.036
    1UNL     O1    3  -0.379   0.180  -0.037
    1UNL     C3    4  -0.212   0.001   0.019
    1UNL     C4    5  -0.202  -0.139   0.072
    1UNL     N1    6  -0.070  -0.192   0.054
    1UNL     C5    7  -0.051  -0.310   0.141
    1UNL     C6    8  -0.061  -0.226  -0.093
    1UNL     C7    9   0.038  -0.125  -0.163
    1UNL     C8   10   0.100  -0.037  -0.046
    1UNL     C9   11   0.074   0.115  -0.066
    1UNL    C10   12  -0.032   0.180  -0.003
    1UNL    C11   13  -0.054   0.324  -0.017
    1UNL     O2   14   0.045   0.392  -0.040
    1UNL     O3   15  -0.182   0.379  -0.004
    1UNL    C12   16  -0.118   0.104   0.091
    1UNL    C13   17  -0.015   0.014   0.179
    1UNL    C14   18   0.048  -0.085   0.087
    1UNL     N2   19   0.189   0.180  -0.105
    1UNL    C15   20   0.296   0.091  -0.088
    1UNL    C16   21   0.438   0.121  -0.087
    1UNL     O4   22   0.489   0.243  -0.129
    1UNL    C17   23   0.530   0.027  -0.032
    1UNL    C18   24   0.477  -0.089   0.017
    1UNL    C19   25   0.340  -0.122   0.014
    1UNL    C20   26   0.250  -0.035  -0.045
    1UNL     H1   27  -0.478  -0.062  -0.095
    1UNL     H2   28  -0.482  -0.115   0.075
    1UNL     H3   29  -0.571   0.041   0.006
    1UNL     H4   30  -0.371   0.086   0.149
    1UNL     H5   31  -0.315   0.245  -0.013
    1UNL     H6   32  -0.175  -0.007  -0.080
    1UNL     H7   33  -0.283  -0.207   0.030
    1UNL     H8   34  -0.220  -0.146   0.183
    1UNL     H9   35  -0.108  -0.402   0.109
    1UNL    H10   36   0.052  -0.345   0.150
    1UNL    H11   37  -0.085  -0.278   0.238
    1UNL    H12   38  -0.004  -0.317  -0.092
    1UNL    H13   39  -0.156  -0.242  -0.135
    1UNL    H14   40   0.109  -0.182  -0.212
    1UNL    H15   41  -0.018  -0.058  -0.232
    1UNL    H16   42  -0.168   0.475  -0.009
    1UNL    H17   43  -0.173   0.163   0.166
    1UNL    H18   44  -0.072  -0.043   0.256
    1UNL    H19   45   0.051   0.086   0.227
    1UNL    H20   46   0.128  -0.134   0.144
    1UNL    H21   47   0.198   0.285  -0.107
    1UNL    H22   48   0.428   0.291  -0.188
    1UNL    H23   49   0.634   0.054  -0.009
    1UNL    H24   50   0.547  -0.161   0.062
    1UNL    H25   51   0.300  -0.206   0.066
   0.00000   0.00000   0.00000   0.00000   0.00000   0.00000   0.00000   0.00000   0.00000
Generated with MDTraj, t= 67.0
 51
    1UNL     C1    1  -0.486  -0.038   0.024
    1UNL     C2    2  -0.375   0.064   0.046
    1UNL     O1    3  -0.405   0.193  -0.013
    1UNL     C3    4  -0.229   0.021   0.005
    1UNL     C4    5  -0.208  -0.128   0.036
    1UNL     N1    6  -0.066  -0.195   0.049
    1UNL     C5    7  -0.073  -0.311   0.144
    1UNL     C6    8  -0.026  -0.236  -0.093
    1UNL     C7    9   0.058  -0.121  -0.155
    1UNL     C8   10   0.111  -0.042  -0.028
    1UNL     C9   11   0.073   0.102  -0.057
    1UNL    C10   12  -0.030   0.179  -0.007
    1UNL    C11   13  -0.046   0.327  -0.033
    1UNL     O2   14   0.044   0.390  -0.082
    1UNL     O3   15  -0.157   0.387   0.004
    1UNL    C12   16  -0.124   0.107   0.082
    1UNL    C13   17  -0.029   0.014   0.180
    1UNL    C14   18   0.031  -0.094   0.100
    1UNL     N2   19   0.187   0.159  -0.100
    1UNL    C15   20   0.302   0.092  -0.062
    1UNL    C16   21   0.433   0.130  -0.079
    1UNL     O4   22   0.464   0.255  -0.116
    1UNL    C17   23   0.528   0.031  -0.048
    1UNL    C18   24   0.502  -0.096  -0.007
    1UNL    C19   25   0.369  -0.135   0.004
    1UNL    C20   26   0.271  -0.042  -0.027
    1UNL     H1   27  -0.497  -0.060  -0.086
    1UNL     H2   28  -0.466  -0.134   0.076
    1UNL     H3   29  -0.582   0.008   0.050
    1UNL     H4   30  -0.378   0.082   0.159
    1UNL     H5   31  -0.321   0.251  -0.016
    1UNL     H6   32  -0.218   0.035  -0.099
    1UNL     H7   33  -0.274  -0.191  -0.034
    1UNL     H8   34  -0.264  -0.138   0.132
    1UNL     H9   35  -0.142  -0.388   0.107
    1UNL    H10   36   0.022  -0.366   0.151
    1UNL    H11   37  -0.098  -0.276   0.242
    1UNL    H12   38   0.020  -0.331  -0.085
    1UNL    H13   39  -0.118  -0.246  -0.145
    1UNL    H14   40   0.143  -0.158  -0.203
    1UNL    H15   41  -0.009  -0.063  -0.222
    1UNL    H16   42  -0.146   0.482  -0.001
    1UNL    H17   43  -0.180   0.180   0.143
    1UNL    H18   44  -0.097  -0.026   0.257
    1UNL    H19   45   0.043   0.077   0.230
    1UNL    H20   46   0.100  -0.145   0.167
    1UNL    H21   47   0.170   0.263  -0.096
    1UNL    H22   48   0.377   0.307  -0.140
    1UNL    H23   49   0.623   0.077  -0.054
    1UNL    H24   50   0.575  -0.159   0.032
    1UNL    H25   51   0.342  -0.236   0.036
   0.00000   0.00000   0.00000   0.00000   0.00000   0.00000   0.00000   0.00000   0.00000
Generated with MDTraj, t= 68.0
 51
    1UNL     C1    1  -0.493  -0.013  -0.018
    1UNL     C2    2  -0.385   0.066   0.049
    1UNL     O1    3  -0.409   0.209   0.017
    1UNL     C3    4  -0.236   0.010   0.011
    1UNL     C4    5  -0.209  -0.138   0.048
    1UNL     N1    6  -0.063  -0.194   0.047
    1UNL     C5    7  -0.065  -0.319   0.138
    1UNL     C6    8  -0.010  -0.234  -0.096
    1UNL     C7    9   0.068  -0.118  -0.143
    1UNL     C8   10   0.109  -0.034  -0.021
    1UNL     C9   11   0.076   0.118  -0.051
    1UNL    C10   12  -0.036   0.176  -0.013
    1UNL    C11   13  -0.067   0.318  -0.042
    1UNL     O2   14  -0.002   0.382  -0.123
    1UNL     O3   15  -0.171   0.373   0.032
    1UNL    C12   16  -0.128   0.097   0.081
    1UNL    C13   17  -0.024   0.020   0.185
    1UNL    C14   18   0.040  -0.087   0.103
    1UNL     N2   19   0.194   0.169  -0.095
    1UNL    C15   20   0.305   0.094  -0.061
    1UNL    C16   21   0.444   0.125  -0.074
    1UNL     O4   22   0.516   0.243  -0.117
    1UNL    C17   23   0.534   0.023  -0.052
    1UNL    C18   24   0.499  -0.105  -0.018
    1UNL    C19   25   0.360  -0.131   0.006
    1UNL    C20   26   0.261  -0.031  -0.014
    1UNL     H1   27  -0.474  -0.012  -0.131
    1UNL     H2   28  -0.493  -0.121   0.009
    1UNL     H3   29  -0.591   0.027  -0.011
    1UNL     H4   30  -0.400   0.065   0.159
    1UNL     H5   31  -0.331   0.264   0.012
    1UNL     H6   32  -0.228   0.019  -0.094
    1UNL     H7   33  -0.284  -0.196  -0.016
    1UNL     H8   34  -0.245  -0.154   0.150
    1UNL     H9   35  -0.140  -0.391   0.110
    1UNL    H10   36   0.030  -0.374   0.126
    1UNL    H11   37  -0.068  -0.294   0.245
    1UNL    H12   38   0.048  -0.320  -0.092
    1UNL    H13   39  -0.101  -0.256  -0.151
    1UNL    H14   40   0.152  -0.144  -0.205
    1UNL    H15   41   0.006  -0.048  -0.200
    1UNL    H16   42  -0.159   0.467   0.015
    1UNL    H17   43  -0.187   0.172   0.137
    1UNL    H18   44  -0.077  -0.013   0.275
    1UNL    H19   45   0.048   0.092   0.222
    1UNL    H20   46   0.119  -0.137   0.158
    1UNL    H21   47   0.196   0.266  -0.129
    1UNL    H22   48   0.452   0.311  -0.164
    1UNL    H23   49   0.641   0.043  -0.057
    1UNL    H24   50   0.574  -0.190  -0.023
    1UNL    H25   51   0.335  -0.234   0.019
   0.00000   0.00000   0.00000   0.00000   0.00000   0.00000   0.00000   0.00000   0.00000
Generated with MDTraj, t= 69.0
 51
    1UNL     C1    1  -0.453  -0.033  -0.048
    1UNL     C2    2  -0.365   0.053   0.043
    1UNL     O1    3  -0.393   0.187   0.011
    1UNL     C3    4  -0.217   0.016   0.022
    1UNL     C4    5  -0.205  -0.138   0.064
    1UNL     N1    6  -0.064  -0.204   0.044
    1UNL     C5    7  -0.047  -0.318   0.138
    1UNL     C6    8  -0.026  -0.220  -0.105
    1UNL     C7    9   0.039  -0.090  -0.155
    1UNL     C8   10   0.103  -0.024  -0.025
    1UNL     C9   11   0.071   0.126  -0.033
    1UNL    C10   12  -0.041   0.187   0.003
    1UNL    C11   13  -0.067   0.324  -0.039
    1UNL     O2   14   0.000   0.373  -0.126
    1UNL     O3   15  -0.166   0.388   0.024
    1UNL    C12   16  -0.120   0.105   0.100
    1UNL    C13   17  -0.010   0.024   0.192
    1UNL    C14   18   0.043  -0.090   0.103
    1UNL     N2   19   0.187   0.187  -0.085
    1UNL    C15   20   0.299   0.095  -0.076
    1UNL    C16   21   0.444   0.118  -0.078
    1UNL     O4   22   0.495   0.234  -0.130
    1UNL    C17   23   0.525   0.012  -0.036
    1UNL    C18   24   0.469  -0.118   0.001
    1UNL    C19   25   0.334  -0.136   0.010
    1UNL    C20   26   0.255  -0.031  -0.027
    1UNL     H1   27  -0.409  -0.034  -0.154
    1UNL     H2   28  -0.449  -0.139  -0.014
    1UNL     H3   29  -0.555  -0.005  -0.057
    1UNL     H4   30  -0.390   0.042   0.149
    1UNL     H5   31  -0.314   0.252   0.019
    1UNL     H6   32  -0.192   0.018  -0.080
    1UNL     H7   33  -0.288  -0.204   0.025
    1UNL     H8   34  -0.224  -0.132   0.171
    1UNL     H9   35  -0.119  -0.390   0.111
    1UNL    H10   36   0.052  -0.366   0.124
    1UNL    H11   37  -0.053  -0.289   0.246
    1UNL    H12   38   0.040  -0.299  -0.111
    1UNL    H13   39  -0.112  -0.256  -0.162
    1UNL    H14   40   0.124  -0.104  -0.226
    1UNL    H15   41  -0.030  -0.027  -0.205
    1UNL    H16   42  -0.157   0.482  -0.008
    1UNL    H17   43  -0.173   0.181   0.159
    1UNL    H18   44  -0.045  -0.003   0.293
    1UNL    H19   45   0.067   0.097   0.212
    1UNL    H20   46   0.128  -0.140   0.149
    1UNL    H21   47   0.194   0.290  -0.098
    1UNL    H22   48   0.427   0.272  -0.191
    1UNL    H23   49   0.631   0.017  -0.052
    1UNL    H24   50   0.535  -0.197   0.002
    1UNL    H25   51   0.295  -0.236   0.021
   0.00000   0.00000   0.00000   0.00000   0.00000   0.00000   0.00000   0.00000   0.00000
Generated with MDTraj, t= 70.0
 51
    1UNL     C1    1  -0.474  -0.040  -0.036
    1UNL     C2    2  -0.369   0.061   0.019
    1UNL     O1    3  -0.383   0.193  -0.044
    1UNL     C3    4  -0.230   0.004   0.013
    1UNL     C4    5  -0.218  -0.137   0.075
    1UNL     N1    6  -0.072  -0.185   0.062
    1UNL     C5    7  -0.056  -0.304   0.161
    1UNL     C6    8  -0.049  -0.219  -0.086
    1UNL     C7    9   0.050  -0.117  -0.148
    1UNL     C8   10   0.111  -0.033  -0.029
    1UNL     C9   11   0.081   0.115  -0.048
    1UNL    C10   12  -0.034   0.178  -0.012
    1UNL    C11   13  -0.055   0.322  -0.015
    1UNL     O2   14   0.032   0.393  -0.056
    1UNL     O3   15  -0.174   0.368   0.040
    1UNL    C12   16  -0.123   0.096   0.082
    1UNL    C13   17  -0.019   0.030   0.178
    1UNL    C14   18   0.041  -0.084   0.107
    1UNL     N2   19   0.195   0.178  -0.095
    1UNL    C15   20   0.302   0.085  -0.079
    1UNL    C16   21   0.435   0.117  -0.099
    1UNL     O4   22   0.476   0.251  -0.124
    1UNL    C17   23   0.529   0.020  -0.067
    1UNL    C18   24   0.491  -0.103  -0.016
    1UNL    C19   25   0.358  -0.133   0.008
    1UNL    C20   26   0.263  -0.038  -0.025
    1UNL     H1   27  -0.465  -0.047  -0.147
    1UNL     H2   28  -0.462  -0.140   0.010
    1UNL     H3   29  -0.574  -0.001  -0.008
    1UNL     H4   30  -0.390   0.078   0.122
    1UNL     H5   31  -0.316   0.250  -0.012
    1UNL     H6   32  -0.217  -0.005  -0.091
    1UNL     H7   33  -0.285  -0.201   0.014
    1UNL     H8   34  -0.251  -0.144   0.180
    1UNL     H9   35  -0.097  -0.388   0.112
    1UNL    H10   36   0.052  -0.324   0.176
    1UNL    H11   37  -0.104  -0.283   0.259
    1UNL    H12   38  -0.005  -0.313  -0.082
    1UNL    H13   39  -0.142  -0.236  -0.141
    1UNL    H14   40   0.123  -0.174  -0.214
    1UNL    H15   41   0.006  -0.040  -0.206
    1UNL    H16   42  -0.184   0.465   0.020
    1UNL    H17   43  -0.186   0.161   0.144
    1UNL    H18   44  -0.079  -0.016   0.259
    1UNL    H19   45   0.042   0.103   0.230
    1UNL    H20   46   0.121  -0.136   0.163
    1UNL    H21   47   0.212   0.277  -0.101
    1UNL    H22   48   0.414   0.308  -0.168
    1UNL    H23   49   0.633   0.044  -0.089
    1UNL    H24   50   0.572  -0.180   0.005
    1UNL    H25   51   0.327  -0.228   0.046
   0.00000   0.00000   0.00000   0.00000   0.00000   0.00000   0.00000   0.00000   0.00000
Generated with MDTraj, t= 71.0
 51
    1UNL     C1    1  -0.474  -0.034  -0.025
    1UNL     C2    2  -0.360   0.069   0.004
    1UNL     O1    3  -0.369   0.180  -0.077
    1UNL     C3    4  -0.220   0.002   0.005
    1UNL     C4    5  -0.211  -0.146   0.051
    1UNL     N1    6  -0.065  -0.202   0.072
    1UNL     C5    7  -0.073  -0.311   0.175
    1UNL     C6    8  -0.014  -0.247  -0.060
    1UNL     C7    9   0.048  -0.127  -0.139
    1UNL     C8   10   0.104  -0.030  -0.026
    1UNL     C9   11   0.066   0.112  -0.055
    1UNL    C10   12  -0.040   0.182   0.001
    1UNL    C11   13  -0.040   0.328   0.006
    1UNL     O2   14   0.060   0.391  -0.017
    1UNL     O3   15  -0.160   0.401   0.029
    1UNL    C12   16  -0.133   0.094   0.096
    1UNL    C13   17  -0.041   0.011   0.193
    1UNL    C14   18   0.035  -0.089   0.109
    1UNL     N2   19   0.180   0.178  -0.097
    1UNL    C15   20   0.299   0.100  -0.078
    1UNL    C16   21   0.434   0.130  -0.097
    1UNL     O4   22   0.468   0.251  -0.146
    1UNL    C17   23   0.523   0.024  -0.071
    1UNL    C18   24   0.482  -0.099  -0.030
    1UNL    C19   25   0.343  -0.124  -0.016
    1UNL    C20   26   0.252  -0.022  -0.038
    1UNL     H1   27  -0.447  -0.088  -0.114
    1UNL     H2   28  -0.491  -0.105   0.057
    1UNL     H3   29  -0.573   0.021  -0.044
    1UNL     H4   30  -0.366   0.105   0.104
    1UNL     H5   31  -0.307   0.249  -0.046
    1UNL     H6   32  -0.181   0.012  -0.092
    1UNL     H7   33  -0.248  -0.207  -0.030
    1UNL     H8   34  -0.277  -0.170   0.137
    1UNL     H9   35  -0.147  -0.382   0.140
    1UNL    H10   36   0.027  -0.357   0.176
    1UNL    H11   37  -0.100  -0.266   0.272
    1UNL    H12   38   0.055  -0.328  -0.051
    1UNL    H13   39  -0.101  -0.283  -0.108
    1UNL    H14   40   0.144  -0.155  -0.194
    1UNL    H15   41  -0.022  -0.085  -0.205
    1UNL    H16   42  -0.147   0.493  -0.001
    1UNL    H17   43  -0.195   0.172   0.141
    1UNL    H18   44  -0.102  -0.033   0.273
    1UNL    H19   45   0.027   0.078   0.243
    1UNL    H20   46   0.109  -0.139   0.173
    1UNL    H21   47   0.189   0.276  -0.082
    1UNL    H22   48   0.392   0.292  -0.178
    1UNL    H23   49   0.627   0.049  -0.075
    1UNL    H24   50   0.544  -0.178  -0.004
    1UNL    H25   51   0.309  -0.205   0.047
   0.00000   0.00000   0.00000   0.00000   0.00000   0.00000   0.00000   0.00000   0.00000
Generated with MDTraj, t= 72.0
 51
    1UNL     C1    1  -0.451  -0.040  -0.083
    1UNL     C2    2  -0.366   0.061  -0.000
    1UNL     O1    3  -0.385   0.185  -0.058
    1UNL     C3    4  -0.216   0.011   0.023
    1UNL     C4    5  -0.201  -0.132   0.082
    1UNL     N1    6  -0.060  -0.191   0.070
    1UNL     C5    7  -0.050  -0.325   0.153
    1UNL     C6    8  -0.040  -0.228  -0.071
    1UNL     C7    9   0.043  -0.121  -0.135
    1UNL     C8   10   0.107  -0.022  -0.016
    1UNL     C9   11   0.078   0.127  -0.039
    1UNL    C10   12  -0.038   0.188   0.011
    1UNL    C11   13  -0.058   0.330   0.002
    1UNL     O2   14   0.037   0.400  -0.024
    1UNL     O3   15  -0.188   0.385   0.030
    1UNL    C12   16  -0.128   0.108   0.107
    1UNL    C13   17  -0.036   0.014   0.195
    1UNL    C14   18   0.042  -0.084   0.113
    1UNL     N2   19   0.192   0.188  -0.101
    1UNL    C15   20   0.300   0.090  -0.080
    1UNL    C16   21   0.436   0.112  -0.107
    1UNL     O4   22   0.474   0.231  -0.163
    1UNL    C17   23   0.533   0.009  -0.072
    1UNL    C18   24   0.480  -0.111  -0.027
    1UNL    C19   25   0.344  -0.129  -0.002
    1UNL    C20   26   0.255  -0.027  -0.026
    1UNL     H1   27  -0.396  -0.070  -0.169
    1UNL     H2   28  -0.490  -0.129  -0.030
    1UNL     H3   29  -0.550   0.008  -0.119
    1UNL     H4   30  -0.399   0.076   0.102
    1UNL     H5   31  -0.321   0.251  -0.026
    1UNL     H6   32  -0.179   0.013  -0.076
    1UNL     H7   33  -0.269  -0.202   0.041
    1UNL     H8   34  -0.213  -0.137   0.192
    1UNL     H9   35  -0.141  -0.381   0.123
    1UNL    H10   36   0.034  -0.377   0.110
    1UNL    H11   37  -0.047  -0.312   0.261
    1UNL    H12   38   0.003  -0.327  -0.076
    1UNL    H13   39  -0.133  -0.233  -0.120
    1UNL    H14   40   0.129  -0.166  -0.192
    1UNL    H15   41  -0.015  -0.061  -0.202
    1UNL    H16   42  -0.179   0.478   0.012
    1UNL    H17   43  -0.186   0.181   0.164
    1UNL    H18   44  -0.088  -0.034   0.278
    1UNL    H19   45   0.035   0.082   0.241
    1UNL    H20   46   0.119  -0.132   0.174
    1UNL    H21   47   0.212   0.285  -0.073
    1UNL    H22   48   0.396   0.286  -0.195
    1UNL    H23   49   0.638   0.032  -0.092
    1UNL    H24   50   0.553  -0.186   0.012
    1UNL    H25   51   0.312  -0.222   0.040
   0.00000   0.00000   0.00000   0.00000   0.00000   0.00000   0.00000   0.00000   0.00000
Generated with MDTraj, t= 73.0
 51
    1UNL     C1    1  -0.454  -0.041  -0.078
    1UNL     C2    2  -0.364   0.054  -0.002
    1UNL     O1    3  -0.390   0.189  -0.047
    1UNL     C3    4  -0.217   0.006   0.013
    1UNL     C4    5  -0.207  -0.133   0.079
    1UNL     N1    6  -0.061  -0.192   0.068
    1UNL     C5    7  -0.043  -0.322   0.149
    1UNL     C6    8  -0.025  -0.219  -0.073
    1UNL     C7    9   0.046  -0.100  -0.140
    1UNL     C8   10   0.111  -0.017  -0.020
    1UNL     C9   11   0.078   0.127  -0.037
    1UNL    C10   12  -0.034   0.184   0.019
    1UNL    C11   13  -0.057   0.328  -0.004
    1UNL     O2   14   0.005   0.392  -0.084
    1UNL     O3   15  -0.159   0.387   0.066
    1UNL    C12   16  -0.135   0.106   0.097
    1UNL    C13   17  -0.037   0.024   0.195
    1UNL    C14   18   0.039  -0.086   0.115
    1UNL     N2   19   0.199   0.184  -0.083
    1UNL    C15   20   0.306   0.090  -0.070
    1UNL    C16   21   0.440   0.110  -0.100
    1UNL     O4   22   0.470   0.239  -0.157
    1UNL    C17   23   0.524  -0.001  -0.087
    1UNL    C18   24   0.474  -0.118  -0.021
    1UNL    C19   25   0.340  -0.138   0.011
    1UNL    C20   26   0.258  -0.029  -0.018
    1UNL     H1   27  -0.427  -0.028  -0.183
    1UNL     H2   28  -0.453  -0.150  -0.052
    1UNL     H3   29  -0.560  -0.010  -0.061
    1UNL     H4   30  -0.412   0.062   0.098
    1UNL     H5   31  -0.323   0.249  -0.010
    1UNL     H6   32  -0.183   0.007  -0.091
    1UNL     H7   33  -0.261  -0.200   0.017
    1UNL     H8   34  -0.237  -0.129   0.185
    1UNL     H9   35  -0.072  -0.408   0.081
    1UNL    H10   36   0.060  -0.339   0.176
    1UNL    H11   37  -0.113  -0.320   0.230
    1UNL    H12   38   0.041  -0.306  -0.072
    1UNL    H13   39  -0.107  -0.251  -0.129
    1UNL    H14   40   0.126  -0.146  -0.202
    1UNL    H15   41  -0.012  -0.031  -0.205
    1UNL    H16   42  -0.167   0.474   0.027
    1UNL    H17   43  -0.199   0.171   0.158
    1UNL    H18   44  -0.093  -0.018   0.277
    1UNL    H19   45   0.037   0.093   0.236
    1UNL    H20   46   0.122  -0.131   0.171
    1UNL    H21   47   0.213   0.288  -0.092
    1UNL    H22   48   0.387   0.305  -0.156
    1UNL    H23   49   0.623  -0.002  -0.123
    1UNL    H24   50   0.542  -0.200  -0.003
    1UNL    H25   51   0.300  -0.237   0.034
   0.00000   0.00000   0.00000   0.00000   0.00000   0.00000   0.00000   0.00000   0.00000
Generated with MDTraj, t= 74.0
 51
    1UNL     C1    1  -0.471  -0.018  -0.040
    1UNL     C2    2  -0.359   0.069   0.015
    1UNL     O1    3  -0.374   0.201  -0.034
    1UNL     C3    4  -0.218   0.012   0.005
    1UNL     C4    5  -0.216  -0.136   0.044
    1UNL     N1    6  -0.070  -0.204   0.059
    1UNL     C5    7  -0.083  -0.298   0.168
    1UNL     C6    8  -0.006  -0.255  -0.073
    1UNL     C7    9   0.053  -0.129  -0.141
    1UNL     C8   10   0.108  -0.030  -0.026
    1UNL     C9   11   0.079   0.124  -0.044
    1UNL    C10   12  -0.032   0.174   0.012
    1UNL    C11   13  -0.059   0.318  -0.014
    1UNL     O2   14   0.007   0.377  -0.097
    1UNL     O3   15  -0.166   0.377   0.056
    1UNL    C12   16  -0.121   0.091   0.095
    1UNL    C13   17  -0.026   0.008   0.189
    1UNL    C14   18   0.039  -0.098   0.108
    1UNL     N2   19   0.194   0.190  -0.083
    1UNL    C15   20   0.297   0.101  -0.070
    1UNL    C16   21   0.435   0.127  -0.089
    1UNL     O4   22   0.483   0.246  -0.142
    1UNL    C17   23   0.523   0.023  -0.073
    1UNL    C18   24   0.483  -0.104  -0.022
    1UNL    C19   25   0.348  -0.122  -0.002
    1UNL    C20   26   0.256  -0.024  -0.026
    1UNL     H1   27  -0.437  -0.045  -0.145
    1UNL     H2   28  -0.495  -0.110   0.020
    1UNL     H3   29  -0.563   0.037  -0.042
    1UNL     H4   30  -0.389   0.077   0.124
    1UNL     H5   31  -0.299   0.253   0.004
    1UNL     H6   32  -0.180   0.031  -0.099
    1UNL     H7   33  -0.269  -0.189  -0.033
    1UNL     H8   34  -0.262  -0.137   0.143
    1UNL     H9   35  -0.181  -0.349   0.163
    1UNL    H10   36  -0.013  -0.376   0.140
    1UNL    H11   37  -0.074  -0.256   0.268
    1UNL    H12   38   0.072  -0.330  -0.057
    1UNL    H13   39  -0.074  -0.303  -0.137
    1UNL    H14   40   0.142  -0.138  -0.203
    1UNL    H15   41  -0.029  -0.077  -0.204
    1UNL    H16   42  -0.167   0.468   0.022
    1UNL    H17   43  -0.170   0.161   0.162
    1UNL    H18   44  -0.083  -0.037   0.268
    1UNL    H19   45   0.048   0.072   0.240
    1UNL    H20   46   0.117  -0.149   0.168
    1UNL    H21   47   0.196   0.296  -0.085
    1UNL    H22   48   0.407   0.312  -0.125
    1UNL    H23   49   0.628   0.034  -0.104
    1UNL    H24   50   0.551  -0.185  -0.010
    1UNL    H25   51   0.297  -0.215   0.015
   0.00000   0.00000   0.00000   0.00000   0.00000   0.00000   0.00000   0.00000   0.00000
Generated with MDTraj, t= 75.0
 51
    1UNL     C1    1  -0.487  -0.028  -0.020
    1UNL     C2    2  -0.376   0.061   0.028
    1UNL     O1    3  -0.391   0.192  -0.025
    1UNL     C3    4  -0.235   0.005   0.017
    1UNL     C4    5  -0.217  -0.136   0.090
    1UNL     N1    6  -0.070  -0.194   0.058
    1UNL     C5    7  -0.048  -0.321   0.135
    1UNL     C6    8  -0.050  -0.215  -0.095
    1UNL     C7    9   0.061  -0.129  -0.153
    1UNL     C8   10   0.107  -0.036  -0.024
    1UNL     C9   11   0.071   0.109  -0.054
    1UNL    C10   12  -0.038   0.175  -0.012
    1UNL    C11   13  -0.037   0.324  -0.022
    1UNL     O2   14   0.054   0.382  -0.074
    1UNL     O3   15  -0.152   0.373   0.031
    1UNL    C12   16  -0.127   0.101   0.078
    1UNL    C13   17  -0.030   0.030   0.178
    1UNL    C14   18   0.037  -0.088   0.105
    1UNL     N2   19   0.183   0.159  -0.110
    1UNL    C15   20   0.297   0.091  -0.082
    1UNL    C16   21   0.433   0.126  -0.089
    1UNL     O4   22   0.476   0.259  -0.125
    1UNL    C17   23   0.532   0.033  -0.044
    1UNL    C18   24   0.491  -0.095  -0.010
    1UNL    C19   25   0.355  -0.126   0.009
    1UNL    C20   26   0.261  -0.030  -0.022
    1UNL     H1   27  -0.451  -0.076  -0.118
    1UNL     H2   28  -0.524  -0.111   0.046
    1UNL     H3   29  -0.577   0.022  -0.043
    1UNL     H4   30  -0.394   0.066   0.141
    1UNL     H5   31  -0.312   0.247  -0.011
    1UNL     H6   32  -0.215  -0.006  -0.093
    1UNL     H7   33  -0.288  -0.210   0.054
    1UNL     H8   34  -0.225  -0.120   0.196
    1UNL     H9   35  -0.114  -0.399   0.104
    1UNL    H10   36   0.051  -0.364   0.118
    1UNL    H11   37  -0.077  -0.307   0.241
    1UNL    H12   38  -0.020  -0.315  -0.122
    1UNL    H13   39  -0.145  -0.202  -0.140
    1UNL    H14   40   0.141  -0.177  -0.208
    1UNL    H15   41   0.018  -0.043  -0.218
    1UNL    H16   42  -0.146   0.472   0.026
    1UNL    H17   43  -0.179   0.173   0.140
    1UNL    H18   44  -0.079   0.007   0.271
    1UNL    H19   45   0.048   0.099   0.215
    1UNL    H20   46   0.109  -0.141   0.170
    1UNL    H21   47   0.181   0.260  -0.127
    1UNL    H22   48   0.407   0.322  -0.129
    1UNL    H23   49   0.633   0.067  -0.041
    1UNL    H24   50   0.571  -0.171   0.012
    1UNL    H25   51   0.328  -0.223   0.047
   0.00000   0.00000   0.00000   0.00000   0.00000   0.00000   0.00000   0.00000   0.00000
Generated with MDTraj, t= 76.0
 51
    1UNL     C1    1  -0.475  -0.033   0.022
    1UNL     C2    2  -0.363   0.067   0.049
    1UNL     O1    3  -0.393   0.191  -0.019
    1UNL     C3    4  -0.220   0.014   0.020
    1UNL     C4    5  -0.204  -0.135   0.074
    1UNL     N1    6  -0.065  -0.194   0.039
    1UNL     C5    7  -0.059  -0.319   0.121
    1UNL     C6    8  -0.053  -0.210  -0.114
    1UNL     C7    9   0.063  -0.130  -0.163
    1UNL     C8   10   0.111  -0.042  -0.036
    1UNL     C9   11   0.079   0.105  -0.059
    1UNL    C10   12  -0.032   0.178  -0.013
    1UNL    C11   13  -0.055   0.331  -0.029
    1UNL     O2   14   0.031   0.410  -0.055
    1UNL     O3   15  -0.184   0.373  -0.009
    1UNL    C12   16  -0.109   0.109   0.088
    1UNL    C13   17  -0.009   0.028   0.184
    1UNL    C14   18   0.043  -0.094   0.091
    1UNL     N2   19   0.185   0.167  -0.114
    1UNL    C15   20   0.299   0.082  -0.076
    1UNL    C16   21   0.432   0.124  -0.081
    1UNL     O4   22   0.482   0.239  -0.135
    1UNL    C17   23   0.519   0.033  -0.019
    1UNL    C18   24   0.480  -0.094   0.029
    1UNL    C19   25   0.347  -0.140   0.013
    1UNL    C20   26   0.260  -0.044  -0.033
    1UNL     H1   27  -0.462  -0.046  -0.089
    1UNL     H2   28  -0.473  -0.134   0.068
    1UNL     H3   29  -0.575   0.005   0.038
    1UNL     H4   30  -0.364   0.081   0.162
    1UNL     H5   31  -0.315   0.252  -0.029
    1UNL     H6   32  -0.219   0.014  -0.094
    1UNL     H7   33  -0.280  -0.202   0.034
    1UNL     H8   34  -0.205  -0.128   0.181
    1UNL     H9   35  -0.115  -0.399   0.082
    1UNL    H10   36   0.045  -0.353   0.115
    1UNL    H11   37  -0.094  -0.315   0.227
    1UNL    H12   38  -0.049  -0.314  -0.133
    1UNL    H13   39  -0.141  -0.175  -0.169
    1UNL    H14   40   0.151  -0.191  -0.190
    1UNL    H15   41   0.031  -0.065  -0.253
    1UNL    H16   42  -0.176   0.472  -0.004
    1UNL    H17   43  -0.164   0.177   0.151
    1UNL    H18   44  -0.052  -0.008   0.275
    1UNL    H19   45   0.069   0.095   0.224
    1UNL    H20   46   0.113  -0.151   0.154
    1UNL    H21   47   0.183   0.268  -0.106
    1UNL    H22   48   0.416   0.285  -0.181
    1UNL    H23   49   0.619   0.070  -0.006
    1UNL    H24   50   0.539  -0.160   0.080
    1UNL    H25   51   0.315  -0.228   0.067
   0.00000   0.00000   0.00000   0.00000   0.00000   0.00000   0.00000   0.00000   0.00000
Generated with MDTraj, t= 77.0
 51
    1UNL     C1    1  -0.497  -0.029   0.058
    1UNL     C2    2  -0.378   0.066   0.062
    1UNL     O1    3  -0.405   0.179  -0.012
    1UNL     C3    4  -0.241   0.012   0.011
    1UNL     C4    5  -0.216  -0.134   0.045
    1UNL     N1    6  -0.074  -0.193   0.028
    1UNL     C5    7  -0.064  -0.323   0.121
    1UNL     C6    8  -0.041  -0.213  -0.112
    1UNL     C7    9   0.059  -0.103  -0.155
    1UNL     C8   10   0.111  -0.030  -0.033
    1UNL     C9   11   0.073   0.115  -0.050
    1UNL    C10   12  -0.042   0.177  -0.009
    1UNL    C11   13  -0.050   0.320  -0.045
    1UNL     O2   14   0.041   0.377  -0.101
    1UNL     O3   15  -0.166   0.382   0.001
    1UNL    C12   16  -0.124   0.092   0.085
    1UNL    C13   17  -0.030   0.011   0.173
    1UNL    C14   18   0.038  -0.096   0.087
    1UNL     N2   19   0.190   0.172  -0.086
    1UNL    C15   20   0.307   0.093  -0.071
    1UNL    C16   21   0.445   0.124  -0.088
    1UNL     O4   22   0.508   0.239  -0.126
    1UNL    C17   23   0.533   0.025  -0.042
    1UNL    C18   24   0.496  -0.090   0.019
    1UNL    C19   25   0.359  -0.121   0.032
    1UNL    C20   26   0.265  -0.029  -0.021
    1UNL     H1   27  -0.507  -0.046  -0.050
    1UNL     H2   28  -0.473  -0.120   0.114
    1UNL     H3   29  -0.591   0.024   0.095
    1UNL     H4   30  -0.361   0.094   0.170
    1UNL     H5   31  -0.330   0.240  -0.003
    1UNL     H6   32  -0.219   0.042  -0.098
    1UNL     H7   33  -0.288  -0.192  -0.013
    1UNL     H8   34  -0.233  -0.147   0.148
    1UNL     H9   35  -0.146  -0.388   0.105
    1UNL    H10   36   0.018  -0.385   0.087
    1UNL    H11   37  -0.061  -0.314   0.232
    1UNL    H12   38   0.012  -0.304  -0.123
    1UNL    H13   39  -0.136  -0.222  -0.165
    1UNL    H14   40   0.143  -0.154  -0.212
    1UNL    H15   41   0.010  -0.020  -0.215
    1UNL    H16   42  -0.153   0.473  -0.032
    1UNL    H17   43  -0.176   0.162   0.148
    1UNL    H18   44  -0.081  -0.036   0.255
    1UNL    H19   45   0.038   0.076   0.229
    1UNL    H20   46   0.115  -0.145   0.150
    1UNL    H21   47   0.203   0.270  -0.085
    1UNL    H22   48   0.445   0.311  -0.137
    1UNL    H23   49   0.640   0.052  -0.051
    1UNL    H24   50   0.585  -0.149   0.060
    1UNL    H25   51   0.319  -0.202   0.087
   0.00000   0.00000   0.00000   0.00000   0.00000   0.00000   0.00000   0.00000   0.00000
Generated with MDTraj, t= 78.0
 51
    1UNL     C1    1  -0.481  -0.030   0.006
    1UNL     C2    2  -0.373   0.069   0.054
    1UNL     O1    3  -0.410   0.208   0.024
    1UNL     C3    4  -0.231   0.019   0.014
    1UNL     C4    5  -0.214  -0.136   0.038
    1UNL     N1    6  -0.064  -0.189   0.036
    1UNL     C5    7  -0.068  -0.310   0.124
    1UNL     C6    8  -0.027  -0.227  -0.102
    1UNL     C7    9   0.073  -0.118  -0.149
    1UNL     C8   10   0.114  -0.031  -0.029
    1UNL     C9   11   0.078   0.110  -0.055
    1UNL    C10   12  -0.039   0.170  -0.015
    1UNL    C11   13  -0.069   0.311  -0.051
    1UNL     O2   14  -0.001   0.376  -0.124
    1UNL     O3   15  -0.168   0.373   0.014
    1UNL    C12   16  -0.118   0.105   0.094
    1UNL    C13   17  -0.023   0.025   0.185
    1UNL    C14   18   0.041  -0.086   0.097
    1UNL     N2   19   0.198   0.177  -0.083
    1UNL    C15   20   0.311   0.097  -0.055
    1UNL    C16   21   0.447   0.119  -0.067
    1UNL     O4   22   0.486   0.238  -0.118
    1UNL    C17   23   0.539   0.016  -0.052
    1UNL    C18   24   0.492  -0.110  -0.006
    1UNL    C19   25   0.361  -0.129   0.015
    1UNL    C20   26   0.267  -0.028  -0.012
    1UNL     H1   27  -0.461  -0.041  -0.099
    1UNL     H2   28  -0.483  -0.129   0.056
    1UNL     H3   29  -0.584   0.023   0.008
    1UNL     H4   30  -0.373   0.071   0.163
    1UNL     H5   31  -0.331   0.271   0.032
    1UNL     H6   32  -0.228   0.059  -0.094
    1UNL     H7   33  -0.262  -0.182  -0.049
    1UNL     H8   34  -0.269  -0.164   0.124
    1UNL     H9   35  -0.142  -0.372   0.074
    1UNL    H10   36   0.023  -0.368   0.117
    1UNL    H11   37  -0.110  -0.297   0.224
    1UNL    H12   38   0.009  -0.326  -0.097
    1UNL    H13   39  -0.115  -0.230  -0.167
    1UNL    H14   40   0.176  -0.153  -0.192
    1UNL    H15   41   0.021  -0.052  -0.222
    1UNL    H16   42  -0.174   0.460  -0.025
    1UNL    H17   43  -0.169   0.181   0.153
    1UNL    H18   44  -0.072  -0.017   0.272
    1UNL    H19   45   0.055   0.085   0.230
    1UNL    H20   46   0.118  -0.143   0.152
    1UNL    H21   47   0.209   0.278  -0.086
    1UNL    H22   48   0.409   0.307  -0.110
    1UNL    H23   49   0.636   0.036  -0.086
    1UNL    H24   50   0.548  -0.196  -0.007
    1UNL    H25   51   0.320  -0.228   0.036
   0.00000   0.00000   0.00000   0.00000   0.00000   0.00000   0.00000   0.00000   0.00000
Generated with MDTraj, t= 79.0
 51
    1UNL     C1    1  -0.467  -0.011  -0.052
    1UNL     C2    2  -0.374   0.059   0.042
    1UNL     O1    3  -0.395   0.196   0.033
    1UNL     C3    4  -0.231   0.017   0.021
    1UNL     C4    5  -0.213  -0.141   0.054
    1UNL     N1    6  -0.069  -0.193   0.063
    1UNL     C5    7  -0.055  -0.327   0.138
    1UNL     C6    8  -0.024  -0.227  -0.077
    1UNL     C7    9   0.042  -0.109  -0.140
    1UNL     C8   10   0.108  -0.033  -0.025
    1UNL     C9   11   0.079   0.116  -0.049
    1UNL    C10   12  -0.037   0.175  -0.013
    1UNL    C11   13  -0.058   0.316  -0.036
    1UNL     O2   14   0.021   0.368  -0.108
    1UNL     O3   15  -0.169   0.384   0.016
    1UNL    C12   16  -0.120   0.107   0.087
    1UNL    C13   17  -0.027   0.028   0.172
    1UNL    C14   18   0.044  -0.087   0.106
    1UNL     N2   19   0.194   0.173  -0.102
    1UNL    C15   20   0.306   0.091  -0.069
    1UNL    C16   21   0.445   0.124  -0.074
    1UNL     O4   22   0.481   0.252  -0.122
    1UNL    C17   23   0.532   0.024  -0.040
    1UNL    C18   24   0.484  -0.104  -0.004
    1UNL    C19   25   0.348  -0.140  -0.010
    1UNL    C20   26   0.259  -0.034  -0.030
    1UNL     H1   27  -0.459   0.023  -0.154
    1UNL     H2   28  -0.458  -0.122  -0.053
    1UNL     H3   29  -0.577   0.007  -0.031
    1UNL     H4   30  -0.385   0.031   0.144
    1UNL     H5   31  -0.319   0.257   0.033
    1UNL     H6   32  -0.209   0.024  -0.092
    1UNL     H7   33  -0.267  -0.202  -0.018
    1UNL     H8   34  -0.253  -0.172   0.147
    1UNL     H9   35  -0.095  -0.416   0.085
    1UNL    H10   36   0.052  -0.339   0.138
    1UNL    H11   37  -0.103  -0.326   0.233
    1UNL    H12   38   0.037  -0.312  -0.080
    1UNL    H13   39  -0.117  -0.258  -0.125
    1UNL    H14   40   0.117  -0.129  -0.230
    1UNL    H15   41  -0.033  -0.035  -0.176
    1UNL    H16   42  -0.162   0.472  -0.024
    1UNL    H17   43  -0.164   0.175   0.159
    1UNL    H18   44  -0.087  -0.021   0.249
    1UNL    H19   45   0.037   0.095   0.227
    1UNL    H20   46   0.128  -0.134   0.161
    1UNL    H21   47   0.202   0.277  -0.113
    1UNL    H22   48   0.394   0.306  -0.145
    1UNL    H23   49   0.642   0.035  -0.046
    1UNL    H24   50   0.566  -0.179   0.021
    1UNL    H25   51   0.314  -0.240  -0.022
   0.00000   0.00000   0.00000   0.00000   0.00000   0.00000   0.00000   0.00000   0.00000
Generated with MDTraj, t= 80.0
 51
    1UNL     C1    1  -0.451  -0.019  -0.086
    1UNL     C2    2  -0.365   0.050   0.022
    1UNL     O1    3  -0.391   0.190   0.018
    1UNL     C3    4  -0.219   0.004   0.015
    1UNL     C4    5  -0.214  -0.148   0.067
    1UNL     N1    6  -0.064  -0.192   0.065
    1UNL     C5    7  -0.050  -0.307   0.170
    1UNL     C6    8  -0.037  -0.238  -0.075
    1UNL     C7    9   0.037  -0.123  -0.139
    1UNL     C8   10   0.102  -0.025  -0.031
    1UNL     C9   11   0.073   0.121  -0.056
    1UNL    C10   12  -0.040   0.177  -0.005
    1UNL    C11   13  -0.057   0.325  -0.015
    1UNL     O2   14   0.040   0.384  -0.051
    1UNL     O3   15  -0.177   0.386   0.014
    1UNL    C12   16  -0.124   0.099   0.095
    1UNL    C13   17  -0.023   0.029   0.186
    1UNL    C14   18   0.041  -0.085   0.103
    1UNL     N2   19   0.190   0.177  -0.113
    1UNL    C15   20   0.303   0.094  -0.090
    1UNL    C16   21   0.443   0.124  -0.091
    1UNL     O4   22   0.486   0.241  -0.129
    1UNL    C17   23   0.527   0.019  -0.058
    1UNL    C18   24   0.477  -0.106  -0.016
    1UNL    C19   25   0.339  -0.126   0.002
    1UNL    C20   26   0.255  -0.027  -0.039
    1UNL     H1   27  -0.418   0.020  -0.186
    1UNL     H2   28  -0.447  -0.131  -0.087
    1UNL     H3   29  -0.556   0.011  -0.087
    1UNL     H4   30  -0.399   0.016   0.117
    1UNL     H5   31  -0.321   0.263   0.023
    1UNL     H6   32  -0.183   0.005  -0.095
    1UNL     H7   33  -0.261  -0.215  -0.004
    1UNL     H8   34  -0.270  -0.167   0.157
    1UNL     H9   35  -0.153  -0.346   0.187
    1UNL    H10   36   0.012  -0.386   0.129
    1UNL    H11   37  -0.029  -0.267   0.266
    1UNL    H12   38   0.014  -0.329  -0.057
    1UNL    H13   39  -0.125  -0.267  -0.132
    1UNL    H14   40   0.126  -0.171  -0.197
    1UNL    H15   41  -0.022  -0.061  -0.212
    1UNL    H16   42  -0.164   0.483   0.006
    1UNL    H17   43  -0.190   0.169   0.145
    1UNL    H18   44  -0.069  -0.008   0.278
    1UNL    H19   45   0.053   0.097   0.219
    1UNL    H20   46   0.124  -0.137   0.154
    1UNL    H21   47   0.186   0.279  -0.089
    1UNL    H22   48   0.407   0.297  -0.138
    1UNL    H23   49   0.631   0.037  -0.055
    1UNL    H24   50   0.550  -0.174   0.024
    1UNL    H25   51   0.309  -0.221   0.048
   0.00000   0.00000   0.00000   0.00000   0.00000   0.00000   0.00000   0.00000   0.00000
Generated with MDTraj, t= 81.0
 51
    1UNL     C1    1  -0.450  -0.039  -0.092
    1UNL     C2    2  -0.374   0.051   0.008
    1UNL     O1    3  -0.396   0.190  -0.016
    1UNL     C3    4  -0.223   0.008   0.009
    1UNL     C4    5  -0.207  -0.137   0.056
    1UNL     N1    6  -0.067  -0.186   0.073
    1UNL     C5    7  -0.051  -0.308   0.179
    1UNL     C6    8  -0.034  -0.231  -0.072
    1UNL     C7    9   0.055  -0.127  -0.137
    1UNL     C8   10   0.103  -0.029  -0.026
    1UNL     C9   11   0.068   0.120  -0.051
    1UNL    C10   12  -0.045   0.180  -0.002
    1UNL    C11   13  -0.047   0.330  -0.007
    1UNL     O2   14   0.047   0.402  -0.030
    1UNL     O3   15  -0.171   0.389   0.033
    1UNL    C12   16  -0.132   0.100   0.094
    1UNL    C13   17  -0.028   0.031   0.185
    1UNL    C14   18   0.042  -0.082   0.107
    1UNL     N2   19   0.191   0.179  -0.082
    1UNL    C15   20   0.301   0.093  -0.072
    1UNL    C16   21   0.433   0.112  -0.103
    1UNL     O4   22   0.462   0.239  -0.161
    1UNL    C17   23   0.525   0.009  -0.079
    1UNL    C18   24   0.488  -0.112  -0.029
    1UNL    C19   25   0.352  -0.131   0.004
    1UNL    C20   26   0.257  -0.031  -0.023
    1UNL     H1   27  -0.393  -0.027  -0.190
    1UNL     H2   28  -0.452  -0.144  -0.054
    1UNL     H3   29  -0.547   0.001  -0.109
    1UNL     H4   30  -0.416   0.030   0.106
    1UNL     H5   31  -0.323   0.251   0.005
    1UNL     H6   32  -0.188   0.023  -0.101
    1UNL     H7   33  -0.264  -0.191  -0.015
    1UNL     H8   34  -0.247  -0.150   0.156
    1UNL     H9   35  -0.076  -0.405   0.135
    1UNL    H10   36   0.056  -0.313   0.198
    1UNL    H11   37  -0.122  -0.301   0.259
    1UNL    H12   38   0.009  -0.327  -0.061
    1UNL    H13   39  -0.127  -0.249  -0.122
    1UNL    H14   40   0.151  -0.166  -0.184
    1UNL    H15   41  -0.009  -0.071  -0.215
    1UNL    H16   42  -0.153   0.487   0.037
    1UNL    H17   43  -0.205   0.160   0.147
    1UNL    H18   44  -0.077  -0.010   0.274
    1UNL    H19   45   0.044   0.104   0.214
    1UNL    H20   46   0.120  -0.130   0.169
    1UNL    H21   47   0.199   0.278  -0.062
    1UNL    H22   48   0.385   0.283  -0.186
    1UNL    H23   49   0.628   0.040  -0.087
    1UNL    H24   50   0.556  -0.184   0.006
    1UNL    H25   51   0.330  -0.220   0.058
   0.00000   0.00000   0.00000   0.00000   0.00000   0.00000   0.00000   0.00000   0.00000
Generated with MDTraj, t= 82.0
 51
    1UNL     C1    1  -0.468  -0.025  -0.054
    1UNL     C2    2  -0.363   0.070  -0.007
    1UNL     O1    3  -0.357   0.178  -0.098
    1UNL     C3    4  -0.219   0.012   0.014
    1UNL     C4    5  -0.204  -0.144   0.051
    1UNL     N1    6  -0.058  -0.202   0.071
    1UNL     C5    7  -0.066  -0.327   0.151
    1UNL     C6    8  -0.012  -0.230  -0.070
    1UNL     C7    9   0.052  -0.099  -0.126
    1UNL     C8   10   0.107  -0.023  -0.001
    1UNL     C9   11   0.076   0.126  -0.018
    1UNL    C10   12  -0.038   0.185   0.026
    1UNL    C11   13  -0.062   0.328  -0.001
    1UNL     O2   14   0.016   0.396  -0.062
    1UNL     O3   15  -0.178   0.385   0.058
    1UNL    C12   16  -0.127   0.104   0.108
    1UNL    C13   17  -0.041   0.016   0.213
    1UNL    C14   18   0.039  -0.093   0.130
    1UNL     N2   19   0.186   0.189  -0.078
    1UNL    C15   20   0.295   0.096  -0.073
    1UNL    C16   21   0.428   0.114  -0.120
    1UNL     O4   22   0.480   0.232  -0.169
    1UNL    C17   23   0.515   0.008  -0.099
    1UNL    C18   24   0.483  -0.106  -0.033
    1UNL    C19   25   0.353  -0.136   0.004
    1UNL    C20   26   0.261  -0.028  -0.013
    1UNL     H1   27  -0.435  -0.053  -0.160
    1UNL     H2   28  -0.475  -0.110   0.016
    1UNL     H3   29  -0.562   0.026  -0.065
    1UNL     H4   30  -0.388   0.104   0.096
    1UNL     H5   31  -0.298   0.251  -0.053
    1UNL     H6   32  -0.160   0.027  -0.082
    1UNL     H7   33  -0.250  -0.202  -0.023
    1UNL     H8   34  -0.259  -0.153   0.143
    1UNL     H9   35  -0.164  -0.369   0.135
    1UNL    H10   36   0.008  -0.400   0.118
    1UNL    H11   37  -0.072  -0.305   0.258
    1UNL    H12   38   0.052  -0.317  -0.072
    1UNL    H13   39  -0.104  -0.253  -0.118
    1UNL    H14   40   0.135  -0.121  -0.199
    1UNL    H15   41  -0.032  -0.035  -0.177
    1UNL    H16   42  -0.179   0.483   0.039
    1UNL    H17   43  -0.189   0.173   0.166
    1UNL    H18   44  -0.103  -0.030   0.291
    1UNL    H19   45   0.031   0.080   0.258
    1UNL    H20   46   0.119  -0.140   0.189
    1UNL    H21   47   0.196   0.287  -0.090
    1UNL    H22   48   0.422   0.275  -0.231
    1UNL    H23   49   0.617   0.018  -0.137
    1UNL    H24   50   0.565  -0.185  -0.017
    1UNL    H25   51   0.321  -0.232   0.047
   0.00000   0.00000   0.00000   0.00000   0.00000   0.00000   0.00000   0.00000   0.00000
Generated with MDTraj, t= 83.0
 51
    1UNL     C1    1  -0.466  -0.024  -0.049
    1UNL     C2    2  -0.356   0.067   0.002
    1UNL     O1    3  -0.353   0.184  -0.088
    1UNL     C3    4  -0.214   0.010   0.021
    1UNL     C4    5  -0.211  -0.133   0.083
    1UNL     N1    6  -0.071  -0.190   0.068
    1UNL     C5    7  -0.065  -0.323   0.136
    1UNL     C6    8  -0.041  -0.212  -0.088
    1UNL     C7    9   0.064  -0.116  -0.135
    1UNL     C8   10   0.107  -0.033  -0.007
    1UNL     C9   11   0.073   0.111  -0.034
    1UNL    C10   12  -0.038   0.176   0.013
    1UNL    C11   13  -0.060   0.324  -0.008
    1UNL     O2   14   0.013   0.397  -0.070
    1UNL     O3   15  -0.182   0.364   0.050
    1UNL    C12   16  -0.116   0.100   0.107
    1UNL    C13   17  -0.018   0.024   0.201
    1UNL    C14   18   0.040  -0.093   0.123
    1UNL     N2   19   0.185   0.182  -0.072
    1UNL    C15   20   0.300   0.097  -0.061
    1UNL    C16   21   0.435   0.124  -0.100
    1UNL     O4   22   0.475   0.235  -0.168
    1UNL    C17   23   0.525   0.016  -0.080
    1UNL    C18   24   0.477  -0.108  -0.033
    1UNL    C19   25   0.348  -0.125   0.006
    1UNL    C20   26   0.256  -0.024  -0.009
    1UNL     H1   27  -0.431  -0.057  -0.148
    1UNL     H2   28  -0.499  -0.111   0.007
    1UNL     H3   29  -0.559   0.032  -0.079
    1UNL     H4   30  -0.380   0.106   0.107
    1UNL     H5   31  -0.286   0.247  -0.055
    1UNL     H6   32  -0.171   0.009  -0.083
    1UNL     H7   33  -0.279  -0.197   0.037
    1UNL     H8   34  -0.233  -0.133   0.190
    1UNL     H9   35  -0.143  -0.389   0.109
    1UNL    H10   36   0.025  -0.384   0.122
    1UNL    H11   37  -0.089  -0.311   0.242
    1UNL    H12   38   0.006  -0.309  -0.079
    1UNL    H13   39  -0.126  -0.219  -0.151
    1UNL    H14   40   0.137  -0.166  -0.206
    1UNL    H15   41   0.010  -0.035  -0.198
    1UNL    H16   42  -0.193   0.460   0.038
    1UNL    H17   43  -0.172   0.164   0.175
    1UNL    H18   44  -0.066  -0.013   0.293
    1UNL    H19   45   0.059   0.093   0.228
    1UNL    H20   46   0.112  -0.148   0.186
    1UNL    H21   47   0.177   0.282  -0.088
    1UNL    H22   48   0.392   0.272  -0.217
    1UNL    H23   49   0.618   0.014  -0.132
    1UNL    H24   50   0.533  -0.189  -0.056
    1UNL    H25   51   0.313  -0.222   0.035
   0.00000   0.00000   0.00000   0.00000   0.00000   0.00000   0.00000   0.00000   0.00000
Generated with MDTraj, t= 84.0
 51
    1UNL     C1    1  -0.464  -0.045  -0.056
    1UNL     C2    2  -0.375   0.050   0.018
    1UNL     O1    3  -0.395   0.189  -0.006
    1UNL     C3    4  -0.228   0.012   0.013
    1UNL     C4    5  -0.214  -0.128   0.079
    1UNL     N1    6  -0.073  -0.189   0.062
    1UNL     C5    7  -0.050  -0.300   0.149
    1UNL     C6    8  -0.041  -0.229  -0.089
    1UNL     C7    9   0.044  -0.120  -0.148
    1UNL     C8   10   0.103  -0.031  -0.032
    1UNL     C9   11   0.078   0.114  -0.048
    1UNL    C10   12  -0.029   0.179   0.002
    1UNL    C11   13  -0.035   0.325  -0.014
    1UNL     O2   14   0.058   0.382  -0.066
    1UNL     O3   15  -0.157   0.377   0.031
    1UNL    C12   16  -0.123   0.104   0.089
    1UNL    C13   17  -0.022   0.027   0.182
    1UNL    C14   18   0.041  -0.089   0.100
    1UNL     N2   19   0.184   0.169  -0.108
    1UNL    C15   20   0.295   0.089  -0.086
    1UNL    C16   21   0.424   0.121  -0.093
    1UNL     O4   22   0.473   0.251  -0.129
    1UNL    C17   23   0.514   0.029  -0.051
    1UNL    C18   24   0.478  -0.096  -0.012
    1UNL    C19   25   0.349  -0.133   0.008
    1UNL    C20   26   0.257  -0.031  -0.026
    1UNL     H1   27  -0.424  -0.064  -0.153
    1UNL     H2   28  -0.475  -0.141  -0.006
    1UNL     H3   29  -0.570  -0.009  -0.077
    1UNL     H4   30  -0.405   0.052   0.129
    1UNL     H5   31  -0.310   0.244   0.002
    1UNL     H6   32  -0.201   0.013  -0.095
    1UNL     H7   33  -0.279  -0.199   0.039
    1UNL     H8   34  -0.240  -0.132   0.183
    1UNL     H9   35  -0.088  -0.394   0.119
    1UNL    H10   36   0.054  -0.330   0.166
    1UNL    H11   37  -0.100  -0.288   0.246
    1UNL    H12   38   0.010  -0.324  -0.089
    1UNL    H13   39  -0.132  -0.248  -0.136
    1UNL    H14   40   0.141  -0.156  -0.197
    1UNL    H15   41  -0.015  -0.065  -0.229
    1UNL    H16   42  -0.143   0.471   0.018
    1UNL    H17   43  -0.182   0.173   0.150
    1UNL    H18   44  -0.069  -0.002   0.276
    1UNL    H19   45   0.055   0.095   0.215
    1UNL    H20   46   0.120  -0.137   0.162
    1UNL    H21   47   0.197   0.268  -0.083
    1UNL    H22   48   0.393   0.289  -0.184
    1UNL    H23   49   0.620   0.056  -0.060
    1UNL    H24   50   0.562  -0.171  -0.003
    1UNL    H25   51   0.325  -0.230   0.052
   0.00000   0.00000   0.00000   0.00000   0.00000   0.00000   0.00000   0.00000   0.00000
Generated with MDTraj, t= 85.0
 51
    1UNL     C1    1  -0.483  -0.014  -0.020
    1UNL     C2    2  -0.359   0.058   0.039
    1UNL     O1    3  -0.387   0.198   0.028
    1UNL     C3    4  -0.219   0.008  -0.001
    1UNL     C4    5  -0.209  -0.142   0.038
    1UNL     N1    6  -0.067  -0.199   0.051
    1UNL     C5    7  -0.051  -0.292   0.170
    1UNL     C6    8  -0.016  -0.254  -0.089
    1UNL     C7    9   0.050  -0.135  -0.154
    1UNL     C8   10   0.097  -0.035  -0.045
    1UNL     C9   11   0.070   0.115  -0.068
    1UNL    C10   12  -0.039   0.176  -0.007
    1UNL    C11   13  -0.054   0.322  -0.027
    1UNL     O2   14   0.028   0.395  -0.077
    1UNL     O3   15  -0.168   0.374   0.023
    1UNL    C12   16  -0.125   0.099   0.083
    1UNL    C13   17  -0.023   0.026   0.173
    1UNL    C14   18   0.041  -0.090   0.086
    1UNL     N2   19   0.187   0.174  -0.115
    1UNL    C15   20   0.298   0.094  -0.088
    1UNL    C16   21   0.442   0.126  -0.080
    1UNL     O4   22   0.498   0.256  -0.110
    1UNL    C17   23   0.524   0.020  -0.030
    1UNL    C18   24   0.473  -0.103   0.008
    1UNL    C19   25   0.339  -0.129   0.002
    1UNL    C20   26   0.250  -0.036  -0.048
    1UNL     H1   27  -0.487   0.014  -0.121
    1UNL     H2   28  -0.487  -0.124  -0.004
    1UNL     H3   29  -0.573   0.038   0.028
    1UNL     H4   30  -0.369   0.046   0.152
    1UNL     H5   31  -0.307   0.254   0.019
    1UNL     H6   32  -0.198   0.020  -0.107
    1UNL     H7   33  -0.277  -0.204  -0.016
    1UNL     H8   34  -0.250  -0.156   0.136
    1UNL     H9   35  -0.119  -0.376   0.167
    1UNL    H10   36   0.039  -0.353   0.177
    1UNL    H11   37  -0.067  -0.252   0.271
    1UNL    H12   38   0.046  -0.338  -0.062
    1UNL    H13   39  -0.094  -0.288  -0.150
    1UNL    H14   40   0.135  -0.159  -0.228
    1UNL    H15   41  -0.025  -0.077  -0.214
    1UNL    H16   42  -0.153   0.470   0.010
    1UNL    H17   43  -0.185   0.174   0.135
    1UNL    H18   44  -0.075  -0.015   0.259
    1UNL    H19   45   0.048   0.097   0.215
    1UNL    H20   46   0.119  -0.139   0.147
    1UNL    H21   47   0.183   0.279  -0.109
    1UNL    H22   48   0.429   0.299  -0.171
    1UNL    H23   49   0.627   0.039  -0.012
    1UNL    H24   50   0.529  -0.174   0.072
    1UNL    H25   51   0.299  -0.217   0.049
   0.00000   0.00000   0.00000   0.00000   0.00000   0.00000   0.00000   0.00000   0.00000
Generated with MDTraj, t= 86.0
 51
    1UNL     C1    1  -0.484  -0.042   0.021
    1UNL     C2    2  -0.374   0.064   0.056
    1UNL     O1    3  -0.411   0.190   0.015
    1UNL     C3    4  -0.231   0.022   0.005
    1UNL     C4    5  -0.208  -0.133   0.046
    1UNL     N1    6  -0.066  -0.195   0.047
    1UNL     C5    7  -0.077  -0.325   0.116
    1UNL     C6    8  -0.028  -0.232  -0.095
    1UNL     C7    9   0.055  -0.112  -0.148
    1UNL     C8   10   0.106  -0.031  -0.028
    1UNL     C9   11   0.079   0.118  -0.053
    1UNL    C10   12  -0.032   0.183  -0.011
    1UNL    C11   13  -0.050   0.325  -0.043
    1UNL     O2   14   0.015   0.382  -0.126
    1UNL     O3   15  -0.152   0.390   0.020
    1UNL    C12   16  -0.120   0.107   0.074
    1UNL    C13   17  -0.035   0.024   0.177
    1UNL    C14   18   0.035  -0.089   0.096
    1UNL     N2   19   0.201   0.176  -0.089
    1UNL    C15   20   0.306   0.087  -0.066
    1UNL    C16   21   0.443   0.123  -0.073
    1UNL     O4   22   0.486   0.245  -0.112
    1UNL    C17   23   0.534   0.027  -0.042
    1UNL    C18   24   0.498  -0.098  -0.003
    1UNL    C19   25   0.361  -0.140   0.008
    1UNL    C20   26   0.264  -0.041  -0.023
    1UNL     H1   27  -0.481  -0.061  -0.086
    1UNL     H2   28  -0.464  -0.138   0.074
    1UNL     H3   29  -0.583   0.002   0.047
    1UNL     H4   30  -0.374   0.071   0.168
    1UNL     H5   31  -0.333   0.256   0.018
    1UNL     H6   32  -0.229   0.030  -0.102
    1UNL     H7   33  -0.269  -0.201  -0.007
    1UNL     H8   34  -0.252  -0.141   0.141
    1UNL     H9   35  -0.162  -0.382   0.074
    1UNL    H10   36   0.000  -0.400   0.111
    1UNL    H11   37  -0.100  -0.315   0.220
    1UNL    H12   38   0.019  -0.329  -0.102
    1UNL    H13   39  -0.121  -0.243  -0.144
    1UNL    H14   40   0.140  -0.159  -0.210
    1UNL    H15   41   0.001  -0.040  -0.213
    1UNL    H16   42  -0.151   0.477  -0.030
    1UNL    H17   43  -0.179   0.176   0.137
    1UNL    H18   44  -0.095  -0.010   0.259
    1UNL    H19   45   0.041   0.090   0.222
    1UNL    H20   46   0.106  -0.135   0.167
    1UNL    H21   47   0.203   0.279  -0.099
    1UNL    H22   48   0.411   0.291  -0.151
    1UNL    H23   49   0.638   0.054  -0.021
    1UNL    H24   50   0.573  -0.157   0.033
    1UNL    H25   51   0.327  -0.236   0.039
   0.00000   0.00000   0.00000   0.00000   0.00000   0.00000   0.00000   0.00000   0.00000
Generated with MDTraj, t= 87.0
 51
    1UNL     C1    1  -0.496  -0.013   0.031
    1UNL     C2    2  -0.377   0.081   0.051
    1UNL     O1    3  -0.404   0.201  -0.024
    1UNL     C3    4  -0.233   0.023   0.029
    1UNL     C4    5  -0.204  -0.132   0.067
    1UNL     N1    6  -0.067  -0.183   0.041
    1UNL     C5    7  -0.047  -0.330   0.089
    1UNL     C6    8  -0.046  -0.197  -0.109
    1UNL     C7    9   0.082  -0.120  -0.147
    1UNL     C8   10   0.114  -0.037  -0.027
    1UNL     C9   11   0.075   0.104  -0.044
    1UNL    C10   12  -0.037   0.168  -0.004
    1UNL    C11   13  -0.069   0.312  -0.044
    1UNL     O2   14   0.011   0.370  -0.113
    1UNL     O3   15  -0.188   0.363  -0.001
    1UNL    C12   16  -0.123   0.104   0.104
    1UNL    C13   17  -0.027   0.014   0.189
    1UNL    C14   18   0.041  -0.089   0.099
    1UNL     N2   19   0.194   0.174  -0.083
    1UNL    C15   20   0.312   0.096  -0.060
    1UNL    C16   21   0.448   0.122  -0.073
    1UNL     O4   22   0.495   0.244  -0.124
    1UNL    C17   23   0.538   0.016  -0.052
    1UNL    C18   24   0.493  -0.108  -0.003
    1UNL    C19   25   0.359  -0.126   0.017
    1UNL    C20   26   0.270  -0.027  -0.018
    1UNL     H1   27  -0.496  -0.069  -0.068
    1UNL     H2   28  -0.519  -0.089   0.107
    1UNL     H3   29  -0.580   0.056   0.025
    1UNL     H4   30  -0.368   0.111   0.155
    1UNL     H5   31  -0.341   0.273  -0.011
    1UNL     H6   32  -0.205   0.028  -0.075
    1UNL     H7   33  -0.282  -0.191   0.023
    1UNL     H8   34  -0.220  -0.152   0.168
    1UNL     H9   35  -0.101  -0.417   0.042
    1UNL    H10   36   0.056  -0.353   0.067
    1UNL    H11   37  -0.051  -0.341   0.194
    1UNL    H12   38  -0.034  -0.300  -0.131
    1UNL    H13   39  -0.130  -0.162  -0.165
    1UNL    H14   40   0.173  -0.188  -0.165
    1UNL    H15   41   0.055  -0.062  -0.240
    1UNL    H16   42  -0.190   0.455  -0.040
    1UNL    H17   43  -0.169   0.176   0.176
    1UNL    H18   44  -0.083  -0.042   0.261
    1UNL    H19   45   0.045   0.077   0.245
    1UNL    H20   46   0.103  -0.149   0.168
    1UNL    H21   47   0.197   0.273  -0.063
    1UNL    H22   48   0.424   0.303  -0.121
    1UNL    H23   49   0.640   0.036  -0.075
    1UNL    H24   50   0.562  -0.201   0.016
    1UNL    H25   51   0.322  -0.228   0.033
   0.00000   0.00000   0.00000   0.00000   0.00000   0.00000   0.00000   0.00000   0.00000
Generated with MDTraj, t= 88.0
 51
    1UNL     C1    1  -0.481  -0.048   0.034
    1UNL     C2    2  -0.376   0.063   0.051
    1UNL     O1    3  -0.415   0.180  -0.020
    1UNL     C3    4  -0.234   0.017   0.025
    1UNL     C4    5  -0.217  -0.135   0.076
    1UNL     N1    6  -0.075  -0.183   0.037
    1UNL     C5    7  -0.069  -0.321   0.103
    1UNL     C6    8  -0.055  -0.197  -0.115
    1UNL     C7    9   0.072  -0.120  -0.156
    1UNL     C8   10   0.114  -0.032  -0.034
    1UNL     C9   11   0.081   0.113  -0.057
    1UNL    C10   12  -0.033   0.174  -0.019
    1UNL    C11   13  -0.047   0.315  -0.035
    1UNL     O2   14   0.043   0.366  -0.093
    1UNL     O3   15  -0.161   0.375   0.013
    1UNL    C12   16  -0.121   0.109   0.089
    1UNL    C13   17  -0.029   0.025   0.183
    1UNL    C14   18   0.035  -0.087   0.090
    1UNL     N2   19   0.198   0.176  -0.091
    1UNL    C15   20   0.308   0.099  -0.067
    1UNL    C16   21   0.445   0.121  -0.084
    1UNL     O4   22   0.484   0.239  -0.131
    1UNL    C17   23   0.534   0.025  -0.043
    1UNL    C18   24   0.491  -0.093   0.017
    1UNL    C19   25   0.354  -0.124   0.025
    1UNL    C20   26   0.267  -0.024  -0.015
    1UNL     H1   27  -0.477  -0.093  -0.072
    1UNL     H2   28  -0.468  -0.136   0.102
    1UNL     H3   29  -0.577  -0.005   0.050
    1UNL     H4   30  -0.377   0.103   0.150
    1UNL     H5   31  -0.339   0.246  -0.013
    1UNL     H6   32  -0.218   0.022  -0.080
    1UNL     H7   33  -0.286  -0.201   0.027
    1UNL     H8   34  -0.245  -0.148   0.176
    1UNL     H9   35  -0.146  -0.386   0.054
    1UNL    H10   36   0.020  -0.380   0.097
    1UNL    H11   37  -0.090  -0.304   0.207
    1UNL    H12   38  -0.052  -0.297  -0.144
    1UNL    H13   39  -0.146  -0.155  -0.153
    1UNL    H14   40   0.147  -0.200  -0.184
    1UNL    H15   41   0.062  -0.055  -0.248
    1UNL    H16   42  -0.159   0.467  -0.021
    1UNL    H17   43  -0.177   0.190   0.140
    1UNL    H18   44  -0.088  -0.014   0.264
    1UNL    H19   45   0.054   0.086   0.222
    1UNL    H20   46   0.102  -0.143   0.156
    1UNL    H21   47   0.203   0.274  -0.110
    1UNL    H22   48   0.407   0.300  -0.138
    1UNL    H23   49   0.638   0.041  -0.070
    1UNL    H24   50   0.566  -0.160   0.038
    1UNL    H25   51   0.318  -0.223   0.034
   0.00000   0.00000   0.00000   0.00000   0.00000   0.00000   0.00000   0.00000   0.00000
Generated with MDTraj, t= 89.0
 51
    1UNL     C1    1  -0.480  -0.013   0.012
    1UNL     C2    2  -0.363   0.067   0.062
    1UNL     O1    3  -0.379   0.202   0.013
    1UNL     C3    4  -0.230   0.010   0.006
    1UNL     C4    5  -0.215  -0.138   0.046
    1UNL     N1    6  -0.073  -0.195   0.043
    1UNL     C5    7  -0.064  -0.313   0.138
    1UNL     C6    8  -0.026  -0.235  -0.107
    1UNL     C7    9   0.067  -0.122  -0.156
    1UNL     C8   10   0.111  -0.037  -0.036
    1UNL     C9   11   0.075   0.113  -0.070
    1UNL    C10   12  -0.041   0.172  -0.019
    1UNL    C11   13  -0.056   0.316  -0.026
    1UNL     O2   14   0.032   0.383  -0.072
    1UNL     O3   15  -0.173   0.371   0.020
    1UNL    C12   16  -0.123   0.092   0.074
    1UNL    C13   17  -0.028   0.020   0.171
    1UNL    C14   18   0.042  -0.093   0.089
    1UNL     N2   19   0.192   0.174  -0.120
    1UNL    C15   20   0.305   0.088  -0.085
    1UNL    C16   21   0.443   0.124  -0.082
    1UNL     O4   22   0.477   0.244  -0.140
    1UNL    C17   23   0.528   0.033  -0.022
    1UNL    C18   24   0.482  -0.091   0.031
    1UNL    C19   25   0.345  -0.122   0.027
    1UNL    C20   26   0.258  -0.034  -0.029
    1UNL     H1   27  -0.475   0.012  -0.097
    1UNL     H2   28  -0.462  -0.124   0.013
    1UNL     H3   29  -0.573   0.018   0.056
    1UNL     H4   30  -0.369   0.081   0.167
    1UNL     H5   31  -0.293   0.247   0.023
    1UNL     H6   32  -0.225   0.013  -0.101
    1UNL     H7   33  -0.285  -0.198  -0.008
    1UNL     H8   34  -0.246  -0.150   0.144
    1UNL     H9   35  -0.131  -0.391   0.100
    1UNL    H10   36   0.034  -0.354   0.122
    1UNL    H11   37  -0.074  -0.280   0.242
    1UNL    H12   38   0.007  -0.331  -0.098
    1UNL    H13   39  -0.108  -0.241  -0.177
    1UNL    H14   40   0.151  -0.159  -0.222
    1UNL    H15   41   0.006  -0.048  -0.219
    1UNL    H16   42  -0.171   0.463  -0.006
    1UNL    H17   43  -0.183   0.163   0.136
    1UNL    H18   44  -0.080  -0.033   0.250
    1UNL    H19   45   0.041   0.100   0.203
    1UNL    H20   46   0.113  -0.146   0.154
    1UNL    H21   47   0.199   0.275  -0.127
    1UNL    H22   48   0.393   0.303  -0.161
    1UNL    H23   49   0.633   0.058  -0.019
    1UNL    H24   50   0.546  -0.169   0.072
    1UNL    H25   51   0.295  -0.202   0.081
   0.00000   0.00000   0.00000   0.00000   0.00000   0.00000   0.00000   0.00000   0.00000
Generated with MDTraj, t= 90.0
 51
    1UNL     C1    1  -0.465  -0.032  -0.028
    1UNL     C2    2  -0.371   0.058   0.038
    1UNL     O1    3  -0.400   0.199   0.021
    1UNL     C3    4  -0.231   0.015   0.010
    1UNL     C4    5  -0.218  -0.140   0.038
    1UNL     N1    6  -0.071  -0.197   0.051
    1UNL     C5    7  -0.072  -0.309   0.151
    1UNL     C6    8  -0.018  -0.239  -0.088
    1UNL     C7    9   0.057  -0.120  -0.145
    1UNL     C8   10   0.108  -0.034  -0.033
    1UNL     C9   11   0.076   0.117  -0.058
    1UNL    C10   12  -0.040   0.178  -0.011
    1UNL    C11   13  -0.050   0.326  -0.028
    1UNL     O2   14   0.034   0.382  -0.093
    1UNL     O3   15  -0.143   0.397   0.041
    1UNL    C12   16  -0.128   0.097   0.089
    1UNL    C13   17  -0.036   0.014   0.194
    1UNL    C14   18   0.036  -0.092   0.102
    1UNL     N2   19   0.190   0.165  -0.121
    1UNL    C15   20   0.304   0.083  -0.093
    1UNL    C16   21   0.435   0.124  -0.091
    1UNL     O4   22   0.474   0.253  -0.130
    1UNL    C17   23   0.526   0.038  -0.025
    1UNL    C18   24   0.487  -0.092   0.005
    1UNL    C19   25   0.355  -0.139   0.002
    1UNL    C20   26   0.262  -0.039  -0.037
    1UNL     H1   27  -0.435  -0.053  -0.130
    1UNL     H2   28  -0.480  -0.137   0.011
    1UNL     H3   29  -0.562   0.024  -0.026
    1UNL     H4   30  -0.383   0.046   0.146
    1UNL     H5   31  -0.316   0.258   0.030
    1UNL     H6   32  -0.206   0.026  -0.092
    1UNL     H7   33  -0.268  -0.209  -0.028
    1UNL     H8   34  -0.274  -0.163   0.124
    1UNL     H9   35  -0.144  -0.374   0.107
    1UNL    H10   36   0.024  -0.362   0.159
    1UNL    H11   37  -0.105  -0.259   0.244
    1UNL    H12   38   0.032  -0.329  -0.092
    1UNL    H13   39  -0.110  -0.259  -0.139
    1UNL    H14   40   0.147  -0.156  -0.201
    1UNL    H15   41  -0.011  -0.063  -0.220
    1UNL    H16   42  -0.113   0.488   0.046
    1UNL    H17   43  -0.185   0.174   0.148
    1UNL    H18   44  -0.103  -0.038   0.264
    1UNL    H19   45   0.045   0.076   0.237
    1UNL    H20   46   0.115  -0.142   0.158
    1UNL    H21   47   0.208   0.267  -0.130
    1UNL    H22   48   0.398   0.306  -0.174
    1UNL    H23   49   0.623   0.081  -0.006
    1UNL    H24   50   0.568  -0.155   0.058
    1UNL    H25   51   0.329  -0.227   0.059
   0.00000   0.00000   0.00000   0.00000   0.00000   0.00000   0.00000   0.00000   0.00000
Generated with MDTraj, t= 91.0
 51
    1UNL     C1    1  -0.469  -0.014  -0.046
    1UNL     C2    2  -0.375   0.078   0.025
    1UNL     O1    3  -0.376   0.205  -0.041
    1UNL     C3    4  -0.227   0.008   0.020
    1UNL     C4    5  -0.211  -0.139   0.071
    1UNL     N1    6  -0.065  -0.195   0.065
    1UNL     C5    7  -0.052  -0.328   0.157
    1UNL     C6    8  -0.030  -0.227  -0.085
    1UNL     C7    9   0.067  -0.123  -0.144
    1UNL     C8   10   0.116  -0.037  -0.025
    1UNL     C9   11   0.070   0.115  -0.045
    1UNL    C10   12  -0.047   0.176  -0.008
    1UNL    C11   13  -0.067   0.322  -0.020
    1UNL     O2   14   0.005   0.391  -0.089
    1UNL     O3   15  -0.174   0.381   0.048
    1UNL    C12   16  -0.132   0.095   0.093
    1UNL    C13   17  -0.028   0.019   0.180
    1UNL    C14   18   0.044  -0.094   0.108
    1UNL     N2   19   0.184   0.179  -0.075
    1UNL    C15   20   0.299   0.098  -0.066
    1UNL    C16   21   0.438   0.119  -0.095
    1UNL     O4   22   0.488   0.239  -0.130
    1UNL    C17   23   0.531   0.013  -0.073
    1UNL    C18   24   0.490  -0.109  -0.023
    1UNL    C19   25   0.357  -0.129  -0.004
    1UNL    C20   26   0.267  -0.026  -0.025
    1UNL     H1   27  -0.437  -0.025  -0.146
    1UNL     H2   28  -0.473  -0.121  -0.013
    1UNL     H3   29  -0.575   0.030  -0.039
    1UNL     H4   30  -0.404   0.096   0.131
    1UNL     H5   31  -0.309   0.268  -0.014
    1UNL     H6   32  -0.209   0.016  -0.084
    1UNL     H7   33  -0.282  -0.202   0.026
    1UNL     H8   34  -0.234  -0.156   0.176
    1UNL     H9   35  -0.120  -0.400   0.120
    1UNL    H10   36   0.051  -0.365   0.142
    1UNL    H11   37  -0.067  -0.292   0.261
    1UNL    H12   38   0.011  -0.323  -0.078
    1UNL    H13   39  -0.111  -0.245  -0.151
    1UNL    H14   40   0.151  -0.166  -0.203
    1UNL    H15   41   0.004  -0.059  -0.215
    1UNL    H16   42  -0.158   0.475   0.026
    1UNL    H17   43  -0.190   0.163   0.160
    1UNL    H18   44  -0.087  -0.037   0.255
    1UNL    H19   45   0.053   0.090   0.210
    1UNL    H20   46   0.113  -0.148   0.173
    1UNL    H21   47   0.190   0.283  -0.078
    1UNL    H22   48   0.414   0.295  -0.158
    1UNL    H23   49   0.635   0.043  -0.087
    1UNL    H24   50   0.556  -0.182  -0.009
    1UNL    H25   51   0.320  -0.224   0.029
   0.00000   0.00000   0.00000   0.00000   0.00000   0.00000   0.00000   0.00000   0.00000
Generated with MDTraj, t= 92.0
 51
    1UNL     C1    1  -0.447  -0.054  -0.051
    1UNL     C2    2  -0.362   0.066  -0.001
    1UNL     O1    3  -0.378   0.175  -0.091
    1UNL     C3    4  -0.216   0.010   0.035
    1UNL     C4    5  -0.205  -0.143   0.093
    1UNL     N1    6  -0.066  -0.195   0.064
    1UNL     C5    7  -0.061  -0.321   0.147
    1UNL     C6    8  -0.034  -0.217  -0.086
    1UNL     C7    9   0.030  -0.088  -0.140
    1UNL     C8   10   0.106  -0.025  -0.013
    1UNL     C9   11   0.078   0.120  -0.028
    1UNL    C10   12  -0.037   0.184   0.007
    1UNL    C11   13  -0.061   0.333  -0.015
    1UNL     O2   14   0.032   0.392  -0.067
    1UNL     O3   15  -0.176   0.386   0.041
    1UNL    C12   16  -0.125   0.110   0.109
    1UNL    C13   17  -0.025   0.026   0.201
    1UNL    C14   18   0.039  -0.087   0.112
    1UNL     N2   19   0.194   0.186  -0.063
    1UNL    C15   20   0.299   0.088  -0.074
    1UNL    C16   21   0.435   0.113  -0.101
    1UNL     O4   22   0.479   0.238  -0.131
    1UNL    C17   23   0.521   0.009  -0.092
    1UNL    C18   24   0.477  -0.111  -0.040
    1UNL    C19   25   0.345  -0.134   0.001
    1UNL    C20   26   0.253  -0.035  -0.028
    1UNL     H1   27  -0.405  -0.095  -0.141
    1UNL     H2   28  -0.440  -0.137   0.022
    1UNL     H3   29  -0.555  -0.016  -0.056
    1UNL     H4   30  -0.406   0.102   0.099
    1UNL     H5   31  -0.315   0.249  -0.056
    1UNL     H6   32  -0.173   0.004  -0.061
    1UNL     H7   33  -0.264  -0.221   0.053
    1UNL     H8   34  -0.238  -0.141   0.199
    1UNL     H9   35  -0.132  -0.389   0.106
    1UNL    H10   36   0.041  -0.363   0.143
    1UNL    H11   37  -0.083  -0.277   0.246
    1UNL    H12   38   0.029  -0.301  -0.106
    1UNL    H13   39  -0.118  -0.244  -0.139
    1UNL    H14   40   0.103  -0.126  -0.216
    1UNL    H15   41  -0.038  -0.014  -0.194
    1UNL    H16   42  -0.180   0.483   0.017
    1UNL    H17   43  -0.178   0.195   0.161
    1UNL    H18   44  -0.072  -0.024   0.287
    1UNL    H19   45   0.061   0.091   0.225
    1UNL    H20   46   0.118  -0.145   0.162
    1UNL    H21   47   0.200   0.287  -0.072
    1UNL    H22   48   0.406   0.293  -0.146
    1UNL    H23   49   0.621   0.018  -0.123
    1UNL    H24   50   0.548  -0.200  -0.043
    1UNL    H25   51   0.299  -0.229   0.025
   0.00000   0.00000   0.00000   0.00000   0.00000   0.00000   0.00000   0.00000   0.00000
Generated with MDTraj, t= 93.0
 51
    1UNL     C1    1  -0.458  -0.038  -0.064
    1UNL     C2    2  -0.366   0.064   0.011
    1UNL     O1    3  -0.371   0.186  -0.068
    1UNL     C3    4  -0.224   0.012   0.016
    1UNL     C4    5  -0.208  -0.132   0.075
    1UNL     N1    6  -0.064  -0.189   0.069
    1UNL     C5    7  -0.043  -0.305   0.170
    1UNL     C6    8  -0.020  -0.232  -0.068
    1UNL     C7    9   0.051  -0.112  -0.136
    1UNL     C8   10   0.102  -0.024  -0.018
    1UNL     C9   11   0.068   0.120  -0.045
    1UNL    C10   12  -0.043   0.181   0.002
    1UNL    C11   13  -0.055   0.320   0.002
    1UNL     O2   14   0.039   0.394  -0.010
    1UNL     O3   15  -0.182   0.375   0.016
    1UNL    C12   16  -0.131   0.100   0.093
    1UNL    C13   17  -0.034   0.023   0.187
    1UNL    C14   18   0.036  -0.085   0.109
    1UNL     N2   19   0.188   0.180  -0.087
    1UNL    C15   20   0.301   0.099  -0.061
    1UNL    C16   21   0.436   0.121  -0.090
    1UNL     O4   22   0.484   0.239  -0.152
    1UNL    C17   23   0.521   0.011  -0.080
    1UNL    C18   24   0.469  -0.119  -0.051
    1UNL    C19   25   0.340  -0.134  -0.013
    1UNL    C20   26   0.255  -0.030  -0.021
    1UNL     H1   27  -0.415  -0.075  -0.161
    1UNL     H2   28  -0.484  -0.128  -0.005
    1UNL     H3   29  -0.547   0.027  -0.076
    1UNL     H4   30  -0.410   0.087   0.115
    1UNL     H5   31  -0.313   0.247  -0.023
    1UNL     H6   32  -0.192  -0.001  -0.084
    1UNL     H7   33  -0.276  -0.208   0.039
    1UNL     H8   34  -0.233  -0.127   0.182
    1UNL     H9   35  -0.104  -0.391   0.138
    1UNL    H10   36   0.064  -0.330   0.167
    1UNL    H11   37  -0.061  -0.264   0.269
    1UNL    H12   38   0.039  -0.321  -0.072
    1UNL    H13   39  -0.102  -0.255  -0.126
    1UNL    H14   40   0.131  -0.138  -0.212
    1UNL    H15   41  -0.032  -0.054  -0.187
    1UNL    H16   42  -0.167   0.472  -0.000
    1UNL    H17   43  -0.185   0.168   0.163
    1UNL    H18   44  -0.081  -0.025   0.276
    1UNL    H19   45   0.046   0.089   0.226
    1UNL    H20   46   0.109  -0.133   0.175
    1UNL    H21   47   0.203   0.279  -0.086
    1UNL    H22   48   0.417   0.305  -0.178
    1UNL    H23   49   0.628   0.019  -0.107
    1UNL    H24   50   0.527  -0.210  -0.070
    1UNL    H25   51   0.297  -0.232  -0.012
   0.00000   0.00000   0.00000   0.00000   0.00000   0.00000   0.00000   0.00000   0.00000
Generated with MDTraj, t= 94.0
 51
    1UNL     C1    1  -0.468  -0.049  -0.053
    1UNL     C2    2  -0.371   0.052   0.006
    1UNL     O1    3  -0.390   0.185  -0.039
    1UNL     C3    4  -0.218   0.004  -0.005
    1UNL     C4    5  -0.212  -0.141   0.051
    1UNL     N1    6  -0.066  -0.192   0.063
    1UNL     C5    7  -0.070  -0.295   0.172
    1UNL     C6    8  -0.020  -0.248  -0.067
    1UNL     C7    9   0.044  -0.120  -0.131
    1UNL     C8   10   0.104  -0.024  -0.024
    1UNL     C9   11   0.079   0.123  -0.047
    1UNL    C10   12  -0.031   0.182   0.006
    1UNL    C11   13  -0.037   0.328   0.006
    1UNL     O2   14   0.052   0.402  -0.026
    1UNL     O3   15  -0.156   0.384   0.040
    1UNL    C12   16  -0.137   0.100   0.088
    1UNL    C13   17  -0.046   0.027   0.189
    1UNL    C14   18   0.032  -0.081   0.105
    1UNL     N2   19   0.189   0.177  -0.110
    1UNL    C15   20   0.299   0.095  -0.069
    1UNL    C16   21   0.434   0.123  -0.096
    1UNL     O4   22   0.473   0.246  -0.153
    1UNL    C17   23   0.525   0.020  -0.072
    1UNL    C18   24   0.485  -0.109  -0.030
    1UNL    C19   25   0.349  -0.135  -0.009
    1UNL    C20   26   0.258  -0.031  -0.024
    1UNL     H1   27  -0.439  -0.091  -0.157
    1UNL     H2   28  -0.474  -0.142   0.007
    1UNL     H3   29  -0.570  -0.014  -0.051
    1UNL     H4   30  -0.398   0.071   0.116
    1UNL     H5   31  -0.310   0.248  -0.009
    1UNL     H6   32  -0.192   0.012  -0.108
    1UNL     H7   33  -0.268  -0.204  -0.021
    1UNL     H8   34  -0.272  -0.144   0.143
    1UNL     H9   35  -0.144  -0.373   0.136
    1UNL    H10   36   0.028  -0.337   0.194
    1UNL    H11   37  -0.099  -0.247   0.264
    1UNL    H12   38   0.058  -0.322  -0.063
    1UNL    H13   39  -0.089  -0.301  -0.124
    1UNL    H14   40   0.139  -0.150  -0.186
    1UNL    H15   41  -0.030  -0.072  -0.200
    1UNL    H16   42  -0.136   0.479   0.044
    1UNL    H17   43  -0.206   0.176   0.133
    1UNL    H18   44  -0.115  -0.019   0.266
    1UNL    H19   45   0.025   0.081   0.255
    1UNL    H20   46   0.102  -0.116   0.180
    1UNL    H21   47   0.201   0.275  -0.136
    1UNL    H22   48   0.389   0.304  -0.162
    1UNL    H23   49   0.628   0.042  -0.070
    1UNL    H24   50   0.560  -0.178  -0.020
    1UNL    H25   51   0.326  -0.236   0.021
   0.00000   0.00000   0.00000   0.00000   0.00000   0.00000   0.00000   0.00000   0.00000
Generated with MDTraj, t= 95.0
 51
    1UNL     C1    1  -0.475  -0.009  -0.047
    1UNL     C2    2  -0.363   0.061   0.023
    1UNL     O1    3  -0.369   0.195  -0.023
    1UNL     C3    4  -0.214   0.005   0.007
    1UNL     C4    5  -0.210  -0.135   0.066
    1UNL     N1    6  -0.069  -0.200   0.057
    1UNL     C5    7  -0.059  -0.327   0.151
    1UNL     C6    8  -0.035  -0.231  -0.088
    1UNL     C7    9   0.049  -0.115  -0.149
    1UNL     C8   10   0.102  -0.030  -0.027
    1UNL     C9   11   0.070   0.119  -0.053
    1UNL    C10   12  -0.031   0.187   0.008
    1UNL    C11   13  -0.060   0.328  -0.015
    1UNL     O2   14   0.002   0.397  -0.093
    1UNL     O3   15  -0.168   0.376   0.054
    1UNL    C12   16  -0.122   0.096   0.091
    1UNL    C13   17  -0.031   0.014   0.184
    1UNL    C14   18   0.041  -0.097   0.099
    1UNL     N2   19   0.189   0.174  -0.102
    1UNL    C15   20   0.303   0.087  -0.072
    1UNL    C16   21   0.441   0.116  -0.099
    1UNL     O4   22   0.476   0.241  -0.146
    1UNL    C17   23   0.533   0.018  -0.057
    1UNL    C18   24   0.492  -0.096   0.003
    1UNL    C19   25   0.356  -0.122   0.023
    1UNL    C20   26   0.259  -0.033  -0.026
    1UNL     H1   27  -0.463  -0.009  -0.162
    1UNL     H2   28  -0.491  -0.116  -0.018
    1UNL     H3   29  -0.566   0.040  -0.019
    1UNL     H4   30  -0.382   0.065   0.134
    1UNL     H5   31  -0.303   0.251   0.014
    1UNL     H6   32  -0.191   0.002  -0.098
    1UNL     H7   33  -0.291  -0.195   0.012
    1UNL     H8   34  -0.244  -0.125   0.169
    1UNL     H9   35  -0.125  -0.411   0.117
    1UNL    H10   36   0.043  -0.367   0.149
    1UNL    H11   37  -0.065  -0.309   0.258
    1UNL    H12   38   0.021  -0.320  -0.093
    1UNL    H13   39  -0.113  -0.258  -0.155
    1UNL    H14   40   0.135  -0.164  -0.204
    1UNL    H15   41   0.001  -0.040  -0.216
    1UNL    H16   42  -0.167   0.469   0.028
    1UNL    H17   43  -0.181   0.172   0.148
    1UNL    H18   44  -0.087  -0.037   0.268
    1UNL    H19   45   0.034   0.082   0.243
    1UNL    H20   46   0.117  -0.146   0.159
    1UNL    H21   47   0.200   0.274  -0.080
    1UNL    H22   48   0.397   0.305  -0.134
    1UNL    H23   49   0.638   0.039  -0.075
    1UNL    H24   50   0.564  -0.171   0.053
    1UNL    H25   51   0.320  -0.204   0.081
   0.00000   0.00000   0.00000   0.00000   0.00000   0.00000   0.00000   0.00000   0.00000
Generated with MDTraj, t= 96.0
 51
    1UNL     C1    1  -0.476  -0.028  -0.036
    1UNL     C2    2  -0.377   0.064   0.037
    1UNL     O1    3  -0.390   0.196  -0.017
    1UNL     C3    4  -0.224   0.016   0.029
    1UNL     C4    5  -0.207  -0.135   0.073
    1UNL     N1    6  -0.066  -0.194   0.045
    1UNL     C5    7  -0.061  -0.321   0.117
    1UNL     C6    8  -0.049  -0.221  -0.104
    1UNL     C7    9   0.049  -0.122  -0.162
    1UNL     C8   10   0.106  -0.036  -0.032
    1UNL     C9   11   0.077   0.112  -0.046
    1UNL    C10   12  -0.026   0.184   0.009
    1UNL    C11   13  -0.062   0.322  -0.029
    1UNL     O2   14  -0.007   0.360  -0.131
    1UNL     O3   15  -0.144   0.395   0.049
    1UNL    C12   16  -0.109   0.105   0.106
    1UNL    C13   17  -0.017   0.009   0.191
    1UNL    C14   18   0.046  -0.097   0.098
    1UNL     N2   19   0.190   0.181  -0.091
    1UNL    C15   20   0.300   0.096  -0.069
    1UNL    C16   21   0.442   0.122  -0.082
    1UNL     O4   22   0.483   0.236  -0.143
    1UNL    C17   23   0.534   0.027  -0.032
    1UNL    C18   24   0.487  -0.089   0.015
    1UNL    C19   25   0.353  -0.124   0.017
    1UNL    C20   26   0.257  -0.031  -0.025
    1UNL     H1   27  -0.432  -0.065  -0.131
    1UNL     H2   28  -0.511  -0.115   0.028
    1UNL     H3   29  -0.563   0.037  -0.051
    1UNL     H4   30  -0.403   0.059   0.144
    1UNL     H5   31  -0.333   0.260   0.041
    1UNL     H6   32  -0.206   0.004  -0.076
    1UNL     H7   33  -0.286  -0.204   0.023
    1UNL     H8   34  -0.234  -0.137   0.179
    1UNL     H9   35  -0.126  -0.392   0.065
    1UNL    H10   36   0.037  -0.371   0.124
    1UNL    H11   37  -0.084  -0.316   0.224
    1UNL    H12   38  -0.025  -0.317  -0.137
    1UNL    H13   39  -0.144  -0.213  -0.154
    1UNL    H14   40   0.135  -0.171  -0.218
    1UNL    H15   41  -0.002  -0.052  -0.232
    1UNL    H16   42  -0.142   0.484   0.008
    1UNL    H17   43  -0.150   0.175   0.184
    1UNL    H18   44  -0.073  -0.037   0.278
    1UNL    H19   45   0.067   0.061   0.245
    1UNL    H20   46   0.126  -0.154   0.145
    1UNL    H21   47   0.207   0.283  -0.103
    1UNL    H22   48   0.409   0.302  -0.147
    1UNL    H23   49   0.639   0.057  -0.041
    1UNL    H24   50   0.550  -0.169   0.030
    1UNL    H25   51   0.315  -0.217   0.059
   0.00000   0.00000   0.00000   0.00000   0.00000   0.00000   0.00000   0.00000   0.00000
Generated with MDTraj, t= 97.0
 51
    1UNL     C1    1  -0.505  -0.011   0.001
    1UNL     C2    2  -0.381   0.069   0.050
    1UNL     O1    3  -0.398   0.203   0.002
    1UNL     C3    4  -0.231   0.013   0.017
    1UNL     C4    5  -0.214  -0.136   0.061
    1UNL     N1    6  -0.072  -0.193   0.048
    1UNL     C5    7  -0.055  -0.320   0.120
    1UNL     C6    8  -0.036  -0.219  -0.098
    1UNL     C7    9   0.079  -0.133  -0.153
    1UNL     C8   10   0.114  -0.043  -0.037
    1UNL     C9   11   0.078   0.105  -0.069
    1UNL    C10   12  -0.031   0.168  -0.014
    1UNL    C11   13  -0.053   0.315  -0.033
    1UNL     O2   14   0.028   0.378  -0.100
    1UNL     O3   15  -0.161   0.366   0.023
    1UNL    C12   16  -0.119   0.100   0.090
    1UNL    C13   17  -0.024   0.022   0.178
    1UNL    C14   18   0.035  -0.091   0.098
    1UNL     N2   19   0.187   0.167  -0.111
    1UNL    C15   20   0.305   0.099  -0.065
    1UNL    C16   21   0.442   0.130  -0.078
    1UNL     O4   22   0.479   0.260  -0.116
    1UNL    C17   23   0.530   0.024  -0.042
    1UNL    C18   24   0.490  -0.102   0.007
    1UNL    C19   25   0.356  -0.124   0.015
    1UNL    C20   26   0.265  -0.028  -0.019
    1UNL     H1   27  -0.495  -0.019  -0.106
    1UNL     H2   28  -0.505  -0.114   0.046
    1UNL     H3   29  -0.602   0.043   0.032
    1UNL     H4   30  -0.388   0.073   0.158
    1UNL     H5   31  -0.312   0.243  -0.023
    1UNL     H6   32  -0.225   0.018  -0.089
    1UNL     H7   33  -0.286  -0.196  -0.005
    1UNL     H8   34  -0.251  -0.146   0.168
    1UNL     H9   35  -0.105  -0.405   0.078
    1UNL    H10   36   0.052  -0.348   0.126
    1UNL    H11   37  -0.071  -0.316   0.230
    1UNL    H12   38  -0.014  -0.318  -0.116
    1UNL    H13   39  -0.125  -0.209  -0.160
    1UNL    H14   40   0.174  -0.190  -0.184
    1UNL    H15   41   0.036  -0.065  -0.228
    1UNL    H16   42  -0.153   0.464   0.006
    1UNL    H17   43  -0.163   0.179   0.155
    1UNL    H18   44  -0.075  -0.016   0.272
    1UNL    H19   45   0.061   0.091   0.205
    1UNL    H20   46   0.107  -0.141   0.164
    1UNL    H21   47   0.191   0.266  -0.142
    1UNL    H22   48   0.408   0.321  -0.117
    1UNL    H23   49   0.630   0.039  -0.068
    1UNL    H24   50   0.564  -0.184   0.019
    1UNL    H25   51   0.319  -0.223   0.035
   0.00000   0.00000   0.00000   0.00000   0.00000   0.00000   0.00000   0.00000   0.00000
Generated with MDTraj, t= 98.0
 51
    1UNL     C1    1  -0.485  -0.037   0.025
    1UNL     C2    2  -0.371   0.055   0.058
    1UNL     O1    3  -0.398   0.193   0.012
    1UNL     C3    4  -0.234   0.011   0.011
    1UNL     C4    5  -0.213  -0.132   0.052
    1UNL     N1    6  -0.073  -0.188   0.042
    1UNL     C5    7  -0.079  -0.317   0.124
    1UNL     C6    8  -0.053  -0.219  -0.102
    1UNL     C7    9   0.061  -0.126  -0.148
    1UNL     C8   10   0.112  -0.036  -0.032
    1UNL     C9   11   0.084   0.119  -0.065
    1UNL    C10   12  -0.030   0.175  -0.021
    1UNL    C11   13  -0.045   0.320  -0.040
    1UNL     O2   14   0.053   0.390  -0.065
    1UNL     O3   15  -0.169   0.367  -0.017
    1UNL    C12   16  -0.122   0.098   0.076
    1UNL    C13   17  -0.022   0.024   0.174
    1UNL    C14   18   0.035  -0.095   0.094
    1UNL     N2   19   0.198   0.173  -0.102
    1UNL    C15   20   0.305   0.090  -0.070
    1UNL    C16   21   0.441   0.129  -0.073
    1UNL     O4   22   0.475   0.254  -0.120
    1UNL    C17   23   0.527   0.037  -0.032
    1UNL    C18   24   0.492  -0.096   0.008
    1UNL    C19   25   0.357  -0.130   0.005
    1UNL    C20   26   0.261  -0.035  -0.024
    1UNL     H1   27  -0.496  -0.054  -0.081
    1UNL     H2   28  -0.470  -0.136   0.071
    1UNL     H3   29  -0.586   0.002   0.070
    1UNL     H4   30  -0.362   0.062   0.163
    1UNL     H5   31  -0.336   0.232  -0.056
    1UNL     H6   32  -0.233   0.027  -0.095
    1UNL     H7   33  -0.280  -0.204  -0.004
    1UNL     H8   34  -0.248  -0.134   0.163
    1UNL     H9   35  -0.171  -0.366   0.108
    1UNL    H10   36   0.002  -0.392   0.107
    1UNL    H11   37  -0.061  -0.305   0.235
    1UNL    H12   38  -0.036  -0.322  -0.109
    1UNL    H13   39  -0.141  -0.207  -0.163
    1UNL    H14   40   0.148  -0.200  -0.160
    1UNL    H15   41   0.030  -0.056  -0.228
    1UNL    H16   42  -0.154   0.465  -0.006
    1UNL    H17   43  -0.171   0.177   0.136
    1UNL    H18   44  -0.069  -0.000   0.273
    1UNL    H19   45   0.068   0.092   0.187
    1UNL    H20   46   0.101  -0.158   0.153
    1UNL    H21   47   0.215   0.274  -0.101
    1UNL    H22   48   0.403   0.309  -0.147
    1UNL    H23   49   0.633   0.066  -0.031
    1UNL    H24   50   0.579  -0.155   0.032
    1UNL    H25   51   0.336  -0.236   0.019
   0.00000   0.00000   0.00000   0.00000   0.00000   0.00000   0.00000   0.00000   0.00000
Generated with MDTraj, t= 99.0
 51
    1UNL     C1    1  -0.484  -0.023   0.012
    1UNL     C2    2  -0.368   0.062   0.057
    1UNL     O1    3  -0.390   0.198   0.016
    1UNL     C3    4  -0.226   0.009   0.017
    1UNL     C4    5  -0.209  -0.142   0.050
    1UNL     N1    6  -0.066  -0.192   0.045
    1UNL     C5    7  -0.043  -0.323   0.118
    1UNL     C6    8  -0.038  -0.211  -0.108
    1UNL     C7    9   0.050  -0.100  -0.158
    1UNL     C8   10   0.108  -0.031  -0.028
    1UNL     C9   11   0.073   0.117  -0.050
    1UNL    C10   12  -0.037   0.177  -0.000
    1UNL    C11   13  -0.059   0.319  -0.040
    1UNL     O2   14   0.030   0.392  -0.081
    1UNL     O3   15  -0.183   0.367  -0.027
    1UNL    C12   16  -0.127   0.100   0.091
    1UNL    C13   17  -0.023   0.024   0.180
    1UNL    C14   18   0.042  -0.092   0.095
    1UNL     N2   19   0.194   0.180  -0.092
    1UNL    C15   20   0.306   0.089  -0.087
    1UNL    C16   21   0.446   0.119  -0.076
    1UNL     O4   22   0.498   0.234  -0.123
    1UNL    C17   23   0.529   0.018  -0.034
    1UNL    C18   24   0.476  -0.106   0.010
    1UNL    C19   25   0.343  -0.124   0.022
    1UNL    C20   26   0.256  -0.034  -0.034
    1UNL     H1   27  -0.468  -0.056  -0.091
    1UNL     H2   28  -0.486  -0.117   0.069
    1UNL     H3   29  -0.589   0.022   0.021
    1UNL     H4   30  -0.360   0.064   0.164
    1UNL     H5   31  -0.334   0.219  -0.064
    1UNL     H6   32  -0.213   0.015  -0.089
    1UNL     H7   33  -0.278  -0.208  -0.012
    1UNL     H8   34  -0.242  -0.162   0.161
    1UNL     H9   35  -0.121  -0.397   0.097
    1UNL    H10   36   0.060  -0.364   0.104
    1UNL    H11   37  -0.034  -0.306   0.227
    1UNL    H12   38   0.007  -0.305  -0.124
    1UNL    H13   39  -0.128  -0.226  -0.161
    1UNL    H14   40   0.146  -0.146  -0.202
    1UNL    H15   41  -0.004  -0.025  -0.216
    1UNL    H16   42  -0.182   0.462  -0.045
    1UNL    H17   43  -0.178   0.170   0.161
    1UNL    H18   44  -0.069  -0.014   0.273
    1UNL    H19   45   0.057   0.099   0.208
    1UNL    H20   46   0.119  -0.152   0.143
    1UNL    H21   47   0.218   0.277  -0.084
    1UNL    H22   48   0.436   0.305  -0.163
    1UNL    H23   49   0.635   0.042  -0.023
    1UNL    H24   50   0.542  -0.179   0.055
    1UNL    H25   51   0.308  -0.209   0.076
   0.00000   0.00000   0.00000   0.00000   0.00000   0.00000   0.00000   0.00000   0.00000
