1TPCN00395
11
    1res  C1    1   -0.449   0.053   0.005
    1res  C2    2   -0.196   0.102  -0.078
    1res  C3    3   -0.160  -0.163   0.030
    1res  C4    4    0.089  -0.259  -0.009
    1res  C5    5    0.035   0.069   0.100
    1res  C6    6   -0.095   0.265   0.243
    1res  C7    7    0.010   0.017  -0.167
    1res  C8    8    0.216   0.130   0.188
    1res  C9    9    0.290   0.024   0.004
    1res  C10   10    0.524   0.171   0.037
    1res  C11   11    0.417  -0.041  -0.202
  10.00000  10.00000  10.00000
