1TPCN03187
9
    1res  C1    1   -0.509   0.135  -0.024
    1res  C2    2   -0.299  -0.034   0.157
    1res  C3    3   -0.129   0.124   0.036
    1res  C4    4   -0.234  -0.279  -0.034
    1res  C5    5    0.020  -0.237   0.098
    1res  C6    6    0.157   0.059   0.199
    1res  C7    7    0.184  -0.116  -0.137
    1res  C8    8    0.467   0.101  -0.006
    1res  C9    9   -0.349  -0.065  -0.153
  10.00000  10.00000  10.00000
