1TPCN01903
10
    1res  C1    1   -0.320  -0.187   0.193
    1res  C2    2   -0.334   0.053   0.081
    1res  C3    3   -0.118   0.321  -0.091
    1res  C4    4    0.049   0.079   0.053
    1res  C5    5    0.287  -0.108   0.334
    1res  C6    6    0.440  -0.051   0.046
    1res  C7    7    0.065   0.040  -0.239
    1res  C8    8   -0.179   0.080  -0.326
    1res  C9    9   -0.160  -0.140  -0.190
    1res  C10   10   -0.180  -0.288   0.004
  10.00000  10.00000  10.00000
