[ moleculetype ]
; name        nrexcl
res           1

[ atoms ]
;    nr  type resnr resid  atom  cgnr     charge       mass
      1 TC5       1 res   C1        1      0.000     36.000
      2 SN4a      1 res   C2        2      0.000     54.000
      3 SC4       1 res   C3        3      0.000     54.000
      4 SN3r      1 res   C4        4      0.000     54.000
      5 N6a       1 res   C5        5      0.000     72.000
      6 TC3       1 res   C6        6      0.000     36.000
      7 SC4       1 res   C7        7      0.000     54.000
      8 TN6a      1 res   C8        8      0.000     36.000
      9 TN4a      1 res   C9        9      0.000     36.000
     10 TP1d      1 res   C10      10      0.000     36.000

[ bonds ]
;  ai    aj   funct      b0(nm)        k
    1     2     1      0.26491    20000
    1    10     1      0.25631    20000
    2     3     1      0.38467    20000
    3     4     1      0.32706    20000
    4     5     1      0.41333    20000
    4     7     1      0.29467    20000
    5     6     1      0.33182    20000
    7     8     1      0.26247    20000
    7     9     1      0.29143    20000
    8     9     1      0.25908    20000
    9    10     1      0.24562    20000
