1TPCN05379
42
    1res  C1    1    0.696  -0.474   0.202
    1res  C2    2    0.623  -0.222   0.067
    1res  C3    3    0.518  -0.035  -0.048
    1res  C4    4    0.269  -0.091  -0.194
    1res  C5    5    0.356   0.154  -0.307
    1res  C6    6    0.405  -0.113  -0.447
    1res  C7    7    0.182  -0.160   0.172
    1res  C8    8   -0.024  -0.247  -0.025
    1res  C9    9   -0.046  -0.010   0.204
    1res  C10   10   -0.303  -0.073   0.168
    1res  C11   11   -0.411  -0.064  -0.090
    1res  C12   12   -0.581   0.062   0.062
    1res  C13   13   -0.805   0.108   0.274
    1res  C14   14   -0.889   0.274   0.530
    1res  C15   15   -0.998   0.279   0.243
    1res  C16   16   -0.960   0.142   0.043
    1res  C17   17   -1.080   0.271  -0.185
    1res  C18   18   -1.313   0.280  -0.327
    1res  C19   19   -1.343   0.388  -0.092
    1res  C20   20   -1.290   0.145  -0.045
    1res  C21   21   -0.854  -0.034   0.096
    1res  C22   22   -0.964  -0.235  -0.092
    1res  C23   23   -1.171  -0.210  -0.324
    1res  C24   24   -0.831  -0.181  -0.317
    1res  C25   25   -0.670  -0.327  -0.219
    1res  C26   26   -0.754  -0.332   0.017
    1res  C27   27   -0.427   0.278  -0.008
    1res  C28   28   -0.472   0.252   0.263
    1res  C29   29   -0.077   0.211   0.072
    1res  C30   30    0.294   0.124   0.105
    1res  C31   31    0.672  -0.035   0.178
    1res  C32   32    0.769   0.144   0.114
    1res  C33   33    0.909   0.105  -0.174
    1res  C34   34    1.089   0.135  -0.017
    1res  C35   35    1.337   0.082   0.028
    1res  C36   36    1.471  -0.158   0.009
    1res  C37   37    1.533  -0.054  -0.199
    1res  C38   38    1.294   0.041  -0.276
    1res  C39   39    1.103   0.124   0.191
    1res  C40   40    0.912   0.155   0.288
    1res  C41   41    0.593  -0.123   0.373
    1res  C42   42    0.805  -0.269   0.360
  10.00000  10.00000  10.00000
