[ moleculetype ]
; name        nrexcl
res           1

[ atoms ]
;    nr  type resnr resid  atom  cgnr     charge       mass
      1 TC4       1 res   C1        1      0.000     36.000
      2 SC3       1 res   C2        2      0.000     54.000
      3 C1        1 res   C3        3      0.000     72.000
      4 SC4       1 res   C4        4      0.000     54.000
      5 SP2       1 res   C5        5      0.000     54.000
      6 SC4       1 res   C6        6      0.000     54.000
      7 SC3       1 res   C7        7      0.000     54.000
      8 SC4       1 res   C8        8      0.000     54.000
      9 TC3       1 res   C9        9      0.000     36.000
     10 TN6a      1 res   C10      10      0.000     36.000
     11 SC4       1 res   C11      11      0.000     54.000
     12 TC3       1 res   C12      12      0.000     36.000
     13 P4        1 res   C13      13      0.000     72.000

[ bonds ]
;  ai    aj   funct      b0(nm)        k
    1     2     1      0.37746    20000
    1     6     1      0.34722    20000
    2     3     1      0.34315    20000
    2     6     1      0.24853    20000
    3     4     1      0.34536    20000
    4     5     1      0.29674    20000
    6     7     1      0.25599    20000
    6    13     1      0.28512    20000
    7     8     1      0.28410    20000
    7    13     1      0.33555    20000
    8     9     1      0.28638    20000
    8    11     1      0.34621    20000
    8    12     1      0.26840    20000
    9    10     1      0.25233    20000
   10    11     1      0.23731    20000
   12    13     1      0.23022    20000
