1TPCN02751
13
    1res  C1    1   -0.067   0.248   0.238
    1res  C2    2    0.049   0.128  -0.035
    1res  C3    3   -0.089  -0.182   0.049
    1res  C4    4   -0.215  -0.092  -0.180
    1res  C5    5   -0.462  -0.236  -0.007
    1res  C6    6   -0.470   0.084  -0.135
    1res  C7    7   -0.064   0.298  -0.117
    1res  C8    8    0.254  -0.030   0.056
    1res  C9    9    0.482   0.027  -0.055
    1res  C10   10    0.665   0.127   0.049
    1res  C11   11    0.580  -0.186  -0.070
    1res  C12   12    0.542  -0.242   0.168
    1res  C13   13    0.348  -0.080   0.254
  10.00000  10.00000  10.00000
