1TPCN03005
18
    1res  C1    1   -0.053  -0.500   0.161
    1res  C2    2   -0.046  -0.267  -0.160
    1res  C3    3   -0.189  -0.072  -0.106
    1res  C4    4   -0.352   0.121   0.021
    1res  C5    5   -0.384   0.302  -0.160
    1res  C6    6   -0.592   0.181   0.010
    1res  C7    7   -0.582   0.027   0.190
    1res  C8    8   -0.418  -0.122   0.176
    1res  C9    9    0.047  -0.011  -0.085
    1res  C10   10    0.020   0.209  -0.191
    1res  C11   11    0.254   0.153  -0.255
    1res  C12   12    0.335   0.325  -0.125
    1res  C13   13    0.498   0.114  -0.088
    1res  C14   14    0.703   0.057   0.014
    1res  C15   15    0.612   0.034   0.258
    1res  C16   16    0.788   0.043   0.158
    1res  C17   17    0.273   0.042   0.045
    1res  C18   18    0.113  -0.188   0.089
  10.00000  10.00000  10.00000
