1TPCN04925
29
    1res  C1    1   -1.204   0.017  -0.108
    1res  C2    2   -1.165   0.048   0.183
    1res  C3    3   -0.952   0.050   0.013
    1res  C4    4   -0.886  -0.041   0.393
    1res  C5    5   -0.802   0.239   0.239
    1res  C6    6   -0.698   0.219  -0.016
    1res  C7    7   -0.619  -0.100  -0.102
    1res  C8    8   -0.506   0.015   0.126
    1res  C9    9   -0.263   0.059  -0.144
    1res  C10   10   -0.187  -0.168   0.023
    1res  C11   11    0.022  -0.036  -0.066
    1res  C12   12    0.176  -0.145  -0.240
    1res  C13   13    0.229  -0.460  -0.325
    1res  C14   14    0.404  -0.165  -0.396
    1res  C15   15    0.472  -0.175  -0.192
    1res  C16   16    0.727  -0.122  -0.246
    1res  C17   17    0.909   0.019  -0.454
    1res  C18   18    0.952   0.060  -0.170
    1res  C19   19    0.905  -0.120  -0.018
    1res  C20   20    0.976  -0.098   0.276
    1res  C21   21    0.914   0.179   0.278
    1res  C22   22    1.213   0.077   0.352
    1res  C23   23    1.226   0.034   0.109
    1res  C24   24    1.161  -0.205   0.085
    1res  C25   25    0.700  -0.160   0.008
    1res  C26   26    0.360  -0.068  -0.012
    1res  C27   27   -0.016   0.087   0.177
    1res  C28   28    0.036   0.257  -0.071
    1res  C29   29   -0.351   0.219   0.175
  10.00000  10.00000  10.00000
