1TPCN05250
37
    1res  C1    1   -0.760   0.402   0.006
    1res  C2    2   -0.835   0.187  -0.101
    1res  C3    3   -0.817  -0.008  -0.200
    1res  C4    4   -0.651  -0.057  -0.074
    1res  C5    5   -0.374  -0.248  -0.066
    1res  C6    6   -0.281  -0.194   0.170
    1res  C7    7   -0.061   0.044   0.137
    1res  C8    8    0.000  -0.229   0.273
    1res  C9    9    0.076  -0.323  -0.046
    1res  C10   10    0.267  -0.127   0.246
    1res  C11   11    0.439  -0.345   0.075
    1res  C12   12    0.538  -0.520  -0.147
    1res  C13   13    0.422  -0.257  -0.221
    1res  C14   14    0.645  -0.132   0.036
    1res  C15   15    0.893   0.085   0.012
    1res  C16   16    1.130   0.143  -0.116
    1res  C17   17    1.323   0.377   0.020
    1res  C18   18    1.443   0.196   0.205
    1res  C19   19    1.584   0.251  -0.060
    1res  C20   20    1.499   0.431  -0.177
    1res  C21   21    1.288   0.420  -0.224
    1res  C22   22    1.095   0.063   0.147
    1res  C23   23    0.926   0.170   0.308
    1res  C24   24    0.727   0.063   0.213
    1res  C25   25    0.304   0.009   0.017
    1res  C26   26   -0.276   0.014  -0.181
    1res  C27   27   -0.424   0.179  -0.036
    1res  C28   28   -0.818  -0.244   0.022
    1res  C29   29   -0.995  -0.299  -0.113
    1res  C30   30   -0.824  -0.214  -0.290
    1res  C31   31   -0.984   0.263  -0.290
    1res  C32   32   -1.055   0.415  -0.036
    1res  C33   33   -1.239   0.218  -0.078
    1res  C34   34   -1.339   0.280   0.155
    1res  C35   35   -1.426   0.089   0.234
    1res  C36   36   -1.496  -0.020   0.028
    1res  C37   37   -1.294  -0.014  -0.067
  10.00000  10.00000  10.00000
