1TPCN01615
7
    1res  C1    1   -0.223   0.172  -0.170
    1res  C2    2   -0.311   0.191   0.071
    1res  C3    3   -0.290  -0.059   0.125
    1res  C4    4   -0.131  -0.100  -0.111
    1res  C5    5    0.005  -0.247   0.058
    1res  C6    6    0.102   0.018   0.134
    1res  C7    7    0.344   0.044  -0.037
  10.00000  10.00000  10.00000
