1TPCN05150
13
    1res  C1    1    0.765   0.004   0.023
    1res  C2    2    0.483  -0.036   0.009
    1res  C3    3    0.328  -0.001   0.241
    1res  C4    4    0.235  -0.160  -0.016
    1res  C5    5    0.105   0.021  -0.153
    1res  C6    6   -0.150  -0.045   0.041
    1res  C7    7   -0.269  -0.193  -0.136
    1res  C8    8   -0.329   0.113  -0.144
    1res  C9    9   -0.636  -0.084  -0.046
    1res  C10   10   -0.645   0.045   0.190
    1res  C11   11   -0.428   0.187   0.136
    1res  C12   12   -0.022   0.153   0.112
    1res  C13   13    0.659  -0.193  -0.112
  10.00000  10.00000  10.00000
