1TPCN06125
16
    1res  C1    1   -0.786  -0.076  -0.007
    1res  C2    2   -0.654   0.181  -0.064
    1res  C3    3   -0.515   0.204   0.084
    1res  C4    4   -0.605  -0.010   0.292
    1res  C5    5   -0.265   0.146   0.189
    1res  C6    6   -0.345  -0.132   0.183
    1res  C7    7   -0.307  -0.076  -0.180
    1res  C8    8   -0.153  -0.268   0.009
    1res  C9    9    0.031  -0.011  -0.231
    1res  C10   10    0.257  -0.192  -0.136
    1res  C11   11    0.622   0.066  -0.144
    1res  C12   12    0.934   0.107  -0.067
    1res  C13   13    1.190   0.167   0.080
    1res  C14   14    0.926   0.088   0.234
    1res  C15   15    0.260   0.188  -0.093
    1res  C16   16    0.050  -0.066   0.144
  10.00000  10.00000  10.00000
