1TPCN03730
17
    1res  C1    1    0.899   0.017  -0.014
    1res  C2    2    0.589  -0.073   0.069
    1res  C3    3    0.341  -0.092  -0.166
    1res  C4    4    0.209  -0.161   0.092
    1res  C5    5    0.039  -0.240  -0.068
    1res  C6    6   -0.079   0.099  -0.024
    1res  C7    7    0.198   0.343   0.006
    1res  C8    8    0.150   0.422  -0.274
    1res  C9    9    0.109   0.630  -0.023
    1res  C10   10    0.027   0.536   0.191
    1res  C11   11   -0.086   0.376   0.074
    1res  C12   12   -0.210  -0.150  -0.137
    1res  C13   13   -0.454  -0.013  -0.080
    1res  C14   14   -0.483   0.061   0.191
    1res  C15   15   -0.744  -0.064   0.138
    1res  C16   16   -0.616  -0.284   0.150
    1res  C17   17   -0.329  -0.366  -0.030
  10.00000  10.00000  10.00000
