[ moleculetype ]
; name        nrexcl
res           1

[ atoms ]
;    nr  type resnr resid  atom  cgnr     charge       mass
      1 TX4       1 res   C1        1      0.000     36.000
      2 TX4       1 res   C2        2      0.000     36.000
      3 TX4       1 res   C3        3      0.000     36.000
      4 TX4       1 res   C4        4      0.000     36.000
      5 TX4       1 res   C5        5      0.000     36.000
      6 TX4       1 res   C6        6      0.000     36.000

[ bonds ]
;  ai    aj   funct      b0(nm)        k
    1     2     1      0.23099    20000
    1     6     1      0.23324    20000
    2     3     1      0.22941    20000
    3     4     1      0.23158    20000
    4     5     1      0.23338    20000
    5     6     1      0.22535    20000
