157722-16-4
6
    1res  C1    1   -0.212   0.090  -0.022
    1res  C2    2   -0.157  -0.100   0.097
    1res  C3    3    0.070  -0.120   0.124
    1res  C4    4    0.217  -0.064  -0.047
    1res  C5    5    0.178   0.161   0.001
    1res  C6    6   -0.034   0.234   0.022
  10.00000  10.00000  10.00000
