[ moleculetype ]
; name        nrexcl
res           1

[ atoms ]
;    nr  type resnr resid  atom  cgnr     charge       mass
      1 SC4       1 res   C1        1      0.000     54.000
      2 SP2       1 res   C2        2      0.000     54.000
      3 TC3       1 res   C3        3      0.000     36.000
      4 TC5       1 res   C4        4      0.000     36.000
      5 SP2       1 res   C5        5      0.000     54.000
      6 TC3       1 res   C6        6      0.000     36.000
      7 SC4       1 res   C7        7      0.000     54.000
      8 TC3       1 res   C8        8      0.000     36.000
      9 SC4       1 res   C9        9      0.000     54.000
     10 SC4       1 res   C10      10      0.000     54.000
     11 TC3       1 res   C11      11      0.000     36.000
     12 TN6       1 res   C12      12      0.000     36.000
     13 SN4a      1 res   C13      13      0.000     54.000
     14 TN6       1 res   C14      14      0.000     36.000
     15 TN6       1 res   C15      15      0.000     36.000
     16 SN4a      1 res   C16      16      0.000     54.000
     17 TP1       1 res   C17      17      0.000     36.000
     18 TN6       1 res   C18      18      0.000     36.000
     19 TN6       1 res   C19      19      0.000     36.000
     20 TN6       1 res   C20      20      0.000     36.000
     21 TN6       1 res   C21      21      0.000     36.000
     22 SC4       1 res   C22      22      0.000     54.000
     23 TC3       1 res   C23      23      0.000     36.000

[ bonds ]
;  ai    aj   funct      b0(nm)        k
    1     2     1      0.27303    20000
    1     3     1      0.29042    20000
    1     4     1      0.29130    20000
    3     4     1      0.24635    20000
    4     5     1      0.33218    20000
    4     6     1      0.26939    20000
    4     7     1      0.31962    20000
    6     7     1      0.29353    20000
    7     8     1      0.39029    20000
    7     9     1      0.29545    20000
    8     9     1      0.29926    20000
    9    10     1      0.37077    20000
    9    23     1      0.30917    20000
   10    11     1      0.28832    20000
   10    22     1      0.32693    20000
   10    23     1      0.30160    20000
   11    12     1      0.24856    20000
   12    13     1      0.33774    20000
   12    22     1      0.24696    20000
   13    14     1      0.24660    20000
   13    21     1      0.32754    20000
   14    15     1      0.20933    20000
   15    16     1      0.26593    20000
   15    21     1      0.22326    20000
   16    17     1      0.25474    20000
   16    18     1      0.27671    20000
   16    20     1      0.26201    20000
   18    19     1      0.23811    20000
   19    20     1      0.21910    20000
