[ moleculetype ]
; name        nrexcl
res           1

[ atoms ]
;    nr  type  resnr resid  atom  cgnr     charge       mass
      1 N4a       1 res   C1        1      0.000     72.000
      2 TC5       1 res   C2        2      0.000     36.000
      3 TN4a      1 res   C3        3      0.000     36.000
      4 TN6       1 res   C4        4      0.000     36.000
      5 TN4a      1 res   C5        5      0.000     36.000
      6 TP1       1 res   C6        6      0.000     36.000
      7 TN6       1 res   C7        7      0.000     36.000
      8 TN6       1 res   C8        8      0.000     36.000
      9 TN6       1 res   C9        9      0.000     36.000
     10 TC5       1 res   C10      10      0.000     36.000
     11 TC5       1 res   C11      11      0.000     36.000
     12 TN2a      1 res   C12      12      0.000     36.000
     13 TN6       1 res   C13      13      0.000     36.000

[ bonds ]
;  ai    aj   funct      b0(nm)          k(kJ/mol/nm^2)
    1     2     1      0.32686          35397.1
    2     3     1      0.25373          40561.2
    2    10     1      0.24896          51593.1
    3     4     1      0.19908          26420.1
    3    10     1      0.20613          60668.2
    4     5     1      0.22473          39597.1
    4     9     1      0.23082          25211.9
    5     6     1      0.20973          20256.9
    5     7     1      0.25274          27317.5
    7     8     1      0.21006          25888.5
    8     9     1      0.21191          38802.6
   10    11     1      0.24238          85593.3
   10    13     1      0.25528          31709.3
   11    12     1      0.25795          24384.1
   11    13     1      0.25598          22792.1

[ angles ]
;  ai    aj    ak  funct     th0(deg)        k(kJ/mol/rad^2)
    1     2     3     1    153.72202           585.18
    1     2    10     1    109.28717           551.67
    2     3     4     1    124.30975           101.82
    2     3    10     1     64.61324           922.26
    2    10     3     1     67.03364           848.11
    2    10    11     1    163.59831           581.80
    2    10    13     1    104.72047           329.65
    3     2    10     1     48.35266          3045.43
    3     4     5     1     88.04522           139.99
    3     4     9     1    170.05213           252.87
    3    10    11     1    128.42677           424.74
    3    10    13     1    157.67421           410.08
    4     3    10     1    136.09508           227.77
    4     5     6     1    143.38714           352.53
    4     5     7     1    117.28044           444.52
    4     9     8     1     95.22635           480.70
    5     4     9     1     95.59298           928.39
    5     7     8     1     77.29602           683.83
    6     5     7     1     88.58854           685.50
    7     8     9     1    121.63696           445.70
   10    11    12     1     89.84569           216.84
   10    11    13     1     61.58158           745.00
   10    13    11     1     56.51427          3446.26
   11    10    13     1     61.90499           624.96
   12    11    13     1    150.19161           155.49
