1TPCN04013
27
    1res  C1    1   -1.084   0.012   0.184
    1res  C2    2   -0.918  -0.180   0.035
    1res  C3    3   -0.741  -0.047  -0.068
    1res  C4    4   -0.489  -0.011  -0.201
    1res  C5    5   -0.647   0.311  -0.190
    1res  C6    6   -0.487   0.156   0.129
    1res  C7    7   -0.304   0.289  -0.072
    1res  C8    8   -0.128   0.070  -0.235
    1res  C9    9   -0.098   0.245   0.102
    1res  C10   10    0.148   0.166   0.055
    1res  C11   11    0.304   0.099  -0.187
    1res  C12   12    0.423   0.036   0.050
    1res  C13   13    0.671  -0.022  -0.023
    1res  C14   14    0.845  -0.178  -0.232
    1res  C15   15    0.898  -0.119   0.076
    1res  C16   16    1.173  -0.087  -0.015
    1res  C17   17    1.200   0.131  -0.156
    1res  C18   18    1.210   0.233   0.064
    1res  C19   19    1.172   0.093   0.222
    1res  C20   20    0.729  -0.127   0.258
    1res  C21   21    0.714   0.110   0.179
    1res  C22   22    0.283  -0.139   0.142
    1res  C23   23   -0.075  -0.033   0.152
    1res  C24   24   -0.523  -0.271  -0.061
    1res  C25   25   -1.038  -0.262  -0.139
    1res  C26   26   -1.210  -0.352   0.019
    1res  C27   27   -1.238  -0.166   0.122
  10.00000  10.00000  10.00000
