Generated with MDTraj, t= 0.0
 51
    1UNL     C1    1  -0.421  -0.342   0.035
    1UNL     O1    2  -0.481  -0.224  -0.010
    1UNL     C2    3  -0.396  -0.113  -0.015
    1UNL     C3    4  -0.451   0.007  -0.062
    1UNL     C4    5  -0.378   0.125  -0.073
    1UNL     O2    6  -0.428   0.246  -0.119
    1UNL     C5    7  -0.564   0.244  -0.155
    1UNL     C6    8  -0.242   0.119  -0.033
    1UNL     C7    9  -0.188   0.000   0.014
    1UNL     C8   10  -0.262  -0.115   0.023
    1UNL     C9   11  -0.044   0.030   0.045
    1UNL    C10   12  -0.005   0.011   0.193
    1UNL    C11   13   0.141  -0.034   0.179
    1UNL    C12   14   0.235   0.081   0.126
    1UNL    C13   15   0.172   0.221   0.129
    1UNL     O3   16   0.081   0.255   0.024
    1UNL    C14   17  -0.035   0.179   0.011
    1UNL     N1   18  -0.149   0.223  -0.034
    1UNL    C15   19   0.284   0.045  -0.018
    1UNL    C16   20   0.161   0.028  -0.112
    1UNL    C17   21   0.058  -0.059  -0.037
    1UNL     N2   22   0.130  -0.139   0.070
    1UNL    C18   23   0.259  -0.198   0.026
    1UNL    C19   24   0.353  -0.089  -0.013
    1UNL    C20   25   0.481  -0.109  -0.040
    1UNL    C21   26   0.574  -0.000  -0.079
    1UNL     O4   27   0.524   0.080  -0.185
    1UNL     H1   28  -0.385  -0.329   0.137
    1UNL     H2   29  -0.495  -0.422   0.034
    1UNL     H3   30  -0.339  -0.370  -0.031
    1UNL     H4   31  -0.554   0.005  -0.091
    1UNL     H5   32  -0.579   0.174  -0.237
    1UNL     H6   33  -0.624   0.218  -0.069
    1UNL     H7   34  -0.592   0.344  -0.189
    1UNL     H8   35  -0.216  -0.205   0.059
    1UNL     H9   36  -0.017   0.103   0.251
    1UNL    H10   37  -0.067  -0.066   0.240
    1UNL    H11   38   0.179  -0.081   0.271
    1UNL    H12   39   0.324   0.082   0.192
    1UNL    H13   40   0.251   0.297   0.120
    1UNL    H14   41   0.123   0.242   0.225
    1UNL    H15   42   0.351   0.123  -0.056
    1UNL    H16   43   0.193  -0.021  -0.204
    1UNL    H17   44   0.119   0.125  -0.141
    1UNL    H18   45   0.004  -0.128  -0.104
    1UNL    H19   46   0.300  -0.258   0.107
    1UNL    H20   47   0.240  -0.265  -0.059
    1UNL    H21   48   0.519  -0.210  -0.033
    1UNL    H22   49   0.671  -0.042  -0.110
    1UNL    H23   50   0.593   0.064   0.008
    1UNL    H24   51   0.589   0.148  -0.211
   0.00000   0.00000   0.00000   0.00000   0.00000   0.00000   0.00000   0.00000   0.00000
Generated with MDTraj, t= 1.0
 51
    1UNL     C1    1  -0.413  -0.345  -0.001
    1UNL     O1    2  -0.488  -0.220  -0.006
    1UNL     C2    3  -0.405  -0.109  -0.004
    1UNL     C3    4  -0.458   0.010  -0.053
    1UNL     C4    5  -0.378   0.121  -0.073
    1UNL     O2    6  -0.421   0.249  -0.118
    1UNL     C5    7  -0.546   0.250  -0.177
    1UNL     C6    8  -0.242   0.112  -0.035
    1UNL     C7    9  -0.191   0.002   0.026
    1UNL     C8   10  -0.269  -0.112   0.035
    1UNL     C9   11  -0.047   0.025   0.056
    1UNL    C10   12   0.005   0.007   0.204
    1UNL    C11   13   0.154  -0.037   0.186
    1UNL    C12   14   0.239   0.087   0.127
    1UNL    C13   15   0.177   0.223   0.130
    1UNL     O3   16   0.082   0.244   0.023
    1UNL    C14   17  -0.037   0.171   0.013
    1UNL     N1   18  -0.150   0.218  -0.036
    1UNL    C15   19   0.279   0.046  -0.019
    1UNL    C16   20   0.151   0.017  -0.113
    1UNL    C17   21   0.050  -0.064  -0.025
    1UNL     N2   22   0.129  -0.139   0.076
    1UNL    C18   23   0.260  -0.188   0.024
    1UNL    C19   24   0.352  -0.082  -0.008
    1UNL    C20   25   0.483  -0.100  -0.030
    1UNL    C21   26   0.566   0.019  -0.083
    1UNL     O4   27   0.527   0.066  -0.211
    1UNL     H1   28  -0.358  -0.362   0.089
    1UNL     H2   29  -0.477  -0.429  -0.014
    1UNL     H3   30  -0.339  -0.345  -0.079
    1UNL     H4   31  -0.565   0.012  -0.084
    1UNL     H5   32  -0.569   0.164  -0.243
    1UNL     H6   33  -0.618   0.216  -0.102
    1UNL     H7   34  -0.559   0.354  -0.207
    1UNL     H8   35  -0.228  -0.203   0.060
    1UNL     H9   36  -0.010   0.101   0.260
    1UNL    H10   37  -0.052  -0.063   0.255
    1UNL    H11   38   0.206  -0.090   0.270
    1UNL    H12   39   0.331   0.092   0.185
    1UNL    H13   40   0.257   0.295   0.128
    1UNL    H14   41   0.118   0.253   0.215
    1UNL    H15   42   0.336   0.129  -0.060
    1UNL    H16   43   0.192  -0.035  -0.201
    1UNL    H17   44   0.099   0.110  -0.137
    1UNL    H18   45  -0.027  -0.122  -0.088
    1UNL    H19   46   0.296  -0.263   0.101
    1UNL    H20   47   0.226  -0.242  -0.062
    1UNL    H21   48   0.534  -0.196  -0.020
    1UNL    H22   49   0.672  -0.010  -0.084
    1UNL    H23   50   0.559   0.093  -0.002
    1UNL    H24   51   0.568   0.148  -0.217
   0.00000   0.00000   0.00000   0.00000   0.00000   0.00000   0.00000   0.00000   0.00000
Generated with MDTraj, t= 2.0
 51
    1UNL     C1    1  -0.442  -0.347  -0.034
    1UNL     O1    2  -0.489  -0.221   0.014
    1UNL     C2    3  -0.397  -0.116  -0.008
    1UNL     C3    4  -0.450   0.004  -0.056
    1UNL     C4    5  -0.375   0.120  -0.066
    1UNL     O2    6  -0.428   0.240  -0.122
    1UNL     C5    7  -0.555   0.231  -0.187
    1UNL     C6    8  -0.243   0.119  -0.023
    1UNL     C7    9  -0.185  -0.001   0.023
    1UNL     C8   10  -0.264  -0.119   0.026
    1UNL     C9   11  -0.042   0.033   0.062
    1UNL    C10   12   0.002   0.024   0.206
    1UNL    C11   13   0.143  -0.031   0.186
    1UNL    C12   14   0.236   0.085   0.129
    1UNL    C13   15   0.178   0.230   0.135
    1UNL     O3   16   0.084   0.262   0.028
    1UNL    C14   17  -0.037   0.185   0.024
    1UNL     N1   18  -0.155   0.226  -0.015
    1UNL    C15   19   0.286   0.048  -0.024
    1UNL    C16   20   0.161   0.020  -0.115
    1UNL    C17   21   0.058  -0.052  -0.030
    1UNL     N2   22   0.126  -0.137   0.081
    1UNL    C18   23   0.264  -0.197   0.046
    1UNL    C19   24   0.354  -0.087  -0.007
    1UNL    C20   25   0.482  -0.109  -0.042
    1UNL    C21   26   0.577  -0.001  -0.103
    1UNL     O4   27   0.524   0.070  -0.212
    1UNL     H1   28  -0.378  -0.403   0.032
    1UNL     H2   29  -0.524  -0.413  -0.052
    1UNL     H3   30  -0.383  -0.334  -0.124
    1UNL     H4   31  -0.550   0.014  -0.077
    1UNL     H5   32  -0.564   0.145  -0.257
    1UNL     H6   33  -0.626   0.220  -0.107
    1UNL     H7   34  -0.574   0.326  -0.233
    1UNL     H8   35  -0.223  -0.217   0.070
    1UNL     H9   36  -0.016   0.118   0.259
    1UNL    H10   37  -0.066  -0.046   0.243
    1UNL    H11   38   0.188  -0.081   0.277
    1UNL    H12   39   0.322   0.071   0.193
    1UNL    H13   40   0.244   0.310   0.117
    1UNL    H14   41   0.145   0.252   0.237
    1UNL    H15   42   0.348   0.128  -0.065
    1UNL    H16   43   0.191  -0.048  -0.197
    1UNL    H17   44   0.125   0.121  -0.145
    1UNL    H18   45   0.001  -0.133  -0.094
    1UNL    H19   46   0.293  -0.254   0.143
    1UNL    H20   47   0.243  -0.272  -0.023
    1UNL    H21   48   0.525  -0.205  -0.032
    1UNL    H22   49   0.664  -0.061  -0.135
    1UNL    H23   50   0.611   0.072  -0.027
    1UNL    H24   51   0.576   0.147  -0.249
   0.00000   0.00000   0.00000   0.00000   0.00000   0.00000   0.00000   0.00000   0.00000
Generated with MDTraj, t= 3.0
 51
    1UNL     C1    1  -0.407  -0.339  -0.036
    1UNL     O1    2  -0.479  -0.230  -0.001
    1UNL     C2    3  -0.394  -0.112   0.001
    1UNL     C3    4  -0.452   0.007  -0.042
    1UNL     C4    5  -0.378   0.124  -0.066
    1UNL     O2    6  -0.428   0.237  -0.114
    1UNL     C5    7  -0.559   0.232  -0.182
    1UNL     C6    8  -0.237   0.120  -0.030
    1UNL     C7    9  -0.186   0.004   0.029
    1UNL     C8   10  -0.262  -0.111   0.050
    1UNL     C9   11  -0.045   0.034   0.051
    1UNL    C10   12  -0.006   0.021   0.201
    1UNL    C11   13   0.138  -0.029   0.186
    1UNL    C12   14   0.237   0.087   0.134
    1UNL    C13   15   0.170   0.224   0.135
    1UNL     O3   16   0.081   0.261   0.027
    1UNL    C14   17  -0.034   0.183   0.008
    1UNL     N1   18  -0.141   0.222  -0.048
    1UNL    C15   19   0.288   0.044  -0.007
    1UNL    C16   20   0.166   0.036  -0.105
    1UNL    C17   21   0.062  -0.053  -0.033
    1UNL     N2   22   0.120  -0.135   0.077
    1UNL    C18   23   0.256  -0.202   0.041
    1UNL    C19   24   0.354  -0.093  -0.001
    1UNL    C20   25   0.478  -0.118  -0.045
    1UNL    C21   26   0.568  -0.014  -0.114
    1UNL     O4   27   0.500   0.077  -0.198
    1UNL     H1   28  -0.337  -0.367   0.046
    1UNL     H2   29  -0.466  -0.428  -0.046
    1UNL     H3   30  -0.343  -0.317  -0.125
    1UNL     H4   31  -0.561   0.007  -0.064
    1UNL     H5   32  -0.545   0.165  -0.273
    1UNL     H6   33  -0.640   0.222  -0.112
    1UNL     H7   34  -0.569   0.333  -0.220
    1UNL     H8   35  -0.219  -0.196   0.096
    1UNL     H9   36  -0.013   0.111   0.250
    1UNL    H10   37  -0.056  -0.057   0.250
    1UNL    H11   38   0.172  -0.081   0.280
    1UNL    H12   39   0.327   0.087   0.196
    1UNL    H13   40   0.249   0.292   0.150
    1UNL    H14   41   0.105   0.250   0.218
    1UNL    H15   42   0.370   0.107  -0.041
    1UNL    H16   43   0.205  -0.021  -0.192
    1UNL    H17   44   0.139   0.138  -0.141
    1UNL    H18   45  -0.003  -0.125  -0.103
    1UNL    H19   46   0.292  -0.259   0.135
    1UNL    H20   47   0.232  -0.280  -0.024
    1UNL    H21   48   0.504  -0.225  -0.042
    1UNL    H22   49   0.654  -0.058  -0.167
    1UNL    H23   50   0.623   0.047  -0.038
    1UNL    H24   51   0.556   0.139  -0.265
   0.00000   0.00000   0.00000   0.00000   0.00000   0.00000   0.00000   0.00000   0.00000
Generated with MDTraj, t= 4.0
 51
    1UNL     C1    1  -0.396  -0.340   0.003
    1UNL     O1    2  -0.461  -0.226  -0.020
    1UNL     C2    3  -0.385  -0.117  -0.021
    1UNL     C3    4  -0.444   0.001  -0.069
    1UNL     C4    5  -0.381   0.131  -0.067
    1UNL     O2    6  -0.426   0.246  -0.122
    1UNL     C5    7  -0.564   0.247  -0.162
    1UNL     C6    8  -0.247   0.126  -0.016
    1UNL     C7    9  -0.187   0.008   0.024
    1UNL     C8   10  -0.250  -0.115   0.013
    1UNL     C9   11  -0.042   0.036   0.047
    1UNL    C10   12  -0.004   0.018   0.203
    1UNL    C11   13   0.147  -0.027   0.194
    1UNL    C12   14   0.241   0.082   0.129
    1UNL    C13   15   0.175   0.225   0.122
    1UNL     O3   16   0.084   0.258   0.023
    1UNL    C14   17  -0.033   0.187   0.012
    1UNL     N1   18  -0.154   0.227  -0.021
    1UNL    C15   19   0.277   0.040  -0.019
    1UNL    C16   20   0.150   0.017  -0.106
    1UNL    C17   21   0.054  -0.063  -0.022
    1UNL     N2   22   0.132  -0.134   0.091
    1UNL    C18   23   0.261  -0.203   0.043
    1UNL    C19   24   0.344  -0.105  -0.012
    1UNL    C20   25   0.470  -0.117  -0.046
    1UNL    C21   26   0.550  -0.007  -0.098
    1UNL     O4   27   0.494   0.077  -0.200
    1UNL     H1   28  -0.366  -0.351   0.112
    1UNL     H2   29  -0.463  -0.425  -0.017
    1UNL     H3   30  -0.302  -0.351  -0.061
    1UNL     H4   31  -0.548  -0.007  -0.103
    1UNL     H5   32  -0.567   0.167  -0.245
    1UNL     H6   33  -0.632   0.254  -0.077
    1UNL     H7   34  -0.578   0.340  -0.213
    1UNL     H8   35  -0.191  -0.198   0.039
    1UNL     H9   36  -0.011   0.103   0.258
    1UNL    H10   37  -0.059  -0.063   0.242
    1UNL    H11   38   0.185  -0.075   0.289
    1UNL    H12   39   0.324   0.089   0.200
    1UNL    H13   40   0.242   0.309   0.110
    1UNL    H14   41   0.134   0.237   0.224
    1UNL    H15   42   0.334   0.119  -0.069
    1UNL    H16   43   0.189  -0.031  -0.199
    1UNL    H17   44   0.108   0.113  -0.143
    1UNL    H18   45  -0.014  -0.147  -0.074
    1UNL    H19   46   0.312  -0.252   0.133
    1UNL    H20   47   0.246  -0.284  -0.025
    1UNL    H21   48   0.511  -0.214  -0.038
    1UNL    H22   49   0.654  -0.032  -0.129
    1UNL    H23   50   0.590   0.057  -0.016
    1UNL    H24   51   0.571   0.135  -0.237
   0.00000   0.00000   0.00000   0.00000   0.00000   0.00000   0.00000   0.00000   0.00000
Generated with MDTraj, t= 5.0
 51
    1UNL     C1    1  -0.448  -0.336   0.039
    1UNL     O1    2  -0.462  -0.231  -0.057
    1UNL     C2    3  -0.382  -0.120  -0.031
    1UNL     C3    4  -0.438  -0.004  -0.083
    1UNL     C4    5  -0.375   0.120  -0.078
    1UNL     O2    6  -0.429   0.246  -0.115
    1UNL     C5    7  -0.568   0.253  -0.142
    1UNL     C6    8  -0.247   0.118  -0.020
    1UNL     C7    9  -0.187   0.001   0.029
    1UNL     C8   10  -0.258  -0.118   0.031
    1UNL     C9   11  -0.045   0.034   0.064
    1UNL    C10   12   0.004   0.017   0.206
    1UNL    C11   13   0.151  -0.026   0.184
    1UNL    C12   14   0.239   0.088   0.125
    1UNL    C13   15   0.163   0.225   0.130
    1UNL     O3   16   0.067   0.259   0.026
    1UNL    C14   17  -0.039   0.177   0.018
    1UNL     N1   18  -0.149   0.220  -0.029
    1UNL    C15   19   0.283   0.052  -0.020
    1UNL    C16   20   0.155   0.030  -0.105
    1UNL    C17   21   0.058  -0.058  -0.021
    1UNL     N2   22   0.138  -0.132   0.086
    1UNL    C18   23   0.261  -0.190   0.029
    1UNL    C19   24   0.353  -0.080  -0.017
    1UNL    C20   25   0.478  -0.110  -0.042
    1UNL    C21   26   0.569  -0.008  -0.089
    1UNL     O4   27   0.521   0.054  -0.209
    1UNL     H1   28  -0.446  -0.295   0.146
    1UNL     H2   29  -0.515  -0.424   0.034
    1UNL     H3   30  -0.352  -0.396   0.026
    1UNL     H4   31  -0.519  -0.020  -0.146
    1UNL     H5   32  -0.577   0.224  -0.252
    1UNL     H6   33  -0.627   0.196  -0.070
    1UNL     H7   34  -0.597   0.356  -0.135
    1UNL     H8   35  -0.211  -0.217   0.064
    1UNL     H9   36   0.004   0.114   0.247
    1UNL    H10   37  -0.052  -0.048   0.262
    1UNL    H11   38   0.193  -0.077   0.275
    1UNL    H12   39   0.338   0.089   0.173
    1UNL    H13   40   0.249   0.296   0.132
    1UNL    H14   41   0.112   0.255   0.225
    1UNL    H15   42   0.358   0.117  -0.067
    1UNL    H16   43   0.188  -0.013  -0.202
    1UNL    H17   44   0.122   0.134  -0.122
    1UNL    H18   45  -0.004  -0.132  -0.090
    1UNL    H19   46   0.309  -0.251   0.108
    1UNL    H20   47   0.238  -0.267  -0.047
    1UNL    H21   48   0.490  -0.220  -0.044
    1UNL    H22   49   0.668  -0.052  -0.117
    1UNL    H23   50   0.603   0.068  -0.017
    1UNL    H24   51   0.581   0.101  -0.265
   0.00000   0.00000   0.00000   0.00000   0.00000   0.00000   0.00000   0.00000   0.00000
Generated with MDTraj, t= 6.0
 51
    1UNL     C1    1  -0.459  -0.313   0.076
    1UNL     O1    2  -0.465  -0.229  -0.038
    1UNL     C2    3  -0.381  -0.119  -0.033
    1UNL     C3    4  -0.441  -0.000  -0.075
    1UNL     C4    5  -0.378   0.120  -0.077
    1UNL     O2    6  -0.438   0.248  -0.121
    1UNL     C5    7  -0.577   0.246  -0.140
    1UNL     C6    8  -0.243   0.114  -0.037
    1UNL     C7    9  -0.185  -0.005   0.009
    1UNL     C8   10  -0.252  -0.126   0.002
    1UNL     C9   11  -0.044   0.031   0.043
    1UNL    C10   12  -0.008   0.013   0.192
    1UNL    C11   13   0.137  -0.040   0.177
    1UNL    C12   14   0.228   0.078   0.138
    1UNL    C13   15   0.165   0.223   0.147
    1UNL     O3   16   0.076   0.252   0.036
    1UNL    C14   17  -0.042   0.179   0.020
    1UNL     N1   18  -0.156   0.226  -0.023
    1UNL    C15   19   0.288   0.051  -0.011
    1UNL    C16   20   0.166   0.031  -0.105
    1UNL    C17   21   0.059  -0.055  -0.040
    1UNL     N2   22   0.138  -0.136   0.063
    1UNL    C18   23   0.270  -0.196   0.032
    1UNL    C19   24   0.360  -0.085  -0.009
    1UNL    C20   25   0.487  -0.103  -0.046
    1UNL    C21   26   0.576   0.011  -0.086
    1UNL     O4   27   0.540   0.052  -0.214
    1UNL     H1   28  -0.461  -0.248   0.168
    1UNL     H2   29  -0.535  -0.390   0.076
    1UNL     H3   30  -0.373  -0.384   0.077
    1UNL     H4   31  -0.550  -0.009  -0.094
    1UNL     H5   32  -0.613   0.156  -0.200
    1UNL     H6   33  -0.625   0.234  -0.043
    1UNL     H7   34  -0.602   0.343  -0.182
    1UNL     H8   35  -0.219  -0.216   0.043
    1UNL     H9   36  -0.021   0.106   0.250
    1UNL    H10   37  -0.078  -0.050   0.230
    1UNL    H11   38   0.162  -0.075   0.280
    1UNL    H12   39   0.314   0.076   0.206
    1UNL    H13   40   0.235   0.312   0.153
    1UNL    H14   41   0.121   0.230   0.252
    1UNL    H15   42   0.340   0.145  -0.038
    1UNL    H16   43   0.207  -0.015  -0.198
    1UNL    H17   44   0.132   0.135  -0.121
    1UNL    H18   45   0.007  -0.125  -0.116
    1UNL    H19   46   0.317  -0.236   0.123
    1UNL    H20   47   0.261  -0.289  -0.033
    1UNL    H21   48   0.517  -0.203  -0.068
    1UNL    H22   49   0.680  -0.026  -0.083
    1UNL    H23   50   0.573   0.093  -0.011
    1UNL    H24   51   0.597   0.109  -0.262
   0.00000   0.00000   0.00000   0.00000   0.00000   0.00000   0.00000   0.00000   0.00000
Generated with MDTraj, t= 7.0
 51
    1UNL     C1    1  -0.446  -0.315   0.097
    1UNL     O1    2  -0.488  -0.216   0.005
    1UNL     C2    3  -0.395  -0.120  -0.026
    1UNL     C3    4  -0.452   0.004  -0.071
    1UNL     C4    5  -0.375   0.118  -0.083
    1UNL     O2    6  -0.424   0.245  -0.114
    1UNL     C5    7  -0.562   0.257  -0.147
    1UNL     C6    8  -0.237   0.109  -0.050
    1UNL     C7    9  -0.184  -0.013  -0.014
    1UNL     C8   10  -0.259  -0.125   0.005
    1UNL     C9   11  -0.042   0.026   0.024
    1UNL    C10   12  -0.017  -0.004   0.179
    1UNL    C11   13   0.132  -0.046   0.172
    1UNL    C12   14   0.228   0.070   0.140
    1UNL    C13   15   0.159   0.202   0.144
    1UNL     O3   16   0.073   0.248   0.044
    1UNL    C14   17  -0.041   0.173   0.006
    1UNL     N1   18  -0.155   0.219  -0.042
    1UNL    C15   19   0.291   0.052  -0.006
    1UNL    C16   20   0.172   0.045  -0.115
    1UNL    C17   21   0.069  -0.053  -0.054
    1UNL     N2   22   0.134  -0.144   0.058
    1UNL    C18   23   0.265  -0.188   0.024
    1UNL    C19   24   0.359  -0.076  -0.006
    1UNL    C20   25   0.492  -0.096  -0.026
    1UNL    C21   26   0.579   0.019  -0.079
    1UNL     O4   27   0.533   0.073  -0.199
    1UNL     H1   28  -0.402  -0.256   0.179
    1UNL     H2   29  -0.519  -0.385   0.126
    1UNL     H3   30  -0.372  -0.379   0.050
    1UNL     H4   31  -0.556   0.004  -0.096
    1UNL     H5   32  -0.597   0.208  -0.245
    1UNL     H6   33  -0.624   0.196  -0.081
    1UNL     H7   34  -0.570   0.364  -0.128
    1UNL     H8   35  -0.214  -0.207   0.054
    1UNL     H9   36  -0.028   0.083   0.241
    1UNL    H10   37  -0.084  -0.075   0.225
    1UNL    H11   38   0.172  -0.113   0.250
    1UNL    H12   39   0.321   0.069   0.201
    1UNL    H13   40   0.253   0.266   0.144
    1UNL    H14   41   0.113   0.235   0.244
    1UNL    H15   42   0.359   0.133  -0.030
    1UNL    H16   43   0.223   0.005  -0.207
    1UNL    H17   44   0.135   0.146  -0.141
    1UNL    H18   45   0.024  -0.115  -0.135
    1UNL    H19   46   0.298  -0.257   0.099
    1UNL    H20   47   0.268  -0.251  -0.073
    1UNL    H21   48   0.530  -0.199  -0.039
    1UNL    H22   49   0.685  -0.011  -0.091
    1UNL    H23   50   0.578   0.088   0.006
    1UNL    H24   51   0.604   0.143  -0.218
   0.00000   0.00000   0.00000   0.00000   0.00000   0.00000   0.00000   0.00000   0.00000
Generated with MDTraj, t= 8.0
 51
    1UNL     C1    1  -0.440  -0.319   0.070
    1UNL     O1    2  -0.497  -0.210   0.022
    1UNL     C2    3  -0.405  -0.106   0.005
    1UNL     C3    4  -0.459   0.012  -0.045
    1UNL     C4    5  -0.378   0.124  -0.078
    1UNL     O2    6  -0.420   0.240  -0.143
    1UNL     C5    7  -0.565   0.253  -0.158
    1UNL     C6    8  -0.240   0.111  -0.051
    1UNL     C7    9  -0.192  -0.009   0.001
    1UNL     C8   10  -0.267  -0.113   0.026
    1UNL     C9   11  -0.044   0.018   0.031
    1UNL    C10   12  -0.009  -0.007   0.180
    1UNL    C11   13   0.139  -0.057   0.173
    1UNL    C12   14   0.228   0.065   0.133
    1UNL    C13   15   0.164   0.211   0.139
    1UNL     O3   16   0.087   0.237   0.027
    1UNL    C14   17  -0.034   0.168  -0.001
    1UNL     N1   18  -0.142   0.213  -0.057
    1UNL    C15   19   0.290   0.047  -0.016
    1UNL    C16   20   0.164   0.028  -0.115
    1UNL    C17   21   0.063  -0.070  -0.049
    1UNL     N2   22   0.129  -0.149   0.056
    1UNL    C18   23   0.263  -0.202   0.007
    1UNL    C19   24   0.361  -0.084  -0.021
    1UNL    C20   25   0.496  -0.093  -0.034
    1UNL    C21   26   0.587   0.022  -0.072
    1UNL     O4   27   0.532   0.122  -0.161
    1UNL     H1   28  -0.376  -0.283   0.150
    1UNL     H2   29  -0.511  -0.389   0.100
    1UNL     H3   30  -0.382  -0.365  -0.008
    1UNL     H4   31  -0.563   0.020  -0.054
    1UNL     H5   32  -0.614   0.163  -0.207
    1UNL     H6   33  -0.602   0.283  -0.064
    1UNL     H7   34  -0.575   0.342  -0.215
    1UNL     H8   35  -0.220  -0.209   0.066
    1UNL     H9   36  -0.036   0.070   0.250
    1UNL    H10   37  -0.068  -0.098   0.215
    1UNL    H11   38   0.162  -0.100   0.270
    1UNL    H12   39   0.312   0.066   0.210
    1UNL    H13   40   0.234   0.295   0.155
    1UNL    H14   41   0.108   0.205   0.239
    1UNL    H15   42   0.347   0.132  -0.055
    1UNL    H16   43   0.210  -0.015  -0.207
    1UNL    H17   44   0.121   0.123  -0.151
    1UNL    H18   45   0.016  -0.129  -0.124
    1UNL    H19   46   0.311  -0.260   0.083
    1UNL    H20   47   0.248  -0.271  -0.086
    1UNL    H21   48   0.541  -0.188  -0.009
    1UNL    H22   49   0.669  -0.037  -0.114
    1UNL    H23   50   0.620   0.080   0.016
    1UNL    H24   51   0.590   0.210  -0.178
   0.00000   0.00000   0.00000   0.00000   0.00000   0.00000   0.00000   0.00000   0.00000
Generated with MDTraj, t= 9.0
 51
    1UNL     C1    1  -0.451  -0.334   0.048
    1UNL     O1    2  -0.505  -0.205   0.035
    1UNL     C2    3  -0.407  -0.106   0.007
    1UNL     C3    4  -0.455   0.006  -0.062
    1UNL     C4    5  -0.372   0.117  -0.084
    1UNL     O2    6  -0.414   0.239  -0.136
    1UNL     C5    7  -0.553   0.248  -0.168
    1UNL     C6    8  -0.239   0.106  -0.039
    1UNL     C7    9  -0.186  -0.013   0.015
    1UNL     C8   10  -0.270  -0.116   0.041
    1UNL     C9   11  -0.044   0.020   0.047
    1UNL    C10   12   0.003   0.006   0.189
    1UNL    C11   13   0.151  -0.036   0.167
    1UNL    C12   14   0.242   0.078   0.103
    1UNL    C13   15   0.173   0.223   0.123
    1UNL     O3   16   0.080   0.254   0.019
    1UNL    C14   17  -0.033   0.169   0.010
    1UNL     N1   18  -0.148   0.210  -0.037
    1UNL    C15   19   0.278   0.039  -0.046
    1UNL    C16   20   0.146   0.018  -0.128
    1UNL    C17   21   0.055  -0.065  -0.044
    1UNL     N2   22   0.139  -0.145   0.061
    1UNL    C18   23   0.263  -0.205   0.007
    1UNL    C19   24   0.355  -0.093  -0.034
    1UNL    C20   25   0.488  -0.104  -0.052
    1UNL    C21   26   0.581   0.006  -0.065
    1UNL     O4   27   0.529   0.135  -0.111
    1UNL     H1   28  -0.421  -0.357   0.151
    1UNL     H2   29  -0.515  -0.406   0.008
    1UNL     H3   30  -0.357  -0.339  -0.006
    1UNL     H4   31  -0.562   0.000  -0.095
    1UNL     H5   32  -0.550   0.210  -0.276
    1UNL     H6   33  -0.616   0.222  -0.085
    1UNL     H7   34  -0.569   0.352  -0.175
    1UNL     H8   35  -0.243  -0.209   0.077
    1UNL     H9   36  -0.008   0.107   0.231
    1UNL    H10   37  -0.046  -0.073   0.256
    1UNL    H11   38   0.189  -0.094   0.249
    1UNL    H12   39   0.343   0.074   0.155
    1UNL    H13   40   0.265   0.281   0.122
    1UNL    H14   41   0.128   0.246   0.225
    1UNL    H15   42   0.340   0.115  -0.098
    1UNL    H16   43   0.164  -0.023  -0.230
    1UNL    H17   44   0.111   0.121  -0.141
    1UNL    H18   45   0.018  -0.142  -0.103
    1UNL    H19   46   0.317  -0.269   0.074
    1UNL    H20   47   0.233  -0.262  -0.090
    1UNL    H21   48   0.528  -0.206  -0.052
    1UNL    H22   49   0.668  -0.019  -0.127
    1UNL    H23   50   0.621   0.010   0.039
    1UNL    H24   51   0.582   0.217  -0.091
   0.00000   0.00000   0.00000   0.00000   0.00000   0.00000   0.00000   0.00000   0.00000
Generated with MDTraj, t= 10.0
 51
    1UNL     C1    1  -0.429  -0.348   0.041
    1UNL     O1    2  -0.488  -0.220   0.000
    1UNL     C2    3  -0.404  -0.112   0.004
    1UNL     C3    4  -0.454   0.010  -0.047
    1UNL     C4    5  -0.378   0.123  -0.066
    1UNL     O2    6  -0.424   0.239  -0.130
    1UNL     C5    7  -0.556   0.233  -0.176
    1UNL     C6    8  -0.243   0.118  -0.024
    1UNL     C7    9  -0.193   0.002   0.030
    1UNL     C8   10  -0.275  -0.105   0.051
    1UNL     C9   11  -0.044   0.028   0.045
    1UNL    C10   12   0.012   0.015   0.191
    1UNL    C11   13   0.156  -0.035   0.164
    1UNL    C12   14   0.246   0.080   0.104
    1UNL    C13   15   0.178   0.223   0.103
    1UNL     O3   16   0.077   0.252   0.012
    1UNL    C14   17  -0.038   0.178   0.005
    1UNL     N1   18  -0.153   0.227  -0.030
    1UNL    C15   19   0.282   0.042  -0.043
    1UNL    C16   20   0.153   0.015  -0.132
    1UNL    C17   21   0.045  -0.061  -0.042
    1UNL     N2   22   0.128  -0.133   0.060
    1UNL    C18   23   0.251  -0.202   0.006
    1UNL    C19   24   0.352  -0.090  -0.042
    1UNL    C20   25   0.481  -0.113  -0.053
    1UNL    C21   26   0.584  -0.015  -0.075
    1UNL     O4   27   0.535   0.120  -0.086
    1UNL     H1   28  -0.337  -0.354   0.106
    1UNL     H2   29  -0.514  -0.403   0.079
    1UNL     H3   30  -0.385  -0.400  -0.048
    1UNL     H4   31  -0.558   0.003  -0.059
    1UNL     H5   32  -0.567   0.131  -0.222
    1UNL     H6   33  -0.620   0.258  -0.095
    1UNL     H7   34  -0.554   0.302  -0.256
    1UNL     H8   35  -0.229  -0.189   0.096
    1UNL     H9   36   0.008   0.105   0.265
    1UNL    H10   37  -0.044  -0.071   0.237
    1UNL    H11   38   0.204  -0.082   0.247
    1UNL    H12   39   0.339   0.094   0.170
    1UNL    H13   40   0.240   0.309   0.094
    1UNL    H14   41   0.147   0.233   0.212
    1UNL    H15   42   0.352   0.119  -0.083
    1UNL    H16   43   0.186  -0.040  -0.223
    1UNL    H17   44   0.111   0.112  -0.164
    1UNL    H18   45  -0.021  -0.120  -0.090
    1UNL    H19   46   0.291  -0.248   0.095
    1UNL    H20   47   0.227  -0.273  -0.082
    1UNL    H21   48   0.498  -0.217  -0.028
    1UNL    H22   49   0.642  -0.032  -0.166
    1UNL    H23   50   0.662  -0.022   0.003
    1UNL    H24   51   0.613   0.168  -0.091
   0.00000   0.00000   0.00000   0.00000   0.00000   0.00000   0.00000   0.00000   0.00000
Generated with MDTraj, t= 11.0
 51
    1UNL     C1    1  -0.400  -0.355   0.041
    1UNL     O1    2  -0.467  -0.229   0.009
    1UNL     C2    3  -0.387  -0.114  -0.005
    1UNL     C3    4  -0.454   0.001  -0.050
    1UNL     C4    5  -0.388   0.127  -0.061
    1UNL     O2    6  -0.449   0.251  -0.095
    1UNL     C5    7  -0.560   0.224  -0.181
    1UNL     C6    8  -0.247   0.131  -0.036
    1UNL     C7    9  -0.188   0.013   0.011
    1UNL     C8   10  -0.257  -0.107   0.030
    1UNL     C9   11  -0.046   0.042   0.037
    1UNL    C10   12  -0.007   0.025   0.186
    1UNL    C11   13   0.139  -0.024   0.167
    1UNL    C12   14   0.240   0.085   0.103
    1UNL    C13   15   0.178   0.222   0.109
    1UNL     O3   16   0.086   0.259   0.012
    1UNL    C14   17  -0.039   0.189   0.003
    1UNL     N1   18  -0.154   0.233  -0.040
    1UNL    C15   19   0.274   0.040  -0.037
    1UNL    C16   20   0.153   0.023  -0.126
    1UNL    C17   21   0.050  -0.058  -0.049
    1UNL     N2   22   0.125  -0.138   0.066
    1UNL    C18   23   0.249  -0.205   0.020
    1UNL    C19   24   0.345  -0.101  -0.020
    1UNL    C20   25   0.470  -0.128  -0.057
    1UNL    C21   26   0.567  -0.032  -0.114
    1UNL     O4   27   0.561   0.104  -0.055
    1UNL     H1   28  -0.369  -0.365   0.150
    1UNL     H2   29  -0.465  -0.441   0.022
    1UNL     H3   30  -0.303  -0.363  -0.017
    1UNL     H4   31  -0.563  -0.001  -0.058
    1UNL     H5   32  -0.527   0.167  -0.275
    1UNL     H6   33  -0.626   0.154  -0.131
    1UNL     H7   34  -0.586   0.325  -0.212
    1UNL     H8   35  -0.212  -0.195   0.079
    1UNL     H9   36  -0.012   0.125   0.245
    1UNL    H10   37  -0.069  -0.051   0.243
    1UNL    H11   38   0.180  -0.064   0.258
    1UNL    H12   39   0.344   0.080   0.153
    1UNL    H13   40   0.260   0.288   0.108
    1UNL    H14   41   0.136   0.266   0.206
    1UNL    H15   42   0.345   0.118  -0.076
    1UNL    H16   43   0.182  -0.046  -0.208
    1UNL    H17   44   0.124   0.121  -0.172
    1UNL    H18   45  -0.005  -0.120  -0.105
    1UNL    H19   46   0.298  -0.258   0.103
    1UNL    H20   47   0.217  -0.261  -0.073
    1UNL    H21   48   0.500  -0.230  -0.046
    1UNL    H22   49   0.551  -0.046  -0.222
    1UNL    H23   50   0.672  -0.062  -0.098
    1UNL    H24   51   0.613   0.174  -0.106
   0.00000   0.00000   0.00000   0.00000   0.00000   0.00000   0.00000   0.00000   0.00000
Generated with MDTraj, t= 12.0
 51
    1UNL     C1    1  -0.406  -0.354   0.034
    1UNL     O1    2  -0.478  -0.243  -0.002
    1UNL     C2    3  -0.398  -0.118  -0.008
    1UNL     C3    4  -0.458   0.001  -0.045
    1UNL     C4    5  -0.388   0.125  -0.059
    1UNL     O2    6  -0.437   0.249  -0.099
    1UNL     C5    7  -0.562   0.235  -0.172
    1UNL     C6    8  -0.253   0.122  -0.021
    1UNL     C7    9  -0.192   0.002   0.010
    1UNL     C8   10  -0.263  -0.119   0.014
    1UNL     C9   11  -0.050   0.036   0.041
    1UNL    C10   12  -0.003   0.034   0.189
    1UNL    C11   13   0.138  -0.010   0.175
    1UNL    C12   14   0.234   0.095   0.115
    1UNL    C13   15   0.170   0.236   0.098
    1UNL     O3   16   0.081   0.259  -0.010
    1UNL    C14   17  -0.036   0.182  -0.006
    1UNL     N1   18  -0.154   0.228  -0.032
    1UNL    C15   19   0.285   0.044  -0.031
    1UNL    C16   20   0.154   0.021  -0.118
    1UNL    C17   21   0.052  -0.060  -0.031
    1UNL     N2   22   0.131  -0.125   0.082
    1UNL    C18   23   0.253  -0.196   0.030
    1UNL    C19   24   0.351  -0.090  -0.031
    1UNL    C20   25   0.466  -0.121  -0.087
    1UNL    C21   26   0.562  -0.020  -0.135
    1UNL     O4   27   0.601   0.063  -0.035
    1UNL     H1   28  -0.385  -0.346   0.145
    1UNL     H2   29  -0.466  -0.445   0.023
    1UNL     H3   30  -0.307  -0.358  -0.021
    1UNL     H4   31  -0.560   0.018  -0.076
    1UNL     H5   32  -0.576   0.143  -0.244
    1UNL     H6   33  -0.636   0.214  -0.095
    1UNL     H7   34  -0.567   0.330  -0.226
    1UNL     H8   35  -0.214  -0.209   0.025
    1UNL     H9   36  -0.023   0.128   0.249
    1UNL    H10   37  -0.072  -0.052   0.228
    1UNL    H11   38   0.164  -0.041   0.276
    1UNL    H12   39   0.317   0.084   0.191
    1UNL    H13   40   0.234   0.320   0.082
    1UNL    H14   41   0.132   0.275   0.197
    1UNL    H15   42   0.353   0.120  -0.078
    1UNL    H16   43   0.183  -0.033  -0.210
    1UNL    H17   44   0.104   0.115  -0.149
    1UNL    H18   45   0.001  -0.133  -0.082
    1UNL    H19   46   0.293  -0.240   0.124
    1UNL    H20   47   0.211  -0.264  -0.047
    1UNL    H21   48   0.494  -0.224  -0.067
    1UNL    H22   49   0.509   0.047  -0.204
    1UNL    H23   50   0.642  -0.079  -0.183
    1UNL    H24   51   0.631   0.162  -0.062
   0.00000   0.00000   0.00000   0.00000   0.00000   0.00000   0.00000   0.00000   0.00000
Generated with MDTraj, t= 13.0
 51
    1UNL     C1    1  -0.437  -0.352   0.023
    1UNL     O1    2  -0.490  -0.231  -0.010
    1UNL     C2    3  -0.410  -0.116  -0.005
    1UNL     C3    4  -0.462  -0.001  -0.068
    1UNL     C4    5  -0.385   0.117  -0.071
    1UNL     O2    6  -0.441   0.233  -0.117
    1UNL     C5    7  -0.582   0.233  -0.148
    1UNL     C6    8  -0.247   0.119  -0.025
    1UNL     C7    9  -0.196   0.009   0.030
    1UNL     C8   10  -0.278  -0.108   0.042
    1UNL     C9   11  -0.048   0.038   0.049
    1UNL    C10   12   0.001   0.030   0.195
    1UNL    C11   13   0.150  -0.017   0.178
    1UNL    C12   14   0.237   0.095   0.099
    1UNL    C13   15   0.180   0.232   0.096
    1UNL     O3   16   0.078   0.261   0.006
    1UNL    C14   17  -0.039   0.185  -0.002
    1UNL     N1   18  -0.154   0.218  -0.046
    1UNL    C15   19   0.274   0.041  -0.045
    1UNL    C16   20   0.143   0.016  -0.118
    1UNL    C17   21   0.049  -0.063  -0.029
    1UNL     N2   22   0.138  -0.127   0.077
    1UNL    C18   23   0.261  -0.191   0.026
    1UNL    C19   24   0.351  -0.089  -0.032
    1UNL    C20   25   0.479  -0.113  -0.067
    1UNL    C21   26   0.572  -0.010  -0.127
    1UNL     O4   27   0.643   0.073  -0.038
    1UNL     H1   28  -0.386  -0.333   0.120
    1UNL     H2   29  -0.514  -0.422   0.052
    1UNL     H3   30  -0.358  -0.380  -0.051
    1UNL     H4   31  -0.559  -0.005  -0.114
    1UNL     H5   32  -0.613   0.167  -0.239
    1UNL     H6   33  -0.626   0.194  -0.058
    1UNL     H7   34  -0.599   0.340  -0.163
    1UNL     H8   35  -0.232  -0.198   0.087
    1UNL     H9   36  -0.006   0.135   0.229
    1UNL    H10   37  -0.063  -0.047   0.261
    1UNL    H11   38   0.195  -0.051   0.273
    1UNL    H12   39   0.338   0.087   0.148
    1UNL    H13   40   0.263   0.300   0.080
    1UNL    H14   41   0.143   0.282   0.189
    1UNL    H15   42   0.341   0.112  -0.100
    1UNL    H16   43   0.161  -0.052  -0.205
    1UNL    H17   44   0.100   0.115  -0.144
    1UNL    H18   45  -0.018  -0.126  -0.085
    1UNL    H19   46   0.309  -0.238   0.116
    1UNL    H20   47   0.233  -0.253  -0.061
    1UNL    H21   48   0.523  -0.205  -0.037
    1UNL    H22   49   0.509   0.043  -0.200
    1UNL    H23   50   0.645  -0.066  -0.188
    1UNL    H24   51   0.723   0.102  -0.091
   0.00000   0.00000   0.00000   0.00000   0.00000   0.00000   0.00000   0.00000   0.00000
Generated with MDTraj, t= 14.0
 51
    1UNL     C1    1  -0.414  -0.350   0.042
    1UNL     O1    2  -0.484  -0.228   0.018
    1UNL     C2    3  -0.400  -0.119  -0.001
    1UNL     C3    4  -0.459   0.002  -0.051
    1UNL     C4    5  -0.386   0.117  -0.078
    1UNL     O2    6  -0.427   0.231  -0.139
    1UNL     C5    7  -0.566   0.254  -0.129
    1UNL     C6    8  -0.250   0.118  -0.040
    1UNL     C7    9  -0.186  -0.000   0.012
    1UNL     C8   10  -0.266  -0.115   0.036
    1UNL     C9   11  -0.049   0.035   0.030
    1UNL    C10   12  -0.009   0.019   0.179
    1UNL    C11   13   0.141  -0.026   0.164
    1UNL    C12   14   0.231   0.090   0.106
    1UNL    C13   15   0.169   0.235   0.106
    1UNL     O3   16   0.075   0.260   0.004
    1UNL    C14   17  -0.040   0.188  -0.006
    1UNL     N1   18  -0.157   0.223  -0.050
    1UNL    C15   19   0.278   0.046  -0.036
    1UNL    C16   20   0.159   0.020  -0.130
    1UNL    C17   21   0.054  -0.059  -0.044
    1UNL     N2   22   0.130  -0.138   0.063
    1UNL    C18   23   0.261  -0.195   0.037
    1UNL    C19   24   0.348  -0.086  -0.022
    1UNL    C20   25   0.464  -0.113  -0.077
    1UNL    C21   26   0.558  -0.004  -0.131
    1UNL     O4   27   0.613   0.072  -0.018
    1UNL     H1   28  -0.378  -0.343   0.144
    1UNL     H2   29  -0.475  -0.438   0.047
    1UNL     H3   30  -0.326  -0.347  -0.021
    1UNL     H4   31  -0.564  -0.003  -0.069
    1UNL     H5   32  -0.605   0.167  -0.196
    1UNL     H6   33  -0.586   0.253  -0.025
    1UNL     H7   34  -0.588   0.352  -0.168
    1UNL     H8   35  -0.219  -0.196   0.093
    1UNL     H9   36  -0.021   0.105   0.250
    1UNL    H10   37  -0.055  -0.083   0.212
    1UNL    H11   38   0.193  -0.069   0.254
    1UNL    H12   39   0.313   0.097   0.180
    1UNL    H13   40   0.245   0.317   0.108
    1UNL    H14   41   0.125   0.253   0.208
    1UNL    H15   42   0.335   0.134  -0.078
    1UNL    H16   43   0.195  -0.037  -0.219
    1UNL    H17   44   0.113   0.116  -0.161
    1UNL    H18   45  -0.008  -0.137  -0.094
    1UNL    H19   46   0.318  -0.228   0.132
    1UNL    H20   47   0.244  -0.268  -0.040
    1UNL    H21   48   0.500  -0.215  -0.057
    1UNL    H22   49   0.516   0.065  -0.206
    1UNL    H23   50   0.634  -0.061  -0.186
    1UNL    H24   51   0.691   0.114  -0.042
   0.00000   0.00000   0.00000   0.00000   0.00000   0.00000   0.00000   0.00000   0.00000
Generated with MDTraj, t= 15.0
 51
    1UNL     C1    1  -0.420  -0.335   0.071
    1UNL     O1    2  -0.485  -0.214   0.028
    1UNL     C2    3  -0.401  -0.112  -0.008
    1UNL     C3    4  -0.452   0.003  -0.060
    1UNL     C4    5  -0.378   0.118  -0.084
    1UNL     O2    6  -0.438   0.238  -0.130
    1UNL     C5    7  -0.583   0.239  -0.115
    1UNL     C6    8  -0.238   0.114  -0.057
    1UNL     C7    9  -0.185  -0.000  -0.001
    1UNL     C8   10  -0.262  -0.113   0.017
    1UNL     C9   11  -0.043   0.029   0.037
    1UNL    C10   12   0.003   0.014   0.184
    1UNL    C11   13   0.145  -0.031   0.163
    1UNL    C12   14   0.233   0.085   0.111
    1UNL    C13   15   0.160   0.224   0.112
    1UNL     O3   16   0.078   0.258   0.004
    1UNL    C14   17  -0.032   0.181  -0.006
    1UNL     N1   18  -0.144   0.216  -0.058
    1UNL    C15   19   0.285   0.049  -0.035
    1UNL    C16   20   0.164   0.027  -0.129
    1UNL    C17   21   0.057  -0.058  -0.055
    1UNL     N2   22   0.124  -0.138   0.053
    1UNL    C18   23   0.249  -0.206   0.010
    1UNL    C19   24   0.354  -0.089  -0.024
    1UNL    C20   25   0.478  -0.122  -0.062
    1UNL    C21   26   0.568  -0.014  -0.103
    1UNL     O4   27   0.565   0.100  -0.024
    1UNL     H1   28  -0.373  -0.328   0.168
    1UNL     H2   29  -0.489  -0.414   0.087
    1UNL     H3   30  -0.347  -0.351  -0.006
    1UNL     H4   31  -0.560   0.009  -0.065
    1UNL     H5   32  -0.595   0.164  -0.202
    1UNL     H6   33  -0.602   0.215  -0.015
    1UNL     H7   34  -0.625   0.336  -0.131
    1UNL     H8   35  -0.224  -0.196   0.063
    1UNL     H9   36  -0.015   0.116   0.235
    1UNL    H10   37  -0.054  -0.069   0.232
    1UNL    H11   38   0.191  -0.081   0.253
    1UNL    H12   39   0.321   0.084   0.176
    1UNL    H13   40   0.255   0.287   0.109
    1UNL    H14   41   0.117   0.255   0.210
    1UNL    H15   42   0.365   0.122  -0.067
    1UNL    H16   43   0.196  -0.024  -0.223
    1UNL    H17   44   0.131   0.126  -0.167
    1UNL    H18   45   0.000  -0.131  -0.122
    1UNL    H19   46   0.292  -0.274   0.093
    1UNL    H20   47   0.243  -0.257  -0.082
    1UNL    H21   48   0.514  -0.219  -0.038
    1UNL    H22   49   0.534   0.019  -0.203
    1UNL    H23   50   0.675  -0.037  -0.117
    1UNL    H24   51   0.622   0.173  -0.047
   0.00000   0.00000   0.00000   0.00000   0.00000   0.00000   0.00000   0.00000   0.00000
Generated with MDTraj, t= 16.0
 51
    1UNL     C1    1  -0.443  -0.319   0.099
    1UNL     O1    2  -0.484  -0.229  -0.003
    1UNL     C2    3  -0.405  -0.109  -0.011
    1UNL     C3    4  -0.464   0.010  -0.050
    1UNL     C4    5  -0.388   0.126  -0.073
    1UNL     O2    6  -0.439   0.252  -0.117
    1UNL     C5    7  -0.581   0.256  -0.130
    1UNL     C6    8  -0.246   0.116  -0.036
    1UNL     C7    9  -0.191  -0.005   0.012
    1UNL     C8   10  -0.263  -0.121   0.016
    1UNL     C9   11  -0.044   0.023   0.033
    1UNL    C10   12   0.011   0.006   0.182
    1UNL    C11   13   0.154  -0.040   0.157
    1UNL    C12   14   0.243   0.078   0.101
    1UNL    C13   15   0.178   0.218   0.094
    1UNL     O3   16   0.082   0.245  -0.003
    1UNL    C14   17  -0.035   0.169  -0.011
    1UNL     N1   18  -0.152   0.212  -0.053
    1UNL    C15   19   0.280   0.037  -0.048
    1UNL    C16   20   0.154   0.016  -0.132
    1UNL    C17   21   0.056  -0.065  -0.051
    1UNL     N2   22   0.134  -0.139   0.048
    1UNL    C18   23   0.263  -0.201  -0.006
    1UNL    C19   24   0.362  -0.098  -0.036
    1UNL    C20   25   0.493  -0.115  -0.035
    1UNL    C21   26   0.587  -0.002  -0.062
    1UNL     O4   27   0.542   0.133  -0.041
    1UNL     H1   28  -0.413  -0.279   0.196
    1UNL     H2   29  -0.529  -0.380   0.123
    1UNL     H3   30  -0.363  -0.371   0.049
    1UNL     H4   31  -0.567   0.011  -0.073
    1UNL     H5   32  -0.614   0.177  -0.205
    1UNL     H6   33  -0.617   0.240  -0.034
    1UNL     H7   34  -0.592   0.356  -0.161
    1UNL     H8   35  -0.225  -0.225   0.021
    1UNL     H9   36   0.002   0.104   0.243
    1UNL    H10   37  -0.054  -0.061   0.238
    1UNL    H11   38   0.202  -0.081   0.251
    1UNL    H12   39   0.332   0.074   0.162
    1UNL    H13   40   0.260   0.296   0.092
    1UNL    H14   41   0.139   0.235   0.195
    1UNL    H15   42   0.339   0.124  -0.092
    1UNL    H16   43   0.189  -0.043  -0.221
    1UNL    H17   44   0.107   0.105  -0.179
    1UNL    H18   45  -0.010  -0.137  -0.116
    1UNL    H19   46   0.320  -0.265   0.072
    1UNL    H20   47   0.254  -0.251  -0.099
    1UNL    H21   48   0.534  -0.215  -0.018
    1UNL    H22   49   0.637  -0.001  -0.160
    1UNL    H23   50   0.671  -0.021   0.008
    1UNL    H24   51   0.613   0.202  -0.072
   0.00000   0.00000   0.00000   0.00000   0.00000   0.00000   0.00000   0.00000   0.00000
Generated with MDTraj, t= 17.0
 51
    1UNL     C1    1  -0.470  -0.324   0.099
    1UNL     O1    2  -0.497  -0.223   0.009
    1UNL     C2    3  -0.403  -0.123  -0.005
    1UNL     C3    4  -0.450   0.003  -0.055
    1UNL     C4    5  -0.383   0.122  -0.057
    1UNL     O2    6  -0.424   0.250  -0.091
    1UNL     C5    7  -0.559   0.259  -0.150
    1UNL     C6    8  -0.249   0.117  -0.025
    1UNL     C7    9  -0.187  -0.009   0.005
    1UNL     C8   10  -0.261  -0.119   0.018
    1UNL     C9   11  -0.044   0.024   0.022
    1UNL    C10   12   0.002   0.006   0.167
    1UNL    C11   13   0.146  -0.042   0.151
    1UNL    C12   14   0.241   0.077   0.090
    1UNL    C13   15   0.182   0.216   0.089
    1UNL     O3   16   0.083   0.243  -0.004
    1UNL    C14   17  -0.035   0.169  -0.012
    1UNL     N1   18  -0.153   0.217  -0.046
    1UNL    C15   19   0.290   0.036  -0.056
    1UNL    C16   20   0.158   0.014  -0.141
    1UNL    C17   21   0.052  -0.072  -0.057
    1UNL     N2   22   0.134  -0.148   0.048
    1UNL    C18   23   0.268  -0.203   0.007
    1UNL    C19   24   0.357  -0.089  -0.043
    1UNL    C20   25   0.488  -0.105  -0.041
    1UNL    C21   26   0.589   0.012  -0.046
    1UNL     O4   27   0.532   0.141  -0.039
    1UNL     H1   28  -0.456  -0.288   0.204
    1UNL     H2   29  -0.566  -0.378   0.102
    1UNL     H3   30  -0.384  -0.380   0.057
    1UNL     H4   31  -0.556   0.008  -0.078
    1UNL     H5   32  -0.580   0.211  -0.252
    1UNL     H6   33  -0.622   0.204  -0.085
    1UNL     H7   34  -0.559   0.366  -0.146
    1UNL     H8   35  -0.201  -0.208   0.043
    1UNL     H9   36   0.003   0.099   0.225
    1UNL    H10   37  -0.068  -0.059   0.221
    1UNL    H11   38   0.193  -0.096   0.239
    1UNL    H12   39   0.331   0.067   0.146
    1UNL    H13   40   0.271   0.284   0.075
    1UNL    H14   41   0.153   0.250   0.188
    1UNL    H15   42   0.353   0.117  -0.106
    1UNL    H16   43   0.185  -0.029  -0.241
    1UNL    H17   44   0.112   0.112  -0.158
    1UNL    H18   45  -0.009  -0.150  -0.122
    1UNL    H19   46   0.323  -0.256   0.094
    1UNL    H20   47   0.255  -0.273  -0.072
    1UNL    H21   48   0.524  -0.202  -0.022
    1UNL    H22   49   0.642  -0.003  -0.141
    1UNL    H23   50   0.666   0.004   0.031
    1UNL    H24   51   0.612   0.207  -0.052
   0.00000   0.00000   0.00000   0.00000   0.00000   0.00000   0.00000   0.00000   0.00000
Generated with MDTraj, t= 18.0
 51
    1UNL     C1    1  -0.432  -0.332   0.083
    1UNL     O1    2  -0.493  -0.209   0.026
    1UNL     C2    3  -0.403  -0.109  -0.002
    1UNL     C3    4  -0.460   0.017  -0.047
    1UNL     C4    5  -0.379   0.128  -0.063
    1UNL     O2    6  -0.434   0.253  -0.106
    1UNL     C5    7  -0.569   0.238  -0.163
    1UNL     C6    8  -0.244   0.120  -0.026
    1UNL     C7    9  -0.190  -0.002   0.010
    1UNL     C8   10  -0.263  -0.117   0.027
    1UNL     C9   11  -0.042   0.024   0.026
    1UNL    C10   12  -0.006   0.004   0.171
    1UNL    C11   13   0.142  -0.049   0.156
    1UNL    C12   14   0.233   0.072   0.103
    1UNL    C13   15   0.166   0.217   0.108
    1UNL     O3   16   0.085   0.245  -0.008
    1UNL    C14   17  -0.036   0.171  -0.012
    1UNL     N1   18  -0.149   0.214  -0.056
    1UNL    C15   19   0.277   0.034  -0.046
    1UNL    C16   20   0.153   0.022  -0.140
    1UNL    C17   21   0.061  -0.068  -0.057
    1UNL     N2   22   0.135  -0.149   0.048
    1UNL    C18   23   0.266  -0.204   0.004
    1UNL    C19   24   0.357  -0.093  -0.042
    1UNL    C20   25   0.489  -0.101  -0.052
    1UNL    C21   26   0.585   0.010  -0.087
    1UNL     O4   27   0.558   0.123  -0.014
    1UNL     H1   28  -0.373  -0.307   0.176
    1UNL     H2   29  -0.523  -0.387   0.114
    1UNL     H3   30  -0.372  -0.390   0.008
    1UNL     H4   31  -0.567   0.009  -0.060
    1UNL     H5   32  -0.590   0.140  -0.221
    1UNL     H6   33  -0.632   0.239  -0.078
    1UNL     H7   34  -0.574   0.326  -0.226
    1UNL     H8   35  -0.227  -0.207   0.057
    1UNL     H9   36  -0.023   0.093   0.223
    1UNL    H10   37  -0.063  -0.082   0.214
    1UNL    H11   38   0.180  -0.084   0.255
    1UNL    H12   39   0.326   0.056   0.155
    1UNL    H13   40   0.245   0.293   0.106
    1UNL    H14   41   0.126   0.235   0.205
    1UNL    H15   42   0.327   0.130  -0.081
    1UNL    H16   43   0.173  -0.033  -0.237
    1UNL    H17   44   0.119   0.125  -0.159
    1UNL    H18   45   0.007  -0.140  -0.136
    1UNL    H19   46   0.307  -0.252   0.098
    1UNL    H20   47   0.257  -0.284  -0.069
    1UNL    H21   48   0.541  -0.195  -0.026
    1UNL    H22   49   0.587   0.026  -0.195
    1UNL    H23   50   0.686  -0.018  -0.054
    1UNL    H24   51   0.611   0.199  -0.041
   0.00000   0.00000   0.00000   0.00000   0.00000   0.00000   0.00000   0.00000   0.00000
Generated with MDTraj, t= 19.0
 51
    1UNL     C1    1  -0.416  -0.339   0.056
    1UNL     O1    2  -0.493  -0.212   0.046
    1UNL     C2    3  -0.401  -0.109   0.011
    1UNL     C3    4  -0.457   0.006  -0.044
    1UNL     C4    5  -0.382   0.119  -0.075
    1UNL     O2    6  -0.432   0.235  -0.138
    1UNL     C5    7  -0.573   0.236  -0.162
    1UNL     C6    8  -0.245   0.113  -0.043
    1UNL     C7    9  -0.190  -0.002   0.010
    1UNL     C8   10  -0.263  -0.114   0.029
    1UNL     C9   11  -0.045   0.029   0.037
    1UNL    C10   12   0.001   0.016   0.187
    1UNL    C11   13   0.147  -0.033   0.164
    1UNL    C12   14   0.238   0.087   0.107
    1UNL    C13   15   0.166   0.223   0.111
    1UNL     O3   16   0.068   0.257   0.015
    1UNL    C14   17  -0.038   0.175  -0.004
    1UNL     N1   18  -0.147   0.217  -0.067
    1UNL    C15   19   0.285   0.050  -0.035
    1UNL    C16   20   0.153   0.036  -0.125
    1UNL    C17   21   0.051  -0.054  -0.051
    1UNL     N2   22   0.133  -0.135   0.052
    1UNL    C18   23   0.259  -0.200   0.007
    1UNL    C19   24   0.351  -0.088  -0.042
    1UNL    C20   25   0.472  -0.115  -0.085
    1UNL    C21   26   0.567  -0.004  -0.117
    1UNL     O4   27   0.591   0.076   0.001
    1UNL     H1   28  -0.367  -0.338   0.157
    1UNL     H2   29  -0.498  -0.412   0.043
    1UNL     H3   30  -0.343  -0.363  -0.026
    1UNL     H4   31  -0.563   0.009  -0.056
    1UNL     H5   32  -0.585   0.181  -0.265
    1UNL     H6   33  -0.618   0.206  -0.068
    1UNL     H7   34  -0.595   0.339  -0.188
    1UNL     H8   35  -0.218  -0.205   0.078
    1UNL     H9   36  -0.005   0.106   0.240
    1UNL    H10   37  -0.044  -0.074   0.233
    1UNL    H11   38   0.185  -0.086   0.253
    1UNL    H12   39   0.327   0.074   0.172
    1UNL    H13   40   0.244   0.297   0.110
    1UNL    H14   41   0.123   0.234   0.206
    1UNL    H15   42   0.357   0.132  -0.064
    1UNL    H16   43   0.192  -0.001  -0.223
    1UNL    H17   44   0.104   0.132  -0.144
    1UNL    H18   45  -0.012  -0.121  -0.128
    1UNL    H19   46   0.306  -0.262   0.085
    1UNL    H20   47   0.227  -0.274  -0.069
    1UNL    H21   48   0.505  -0.216  -0.092
    1UNL    H22   49   0.519   0.070  -0.182
    1UNL    H23   50   0.661  -0.029  -0.169
    1UNL    H24   51   0.630   0.159  -0.011
   0.00000   0.00000   0.00000   0.00000   0.00000   0.00000   0.00000   0.00000   0.00000
Generated with MDTraj, t= 20.0
 51
    1UNL     C1    1  -0.417  -0.343   0.051
    1UNL     O1    2  -0.482  -0.221   0.014
    1UNL     C2    3  -0.397  -0.113   0.001
    1UNL     C3    4  -0.460  -0.005  -0.061
    1UNL     C4    5  -0.385   0.117  -0.085
    1UNL     O2    6  -0.437   0.225  -0.153
    1UNL     C5    7  -0.578   0.231  -0.157
    1UNL     C6    8  -0.256   0.118  -0.029
    1UNL     C7    9  -0.197   0.009   0.033
    1UNL     C8   10  -0.265  -0.109   0.036
    1UNL     C9   11  -0.048   0.042   0.058
    1UNL    C10   12   0.008   0.020   0.199
    1UNL    C11   13   0.156  -0.028   0.159
    1UNL    C12   14   0.249   0.089   0.101
    1UNL    C13   15   0.175   0.224   0.105
    1UNL     O3   16   0.073   0.266   0.019
    1UNL    C14   17  -0.046   0.188   0.008
    1UNL     N1   18  -0.164   0.221  -0.037
    1UNL    C15   19   0.280   0.047  -0.044
    1UNL    C16   20   0.146   0.029  -0.125
    1UNL    C17   21   0.046  -0.046  -0.040
    1UNL     N2   22   0.123  -0.133   0.058
    1UNL    C18   23   0.247  -0.192   0.002
    1UNL    C19   24   0.345  -0.091  -0.037
    1UNL    C20   25   0.472  -0.116  -0.063
    1UNL    C21   26   0.563  -0.016  -0.118
    1UNL     O4   27   0.628   0.067  -0.021
    1UNL     H1   28  -0.388  -0.321   0.156
    1UNL     H2   29  -0.497  -0.412   0.020
    1UNL     H3   30  -0.331  -0.371  -0.010
    1UNL     H4   31  -0.561  -0.010  -0.093
    1UNL     H5   32  -0.594   0.153  -0.243
    1UNL     H6   33  -0.615   0.224  -0.055
    1UNL     H7   34  -0.598   0.324  -0.209
    1UNL     H8   35  -0.211  -0.193   0.074
    1UNL     H9   36   0.017   0.114   0.250
    1UNL    H10   37  -0.031  -0.062   0.252
    1UNL    H11   38   0.208  -0.078   0.240
    1UNL    H12   39   0.339   0.085   0.165
    1UNL    H13   40   0.250   0.296   0.085
    1UNL    H14   41   0.149   0.241   0.205
    1UNL    H15   42   0.354   0.125  -0.077
    1UNL    H16   43   0.174  -0.024  -0.219
    1UNL    H17   44   0.102   0.122  -0.166
    1UNL    H18   45  -0.022  -0.115  -0.106
    1UNL    H19   46   0.290  -0.250   0.083
    1UNL    H20   47   0.233  -0.269  -0.079
    1UNL    H21   48   0.511  -0.216  -0.057
    1UNL    H22   49   0.519   0.045  -0.198
    1UNL    H23   50   0.650  -0.057  -0.175
    1UNL    H24   51   0.709   0.106  -0.063
   0.00000   0.00000   0.00000   0.00000   0.00000   0.00000   0.00000   0.00000   0.00000
Generated with MDTraj, t= 21.0
 51
    1UNL     C1    1  -0.411  -0.340   0.060
    1UNL     O1    2  -0.468  -0.242  -0.021
    1UNL     C2    3  -0.387  -0.122  -0.017
    1UNL     C3    4  -0.451  -0.003  -0.069
    1UNL     C4    5  -0.382   0.122  -0.072
    1UNL     O2    6  -0.434   0.244  -0.104
    1UNL     C5    7  -0.565   0.240  -0.169
    1UNL     C6    8  -0.246   0.122  -0.023
    1UNL     C7    9  -0.191   0.009   0.031
    1UNL     C8   10  -0.259  -0.115   0.038
    1UNL     C9   11  -0.049   0.040   0.055
    1UNL    C10   12   0.006   0.033   0.202
    1UNL    C11   13   0.147  -0.026   0.176
    1UNL    C12   14   0.233   0.093   0.102
    1UNL    C13   15   0.163   0.235   0.103
    1UNL     O3   16   0.073   0.258  -0.002
    1UNL    C14   17  -0.043   0.182   0.002
    1UNL     N1   18  -0.154   0.226  -0.044
    1UNL    C15   19   0.270   0.043  -0.043
    1UNL    C16   20   0.144   0.016  -0.125
    1UNL    C17   21   0.044  -0.054  -0.035
    1UNL     N2   22   0.127  -0.123   0.069
    1UNL    C18   23   0.261  -0.196   0.034
    1UNL    C19   24   0.341  -0.086  -0.034
    1UNL    C20   25   0.456  -0.113  -0.087
    1UNL    C21   26   0.559  -0.015  -0.136
    1UNL     O4   27   0.604   0.058  -0.024
    1UNL     H1   28  -0.379  -0.281   0.147
    1UNL     H2   29  -0.481  -0.422   0.059
    1UNL     H3   30  -0.326  -0.375   0.007
    1UNL     H4   31  -0.558  -0.010  -0.100
    1UNL     H5   32  -0.547   0.163  -0.254
    1UNL     H6   33  -0.636   0.206  -0.096
    1UNL     H7   34  -0.582   0.331  -0.224
    1UNL     H8   35  -0.207  -0.197   0.072
    1UNL     H9   36   0.009   0.125   0.261
    1UNL    H10   37  -0.047  -0.041   0.248
    1UNL    H11   38   0.195  -0.070   0.262
    1UNL    H12   39   0.330   0.089   0.157
    1UNL    H13   40   0.239   0.311   0.103
    1UNL    H14   41   0.109   0.258   0.191
    1UNL    H15   42   0.327   0.126  -0.093
    1UNL    H16   43   0.161  -0.044  -0.216
    1UNL    H17   44   0.101   0.109  -0.167
    1UNL    H18   45  -0.023  -0.130  -0.087
    1UNL    H19   46   0.307  -0.239   0.119
    1UNL    H20   47   0.236  -0.290  -0.027
    1UNL    H21   48   0.487  -0.216  -0.084
    1UNL    H22   49   0.523   0.057  -0.211
    1UNL    H23   50   0.638  -0.073  -0.189
    1UNL    H24   51   0.704   0.088  -0.042
   0.00000   0.00000   0.00000   0.00000   0.00000   0.00000   0.00000   0.00000   0.00000
Generated with MDTraj, t= 22.0
 51
    1UNL     C1    1  -0.431  -0.346   0.045
    1UNL     O1    2  -0.476  -0.232  -0.018
    1UNL     C2    3  -0.391  -0.118  -0.014
    1UNL     C3    4  -0.455   0.004  -0.052
    1UNL     C4    5  -0.384   0.120  -0.055
    1UNL     O2    6  -0.440   0.237  -0.100
    1UNL     C5    7  -0.562   0.228  -0.178
    1UNL     C6    8  -0.251   0.123  -0.013
    1UNL     C7    9  -0.187   0.006   0.018
    1UNL     C8   10  -0.258  -0.114   0.017
    1UNL     C9   11  -0.048   0.037   0.037
    1UNL    C10   12   0.002   0.033   0.188
    1UNL    C11   13   0.143  -0.020   0.169
    1UNL    C12   14   0.240   0.087   0.107
    1UNL    C13   15   0.178   0.230   0.101
    1UNL     O3   16   0.084   0.266   0.000
    1UNL    C14   17  -0.037   0.190   0.002
    1UNL     N1   18  -0.160   0.229  -0.029
    1UNL    C15   19   0.283   0.035  -0.036
    1UNL    C16   20   0.157   0.020  -0.119
    1UNL    C17   21   0.051  -0.057  -0.034
    1UNL     N2   22   0.124  -0.134   0.073
    1UNL    C18   23   0.256  -0.197   0.040
    1UNL    C19   24   0.347  -0.097  -0.024
    1UNL    C20   25   0.471  -0.125  -0.060
    1UNL    C21   26   0.555  -0.020  -0.137
    1UNL     O4   27   0.591   0.094  -0.060
    1UNL     H1   28  -0.409  -0.313   0.148
    1UNL     H2   29  -0.499  -0.426   0.027
    1UNL     H3   30  -0.349  -0.377  -0.014
    1UNL     H4   31  -0.557   0.013  -0.060
    1UNL     H5   32  -0.543   0.155  -0.265
    1UNL     H6   33  -0.626   0.177  -0.110
    1UNL     H7   34  -0.591   0.322  -0.219
    1UNL     H8   35  -0.205  -0.215   0.037
    1UNL     H9   36   0.003   0.136   0.226
    1UNL    H10   37  -0.067  -0.026   0.235
    1UNL    H11   38   0.186  -0.061   0.257
    1UNL    H12   39   0.329   0.072   0.174
    1UNL    H13   40   0.263   0.295   0.080
    1UNL    H14   41   0.149   0.267   0.196
    1UNL    H15   42   0.349   0.113  -0.082
    1UNL    H16   43   0.169  -0.032  -0.214
    1UNL    H17   44   0.119   0.121  -0.141
    1UNL    H18   45  -0.008  -0.129  -0.092
    1UNL    H19   46   0.294  -0.221   0.136
    1UNL    H20   47   0.246  -0.302  -0.007
    1UNL    H21   48   0.517  -0.221  -0.047
    1UNL    H22   49   0.497   0.006  -0.227
    1UNL    H23   50   0.652  -0.061  -0.175
    1UNL    H24   51   0.539   0.108   0.028
   0.00000   0.00000   0.00000   0.00000   0.00000   0.00000   0.00000   0.00000   0.00000
Generated with MDTraj, t= 23.0
 51
    1UNL     C1    1  -0.419  -0.344   0.027
    1UNL     O1    2  -0.489  -0.224   0.010
    1UNL     C2    3  -0.410  -0.114  -0.000
    1UNL     C3    4  -0.464   0.005  -0.050
    1UNL     C4    5  -0.389   0.122  -0.068
    1UNL     O2    6  -0.438   0.242  -0.121
    1UNL     C5    7  -0.560   0.252  -0.174
    1UNL     C6    8  -0.256   0.122  -0.026
    1UNL     C7    9  -0.196   0.003   0.022
    1UNL     C8   10  -0.272  -0.118   0.038
    1UNL     C9   11  -0.049   0.033   0.044
    1UNL    C10   12  -0.001   0.022   0.197
    1UNL    C11   13   0.146  -0.024   0.176
    1UNL    C12   14   0.238   0.087   0.110
    1UNL    C13   15   0.174   0.222   0.106
    1UNL     O3   16   0.075   0.250   0.011
    1UNL    C14   17  -0.042   0.178  -0.009
    1UNL     N1   18  -0.155   0.215  -0.056
    1UNL    C15   19   0.275   0.043  -0.037
    1UNL    C16   20   0.148   0.017  -0.118
    1UNL    C17   21   0.054  -0.069  -0.030
    1UNL     N2   22   0.137  -0.135   0.080
    1UNL    C18   23   0.265  -0.197   0.026
    1UNL    C19   24   0.353  -0.092  -0.032
    1UNL    C20   25   0.480  -0.110  -0.058
    1UNL    C21   26   0.580  -0.018  -0.128
    1UNL     O4   27   0.614   0.105  -0.068
    1UNL     H1   28  -0.379  -0.343   0.130
    1UNL     H2   29  -0.481  -0.429   0.001
    1UNL     H3   30  -0.346  -0.348  -0.053
    1UNL     H4   31  -0.573   0.015  -0.067
    1UNL     H5   32  -0.571   0.170  -0.252
    1UNL     H6   33  -0.617   0.217  -0.090
    1UNL     H7   34  -0.561   0.351  -0.217
    1UNL     H8   35  -0.234  -0.210   0.072
    1UNL     H9   36  -0.019   0.112   0.250
    1UNL    H10   37  -0.059  -0.054   0.242
    1UNL    H11   38   0.194  -0.053   0.266
    1UNL    H12   39   0.331   0.088   0.173
    1UNL    H13   40   0.255   0.299   0.097
    1UNL    H14   41   0.130   0.248   0.200
    1UNL    H15   42   0.331   0.127  -0.081
    1UNL    H16   43   0.168  -0.042  -0.207
    1UNL    H17   44   0.095   0.109  -0.147
    1UNL    H18   45  -0.007  -0.133  -0.089
    1UNL    H19   46   0.308  -0.264   0.096
    1UNL    H20   47   0.233  -0.266  -0.060
    1UNL    H21   48   0.508  -0.216  -0.049
    1UNL    H22   49   0.542   0.017  -0.225
    1UNL    H23   50   0.674  -0.072  -0.149
    1UNL    H24   51   0.551   0.126   0.005
   0.00000   0.00000   0.00000   0.00000   0.00000   0.00000   0.00000   0.00000   0.00000
Generated with MDTraj, t= 24.0
 51
    1UNL     C1    1  -0.441  -0.341   0.026
    1UNL     O1    2  -0.495  -0.212   0.035
    1UNL     C2    3  -0.402  -0.108   0.008
    1UNL     C3    4  -0.449   0.003  -0.054
    1UNL     C4    5  -0.378   0.118  -0.083
    1UNL     O2    6  -0.424   0.231  -0.141
    1UNL     C5    7  -0.568   0.239  -0.149
    1UNL     C6    8  -0.242   0.116  -0.033
    1UNL     C7    9  -0.187  -0.003   0.016
    1UNL     C8   10  -0.262  -0.116   0.036
    1UNL     C9   11  -0.046   0.025   0.045
    1UNL    C10   12  -0.001   0.018   0.191
    1UNL    C11   13   0.146  -0.018   0.180
    1UNL    C12   14   0.233   0.089   0.111
    1UNL    C13   15   0.165   0.231   0.111
    1UNL     O3   16   0.079   0.250  -0.001
    1UNL    C14   17  -0.033   0.175  -0.008
    1UNL     N1   18  -0.148   0.215  -0.054
    1UNL    C15   19   0.272   0.048  -0.037
    1UNL    C16   20   0.150   0.017  -0.125
    1UNL    C17   21   0.052  -0.071  -0.038
    1UNL     N2   22   0.136  -0.135   0.075
    1UNL    C18   23   0.258  -0.196   0.021
    1UNL    C19   24   0.351  -0.085  -0.036
    1UNL    C20   25   0.468  -0.100  -0.095
    1UNL    C21   26   0.558   0.013  -0.132
    1UNL     O4   27   0.613   0.073  -0.018
    1UNL     H1   28  -0.398  -0.372   0.125
    1UNL     H2   29  -0.518  -0.412  -0.006
    1UNL     H3   30  -0.367  -0.350  -0.056
    1UNL     H4   31  -0.555   0.005  -0.068
    1UNL     H5   32  -0.602   0.143  -0.201
    1UNL     H6   33  -0.600   0.221  -0.048
    1UNL     H7   34  -0.594   0.328  -0.204
    1UNL     H8   35  -0.220  -0.197   0.081
    1UNL     H9   36  -0.023   0.111   0.227
    1UNL    H10   37  -0.055  -0.056   0.251
    1UNL    H11   38   0.195  -0.044   0.271
    1UNL    H12   39   0.324   0.091   0.174
    1UNL    H13   40   0.245   0.312   0.114
    1UNL    H14   41   0.111   0.252   0.202
    1UNL    H15   42   0.344   0.120  -0.078
    1UNL    H16   43   0.187  -0.046  -0.207
    1UNL    H17   44   0.093   0.101  -0.166
    1UNL    H18   45  -0.002  -0.145  -0.085
    1UNL    H19   46   0.314  -0.242   0.101
    1UNL    H20   47   0.236  -0.282  -0.048
    1UNL    H21   48   0.511  -0.197  -0.092
    1UNL    H22   49   0.510   0.091  -0.192
    1UNL    H23   50   0.646  -0.012  -0.193
    1UNL    H24   51   0.540   0.097   0.034
   0.00000   0.00000   0.00000   0.00000   0.00000   0.00000   0.00000   0.00000   0.00000
Generated with MDTraj, t= 25.0
 51
    1UNL     C1    1  -0.431  -0.350   0.046
    1UNL     O1    2  -0.490  -0.219   0.031
    1UNL     C2    3  -0.408  -0.108   0.014
    1UNL     C3    4  -0.458   0.005  -0.054
    1UNL     C4    5  -0.381   0.113  -0.085
    1UNL     O2    6  -0.425   0.232  -0.141
    1UNL     C5    7  -0.576   0.240  -0.144
    1UNL     C6    8  -0.247   0.113  -0.042
    1UNL     C7    9  -0.193  -0.001   0.017
    1UNL     C8   10  -0.271  -0.110   0.055
    1UNL     C9   11  -0.048   0.034   0.032
    1UNL    C10   12  -0.001   0.021   0.179
    1UNL    C11   13   0.144  -0.031   0.150
    1UNL    C12   14   0.241   0.086   0.094
    1UNL    C13   15   0.167   0.233   0.110
    1UNL     O3   16   0.059   0.268   0.021
    1UNL    C14   17  -0.042   0.181   0.002
    1UNL     N1   18  -0.159   0.214  -0.047
    1UNL    C15   19   0.285   0.045  -0.051
    1UNL    C16   20   0.161   0.025  -0.137
    1UNL    C17   21   0.054  -0.054  -0.060
    1UNL     N2   22   0.129  -0.134   0.044
    1UNL    C18   23   0.256  -0.194   0.012
    1UNL    C19   24   0.355  -0.091  -0.032
    1UNL    C20   25   0.482  -0.117  -0.054
    1UNL    C21   26   0.570  -0.010  -0.109
    1UNL     O4   27   0.629   0.082  -0.012
    1UNL     H1   28  -0.329  -0.357   0.089
    1UNL     H2   29  -0.496  -0.401   0.120
    1UNL     H3   30  -0.430  -0.404  -0.052
    1UNL     H4   31  -0.561   0.011  -0.075
    1UNL     H5   32  -0.612   0.168  -0.225
    1UNL     H6   33  -0.621   0.224  -0.046
    1UNL     H7   34  -0.600   0.342  -0.169
    1UNL     H8   35  -0.231  -0.188   0.131
    1UNL     H9   36  -0.005   0.110   0.235
    1UNL    H10   37  -0.058  -0.051   0.236
    1UNL    H11   38   0.185  -0.083   0.236
    1UNL    H12   39   0.324   0.083   0.166
    1UNL    H13   40   0.245   0.316   0.101
    1UNL    H14   41   0.135   0.252   0.213
    1UNL    H15   42   0.349   0.122  -0.096
    1UNL    H16   43   0.178  -0.024  -0.232
    1UNL    H17   44   0.121   0.124  -0.162
    1UNL    H18   45   0.006  -0.128  -0.110
    1UNL    H19   46   0.292  -0.260   0.092
    1UNL    H20   47   0.250  -0.260  -0.077
    1UNL    H21   48   0.521  -0.219  -0.049
    1UNL    H22   49   0.515   0.046  -0.185
    1UNL    H23   50   0.653  -0.060  -0.161
    1UNL    H24   51   0.568   0.125   0.042
   0.00000   0.00000   0.00000   0.00000   0.00000   0.00000   0.00000   0.00000   0.00000
Generated with MDTraj, t= 26.0
 51
    1UNL     C1    1  -0.419  -0.337   0.064
    1UNL     O1    2  -0.490  -0.219   0.030
    1UNL     C2    3  -0.403  -0.110   0.008
    1UNL     C3    4  -0.462   0.008  -0.044
    1UNL     C4    5  -0.387   0.119  -0.074
    1UNL     O2    6  -0.445   0.239  -0.122
    1UNL     C5    7  -0.586   0.225  -0.143
    1UNL     C6    8  -0.252   0.121  -0.042
    1UNL     C7    9  -0.189   0.001  -0.002
    1UNL     C8   10  -0.259  -0.112   0.020
    1UNL     C9   11  -0.045   0.030   0.026
    1UNL    C10   12   0.000   0.015   0.176
    1UNL    C11   13   0.154  -0.028   0.164
    1UNL    C12   14   0.244   0.092   0.102
    1UNL    C13   15   0.169   0.227   0.102
    1UNL     O3   16   0.077   0.249   0.002
    1UNL    C14   17  -0.043   0.181  -0.009
    1UNL     N1   18  -0.157   0.226  -0.047
    1UNL    C15   19   0.286   0.048  -0.042
    1UNL    C16   20   0.160   0.023  -0.139
    1UNL    C17   21   0.054  -0.061  -0.052
    1UNL     N2   22   0.132  -0.130   0.051
    1UNL    C18   23   0.255  -0.197   0.001
    1UNL    C19   24   0.352  -0.083  -0.036
    1UNL    C20   25   0.474  -0.110  -0.070
    1UNL    C21   26   0.580  -0.008  -0.103
    1UNL     O4   27   0.608   0.067   0.013
    1UNL     H1   28  -0.407  -0.356   0.170
    1UNL     H2   29  -0.494  -0.415   0.036
    1UNL     H3   30  -0.317  -0.342   0.015
    1UNL     H4   31  -0.573   0.005  -0.048
    1UNL     H5   32  -0.596   0.139  -0.221
    1UNL     H6   33  -0.645   0.233  -0.051
    1UNL     H7   34  -0.610   0.322  -0.188
    1UNL     H8   35  -0.207  -0.195   0.066
    1UNL     H9   36  -0.000   0.109   0.236
    1UNL    H10   37  -0.058  -0.052   0.232
    1UNL    H11   38   0.196  -0.070   0.256
    1UNL    H12   39   0.333   0.105   0.164
    1UNL    H13   40   0.243   0.316   0.099
    1UNL    H14   41   0.116   0.249   0.197
    1UNL    H15   42   0.354   0.117  -0.091
    1UNL    H16   43   0.176  -0.029  -0.233
    1UNL    H17   44   0.123   0.117  -0.180
    1UNL    H18   45  -0.003  -0.118  -0.113
    1UNL    H19   46   0.303  -0.264   0.078
    1UNL    H20   47   0.231  -0.261  -0.082
    1UNL    H21   48   0.503  -0.211  -0.055
    1UNL    H22   49   0.551   0.051  -0.191
    1UNL    H23   50   0.665  -0.070  -0.126
    1UNL    H24   51   0.541   0.133   0.035
   0.00000   0.00000   0.00000   0.00000   0.00000   0.00000   0.00000   0.00000   0.00000
Generated with MDTraj, t= 27.0
 51
    1UNL     C1    1  -0.419  -0.336   0.078
    1UNL     O1    2  -0.481  -0.231   0.008
    1UNL     C2    3  -0.400  -0.120  -0.007
    1UNL     C3    4  -0.461   0.001  -0.046
    1UNL     C4    5  -0.389   0.122  -0.062
    1UNL     O2    6  -0.446   0.246  -0.091
    1UNL     C5    7  -0.571   0.240  -0.146
    1UNL     C6    8  -0.250   0.120  -0.033
    1UNL     C7    9  -0.191  -0.001   0.005
    1UNL     C8   10  -0.261  -0.118   0.015
    1UNL     C9   11  -0.044   0.033   0.032
    1UNL    C10   12   0.003   0.027   0.179
    1UNL    C11   13   0.147  -0.018   0.157
    1UNL    C12   14   0.241   0.088   0.096
    1UNL    C13   15   0.175   0.227   0.093
    1UNL     O3   16   0.091   0.248  -0.023
    1UNL    C14   17  -0.036   0.175  -0.017
    1UNL     N1   18  -0.159   0.223  -0.051
    1UNL    C15   19   0.272   0.046  -0.051
    1UNL    C16   20   0.146   0.018  -0.139
    1UNL    C17   21   0.046  -0.060  -0.048
    1UNL     N2   22   0.131  -0.135   0.056
    1UNL    C18   23   0.251  -0.195  -0.007
    1UNL    C19   24   0.346  -0.091  -0.046
    1UNL    C20   25   0.476  -0.109  -0.055
    1UNL    C21   26   0.576  -0.005  -0.084
    1UNL     O4   27   0.595   0.081   0.021
    1UNL     H1   28  -0.351  -0.319   0.159
    1UNL     H2   29  -0.511  -0.375   0.124
    1UNL     H3   30  -0.362  -0.402   0.006
    1UNL     H4   31  -0.566  -0.008  -0.038
    1UNL     H5   32  -0.553   0.178  -0.242
    1UNL     H6   33  -0.649   0.218  -0.073
    1UNL     H7   34  -0.590   0.347  -0.165
    1UNL     H8   35  -0.213  -0.206   0.031
    1UNL     H9   36  -0.005   0.127   0.232
    1UNL    H10   37  -0.049  -0.048   0.231
    1UNL    H11   38   0.188  -0.055   0.253
    1UNL    H12   39   0.338   0.084   0.146
    1UNL    H13   40   0.254   0.312   0.097
    1UNL    H14   41   0.120   0.247   0.188
    1UNL    H15   42   0.331   0.124  -0.099
    1UNL    H16   43   0.167  -0.033  -0.232
    1UNL    H17   44   0.097   0.105  -0.181
    1UNL    H18   45   0.011  -0.136  -0.107
    1UNL    H19   46   0.302  -0.273   0.058
    1UNL    H20   47   0.226  -0.246  -0.097
    1UNL    H21   48   0.514  -0.209  -0.028
    1UNL    H22   49   0.528   0.048  -0.167
    1UNL    H23   50   0.669  -0.048  -0.123
    1UNL    H24   51   0.690   0.068   0.062
   0.00000   0.00000   0.00000   0.00000   0.00000   0.00000   0.00000   0.00000   0.00000
Generated with MDTraj, t= 28.0
 51
    1UNL     C1    1  -0.436  -0.341   0.078
    1UNL     O1    2  -0.487  -0.235  -0.010
    1UNL     C2    3  -0.404  -0.117  -0.002
    1UNL     C3    4  -0.465   0.003  -0.046
    1UNL     C4    5  -0.391   0.124  -0.055
    1UNL     O2    6  -0.442   0.244  -0.107
    1UNL     C5    7  -0.582   0.246  -0.143
    1UNL     C6    8  -0.253   0.121  -0.020
    1UNL     C7    9  -0.197  -0.001   0.010
    1UNL     C8   10  -0.269  -0.112   0.036
    1UNL     C9   11  -0.045   0.036   0.027
    1UNL    C10   12   0.004   0.027   0.169
    1UNL    C11   13   0.149  -0.024   0.147
    1UNL    C12   14   0.243   0.079   0.079
    1UNL    C13   15   0.183   0.219   0.086
    1UNL     O3   16   0.082   0.260  -0.009
    1UNL    C14   17  -0.039   0.180  -0.011
    1UNL     N1   18  -0.159   0.232  -0.034
    1UNL    C15   19   0.289   0.039  -0.066
    1UNL    C16   20   0.161   0.020  -0.146
    1UNL    C17   21   0.055  -0.066  -0.057
    1UNL     N2   22   0.133  -0.133   0.050
    1UNL    C18   23   0.265  -0.203   0.014
    1UNL    C19   24   0.361  -0.101  -0.047
    1UNL    C20   25   0.491  -0.122  -0.045
    1UNL    C21   26   0.583  -0.008  -0.081
    1UNL     O4   27   0.577   0.097   0.018
    1UNL     H1   28  -0.424  -0.316   0.179
    1UNL     H2   29  -0.512  -0.419   0.084
    1UNL     H3   30  -0.335  -0.368   0.039
    1UNL     H4   31  -0.572   0.004  -0.053
    1UNL     H5   32  -0.592   0.169  -0.226
    1UNL     H6   33  -0.644   0.230  -0.055
    1UNL     H7   34  -0.609   0.348  -0.169
    1UNL     H8   35  -0.208  -0.204   0.066
    1UNL     H9   36  -0.011   0.125   0.222
    1UNL    H10   37  -0.046  -0.057   0.220
    1UNL    H11   38   0.182  -0.064   0.248
    1UNL    H12   39   0.338   0.085   0.135
    1UNL    H13   40   0.266   0.299   0.076
    1UNL    H14   41   0.148   0.236   0.189
    1UNL    H15   42   0.357   0.117  -0.098
    1UNL    H16   43   0.183  -0.036  -0.236
    1UNL    H17   44   0.105   0.109  -0.175
    1UNL    H18   45   0.006  -0.132  -0.123
    1UNL    H19   46   0.314  -0.249   0.107
    1UNL    H20   47   0.248  -0.284  -0.052
    1UNL    H21   48   0.515  -0.220  -0.011
    1UNL    H22   49   0.559   0.033  -0.181
    1UNL    H23   50   0.686  -0.046  -0.087
    1UNL    H24   51   0.560   0.193  -0.020
   0.00000   0.00000   0.00000   0.00000   0.00000   0.00000   0.00000   0.00000   0.00000
Generated with MDTraj, t= 29.0
 51
    1UNL     C1    1  -0.427  -0.335   0.066
    1UNL     O1    2  -0.487  -0.216   0.019
    1UNL     C2    3  -0.396  -0.108   0.000
    1UNL     C3    4  -0.457   0.004  -0.059
    1UNL     C4    5  -0.374   0.118  -0.075
    1UNL     O2    6  -0.428   0.243  -0.110
    1UNL     C5    7  -0.570   0.241  -0.127
    1UNL     C6    8  -0.241   0.115  -0.043
    1UNL     C7    9  -0.187  -0.001   0.003
    1UNL     C8   10  -0.265  -0.108   0.034
    1UNL     C9   11  -0.041   0.030   0.025
    1UNL    C10   12  -0.002   0.011   0.176
    1UNL    C11   13   0.149  -0.028   0.160
    1UNL    C12   14   0.241   0.084   0.097
    1UNL    C13   15   0.174   0.221   0.105
    1UNL     O3   16   0.088   0.252   0.003
    1UNL    C14   17  -0.036   0.174  -0.012
    1UNL     N1   18  -0.145   0.220  -0.062
    1UNL    C15   19   0.275   0.035  -0.046
    1UNL    C16   20   0.154   0.015  -0.137
    1UNL    C17   21   0.055  -0.067  -0.052
    1UNL     N2   22   0.133  -0.136   0.055
    1UNL    C18   23   0.255  -0.204   0.010
    1UNL    C19   24   0.347  -0.100  -0.040
    1UNL    C20   25   0.479  -0.111  -0.054
    1UNL    C21   26   0.573   0.004  -0.092
    1UNL     O4   27   0.545   0.117  -0.016
    1UNL     H1   28  -0.376  -0.327   0.157
    1UNL     H2   29  -0.505  -0.406   0.085
    1UNL     H3   30  -0.364  -0.364  -0.021
    1UNL     H4   31  -0.565   0.007  -0.075
    1UNL     H5   32  -0.592   0.167  -0.208
    1UNL     H6   33  -0.612   0.212  -0.033
    1UNL     H7   34  -0.615   0.339  -0.139
    1UNL     H8   35  -0.215  -0.199   0.061
    1UNL     H9   36  -0.016   0.107   0.224
    1UNL    H10   37  -0.056  -0.072   0.237
    1UNL    H11   38   0.187  -0.088   0.249
    1UNL    H12   39   0.337   0.091   0.151
    1UNL    H13   40   0.256   0.298   0.088
    1UNL    H14   41   0.135   0.243   0.207
    1UNL    H15   42   0.348   0.099  -0.094
    1UNL    H16   43   0.171  -0.041  -0.229
    1UNL    H17   44   0.100   0.107  -0.155
    1UNL    H18   45   0.004  -0.146  -0.105
    1UNL    H19   46   0.307  -0.254   0.097
    1UNL    H20   47   0.235  -0.279  -0.063
    1UNL    H21   48   0.518  -0.211  -0.034
    1UNL    H22   49   0.559   0.029  -0.199
    1UNL    H23   50   0.682  -0.015  -0.081
    1UNL    H24   51   0.545   0.088   0.076
   0.00000   0.00000   0.00000   0.00000   0.00000   0.00000   0.00000   0.00000   0.00000
Generated with MDTraj, t= 30.0
 51
    1UNL     C1    1  -0.423  -0.336   0.063
    1UNL     O1    2  -0.491  -0.222   0.023
    1UNL     C2    3  -0.405  -0.109   0.005
    1UNL     C3    4  -0.461   0.014  -0.046
    1UNL     C4    5  -0.380   0.123  -0.084
    1UNL     O2    6  -0.427   0.232  -0.152
    1UNL     C5    7  -0.554   0.268  -0.127
    1UNL     C6    8  -0.246   0.110  -0.042
    1UNL     C7    9  -0.191  -0.006   0.003
    1UNL     C8   10  -0.271  -0.119   0.020
    1UNL     C9   11  -0.043   0.024   0.033
    1UNL    C10   12  -0.002   0.009   0.185
    1UNL    C11   13   0.140  -0.036   0.169
    1UNL    C12   14   0.231   0.080   0.111
    1UNL    C13   15   0.159   0.218   0.116
    1UNL     O3   16   0.081   0.241  -0.000
    1UNL    C14   17  -0.036   0.170  -0.006
    1UNL     N1   18  -0.152   0.216  -0.052
    1UNL    C15   19   0.284   0.046  -0.032
    1UNL    C16   20   0.161   0.018  -0.124
    1UNL    C17   21   0.056  -0.067  -0.044
    1UNL     N2   22   0.135  -0.142   0.063
    1UNL    C18   23   0.262  -0.199   0.006
    1UNL    C19   24   0.354  -0.089  -0.026
    1UNL    C20   25   0.479  -0.106  -0.060
    1UNL    C21   26   0.564   0.007  -0.112
    1UNL     O4   27   0.576   0.121  -0.042
    1UNL     H1   28  -0.376  -0.316   0.156
    1UNL     H2   29  -0.491  -0.417   0.092
    1UNL     H3   30  -0.361  -0.362  -0.029
    1UNL     H4   31  -0.564   0.029  -0.043
    1UNL     H5   32  -0.628   0.204  -0.180
    1UNL     H6   33  -0.572   0.258  -0.021
    1UNL     H7   34  -0.556   0.376  -0.135
    1UNL     H8   35  -0.224  -0.204   0.048
    1UNL     H9   36  -0.017   0.093   0.253
    1UNL    H10   37  -0.061  -0.082   0.231
    1UNL    H11   38   0.176  -0.086   0.264
    1UNL    H12   39   0.314   0.081   0.186
    1UNL    H13   40   0.226   0.308   0.124
    1UNL    H14   41   0.099   0.228   0.208
    1UNL    H15   42   0.348   0.121  -0.078
    1UNL    H16   43   0.176  -0.032  -0.220
    1UNL    H17   44   0.119   0.114  -0.147
    1UNL    H18   45   0.009  -0.142  -0.112
    1UNL    H19   46   0.305  -0.278   0.071
    1UNL    H20   47   0.238  -0.249  -0.088
    1UNL    H21   48   0.512  -0.207  -0.075
    1UNL    H22   49   0.534   0.038  -0.215
    1UNL    H23   50   0.666  -0.037  -0.116
    1UNL    H24   51   0.647   0.119   0.016
   0.00000   0.00000   0.00000   0.00000   0.00000   0.00000   0.00000   0.00000   0.00000
Generated with MDTraj, t= 31.0
 51
    1UNL     C1    1  -0.463  -0.337   0.067
    1UNL     O1    2  -0.502  -0.215   0.011
    1UNL     C2    3  -0.407  -0.117  -0.012
    1UNL     C3    4  -0.455  -0.001  -0.078
    1UNL     C4    5  -0.373   0.113  -0.102
    1UNL     O2    6  -0.427   0.235  -0.140
    1UNL     C5    7  -0.566   0.251  -0.117
    1UNL     C6    8  -0.238   0.106  -0.055
    1UNL     C7    9  -0.186  -0.010  -0.002
    1UNL     C8   10  -0.272  -0.117   0.025
    1UNL     C9   11  -0.042   0.022   0.044
    1UNL    C10   12   0.001   0.017   0.187
    1UNL    C11   13   0.152  -0.024   0.172
    1UNL    C12   14   0.244   0.087   0.110
    1UNL    C13   15   0.172   0.228   0.125
    1UNL     O3   16   0.061   0.263   0.031
    1UNL    C14   17  -0.042   0.174   0.007
    1UNL     N1   18  -0.151   0.212  -0.050
    1UNL    C15   19   0.285   0.044  -0.033
    1UNL    C16   20   0.162   0.021  -0.120
    1UNL    C17   21   0.060  -0.067  -0.039
    1UNL     N2   22   0.137  -0.138   0.068
    1UNL    C18   23   0.271  -0.195   0.028
    1UNL    C19   24   0.357  -0.086  -0.031
    1UNL    C20   25   0.478  -0.112  -0.082
    1UNL    C21   26   0.565   0.004  -0.143
    1UNL     O4   27   0.590   0.101  -0.043
    1UNL     H1   28  -0.460  -0.317   0.173
    1UNL     H2   29  -0.539  -0.419   0.068
    1UNL     H3   30  -0.371  -0.373   0.010
    1UNL     H4   31  -0.563  -0.001  -0.101
    1UNL     H5   32  -0.622   0.165  -0.146
    1UNL     H6   33  -0.586   0.259  -0.011
    1UNL     H7   34  -0.601   0.346  -0.156
    1UNL     H8   35  -0.242  -0.206   0.094
    1UNL     H9   36  -0.007   0.122   0.230
    1UNL    H10   37  -0.053  -0.053   0.261
    1UNL    H11   38   0.200  -0.049   0.271
    1UNL    H12   39   0.335   0.097   0.176
    1UNL    H13   40   0.253   0.298   0.110
    1UNL    H14   41   0.138   0.263   0.224
    1UNL    H15   42   0.347   0.119  -0.082
    1UNL    H16   43   0.194  -0.026  -0.213
    1UNL    H17   44   0.118   0.110  -0.162
    1UNL    H18   45   0.002  -0.129  -0.118
    1UNL    H19   46   0.314  -0.220   0.124
    1UNL    H20   47   0.259  -0.292  -0.026
    1UNL    H21   48   0.520  -0.210  -0.067
    1UNL    H22   49   0.498   0.050  -0.218
    1UNL    H23   50   0.660  -0.029  -0.188
    1UNL    H24   51   0.651   0.065   0.022
   0.00000   0.00000   0.00000   0.00000   0.00000   0.00000   0.00000   0.00000   0.00000
Generated with MDTraj, t= 32.0
 51
    1UNL     C1    1  -0.433  -0.338   0.082
    1UNL     O1    2  -0.465  -0.242  -0.016
    1UNL     C2    3  -0.393  -0.121  -0.012
    1UNL     C3    4  -0.445  -0.008  -0.077
    1UNL     C4    5  -0.378   0.113  -0.089
    1UNL     O2    6  -0.417   0.241  -0.137
    1UNL     C5    7  -0.558   0.269  -0.138
    1UNL     C6    8  -0.251   0.121  -0.032
    1UNL     C7    9  -0.195   0.005   0.030
    1UNL     C8   10  -0.262  -0.113   0.038
    1UNL     C9   11  -0.048   0.038   0.043
    1UNL    C10   12  -0.008   0.016   0.191
    1UNL    C11   13   0.138  -0.037   0.171
    1UNL    C12   14   0.233   0.075   0.121
    1UNL    C13   15   0.167   0.217   0.114
    1UNL     O3   16   0.077   0.248   0.009
    1UNL    C14   17  -0.042   0.182  -0.004
    1UNL     N1   18  -0.158   0.227  -0.041
    1UNL    C15   19   0.273   0.051  -0.030
    1UNL    C16   20   0.151   0.021  -0.124
    1UNL    C17   21   0.046  -0.061  -0.044
    1UNL     N2   22   0.128  -0.138   0.065
    1UNL    C18   23   0.262  -0.198   0.028
    1UNL    C19   24   0.351  -0.090  -0.021
    1UNL    C20   25   0.473  -0.109  -0.076
    1UNL    C21   26   0.553   0.000  -0.145
    1UNL     O4   27   0.602   0.104  -0.053
    1UNL     H1   28  -0.390  -0.283   0.165
    1UNL     H2   29  -0.518  -0.384   0.140
    1UNL     H3   30  -0.369  -0.423   0.044
    1UNL     H4   31  -0.546  -0.008  -0.107
    1UNL     H5   32  -0.597   0.250  -0.236
    1UNL     H6   33  -0.617   0.195  -0.084
    1UNL     H7   34  -0.588   0.367  -0.095
    1UNL     H8   35  -0.221  -0.200   0.087
    1UNL     H9   36  -0.017   0.106   0.269
    1UNL    H10   37  -0.086  -0.059   0.222
    1UNL    H11   38   0.191  -0.085   0.256
    1UNL    H12   39   0.320   0.077   0.194
    1UNL    H13   40   0.236   0.297   0.113
    1UNL    H14   41   0.114   0.233   0.206
    1UNL    H15   42   0.336   0.130  -0.069
    1UNL    H16   43   0.183  -0.029  -0.215
    1UNL    H17   44   0.102   0.111  -0.161
    1UNL    H18   45  -0.020  -0.144  -0.098
    1UNL    H19   46   0.303  -0.259   0.104
    1UNL    H20   47   0.237  -0.267  -0.058
    1UNL    H21   48   0.516  -0.207  -0.096
    1UNL    H22   49   0.500   0.056  -0.223
    1UNL    H23   50   0.641  -0.043  -0.192
    1UNL    H24   51   0.598   0.065   0.044
   0.00000   0.00000   0.00000   0.00000   0.00000   0.00000   0.00000   0.00000   0.00000
Generated with MDTraj, t= 33.0
 51
    1UNL     C1    1  -0.438  -0.334   0.067
    1UNL     O1    2  -0.477  -0.225  -0.012
    1UNL     C2    3  -0.389  -0.112  -0.021
    1UNL     C3    4  -0.444   0.003  -0.067
    1UNL     C4    5  -0.379   0.118  -0.076
    1UNL     O2    6  -0.437   0.235  -0.124
    1UNL     C5    7  -0.571   0.217  -0.156
    1UNL     C6    8  -0.245   0.126  -0.027
    1UNL     C7    9  -0.185   0.004   0.010
    1UNL     C8   10  -0.251  -0.112   0.009
    1UNL     C9   11  -0.043   0.038   0.048
    1UNL    C10   12   0.003   0.022   0.201
    1UNL    C11   13   0.153  -0.021   0.176
    1UNL    C12   14   0.248   0.085   0.108
    1UNL    C13   15   0.184   0.228   0.118
    1UNL     O3   16   0.077   0.262   0.028
    1UNL    C14   17  -0.039   0.186   0.014
    1UNL     N1   18  -0.154   0.224  -0.039
    1UNL    C15   19   0.280   0.040  -0.042
    1UNL    C16   20   0.151   0.027  -0.118
    1UNL    C17   21   0.056  -0.055  -0.032
    1UNL     N2   22   0.128  -0.132   0.072
    1UNL    C18   23   0.250  -0.198   0.011
    1UNL    C19   24   0.346  -0.092  -0.046
    1UNL    C20   25   0.469  -0.121  -0.084
    1UNL    C21   26   0.561  -0.019  -0.130
    1UNL     O4   27   0.561   0.091  -0.046
    1UNL     H1   28  -0.433  -0.297   0.167
    1UNL     H2   29  -0.499  -0.428   0.062
    1UNL     H3   30  -0.332  -0.367   0.055
    1UNL     H4   31  -0.549  -0.007  -0.090
    1UNL     H5   32  -0.580   0.123  -0.206
    1UNL     H6   33  -0.643   0.213  -0.070
    1UNL     H7   34  -0.604   0.302  -0.221
    1UNL     H8   35  -0.208  -0.192   0.049
    1UNL     H9   36  -0.001   0.129   0.242
    1UNL    H10   37  -0.069  -0.041   0.262
    1UNL    H11   38   0.199  -0.065   0.266
    1UNL    H12   39   0.346   0.084   0.166
    1UNL    H13   40   0.266   0.292   0.101
    1UNL    H14   41   0.148   0.254   0.216
    1UNL    H15   42   0.351   0.109  -0.088
    1UNL    H16   43   0.167  -0.038  -0.202
    1UNL    H17   44   0.107   0.122  -0.149
    1UNL    H18   45  -0.017  -0.134  -0.086
    1UNL    H19   46   0.286  -0.245   0.097
    1UNL    H20   47   0.220  -0.283  -0.060
    1UNL    H21   48   0.501  -0.221  -0.067
    1UNL    H22   49   0.529   0.022  -0.226
    1UNL    H23   50   0.667  -0.042  -0.141
    1UNL    H24   51   0.578   0.061   0.054
   0.00000   0.00000   0.00000   0.00000   0.00000   0.00000   0.00000   0.00000   0.00000
Generated with MDTraj, t= 34.0
 51
    1UNL     C1    1  -0.412  -0.337   0.056
    1UNL     O1    2  -0.476  -0.234   0.002
    1UNL     C2    3  -0.405  -0.117  -0.003
    1UNL     C3    4  -0.454   0.007  -0.050
    1UNL     C4    5  -0.385   0.126  -0.065
    1UNL     O2    6  -0.434   0.251  -0.113
    1UNL     C5    7  -0.547   0.234  -0.188
    1UNL     C6    8  -0.248   0.124  -0.015
    1UNL     C7    9  -0.193   0.004   0.035
    1UNL     C8   10  -0.268  -0.114   0.039
    1UNL     C9   11  -0.049   0.037   0.045
    1UNL    C10   12   0.004   0.018   0.194
    1UNL    C11   13   0.142  -0.031   0.164
    1UNL    C12   14   0.237   0.078   0.104
    1UNL    C13   15   0.171   0.222   0.106
    1UNL     O3   16   0.075   0.252   0.002
    1UNL    C14   17  -0.043   0.180   0.002
    1UNL     N1   18  -0.157   0.223  -0.037
    1UNL    C15   19   0.287   0.036  -0.045
    1UNL    C16   20   0.151   0.033  -0.125
    1UNL    C17   21   0.047  -0.054  -0.043
    1UNL     N2   22   0.127  -0.135   0.055
    1UNL    C18   23   0.257  -0.201  -0.003
    1UNL    C19   24   0.352  -0.098  -0.036
    1UNL    C20   25   0.481  -0.113  -0.054
    1UNL    C21   26   0.566  -0.018  -0.119
    1UNL     O4   27   0.573   0.106  -0.045
    1UNL     H1   28  -0.359  -0.309   0.144
    1UNL     H2   29  -0.479  -0.424   0.063
    1UNL     H3   30  -0.323  -0.373  -0.000
    1UNL     H4   31  -0.564   0.004  -0.060
    1UNL     H5   32  -0.515   0.172  -0.271
    1UNL     H6   33  -0.636   0.184  -0.140
    1UNL     H7   34  -0.580   0.340  -0.217
    1UNL     H8   35  -0.214  -0.210   0.073
    1UNL     H9   36  -0.009   0.105   0.257
    1UNL    H10   37  -0.056  -0.067   0.247
    1UNL    H11   38   0.178  -0.073   0.259
    1UNL    H12   39   0.325   0.072   0.174
    1UNL    H13   40   0.241   0.304   0.112
    1UNL    H14   41   0.123   0.231   0.201
    1UNL    H15   42   0.346   0.120  -0.080
    1UNL    H16   43   0.153  -0.017  -0.221
    1UNL    H17   44   0.119   0.137  -0.136
    1UNL    H18   45  -0.018  -0.125  -0.114
    1UNL    H19   46   0.290  -0.275   0.065
    1UNL    H20   47   0.216  -0.253  -0.095
    1UNL    H21   48   0.516  -0.217  -0.051
    1UNL    H22   49   0.523   0.009  -0.216
    1UNL    H23   50   0.665  -0.065  -0.134
    1UNL    H24   51   0.630   0.090   0.034
   0.00000   0.00000   0.00000   0.00000   0.00000   0.00000   0.00000   0.00000   0.00000
Generated with MDTraj, t= 35.0
 51
    1UNL     C1    1  -0.432  -0.348   0.040
    1UNL     O1    2  -0.490  -0.222   0.022
    1UNL     C2    3  -0.403  -0.111   0.008
    1UNL     C3    4  -0.463   0.005  -0.041
    1UNL     C4    5  -0.390   0.122  -0.052
    1UNL     O2    6  -0.441   0.245  -0.090
    1UNL     C5    7  -0.528   0.234  -0.201
    1UNL     C6    8  -0.254   0.121  -0.026
    1UNL     C7    9  -0.188   0.003   0.014
    1UNL     C8   10  -0.262  -0.112   0.039
    1UNL     C9   11  -0.050   0.033   0.038
    1UNL    C10   12   0.001   0.014   0.186
    1UNL    C11   13   0.153  -0.030   0.164
    1UNL    C12   14   0.241   0.082   0.100
    1UNL    C13   15   0.173   0.218   0.106
    1UNL     O3   16   0.078   0.257   0.009
    1UNL    C14   17  -0.037   0.183  -0.003
    1UNL     N1   18  -0.155   0.220  -0.046
    1UNL    C15   19   0.276   0.040  -0.046
    1UNL    C16   20   0.149   0.017  -0.137
    1UNL    C17   21   0.050  -0.064  -0.046
    1UNL     N2   22   0.135  -0.136   0.058
    1UNL    C18   23   0.268  -0.196   0.022
    1UNL    C19   24   0.350  -0.091  -0.049
    1UNL    C20   25   0.482  -0.110  -0.079
    1UNL    C21   26   0.568   0.001  -0.124
    1UNL     O4   27   0.565   0.101  -0.014
    1UNL     H1   28  -0.354  -0.351   0.111
    1UNL     H2   29  -0.510  -0.423   0.059
    1UNL     H3   30  -0.380  -0.384  -0.050
    1UNL     H4   31  -0.568   0.009  -0.038
    1UNL     H5   32  -0.558   0.133  -0.214
    1UNL     H6   33  -0.614   0.308  -0.193
    1UNL     H7   34  -0.466   0.276  -0.287
    1UNL     H8   35  -0.205  -0.207   0.061
    1UNL     H9   36  -0.015   0.104   0.243
    1UNL    H10   37  -0.059  -0.068   0.239
    1UNL    H11   38   0.202  -0.075   0.249
    1UNL    H12   39   0.343   0.076   0.144
    1UNL    H13   40   0.253   0.292   0.086
    1UNL    H14   41   0.137   0.249   0.203
    1UNL    H15   42   0.339   0.112  -0.096
    1UNL    H16   43   0.179  -0.024  -0.232
    1UNL    H17   44   0.093   0.109  -0.154
    1UNL    H18   45   0.003  -0.146  -0.117
    1UNL    H19   46   0.302  -0.215   0.122
    1UNL    H20   47   0.253  -0.295  -0.027
    1UNL    H21   48   0.527  -0.205  -0.066
    1UNL    H22   49   0.522   0.036  -0.218
    1UNL    H23   50   0.673  -0.031  -0.136
    1UNL    H24   51   0.604   0.070   0.063
   0.00000   0.00000   0.00000   0.00000   0.00000   0.00000   0.00000   0.00000   0.00000
Generated with MDTraj, t= 36.0
 51
    1UNL     C1    1  -0.439  -0.346   0.033
    1UNL     O1    2  -0.499  -0.219   0.040
    1UNL     C2    3  -0.410  -0.112   0.011
    1UNL     C3    4  -0.466   0.007  -0.026
    1UNL     C4    5  -0.383   0.123  -0.047
    1UNL     O2    6  -0.434   0.251  -0.093
    1UNL     C5    7  -0.518   0.226  -0.208
    1UNL     C6    8  -0.246   0.119  -0.018
    1UNL     C7    9  -0.192  -0.001   0.011
    1UNL     C8   10  -0.269  -0.115   0.032
    1UNL     C9   11  -0.048   0.026   0.040
    1UNL    C10   12   0.000   0.013   0.185
    1UNL    C11   13   0.147  -0.036   0.157
    1UNL    C12   14   0.238   0.078   0.093
    1UNL    C13   15   0.172   0.215   0.100
    1UNL     O3   16   0.078   0.248  -0.002
    1UNL    C14   17  -0.041   0.179  -0.007
    1UNL     N1   18  -0.158   0.224  -0.039
    1UNL    C15   19   0.277   0.048  -0.047
    1UNL    C16   20   0.147   0.022  -0.133
    1UNL    C17   21   0.053  -0.067  -0.048
    1UNL     N2   22   0.133  -0.141   0.056
    1UNL    C18   23   0.264  -0.197   0.013
    1UNL    C19   24   0.352  -0.086  -0.043
    1UNL    C20   25   0.483  -0.101  -0.071
    1UNL    C21   26   0.577   0.005  -0.108
    1UNL     O4   27   0.578   0.113  -0.024
    1UNL     H1   28  -0.414  -0.386   0.126
    1UNL     H2   29  -0.514  -0.408  -0.017
    1UNL     H3   30  -0.362  -0.360  -0.045
    1UNL     H4   31  -0.576   0.019  -0.024
    1UNL     H5   32  -0.606   0.190  -0.165
    1UNL     H6   33  -0.525   0.317  -0.274
    1UNL     H7   34  -0.476   0.144  -0.271
    1UNL     H8   35  -0.221  -0.198   0.057
    1UNL     H9   36  -0.004   0.104   0.247
    1UNL    H10   37  -0.054  -0.065   0.234
    1UNL    H11   38   0.191  -0.076   0.247
    1UNL    H12   39   0.330   0.082   0.153
    1UNL    H13   40   0.244   0.302   0.110
    1UNL    H14   41   0.118   0.223   0.192
    1UNL    H15   42   0.332   0.136  -0.081
    1UNL    H16   43   0.177  -0.030  -0.223
    1UNL    H17   44   0.093   0.110  -0.169
    1UNL    H18   45  -0.008  -0.141  -0.113
    1UNL    H19   46   0.314  -0.246   0.098
    1UNL    H20   47   0.239  -0.274  -0.059
    1UNL    H21   48   0.520  -0.204  -0.080
    1UNL    H22   49   0.543   0.055  -0.201
    1UNL    H23   50   0.680  -0.037  -0.119
    1UNL    H24   51   0.613   0.094   0.063
   0.00000   0.00000   0.00000   0.00000   0.00000   0.00000   0.00000   0.00000   0.00000
Generated with MDTraj, t= 37.0
 51
    1UNL     C1    1  -0.421  -0.346   0.041
    1UNL     O1    2  -0.495  -0.221   0.029
    1UNL     C2    3  -0.409  -0.107   0.007
    1UNL     C3    4  -0.465   0.013  -0.042
    1UNL     C4    5  -0.389   0.126  -0.064
    1UNL     O2    6  -0.438   0.247  -0.110
    1UNL     C5    7  -0.545   0.229  -0.199
    1UNL     C6    8  -0.251   0.114  -0.031
    1UNL     C7    9  -0.194   0.001   0.027
    1UNL     C8   10  -0.275  -0.112   0.043
    1UNL     C9   11  -0.046   0.027   0.048
    1UNL    C10   12   0.011   0.017   0.192
    1UNL    C11   13   0.151  -0.035   0.164
    1UNL    C12   14   0.246   0.080   0.104
    1UNL    C13   15   0.175   0.223   0.112
    1UNL     O3   16   0.080   0.255   0.007
    1UNL    C14   17  -0.042   0.174   0.000
    1UNL     N1   18  -0.157   0.217  -0.046
    1UNL    C15   19   0.285   0.038  -0.043
    1UNL    C16   20   0.148   0.026  -0.120
    1UNL    C17   21   0.051  -0.058  -0.045
    1UNL     N2   22   0.134  -0.143   0.049
    1UNL    C18   23   0.253  -0.209  -0.013
    1UNL    C19   24   0.351  -0.098  -0.045
    1UNL    C20   25   0.485  -0.111  -0.066
    1UNL    C21   26   0.576   0.001  -0.107
    1UNL     O4   27   0.571   0.120  -0.032
    1UNL     H1   28  -0.357  -0.345   0.124
    1UNL     H2   29  -0.496  -0.425   0.054
    1UNL     H3   30  -0.385  -0.385  -0.059
    1UNL     H4   31  -0.571   0.031  -0.040
    1UNL     H5   32  -0.626   0.256  -0.140
    1UNL     H6   33  -0.514   0.304  -0.274
    1UNL     H7   34  -0.574   0.131  -0.240
    1UNL     H8   35  -0.225  -0.201   0.083
    1UNL     H9   36   0.021   0.108   0.257
    1UNL    H10   37  -0.035  -0.056   0.248
    1UNL    H11   38   0.187  -0.078   0.257
    1UNL    H12   39   0.335   0.088   0.164
    1UNL    H13   40   0.264   0.293   0.095
    1UNL    H14   41   0.138   0.254   0.210
    1UNL    H15   42   0.356   0.112  -0.081
    1UNL    H16   43   0.165  -0.020  -0.216
    1UNL    H17   44   0.106   0.123  -0.147
    1UNL    H18   45  -0.007  -0.133  -0.107
    1UNL    H19   46   0.299  -0.275   0.064
    1UNL    H20   47   0.232  -0.268  -0.098
    1UNL    H21   48   0.528  -0.208  -0.064
    1UNL    H22   49   0.549   0.033  -0.210
    1UNL    H23   50   0.686  -0.021  -0.112
    1UNL    H24   51   0.632   0.106   0.048
   0.00000   0.00000   0.00000   0.00000   0.00000   0.00000   0.00000   0.00000   0.00000
Generated with MDTraj, t= 38.0
 51
    1UNL     C1    1  -0.420  -0.338   0.070
    1UNL     O1    2  -0.481  -0.224   0.010
    1UNL     C2    3  -0.393  -0.116  -0.003
    1UNL     C3    4  -0.451   0.003  -0.065
    1UNL     C4    5  -0.373   0.119  -0.080
    1UNL     O2    6  -0.427   0.238  -0.137
    1UNL     C5    7  -0.572   0.231  -0.160
    1UNL     C6    8  -0.244   0.123  -0.029
    1UNL     C7    9  -0.183   0.005   0.010
    1UNL     C8   10  -0.260  -0.110   0.023
    1UNL     C9   11  -0.038   0.032   0.042
    1UNL    C10   12   0.005   0.012   0.191
    1UNL    C11   13   0.151  -0.033   0.168
    1UNL    C12   14   0.246   0.080   0.104
    1UNL    C13   15   0.178   0.224   0.112
    1UNL     O3   16   0.073   0.267   0.027
    1UNL    C14   17  -0.039   0.184   0.011
    1UNL     N1   18  -0.152   0.230  -0.037
    1UNL    C15   19   0.280   0.035  -0.042
    1UNL    C16   20   0.153   0.024  -0.128
    1UNL    C17   21   0.054  -0.061  -0.043
    1UNL     N2   22   0.128  -0.139   0.065
    1UNL    C18   23   0.252  -0.201   0.015
    1UNL    C19   24   0.342  -0.096  -0.041
    1UNL    C20   25   0.469  -0.117  -0.081
    1UNL    C21   26   0.551   0.001  -0.132
    1UNL     O4   27   0.558   0.101  -0.023
    1UNL     H1   28  -0.422  -0.314   0.174
    1UNL     H2   29  -0.491  -0.419   0.037
    1UNL     H3   30  -0.325  -0.372   0.020
    1UNL     H4   31  -0.547   0.003  -0.106
    1UNL     H5   32  -0.608   0.192  -0.073
    1UNL     H6   33  -0.598   0.335  -0.183
    1UNL     H7   34  -0.610   0.165  -0.239
    1UNL     H8   35  -0.198  -0.198   0.066
    1UNL     H9   36   0.003   0.105   0.245
    1UNL    H10   37  -0.054  -0.059   0.240
    1UNL    H11   38   0.193  -0.079   0.257
    1UNL    H12   39   0.337   0.082   0.159
    1UNL    H13   40   0.258   0.304   0.089
    1UNL    H14   41   0.152   0.234   0.217
    1UNL    H15   42   0.354   0.102  -0.082
    1UNL    H16   43   0.166  -0.011  -0.229
    1UNL    H17   44   0.118   0.125  -0.140
    1UNL    H18   45  -0.005  -0.126  -0.107
    1UNL    H19   46   0.307  -0.260   0.094
    1UNL    H20   47   0.230  -0.265  -0.063
    1UNL    H21   48   0.505  -0.220  -0.089
    1UNL    H22   49   0.510   0.057  -0.218
    1UNL    H23   50   0.655  -0.032  -0.158
    1UNL    H24   51   0.613   0.054   0.053
   0.00000   0.00000   0.00000   0.00000   0.00000   0.00000   0.00000   0.00000   0.00000
Generated with MDTraj, t= 39.0
 51
    1UNL     C1    1  -0.433  -0.338   0.081
    1UNL     O1    2  -0.468  -0.237  -0.017
    1UNL     C2    3  -0.388  -0.120  -0.010
    1UNL     C3    4  -0.447  -0.004  -0.070
    1UNL     C4    5  -0.373   0.119  -0.090
    1UNL     O2    6  -0.420   0.232  -0.150
    1UNL     C5    7  -0.560   0.254  -0.119
    1UNL     C6    8  -0.249   0.120  -0.030
    1UNL     C7    9  -0.193   0.009   0.027
    1UNL     C8   10  -0.258  -0.116   0.033
    1UNL     C9   11  -0.046   0.039   0.048
    1UNL    C10   12  -0.009   0.007   0.196
    1UNL    C11   13   0.140  -0.033   0.171
    1UNL    C12   14   0.227   0.089   0.112
    1UNL    C13   15   0.160   0.227   0.122
    1UNL     O3   16   0.074   0.255   0.012
    1UNL    C14   17  -0.042   0.181   0.006
    1UNL     N1   18  -0.155   0.223  -0.046
    1UNL    C15   19   0.271   0.056  -0.036
    1UNL    C16   20   0.149   0.023  -0.132
    1UNL    C17   21   0.046  -0.063  -0.039
    1UNL     N2   22   0.129  -0.131   0.061
    1UNL    C18   23   0.260  -0.195   0.012
    1UNL    C19   24   0.344  -0.081  -0.037
    1UNL    C20   25   0.469  -0.112  -0.074
    1UNL    C21   26   0.564  -0.014  -0.130
    1UNL     O4   27   0.609   0.093  -0.051
    1UNL     H1   28  -0.427  -0.283   0.173
    1UNL     H2   29  -0.516  -0.414   0.073
    1UNL     H3   30  -0.338  -0.389   0.051
    1UNL     H4   31  -0.553  -0.013  -0.102
    1UNL     H5   32  -0.572   0.259  -0.016
    1UNL     H6   33  -0.589   0.343  -0.178
    1UNL     H7   34  -0.625   0.173  -0.154
    1UNL     H8   35  -0.221  -0.202   0.076
    1UNL     H9   36  -0.042   0.084   0.254
    1UNL    H10   37  -0.064  -0.077   0.231
    1UNL    H11   38   0.187  -0.083   0.256
    1UNL    H12   39   0.320   0.087   0.164
    1UNL    H13   40   0.240   0.310   0.137
    1UNL    H14   41   0.093   0.232   0.206
    1UNL    H15   42   0.313   0.148  -0.076
    1UNL    H16   43   0.183  -0.021  -0.224
    1UNL    H17   44   0.098   0.113  -0.160
    1UNL    H18   45  -0.009  -0.133  -0.096
    1UNL    H19   46   0.312  -0.240   0.101
    1UNL    H20   47   0.244  -0.268  -0.061
    1UNL    H21   48   0.503  -0.214  -0.076
    1UNL    H22   49   0.520   0.027  -0.221
    1UNL    H23   50   0.658  -0.066  -0.152
    1UNL    H24   51   0.609   0.068   0.047
   0.00000   0.00000   0.00000   0.00000   0.00000   0.00000   0.00000   0.00000   0.00000
Generated with MDTraj, t= 40.0
 51
    1UNL     C1    1  -0.455  -0.343   0.075
    1UNL     O1    2  -0.494  -0.232  -0.010
    1UNL     C2    3  -0.404  -0.121  -0.025
    1UNL     C3    4  -0.454  -0.005  -0.079
    1UNL     C4    5  -0.382   0.115  -0.092
    1UNL     O2    6  -0.434   0.231  -0.136
    1UNL     C5    7  -0.571   0.254  -0.098
    1UNL     C6    8  -0.247   0.106  -0.046
    1UNL     C7    9  -0.189  -0.009   0.007
    1UNL     C8   10  -0.270  -0.120   0.015
    1UNL     C9   11  -0.042   0.028   0.043
    1UNL    C10   12  -0.001   0.023   0.194
    1UNL    C11   13   0.147  -0.014   0.169
    1UNL    C12   14   0.247   0.090   0.116
    1UNL    C13   15   0.179   0.229   0.112
    1UNL     O3   16   0.067   0.263   0.018
    1UNL    C14   17  -0.041   0.175  -0.001
    1UNL     N1   18  -0.153   0.217  -0.055
    1UNL    C15   19   0.292   0.046  -0.029
    1UNL    C16   20   0.163   0.033  -0.113
    1UNL    C17   21   0.059  -0.059  -0.036
    1UNL     N2   22   0.131  -0.128   0.070
    1UNL    C18   23   0.264  -0.196   0.031
    1UNL    C19   24   0.360  -0.086  -0.020
    1UNL    C20   25   0.479  -0.112  -0.080
    1UNL    C21   26   0.562  -0.002  -0.144
    1UNL     O4   27   0.594   0.084  -0.045
    1UNL     H1   28  -0.425  -0.299   0.169
    1UNL     H2   29  -0.546  -0.411   0.074
    1UNL     H3   30  -0.367  -0.392   0.029
    1UNL     H4   31  -0.555  -0.003  -0.104
    1UNL     H5   32  -0.594   0.202  -0.010
    1UNL     H6   33  -0.592   0.364  -0.089
    1UNL     H7   34  -0.628   0.221  -0.189
    1UNL     H8   35  -0.246  -0.205   0.076
    1UNL     H9   36  -0.019   0.118   0.229
    1UNL    H10   37  -0.051  -0.040   0.263
    1UNL    H11   38   0.196  -0.056   0.258
    1UNL    H12   39   0.337   0.081   0.173
    1UNL    H13   40   0.253   0.305   0.073
    1UNL    H14   41   0.159   0.261   0.212
    1UNL    H15   42   0.350   0.130  -0.069
    1UNL    H16   43   0.193  -0.013  -0.205
    1UNL    H17   44   0.120   0.129  -0.132
    1UNL    H18   45   0.016  -0.124  -0.105
    1UNL    H19   46   0.302  -0.251   0.119
    1UNL    H20   47   0.247  -0.265  -0.048
    1UNL    H21   48   0.525  -0.209  -0.076
    1UNL    H22   49   0.502   0.057  -0.213
    1UNL    H23   50   0.651  -0.037  -0.195
    1UNL    H24   51   0.644   0.041   0.023
   0.00000   0.00000   0.00000   0.00000   0.00000   0.00000   0.00000   0.00000   0.00000
Generated with MDTraj, t= 41.0
 51
    1UNL     C1    1  -0.421  -0.339   0.073
    1UNL     O1    2  -0.482  -0.232   0.001
    1UNL     C2    3  -0.403  -0.118  -0.016
    1UNL     C3    4  -0.462   0.005  -0.057
    1UNL     C4    5  -0.385   0.124  -0.080
    1UNL     O2    6  -0.438   0.251  -0.113
    1UNL     C5    7  -0.579   0.258  -0.114
    1UNL     C6    8  -0.247   0.123  -0.047
    1UNL     C7    9  -0.190  -0.001  -0.001
    1UNL     C8   10  -0.268  -0.117   0.006
    1UNL     C9   11  -0.038   0.030   0.028
    1UNL    C10   12  -0.008   0.018   0.184
    1UNL    C11   13   0.132  -0.034   0.174
    1UNL    C12   14   0.229   0.077   0.118
    1UNL    C13   15   0.179   0.220   0.103
    1UNL     O3   16   0.086   0.249   0.001
    1UNL    C14   17  -0.037   0.175  -0.012
    1UNL     N1   18  -0.152   0.219  -0.059
    1UNL    C15   19   0.284   0.039  -0.029
    1UNL    C16   20   0.161   0.012  -0.122
    1UNL    C17   21   0.060  -0.071  -0.047
    1UNL     N2   22   0.133  -0.141   0.064
    1UNL    C18   23   0.270  -0.201   0.030
    1UNL    C19   24   0.354  -0.091  -0.019
    1UNL    C20   25   0.482  -0.108  -0.049
    1UNL    C21   26   0.556  -0.003  -0.126
    1UNL     O4   27   0.581   0.122  -0.050
    1UNL     H1   28  -0.381  -0.299   0.166
    1UNL     H2   29  -0.498  -0.423   0.083
    1UNL     H3   30  -0.331  -0.361   0.014
    1UNL     H4   31  -0.570   0.011  -0.058
    1UNL     H5   32  -0.617   0.245  -0.012
    1UNL     H6   33  -0.611   0.359  -0.154
    1UNL     H7   34  -0.606   0.191  -0.204
    1UNL     H8   35  -0.214  -0.214   0.037
    1UNL     H9   36  -0.012   0.112   0.238
    1UNL    H10   37  -0.068  -0.055   0.225
    1UNL    H11   38   0.170  -0.075   0.269
    1UNL    H12   39   0.314   0.073   0.183
    1UNL    H13   40   0.265   0.287   0.088
    1UNL    H14   41   0.123   0.246   0.190
    1UNL    H15   42   0.355   0.116  -0.057
    1UNL    H16   43   0.192  -0.050  -0.204
    1UNL    H17   44   0.120   0.103  -0.161
    1UNL    H18   45   0.003  -0.142  -0.094
    1UNL    H19   46   0.320  -0.245   0.114
    1UNL    H20   47   0.262  -0.277  -0.049
    1UNL    H21   48   0.523  -0.207  -0.033
    1UNL    H22   49   0.508   0.028  -0.218
    1UNL    H23   50   0.653  -0.037  -0.161
    1UNL    H24   51   0.635   0.096   0.020
   0.00000   0.00000   0.00000   0.00000   0.00000   0.00000   0.00000   0.00000   0.00000
Generated with MDTraj, t= 42.0
 51
    1UNL     C1    1  -0.437  -0.344   0.048
    1UNL     O1    2  -0.492  -0.220   0.016
    1UNL     C2    3  -0.398  -0.110   0.002
    1UNL     C3    4  -0.453   0.007  -0.047
    1UNL     C4    5  -0.383   0.122  -0.061
    1UNL     O2    6  -0.429   0.246  -0.096
    1UNL     C5    7  -0.569   0.232  -0.135
    1UNL     C6    8  -0.242   0.120  -0.031
    1UNL     C7    9  -0.185  -0.002  -0.001
    1UNL     C8   10  -0.259  -0.113   0.020
    1UNL     C9   11  -0.043   0.027   0.029
    1UNL    C10   12  -0.009   0.009   0.180
    1UNL    C11   13   0.146  -0.028   0.160
    1UNL    C12   14   0.236   0.089   0.100
    1UNL    C13   15   0.160   0.228   0.101
    1UNL     O3   16   0.089   0.252  -0.014
    1UNL    C14   17  -0.031   0.179  -0.012
    1UNL     N1   18  -0.144   0.218  -0.056
    1UNL    C15   19   0.278   0.043  -0.042
    1UNL    C16   20   0.151   0.015  -0.128
    1UNL    C17   21   0.054  -0.071  -0.052
    1UNL     N2   22   0.130  -0.137   0.056
    1UNL    C18   23   0.265  -0.186   0.020
    1UNL    C19   24   0.353  -0.083  -0.032
    1UNL    C20   25   0.480  -0.114  -0.061
    1UNL    C21   26   0.588  -0.018  -0.090
    1UNL     O4   27   0.557   0.111  -0.032
    1UNL     H1   28  -0.352  -0.328   0.112
    1UNL     H2   29  -0.515  -0.414   0.089
    1UNL     H3   30  -0.388  -0.376  -0.042
    1UNL     H4   31  -0.560  -0.006  -0.052
    1UNL     H5   32  -0.631   0.210  -0.048
    1UNL     H6   33  -0.602   0.333  -0.173
    1UNL     H7   34  -0.579   0.168  -0.230
    1UNL     H8   35  -0.211  -0.201   0.036
    1UNL     H9   36  -0.016   0.102   0.239
    1UNL    H10   37  -0.068  -0.067   0.215
    1UNL    H11   38   0.192  -0.067   0.253
    1UNL    H12   39   0.318   0.098   0.170
    1UNL    H13   40   0.235   0.305   0.098
    1UNL    H14   41   0.094   0.243   0.183
    1UNL    H15   42   0.344   0.119  -0.081
    1UNL    H16   43   0.177  -0.027  -0.222
    1UNL    H17   44   0.106   0.108  -0.158
    1UNL    H18   45  -0.005  -0.135  -0.104
    1UNL    H19   46   0.309  -0.229   0.105
    1UNL    H20   47   0.258  -0.263  -0.058
    1UNL    H21   48   0.502  -0.219  -0.056
    1UNL    H22   49   0.603   0.002  -0.197
    1UNL    H23   50   0.689  -0.044  -0.056
    1UNL    H24   51   0.530   0.097   0.061
   0.00000   0.00000   0.00000   0.00000   0.00000   0.00000   0.00000   0.00000   0.00000
Generated with MDTraj, t= 43.0
 51
    1UNL     C1    1  -0.424  -0.345   0.029
    1UNL     O1    2  -0.491  -0.223   0.030
    1UNL     C2    3  -0.415  -0.111   0.013
    1UNL     C3    4  -0.467   0.007  -0.038
    1UNL     C4    5  -0.390   0.122  -0.063
    1UNL     O2    6  -0.434   0.245  -0.119
    1UNL     C5    7  -0.574   0.235  -0.158
    1UNL     C6    8  -0.251   0.121  -0.020
    1UNL     C7    9  -0.189   0.001   0.026
    1UNL     C8   10  -0.274  -0.108   0.050
    1UNL     C9   11  -0.043   0.034   0.036
    1UNL    C10   12   0.008   0.013   0.177
    1UNL    C11   13   0.153  -0.030   0.148
    1UNL    C12   14   0.245   0.082   0.083
    1UNL    C13   15   0.185   0.229   0.091
    1UNL     O3   16   0.071   0.258  -0.004
    1UNL    C14   17  -0.038   0.178  -0.009
    1UNL     N1   18  -0.160   0.220  -0.040
    1UNL    C15   19   0.290   0.042  -0.055
    1UNL    C16   20   0.160   0.018  -0.146
    1UNL    C17   21   0.056  -0.060  -0.059
    1UNL     N2   22   0.139  -0.136   0.042
    1UNL    C18   23   0.264  -0.208   0.004
    1UNL    C19   24   0.357  -0.096  -0.039
    1UNL    C20   25   0.489  -0.114  -0.037
    1UNL    C21   26   0.575  -0.005  -0.083
    1UNL     O4   27   0.564   0.105  -0.010
    1UNL     H1   28  -0.389  -0.366   0.129
    1UNL     H2   29  -0.483  -0.430  -0.009
    1UNL     H3   30  -0.335  -0.329  -0.026
    1UNL     H4   31  -0.575   0.012  -0.036
    1UNL     H5   32  -0.633   0.225  -0.067
    1UNL     H6   33  -0.604   0.334  -0.197
    1UNL     H7   34  -0.594   0.161  -0.240
    1UNL     H8   35  -0.235  -0.202   0.085
    1UNL     H9   36  -0.009   0.100   0.241
    1UNL    H10   37  -0.041  -0.075   0.217
    1UNL    H11   38   0.200  -0.071   0.240
    1UNL    H12   39   0.334   0.074   0.146
    1UNL    H13   40   0.259   0.299   0.065
    1UNL    H14   41   0.150   0.252   0.189
    1UNL    H15   42   0.356   0.119  -0.093
    1UNL    H16   43   0.184  -0.023  -0.242
    1UNL    H17   44   0.122   0.114  -0.174
    1UNL    H18   45   0.005  -0.129  -0.113
    1UNL    H19   46   0.294  -0.261   0.086
    1UNL    H20   47   0.243  -0.284  -0.076
    1UNL    H21   48   0.532  -0.207   0.001
    1UNL    H22   49   0.553   0.017  -0.190
    1UNL    H23   50   0.679  -0.043  -0.076
    1UNL    H24   51   0.593   0.090   0.090
   0.00000   0.00000   0.00000   0.00000   0.00000   0.00000   0.00000   0.00000   0.00000
Generated with MDTraj, t= 44.0
 51
    1UNL     C1    1  -0.411  -0.353   0.036
    1UNL     O1    2  -0.479  -0.225   0.034
    1UNL     C2    3  -0.403  -0.109   0.004
    1UNL     C3    4  -0.457   0.008  -0.040
    1UNL     C4    5  -0.382   0.127  -0.067
    1UNL     O2    6  -0.442   0.248  -0.116
    1UNL     C5    7  -0.570   0.228  -0.163
    1UNL     C6    8  -0.245   0.123  -0.032
    1UNL     C7    9  -0.186   0.003   0.016
    1UNL     C8   10  -0.263  -0.106   0.031
    1UNL     C9   11  -0.044   0.031   0.042
    1UNL    C10   12   0.011   0.022   0.190
    1UNL    C11   13   0.154  -0.021   0.161
    1UNL    C12   14   0.248   0.086   0.089
    1UNL    C13   15   0.186   0.223   0.097
    1UNL     O3   16   0.081   0.254   0.001
    1UNL    C14   17  -0.031   0.181  -0.010
    1UNL     N1   18  -0.145   0.214  -0.064
    1UNL    C15   19   0.275   0.042  -0.050
    1UNL    C16   20   0.144   0.015  -0.133
    1UNL    C17   21   0.050  -0.063  -0.041
    1UNL     N2   22   0.131  -0.137   0.060
    1UNL    C18   23   0.245  -0.207  -0.005
    1UNL    C19   24   0.341  -0.098  -0.046
    1UNL    C20   25   0.472  -0.110  -0.077
    1UNL    C21   26   0.563   0.011  -0.097
    1UNL     O4   27   0.562   0.092   0.018
    1UNL     H1   28  -0.333  -0.348   0.111
    1UNL     H2   29  -0.467  -0.444   0.063
    1UNL     H3   30  -0.362  -0.368  -0.054
    1UNL     H4   31  -0.563   0.016  -0.036
    1UNL     H5   32  -0.641   0.230  -0.081
    1UNL     H6   33  -0.580   0.329  -0.202
    1UNL     H7   34  -0.581   0.144  -0.232
    1UNL     H8   35  -0.212  -0.200   0.075
    1UNL     H9   36   0.002   0.116   0.240
    1UNL    H10   37  -0.049  -0.050   0.258
    1UNL    H11   38   0.209  -0.052   0.252
    1UNL    H12   39   0.350   0.077   0.133
    1UNL    H13   40   0.252   0.302   0.070
    1UNL    H14   41   0.154   0.244   0.196
    1UNL    H15   42   0.333   0.113  -0.106
    1UNL    H16   43   0.172  -0.039  -0.220
    1UNL    H17   44   0.091   0.104  -0.163
    1UNL    H18   45  -0.009  -0.121  -0.103
    1UNL    H19   46   0.289  -0.275   0.060
    1UNL    H20   47   0.203  -0.268  -0.087
    1UNL    H21   48   0.516  -0.205  -0.066
    1UNL    H22   49   0.515   0.062  -0.184
    1UNL    H23   50   0.663  -0.023  -0.133
    1UNL    H24   51   0.595   0.039   0.102
   0.00000   0.00000   0.00000   0.00000   0.00000   0.00000   0.00000   0.00000   0.00000
Generated with MDTraj, t= 45.0
 51
    1UNL     C1    1  -0.424  -0.351   0.064
    1UNL     O1    2  -0.482  -0.229   0.013
    1UNL     C2    3  -0.403  -0.112   0.002
    1UNL     C3    4  -0.454  -0.001  -0.055
    1UNL     C4    5  -0.386   0.122  -0.069
    1UNL     O2    6  -0.430   0.245  -0.128
    1UNL     C5    7  -0.570   0.232  -0.162
    1UNL     C6    8  -0.252   0.124  -0.012
    1UNL     C7    9  -0.192   0.006   0.024
    1UNL     C8   10  -0.269  -0.109   0.028
    1UNL     C9   11  -0.049   0.036   0.038
    1UNL    C10   12   0.007   0.020   0.186
    1UNL    C11   13   0.144  -0.027   0.157
    1UNL    C12   14   0.244   0.093   0.100
    1UNL    C13   15   0.173   0.230   0.099
    1UNL     O3   16   0.078   0.254  -0.001
    1UNL    C14   17  -0.041   0.181   0.000
    1UNL     N1   18  -0.156   0.224  -0.032
    1UNL    C15   19   0.285   0.042  -0.039
    1UNL    C16   20   0.147   0.022  -0.133
    1UNL    C17   21   0.044  -0.059  -0.050
    1UNL     N2   22   0.128  -0.133   0.053
    1UNL    C18   23   0.252  -0.194  -0.006
    1UNL    C19   24   0.350  -0.092  -0.047
    1UNL    C20   25   0.477  -0.117  -0.074
    1UNL    C21   26   0.586  -0.017  -0.102
    1UNL     O4   27   0.596   0.097  -0.009
    1UNL     H1   28  -0.442  -0.354   0.172
    1UNL     H2   29  -0.474  -0.444   0.027
    1UNL     H3   30  -0.325  -0.363   0.039
    1UNL     H4   31  -0.560  -0.005  -0.076
    1UNL     H5   32  -0.633   0.200  -0.080
    1UNL     H6   33  -0.599   0.333  -0.181
    1UNL     H7   34  -0.580   0.157  -0.237
    1UNL     H8   35  -0.230  -0.199   0.057
    1UNL     H9   36  -0.001   0.103   0.255
    1UNL    H10   37  -0.054  -0.061   0.244
    1UNL    H11   38   0.186  -0.073   0.249
    1UNL    H12   39   0.334   0.104   0.165
    1UNL    H13   40   0.242   0.312   0.092
    1UNL    H14   41   0.114   0.250   0.186
    1UNL    H15   42   0.350   0.120  -0.075
    1UNL    H16   43   0.169  -0.039  -0.218
    1UNL    H17   44   0.100   0.118  -0.154
    1UNL    H18   45  -0.008  -0.134  -0.104
    1UNL    H19   46   0.292  -0.261   0.066
    1UNL    H20   47   0.233  -0.257  -0.093
    1UNL    H21   48   0.490  -0.227  -0.075
    1UNL    H22   49   0.589   0.020  -0.207
    1UNL    H23   50   0.682  -0.073  -0.099
    1UNL    H24   51   0.565   0.073   0.081
   0.00000   0.00000   0.00000   0.00000   0.00000   0.00000   0.00000   0.00000   0.00000
Generated with MDTraj, t= 46.0
 51
    1UNL     C1    1  -0.446  -0.339   0.084
    1UNL     O1    2  -0.483  -0.235  -0.010
    1UNL     C2    3  -0.397  -0.119  -0.007
    1UNL     C3    4  -0.456   0.000  -0.061
    1UNL     C4    5  -0.380   0.119  -0.078
    1UNL     O2    6  -0.432   0.245  -0.113
    1UNL     C5    7  -0.568   0.227  -0.151
    1UNL     C6    8  -0.245   0.121  -0.034
    1UNL     C7    9  -0.188   0.004   0.009
    1UNL     C8   10  -0.260  -0.113   0.024
    1UNL     C9   11  -0.042   0.037   0.031
    1UNL    C10   12  -0.000   0.021   0.178
    1UNL    C11   13   0.143  -0.033   0.166
    1UNL    C12   14   0.240   0.077   0.099
    1UNL    C13   15   0.176   0.227   0.115
    1UNL     O3   16   0.067   0.274   0.034
    1UNL    C14   17  -0.038   0.186   0.005
    1UNL     N1   18  -0.154   0.225  -0.046
    1UNL    C15   19   0.283   0.039  -0.046
    1UNL    C16   20   0.157   0.025  -0.132
    1UNL    C17   21   0.058  -0.061  -0.057
    1UNL     N2   22   0.127  -0.137   0.053
    1UNL    C18   23   0.260  -0.201   0.021
    1UNL    C19   24   0.351  -0.092  -0.027
    1UNL    C20   25   0.476  -0.114  -0.065
    1UNL    C21   26   0.571  -0.016  -0.112
    1UNL     O4   27   0.584   0.104  -0.043
    1UNL     H1   28  -0.372  -0.289   0.147
    1UNL     H2   29  -0.523  -0.377   0.160
    1UNL     H3   30  -0.399  -0.414   0.029
    1UNL     H4   31  -0.560   0.001  -0.083
    1UNL     H5   32  -0.643   0.193  -0.078
    1UNL     H6   33  -0.593   0.326  -0.180
    1UNL     H7   34  -0.563   0.154  -0.228
    1UNL     H8   35  -0.201  -0.188   0.069
    1UNL     H9   36  -0.003   0.117   0.241
    1UNL    H10   37  -0.076  -0.051   0.222
    1UNL    H11   38   0.179  -0.079   0.260
    1UNL    H12   39   0.335   0.077   0.158
    1UNL    H13   40   0.247   0.296   0.066
    1UNL    H14   41   0.168   0.254   0.219
    1UNL    H15   42   0.356   0.111  -0.079
    1UNL    H16   43   0.173  -0.026  -0.224
    1UNL    H17   44   0.113   0.125  -0.138
    1UNL    H18   45   0.005  -0.134  -0.117
    1UNL    H19   46   0.310  -0.248   0.106
    1UNL    H20   47   0.252  -0.280  -0.049
    1UNL    H21   48   0.503  -0.215  -0.052
    1UNL    H22   49   0.546   0.012  -0.216
    1UNL    H23   50   0.674  -0.051  -0.128
    1UNL    H24   51   0.599   0.092   0.048
   0.00000   0.00000   0.00000   0.00000   0.00000   0.00000   0.00000   0.00000   0.00000
Generated with MDTraj, t= 47.0
 51
    1UNL     C1    1  -0.423  -0.309   0.090
    1UNL     O1    2  -0.476  -0.229  -0.003
    1UNL     C2    3  -0.402  -0.113  -0.022
    1UNL     C3    4  -0.459   0.002  -0.075
    1UNL     C4    5  -0.379   0.121  -0.082
    1UNL     O2    6  -0.423   0.246  -0.122
    1UNL     C5    7  -0.562   0.245  -0.146
    1UNL     C6    8  -0.247   0.115  -0.032
    1UNL     C7    9  -0.186  -0.004   0.007
    1UNL     C8   10  -0.269  -0.110   0.014
    1UNL     C9   11  -0.042   0.022   0.036
    1UNL    C10   12  -0.008   0.006   0.187
    1UNL    C11   13   0.141  -0.038   0.169
    1UNL    C12   14   0.232   0.080   0.126
    1UNL    C13   15   0.169   0.222   0.120
    1UNL     O3   16   0.085   0.242   0.002
    1UNL    C14   17  -0.039   0.170  -0.009
    1UNL     N1   18  -0.152   0.218  -0.047
    1UNL    C15   19   0.286   0.047  -0.011
    1UNL    C16   20   0.167   0.020  -0.116
    1UNL    C17   21   0.063  -0.066  -0.039
    1UNL     N2   22   0.133  -0.144   0.066
    1UNL    C18   23   0.266  -0.202   0.028
    1UNL    C19   24   0.357  -0.091  -0.020
    1UNL    C20   25   0.475  -0.107  -0.084
    1UNL    C21   26   0.545   0.011  -0.141
    1UNL     O4   27   0.554   0.113  -0.049
    1UNL     H1   28  -0.422  -0.248   0.184
    1UNL     H2   29  -0.496  -0.394   0.109
    1UNL     H3   30  -0.333  -0.345   0.047
    1UNL     H4   31  -0.564  -0.002  -0.099
    1UNL     H5   32  -0.628   0.217  -0.058
    1UNL     H6   33  -0.590   0.340  -0.180
    1UNL     H7   34  -0.571   0.169  -0.224
    1UNL     H8   35  -0.230  -0.206   0.068
    1UNL     H9   36  -0.014   0.106   0.250
    1UNL    H10   37  -0.064  -0.079   0.236
    1UNL    H11   38   0.178  -0.085   0.261
    1UNL    H12   39   0.318   0.080   0.196
    1UNL    H13   40   0.256   0.294   0.120
    1UNL    H14   41   0.103   0.240   0.203
    1UNL    H15   42   0.354   0.125  -0.044
    1UNL    H16   43   0.208  -0.024  -0.204
    1UNL    H17   44   0.114   0.109  -0.148
    1UNL    H18   45   0.007  -0.138  -0.103
    1UNL    H19   46   0.306  -0.262   0.112
    1UNL    H20   47   0.250  -0.272  -0.048
    1UNL    H21   48   0.518  -0.208  -0.084
    1UNL    H22   49   0.499   0.046  -0.234
    1UNL    H23   50   0.640  -0.030  -0.174
    1UNL    H24   51   0.615   0.086   0.019
   0.00000   0.00000   0.00000   0.00000   0.00000   0.00000   0.00000   0.00000   0.00000
Generated with MDTraj, t= 48.0
 51
    1UNL     C1    1  -0.452  -0.332   0.069
    1UNL     O1    2  -0.506  -0.216   0.003
    1UNL     C2    3  -0.408  -0.112  -0.010
    1UNL     C3    4  -0.450   0.009  -0.063
    1UNL     C4    5  -0.367   0.117  -0.089
    1UNL     O2    6  -0.418   0.230  -0.147
    1UNL     C5    7  -0.552   0.249  -0.141
    1UNL     C6    8  -0.238   0.106  -0.042
    1UNL     C7    9  -0.191  -0.013   0.015
    1UNL     C8   10  -0.271  -0.128   0.022
    1UNL     C9   11  -0.044   0.022   0.051
    1UNL    C10   12  -0.006   0.008   0.198
    1UNL    C11   13   0.150  -0.028   0.175
    1UNL    C12   14   0.233   0.085   0.110
    1UNL    C13   15   0.170   0.218   0.125
    1UNL     O3   16   0.075   0.251   0.031
    1UNL    C14   17  -0.037   0.173   0.010
    1UNL     N1   18  -0.145   0.212  -0.054
    1UNL    C15   19   0.276   0.055  -0.035
    1UNL    C16   20   0.148   0.014  -0.121
    1UNL    C17   21   0.054  -0.070  -0.037
    1UNL     N2   22   0.139  -0.135   0.066
    1UNL    C18   23   0.269  -0.192   0.015
    1UNL    C19   24   0.354  -0.081  -0.028
    1UNL    C20   25   0.484  -0.106  -0.060
    1UNL    C21   26   0.570  -0.001  -0.138
    1UNL     O4   27   0.575   0.124  -0.069
    1UNL     H1   28  -0.406  -0.291   0.162
    1UNL     H2   29  -0.534  -0.401   0.104
    1UNL     H3   30  -0.380  -0.376   0.004
    1UNL     H4   31  -0.557   0.025  -0.069
    1UNL     H5   32  -0.586   0.265  -0.030
    1UNL     H6   33  -0.571   0.346  -0.182
    1UNL     H7   34  -0.602   0.173  -0.205
    1UNL     H8   35  -0.241  -0.226   0.051
    1UNL     H9   36  -0.027   0.109   0.247
    1UNL    H10   37  -0.059  -0.077   0.255
    1UNL    H11   38   0.197  -0.070   0.265
    1UNL    H12   39   0.325   0.087   0.173
    1UNL    H13   40   0.245   0.304   0.111
    1UNL    H14   41   0.125   0.224   0.224
    1UNL    H15   42   0.324   0.140  -0.079
    1UNL    H16   43   0.173  -0.030  -0.216
    1UNL    H17   44   0.099   0.104  -0.158
    1UNL    H18   45  -0.006  -0.136  -0.110
    1UNL    H19   46   0.315  -0.254   0.095
    1UNL    H20   47   0.254  -0.254  -0.065
    1UNL    H21   48   0.519  -0.206  -0.044
    1UNL    H22   49   0.513   0.001  -0.230
    1UNL    H23   50   0.665  -0.036  -0.170
    1UNL    H24   51   0.640   0.131   0.011
   0.00000   0.00000   0.00000   0.00000   0.00000   0.00000   0.00000   0.00000   0.00000
Generated with MDTraj, t= 49.0
 51
    1UNL     C1    1  -0.453  -0.352   0.052
    1UNL     O1    2  -0.497  -0.215   0.025
    1UNL     C2    3  -0.404  -0.113   0.004
    1UNL     C3    4  -0.457  -0.001  -0.064
    1UNL     C4    5  -0.377   0.110  -0.087
    1UNL     O2    6  -0.418   0.228  -0.152
    1UNL     C5    7  -0.562   0.256  -0.161
    1UNL     C6    8  -0.244   0.115  -0.034
    1UNL     C7    9  -0.192  -0.002   0.020
    1UNL     C8   10  -0.272  -0.111   0.047
    1UNL     C9   11  -0.040   0.030   0.044
    1UNL    C10   12   0.001   0.015   0.193
    1UNL    C11   13   0.143  -0.033   0.168
    1UNL    C12   14   0.239   0.076   0.116
    1UNL    C13   15   0.174   0.218   0.130
    1UNL     O3   16   0.081   0.253   0.021
    1UNL    C14   17  -0.032   0.173   0.005
    1UNL     N1   18  -0.146   0.215  -0.050
    1UNL    C15   19   0.285   0.044  -0.036
    1UNL    C16   20   0.157   0.027  -0.124
    1UNL    C17   21   0.056  -0.059  -0.044
    1UNL     N2   22   0.132  -0.136   0.058
    1UNL    C18   23   0.269  -0.189   0.016
    1UNL    C19   24   0.358  -0.082  -0.038
    1UNL    C20   25   0.484  -0.106  -0.077
    1UNL    C21   26   0.568   0.004  -0.132
    1UNL     O4   27   0.556   0.109  -0.048
    1UNL     H1   28  -0.445  -0.367   0.162
    1UNL     H2   29  -0.533  -0.420   0.014
    1UNL     H3   30  -0.356  -0.369   0.007
    1UNL     H4   31  -0.562  -0.001  -0.087
    1UNL     H5   32  -0.599   0.210  -0.059
    1UNL     H6   33  -0.597   0.357  -0.147
    1UNL     H7   34  -0.609   0.210  -0.251
    1UNL     H8   35  -0.224  -0.195   0.075
    1UNL     H9   36  -0.021   0.106   0.251
    1UNL    H10   37  -0.049  -0.077   0.249
    1UNL    H11   38   0.184  -0.086   0.255
    1UNL    H12   39   0.332   0.067   0.175
    1UNL    H13   40   0.258   0.296   0.121
    1UNL    H14   41   0.119   0.246   0.221
    1UNL    H15   42   0.349   0.118  -0.080
    1UNL    H16   43   0.184  -0.020  -0.218
    1UNL    H17   44   0.122   0.121  -0.166
    1UNL    H18   45   0.000  -0.145  -0.103
    1UNL    H19   46   0.322  -0.237   0.101
    1UNL    H20   47   0.247  -0.265  -0.051
    1UNL    H21   48   0.518  -0.209  -0.065
    1UNL    H22   49   0.547   0.041  -0.233
    1UNL    H23   50   0.671  -0.033  -0.135
    1UNL    H24   51   0.612   0.089   0.039
   0.00000   0.00000   0.00000   0.00000   0.00000   0.00000   0.00000   0.00000   0.00000
Generated with MDTraj, t= 50.0
 51
    1UNL     C1    1  -0.404  -0.347   0.050
    1UNL     O1    2  -0.479  -0.227   0.030
    1UNL     C2    3  -0.393  -0.111   0.008
    1UNL     C3    4  -0.450   0.004  -0.056
    1UNL     C4    5  -0.389   0.128  -0.074
    1UNL     O2    6  -0.440   0.248  -0.118
    1UNL     C5    7  -0.564   0.239  -0.186
    1UNL     C6    8  -0.251   0.131  -0.033
    1UNL     C7    9  -0.195   0.012   0.015
    1UNL     C8   10  -0.260  -0.104   0.041
    1UNL     C9   11  -0.043   0.037   0.035
    1UNL    C10   12  -0.002   0.015   0.184
    1UNL    C11   13   0.142  -0.039   0.167
    1UNL    C12   14   0.238   0.070   0.105
    1UNL    C13   15   0.177   0.213   0.117
    1UNL     O3   16   0.090   0.251   0.012
    1UNL    C14   17  -0.036   0.181  -0.003
    1UNL     N1   18  -0.144   0.224  -0.054
    1UNL    C15   19   0.273   0.038  -0.048
    1UNL    C16   20   0.145   0.012  -0.127
    1UNL    C17   21   0.046  -0.069  -0.043
    1UNL     N2   22   0.130  -0.141   0.057
    1UNL    C18   23   0.263  -0.202   0.010
    1UNL    C19   24   0.347  -0.091  -0.035
    1UNL    C20   25   0.474  -0.105  -0.075
    1UNL    C21   26   0.559   0.006  -0.114
    1UNL     O4   27   0.561   0.105  -0.019
    1UNL     H1   28  -0.328  -0.340   0.129
    1UNL     H2   29  -0.474  -0.426   0.079
    1UNL     H3   30  -0.356  -0.370  -0.046
    1UNL     H4   31  -0.557  -0.005  -0.049
    1UNL     H5   32  -0.638   0.268  -0.102
    1UNL     H6   33  -0.575   0.303  -0.271
    1UNL     H7   34  -0.594   0.137  -0.220
    1UNL     H8   35  -0.192  -0.190   0.077
    1UNL     H9   36  -0.008   0.106   0.245
    1UNL    H10   37  -0.070  -0.056   0.250
    1UNL    H11   38   0.184  -0.090   0.255
    1UNL    H12   39   0.332   0.070   0.163
    1UNL    H13   40   0.253   0.301   0.115
    1UNL    H14   41   0.125   0.223   0.214
    1UNL    H15   42   0.333   0.119  -0.086
    1UNL    H16   43   0.164  -0.041  -0.220
    1UNL    H17   44   0.109   0.109  -0.158
    1UNL    H18   45  -0.029  -0.142  -0.101
    1UNL    H19   46   0.305  -0.250   0.097
    1UNL    H20   47   0.262  -0.273  -0.069
    1UNL    H21   48   0.515  -0.205  -0.075
    1UNL    H22   49   0.527   0.054  -0.208
    1UNL    H23   50   0.666  -0.009  -0.140
    1UNL    H24   51   0.625   0.074   0.053
   0.00000   0.00000   0.00000   0.00000   0.00000   0.00000   0.00000   0.00000   0.00000
Generated with MDTraj, t= 51.0
 51
    1UNL     C1    1  -0.430  -0.350   0.049
    1UNL     O1    2  -0.484  -0.233   0.006
    1UNL     C2    3  -0.404  -0.116   0.006
    1UNL     C3    4  -0.465   0.005  -0.025
    1UNL     C4    5  -0.388   0.121  -0.044
    1UNL     O2    6  -0.442   0.239  -0.094
    1UNL     C5    7  -0.527   0.224  -0.196
    1UNL     C6    8  -0.255   0.122  -0.006
    1UNL     C7    9  -0.189  -0.000   0.019
    1UNL     C8   10  -0.263  -0.120   0.030
    1UNL     C9   11  -0.042   0.039   0.034
    1UNL    C10   12   0.006   0.024   0.181
    1UNL    C11   13   0.153  -0.017   0.150
    1UNL    C12   14   0.248   0.096   0.094
    1UNL    C13   15   0.175   0.233   0.088
    1UNL     O3   16   0.069   0.266  -0.002
    1UNL    C14   17  -0.043   0.179  -0.006
    1UNL     N1   18  -0.167   0.224  -0.035
    1UNL    C15   19   0.283   0.049  -0.050
    1UNL    C16   20   0.155   0.029  -0.136
    1UNL    C17   21   0.053  -0.056  -0.051
    1UNL     N2   22   0.134  -0.127   0.053
    1UNL    C18   23   0.249  -0.199  -0.008
    1UNL    C19   24   0.345  -0.091  -0.045
    1UNL    C20   25   0.474  -0.126  -0.055
    1UNL    C21   26   0.574  -0.026  -0.096
    1UNL     O4   27   0.577   0.092  -0.005
    1UNL     H1   28  -0.389  -0.354   0.149
    1UNL     H2   29  -0.514  -0.417   0.040
    1UNL     H3   30  -0.357  -0.386  -0.026
    1UNL     H4   31  -0.572   0.016  -0.017
    1UNL     H5   32  -0.597   0.133  -0.192
    1UNL     H6   33  -0.585   0.312  -0.210
    1UNL     H7   34  -0.473   0.224  -0.290
    1UNL     H8   35  -0.205  -0.213   0.045
    1UNL     H9   36   0.004   0.127   0.222
    1UNL    H10   37  -0.059  -0.037   0.249
    1UNL    H11   38   0.197  -0.059   0.241
    1UNL    H12   39   0.342   0.107   0.153
    1UNL    H13   40   0.262   0.310   0.082
    1UNL    H14   41   0.122   0.246   0.184
    1UNL    H15   42   0.347   0.123  -0.092
    1UNL    H16   43   0.190  -0.022  -0.227
    1UNL    H17   44   0.110   0.125  -0.156
    1UNL    H18   45  -0.010  -0.136  -0.114
    1UNL    H19   46   0.290  -0.269   0.059
    1UNL    H20   47   0.213  -0.255  -0.094
    1UNL    H21   48   0.501  -0.229  -0.044
    1UNL    H22   49   0.565   0.012  -0.201
    1UNL    H23   50   0.678  -0.069  -0.101
    1UNL    H24   51   0.617   0.070   0.077
   0.00000   0.00000   0.00000   0.00000   0.00000   0.00000   0.00000   0.00000   0.00000
Generated with MDTraj, t= 52.0
 51
    1UNL     C1    1  -0.408  -0.345   0.059
    1UNL     O1    2  -0.479  -0.236   0.009
    1UNL     C2    3  -0.405  -0.117  -0.001
    1UNL     C3    4  -0.464   0.003  -0.041
    1UNL     C4    5  -0.397   0.126  -0.042
    1UNL     O2    6  -0.475   0.242  -0.072
    1UNL     C5    7  -0.507   0.250  -0.206
    1UNL     C6    8  -0.261   0.125  -0.002
    1UNL     C7    9  -0.198   0.004   0.019
    1UNL     C8   10  -0.263  -0.120   0.031
    1UNL     C9   11  -0.047   0.033   0.037
    1UNL    C10   12   0.007   0.026   0.181
    1UNL    C11   13   0.152  -0.017   0.154
    1UNL    C12   14   0.242   0.087   0.088
    1UNL    C13   15   0.172   0.231   0.086
    1UNL     O3   16   0.070   0.260  -0.015
    1UNL    C14   17  -0.045   0.180  -0.011
    1UNL     N1   18  -0.167   0.226  -0.030
    1UNL    C15   19   0.281   0.039  -0.057
    1UNL    C16   20   0.151   0.016  -0.143
    1UNL    C17   21   0.048  -0.066  -0.049
    1UNL     N2   22   0.129  -0.135   0.055
    1UNL    C18   23   0.252  -0.208  -0.001
    1UNL    C19   24   0.345  -0.093  -0.041
    1UNL    C20   25   0.479  -0.115  -0.060
    1UNL    C21   26   0.579  -0.008  -0.097
    1UNL     O4   27   0.593   0.091   0.006
    1UNL     H1   28  -0.349  -0.336   0.148
    1UNL     H2   29  -0.486  -0.414   0.080
    1UNL     H3   30  -0.346  -0.396  -0.019
    1UNL     H4   31  -0.571   0.009  -0.047
    1UNL     H5   32  -0.568   0.167  -0.254
    1UNL     H6   33  -0.541   0.342  -0.242
    1UNL     H7   34  -0.411   0.247  -0.254
    1UNL     H8   35  -0.213  -0.199   0.063
    1UNL     H9   36  -0.002   0.127   0.233
    1UNL    H10   37  -0.055  -0.045   0.228
    1UNL    H11   38   0.196  -0.051   0.249
    1UNL    H12   39   0.340   0.086   0.141
    1UNL    H13   40   0.251   0.310   0.056
    1UNL    H14   41   0.138   0.251   0.187
    1UNL    H15   42   0.338   0.112  -0.111
    1UNL    H16   43   0.182  -0.045  -0.230
    1UNL    H17   44   0.107   0.109  -0.174
    1UNL    H18   45  -0.008  -0.140  -0.123
    1UNL    H19   46   0.291  -0.268   0.075
    1UNL    H20   47   0.220  -0.276  -0.082
    1UNL    H21   48   0.532  -0.209  -0.039
    1UNL    H22   49   0.543   0.040  -0.191
    1UNL    H23   50   0.678  -0.052  -0.125
    1UNL    H24   51   0.613   0.051   0.087
   0.00000   0.00000   0.00000   0.00000   0.00000   0.00000   0.00000   0.00000   0.00000
Generated with MDTraj, t= 53.0
 51
    1UNL     C1    1  -0.420  -0.351   0.066
    1UNL     O1    2  -0.486  -0.234   0.014
    1UNL     C2    3  -0.397  -0.122   0.013
    1UNL     C3    4  -0.458  -0.004  -0.033
    1UNL     C4    5  -0.390   0.117  -0.051
    1UNL     O2    6  -0.456   0.239  -0.062
    1UNL     C5    7  -0.471   0.268  -0.197
    1UNL     C6    8  -0.251   0.119  -0.032
    1UNL     C7    9  -0.191  -0.001   0.010
    1UNL     C8   10  -0.257  -0.121   0.033
    1UNL     C9   11  -0.048   0.028   0.025
    1UNL    C10   12  -0.006   0.027   0.176
    1UNL    C11   13   0.139  -0.025   0.160
    1UNL    C12   14   0.232   0.090   0.094
    1UNL    C13   15   0.169   0.232   0.101
    1UNL     O3   16   0.079   0.258  -0.007
    1UNL    C14   17  -0.040   0.177  -0.015
    1UNL     N1   18  -0.156   0.216  -0.058
    1UNL    C15   19   0.275   0.041  -0.049
    1UNL    C16   20   0.148   0.014  -0.141
    1UNL    C17   21   0.048  -0.069  -0.053
    1UNL     N2   22   0.127  -0.137   0.059
    1UNL    C18   23   0.256  -0.196   0.014
    1UNL    C19   24   0.341  -0.088  -0.038
    1UNL    C20   25   0.468  -0.106  -0.082
    1UNL    C21   26   0.558   0.007  -0.104
    1UNL     O4   27   0.575   0.094  -0.000
    1UNL     H1   28  -0.369  -0.337   0.160
    1UNL     H2   29  -0.493  -0.422   0.087
    1UNL     H3   30  -0.352  -0.410  -0.004
    1UNL     H4   31  -0.565  -0.005  -0.026
    1UNL     H5   32  -0.534   0.196  -0.255
    1UNL     H6   33  -0.495   0.366  -0.229
    1UNL     H7   34  -0.375   0.252  -0.242
    1UNL     H8   35  -0.200  -0.205   0.083
    1UNL     H9   36  -0.018   0.122   0.229
    1UNL    H10   37  -0.058  -0.045   0.235
    1UNL    H11   38   0.175  -0.065   0.256
    1UNL    H12   39   0.332   0.092   0.145
    1UNL    H13   40   0.250   0.311   0.093
    1UNL    H14   41   0.114   0.261   0.188
    1UNL    H15   42   0.327   0.123  -0.094
    1UNL    H16   43   0.180  -0.048  -0.226
    1UNL    H17   44   0.106   0.102  -0.187
    1UNL    H18   45  -0.003  -0.148  -0.120
    1UNL    H19   46   0.288  -0.249   0.096
    1UNL    H20   47   0.234  -0.264  -0.070
    1UNL    H21   48   0.516  -0.200  -0.097
    1UNL    H22   49   0.520   0.069  -0.188
    1UNL    H23   50   0.659  -0.030  -0.131
    1UNL    H24   51   0.559   0.049   0.087
   0.00000   0.00000   0.00000   0.00000   0.00000   0.00000   0.00000   0.00000   0.00000
Generated with MDTraj, t= 54.0
 51
    1UNL     C1    1  -0.428  -0.351   0.070
    1UNL     O1    2  -0.501  -0.232   0.044
    1UNL     C2    3  -0.414  -0.122   0.024
    1UNL     C3    4  -0.472  -0.000  -0.024
    1UNL     C4    5  -0.397   0.110  -0.059
    1UNL     O2    6  -0.468   0.225  -0.106
    1UNL     C5    7  -0.405   0.299  -0.198
    1UNL     C6    8  -0.263   0.109  -0.016
    1UNL     C7    9  -0.199  -0.013   0.006
    1UNL     C8   10  -0.276  -0.125   0.028
    1UNL     C9   11  -0.053   0.022   0.022
    1UNL    C10   12  -0.004   0.008   0.170
    1UNL    C11   13   0.142  -0.037   0.156
    1UNL    C12   14   0.231   0.086   0.100
    1UNL    C13   15   0.168   0.225   0.099
    1UNL     O3   16   0.070   0.251   0.002
    1UNL    C14   17  -0.050   0.176  -0.002
    1UNL     N1   18  -0.175   0.217  -0.025
    1UNL    C15   19   0.284   0.043  -0.047
    1UNL    C16   20   0.156   0.016  -0.140
    1UNL    C17   21   0.054  -0.063  -0.059
    1UNL     N2   22   0.128  -0.137   0.045
    1UNL    C18   23   0.259  -0.189   0.007
    1UNL    C19   24   0.354  -0.079  -0.035
    1UNL    C20   25   0.486  -0.102  -0.055
    1UNL    C21   26   0.582  -0.005  -0.108
    1UNL     O4   27   0.573   0.127  -0.045
    1UNL     H1   28  -0.393  -0.356   0.172
    1UNL     H2   29  -0.503  -0.425   0.063
    1UNL     H3   30  -0.347  -0.386  -0.005
    1UNL     H4   31  -0.576   0.010  -0.045
    1UNL     H5   32  -0.386   0.229  -0.284
    1UNL     H6   33  -0.462   0.380  -0.240
    1UNL     H7   34  -0.304   0.330  -0.177
    1UNL     H8   35  -0.213  -0.213   0.063
    1UNL     H9   36  -0.012   0.096   0.223
    1UNL    H10   37  -0.057  -0.063   0.231
    1UNL    H11   38   0.178  -0.091   0.246
    1UNL    H12   39   0.317   0.099   0.170
    1UNL    H13   40   0.231   0.315   0.085
    1UNL    H14   41   0.122   0.243   0.192
    1UNL    H15   42   0.345   0.125  -0.075
    1UNL    H16   43   0.180  -0.038  -0.231
    1UNL    H17   44   0.109   0.107  -0.176
    1UNL    H18   45  -0.007  -0.136  -0.119
    1UNL    H19   46   0.301  -0.237   0.089
    1UNL    H20   47   0.227  -0.262  -0.070
    1UNL    H21   48   0.522  -0.205  -0.042
    1UNL    H22   49   0.573   0.021  -0.213
    1UNL    H23   50   0.688  -0.037  -0.097
    1UNL    H24   51   0.567   0.108   0.058
   0.00000   0.00000   0.00000   0.00000   0.00000   0.00000   0.00000   0.00000   0.00000
Generated with MDTraj, t= 55.0
 51
    1UNL     C1    1  -0.431  -0.350   0.078
    1UNL     O1    2  -0.501  -0.231   0.048
    1UNL     C2    3  -0.414  -0.120   0.022
    1UNL     C3    4  -0.466  -0.003  -0.042
    1UNL     C4    5  -0.381   0.106  -0.081
    1UNL     O2    6  -0.442   0.215  -0.145
    1UNL     C5    7  -0.373   0.336  -0.161
    1UNL     C6    8  -0.245   0.095  -0.045
    1UNL     C7    9  -0.198  -0.017   0.015
    1UNL     C8   10  -0.272  -0.129   0.046
    1UNL     C9   11  -0.055   0.015   0.049
    1UNL    C10   12  -0.002   0.009   0.193
    1UNL    C11   13   0.145  -0.034   0.165
    1UNL    C12   14   0.227   0.085   0.104
    1UNL    C13   15   0.163   0.225   0.117
    1UNL     O3   16   0.066   0.247   0.012
    1UNL    C14   17  -0.047   0.161  -0.004
    1UNL     N1   18  -0.155   0.200  -0.056
    1UNL    C15   19   0.270   0.051  -0.046
    1UNL    C16   20   0.144   0.020  -0.129
    1UNL    C17   21   0.047  -0.064  -0.049
    1UNL     N2   22   0.133  -0.141   0.057
    1UNL    C18   23   0.257  -0.200  -0.005
    1UNL    C19   24   0.344  -0.083  -0.041
    1UNL    C20   25   0.478  -0.101  -0.068
    1UNL    C21   26   0.561   0.007  -0.118
    1UNL     O4   27   0.529   0.144  -0.061
    1UNL     H1   28  -0.373  -0.331   0.170
    1UNL     H2   29  -0.507  -0.419   0.105
    1UNL     H3   30  -0.372  -0.398  -0.008
    1UNL     H4   31  -0.571   0.022  -0.033
    1UNL     H5   32  -0.289   0.312  -0.231
    1UNL     H6   33  -0.434   0.402  -0.224
    1UNL     H7   34  -0.324   0.394  -0.081
    1UNL     H8   35  -0.236  -0.202   0.105
    1UNL     H9   36  -0.014   0.103   0.236
    1UNL    H10   37  -0.048  -0.061   0.257
    1UNL    H11   38   0.183  -0.081   0.258
    1UNL    H12   39   0.324   0.082   0.157
    1UNL    H13   40   0.243   0.291   0.085
    1UNL    H14   41   0.121   0.252   0.210
    1UNL    H15   42   0.335   0.125  -0.086
    1UNL    H16   43   0.161  -0.019  -0.230
    1UNL    H17   44   0.095   0.113  -0.156
    1UNL    H18   45  -0.006  -0.145  -0.101
    1UNL    H19   46   0.294  -0.273   0.064
    1UNL    H20   47   0.234  -0.246  -0.101
    1UNL    H21   48   0.520  -0.198  -0.079
    1UNL    H22   49   0.558   0.019  -0.225
    1UNL    H23   50   0.668  -0.004  -0.104
    1UNL    H24   51   0.544   0.143   0.041
   0.00000   0.00000   0.00000   0.00000   0.00000   0.00000   0.00000   0.00000   0.00000
Generated with MDTraj, t= 56.0
 51
    1UNL     C1    1  -0.443  -0.337   0.104
    1UNL     O1    2  -0.493  -0.231   0.026
    1UNL     C2    3  -0.401  -0.125   0.000
    1UNL     C3    4  -0.449  -0.014  -0.074
    1UNL     C4    5  -0.370   0.101  -0.099
    1UNL     O2    6  -0.425   0.209  -0.176
    1UNL     C5    7  -0.395   0.345  -0.127
    1UNL     C6    8  -0.248   0.101  -0.034
    1UNL     C7    9  -0.194  -0.017   0.024
    1UNL     C8   10  -0.274  -0.122   0.056
    1UNL     C9   11  -0.053   0.013   0.048
    1UNL    C10   12  -0.001   0.006   0.194
    1UNL    C11   13   0.147  -0.032   0.168
    1UNL    C12   14   0.230   0.077   0.100
    1UNL    C13   15   0.176   0.223   0.110
    1UNL     O3   16   0.070   0.246   0.014
    1UNL    C14   17  -0.039   0.161   0.003
    1UNL     N1   18  -0.152   0.206  -0.047
    1UNL    C15   19   0.260   0.044  -0.048
    1UNL    C16   20   0.134   0.015  -0.125
    1UNL    C17   21   0.046  -0.080  -0.032
    1UNL     N2   22   0.125  -0.146   0.072
    1UNL    C18   23   0.261  -0.198   0.018
    1UNL    C19   24   0.340  -0.082  -0.043
    1UNL    C20   25   0.468  -0.088  -0.087
    1UNL    C21   26   0.530   0.030  -0.147
    1UNL     O4   27   0.538   0.133  -0.056
    1UNL     H1   28  -0.434  -0.295   0.207
    1UNL     H2   29  -0.525  -0.405   0.103
    1UNL     H3   30  -0.351  -0.387   0.060
    1UNL     H4   31  -0.550  -0.006  -0.109
    1UNL     H5   32  -0.298   0.389  -0.161
    1UNL     H6   33  -0.460   0.418  -0.180
    1UNL     H7   34  -0.400   0.363  -0.018
    1UNL     H8   35  -0.240  -0.203   0.122
    1UNL     H9   36  -0.006   0.092   0.257
    1UNL    H10   37  -0.048  -0.070   0.242
    1UNL    H11   38   0.197  -0.066   0.262
    1UNL    H12   39   0.327   0.076   0.153
    1UNL    H13   40   0.252   0.294   0.089
    1UNL    H14   41   0.134   0.234   0.207
    1UNL    H15   42   0.307   0.131  -0.086
    1UNL    H16   43   0.171  -0.035  -0.214
    1UNL    H17   44   0.075   0.097  -0.168
    1UNL    H18   45  -0.004  -0.150  -0.095
    1UNL    H19   46   0.312  -0.238   0.106
    1UNL    H20   47   0.231  -0.274  -0.050
    1UNL    H21   48   0.531  -0.177  -0.068
    1UNL    H22   49   0.471   0.078  -0.223
    1UNL    H23   50   0.626   0.008  -0.192
    1UNL    H24   51   0.597   0.105   0.014
   0.00000   0.00000   0.00000   0.00000   0.00000   0.00000   0.00000   0.00000   0.00000
Generated with MDTraj, t= 57.0
 51
    1UNL     C1    1  -0.466  -0.332   0.115
    1UNL     O1    2  -0.481  -0.245  -0.001
    1UNL     C2    3  -0.396  -0.137  -0.008
    1UNL     C3    4  -0.440  -0.031  -0.096
    1UNL     C4    5  -0.382   0.098  -0.096
    1UNL     O2    6  -0.454   0.209  -0.142
    1UNL     C5    7  -0.394   0.335  -0.133
    1UNL     C6    8  -0.256   0.105  -0.032
    1UNL     C7    9  -0.198  -0.011   0.026
    1UNL     C8   10  -0.271  -0.128   0.045
    1UNL     C9   11  -0.052   0.026   0.045
    1UNL    C10   12  -0.007   0.010   0.193
    1UNL    C11   13   0.145  -0.026   0.175
    1UNL    C12   14   0.233   0.090   0.110
    1UNL    C13   15   0.168   0.226   0.113
    1UNL     O3   16   0.064   0.252   0.026
    1UNL    C14   17  -0.051   0.171   0.011
    1UNL     N1   18  -0.166   0.208  -0.037
    1UNL    C15   19   0.268   0.055  -0.041
    1UNL    C16   20   0.134   0.031  -0.125
    1UNL    C17   21   0.046  -0.067  -0.038
    1UNL     N2   22   0.137  -0.129   0.068
    1UNL    C18   23   0.271  -0.186   0.022
    1UNL    C19   24   0.339  -0.076  -0.040
    1UNL    C20   25   0.462  -0.106  -0.089
    1UNL    C21   26   0.547   0.000  -0.154
    1UNL     O4   27   0.582   0.106  -0.072
    1UNL     H1   28  -0.448  -0.266   0.203
    1UNL     H2   29  -0.557  -0.385   0.125
    1UNL     H3   30  -0.380  -0.401   0.097
    1UNL     H4   31  -0.546  -0.037  -0.117
    1UNL     H5   32  -0.306   0.369  -0.190
    1UNL     H6   33  -0.466   0.402  -0.183
    1UNL     H7   34  -0.392   0.371  -0.029
    1UNL     H8   35  -0.220  -0.215   0.099
    1UNL     H9   36  -0.015   0.103   0.247
    1UNL    H10   37  -0.069  -0.055   0.244
    1UNL    H11   38   0.198  -0.063   0.265
    1UNL    H12   39   0.328   0.100   0.163
    1UNL    H13   40   0.247   0.286   0.071
    1UNL    H14   41   0.134   0.266   0.205
    1UNL    H15   42   0.322   0.133  -0.089
    1UNL    H16   43   0.154  -0.025  -0.215
    1UNL    H17   44   0.088   0.127  -0.149
    1UNL    H18   45   0.011  -0.149  -0.095
    1UNL    H19   46   0.321  -0.218   0.115
    1UNL    H20   47   0.246  -0.263  -0.044
    1UNL    H21   48   0.503  -0.205  -0.085
    1UNL    H22   49   0.487   0.032  -0.238
    1UNL    H23   50   0.642  -0.041  -0.188
    1UNL    H24   51   0.632   0.076  -0.000
   0.00000   0.00000   0.00000   0.00000   0.00000   0.00000   0.00000   0.00000   0.00000
Generated with MDTraj, t= 58.0
 51
    1UNL     C1    1  -0.444  -0.331   0.112
    1UNL     O1    2  -0.449  -0.265  -0.016
    1UNL     C2    3  -0.389  -0.135  -0.011
    1UNL     C3    4  -0.457  -0.020  -0.045
    1UNL     C4    5  -0.400   0.104  -0.067
    1UNL     O2    6  -0.473   0.216  -0.113
    1UNL     C5    7  -0.398   0.324  -0.161
    1UNL     C6    8  -0.259   0.109  -0.025
    1UNL     C7    9  -0.194  -0.009   0.003
    1UNL     C8   10  -0.256  -0.129   0.014
    1UNL     C9   11  -0.051   0.030   0.038
    1UNL    C10   12  -0.014   0.020   0.187
    1UNL    C11   13   0.129  -0.024   0.169
    1UNL    C12   14   0.227   0.089   0.120
    1UNL    C13   15   0.159   0.231   0.116
    1UNL     O3   16   0.058   0.256   0.008
    1UNL    C14   17  -0.052   0.173   0.004
    1UNL     N1   18  -0.162   0.216  -0.039
    1UNL    C15   19   0.279   0.055  -0.025
    1UNL    C16   20   0.152   0.045  -0.111
    1UNL    C17   21   0.050  -0.052  -0.040
    1UNL     N2   22   0.124  -0.130   0.065
    1UNL    C18   23   0.251  -0.188   0.016
    1UNL    C19   24   0.340  -0.077  -0.026
    1UNL    C20   25   0.458  -0.112  -0.082
    1UNL    C21   26   0.552  -0.020  -0.160
    1UNL     O4   27   0.592   0.089  -0.072
    1UNL     H1   28  -0.474  -0.265   0.196
    1UNL     H2   29  -0.509  -0.415   0.102
    1UNL     H3   30  -0.341  -0.365   0.122
    1UNL     H4   31  -0.563  -0.037  -0.055
    1UNL     H5   32  -0.317   0.305  -0.230
    1UNL     H6   33  -0.461   0.394  -0.215
    1UNL     H7   34  -0.363   0.378  -0.073
    1UNL     H8   35  -0.209  -0.217   0.029
    1UNL     H9   36  -0.020   0.114   0.232
    1UNL    H10   37  -0.076  -0.046   0.245
    1UNL    H11   38   0.172  -0.071   0.259
    1UNL    H12   39   0.310   0.085   0.189
    1UNL    H13   40   0.226   0.314   0.097
    1UNL    H14   41   0.113   0.247   0.210
    1UNL    H15   42   0.349   0.122  -0.070
    1UNL    H16   43   0.172   0.006  -0.210
    1UNL    H17   44   0.111   0.145  -0.121
    1UNL    H18   45   0.003  -0.116  -0.106
    1UNL    H19   46   0.289  -0.244   0.105
    1UNL    H20   47   0.230  -0.247  -0.066
    1UNL    H21   48   0.479  -0.220  -0.079
    1UNL    H22   49   0.516   0.031  -0.251
    1UNL    H23   50   0.638  -0.084  -0.194
    1UNL    H24   51   0.642   0.059   0.005
   0.00000   0.00000   0.00000   0.00000   0.00000   0.00000   0.00000   0.00000   0.00000
Generated with MDTraj, t= 59.0
 51
    1UNL     C1    1  -0.417  -0.344   0.090
    1UNL     O1    2  -0.473  -0.246   0.005
    1UNL     C2    3  -0.399  -0.129  -0.008
    1UNL     C3    4  -0.464  -0.015  -0.047
    1UNL     C4    5  -0.395   0.109  -0.067
    1UNL     O2    6  -0.476   0.220  -0.106
    1UNL     C5    7  -0.409   0.325  -0.157
    1UNL     C6    8  -0.261   0.110  -0.035
    1UNL     C7    9  -0.196  -0.010   0.006
    1UNL     C8   10  -0.261  -0.131   0.014
    1UNL     C9   11  -0.052   0.033   0.035
    1UNL    C10   12  -0.006   0.020   0.184
    1UNL    C11   13   0.142  -0.024   0.170
    1UNL    C12   14   0.234   0.088   0.107
    1UNL    C13   15   0.175   0.230   0.099
    1UNL     O3   16   0.060   0.259   0.007
    1UNL    C14   17  -0.048   0.176   0.002
    1UNL     N1   18  -0.171   0.216  -0.038
    1UNL    C15   19   0.271   0.050  -0.040
    1UNL    C16   20   0.150   0.024  -0.122
    1UNL    C17   21   0.048  -0.061  -0.046
    1UNL     N2   22   0.128  -0.137   0.064
    1UNL    C18   23   0.256  -0.204   0.023
    1UNL    C19   24   0.340  -0.089  -0.032
    1UNL    C20   25   0.465  -0.111  -0.079
    1UNL    C21   26   0.547  -0.006  -0.135
    1UNL     O4   27   0.582   0.100  -0.047
    1UNL     H1   28  -0.368  -0.296   0.177
    1UNL     H2   29  -0.481  -0.428   0.113
    1UNL     H3   30  -0.337  -0.376   0.027
    1UNL     H4   31  -0.571  -0.003  -0.043
    1UNL     H5   32  -0.330   0.303  -0.225
    1UNL     H6   33  -0.481   0.386  -0.212
    1UNL     H7   34  -0.379   0.392  -0.074
    1UNL     H8   35  -0.202  -0.214   0.047
    1UNL     H9   36  -0.019   0.116   0.223
    1UNL    H10   37  -0.062  -0.050   0.247
    1UNL    H11   38   0.181  -0.063   0.264
    1UNL    H12   39   0.321   0.092   0.169
    1UNL    H13   40   0.256   0.297   0.064
    1UNL    H14   41   0.140   0.267   0.193
    1UNL    H15   42   0.335   0.125  -0.081
    1UNL    H16   43   0.182  -0.027  -0.211
    1UNL    H17   44   0.103   0.118  -0.154
    1UNL    H18   45  -0.014  -0.115  -0.107
    1UNL    H19   46   0.312  -0.239   0.114
    1UNL    H20   47   0.237  -0.282  -0.043
    1UNL    H21   48   0.505  -0.207  -0.056
    1UNL    H22   49   0.501   0.033  -0.228
    1UNL    H23   50   0.649  -0.034  -0.176
    1UNL    H24   51   0.664   0.067   0.007
   0.00000   0.00000   0.00000   0.00000   0.00000   0.00000   0.00000   0.00000   0.00000
Generated with MDTraj, t= 60.0
 51
    1UNL     C1    1  -0.439  -0.362   0.037
    1UNL     O1    2  -0.493  -0.234   0.046
    1UNL     C2    3  -0.408  -0.125   0.028
    1UNL     C3    4  -0.454  -0.014  -0.044
    1UNL     C4    5  -0.386   0.101  -0.074
    1UNL     O2    6  -0.453   0.213  -0.121
    1UNL     C5    7  -0.384   0.336  -0.126
    1UNL     C6    8  -0.253   0.099  -0.032
    1UNL     C7    9  -0.196  -0.012   0.023
    1UNL     C8   10  -0.272  -0.121   0.063
    1UNL     C9   11  -0.050   0.026   0.038
    1UNL    C10   12  -0.002   0.015   0.185
    1UNL    C11   13   0.146  -0.026   0.150
    1UNL    C12   14   0.231   0.090   0.089
    1UNL    C13   15   0.164   0.227   0.079
    1UNL     O3   16   0.063   0.255  -0.018
    1UNL    C14   17  -0.049   0.170  -0.015
    1UNL     N1   18  -0.163   0.207  -0.051
    1UNL    C15   19   0.267   0.045  -0.055
    1UNL    C16   20   0.136   0.020  -0.145
    1UNL    C17   21   0.042  -0.064  -0.050
    1UNL     N2   22   0.128  -0.137   0.060
    1UNL    C18   23   0.257  -0.193   0.017
    1UNL    C19   24   0.345  -0.086  -0.035
    1UNL    C20   25   0.473  -0.105  -0.073
    1UNL    C21   26   0.568   0.006  -0.103
    1UNL     O4   27   0.557   0.121  -0.028
    1UNL     H1   28  -0.352  -0.373   0.107
    1UNL     H2   29  -0.509  -0.444   0.052
    1UNL     H3   30  -0.395  -0.370  -0.058
    1UNL     H4   31  -0.559  -0.030  -0.064
    1UNL     H5   32  -0.302   0.314  -0.190
    1UNL     H6   33  -0.441   0.425  -0.159
    1UNL     H7   34  -0.337   0.364  -0.029
    1UNL     H8   35  -0.236  -0.207   0.132
    1UNL     H9   36  -0.019   0.105   0.244
    1UNL    H10   37  -0.055  -0.066   0.232
    1UNL    H11   38   0.202  -0.072   0.233
    1UNL    H12   39   0.316   0.106   0.153
    1UNL    H13   40   0.241   0.304   0.050
    1UNL    H14   41   0.123   0.257   0.175
    1UNL    H15   42   0.325   0.124  -0.093
    1UNL    H16   43   0.163  -0.037  -0.233
    1UNL    H17   44   0.092   0.112  -0.186
    1UNL    H18   45  -0.012  -0.133  -0.100
    1UNL    H19   46   0.306  -0.241   0.104
    1UNL    H20   47   0.244  -0.264  -0.060
    1UNL    H21   48   0.504  -0.209  -0.074
    1UNL    H22   49   0.554   0.051  -0.205
    1UNL    H23   50   0.675  -0.032  -0.106
    1UNL    H24   51   0.587   0.103   0.071
   0.00000   0.00000   0.00000   0.00000   0.00000   0.00000   0.00000   0.00000   0.00000
Generated with MDTraj, t= 61.0
 51
    1UNL     C1    1  -0.456  -0.353   0.005
    1UNL     O1    2  -0.487  -0.227   0.064
    1UNL     C2    3  -0.401  -0.118   0.040
    1UNL     C3    4  -0.461  -0.004  -0.016
    1UNL     C4    5  -0.388   0.102  -0.065
    1UNL     O2    6  -0.462   0.208  -0.123
    1UNL     C5    7  -0.410   0.341  -0.126
    1UNL     C6    8  -0.249   0.105  -0.041
    1UNL     C7    9  -0.189  -0.007   0.022
    1UNL     C8   10  -0.264  -0.117   0.062
    1UNL     C9   11  -0.045   0.018   0.035
    1UNL    C10   12   0.001   0.014   0.181
    1UNL    C11   13   0.145  -0.030   0.160
    1UNL    C12   14   0.227   0.087   0.080
    1UNL    C13   15   0.168   0.232   0.068
    1UNL     O3   16   0.071   0.249  -0.027
    1UNL    C14   17  -0.038   0.166  -0.012
    1UNL     N1   18  -0.155   0.204  -0.063
    1UNL    C15   19   0.273   0.035  -0.065
    1UNL    C16   20   0.141  -0.002  -0.140
    1UNL    C17   21   0.044  -0.080  -0.049
    1UNL     N2   22   0.130  -0.144   0.059
    1UNL    C18   23   0.260  -0.204   0.012
    1UNL    C19   24   0.347  -0.093  -0.055
    1UNL    C20   25   0.484  -0.101  -0.066
    1UNL    C21   26   0.569   0.026  -0.091
    1UNL     O4   27   0.536   0.139  -0.006
    1UNL     H1   28  -0.460  -0.429   0.089
    1UNL     H2   29  -0.516  -0.385  -0.081
    1UNL     H3   30  -0.354  -0.356  -0.017
    1UNL     H4   31  -0.569  -0.001  -0.018
    1UNL     H5   32  -0.354   0.336  -0.215
    1UNL     H6   33  -0.489   0.420  -0.120
    1UNL     H7   34  -0.332   0.372  -0.051
    1UNL     H8   35  -0.223  -0.191   0.118
    1UNL     H9   36  -0.006   0.106   0.246
    1UNL    H10   37  -0.059  -0.062   0.226
    1UNL    H11   38   0.199  -0.070   0.246
    1UNL    H12   39   0.322   0.097   0.127
    1UNL    H13   40   0.247   0.308   0.039
    1UNL    H14   41   0.121   0.265   0.162
    1UNL    H15   42   0.333   0.097  -0.128
    1UNL    H16   43   0.170  -0.073  -0.217
    1UNL    H17   44   0.094   0.080  -0.196
    1UNL    H18   45  -0.011  -0.144  -0.106
    1UNL    H19   46   0.316  -0.237   0.098
    1UNL    H20   47   0.250  -0.294  -0.048
    1UNL    H21   48   0.529  -0.191  -0.026
    1UNL    H22   49   0.558   0.046  -0.198
    1UNL    H23   50   0.675  -0.003  -0.075
    1UNL    H24   51   0.558   0.132   0.089
   0.00000   0.00000   0.00000   0.00000   0.00000   0.00000   0.00000   0.00000   0.00000
Generated with MDTraj, t= 62.0
 51
    1UNL     C1    1  -0.455  -0.359  -0.002
    1UNL     O1    2  -0.489  -0.238   0.072
    1UNL     C2    3  -0.407  -0.124   0.035
    1UNL     C3    4  -0.472  -0.007  -0.003
    1UNL     C4    5  -0.398   0.108  -0.048
    1UNL     O2    6  -0.463   0.222  -0.090
    1UNL     C5    7  -0.385   0.329  -0.137
    1UNL     C6    8  -0.257   0.104  -0.040
    1UNL     C7    9  -0.193  -0.017   0.001
    1UNL     C8   10  -0.262  -0.129   0.039
    1UNL     C9   11  -0.049   0.024   0.027
    1UNL    C10   12  -0.002   0.018   0.172
    1UNL    C11   13   0.145  -0.020   0.152
    1UNL    C12   14   0.231   0.091   0.081
    1UNL    C13   15   0.169   0.232   0.061
    1UNL     O3   16   0.059   0.253  -0.035
    1UNL    C14   17  -0.051   0.170  -0.025
    1UNL     N1   18  -0.171   0.205  -0.060
    1UNL    C15   19   0.278   0.032  -0.059
    1UNL    C16   20   0.148   0.010  -0.141
    1UNL    C17   21   0.056  -0.067  -0.047
    1UNL     N2   22   0.135  -0.134   0.066
    1UNL    C18   23   0.258  -0.198   0.014
    1UNL    C19   24   0.352  -0.094  -0.027
    1UNL    C20   25   0.483  -0.104  -0.055
    1UNL    C21   26   0.569   0.012  -0.090
    1UNL     O4   27   0.556   0.129  -0.009
    1UNL     H1   28  -0.538  -0.437   0.001
    1UNL     H2   29  -0.421  -0.338  -0.104
    1UNL     H3   30  -0.378  -0.413   0.047
    1UNL     H4   31  -0.577   0.010   0.008
    1UNL     H5   32  -0.309   0.286  -0.196
    1UNL     H6   33  -0.458   0.392  -0.196
    1UNL     H7   34  -0.340   0.395  -0.058
    1UNL     H8   35  -0.210  -0.211   0.085
    1UNL     H9   36  -0.014   0.118   0.223
    1UNL    H10   37  -0.056  -0.059   0.229
    1UNL    H11   38   0.179  -0.051   0.251
    1UNL    H12   39   0.318   0.102   0.141
    1UNL    H13   40   0.253   0.291   0.014
    1UNL    H14   41   0.143   0.285   0.155
    1UNL    H15   42   0.330   0.109  -0.111
    1UNL    H16   43   0.160  -0.040  -0.237
    1UNL    H17   44   0.103   0.106  -0.168
    1UNL    H18   45   0.007  -0.139  -0.103
    1UNL    H19   46   0.309  -0.265   0.078
    1UNL    H20   47   0.231  -0.259  -0.074
    1UNL    H21   48   0.529  -0.201  -0.057
    1UNL    H22   49   0.537   0.031  -0.192
    1UNL    H23   50   0.669  -0.032  -0.096
    1UNL    H24   51   0.597   0.116   0.073
   0.00000   0.00000   0.00000   0.00000   0.00000   0.00000   0.00000   0.00000   0.00000
Generated with MDTraj, t= 63.0
 51
    1UNL     C1    1  -0.414  -0.363   0.025
    1UNL     O1    2  -0.491  -0.243   0.038
    1UNL     C2    3  -0.416  -0.126   0.020
    1UNL     C3    4  -0.472  -0.005  -0.018
    1UNL     C4    5  -0.410   0.113  -0.050
    1UNL     O2    6  -0.483   0.232  -0.066
    1UNL     C5    7  -0.413   0.325  -0.152
    1UNL     C6    8  -0.265   0.105  -0.035
    1UNL     C7    9  -0.203  -0.011   0.004
    1UNL     C8   10  -0.276  -0.123   0.035
    1UNL     C9   11  -0.056   0.028   0.028
    1UNL    C10   12  -0.005   0.020   0.173
    1UNL    C11   13   0.146  -0.015   0.161
    1UNL    C12   14   0.227   0.101   0.090
    1UNL    C13   15   0.163   0.237   0.062
    1UNL     O3   16   0.062   0.245  -0.039
    1UNL    C14   17  -0.058   0.171  -0.026
    1UNL     N1   18  -0.174   0.213  -0.053
    1UNL    C15   19   0.283   0.044  -0.043
    1UNL    C16   20   0.156   0.013  -0.125
    1UNL    C17   21   0.047  -0.067  -0.044
    1UNL     N2   22   0.134  -0.133   0.067
    1UNL    C18   23   0.262  -0.199   0.020
    1UNL    C19   24   0.360  -0.089  -0.038
    1UNL    C20   25   0.491  -0.108  -0.057
    1UNL    C21   26   0.580  -0.008  -0.107
    1UNL     O4   27   0.594   0.106  -0.024
    1UNL     H1   28  -0.502  -0.433   0.003
    1UNL     H2   29  -0.342  -0.359  -0.060
    1UNL     H3   30  -0.367  -0.409   0.108
    1UNL     H4   31  -0.579   0.001  -0.019
    1UNL     H5   32  -0.398   0.286  -0.249
    1UNL     H6   33  -0.467   0.424  -0.143
    1UNL     H7   34  -0.312   0.339  -0.103
    1UNL     H8   35  -0.219  -0.218   0.073
    1UNL     H9   36  -0.026   0.117   0.222
    1UNL    H10   37  -0.060  -0.060   0.235
    1UNL    H11   38   0.185  -0.060   0.253
    1UNL    H12   39   0.310   0.118   0.156
    1UNL    H13   40   0.243   0.306   0.021
    1UNL    H14   41   0.127   0.283   0.157
    1UNL    H15   42   0.346   0.121  -0.082
    1UNL    H16   43   0.190  -0.033  -0.219
    1UNL    H17   44   0.109   0.106  -0.156
    1UNL    H18   45  -0.008  -0.139  -0.100
    1UNL    H19   46   0.305  -0.244   0.104
    1UNL    H20   47   0.249  -0.288  -0.048
    1UNL    H21   48   0.525  -0.204  -0.017
    1UNL    H22   49   0.552   0.028  -0.205
    1UNL    H23   50   0.677  -0.053  -0.126
    1UNL    H24   51   0.635   0.086   0.062
   0.00000   0.00000   0.00000   0.00000   0.00000   0.00000   0.00000   0.00000   0.00000
Generated with MDTraj, t= 64.0
 51
    1UNL     C1    1  -0.402  -0.361   0.072
    1UNL     O1    2  -0.462  -0.251   0.000
    1UNL     C2    3  -0.389  -0.131   0.001
    1UNL     C3    4  -0.464  -0.013  -0.034
    1UNL     C4    5  -0.396   0.107  -0.057
    1UNL     O2    6  -0.485   0.212  -0.083
    1UNL     C5    7  -0.413   0.321  -0.137
    1UNL     C6    8  -0.257   0.121  -0.038
    1UNL     C7    9  -0.190   0.002   0.002
    1UNL     C8   10  -0.251  -0.123   0.018
    1UNL     C9   11  -0.054   0.039   0.032
    1UNL    C10   12  -0.014   0.030   0.183
    1UNL    C11   13   0.133  -0.018   0.165
    1UNL    C12   14   0.221   0.090   0.088
    1UNL    C13   15   0.164   0.229   0.079
    1UNL     O3   16   0.071   0.260  -0.019
    1UNL    C14   17  -0.044   0.184  -0.009
    1UNL     N1   18  -0.165   0.225  -0.048
    1UNL    C15   19   0.258   0.044  -0.052
    1UNL    C16   20   0.136   0.021  -0.136
    1UNL    C17   21   0.047  -0.063  -0.041
    1UNL     N2   22   0.123  -0.132   0.073
    1UNL    C18   23   0.254  -0.189   0.039
    1UNL    C19   24   0.338  -0.088  -0.028
    1UNL    C20   25   0.464  -0.112  -0.068
    1UNL    C21   26   0.555  -0.016  -0.128
    1UNL     O4   27   0.593   0.085  -0.033
    1UNL     H1   28  -0.486  -0.436   0.068
    1UNL     H2   29  -0.311  -0.399   0.018
    1UNL     H3   30  -0.375  -0.352   0.173
    1UNL     H4   31  -0.571  -0.025  -0.026
    1UNL     H5   32  -0.358   0.307  -0.227
    1UNL     H6   33  -0.502   0.390  -0.148
    1UNL     H7   34  -0.353   0.359  -0.049
    1UNL     H8   35  -0.188  -0.201   0.040
    1UNL     H9   36  -0.026   0.127   0.235
    1UNL    H10   37  -0.074  -0.048   0.247
    1UNL    H11   38   0.187  -0.043   0.257
    1UNL    H12   39   0.318   0.092   0.137
    1UNL    H13   40   0.244   0.304   0.055
    1UNL    H14   41   0.126   0.259   0.180
    1UNL    H15   42   0.324   0.115  -0.098
    1UNL    H16   43   0.164  -0.047  -0.219
    1UNL    H17   44   0.093   0.116  -0.170
    1UNL    H18   45  -0.011  -0.144  -0.089
    1UNL    H19   46   0.304  -0.230   0.120
    1UNL    H20   47   0.234  -0.277  -0.028
    1UNL    H21   48   0.498  -0.211  -0.046
    1UNL    H22   49   0.501   0.031  -0.209
    1UNL    H23   50   0.646  -0.047  -0.176
    1UNL    H24   51   0.635   0.048   0.055
   0.00000   0.00000   0.00000   0.00000   0.00000   0.00000   0.00000   0.00000   0.00000
Generated with MDTraj, t= 65.0
 51
    1UNL     C1    1  -0.414  -0.348   0.090
    1UNL     O1    2  -0.468  -0.255  -0.000
    1UNL     C2    3  -0.389  -0.139  -0.008
    1UNL     C3    4  -0.450  -0.030  -0.069
    1UNL     C4    5  -0.391   0.094  -0.081
    1UNL     O2    6  -0.464   0.198  -0.139
    1UNL     C5    7  -0.398   0.326  -0.115
    1UNL     C6    8  -0.260   0.108  -0.028
    1UNL     C7    9  -0.197  -0.001   0.023
    1UNL     C8   10  -0.258  -0.121   0.045
    1UNL     C9   11  -0.057   0.039   0.050
    1UNL    C10   12   0.002   0.023   0.193
    1UNL    C11   13   0.143  -0.015   0.167
    1UNL    C12   14   0.235   0.100   0.105
    1UNL    C13   15   0.162   0.239   0.096
    1UNL     O3   16   0.063   0.261  -0.006
    1UNL    C14   17  -0.055   0.183   0.002
    1UNL     N1   18  -0.169   0.220  -0.037
    1UNL    C15   19   0.277   0.056  -0.043
    1UNL    C16   20   0.138   0.040  -0.126
    1UNL    C17   21   0.039  -0.045  -0.038
    1UNL     N2   22   0.123  -0.118   0.060
    1UNL    C18   23   0.249  -0.187   0.021
    1UNL    C19   24   0.335  -0.087  -0.041
    1UNL    C20   25   0.455  -0.122  -0.079
    1UNL    C21   26   0.554  -0.029  -0.139
    1UNL     O4   27   0.571   0.083  -0.056
    1UNL     H1   28  -0.506  -0.406   0.115
    1UNL     H2   29  -0.333  -0.409   0.040
    1UNL     H3   30  -0.370  -0.315   0.178
    1UNL     H4   31  -0.554  -0.034  -0.094
    1UNL     H5   32  -0.324   0.348  -0.186
    1UNL     H6   33  -0.476   0.409  -0.122
    1UNL     H7   34  -0.359   0.317  -0.011
    1UNL     H8   35  -0.210  -0.198   0.099
    1UNL     H9   36  -0.006   0.112   0.264
    1UNL    H10   37  -0.057  -0.067   0.238
    1UNL    H11   38   0.191  -0.056   0.258
    1UNL    H12   39   0.319   0.106   0.175
    1UNL    H13   40   0.242   0.312   0.072
    1UNL    H14   41   0.117   0.277   0.190
    1UNL    H15   42   0.336   0.131  -0.093
    1UNL    H16   43   0.163  -0.032  -0.207
    1UNL    H17   44   0.103   0.136  -0.166
    1UNL    H18   45  -0.018  -0.121  -0.099
    1UNL    H19   46   0.286  -0.227   0.109
    1UNL    H20   47   0.227  -0.273  -0.046
    1UNL    H21   48   0.477  -0.227  -0.056
    1UNL    H22   49   0.519   0.011  -0.234
    1UNL    H23   50   0.645  -0.088  -0.158
    1UNL    H24   51   0.604   0.041   0.034
   0.00000   0.00000   0.00000   0.00000   0.00000   0.00000   0.00000   0.00000   0.00000
Generated with MDTraj, t= 66.0
 51
    1UNL     C1    1  -0.419  -0.335   0.091
    1UNL     O1    2  -0.482  -0.236   0.013
    1UNL     C2    3  -0.406  -0.118   0.002
    1UNL     C3    4  -0.458  -0.013  -0.073
    1UNL     C4    5  -0.378   0.101  -0.105
    1UNL     O2    6  -0.437   0.196  -0.184
    1UNL     C5    7  -0.443   0.325  -0.122
    1UNL     C6    8  -0.247   0.104  -0.043
    1UNL     C7    9  -0.201  -0.001   0.037
    1UNL     C8   10  -0.277  -0.113   0.058
    1UNL     C9   11  -0.054   0.028   0.060
    1UNL    C10   12   0.004   0.010   0.199
    1UNL    C11   13   0.154  -0.028   0.173
    1UNL    C12   14   0.240   0.086   0.098
    1UNL    C13   15   0.176   0.224   0.107
    1UNL     O3   16   0.065   0.260   0.030
    1UNL    C14   17  -0.041   0.171   0.013
    1UNL     N1   18  -0.156   0.204  -0.044
    1UNL    C15   19   0.269   0.041  -0.051
    1UNL    C16   20   0.136   0.020  -0.118
    1UNL    C17   21   0.045  -0.058  -0.027
    1UNL     N2   22   0.130  -0.140   0.068
    1UNL    C18   23   0.261  -0.197   0.019
    1UNL    C19   24   0.342  -0.086  -0.035
    1UNL    C20   25   0.467  -0.109  -0.076
    1UNL    C21   26   0.540   0.002  -0.151
    1UNL     O4   27   0.555   0.117  -0.077
    1UNL     H1   28  -0.489  -0.421   0.086
    1UNL     H2   29  -0.316  -0.357   0.053
    1UNL     H3   30  -0.409  -0.310   0.191
    1UNL     H4   31  -0.562  -0.002  -0.098
    1UNL     H5   32  -0.393   0.382  -0.198
    1UNL     H6   33  -0.540   0.382  -0.124
    1UNL     H7   34  -0.385   0.316  -0.027
    1UNL     H8   35  -0.243  -0.202   0.122
    1UNL     H9   36  -0.002   0.114   0.255
    1UNL    H10   37  -0.060  -0.069   0.250
    1UNL    H11   38   0.211  -0.065   0.260
    1UNL    H12   39   0.335   0.086   0.155
    1UNL    H13   40   0.253   0.297   0.086
    1UNL    H14   41   0.139   0.245   0.209
    1UNL    H15   42   0.332   0.108  -0.109
    1UNL    H16   43   0.155  -0.027  -0.217
    1UNL    H17   44   0.097   0.120  -0.141
    1UNL    H18   45  -0.010  -0.129  -0.098
    1UNL    H19   46   0.301  -0.255   0.099
    1UNL    H20   47   0.237  -0.271  -0.059
    1UNL    H21   48   0.510  -0.204  -0.059
    1UNL    H22   49   0.480   0.017  -0.243
    1UNL    H23   50   0.644  -0.029  -0.176
    1UNL    H24   51   0.610   0.107   0.001
   0.00000   0.00000   0.00000   0.00000   0.00000   0.00000   0.00000   0.00000   0.00000
Generated with MDTraj, t= 67.0
 51
    1UNL     C1    1  -0.448  -0.348   0.085
    1UNL     O1    2  -0.496  -0.220   0.048
    1UNL     C2    3  -0.402  -0.125   0.012
    1UNL     C3    4  -0.453  -0.016  -0.071
    1UNL     C4    5  -0.374   0.093  -0.103
    1UNL     O2    6  -0.427   0.201  -0.169
    1UNL     C5    7  -0.380   0.330  -0.126
    1UNL     C6    8  -0.242   0.101  -0.050
    1UNL     C7    9  -0.188  -0.012   0.013
    1UNL     C8   10  -0.266  -0.120   0.040
    1UNL     C9   11  -0.052   0.022   0.054
    1UNL    C10   12  -0.004   0.011   0.200
    1UNL    C11   13   0.144  -0.035   0.179
    1UNL    C12   14   0.226   0.084   0.121
    1UNL    C13   15   0.163   0.228   0.115
    1UNL     O3   16   0.071   0.246   0.010
    1UNL    C14   17  -0.037   0.166   0.004
    1UNL     N1   18  -0.146   0.200  -0.057
    1UNL    C15   19   0.262   0.050  -0.032
    1UNL    C16   20   0.141   0.017  -0.120
    1UNL    C17   21   0.048  -0.069  -0.028
    1UNL     N2   22   0.132  -0.141   0.076
    1UNL    C18   23   0.261  -0.196   0.023
    1UNL    C19   24   0.339  -0.087  -0.034
    1UNL    C20   25   0.459  -0.097  -0.095
    1UNL    C21   26   0.528   0.023  -0.161
    1UNL     O4   27   0.530   0.139  -0.081
    1UNL     H1   28  -0.535  -0.412   0.105
    1UNL     H2   29  -0.373  -0.388   0.013
    1UNL     H3   30  -0.394  -0.331   0.172
    1UNL     H4   31  -0.552  -0.018  -0.113
    1UNL     H5   32  -0.308   0.355  -0.200
    1UNL     H6   33  -0.466   0.402  -0.123
    1UNL     H7   34  -0.326   0.314  -0.031
    1UNL     H8   35  -0.219  -0.199   0.088
    1UNL     H9   36  -0.018   0.114   0.250
    1UNL    H10   37  -0.056  -0.069   0.262
    1UNL    H11   38   0.196  -0.069   0.271
    1UNL    H12   39   0.318   0.088   0.185
    1UNL    H13   40   0.237   0.304   0.106
    1UNL    H14   41   0.106   0.248   0.206
    1UNL    H15   42   0.325   0.131  -0.072
    1UNL    H16   43   0.170  -0.031  -0.217
    1UNL    H17   44   0.099   0.113  -0.155
    1UNL    H18   45  -0.029  -0.144  -0.073
    1UNL    H19   46   0.316  -0.256   0.095
    1UNL    H20   47   0.229  -0.267  -0.052
    1UNL    H21   48   0.508  -0.194  -0.101
    1UNL    H22   49   0.482   0.063  -0.255
    1UNL    H23   50   0.634  -0.007  -0.181
    1UNL    H24   51   0.551   0.119   0.008
   0.00000   0.00000   0.00000   0.00000   0.00000   0.00000   0.00000   0.00000   0.00000
Generated with MDTraj, t= 68.0
 51
    1UNL     C1    1  -0.451  -0.347   0.089
    1UNL     O1    2  -0.499  -0.237   0.015
    1UNL     C2    3  -0.415  -0.123   0.014
    1UNL     C3    4  -0.469  -0.001  -0.037
    1UNL     C4    5  -0.395   0.111  -0.066
    1UNL     O2    6  -0.448   0.231  -0.119
    1UNL     C5    7  -0.357   0.314  -0.194
    1UNL     C6    8  -0.255   0.099  -0.039
    1UNL     C7    9  -0.200  -0.019   0.016
    1UNL     C8   10  -0.278  -0.132   0.041
    1UNL     C9   11  -0.052   0.016   0.034
    1UNL    C10   12  -0.010  -0.001   0.180
    1UNL    C11   13   0.141  -0.034   0.173
    1UNL    C12   14   0.227   0.083   0.111
    1UNL    C13   15   0.156   0.222   0.118
    1UNL     O3   16   0.057   0.254   0.014
    1UNL    C14   17  -0.052   0.171   0.001
    1UNL     N1   18  -0.163   0.203  -0.044
    1UNL    C15   19   0.268   0.051  -0.038
    1UNL    C16   20   0.146   0.012  -0.119
    1UNL    C17   21   0.055  -0.078  -0.038
    1UNL     N2   22   0.139  -0.149   0.071
    1UNL    C18   23   0.277  -0.192   0.032
    1UNL    C19   24   0.357  -0.072  -0.029
    1UNL    C20   25   0.479  -0.092  -0.081
    1UNL    C21   26   0.558   0.015  -0.152
    1UNL     O4   27   0.567   0.144  -0.093
    1UNL     H1   28  -0.528  -0.423   0.088
    1UNL     H2   29  -0.354  -0.387   0.055
    1UNL     H3   30  -0.440  -0.311   0.189
    1UNL     H4   31  -0.577  -0.001  -0.044
    1UNL     H5   32  -0.284   0.255  -0.245
    1UNL     H6   33  -0.425   0.378  -0.256
    1UNL     H7   34  -0.310   0.375  -0.113
    1UNL     H8   35  -0.252  -0.222   0.082
    1UNL     H9   36  -0.048   0.085   0.237
    1UNL    H10   37  -0.061  -0.095   0.227
    1UNL    H11   38   0.184  -0.083   0.263
    1UNL    H12   39   0.322   0.087   0.172
    1UNL    H13   40   0.234   0.291   0.097
    1UNL    H14   41   0.113   0.251   0.214
    1UNL    H15   42   0.318   0.141  -0.081
    1UNL    H16   43   0.184  -0.046  -0.206
    1UNL    H17   44   0.092   0.100  -0.162
    1UNL    H18   45  -0.013  -0.163  -0.085
    1UNL    H19   46   0.316  -0.238   0.126
    1UNL    H20   47   0.279  -0.276  -0.032
    1UNL    H21   48   0.513  -0.192  -0.062
    1UNL    H22   49   0.515   0.031  -0.253
    1UNL    H23   50   0.668   0.001  -0.170
    1UNL    H24   51   0.546   0.125   0.003
   0.00000   0.00000   0.00000   0.00000   0.00000   0.00000   0.00000   0.00000   0.00000
Generated with MDTraj, t= 69.0
 51
    1UNL     C1    1  -0.447  -0.351   0.094
    1UNL     O1    2  -0.492  -0.238   0.013
    1UNL     C2    3  -0.408  -0.128  -0.001
    1UNL     C3    4  -0.467  -0.009  -0.039
    1UNL     C4    5  -0.395   0.112  -0.058
    1UNL     O2    6  -0.457   0.233  -0.095
    1UNL     C5    7  -0.407   0.281  -0.222
    1UNL     C6    8  -0.257   0.110  -0.026
    1UNL     C7    9  -0.196  -0.010   0.015
    1UNL     C8   10  -0.271  -0.127   0.034
    1UNL     C9   11  -0.047   0.023   0.035
    1UNL    C10   12   0.004   0.015   0.182
    1UNL    C11   13   0.143  -0.029   0.157
    1UNL    C12   14   0.231   0.088   0.102
    1UNL    C13   15   0.169   0.230   0.101
    1UNL     O3   16   0.055   0.260   0.019
    1UNL    C14   17  -0.049   0.176   0.007
    1UNL     N1   18  -0.173   0.217  -0.025
    1UNL    C15   19   0.283   0.041  -0.041
    1UNL    C16   20   0.156   0.031  -0.130
    1UNL    C17   21   0.055  -0.057  -0.046
    1UNL     N2   22   0.132  -0.137   0.059
    1UNL    C18   23   0.265  -0.202   0.011
    1UNL    C19   24   0.354  -0.095  -0.032
    1UNL    C20   25   0.482  -0.108  -0.070
    1UNL    C21   26   0.558   0.005  -0.132
    1UNL     O4   27   0.562   0.124  -0.057
    1UNL     H1   28  -0.527  -0.405   0.141
    1UNL     H2   29  -0.385  -0.420   0.033
    1UNL     H3   30  -0.380  -0.317   0.172
    1UNL     H4   31  -0.571  -0.005  -0.064
    1UNL     H5   32  -0.421   0.204  -0.298
    1UNL     H6   33  -0.463   0.375  -0.215
    1UNL     H7   34  -0.301   0.304  -0.200
    1UNL     H8   35  -0.227  -0.223   0.084
    1UNL     H9   36  -0.012   0.111   0.231
    1UNL    H10   37  -0.063  -0.059   0.244
    1UNL    H11   38   0.185  -0.070   0.251
    1UNL    H12   39   0.326   0.085   0.166
    1UNL    H13   40   0.239   0.306   0.068
    1UNL    H14   41   0.141   0.263   0.200
    1UNL    H15   42   0.347   0.127  -0.075
    1UNL    H16   43   0.176  -0.031  -0.219
    1UNL    H17   44   0.124   0.135  -0.157
    1UNL    H18   45  -0.000  -0.133  -0.119
    1UNL    H19   46   0.321  -0.267   0.084
    1UNL    H20   47   0.239  -0.270  -0.064
    1UNL    H21   48   0.531  -0.204  -0.068
    1UNL    H22   49   0.506   0.043  -0.223
    1UNL    H23   50   0.659  -0.029  -0.159
    1UNL    H24   51   0.617   0.110   0.032
   0.00000   0.00000   0.00000   0.00000   0.00000   0.00000   0.00000   0.00000   0.00000
Generated with MDTraj, t= 70.0
 51
    1UNL     C1    1  -0.394  -0.348   0.094
    1UNL     O1    2  -0.459  -0.243   0.030
    1UNL     C2    3  -0.395  -0.123   0.015
    1UNL     C3    4  -0.455  -0.015  -0.033
    1UNL     C4    5  -0.398   0.107  -0.060
    1UNL     O2    6  -0.474   0.209  -0.111
    1UNL     C5    7  -0.405   0.303  -0.203
    1UNL     C6    8  -0.259   0.116  -0.034
    1UNL     C7    9  -0.191   0.003   0.015
    1UNL     C8   10  -0.260  -0.113   0.040
    1UNL     C9   11  -0.051   0.038   0.043
    1UNL    C10   12   0.000   0.015   0.184
    1UNL    C11   13   0.146  -0.031   0.162
    1UNL    C12   14   0.226   0.088   0.097
    1UNL    C13   15   0.159   0.227   0.102
    1UNL     O3   16   0.072   0.255  -0.003
    1UNL    C14   17  -0.049   0.180  -0.003
    1UNL     N1   18  -0.164   0.219  -0.045
    1UNL    C15   19   0.269   0.048  -0.050
    1UNL    C16   20   0.137   0.026  -0.133
    1UNL    C17   21   0.038  -0.054  -0.042
    1UNL     N2   22   0.120  -0.130   0.059
    1UNL    C18   23   0.236  -0.198  -0.021
    1UNL    C19   24   0.333  -0.085  -0.057
    1UNL    C20   25   0.462  -0.108  -0.092
    1UNL    C21   26   0.564   0.000  -0.111
    1UNL     O4   27   0.564   0.092   0.001
    1UNL     H1   28  -0.449  -0.441   0.086
    1UNL     H2   29  -0.301  -0.368   0.037
    1UNL     H3   30  -0.368  -0.330   0.200
    1UNL     H4   31  -0.561  -0.032  -0.050
    1UNL     H5   32  -0.394   0.243  -0.294
    1UNL     H6   33  -0.472   0.390  -0.206
    1UNL     H7   34  -0.309   0.333  -0.158
    1UNL     H8   35  -0.210  -0.195   0.082
    1UNL     H9   36   0.000   0.106   0.247
    1UNL    H10   37  -0.062  -0.060   0.235
    1UNL    H11   38   0.199  -0.077   0.249
    1UNL    H12   39   0.330   0.090   0.144
    1UNL    H13   40   0.239   0.300   0.087
    1UNL    H14   41   0.105   0.254   0.194
    1UNL    H15   42   0.334   0.123  -0.105
    1UNL    H16   43   0.170  -0.026  -0.226
    1UNL    H17   44   0.084   0.121  -0.160
    1UNL    H18   45  -0.032  -0.114  -0.118
    1UNL    H19   46   0.282  -0.276   0.045
    1UNL    H20   47   0.204  -0.255  -0.101
    1UNL    H21   48   0.498  -0.211  -0.098
    1UNL    H22   49   0.535   0.051  -0.203
    1UNL    H23   50   0.664  -0.043  -0.113
    1UNL    H24   51   0.586   0.050   0.091
   0.00000   0.00000   0.00000   0.00000   0.00000   0.00000   0.00000   0.00000   0.00000
Generated with MDTraj, t= 71.0
 51
    1UNL     C1    1  -0.404  -0.359   0.076
    1UNL     O1    2  -0.475  -0.243   0.052
    1UNL     C2    3  -0.396  -0.130   0.030
    1UNL     C3    4  -0.461  -0.016  -0.029
    1UNL     C4    5  -0.395   0.096  -0.072
    1UNL     O2    6  -0.463   0.194  -0.151
    1UNL     C5    7  -0.393   0.320  -0.142
    1UNL     C6    8  -0.256   0.112  -0.029
    1UNL     C7    9  -0.195  -0.003   0.029
    1UNL     C8   10  -0.255  -0.128   0.052
    1UNL     C9   11  -0.057   0.040   0.037
    1UNL    C10   12   0.000   0.024   0.173
    1UNL    C11   13   0.149  -0.020   0.141
    1UNL    C12   14   0.233   0.090   0.069
    1UNL    C13   15   0.168   0.233   0.083
    1UNL     O3   16   0.060   0.268  -0.005
    1UNL    C14   17  -0.055   0.184  -0.003
    1UNL     N1   18  -0.171   0.223  -0.038
    1UNL    C15   19   0.261   0.049  -0.076
    1UNL    C16   20   0.124   0.023  -0.151
    1UNL    C17   21   0.036  -0.051  -0.053
    1UNL     N2   22   0.123  -0.124   0.050
    1UNL    C18   23   0.238  -0.188  -0.015
    1UNL    C19   24   0.332  -0.086  -0.064
    1UNL    C20   25   0.465  -0.111  -0.067
    1UNL    C21   26   0.569  -0.009  -0.085
    1UNL     O4   27   0.582   0.085   0.024
    1UNL     H1   28  -0.451  -0.457   0.078
    1UNL     H2   29  -0.333  -0.360  -0.009
    1UNL     H3   30  -0.339  -0.346   0.167
    1UNL     H4   31  -0.567  -0.030  -0.043
    1UNL     H5   32  -0.299   0.298  -0.194
    1UNL     H6   33  -0.462   0.385  -0.201
    1UNL     H7   34  -0.382   0.359  -0.039
    1UNL     H8   35  -0.187  -0.201   0.078
    1UNL     H9   36  -0.000   0.121   0.230
    1UNL    H10   37  -0.055  -0.052   0.223
    1UNL    H11   38   0.197  -0.069   0.229
    1UNL    H12   39   0.331   0.091   0.127
    1UNL    H13   40   0.242   0.312   0.057
    1UNL    H14   41   0.141   0.246   0.189
    1UNL    H15   42   0.308   0.140  -0.126
    1UNL    H16   43   0.142  -0.040  -0.241
    1UNL    H17   44   0.076   0.118  -0.182
    1UNL    H18   45  -0.035  -0.129  -0.109
    1UNL    H19   46   0.293  -0.250   0.058
    1UNL    H20   47   0.210  -0.253  -0.092
    1UNL    H21   48   0.498  -0.212  -0.056
    1UNL    H22   49   0.545   0.055  -0.170
    1UNL    H23   50   0.663  -0.061  -0.096
    1UNL    H24   51   0.623   0.037   0.095
   0.00000   0.00000   0.00000   0.00000   0.00000   0.00000   0.00000   0.00000   0.00000
Generated with MDTraj, t= 72.0
 51
    1UNL     C1    1  -0.434  -0.355   0.063
    1UNL     O1    2  -0.489  -0.237   0.041
    1UNL     C2    3  -0.410  -0.121   0.025
    1UNL     C3    4  -0.464  -0.023  -0.043
    1UNL     C4    5  -0.398   0.092  -0.069
    1UNL     O2    6  -0.478   0.197  -0.123
    1UNL     C5    7  -0.412   0.325  -0.113
    1UNL     C6    8  -0.257   0.101  -0.041
    1UNL     C7    9  -0.200  -0.005   0.026
    1UNL     C8   10  -0.281  -0.107   0.068
    1UNL     C9   11  -0.054   0.034   0.029
    1UNL    C10   12   0.006   0.039   0.177
    1UNL    C11   13   0.149  -0.018   0.152
    1UNL    C12   14   0.237   0.093   0.077
    1UNL    C13   15   0.172   0.230   0.075
    1UNL     O3   16   0.068   0.247  -0.023
    1UNL    C14   17  -0.048   0.174  -0.018
    1UNL     N1   18  -0.169   0.209  -0.061
    1UNL    C15   19   0.277   0.047  -0.064
    1UNL    C16   20   0.141   0.022  -0.145
    1UNL    C17   21   0.045  -0.056  -0.056
    1UNL     N2   22   0.135  -0.131   0.051
    1UNL    C18   23   0.260  -0.199   0.007
    1UNL    C19   24   0.350  -0.089  -0.056
    1UNL    C20   25   0.483  -0.102  -0.078
    1UNL    C21   26   0.573   0.014  -0.098
    1UNL     O4   27   0.573   0.084   0.025
    1UNL     H1   28  -0.511  -0.429   0.070
    1UNL     H2   29  -0.378  -0.386  -0.026
    1UNL     H3   30  -0.377  -0.352   0.163
    1UNL     H4   31  -0.568  -0.031  -0.067
    1UNL     H5   32  -0.391   0.342  -0.217
    1UNL     H6   33  -0.497   0.392  -0.089
    1UNL     H7   34  -0.327   0.329  -0.041
    1UNL     H8   35  -0.229  -0.184   0.137
    1UNL     H9   36  -0.005   0.136   0.225
    1UNL    H10   37  -0.046  -0.029   0.239
    1UNL    H11   38   0.190  -0.054   0.248
    1UNL    H12   39   0.333   0.101   0.135
    1UNL    H13   40   0.253   0.301   0.041
    1UNL    H14   41   0.132   0.270   0.170
    1UNL    H15   42   0.356   0.118  -0.105
    1UNL    H16   43   0.165  -0.044  -0.232
    1UNL    H17   44   0.105   0.116  -0.191
    1UNL    H18   45  -0.025  -0.131  -0.116
    1UNL    H19   46   0.319  -0.234   0.093
    1UNL    H20   47   0.244  -0.285  -0.053
    1UNL    H21   48   0.526  -0.200  -0.054
    1UNL    H22   49   0.533   0.090  -0.164
    1UNL    H23   50   0.676  -0.000  -0.123
    1UNL    H24   51   0.634   0.040   0.082
   0.00000   0.00000   0.00000   0.00000   0.00000   0.00000   0.00000   0.00000   0.00000
Generated with MDTraj, t= 73.0
 51
    1UNL     C1    1  -0.407  -0.350   0.083
    1UNL     O1    2  -0.486  -0.235   0.048
    1UNL     C2    3  -0.409  -0.127   0.006
    1UNL     C3    4  -0.471  -0.009  -0.027
    1UNL     C4    5  -0.400   0.111  -0.059
    1UNL     O2    6  -0.466   0.230  -0.086
    1UNL     C5    7  -0.390   0.350  -0.095
    1UNL     C6    8  -0.260   0.102  -0.055
    1UNL     C7    9  -0.200  -0.016  -0.018
    1UNL     C8   10  -0.264  -0.133   0.006
    1UNL     C9   11  -0.056   0.017   0.012
    1UNL    C10   12  -0.016   0.020   0.164
    1UNL    C11   13   0.133  -0.020   0.153
    1UNL    C12   14   0.224   0.089   0.087
    1UNL    C13   15   0.151   0.224   0.078
    1UNL     O3   16   0.068   0.241  -0.037
    1UNL    C14   17  -0.048   0.162  -0.035
    1UNL     N1   18  -0.164   0.203  -0.064
    1UNL    C15   19   0.267   0.040  -0.053
    1UNL    C16   20   0.143   0.002  -0.141
    1UNL    C17   21   0.051  -0.074  -0.052
    1UNL     N2   22   0.130  -0.145   0.068
    1UNL    C18   23   0.260  -0.194   0.025
    1UNL    C19   24   0.346  -0.082  -0.030
    1UNL    C20   25   0.479  -0.094  -0.039
    1UNL    C21   26   0.568   0.008  -0.100
    1UNL     O4   27   0.582   0.125  -0.018
    1UNL     H1   28  -0.456  -0.436   0.121
    1UNL     H2   29  -0.358  -0.383  -0.008
    1UNL     H3   30  -0.335  -0.310   0.164
    1UNL     H4   31  -0.580  -0.014  -0.021
    1UNL     H5   32  -0.286   0.339  -0.100
    1UNL     H6   33  -0.417   0.385  -0.197
    1UNL     H7   34  -0.426   0.414  -0.013
    1UNL     H8   35  -0.212  -0.223   0.031
    1UNL     H9   36  -0.033   0.109   0.210
    1UNL    H10   37  -0.063  -0.054   0.226
    1UNL    H11   38   0.179  -0.046   0.250
    1UNL    H12   39   0.313   0.101   0.154
    1UNL    H13   40   0.217   0.317   0.061
    1UNL    H14   41   0.098   0.246   0.172
    1UNL    H15   42   0.331   0.122  -0.100
    1UNL    H16   43   0.182  -0.062  -0.224
    1UNL    H17   44   0.097   0.085  -0.198
    1UNL    H18   45   0.008  -0.156  -0.124
    1UNL    H19   46   0.310  -0.238   0.110
    1UNL    H20   47   0.250  -0.269  -0.053
    1UNL    H21   48   0.517  -0.190  -0.015
    1UNL    H22   49   0.524   0.054  -0.191
    1UNL    H23   50   0.671  -0.024  -0.115
    1UNL    H24   51   0.639   0.103   0.062
   0.00000   0.00000   0.00000   0.00000   0.00000   0.00000   0.00000   0.00000   0.00000
Generated with MDTraj, t= 74.0
 51
    1UNL     C1    1  -0.450  -0.338   0.100
    1UNL     O1    2  -0.490  -0.232   0.009
    1UNL     C2    3  -0.402  -0.133  -0.001
    1UNL     C3    4  -0.465  -0.008  -0.021
    1UNL     C4    5  -0.399   0.110  -0.048
    1UNL     O2    6  -0.488   0.220  -0.062
    1UNL     C5    7  -0.425   0.341  -0.094
    1UNL     C6    8  -0.258   0.104  -0.051
    1UNL     C7    9  -0.190  -0.019  -0.020
    1UNL     C8   10  -0.264  -0.134  -0.001
    1UNL     C9   11  -0.049   0.021   0.006
    1UNL    C10   12  -0.012   0.017   0.153
    1UNL    C11   13   0.137  -0.023   0.162
    1UNL    C12   14   0.228   0.095   0.103
    1UNL    C13   15   0.152   0.231   0.079
    1UNL     O3   16   0.070   0.238  -0.040
    1UNL    C14   17  -0.043   0.165  -0.038
    1UNL     N1   18  -0.164   0.208  -0.068
    1UNL    C15   19   0.293   0.048  -0.033
    1UNL    C16   20   0.171   0.010  -0.132
    1UNL    C17   21   0.061  -0.070  -0.058
    1UNL     N2   22   0.137  -0.131   0.062
    1UNL    C18   23   0.272  -0.197   0.031
    1UNL    C19   24   0.363  -0.089  -0.015
    1UNL    C20   25   0.491  -0.112  -0.040
    1UNL    C21   26   0.577  -0.008  -0.099
    1UNL     O4   27   0.548   0.127  -0.055
    1UNL     H1   28  -0.521  -0.414   0.103
    1UNL     H2   29  -0.357  -0.387   0.074
    1UNL     H3   30  -0.447  -0.282   0.201
    1UNL     H4   31  -0.571  -0.005  -0.017
    1UNL     H5   32  -0.372   0.375  -0.011
    1UNL     H6   33  -0.350   0.324  -0.174
    1UNL     H7   34  -0.503   0.415  -0.110
    1UNL     H8   35  -0.214  -0.220   0.014
    1UNL     H9   36  -0.032   0.106   0.203
    1UNL    H10   37  -0.071  -0.057   0.198
    1UNL    H11   38   0.173  -0.056   0.261
    1UNL    H12   39   0.314   0.112   0.173
    1UNL    H13   40   0.230   0.315   0.075
    1UNL    H14   41   0.076   0.259   0.154
    1UNL    H15   42   0.348   0.133  -0.086
    1UNL    H16   43   0.209  -0.047  -0.220
    1UNL    H17   44   0.125   0.098  -0.179
    1UNL    H18   45   0.015  -0.150  -0.127
    1UNL    H19   46   0.312  -0.235   0.122
    1UNL    H20   47   0.256  -0.275  -0.047
    1UNL    H21   48   0.529  -0.215  -0.044
    1UNL    H22   49   0.554  -0.012  -0.209
    1UNL    H23   50   0.682  -0.033  -0.072
    1UNL    H24   51   0.571   0.134   0.047
   0.00000   0.00000   0.00000   0.00000   0.00000   0.00000   0.00000   0.00000   0.00000
Generated with MDTraj, t= 75.0
 51
    1UNL     C1    1  -0.446  -0.330   0.111
    1UNL     O1    2  -0.466  -0.258  -0.009
    1UNL     C2    3  -0.394  -0.134  -0.017
    1UNL     C3    4  -0.462  -0.018  -0.064
    1UNL     C4    5  -0.400   0.107  -0.061
    1UNL     O2    6  -0.465   0.223  -0.098
    1UNL     C5    7  -0.382   0.333  -0.111
    1UNL     C6    8  -0.262   0.109  -0.023
    1UNL     C7    9  -0.199  -0.009   0.016
    1UNL     C8   10  -0.264  -0.128   0.027
    1UNL     C9   11  -0.053   0.023   0.034
    1UNL    C10   12  -0.006   0.016   0.180
    1UNL    C11   13   0.145  -0.018   0.155
    1UNL    C12   14   0.228   0.091   0.080
    1UNL    C13   15   0.156   0.232   0.079
    1UNL     O3   16   0.053   0.253  -0.014
    1UNL    C14   17  -0.055   0.170  -0.005
    1UNL     N1   18  -0.175   0.209  -0.036
    1UNL    C15   19   0.270   0.035  -0.061
    1UNL    C16   20   0.145   0.014  -0.144
    1UNL    C17   21   0.050  -0.065  -0.044
    1UNL     N2   22   0.126  -0.132   0.065
    1UNL    C18   23   0.257  -0.198   0.024
    1UNL    C19   24   0.349  -0.087  -0.033
    1UNL    C20   25   0.483  -0.103  -0.041
    1UNL    C21   26   0.580  -0.010  -0.107
    1UNL     O4   27   0.566   0.125  -0.062
    1UNL     H1   28  -0.503  -0.417   0.100
    1UNL     H2   29  -0.343  -0.361   0.126
    1UNL     H3   30  -0.487  -0.259   0.191
    1UNL     H4   31  -0.564  -0.039  -0.098
    1UNL     H5   32  -0.319   0.338  -0.027
    1UNL     H6   33  -0.320   0.334  -0.202
    1UNL     H7   34  -0.446   0.418  -0.093
    1UNL     H8   35  -0.223  -0.229   0.063
    1UNL     H9   36  -0.013   0.114   0.221
    1UNL    H10   37  -0.072  -0.043   0.231
    1UNL    H11   38   0.198  -0.056   0.242
    1UNL    H12   39   0.321   0.101   0.139
    1UNL    H13   40   0.232   0.306   0.039
    1UNL    H14   41   0.121   0.260   0.180
    1UNL    H15   42   0.333   0.109  -0.122
    1UNL    H16   43   0.166  -0.051  -0.233
    1UNL    H17   44   0.092   0.108  -0.168
    1UNL    H18   45  -0.017  -0.137  -0.101
    1UNL    H19   46   0.300  -0.236   0.112
    1UNL    H20   47   0.234  -0.273  -0.056
    1UNL    H21   48   0.517  -0.201  -0.012
    1UNL    H22   49   0.555  -0.007  -0.216
    1UNL    H23   50   0.684  -0.047  -0.085
    1UNL    H24   51   0.581   0.129   0.039
   0.00000   0.00000   0.00000   0.00000   0.00000   0.00000   0.00000   0.00000   0.00000
Generated with MDTraj, t= 76.0
 51
    1UNL     C1    1  -0.449  -0.345   0.097
    1UNL     O1    2  -0.470  -0.244   0.001
    1UNL     C2    3  -0.386  -0.135  -0.001
    1UNL     C3    4  -0.442  -0.024  -0.064
    1UNL     C4    5  -0.383   0.100  -0.087
    1UNL     O2    6  -0.456   0.193  -0.159
    1UNL     C5    7  -0.426   0.327  -0.131
    1UNL     C6    8  -0.253   0.113  -0.034
    1UNL     C7    9  -0.196   0.005   0.041
    1UNL     C8   10  -0.256  -0.120   0.056
    1UNL     C9   11  -0.046   0.038   0.054
    1UNL    C10   12   0.009   0.024   0.198
    1UNL    C11   13   0.148  -0.023   0.170
    1UNL    C12   14   0.237   0.085   0.099
    1UNL    C13   15   0.185   0.229   0.098
    1UNL     O3   16   0.077   0.257   0.009
    1UNL    C14   17  -0.045   0.181   0.003
    1UNL     N1   18  -0.159   0.218  -0.046
    1UNL    C15   19   0.266   0.043  -0.051
    1UNL    C16   20   0.139   0.020  -0.128
    1UNL    C17   21   0.039  -0.057  -0.031
    1UNL     N2   22   0.127  -0.134   0.075
    1UNL    C18   23   0.254  -0.205   0.014
    1UNL    C19   24   0.335  -0.096  -0.057
    1UNL    C20   25   0.460  -0.107  -0.107
    1UNL    C21   26   0.538   0.012  -0.141
    1UNL     O4   27   0.545   0.105  -0.030
    1UNL     H1   28  -0.543  -0.388   0.119
    1UNL     H2   29  -0.385  -0.421   0.055
    1UNL     H3   30  -0.399  -0.293   0.186
    1UNL     H4   31  -0.538  -0.020  -0.109
    1UNL     H5   32  -0.464   0.348  -0.035
    1UNL     H6   33  -0.317   0.352  -0.139
    1UNL     H7   34  -0.485   0.390  -0.195
    1UNL     H8   35  -0.209  -0.209   0.096
    1UNL     H9   36  -0.006   0.114   0.253
    1UNL    H10   37  -0.049  -0.046   0.244
    1UNL    H11   38   0.191  -0.067   0.260
    1UNL    H12   39   0.330   0.083   0.158
    1UNL    H13   40   0.269   0.296   0.070
    1UNL    H14   41   0.141   0.257   0.195
    1UNL    H15   42   0.336   0.125  -0.089
    1UNL    H16   43   0.152  -0.059  -0.207
    1UNL    H17   44   0.101   0.115  -0.166
    1UNL    H18   45  -0.026  -0.136  -0.072
    1UNL    H19   46   0.311  -0.244   0.092
    1UNL    H20   47   0.223  -0.271  -0.071
    1UNL    H21   48   0.505  -0.204  -0.119
    1UNL    H22   49   0.499   0.070  -0.227
    1UNL    H23   50   0.647  -0.009  -0.160
    1UNL    H24   51   0.536   0.058   0.051
   0.00000   0.00000   0.00000   0.00000   0.00000   0.00000   0.00000   0.00000   0.00000
Generated with MDTraj, t= 77.0
 51
    1UNL     C1    1  -0.401  -0.348   0.101
    1UNL     O1    2  -0.475  -0.241   0.041
    1UNL     C2    3  -0.401  -0.127   0.007
    1UNL     C3    4  -0.445  -0.023  -0.081
    1UNL     C4    5  -0.377   0.099  -0.100
    1UNL     O2    6  -0.425   0.193  -0.183
    1UNL     C5    7  -0.387   0.332  -0.145
    1UNL     C6    8  -0.251   0.104  -0.043
    1UNL     C7    9  -0.200  -0.005   0.033
    1UNL     C8   10  -0.272  -0.119   0.056
    1UNL     C9   11  -0.058   0.032   0.060
    1UNL    C10   12   0.001   0.016   0.203
    1UNL    C11   13   0.143  -0.033   0.173
    1UNL    C12   14   0.228   0.081   0.108
    1UNL    C13   15   0.161   0.220   0.121
    1UNL     O3   16   0.056   0.263   0.031
    1UNL    C14   17  -0.053   0.182   0.021
    1UNL     N1   18  -0.161   0.214  -0.047
    1UNL    C15   19   0.253   0.048  -0.045
    1UNL    C16   20   0.123   0.037  -0.115
    1UNL    C17   21   0.033  -0.058  -0.028
    1UNL     N2   22   0.115  -0.138   0.062
    1UNL    C18   23   0.238  -0.193  -0.006
    1UNL    C19   24   0.333  -0.080  -0.047
    1UNL    C20   25   0.455  -0.103  -0.095
    1UNL    C21   26   0.548  -0.000  -0.155
    1UNL     O4   27   0.587   0.104  -0.068
    1UNL     H1   28  -0.463  -0.434   0.084
    1UNL     H2   29  -0.309  -0.370   0.046
    1UNL     H3   30  -0.378  -0.324   0.208
    1UNL     H4   31  -0.540  -0.048  -0.129
    1UNL     H5   32  -0.457   0.366  -0.070
    1UNL     H6   33  -0.282   0.346  -0.106
    1UNL     H7   34  -0.397   0.408  -0.224
    1UNL     H8   35  -0.222  -0.191   0.108
    1UNL     H9   36  -0.008   0.106   0.254
    1UNL    H10   37  -0.041  -0.063   0.262
    1UNL    H11   38   0.197  -0.079   0.256
    1UNL    H12   39   0.324   0.090   0.162
    1UNL    H13   40   0.232   0.293   0.085
    1UNL    H14   41   0.129   0.251   0.222
    1UNL    H15   42   0.319   0.131  -0.087
    1UNL    H16   43   0.141  -0.010  -0.214
    1UNL    H17   44   0.068   0.128  -0.142
    1UNL    H18   45  -0.042  -0.117  -0.079
    1UNL    H19   46   0.291  -0.248   0.065
    1UNL    H20   47   0.197  -0.244  -0.097
    1UNL    H21   48   0.479  -0.208  -0.093
    1UNL    H22   49   0.489   0.056  -0.229
    1UNL    H23   50   0.642  -0.035  -0.202
    1UNL    H24   51   0.595   0.063   0.015
   0.00000   0.00000   0.00000   0.00000   0.00000   0.00000   0.00000   0.00000   0.00000
Generated with MDTraj, t= 78.0
 51
    1UNL     C1    1  -0.442  -0.355   0.077
    1UNL     O1    2  -0.495  -0.236   0.023
    1UNL     C2    3  -0.403  -0.130   0.006
    1UNL     C3    4  -0.465  -0.012  -0.051
    1UNL     C4    5  -0.395   0.099  -0.079
    1UNL     O2    6  -0.463   0.199  -0.154
    1UNL     C5    7  -0.389   0.311  -0.205
    1UNL     C6    8  -0.258   0.107  -0.033
    1UNL     C7    9  -0.197  -0.001   0.031
    1UNL     C8   10  -0.265  -0.127   0.048
    1UNL     C9   11  -0.048   0.032   0.058
    1UNL    C10   12   0.005   0.015   0.198
    1UNL    C11   13   0.144  -0.036   0.173
    1UNL    C12   14   0.233   0.087   0.119
    1UNL    C13   15   0.165   0.229   0.122
    1UNL     O3   16   0.060   0.261   0.033
    1UNL    C14   17  -0.050   0.176   0.019
    1UNL     N1   18  -0.166   0.213  -0.027
    1UNL    C15   19   0.278   0.056  -0.027
    1UNL    C16   20   0.152   0.044  -0.113
    1UNL    C17   21   0.050  -0.053  -0.034
    1UNL     N2   22   0.137  -0.135   0.064
    1UNL    C18   23   0.265  -0.193   0.021
    1UNL    C19   24   0.342  -0.085  -0.043
    1UNL    C20   25   0.461  -0.108  -0.099
    1UNL    C21   26   0.537   0.003  -0.168
    1UNL     O4   27   0.584   0.101  -0.080
    1UNL     H1   28  -0.519  -0.431   0.069
    1UNL     H2   29  -0.362  -0.392   0.010
    1UNL     H3   30  -0.403  -0.340   0.179
    1UNL     H4   31  -0.564  -0.028  -0.089
    1UNL     H5   32  -0.299   0.342  -0.147
    1UNL     H6   33  -0.379   0.288  -0.317
    1UNL     H7   34  -0.447   0.406  -0.211
    1UNL     H8   35  -0.215  -0.224   0.085
    1UNL     H9   36  -0.006   0.107   0.244
    1UNL    H10   37  -0.049  -0.064   0.250
    1UNL    H11   38   0.187  -0.088   0.259
    1UNL    H12   39   0.319   0.086   0.186
    1UNL    H13   40   0.234   0.305   0.098
    1UNL    H14   41   0.117   0.252   0.220
    1UNL    H15   42   0.346   0.138  -0.071
    1UNL    H16   43   0.173   0.009  -0.217
    1UNL    H17   44   0.111   0.143  -0.135
    1UNL    H18   45   0.002  -0.122  -0.098
    1UNL    H19   46   0.312  -0.227   0.109
    1UNL    H20   47   0.239  -0.260  -0.064
    1UNL    H21   48   0.505  -0.206  -0.100
    1UNL    H22   49   0.476   0.052  -0.245
    1UNL    H23   50   0.627  -0.047  -0.206
    1UNL    H24   51   0.637   0.062  -0.006
   0.00000   0.00000   0.00000   0.00000   0.00000   0.00000   0.00000   0.00000   0.00000
Generated with MDTraj, t= 79.0
 51
    1UNL     C1    1  -0.426  -0.347   0.071
    1UNL     O1    2  -0.483  -0.240   0.009
    1UNL     C2    3  -0.404  -0.124   0.002
    1UNL     C3    4  -0.458  -0.003  -0.029
    1UNL     C4    5  -0.386   0.117  -0.044
    1UNL     O2    6  -0.437   0.237  -0.098
    1UNL     C5    7  -0.372   0.290  -0.214
    1UNL     C6    8  -0.250   0.106  -0.030
    1UNL     C7    9  -0.195  -0.011   0.021
    1UNL     C8   10  -0.265  -0.127   0.028
    1UNL     C9   11  -0.052   0.018   0.045
    1UNL    C10   12  -0.010   0.001   0.188
    1UNL    C11   13   0.140  -0.029   0.174
    1UNL    C12   14   0.224   0.088   0.106
    1UNL    C13   15   0.151   0.221   0.115
    1UNL     O3   16   0.065   0.251   0.006
    1UNL    C14   17  -0.046   0.168  -0.003
    1UNL     N1   18  -0.161   0.208  -0.045
    1UNL    C15   19   0.262   0.049  -0.035
    1UNL    C16   20   0.143   0.019  -0.122
    1UNL    C17   21   0.044  -0.070  -0.037
    1UNL     N2   22   0.131  -0.138   0.068
    1UNL    C18   23   0.267  -0.190   0.044
    1UNL    C19   24   0.344  -0.072  -0.022
    1UNL    C20   25   0.459  -0.098  -0.084
    1UNL    C21   26   0.530   0.011  -0.162
    1UNL     O4   27   0.562   0.122  -0.079
    1UNL     H1   28  -0.516  -0.406   0.094
    1UNL     H2   29  -0.378  -0.411  -0.005
    1UNL     H3   30  -0.359  -0.325   0.154
    1UNL     H4   31  -0.562   0.013  -0.045
    1UNL     H5   32  -0.260   0.275  -0.219
    1UNL     H6   33  -0.440   0.253  -0.300
    1UNL     H7   34  -0.388   0.399  -0.220
    1UNL     H8   35  -0.209  -0.213   0.065
    1UNL     H9   36  -0.027   0.092   0.242
    1UNL    H10   37  -0.069  -0.080   0.228
    1UNL    H11   38   0.181  -0.060   0.271
    1UNL    H12   39   0.317   0.091   0.164
    1UNL    H13   40   0.222   0.298   0.105
    1UNL    H14   41   0.091   0.231   0.210
    1UNL    H15   42   0.324   0.126  -0.092
    1UNL    H16   43   0.175  -0.026  -0.217
    1UNL    H17   44   0.097   0.115  -0.151
    1UNL    H18   45  -0.010  -0.128  -0.104
    1UNL    H19   46   0.307  -0.203   0.140
    1UNL    H20   47   0.261  -0.281  -0.019
    1UNL    H21   48   0.509  -0.193  -0.065
    1UNL    H22   49   0.457   0.043  -0.234
    1UNL    H23   50   0.622  -0.026  -0.207
    1UNL    H24   51   0.631   0.099  -0.003
   0.00000   0.00000   0.00000   0.00000   0.00000   0.00000   0.00000   0.00000   0.00000
Generated with MDTraj, t= 80.0
 51
    1UNL     C1    1  -0.437  -0.352   0.064
    1UNL     O1    2  -0.498  -0.226   0.028
    1UNL     C2    3  -0.407  -0.121  -0.000
    1UNL     C3    4  -0.466  -0.008  -0.053
    1UNL     C4    5  -0.397   0.117  -0.063
    1UNL     O2    6  -0.473   0.223  -0.104
    1UNL     C5    7  -0.414   0.315  -0.189
    1UNL     C6    8  -0.254   0.111  -0.027
    1UNL     C7    9  -0.196  -0.009   0.023
    1UNL     C8   10  -0.268  -0.126   0.039
    1UNL     C9   11  -0.053   0.024   0.047
    1UNL    C10   12   0.002   0.013   0.195
    1UNL    C11   13   0.147  -0.027   0.168
    1UNL    C12   14   0.242   0.085   0.105
    1UNL    C13   15   0.172   0.224   0.097
    1UNL     O3   16   0.075   0.244  -0.005
    1UNL    C14   17  -0.044   0.164   0.000
    1UNL     N1   18  -0.159   0.207  -0.044
    1UNL    C15   19   0.275   0.041  -0.041
    1UNL    C16   20   0.151   0.014  -0.129
    1UNL    C17   21   0.049  -0.065  -0.036
    1UNL     N2   22   0.138  -0.136   0.068
    1UNL    C18   23   0.267  -0.199   0.030
    1UNL    C19   24   0.356  -0.091  -0.035
    1UNL    C20   25   0.482  -0.106  -0.072
    1UNL    C21   26   0.563   0.002  -0.125
    1UNL     O4   27   0.534   0.135  -0.076
    1UNL     H1   28  -0.503  -0.428   0.016
    1UNL     H2   29  -0.340  -0.370   0.014
    1UNL     H3   30  -0.418  -0.364   0.168
    1UNL     H4   31  -0.565  -0.025  -0.099
    1UNL     H5   32  -0.329   0.362  -0.137
    1UNL     H6   33  -0.380   0.270  -0.286
    1UNL     H7   34  -0.488   0.389  -0.216
    1UNL     H8   35  -0.211  -0.203   0.074
    1UNL     H9   36   0.002   0.097   0.268
    1UNL    H10   37  -0.046  -0.066   0.248
    1UNL    H11   38   0.192  -0.066   0.261
    1UNL    H12   39   0.331   0.093   0.167
    1UNL    H13   40   0.246   0.293   0.077
    1UNL    H14   41   0.117   0.251   0.193
    1UNL    H15   42   0.330   0.127  -0.091
    1UNL    H16   43   0.175  -0.055  -0.210
    1UNL    H17   44   0.109   0.107  -0.172
    1UNL    H18   45  -0.004  -0.138  -0.082
    1UNL    H19   46   0.330  -0.232   0.109
    1UNL    H20   47   0.251  -0.275  -0.047
    1UNL    H21   48   0.532  -0.198  -0.051
    1UNL    H22   49   0.550   0.018  -0.232
    1UNL    H23   50   0.666  -0.024  -0.100
    1UNL    H24   51   0.574   0.137   0.019
   0.00000   0.00000   0.00000   0.00000   0.00000   0.00000   0.00000   0.00000   0.00000
Generated with MDTraj, t= 81.0
 51
    1UNL     C1    1  -0.405  -0.362   0.064
    1UNL     O1    2  -0.485  -0.240   0.042
    1UNL     C2    3  -0.411  -0.127   0.023
    1UNL     C3    4  -0.468  -0.010  -0.026
    1UNL     C4    5  -0.398   0.099  -0.059
    1UNL     O2    6  -0.457   0.215  -0.127
    1UNL     C5    7  -0.369   0.328  -0.138
    1UNL     C6    8  -0.259   0.101  -0.035
    1UNL     C7    9  -0.200  -0.005   0.025
    1UNL     C8   10  -0.271  -0.123   0.032
    1UNL     C9   11  -0.057   0.029   0.036
    1UNL    C10   12  -0.002   0.028   0.180
    1UNL    C11   13   0.140  -0.022   0.158
    1UNL    C12   14   0.232   0.091   0.088
    1UNL    C13   15   0.166   0.230   0.076
    1UNL     O3   16   0.061   0.255  -0.010
    1UNL    C14   17  -0.051   0.173  -0.010
    1UNL     N1   18  -0.165   0.207  -0.059
    1UNL    C15   19   0.273   0.043  -0.057
    1UNL    C16   20   0.143   0.023  -0.137
    1UNL    C17   21   0.042  -0.064  -0.053
    1UNL     N2   22   0.120  -0.135   0.060
    1UNL    C18   23   0.239  -0.198   0.006
    1UNL    C19   24   0.342  -0.087  -0.033
    1UNL    C20   25   0.471  -0.110  -0.054
    1UNL    C21   26   0.571  -0.011  -0.100
    1UNL     O4   27   0.560   0.125  -0.044
    1UNL     H1   28  -0.484  -0.440   0.081
    1UNL     H2   29  -0.354  -0.402  -0.026
    1UNL     H3   30  -0.336  -0.352   0.143
    1UNL     H4   31  -0.571  -0.005  -0.035
    1UNL     H5   32  -0.321   0.314  -0.045
    1UNL     H6   33  -0.292   0.320  -0.216
    1UNL     H7   34  -0.415   0.423  -0.140
    1UNL     H8   35  -0.212  -0.221   0.046
    1UNL     H9   36  -0.009   0.125   0.235
    1UNL    H10   37  -0.061  -0.035   0.244
    1UNL    H11   38   0.185  -0.062   0.251
    1UNL    H12   39   0.320   0.103   0.149
    1UNL    H13   40   0.236   0.298   0.041
    1UNL    H14   41   0.133   0.269   0.179
    1UNL    H15   42   0.344   0.119  -0.100
    1UNL    H16   43   0.167  -0.034  -0.227
    1UNL    H17   44   0.099   0.119  -0.173
    1UNL    H18   45  -0.005  -0.135  -0.108
    1UNL    H19   46   0.283  -0.258   0.082
    1UNL    H20   47   0.234  -0.250  -0.089
    1UNL    H21   48   0.505  -0.205  -0.011
    1UNL    H22   49   0.551   0.002  -0.206
    1UNL    H23   50   0.678  -0.029  -0.079
    1UNL    H24   51   0.587   0.124   0.047
   0.00000   0.00000   0.00000   0.00000   0.00000   0.00000   0.00000   0.00000   0.00000
Generated with MDTraj, t= 82.0
 51
    1UNL     C1    1  -0.407  -0.349   0.080
    1UNL     O1    2  -0.481  -0.237   0.035
    1UNL     C2    3  -0.395  -0.124   0.009
    1UNL     C3    4  -0.467  -0.014  -0.038
    1UNL     C4    5  -0.393   0.111  -0.062
    1UNL     O2    6  -0.490   0.204  -0.115
    1UNL     C5    7  -0.446   0.330  -0.120
    1UNL     C6    8  -0.257   0.119  -0.039
    1UNL     C7    9  -0.194   0.003   0.007
    1UNL     C8   10  -0.257  -0.113   0.045
    1UNL     C9   11  -0.051   0.039   0.025
    1UNL    C10   12   0.002   0.029   0.175
    1UNL    C11   13   0.143  -0.026   0.154
    1UNL    C12   14   0.231   0.087   0.093
    1UNL    C13   15   0.177   0.234   0.076
    1UNL     O3   16   0.073   0.254  -0.024
    1UNL    C14   17  -0.044   0.183  -0.029
    1UNL     N1   18  -0.164   0.216  -0.068
    1UNL    C15   19   0.271   0.032  -0.053
    1UNL    C16   20   0.141   0.004  -0.135
    1UNL    C17   21   0.042  -0.069  -0.046
    1UNL     N2   22   0.129  -0.138   0.058
    1UNL    C18   23   0.259  -0.200   0.017
    1UNL    C19   24   0.351  -0.094  -0.043
    1UNL    C20   25   0.476  -0.113  -0.084
    1UNL    C21   26   0.565   0.004  -0.104
    1UNL     O4   27   0.570   0.095   0.012
    1UNL     H1   28  -0.470  -0.441   0.062
    1UNL     H2   29  -0.314  -0.362   0.021
    1UNL     H3   30  -0.387  -0.328   0.181
    1UNL     H4   31  -0.569  -0.037  -0.077
    1UNL     H5   32  -0.396   0.337  -0.026
    1UNL     H6   33  -0.369   0.340  -0.196
    1UNL     H7   34  -0.528   0.393  -0.131
    1UNL     H8   35  -0.203  -0.190   0.098
    1UNL     H9   36  -0.009   0.130   0.217
    1UNL    H10   37  -0.057  -0.038   0.241
    1UNL    H11   38   0.190  -0.064   0.247
    1UNL    H12   39   0.326   0.082   0.144
    1UNL    H13   40   0.253   0.299   0.048
    1UNL    H14   41   0.127   0.274   0.172
    1UNL    H15   42   0.337   0.107  -0.105
    1UNL    H16   43   0.169  -0.056  -0.221
    1UNL    H17   44   0.090   0.091  -0.179
    1UNL    H18   45  -0.010  -0.136  -0.103
    1UNL    H19   46   0.317  -0.237   0.101
    1UNL    H20   47   0.237  -0.273  -0.057
    1UNL    H21   48   0.518  -0.210  -0.063
    1UNL    H22   49   0.531   0.076  -0.181
    1UNL    H23   50   0.665  -0.043  -0.122
    1UNL    H24   51   0.602   0.055   0.089
   0.00000   0.00000   0.00000   0.00000   0.00000   0.00000   0.00000   0.00000   0.00000
Generated with MDTraj, t= 83.0
 51
    1UNL     C1    1  -0.412  -0.351   0.102
    1UNL     O1    2  -0.478  -0.252   0.032
    1UNL     C2    3  -0.398  -0.139   0.002
    1UNL     C3    4  -0.457  -0.024  -0.054
    1UNL     C4    5  -0.399   0.101  -0.063
    1UNL     O2    6  -0.461   0.217  -0.106
    1UNL     C5    7  -0.391   0.334  -0.094
    1UNL     C6    8  -0.262   0.101  -0.030
    1UNL     C7    9  -0.196  -0.007   0.021
    1UNL     C8   10  -0.261  -0.126   0.032
    1UNL     C9   11  -0.054   0.035   0.022
    1UNL    C10   12  -0.005   0.033   0.171
    1UNL    C11   13   0.141  -0.014   0.147
    1UNL    C12   14   0.215   0.100   0.072
    1UNL    C13   15   0.154   0.245   0.061
    1UNL     O3   16   0.051   0.268  -0.037
    1UNL    C14   17  -0.057   0.180  -0.023
    1UNL     N1   18  -0.177   0.214  -0.049
    1UNL    C15   19   0.272   0.052  -0.067
    1UNL    C16   20   0.142   0.014  -0.149
    1UNL    C17   21   0.042  -0.063  -0.058
    1UNL     N2   22   0.128  -0.133   0.054
    1UNL    C18   23   0.249  -0.192   0.003
    1UNL    C19   24   0.340  -0.082  -0.040
    1UNL    C20   25   0.468  -0.114  -0.059
    1UNL    C21   26   0.582  -0.020  -0.083
    1UNL     O4   27   0.592   0.083   0.012
    1UNL     H1   28  -0.497  -0.421   0.133
    1UNL     H2   29  -0.343  -0.406   0.036
    1UNL     H3   30  -0.370  -0.296   0.181
    1UNL     H4   31  -0.561  -0.010  -0.075
    1UNL     H5   32  -0.347   0.340   0.005
    1UNL     H6   33  -0.306   0.317  -0.159
    1UNL     H7   34  -0.453   0.414  -0.130
    1UNL     H8   35  -0.210  -0.206   0.065
    1UNL     H9   36  -0.013   0.129   0.219
    1UNL    H10   37  -0.059  -0.048   0.232
    1UNL    H11   38   0.195  -0.040   0.241
    1UNL    H12   39   0.303   0.104   0.136
    1UNL    H13   40   0.230   0.313   0.036
    1UNL    H14   41   0.106   0.276   0.162
    1UNL    H15   42   0.327   0.136  -0.119
    1UNL    H16   43   0.158  -0.032  -0.247
    1UNL    H17   44   0.092   0.109  -0.172
    1UNL    H18   45  -0.004  -0.133  -0.120
    1UNL    H19   46   0.295  -0.253   0.081
    1UNL    H20   47   0.225  -0.243  -0.086
    1UNL    H21   48   0.502  -0.204  -0.006
    1UNL    H22   49   0.548   0.019  -0.182
    1UNL    H23   50   0.680  -0.076  -0.080
    1UNL    H24   51   0.613   0.041   0.099
   0.00000   0.00000   0.00000   0.00000   0.00000   0.00000   0.00000   0.00000   0.00000
Generated with MDTraj, t= 84.0
 51
    1UNL     C1    1  -0.432  -0.346   0.105
    1UNL     O1    2  -0.477  -0.237   0.016
    1UNL     C2    3  -0.397  -0.125   0.009
    1UNL     C3    4  -0.471  -0.010  -0.030
    1UNL     C4    5  -0.401   0.109  -0.057
    1UNL     O2    6  -0.495   0.201  -0.103
    1UNL     C5    7  -0.451   0.341  -0.113
    1UNL     C6    8  -0.254   0.116  -0.038
    1UNL     C7    9  -0.195  -0.001   0.007
    1UNL     C8   10  -0.263  -0.118   0.033
    1UNL     C9   11  -0.050   0.029   0.021
    1UNL    C10   12  -0.004   0.025   0.170
    1UNL    C11   13   0.147  -0.020   0.149
    1UNL    C12   14   0.233   0.093   0.085
    1UNL    C13   15   0.169   0.232   0.073
    1UNL     O3   16   0.069   0.254  -0.025
    1UNL    C14   17  -0.048   0.172  -0.024
    1UNL     N1   18  -0.164   0.214  -0.069
    1UNL    C15   19   0.279   0.036  -0.049
    1UNL    C16   20   0.152   0.007  -0.141
    1UNL    C17   21   0.053  -0.072  -0.060
    1UNL     N2   22   0.131  -0.136   0.053
    1UNL    C18   23   0.258  -0.200   0.006
    1UNL    C19   24   0.357  -0.089  -0.034
    1UNL    C20   25   0.484  -0.119  -0.059
    1UNL    C21   26   0.571   0.004  -0.100
    1UNL     O4   27   0.583   0.099   0.006
    1UNL     H1   28  -0.523  -0.414   0.116
    1UNL     H2   29  -0.349  -0.404   0.060
    1UNL     H3   30  -0.408  -0.298   0.194
    1UNL     H4   31  -0.573  -0.028  -0.065
    1UNL     H5   32  -0.396   0.386  -0.026
    1UNL     H6   33  -0.372   0.342  -0.190
    1UNL     H7   34  -0.536   0.405  -0.146
    1UNL     H8   35  -0.199  -0.211   0.051
    1UNL     H9   36  -0.001   0.121   0.220
    1UNL    H10   37  -0.059  -0.051   0.237
    1UNL    H11   38   0.198  -0.058   0.240
    1UNL    H12   39   0.316   0.099   0.155
    1UNL    H13   40   0.246   0.298   0.044
    1UNL    H14   41   0.125   0.270   0.175
    1UNL    H15   42   0.345   0.112  -0.099
    1UNL    H16   43   0.182  -0.054  -0.227
    1UNL    H17   44   0.111   0.100  -0.182
    1UNL    H18   45  -0.004  -0.140  -0.118
    1UNL    H19   46   0.293  -0.259   0.092
    1UNL    H20   47   0.236  -0.260  -0.076
    1UNL    H21   48   0.520  -0.204  -0.006
    1UNL    H22   49   0.527   0.067  -0.181
    1UNL    H23   50   0.671  -0.038  -0.123
    1UNL    H24   51   0.661   0.073   0.072
   0.00000   0.00000   0.00000   0.00000   0.00000   0.00000   0.00000   0.00000   0.00000
Generated with MDTraj, t= 85.0
 51
    1UNL     C1    1  -0.403  -0.346   0.103
    1UNL     O1    2  -0.489  -0.243   0.046
    1UNL     C2    3  -0.408  -0.129   0.006
    1UNL     C3    4  -0.471  -0.012  -0.046
    1UNL     C4    5  -0.402   0.108  -0.061
    1UNL     O2    6  -0.461   0.231  -0.117
    1UNL     C5    7  -0.370   0.344  -0.119
    1UNL     C6    8  -0.264   0.100  -0.044
    1UNL     C7    9  -0.201  -0.020  -0.001
    1UNL     C8   10  -0.270  -0.137   0.017
    1UNL     C9   11  -0.055   0.020   0.025
    1UNL    C10   12  -0.011   0.017   0.176
    1UNL    C11   13   0.136  -0.022   0.156
    1UNL    C12   14   0.228   0.093   0.093
    1UNL    C13   15   0.161   0.229   0.085
    1UNL     O3   16   0.064   0.252  -0.013
    1UNL    C14   17  -0.047   0.166  -0.017
    1UNL     N1   18  -0.164   0.205  -0.057
    1UNL    C15   19   0.274   0.050  -0.049
    1UNL    C16   20   0.149   0.009  -0.137
    1UNL    C17   21   0.048  -0.073  -0.058
    1UNL     N2   22   0.129  -0.130   0.059
    1UNL    C18   23   0.261  -0.194   0.014
    1UNL    C19   24   0.345  -0.087  -0.028
    1UNL    C20   25   0.468  -0.108  -0.071
    1UNL    C21   26   0.563   0.003  -0.109
    1UNL     O4   27   0.556   0.120  -0.024
    1UNL     H1   28  -0.471  -0.432   0.134
    1UNL     H2   29  -0.339  -0.388   0.022
    1UNL     H3   30  -0.355  -0.303   0.186
    1UNL     H4   31  -0.579  -0.010  -0.054
    1UNL     H5   32  -0.323   0.387  -0.023
    1UNL     H6   33  -0.290   0.309  -0.183
    1UNL     H7   34  -0.430   0.424  -0.172
    1UNL     H8   35  -0.212  -0.222   0.052
    1UNL     H9   36  -0.029   0.104   0.243
    1UNL    H10   37  -0.071  -0.068   0.220
    1UNL    H11   38   0.180  -0.058   0.251
    1UNL    H12   39   0.312   0.092   0.163
    1UNL    H13   40   0.237   0.300   0.062
    1UNL    H14   41   0.113   0.264   0.187
    1UNL    H15   42   0.347   0.125  -0.089
    1UNL    H16   43   0.184  -0.046  -0.226
    1UNL    H17   44   0.104   0.102  -0.172
    1UNL    H18   45  -0.002  -0.158  -0.107
    1UNL    H19   46   0.316  -0.248   0.092
    1UNL    H20   47   0.236  -0.254  -0.067
    1UNL    H21   48   0.516  -0.204  -0.047
    1UNL    H22   49   0.539   0.047  -0.207
    1UNL    H23   50   0.669  -0.029  -0.109
    1UNL    H24   51   0.566   0.087   0.074
   0.00000   0.00000   0.00000   0.00000   0.00000   0.00000   0.00000   0.00000   0.00000
Generated with MDTraj, t= 86.0
 51
    1UNL     C1    1  -0.451  -0.350   0.087
    1UNL     O1    2  -0.497  -0.231   0.035
    1UNL     C2    3  -0.411  -0.123   0.008
    1UNL     C3    4  -0.461  -0.008  -0.045
    1UNL     C4    5  -0.385   0.108  -0.077
    1UNL     O2    6  -0.473   0.209  -0.124
    1UNL     C5    7  -0.411   0.327  -0.150
    1UNL     C6    8  -0.246   0.108  -0.045
    1UNL     C7    9  -0.196  -0.002   0.018
    1UNL     C8   10  -0.277  -0.113   0.047
    1UNL     C9   11  -0.046   0.019   0.038
    1UNL    C10   12   0.000   0.009   0.178
    1UNL    C11   13   0.140  -0.034   0.164
    1UNL    C12   14   0.238   0.077   0.104
    1UNL    C13   15   0.174   0.215   0.111
    1UNL     O3   16   0.081   0.245   0.003
    1UNL    C14   17  -0.038   0.166  -0.009
    1UNL     N1   18  -0.151   0.206  -0.060
    1UNL    C15   19   0.273   0.041  -0.040
    1UNL    C16   20   0.152   0.013  -0.130
    1UNL    C17   21   0.051  -0.070  -0.050
    1UNL     N2   22   0.130  -0.139   0.058
    1UNL    C18   23   0.265  -0.196   0.009
    1UNL    C19   24   0.351  -0.083  -0.030
    1UNL    C20   25   0.476  -0.095  -0.063
    1UNL    C21   26   0.558   0.010  -0.125
    1UNL     O4   27   0.547   0.140  -0.065
    1UNL     H1   28  -0.538  -0.420   0.065
    1UNL     H2   29  -0.374  -0.391   0.020
    1UNL     H3   30  -0.429  -0.344   0.191
    1UNL     H4   31  -0.560  -0.013  -0.081
    1UNL     H5   32  -0.392   0.395  -0.060
    1UNL     H6   33  -0.323   0.310  -0.212
    1UNL     H7   34  -0.490   0.374  -0.219
    1UNL     H8   35  -0.241  -0.196   0.093
    1UNL     H9   36  -0.010   0.112   0.225
    1UNL    H10   37  -0.054  -0.059   0.248
    1UNL    H11   38   0.189  -0.084   0.249
    1UNL    H12   39   0.331   0.069   0.162
    1UNL    H13   40   0.252   0.290   0.107
    1UNL    H14   41   0.123   0.231   0.215
    1UNL    H15   42   0.338   0.125  -0.077
    1UNL    H16   43   0.201  -0.031  -0.220
    1UNL    H17   44   0.102   0.103  -0.162
    1UNL    H18   45   0.000  -0.145  -0.116
    1UNL    H19   46   0.301  -0.245   0.100
    1UNL    H20   47   0.252  -0.263  -0.069
    1UNL    H21   48   0.527  -0.178  -0.020
    1UNL    H22   49   0.540   0.021  -0.233
    1UNL    H23   50   0.664  -0.002  -0.109
    1UNL    H24   51   0.532   0.125   0.029
   0.00000   0.00000   0.00000   0.00000   0.00000   0.00000   0.00000   0.00000   0.00000
Generated with MDTraj, t= 87.0
 51
    1UNL     C1    1  -0.426  -0.351   0.086
    1UNL     O1    2  -0.497  -0.239   0.030
    1UNL     C2    3  -0.416  -0.126   0.012
    1UNL     C3    4  -0.468  -0.011  -0.054
    1UNL     C4    5  -0.393   0.110  -0.073
    1UNL     O2    6  -0.438   0.213  -0.151
    1UNL     C5    7  -0.357   0.329  -0.163
    1UNL     C6    8  -0.255   0.104  -0.028
    1UNL     C7    9  -0.199  -0.018   0.020
    1UNL     C8   10  -0.275  -0.131   0.038
    1UNL     C9   11  -0.052   0.017   0.044
    1UNL    C10   12  -0.005   0.011   0.190
    1UNL    C11   13   0.142  -0.031   0.164
    1UNL    C12   14   0.232   0.093   0.103
    1UNL    C13   15   0.165   0.230   0.116
    1UNL     O3   16   0.069   0.252   0.013
    1UNL    C14   17  -0.043   0.170   0.007
    1UNL     N1   18  -0.162   0.210  -0.032
    1UNL    C15   19   0.265   0.051  -0.046
    1UNL    C16   20   0.136   0.018  -0.128
    1UNL    C17   21   0.044  -0.073  -0.040
    1UNL     N2   22   0.132  -0.134   0.062
    1UNL    C18   23   0.270  -0.195   0.021
    1UNL    C19   24   0.342  -0.080  -0.039
    1UNL    C20   25   0.465  -0.094  -0.079
    1UNL    C21   26   0.546   0.005  -0.148
    1UNL     O4   27   0.553   0.122  -0.067
    1UNL     H1   28  -0.492  -0.435   0.120
    1UNL     H2   29  -0.375  -0.398   0.003
    1UNL     H3   30  -0.359  -0.326   0.166
    1UNL     H4   31  -0.574  -0.017  -0.083
    1UNL     H5   32  -0.405   0.403  -0.095
    1UNL     H6   33  -0.249   0.323  -0.160
    1UNL     H7   34  -0.382   0.369  -0.264
    1UNL     H8   35  -0.215  -0.220   0.076
    1UNL     H9   36  -0.023   0.109   0.243
    1UNL    H10   37  -0.050  -0.070   0.252
    1UNL    H11   38   0.190  -0.075   0.252
    1UNL    H12   39   0.328   0.090   0.158
    1UNL    H13   40   0.240   0.312   0.105
    1UNL    H14   41   0.116   0.240   0.218
    1UNL    H15   42   0.315   0.140  -0.090
    1UNL    H16   43   0.152  -0.020  -0.231
    1UNL    H17   44   0.093   0.117  -0.144
    1UNL    H18   45  -0.017  -0.149  -0.103
    1UNL    H19   46   0.320  -0.241   0.107
    1UNL    H20   47   0.242  -0.272  -0.046
    1UNL    H21   48   0.521  -0.179  -0.037
    1UNL    H22   49   0.500   0.047  -0.239
    1UNL    H23   50   0.645  -0.027  -0.173
    1UNL    H24   51   0.556   0.098   0.022
   0.00000   0.00000   0.00000   0.00000   0.00000   0.00000   0.00000   0.00000   0.00000
Generated with MDTraj, t= 88.0
 51
    1UNL     C1    1  -0.425  -0.347   0.085
    1UNL     O1    2  -0.480  -0.247   0.003
    1UNL     C2    3  -0.406  -0.130   0.002
    1UNL     C3    4  -0.448  -0.015  -0.060
    1UNL     C4    5  -0.380   0.099  -0.085
    1UNL     O2    6  -0.460   0.204  -0.139
    1UNL     C5    7  -0.391   0.321  -0.199
    1UNL     C6    8  -0.250   0.111  -0.033
    1UNL     C7    9  -0.201  -0.003   0.041
    1UNL     C8   10  -0.283  -0.116   0.060
    1UNL     C9   11  -0.053   0.026   0.058
    1UNL    C10   12  -0.000   0.017   0.206
    1UNL    C11   13   0.151  -0.025   0.176
    1UNL    C12   14   0.237   0.088   0.111
    1UNL    C13   15   0.167   0.220   0.123
    1UNL     O3   16   0.071   0.257   0.027
    1UNL    C14   17  -0.048   0.177   0.016
    1UNL     N1   18  -0.156   0.214  -0.046
    1UNL    C15   19   0.267   0.055  -0.039
    1UNL    C16   20   0.134   0.029  -0.122
    1UNL    C17   21   0.047  -0.064  -0.029
    1UNL     N2   22   0.133  -0.137   0.071
    1UNL    C18   23   0.254  -0.188   0.008
    1UNL    C19   24   0.339  -0.076  -0.042
    1UNL    C20   25   0.454  -0.109  -0.100
    1UNL    C21   26   0.524   0.007  -0.162
    1UNL     O4   27   0.577   0.102  -0.062
    1UNL     H1   28  -0.471  -0.446   0.069
    1UNL     H2   29  -0.328  -0.376   0.052
    1UNL     H3   30  -0.430  -0.326   0.193
    1UNL     H4   31  -0.539  -0.023  -0.109
    1UNL     H5   32  -0.338   0.364  -0.114
    1UNL     H6   33  -0.336   0.312  -0.288
    1UNL     H7   34  -0.464   0.398  -0.220
    1UNL     H8   35  -0.236  -0.204   0.105
    1UNL     H9   36  -0.022   0.111   0.263
    1UNL    H10   37  -0.050  -0.067   0.261
    1UNL    H11   38   0.193  -0.078   0.263
    1UNL    H12   39   0.336   0.072   0.161
    1UNL    H13   40   0.252   0.295   0.109
    1UNL    H14   41   0.129   0.237   0.223
    1UNL    H15   42   0.324   0.137  -0.088
    1UNL    H16   43   0.156  -0.021  -0.218
    1UNL    H17   44   0.084   0.120  -0.152
    1UNL    H18   45  -0.015  -0.152  -0.076
    1UNL    H19   46   0.305  -0.246   0.083
    1UNL    H20   47   0.221  -0.254  -0.070
    1UNL    H21   48   0.508  -0.201  -0.095
    1UNL    H22   49   0.452   0.051  -0.234
    1UNL    H23   50   0.615  -0.020  -0.214
    1UNL    H24   51   0.648   0.059  -0.010
   0.00000   0.00000   0.00000   0.00000   0.00000   0.00000   0.00000   0.00000   0.00000
Generated with MDTraj, t= 89.0
 51
    1UNL     C1    1  -0.411  -0.357   0.086
    1UNL     O1    2  -0.469  -0.250   0.017
    1UNL     C2    3  -0.395  -0.130  -0.003
    1UNL     C3    4  -0.459  -0.019  -0.061
    1UNL     C4    5  -0.394   0.104  -0.071
    1UNL     O2    6  -0.451   0.206  -0.146
    1UNL     C5    7  -0.358   0.308  -0.176
    1UNL     C6    8  -0.260   0.110  -0.022
    1UNL     C7    9  -0.196  -0.005   0.023
    1UNL     C8   10  -0.255  -0.130   0.031
    1UNL     C9   11  -0.055   0.033   0.049
    1UNL    C10   12  -0.007   0.019   0.199
    1UNL    C11   13   0.139  -0.022   0.174
    1UNL    C12   14   0.225   0.094   0.113
    1UNL    C13   15   0.165   0.240   0.124
    1UNL     O3   16   0.061   0.266   0.029
    1UNL    C14   17  -0.055   0.182   0.013
    1UNL     N1   18  -0.177   0.221  -0.020
    1UNL    C15   19   0.270   0.049  -0.038
    1UNL    C16   20   0.144   0.039  -0.123
    1UNL    C17   21   0.041  -0.051  -0.047
    1UNL     N2   22   0.115  -0.122   0.063
    1UNL    C18   23   0.238  -0.185   0.013
    1UNL    C19   24   0.334  -0.083  -0.041
    1UNL    C20   25   0.455  -0.117  -0.090
    1UNL    C21   26   0.544  -0.017  -0.161
    1UNL     O4   27   0.576   0.090  -0.072
    1UNL     H1   28  -0.475  -0.442   0.118
    1UNL     H2   29  -0.341  -0.407   0.025
    1UNL     H3   30  -0.364  -0.321   0.179
    1UNL     H4   31  -0.567  -0.035  -0.082
    1UNL     H5   32  -0.356   0.368  -0.087
    1UNL     H6   33  -0.265   0.283  -0.215
    1UNL     H7   34  -0.403   0.365  -0.255
    1UNL     H8   35  -0.204  -0.210   0.069
    1UNL     H9   36  -0.014   0.114   0.253
    1UNL    H10   37  -0.068  -0.059   0.253
    1UNL    H11   38   0.176  -0.070   0.265
    1UNL    H12   39   0.317   0.092   0.178
    1UNL    H13   40   0.241   0.325   0.118
    1UNL    H14   41   0.120   0.249   0.216
    1UNL    H15   42   0.339   0.127  -0.074
    1UNL    H16   43   0.178  -0.013  -0.213
    1UNL    H17   44   0.102   0.134  -0.154
    1UNL    H18   45  -0.034  -0.115  -0.116
    1UNL    H19   46   0.276  -0.254   0.085
    1UNL    H20   47   0.210  -0.246  -0.073
    1UNL    H21   48   0.497  -0.217  -0.085
    1UNL    H22   49   0.485   0.048  -0.232
    1UNL    H23   50   0.623  -0.071  -0.217
    1UNL    H24   51   0.637   0.052   0.002
   0.00000   0.00000   0.00000   0.00000   0.00000   0.00000   0.00000   0.00000   0.00000
Generated with MDTraj, t= 90.0
 51
    1UNL     C1    1  -0.415  -0.350   0.068
    1UNL     O1    2  -0.473  -0.245   0.013
    1UNL     C2    3  -0.397  -0.131   0.002
    1UNL     C3    4  -0.454  -0.016  -0.047
    1UNL     C4    5  -0.395   0.107  -0.077
    1UNL     O2    6  -0.470   0.207  -0.133
    1UNL     C5    7  -0.400   0.322  -0.160
    1UNL     C6    8  -0.261   0.115  -0.038
    1UNL     C7    9  -0.201   0.007   0.027
    1UNL     C8   10  -0.270  -0.109   0.055
    1UNL     C9   11  -0.054   0.033   0.048
    1UNL    C10   12  -0.003   0.021   0.191
    1UNL    C11   13   0.139  -0.029   0.171
    1UNL    C12   14   0.229   0.084   0.108
    1UNL    C13   15   0.168   0.225   0.119
    1UNL     O3   16   0.065   0.256   0.021
    1UNL    C14   17  -0.049   0.179   0.002
    1UNL     N1   18  -0.165   0.222  -0.051
    1UNL    C15   19   0.272   0.042  -0.047
    1UNL    C16   20   0.142   0.015  -0.129
    1UNL    C17   21   0.044  -0.064  -0.036
    1UNL     N2   22   0.127  -0.137   0.068
    1UNL    C18   23   0.252  -0.195   0.019
    1UNL    C19   24   0.347  -0.087  -0.028
    1UNL    C20   25   0.464  -0.112  -0.093
    1UNL    C21   26   0.556  -0.009  -0.141
    1UNL     O4   27   0.571   0.112  -0.069
    1UNL     H1   28  -0.481  -0.438   0.071
    1UNL     H2   29  -0.330  -0.382   0.015
    1UNL     H3   30  -0.388  -0.320   0.173
    1UNL     H4   31  -0.555  -0.024  -0.077
    1UNL     H5   32  -0.345   0.360  -0.073
    1UNL     H6   33  -0.334   0.291  -0.237
    1UNL     H7   34  -0.464   0.397  -0.208
    1UNL     H8   35  -0.211  -0.191   0.107
    1UNL     H9   36  -0.007   0.113   0.251
    1UNL    H10   37  -0.069  -0.055   0.243
    1UNL    H11   38   0.182  -0.060   0.267
    1UNL    H12   39   0.330   0.097   0.159
    1UNL    H13   40   0.252   0.301   0.100
    1UNL    H14   41   0.130   0.260   0.207
    1UNL    H15   42   0.328   0.124  -0.096
    1UNL    H16   43   0.167  -0.036  -0.222
    1UNL    H17   44   0.094   0.111  -0.150
    1UNL    H18   45  -0.009  -0.153  -0.096
    1UNL    H19   46   0.302  -0.248   0.095
    1UNL    H20   47   0.235  -0.269  -0.061
    1UNL    H21   48   0.500  -0.208  -0.124
    1UNL    H22   49   0.546   0.008  -0.252
    1UNL    H23   50   0.663  -0.039  -0.126
    1UNL    H24   51   0.595   0.087   0.030
   0.00000   0.00000   0.00000   0.00000   0.00000   0.00000   0.00000   0.00000   0.00000
Generated with MDTraj, t= 91.0
 51
    1UNL     C1    1  -0.432  -0.360   0.056
    1UNL     O1    2  -0.489  -0.231   0.030
    1UNL     C2    3  -0.401  -0.121   0.008
    1UNL     C3    4  -0.463  -0.011  -0.054
    1UNL     C4    5  -0.390   0.108  -0.065
    1UNL     O2    6  -0.456   0.213  -0.135
    1UNL     C5    7  -0.391   0.337  -0.119
    1UNL     C6    8  -0.253   0.107  -0.027
    1UNL     C7    9  -0.193  -0.010   0.020
    1UNL     C8   10  -0.266  -0.125   0.040
    1UNL     C9   11  -0.051   0.028   0.032
    1UNL    C10   12   0.003   0.022   0.181
    1UNL    C11   13   0.147  -0.024   0.164
    1UNL    C12   14   0.236   0.088   0.097
    1UNL    C13   15   0.166   0.231   0.082
    1UNL     O3   16   0.069   0.254  -0.021
    1UNL    C14   17  -0.050   0.177  -0.015
    1UNL     N1   18  -0.168   0.213  -0.041
    1UNL    C15   19   0.271   0.036  -0.046
    1UNL    C16   20   0.151  -0.002  -0.130
    1UNL    C17   21   0.048  -0.078  -0.034
    1UNL     N2   22   0.133  -0.143   0.074
    1UNL    C18   23   0.255  -0.205   0.028
    1UNL    C19   24   0.342  -0.091  -0.037
    1UNL    C20   25   0.473  -0.105  -0.067
    1UNL    C21   26   0.550   0.009  -0.122
    1UNL     O4   27   0.538   0.131  -0.046
    1UNL     H1   28  -0.501  -0.444   0.070
    1UNL     H2   29  -0.362  -0.389  -0.019
    1UNL     H3   30  -0.376  -0.346   0.153
    1UNL     H4   31  -0.570  -0.015  -0.070
    1UNL     H5   32  -0.379   0.374  -0.014
    1UNL     H6   33  -0.293   0.304  -0.152
    1UNL     H7   34  -0.431   0.416  -0.190
    1UNL     H8   35  -0.220  -0.216   0.076
    1UNL     H9   36   0.010   0.125   0.224
    1UNL    H10   37  -0.061  -0.037   0.251
    1UNL    H11   38   0.200  -0.066   0.252
    1UNL    H12   39   0.333   0.109   0.152
    1UNL    H13   40   0.236   0.319   0.063
    1UNL    H14   41   0.128   0.258   0.171
    1UNL    H15   42   0.326   0.111  -0.105
    1UNL    H16   43   0.181  -0.058  -0.218
    1UNL    H17   44   0.110   0.092  -0.173
    1UNL    H18   45  -0.009  -0.161  -0.097
    1UNL    H19   46   0.305  -0.250   0.109
    1UNL    H20   47   0.235  -0.285  -0.047
    1UNL    H21   48   0.520  -0.201  -0.051
    1UNL    H22   49   0.511   0.059  -0.216
    1UNL    H23   50   0.656  -0.015  -0.143
    1UNL    H24   51   0.578   0.122   0.044
   0.00000   0.00000   0.00000   0.00000   0.00000   0.00000   0.00000   0.00000   0.00000
Generated with MDTraj, t= 92.0
 51
    1UNL     C1    1  -0.428  -0.352   0.057
    1UNL     O1    2  -0.497  -0.232   0.023
    1UNL     C2    3  -0.409  -0.122   0.014
    1UNL     C3    4  -0.471  -0.003  -0.029
    1UNL     C4    5  -0.396   0.105  -0.064
    1UNL     O2    6  -0.467   0.226  -0.094
    1UNL     C5    7  -0.390   0.344  -0.094
    1UNL     C6    8  -0.253   0.097  -0.050
    1UNL     C7    9  -0.198  -0.015   0.008
    1UNL     C8   10  -0.276  -0.122   0.041
    1UNL     C9   11  -0.053   0.019   0.027
    1UNL    C10   12   0.004   0.029   0.182
    1UNL    C11   13   0.148  -0.016   0.161
    1UNL    C12   14   0.230   0.094   0.083
    1UNL    C13   15   0.153   0.229   0.071
    1UNL     O3   16   0.058   0.247  -0.032
    1UNL    C14   17  -0.045   0.162  -0.031
    1UNL     N1   18  -0.158   0.195  -0.087
    1UNL    C15   19   0.267   0.041  -0.052
    1UNL    C16   20   0.142   0.003  -0.136
    1UNL    C17   21   0.052  -0.084  -0.041
    1UNL     N2   22   0.141  -0.137   0.070
    1UNL    C18   23   0.266  -0.208   0.023
    1UNL    C19   24   0.349  -0.092  -0.029
    1UNL    C20   25   0.484  -0.106  -0.047
    1UNL    C21   26   0.570   0.005  -0.100
    1UNL     O4   27   0.555   0.133  -0.034
    1UNL     H1   28  -0.494  -0.438   0.045
    1UNL     H2   29  -0.340  -0.364  -0.002
    1UNL     H3   30  -0.397  -0.344   0.168
    1UNL     H4   31  -0.576  -0.000  -0.061
    1UNL     H5   32  -0.301   0.339  -0.024
    1UNL     H6   33  -0.344   0.352  -0.195
    1UNL     H7   34  -0.462   0.431  -0.070
    1UNL     H8   35  -0.227  -0.207   0.063
    1UNL     H9   36  -0.021   0.129   0.229
    1UNL    H10   37  -0.046  -0.044   0.249
    1UNL    H11   38   0.185  -0.036   0.265
    1UNL    H12   39   0.326   0.118   0.140
    1UNL    H13   40   0.227   0.312   0.065
    1UNL    H14   41   0.102   0.253   0.156
    1UNL    H15   42   0.316   0.113  -0.120
    1UNL    H16   43   0.163  -0.052  -0.227
    1UNL    H17   44   0.095   0.094  -0.177
    1UNL    H18   45   0.003  -0.172  -0.101
    1UNL    H19   46   0.314  -0.253   0.106
    1UNL    H20   47   0.253  -0.281  -0.060
    1UNL    H21   48   0.535  -0.201  -0.038
    1UNL    H22   49   0.551   0.006  -0.209
    1UNL    H23   50   0.676  -0.016  -0.087
    1UNL    H24   51   0.577   0.120   0.055
   0.00000   0.00000   0.00000   0.00000   0.00000   0.00000   0.00000   0.00000   0.00000
Generated with MDTraj, t= 93.0
 51
    1UNL     C1    1  -0.423  -0.353   0.070
    1UNL     O1    2  -0.489  -0.234   0.041
    1UNL     C2    3  -0.404  -0.131   0.008
    1UNL     C3    4  -0.469  -0.013  -0.027
    1UNL     C4    5  -0.402   0.114  -0.043
    1UNL     O2    6  -0.474   0.222  -0.083
    1UNL     C5    7  -0.407   0.342  -0.103
    1UNL     C6    8  -0.259   0.107  -0.031
    1UNL     C7    9  -0.196  -0.013  -0.005
    1UNL     C8   10  -0.264  -0.129   0.001
    1UNL     C9   11  -0.053   0.025   0.012
    1UNL    C10   12  -0.014   0.022   0.161
    1UNL    C11   13   0.137  -0.007   0.147
    1UNL    C12   14   0.232   0.093   0.083
    1UNL    C13   15   0.157   0.230   0.061
    1UNL     O3   16   0.068   0.245  -0.052
    1UNL    C14   17  -0.049   0.167  -0.036
    1UNL     N1   18  -0.170   0.214  -0.045
    1UNL    C15   19   0.287   0.034  -0.053
    1UNL    C16   20   0.160   0.008  -0.144
    1UNL    C17   21   0.053  -0.070  -0.060
    1UNL     N2   22   0.127  -0.137   0.057
    1UNL    C18   23   0.261  -0.194   0.037
    1UNL    C19   24   0.350  -0.093  -0.026
    1UNL    C20   25   0.484  -0.107  -0.037
    1UNL    C21   26   0.575  -0.003  -0.090
    1UNL     O4   27   0.563   0.113  -0.017
    1UNL     H1   28  -0.505  -0.418   0.099
    1UNL     H2   29  -0.371  -0.384  -0.018
    1UNL     H3   30  -0.344  -0.341   0.154
    1UNL     H4   31  -0.573  -0.018  -0.026
    1UNL     H5   32  -0.392   0.385  -0.000
    1UNL     H6   33  -0.305   0.338  -0.145
    1UNL     H7   34  -0.485   0.406  -0.157
    1UNL     H8   35  -0.212  -0.228   0.024
    1UNL     H9   36  -0.035   0.121   0.215
    1UNL    H10   37  -0.066  -0.062   0.212
    1UNL    H11   38   0.173  -0.051   0.243
    1UNL    H12   39   0.316   0.119   0.155
    1UNL    H13   40   0.234   0.303   0.033
    1UNL    H14   41   0.112   0.264   0.149
    1UNL    H15   42   0.357   0.105  -0.098
    1UNL    H16   43   0.194  -0.054  -0.226
    1UNL    H17   44   0.114   0.097  -0.188
    1UNL    H18   45   0.006  -0.155  -0.120
    1UNL    H19   46   0.306  -0.220   0.131
    1UNL    H20   47   0.245  -0.284  -0.026
    1UNL    H21   48   0.523  -0.201  -0.001
    1UNL    H22   49   0.544   0.029  -0.190
    1UNL    H23   50   0.674  -0.047  -0.096
    1UNL    H24   51   0.593   0.101   0.072
   0.00000   0.00000   0.00000   0.00000   0.00000   0.00000   0.00000   0.00000   0.00000
Generated with MDTraj, t= 94.0
 51
    1UNL     C1    1  -0.400  -0.359   0.085
    1UNL     O1    2  -0.475  -0.247   0.030
    1UNL     C2    3  -0.398  -0.132   0.007
    1UNL     C3    4  -0.466  -0.014  -0.031
    1UNL     C4    5  -0.401   0.109  -0.056
    1UNL     O2    6  -0.481   0.221  -0.076
    1UNL     C5    7  -0.404   0.339  -0.112
    1UNL     C6    8  -0.262   0.103  -0.049
    1UNL     C7    9  -0.194  -0.008   0.007
    1UNL     C8   10  -0.259  -0.122   0.041
    1UNL     C9   11  -0.051   0.037   0.026
    1UNL    C10   12  -0.014   0.035   0.170
    1UNL    C11   13   0.134  -0.021   0.152
    1UNL    C12   14   0.225   0.086   0.083
    1UNL    C13   15   0.169   0.228   0.069
    1UNL     O3   16   0.068   0.248  -0.033
    1UNL    C14   17  -0.053   0.174  -0.031
    1UNL     N1   18  -0.169   0.205  -0.085
    1UNL    C15   19   0.275   0.042  -0.062
    1UNL    C16   20   0.150   0.017  -0.149
    1UNL    C17   21   0.044  -0.051  -0.064
    1UNL     N2   22   0.118  -0.120   0.048
    1UNL    C18   23   0.250  -0.192   0.018
    1UNL    C19   24   0.340  -0.092  -0.039
    1UNL    C20   25   0.473  -0.113  -0.047
    1UNL    C21   26   0.572  -0.012  -0.085
    1UNL     O4   27   0.581   0.099   0.000
    1UNL     H1   28  -0.464  -0.444   0.075
    1UNL     H2   29  -0.309  -0.363   0.028
    1UNL     H3   30  -0.365  -0.341   0.193
    1UNL     H4   31  -0.573  -0.022  -0.061
    1UNL     H5   32  -0.322   0.343  -0.042
    1UNL     H6   33  -0.362   0.351  -0.210
    1UNL     H7   34  -0.474   0.416  -0.080
    1UNL     H8   35  -0.218  -0.200   0.101
    1UNL     H9   36  -0.021   0.137   0.218
    1UNL    H10   37  -0.084  -0.037   0.221
    1UNL    H11   38   0.174  -0.058   0.250
    1UNL    H12   39   0.321   0.104   0.137
    1UNL    H13   40   0.245   0.305   0.053
    1UNL    H14   41   0.111   0.245   0.157
    1UNL    H15   42   0.356   0.109  -0.095
    1UNL    H16   43   0.170  -0.054  -0.228
    1UNL    H17   44   0.109   0.109  -0.191
    1UNL    H18   45  -0.020  -0.118  -0.122
    1UNL    H19   46   0.283  -0.224   0.117
    1UNL    H20   47   0.235  -0.275  -0.052
    1UNL    H21   48   0.501  -0.216  -0.026
    1UNL    H22   49   0.552   0.016  -0.188
    1UNL    H23   50   0.673  -0.052  -0.077
    1UNL    H24   51   0.596   0.074   0.098
   0.00000   0.00000   0.00000   0.00000   0.00000   0.00000   0.00000   0.00000   0.00000
Generated with MDTraj, t= 95.0
 51
    1UNL     C1    1  -0.406  -0.351   0.091
    1UNL     O1    2  -0.481  -0.243   0.039
    1UNL     C2    3  -0.398  -0.131   0.009
    1UNL     C3    4  -0.462  -0.013  -0.037
    1UNL     C4    5  -0.398   0.103  -0.064
    1UNL     O2    6  -0.472   0.202  -0.135
    1UNL     C5    7  -0.415   0.340  -0.122
    1UNL     C6    8  -0.261   0.112  -0.033
    1UNL     C7    9  -0.200  -0.003   0.025
    1UNL     C8   10  -0.261  -0.126   0.021
    1UNL     C9   11  -0.050   0.033   0.038
    1UNL    C10   12   0.001   0.035   0.178
    1UNL    C11   13   0.148  -0.013   0.151
    1UNL    C12   14   0.237   0.089   0.077
    1UNL    C13   15   0.177   0.228   0.074
    1UNL     O3   16   0.064   0.246  -0.023
    1UNL    C14   17  -0.055   0.176  -0.009
    1UNL     N1   18  -0.176   0.215  -0.046
    1UNL    C15   19   0.273   0.043  -0.064
    1UNL    C16   20   0.141   0.020  -0.144
    1UNL    C17   21   0.042  -0.055  -0.052
    1UNL     N2   22   0.119  -0.126   0.056
    1UNL    C18   23   0.251  -0.192   0.014
    1UNL    C19   24   0.343  -0.094  -0.048
    1UNL    C20   25   0.475  -0.113  -0.074
    1UNL    C21   26   0.575  -0.005  -0.100
    1UNL     O4   27   0.568   0.088   0.011
    1UNL     H1   28  -0.479  -0.420   0.124
    1UNL     H2   29  -0.348  -0.388   0.007
    1UNL     H3   30  -0.333  -0.319   0.171
    1UNL     H4   31  -0.565  -0.019  -0.059
    1UNL     H5   32  -0.442   0.373  -0.024
    1UNL     H6   33  -0.311   0.352  -0.129
    1UNL     H7   34  -0.468   0.406  -0.186
    1UNL     H8   35  -0.210  -0.213   0.044
    1UNL     H9   36  -0.006   0.137   0.221
    1UNL    H10   37  -0.064  -0.030   0.248
    1UNL    H11   38   0.196  -0.070   0.233
    1UNL    H12   39   0.333   0.098   0.132
    1UNL    H13   40   0.249   0.294   0.026
    1UNL    H14   41   0.148   0.277   0.167
    1UNL    H15   42   0.331   0.118  -0.119
    1UNL    H16   43   0.154  -0.028  -0.240
    1UNL    H17   44   0.093   0.113  -0.170
    1UNL    H18   45  -0.017  -0.127  -0.104
    1UNL    H19   46   0.297  -0.227   0.107
    1UNL    H20   47   0.220  -0.272  -0.051
    1UNL    H21   48   0.499  -0.216  -0.060
    1UNL    H22   49   0.558   0.049  -0.192
    1UNL    H23   50   0.678  -0.044  -0.107
    1UNL    H24   51   0.587   0.033   0.099
   0.00000   0.00000   0.00000   0.00000   0.00000   0.00000   0.00000   0.00000   0.00000
Generated with MDTraj, t= 96.0
 51
    1UNL     C1    1  -0.428  -0.346   0.098
    1UNL     O1    2  -0.481  -0.241   0.025
    1UNL     C2    3  -0.398  -0.125   0.015
    1UNL     C3    4  -0.461  -0.019  -0.055
    1UNL     C4    5  -0.396   0.100  -0.079
    1UNL     O2    6  -0.457   0.203  -0.140
    1UNL     C5    7  -0.387   0.328  -0.137
    1UNL     C6    8  -0.255   0.104  -0.039
    1UNL     C7    9  -0.196  -0.002   0.036
    1UNL     C8   10  -0.264  -0.119   0.064
    1UNL     C9   11  -0.047   0.035   0.045
    1UNL    C10   12   0.012   0.028   0.189
    1UNL    C11   13   0.146  -0.028   0.155
    1UNL    C12   14   0.231   0.085   0.088
    1UNL    C13   15   0.169   0.227   0.092
    1UNL     O3   16   0.062   0.258  -0.006
    1UNL    C14   17  -0.048   0.176  -0.012
    1UNL     N1   18  -0.162   0.205  -0.061
    1UNL    C15   19   0.265   0.049  -0.054
    1UNL    C16   20   0.129   0.022  -0.137
    1UNL    C17   21   0.032  -0.063  -0.045
    1UNL     N2   22   0.113  -0.140   0.057
    1UNL    C18   23   0.249  -0.201  -0.003
    1UNL    C19   24   0.336  -0.090  -0.057
    1UNL    C20   25   0.471  -0.105  -0.070
    1UNL    C21   26   0.557   0.011  -0.112
    1UNL     O4   27   0.579   0.108  -0.014
    1UNL     H1   28  -0.484  -0.429   0.065
    1UNL     H2   29  -0.322  -0.352   0.077
    1UNL     H3   30  -0.439  -0.330   0.208
    1UNL     H4   31  -0.553  -0.040  -0.111
    1UNL     H5   32  -0.327   0.350  -0.050
    1UNL     H6   33  -0.329   0.327  -0.226
    1UNL     H7   34  -0.458   0.407  -0.147
    1UNL     H8   35  -0.208  -0.208   0.109
    1UNL     H9   36   0.015   0.119   0.253
    1UNL    H10   37  -0.038  -0.051   0.259
    1UNL    H11   38   0.192  -0.084   0.240
    1UNL    H12   39   0.316   0.091   0.157
    1UNL    H13   40   0.242   0.301   0.057
    1UNL    H14   41   0.137   0.263   0.192
    1UNL    H15   42   0.328   0.121  -0.107
    1UNL    H16   43   0.149  -0.023  -0.233
    1UNL    H17   44   0.085   0.114  -0.167
    1UNL    H18   45  -0.030  -0.127  -0.099
    1UNL    H19   46   0.306  -0.252   0.076
    1UNL    H20   47   0.216  -0.269  -0.078
    1UNL    H21   48   0.502  -0.209  -0.054
    1UNL    H22   49   0.502   0.064  -0.191
    1UNL    H23   50   0.654  -0.021  -0.157
    1UNL    H24   51   0.623   0.065   0.066
   0.00000   0.00000   0.00000   0.00000   0.00000   0.00000   0.00000   0.00000   0.00000
Generated with MDTraj, t= 97.0
 51
    1UNL     C1    1  -0.437  -0.329   0.105
    1UNL     O1    2  -0.491  -0.228   0.030
    1UNL     C2    3  -0.404  -0.128  -0.003
    1UNL     C3    4  -0.455  -0.015  -0.058
    1UNL     C4    5  -0.389   0.108  -0.071
    1UNL     O2    6  -0.455   0.209  -0.140
    1UNL     C5    7  -0.377   0.318  -0.169
    1UNL     C6    8  -0.257   0.107  -0.032
    1UNL     C7    9  -0.191  -0.006   0.022
    1UNL     C8   10  -0.265  -0.126   0.032
    1UNL     C9   11  -0.044   0.022   0.042
    1UNL    C10   12   0.002   0.006   0.185
    1UNL    C11   13   0.149  -0.033   0.170
    1UNL    C12   14   0.226   0.087   0.100
    1UNL    C13   15   0.154   0.223   0.107
    1UNL     O3   16   0.050   0.256   0.012
    1UNL    C14   17  -0.056   0.175   0.007
    1UNL     N1   18  -0.169   0.215  -0.042
    1UNL    C15   19   0.263   0.048  -0.040
    1UNL    C16   20   0.139   0.022  -0.124
    1UNL    C17   21   0.057  -0.073  -0.041
    1UNL     N2   22   0.137  -0.144   0.070
    1UNL    C18   23   0.270  -0.198   0.013
    1UNL    C19   24   0.344  -0.087  -0.039
    1UNL    C20   25   0.467  -0.107  -0.097
    1UNL    C21   26   0.549   0.011  -0.139
    1UNL     O4   27   0.560   0.117  -0.050
    1UNL     H1   28  -0.521  -0.373   0.149
    1UNL     H2   29  -0.380  -0.399   0.042
    1UNL     H3   30  -0.368  -0.293   0.184
    1UNL     H4   31  -0.557  -0.009  -0.089
    1UNL     H5   32  -0.366   0.399  -0.094
    1UNL     H6   33  -0.285   0.268  -0.203
    1UNL     H7   34  -0.412   0.366  -0.261
    1UNL     H8   35  -0.216  -0.212   0.067
    1UNL     H9   36  -0.013   0.104   0.241
    1UNL    H10   37  -0.047  -0.075   0.252
    1UNL    H11   38   0.194  -0.066   0.264
    1UNL    H12   39   0.315   0.110   0.157
    1UNL    H13   40   0.229   0.299   0.083
    1UNL    H14   41   0.117   0.246   0.210
    1UNL    H15   42   0.332   0.118  -0.088
    1UNL    H16   43   0.168  -0.037  -0.210
    1UNL    H17   44   0.097   0.118  -0.151
    1UNL    H18   45   0.007  -0.137  -0.103
    1UNL    H19   46   0.323  -0.236   0.104
    1UNL    H20   47   0.260  -0.275  -0.060
    1UNL    H21   48   0.497  -0.208  -0.117
    1UNL    H22   49   0.507   0.048  -0.233
    1UNL    H23   50   0.657  -0.018  -0.154
    1UNL    H24   51   0.586   0.093   0.038
   0.00000   0.00000   0.00000   0.00000   0.00000   0.00000   0.00000   0.00000   0.00000
Generated with MDTraj, t= 98.0
 51
    1UNL     C1    1  -0.449  -0.333   0.113
    1UNL     O1    2  -0.489  -0.229   0.016
    1UNL     C2    3  -0.399  -0.122   0.004
    1UNL     C3    4  -0.462  -0.007  -0.045
    1UNL     C4    5  -0.389   0.108  -0.070
    1UNL     O2    6  -0.453   0.217  -0.135
    1UNL     C5    7  -0.359   0.307  -0.188
    1UNL     C6    8  -0.253   0.101  -0.040
    1UNL     C7    9  -0.192  -0.008   0.016
    1UNL     C8   10  -0.264  -0.126   0.047
    1UNL     C9   11  -0.050   0.026   0.036
    1UNL    C10   12  -0.009  -0.005   0.183
    1UNL    C11   13   0.135  -0.041   0.167
    1UNL    C12   14   0.222   0.081   0.120
    1UNL    C13   15   0.148   0.224   0.128
    1UNL     O3   16   0.056   0.259   0.022
    1UNL    C14   17  -0.048   0.173   0.003
    1UNL     N1   18  -0.162   0.204  -0.050
    1UNL    C15   19   0.280   0.046  -0.024
    1UNL    C16   20   0.156   0.026  -0.117
    1UNL    C17   21   0.050  -0.067  -0.043
    1UNL     N2   22   0.129  -0.147   0.060
    1UNL    C18   23   0.259  -0.203   0.017
    1UNL    C19   24   0.348  -0.088  -0.025
    1UNL    C20   25   0.476  -0.091  -0.073
    1UNL    C21   26   0.551   0.011  -0.161
    1UNL     O4   27   0.553   0.138  -0.099
    1UNL     H1   28  -0.515  -0.415   0.110
    1UNL     H2   29  -0.343  -0.370   0.107
    1UNL     H3   30  -0.457  -0.294   0.214
    1UNL     H4   31  -0.566  -0.021  -0.067
    1UNL     H5   32  -0.285   0.340  -0.109
    1UNL     H6   33  -0.310   0.249  -0.273
    1UNL     H7   34  -0.398   0.404  -0.225
    1UNL     H8   35  -0.214  -0.211   0.078
    1UNL     H9   36  -0.028   0.079   0.262
    1UNL    H10   37  -0.078  -0.094   0.205
    1UNL    H11   38   0.183  -0.104   0.244
    1UNL    H12   39   0.299   0.098   0.193
    1UNL    H13   40   0.221   0.304   0.123
    1UNL    H14   41   0.097   0.236   0.229
    1UNL    H15   42   0.347   0.125  -0.061
    1UNL    H16   43   0.191  -0.016  -0.210
    1UNL    H17   44   0.101   0.116  -0.128
    1UNL    H18   45  -0.008  -0.136  -0.091
    1UNL    H19   46   0.307  -0.265   0.098
    1UNL    H20   47   0.232  -0.269  -0.062
    1UNL    H21   48   0.513  -0.193  -0.063
    1UNL    H22   49   0.500   0.028  -0.256
    1UNL    H23   50   0.655  -0.029  -0.178
    1UNL    H24   51   0.600   0.129  -0.019
   0.00000   0.00000   0.00000   0.00000   0.00000   0.00000   0.00000   0.00000   0.00000
Generated with MDTraj, t= 99.0
 51
    1UNL     C1    1  -0.449  -0.333   0.102
    1UNL     O1    2  -0.504  -0.224   0.028
    1UNL     C2    3  -0.408  -0.127  -0.004
    1UNL     C3    4  -0.459  -0.012  -0.065
    1UNL     C4    5  -0.386   0.100  -0.078
    1UNL     O2    6  -0.449   0.209  -0.140
    1UNL     C5    7  -0.370   0.313  -0.186
    1UNL     C6    8  -0.248   0.103  -0.041
    1UNL     C7    9  -0.193  -0.011   0.012
    1UNL     C8   10  -0.271  -0.125   0.028
    1UNL     C9   11  -0.055   0.021   0.053
    1UNL    C10   12  -0.011   0.005   0.201
    1UNL    C11   13   0.142  -0.033   0.177
    1UNL    C12   14   0.229   0.079   0.117
    1UNL    C13   15   0.168   0.217   0.120
    1UNL     O3   16   0.059   0.255   0.031
    1UNL    C14   17  -0.048   0.168   0.014
    1UNL     N1   18  -0.157   0.208  -0.038
    1UNL    C15   19   0.276   0.042  -0.032
    1UNL    C16   20   0.152   0.018  -0.117
    1UNL    C17   21   0.056  -0.061  -0.034
    1UNL     N2   22   0.139  -0.137   0.069
    1UNL    C18   23   0.270  -0.196   0.025
    1UNL    C19   24   0.353  -0.088  -0.030
    1UNL    C20   25   0.470  -0.101  -0.100
    1UNL    C21   26   0.540   0.014  -0.159
    1UNL     O4   27   0.541   0.140  -0.093
    1UNL     H1   28  -0.527  -0.384   0.154
    1UNL     H2   29  -0.387  -0.408   0.042
    1UNL     H3   30  -0.388  -0.294   0.183
    1UNL     H4   31  -0.560  -0.009  -0.101
    1UNL     H5   32  -0.347   0.370  -0.091
    1UNL     H6   33  -0.274   0.269  -0.230
    1UNL     H7   34  -0.414   0.386  -0.258
    1UNL     H8   35  -0.212  -0.221   0.054
    1UNL     H9   36  -0.039   0.107   0.248
    1UNL    H10   37  -0.087  -0.070   0.243
    1UNL    H11   38   0.181  -0.062   0.273
    1UNL    H12   39   0.324   0.095   0.164
    1UNL    H13   40   0.248   0.289   0.103
    1UNL    H14   41   0.129   0.248   0.223
    1UNL    H15   42   0.335   0.122  -0.076
    1UNL    H16   43   0.170  -0.046  -0.202
    1UNL    H17   44   0.110   0.114  -0.145
    1UNL    H18   45   0.008  -0.125  -0.096
    1UNL    H19   46   0.312  -0.242   0.119
    1UNL    H20   47   0.260  -0.276  -0.047
    1UNL    H21   48   0.502  -0.202  -0.119
    1UNL    H22   49   0.497   0.025  -0.259
    1UNL    H23   50   0.648  -0.008  -0.165
    1UNL    H24   51   0.566   0.125   0.003
   0.00000   0.00000   0.00000   0.00000   0.00000   0.00000   0.00000   0.00000   0.00000
