1TPCN04209
42
    1res  C1    1    1.494   0.136   0.194
    1res  C2    2    1.558  -0.064  -0.015
    1res  C3    3    1.373  -0.191  -0.031
    1res  C4    4    1.111  -0.244  -0.050
    1res  C5    5    1.132   0.034  -0.098
    1res  C6    6    0.870  -0.171   0.044
    1res  C7    7    0.673  -0.048   0.099
    1res  C8    8    0.467  -0.086  -0.104
    1res  C9    9    0.282   0.115  -0.181
    1res  C10   10    0.403  -0.032  -0.410
    1res  C11   11    0.338   0.250  -0.446
    1res  C12   12   -0.017  -0.106  -0.313
    1res  C13   13   -0.090   0.192  -0.270
    1res  C14   14   -0.146  -0.040   0.000
    1res  C15   15   -0.374   0.235  -0.125
    1res  C16   16   -0.436   0.160   0.138
    1res  C17   17   -0.662   0.071   0.063
    1res  C18   18   -0.872  -0.052   0.232
    1res  C19   19   -1.055  -0.168   0.210
    1res  C20   20   -1.160  -0.409   0.366
    1res  C21   21   -1.176  -0.472   0.673
    1res  C22   22   -1.386  -0.273   0.493
    1res  C23   23   -1.460  -0.346   0.259
    1res  C24   24   -1.255  -0.430   0.156
    1res  C25   25   -1.129  -0.010   0.089
    1res  C26   26   -0.990   0.157   0.115
    1res  C27   27   -1.062   0.346   0.066
    1res  C28   28   -1.007   0.582  -0.120
    1res  C29   29   -1.027   0.397  -0.292
    1res  C30   30   -1.211   0.290  -0.264
    1res  C31   31   -1.288   0.304  -0.032
    1res  C32   32   -0.671   0.118  -0.181
    1res  C33   33   -0.356  -0.137  -0.163
    1res  C34   34    0.154  -0.227  -0.141
    1res  C35   35    0.504   0.194   0.120
    1res  C36   36    0.700   0.195   0.298
    1res  C37   37    0.867   0.106   0.167
    1res  C38   38    1.184  -0.248   0.206
    1res  C39   39    1.319  -0.408   0.072
    1res  C40   40    1.614  -0.256   0.148
    1res  C41   41    1.790  -0.105   0.129
    1res  C42   42    1.767   0.069   0.269
  10.00000  10.00000  10.00000
