Generated with MDTraj, t= 0.0
 94
    1UNL     C1    1  -0.367   0.339  -0.213
    1UNL     C2    2  -0.497   0.302  -0.152
    1UNL     C3    3  -0.515   0.203  -0.066
    1UNL     C4    4  -0.651   0.158  -0.019
    1UNL     N1    5  -0.669   0.007  -0.011
    1UNL     C5    6  -0.790  -0.035   0.064
    1UNL     C6    7  -0.549  -0.085   0.002
    1UNL     C7    8  -0.503  -0.110   0.148
    1UNL     C8    9  -0.359  -0.154   0.157
    1UNL     C9   10  -0.240  -0.081   0.147
    1UNL     N2   11  -0.135  -0.170   0.147
    1UNL    C10   12  -0.183  -0.299   0.153
    1UNL    C11   13  -0.117  -0.423   0.153
    1UNL    C12   14  -0.193  -0.537   0.157
    1UNL    C13   15  -0.333  -0.531   0.161
    1UNL    C14   16  -0.399  -0.410   0.162
    1UNL    C15   17  -0.323  -0.292   0.159
    1UNL    C16   18  -0.214   0.069   0.141
    1UNL    C17   19  -0.069   0.101   0.169
    1UNL    C18   20  -0.031   0.156   0.294
    1UNL    C19   21   0.099   0.185   0.323
    1UNL    C20   22   0.197   0.158   0.227
    1UNL     N3   23   0.335   0.176   0.227
    1UNL    C21   24   0.386   0.132   0.107
    1UNL    C22   25   0.282   0.086   0.028
    1UNL    C23   26   0.162   0.102   0.103
    1UNL    C24   27   0.027   0.075   0.075
    1UNL    C25   28   0.292   0.031  -0.110
    1UNL    C26   29   0.395  -0.081  -0.125
    1UNL     N4   30   0.536  -0.035  -0.110
    1UNL    C27   31   0.586   0.062  -0.213
    1UNL    C28   32   0.661   0.178  -0.144
    1UNL    C29   33   0.785   0.118  -0.073
    1UNL    C30   34   0.741   0.003   0.025
    1UNL    C31   35   0.801  -0.133  -0.013
    1UNL    C32   36   0.952  -0.139   0.003
    1UNL    C33   37   0.586  -0.002   0.028
    1UNL    C34   38   0.531   0.136   0.072
    1UNL    C35   39   0.566   0.242  -0.039
    1UNL    C36   40  -0.260   0.141   0.011
    1UNL    C37   41  -0.408   0.110  -0.013
    1UNL    C38   42  -0.431  -0.028  -0.079
    1UNL    C39   43  -0.456  -0.019  -0.228
    1UNL     O1   44  -0.373   0.037  -0.296
    1UNL     O2   45  -0.569  -0.077  -0.276
    1UNL    C40   46  -0.576  -0.058  -0.414
    1UNL     H1   47  -0.316   0.249  -0.249
    1UNL     H2   48  -0.302   0.388  -0.140
    1UNL     H3   49  -0.379   0.406  -0.298
    1UNL     H4   50  -0.584   0.358  -0.183
    1UNL     H5   51  -0.728   0.196  -0.087
    1UNL     H6   52  -0.672   0.200   0.079
    1UNL     H7   53  -0.809  -0.141   0.048
    1UNL     H8   54  -0.777  -0.017   0.170
    1UNL     H9   55  -0.877   0.021   0.029
    1UNL    H10   56  -0.578  -0.180  -0.045
    1UNL    H11   57  -0.518  -0.021   0.209
    1UNL    H12   58  -0.567  -0.185   0.195
    1UNL    H13   59  -0.036  -0.146   0.143
    1UNL    H14   60  -0.010  -0.427   0.149
    1UNL    H15   61  -0.145  -0.633   0.157
    1UNL    H16   62  -0.390  -0.622   0.164
    1UNL    H17   63  -0.506  -0.405   0.165
    1UNL    H18   64  -0.272   0.113   0.224
    1UNL    H19   65  -0.108   0.176   0.367
    1UNL    H20   66   0.128   0.228   0.418
    1UNL    H21   67   0.388   0.216   0.304
    1UNL    H22   68   0.000   0.031  -0.020
    1UNL    H23   69   0.314   0.113  -0.179
    1UNL    H24   70   0.193  -0.006  -0.140
    1UNL    H25   71   0.376  -0.159  -0.051
    1UNL    H26   72   0.386  -0.128  -0.223
    1UNL    H27   73   0.652   0.008  -0.281
    1UNL    H28   74   0.502   0.099  -0.272
    1UNL    H29   75   0.691   0.253  -0.219
    1UNL    H30   76   0.855   0.079  -0.147
    1UNL    H31   77   0.839   0.197  -0.019
    1UNL    H32   78   0.776   0.028   0.126
    1UNL    H33   79   0.773  -0.156  -0.117
    1UNL    H34   80   0.754  -0.211   0.047
    1UNL    H35   81   0.981  -0.119   0.106
    1UNL    H36   82   0.992  -0.238  -0.023
    1UNL    H37   83   1.003  -0.066  -0.060
    1UNL    H38   84   0.550  -0.081   0.096
    1UNL    H39   85   0.585   0.164   0.163
    1UNL    H40   86   0.611   0.331   0.005
    1UNL    H41   87   0.474   0.275  -0.087
    1UNL    H42   88  -0.244   0.249   0.020
    1UNL    H43   89  -0.201   0.108  -0.075
    1UNL    H44   90  -0.443   0.101   0.092
    1UNL    H45   91  -0.342  -0.091  -0.066
    1UNL    H46   92  -0.488  -0.104  -0.460
    1UNL    H47   93  -0.667  -0.105  -0.452
    1UNL    H48   94  -0.577   0.049  -0.435
   0.00000   0.00000   0.00000   0.00000   0.00000   0.00000   0.00000   0.00000   0.00000
Generated with MDTraj, t= 1.0
 94
    1UNL     C1    1  -0.368   0.403  -0.142
    1UNL     C2    2  -0.502   0.331  -0.126
    1UNL     C3    3  -0.522   0.209  -0.069
    1UNL     C4    4  -0.661   0.157  -0.046
    1UNL     N1    5  -0.670   0.020   0.019
    1UNL     C5    6  -0.801  -0.049   0.041
    1UNL     C6    7  -0.570  -0.082   0.000
    1UNL     C7    8  -0.505  -0.114   0.144
    1UNL     C8    9  -0.360  -0.165   0.150
    1UNL     C9   10  -0.240  -0.093   0.119
    1UNL     N2   11  -0.131  -0.178   0.124
    1UNL    C10   12  -0.182  -0.307   0.158
    1UNL    C11   13  -0.116  -0.432   0.160
    1UNL    C12   14  -0.189  -0.543   0.197
    1UNL    C13   15  -0.326  -0.531   0.221
    1UNL    C14   16  -0.396  -0.413   0.207
    1UNL    C15   17  -0.319  -0.300   0.174
    1UNL    C16   18  -0.211   0.055   0.113
    1UNL    C17   19  -0.066   0.096   0.142
    1UNL    C18   20  -0.036   0.154   0.271
    1UNL    C19   21   0.091   0.204   0.295
    1UNL    C20   22   0.194   0.165   0.203
    1UNL     N3   23   0.329   0.166   0.218
    1UNL    C21   24   0.392   0.113   0.105
    1UNL    C22   25   0.292   0.088   0.013
    1UNL    C23   26   0.166   0.112   0.081
    1UNL    C24   27   0.031   0.076   0.049
    1UNL    C25   28   0.312   0.045  -0.131
    1UNL    C26   29   0.417  -0.062  -0.158
    1UNL     N4   30   0.557  -0.014  -0.114
    1UNL    C27   31   0.618   0.091  -0.200
    1UNL    C28   32   0.687   0.193  -0.110
    1UNL    C29   33   0.802   0.116  -0.038
    1UNL    C30   34   0.748  -0.008   0.041
    1UNL    C31   35   0.809  -0.137  -0.017
    1UNL    C32   36   0.958  -0.159  -0.006
    1UNL    C33   37   0.596  -0.015   0.026
    1UNL    C34   38   0.542   0.117   0.090
    1UNL    C35   39   0.591   0.245   0.000
    1UNL    C36   40  -0.271   0.129  -0.012
    1UNL    C37   41  -0.420   0.104  -0.022
    1UNL    C38   42  -0.453  -0.030  -0.086
    1UNL    C39   43  -0.485  -0.029  -0.235
    1UNL     O1   44  -0.395   0.009  -0.304
    1UNL     O2   45  -0.601  -0.080  -0.280
    1UNL    C40   46  -0.614  -0.054  -0.413
    1UNL     H1   47  -0.307   0.340  -0.198
    1UNL     H2   48  -0.324   0.414  -0.041
    1UNL     H3   49  -0.387   0.499  -0.193
    1UNL     H4   50  -0.589   0.385  -0.165
    1UNL     H5   51  -0.707   0.145  -0.139
    1UNL     H6   52  -0.718   0.221   0.024
    1UNL     H7   53  -0.792  -0.111   0.125
    1UNL     H8   54  -0.878   0.032   0.066
    1UNL     H9   55  -0.826  -0.124  -0.032
    1UNL    H10   56  -0.606  -0.176  -0.044
    1UNL    H11   57  -0.501  -0.029   0.206
    1UNL    H12   58  -0.576  -0.181   0.195
    1UNL    H13   59  -0.038  -0.167   0.090
    1UNL    H14   60  -0.018  -0.447   0.107
    1UNL    H15   61  -0.131  -0.634   0.207
    1UNL    H16   62  -0.388  -0.613   0.257
    1UNL    H17   63  -0.501  -0.415   0.193
    1UNL    H18   64  -0.259   0.089   0.203
    1UNL    H19   65  -0.119   0.170   0.341
    1UNL    H20   66   0.119   0.240   0.399
    1UNL    H21   67   0.384   0.213   0.289
    1UNL    H22   68   0.010   0.008  -0.043
    1UNL    H23   69   0.346   0.129  -0.181
    1UNL    H24   70   0.216   0.011  -0.172
    1UNL    H25   71   0.395  -0.151  -0.107
    1UNL    H26   72   0.420  -0.090  -0.265
    1UNL    H27   73   0.681   0.034  -0.272
    1UNL    H28   74   0.543   0.149  -0.254
    1UNL    H29   75   0.716   0.274  -0.176
    1UNL    H30   76   0.876   0.091  -0.106
    1UNL    H31   77   0.842   0.187   0.039
    1UNL    H32   78   0.765   0.009   0.148
    1UNL    H33   79   0.782  -0.139  -0.126
    1UNL    H34   80   0.741  -0.214   0.025
    1UNL    H35   81   0.980  -0.187   0.093
    1UNL    H36   82   1.003  -0.225  -0.072
    1UNL    H37   83   1.023  -0.062  -0.022
    1UNL    H38   84   0.558  -0.099   0.083
    1UNL    H39   85   0.603   0.137   0.178
    1UNL    H40   86   0.648   0.327   0.049
    1UNL    H41   87   0.504   0.287  -0.042
    1UNL    H42   88  -0.259   0.237  -0.010
    1UNL    H43   89  -0.220   0.091  -0.106
    1UNL    H44   90  -0.456   0.099   0.084
    1UNL    H45   91  -0.367  -0.090  -0.082
    1UNL    H46   92  -0.511  -0.039  -0.457
    1UNL    H47   93  -0.694  -0.125  -0.452
    1UNL    H48   94  -0.652   0.046  -0.441
   0.00000   0.00000   0.00000   0.00000   0.00000   0.00000   0.00000   0.00000   0.00000
Generated with MDTraj, t= 2.0
 94
    1UNL     C1    1  -0.402   0.429  -0.110
    1UNL     C2    2  -0.519   0.336  -0.113
    1UNL     C3    3  -0.527   0.206  -0.082
    1UNL     C4    4  -0.670   0.147  -0.075
    1UNL     N1    5  -0.679   0.009  -0.001
    1UNL     C5    6  -0.816  -0.042   0.025
    1UNL     C6    7  -0.557  -0.084   0.008
    1UNL     C7    8  -0.494  -0.107   0.147
    1UNL     C8    9  -0.349  -0.158   0.133
    1UNL     C9   10  -0.232  -0.099   0.099
    1UNL     N2   11  -0.125  -0.189   0.103
    1UNL    C10   12  -0.176  -0.307   0.154
    1UNL    C11   13  -0.109  -0.422   0.178
    1UNL    C12   14  -0.186  -0.526   0.234
    1UNL    C13   15  -0.326  -0.521   0.250
    1UNL    C14   16  -0.391  -0.406   0.209
    1UNL    C15   17  -0.317  -0.291   0.169
    1UNL    C16   18  -0.209   0.048   0.089
    1UNL    C17   19  -0.065   0.082   0.121
    1UNL    C18   20  -0.032   0.138   0.252
    1UNL    C19   21   0.089   0.180   0.288
    1UNL    C20   22   0.192   0.146   0.203
    1UNL     N3   23   0.334   0.153   0.224
    1UNL    C21   24   0.395   0.121   0.101
    1UNL    C22   25   0.298   0.076   0.010
    1UNL    C23   26   0.168   0.092   0.071
    1UNL    C24   27   0.039   0.060   0.031
    1UNL    C25   28   0.319   0.047  -0.133
    1UNL    C26   29   0.432  -0.044  -0.175
    1UNL     N4   30   0.567  -0.002  -0.122
    1UNL    C27   31   0.629   0.121  -0.188
    1UNL    C28   32   0.713   0.203  -0.082
    1UNL    C29   33   0.825   0.106  -0.022
    1UNL    C30   34   0.748  -0.018   0.038
    1UNL    C31   35   0.803  -0.146  -0.022
    1UNL    C32   36   0.953  -0.169   0.005
    1UNL    C33   37   0.597  -0.004   0.022
    1UNL    C34   38   0.545   0.127   0.089
    1UNL    C35   39   0.614   0.251   0.026
    1UNL    C36   40  -0.261   0.121  -0.037
    1UNL    C37   41  -0.418   0.106  -0.037
    1UNL    C38   42  -0.448  -0.031  -0.084
    1UNL    C39   43  -0.496  -0.026  -0.223
    1UNL     O1   44  -0.424   0.020  -0.306
    1UNL     O2   45  -0.631  -0.069  -0.251
    1UNL    C40   46  -0.653  -0.068  -0.385
    1UNL     H1   47  -0.322   0.408  -0.173
    1UNL     H2   48  -0.356   0.439  -0.009
    1UNL     H3   49  -0.431   0.533  -0.139
    1UNL     H4   50  -0.614   0.370  -0.153
    1UNL     H5   51  -0.703   0.134  -0.171
    1UNL     H6   52  -0.733   0.223  -0.027
    1UNL     H7   53  -0.817  -0.134   0.073
    1UNL     H8   54  -0.878   0.043   0.076
    1UNL     H9   55  -0.850  -0.072  -0.073
    1UNL    H10   56  -0.607  -0.174  -0.036
    1UNL    H11   57  -0.519  -0.024   0.206
    1UNL    H12   58  -0.543  -0.192   0.196
    1UNL    H13   59  -0.032  -0.159   0.106
    1UNL    H14   60  -0.012  -0.423   0.142
    1UNL    H15   61  -0.142  -0.615   0.278
    1UNL    H16   62  -0.373  -0.611   0.290
    1UNL    H17   63  -0.504  -0.402   0.196
    1UNL    H18   64  -0.264   0.092   0.169
    1UNL    H19   65  -0.112   0.134   0.322
    1UNL    H20   66   0.110   0.221   0.377
    1UNL    H21   67   0.381   0.169   0.312
    1UNL    H22   68   0.026   0.002  -0.051
    1UNL    H23   69   0.329   0.137  -0.179
    1UNL    H24   70   0.223  -0.003  -0.161
    1UNL    H25   71   0.413  -0.140  -0.146
    1UNL    H26   72   0.439  -0.050  -0.287
    1UNL    H27   73   0.715   0.105  -0.259
    1UNL    H28   74   0.548   0.180  -0.234
    1UNL    H29   75   0.759   0.292  -0.122
    1UNL    H30   76   0.888   0.075  -0.095
    1UNL    H31   77   0.885   0.148   0.063
    1UNL    H32   78   0.769  -0.015   0.144
    1UNL    H33   79   0.770  -0.148  -0.127
    1UNL    H34   80   0.745  -0.231   0.025
    1UNL    H35   81   0.972  -0.117   0.095
    1UNL    H36   82   0.980  -0.267   0.013
    1UNL    H37   83   1.018  -0.130  -0.086
    1UNL    H38   84   0.555  -0.096   0.059
    1UNL    H39   85   0.582   0.124   0.192
    1UNL    H40   86   0.663   0.310   0.109
    1UNL    H41   87   0.540   0.303  -0.025
    1UNL    H42   88  -0.231   0.230  -0.041
    1UNL    H43   89  -0.226   0.080  -0.138
    1UNL    H44   90  -0.438   0.107   0.077
    1UNL    H45   91  -0.364  -0.087  -0.090
    1UNL    H46   92  -0.609  -0.164  -0.414
    1UNL    H47   93  -0.765  -0.062  -0.405
    1UNL    H48   94  -0.600   0.011  -0.442
   0.00000   0.00000   0.00000   0.00000   0.00000   0.00000   0.00000   0.00000   0.00000
Generated with MDTraj, t= 3.0
 94
    1UNL     C1    1  -0.391   0.406  -0.124
    1UNL     C2    2  -0.523   0.345  -0.095
    1UNL     C3    3  -0.531   0.211  -0.084
    1UNL     C4    4  -0.662   0.148  -0.057
    1UNL     N1    5  -0.666   0.018   0.017
    1UNL     C5    6  -0.805  -0.046   0.031
    1UNL     C6    7  -0.563  -0.085   0.005
    1UNL     C7    8  -0.493  -0.111   0.139
    1UNL     C8    9  -0.350  -0.156   0.133
    1UNL     C9   10  -0.234  -0.086   0.112
    1UNL     N2   11  -0.128  -0.173   0.125
    1UNL    C10   12  -0.171  -0.301   0.157
    1UNL    C11   13  -0.105  -0.423   0.187
    1UNL    C12   14  -0.178  -0.526   0.234
    1UNL    C13   15  -0.323  -0.511   0.251
    1UNL    C14   16  -0.383  -0.393   0.218
    1UNL    C15   17  -0.309  -0.286   0.167
    1UNL    C16   18  -0.214   0.059   0.090
    1UNL    C17   19  -0.065   0.089   0.126
    1UNL    C18   20  -0.039   0.121   0.254
    1UNL    C19   21   0.086   0.148   0.297
    1UNL    C20   22   0.195   0.132   0.205
    1UNL     N3   23   0.332   0.121   0.221
    1UNL    C21   24   0.394   0.112   0.099
    1UNL    C22   25   0.299   0.094   0.002
    1UNL    C23   26   0.167   0.112   0.070
    1UNL    C24   27   0.034   0.093   0.034
    1UNL    C25   28   0.327   0.075  -0.144
    1UNL    C26   29   0.433  -0.030  -0.172
    1UNL     N4   30   0.572   0.002  -0.126
    1UNL    C27   31   0.629   0.120  -0.183
    1UNL    C28   32   0.711   0.198  -0.079
    1UNL    C29   33   0.830   0.105  -0.025
    1UNL    C30   34   0.758  -0.025   0.042
    1UNL    C31   35   0.821  -0.148  -0.026
    1UNL    C32   36   0.966  -0.174   0.017
    1UNL    C33   37   0.603  -0.010   0.019
    1UNL    C34   38   0.548   0.118   0.095
    1UNL    C35   39   0.618   0.247   0.034
    1UNL    C36   40  -0.263   0.127  -0.038
    1UNL    C37   41  -0.418   0.111  -0.043
    1UNL    C38   42  -0.459  -0.025  -0.100
    1UNL    C39   43  -0.520  -0.030  -0.249
    1UNL     O1   44  -0.455   0.016  -0.336
    1UNL     O2   45  -0.641  -0.091  -0.269
    1UNL    C40   46  -0.681  -0.081  -0.402
    1UNL     H1   47  -0.332   0.336  -0.180
    1UNL     H2   48  -0.331   0.437  -0.038
    1UNL     H3   49  -0.393   0.493  -0.193
    1UNL     H4   50  -0.619   0.395  -0.102
    1UNL     H5   51  -0.697   0.131  -0.154
    1UNL     H6   52  -0.729   0.214  -0.003
    1UNL     H7   53  -0.802  -0.113   0.115
    1UNL     H8   54  -0.887   0.031   0.039
    1UNL     H9   55  -0.815  -0.118  -0.050
    1UNL    H10   56  -0.619  -0.177  -0.030
    1UNL    H11   57  -0.492  -0.025   0.199
    1UNL    H12   58  -0.569  -0.165   0.198
    1UNL    H13   59  -0.033  -0.152   0.109
    1UNL    H14   60   0.006  -0.430   0.204
    1UNL    H15   61  -0.125  -0.617   0.258
    1UNL    H16   62  -0.383  -0.590   0.289
    1UNL    H17   63  -0.481  -0.376   0.241
    1UNL    H18   64  -0.270   0.105   0.166
    1UNL    H19   65  -0.115   0.115   0.332
    1UNL    H20   66   0.119   0.170   0.403
    1UNL    H21   67   0.377   0.119   0.312
    1UNL    H22   68   0.006   0.077  -0.069
    1UNL    H23   69   0.353   0.170  -0.176
    1UNL    H24   70   0.234   0.041  -0.192
    1UNL    H25   71   0.406  -0.117  -0.127
    1UNL    H26   72   0.436  -0.061  -0.280
    1UNL    H27   73   0.692   0.102  -0.274
    1UNL    H28   74   0.545   0.191  -0.203
    1UNL    H29   75   0.751   0.286  -0.125
    1UNL    H30   76   0.888   0.068  -0.105
    1UNL    H31   77   0.893   0.159   0.049
    1UNL    H32   78   0.778  -0.026   0.147
    1UNL    H33   79   0.813  -0.136  -0.135
    1UNL    H34   80   0.752  -0.236  -0.004
    1UNL    H35   81   0.956  -0.223   0.111
    1UNL    H36   82   1.019  -0.228  -0.059
    1UNL    H37   83   1.012  -0.081   0.022
    1UNL    H38   84   0.552  -0.099   0.052
    1UNL    H39   85   0.570   0.109   0.202
    1UNL    H40   86   0.683   0.298   0.111
    1UNL    H41   87   0.544   0.305  -0.010
    1UNL    H42   88  -0.244   0.238  -0.059
    1UNL    H43   89  -0.212   0.073  -0.128
    1UNL    H44   90  -0.445   0.110   0.073
    1UNL    H45   91  -0.378  -0.089  -0.099
    1UNL    H46   92  -0.648  -0.175  -0.444
    1UNL    H47   93  -0.794  -0.084  -0.415
    1UNL    H48   94  -0.655   0.019  -0.445
   0.00000   0.00000   0.00000   0.00000   0.00000   0.00000   0.00000   0.00000   0.00000
Generated with MDTraj, t= 4.0
 94
    1UNL     C1    1  -0.375   0.381  -0.163
    1UNL     C2    2  -0.509   0.319  -0.160
    1UNL     C3    3  -0.531   0.206  -0.089
    1UNL     C4    4  -0.670   0.156  -0.055
    1UNL     N1    5  -0.667   0.025   0.032
    1UNL     C5    6  -0.807  -0.032   0.035
    1UNL     C6    7  -0.559  -0.077   0.012
    1UNL     C7    8  -0.489  -0.111   0.145
    1UNL     C8    9  -0.348  -0.154   0.147
    1UNL     C9   10  -0.237  -0.075   0.123
    1UNL     N2   11  -0.125  -0.159   0.117
    1UNL    C10   12  -0.170  -0.285   0.153
    1UNL    C11   13  -0.099  -0.399   0.195
    1UNL    C12   14  -0.166  -0.519   0.224
    1UNL    C13   15  -0.308  -0.512   0.226
    1UNL    C14   16  -0.386  -0.404   0.198
    1UNL    C15   17  -0.310  -0.287   0.163
    1UNL    C16   18  -0.210   0.075   0.092
    1UNL    C17   19  -0.066   0.092   0.126
    1UNL    C18   20  -0.038   0.097   0.270
    1UNL    C19   21   0.091   0.130   0.313
    1UNL    C20   22   0.199   0.120   0.218
    1UNL     N3   23   0.334   0.106   0.245
    1UNL    C21   24   0.395   0.105   0.121
    1UNL    C22   25   0.304   0.093   0.017
    1UNL    C23   26   0.174   0.105   0.077
    1UNL    C24   27   0.040   0.093   0.036
    1UNL    C25   28   0.330   0.098  -0.129
    1UNL    C26   29   0.428  -0.012  -0.181
    1UNL     N4   30   0.564  -0.003  -0.132
    1UNL    C27   31   0.625   0.118  -0.198
    1UNL    C28   32   0.700   0.198  -0.084
    1UNL    C29   33   0.806   0.113  -0.008
    1UNL    C30   34   0.744  -0.021   0.038
    1UNL    C31   35   0.815  -0.148  -0.032
    1UNL    C32   36   0.957  -0.175   0.013
    1UNL    C33   37   0.591  -0.014   0.010
    1UNL    C34   38   0.537   0.109   0.090
    1UNL    C35   39   0.590   0.237   0.018
    1UNL    C36   40  -0.257   0.124  -0.053
    1UNL    C37   41  -0.416   0.108  -0.050
    1UNL    C38   42  -0.455  -0.030  -0.095
    1UNL    C39   43  -0.514  -0.032  -0.236
    1UNL     O1   44  -0.450   0.032  -0.315
    1UNL     O2   45  -0.631  -0.100  -0.255
    1UNL    C40   46  -0.677  -0.080  -0.388
    1UNL     H1   47  -0.313   0.325  -0.237
    1UNL     H2   48  -0.328   0.372  -0.067
    1UNL     H3   49  -0.395   0.486  -0.191
    1UNL     H4   50  -0.587   0.362  -0.223
    1UNL     H5   51  -0.735   0.142  -0.138
    1UNL     H6   52  -0.715   0.231   0.004
    1UNL     H7   53  -0.819  -0.111   0.113
    1UNL     H8   54  -0.872   0.051   0.045
    1UNL     H9   55  -0.817  -0.089  -0.058
    1UNL    H10   56  -0.608  -0.173  -0.023
    1UNL    H11   57  -0.512  -0.032   0.210
    1UNL    H12   58  -0.543  -0.188   0.201
    1UNL    H13   59  -0.029  -0.127   0.131
    1UNL    H14   60  -0.002  -0.378   0.225
    1UNL    H15   61  -0.112  -0.612   0.241
    1UNL    H16   62  -0.367  -0.602   0.248
    1UNL    H17   63  -0.496  -0.402   0.227
    1UNL    H18   64  -0.251   0.141   0.162
    1UNL    H19   65  -0.117   0.082   0.342
    1UNL    H20   66   0.107   0.125   0.418
    1UNL    H21   67   0.382   0.136   0.331
    1UNL    H22   68   0.011   0.107  -0.074
    1UNL    H23   69   0.373   0.197  -0.150
    1UNL    H24   70   0.233   0.093  -0.177
    1UNL    H25   71   0.401  -0.108  -0.154
    1UNL    H26   72   0.430  -0.024  -0.294
    1UNL    H27   73   0.694   0.082  -0.279
    1UNL    H28   74   0.552   0.194  -0.239
    1UNL    H29   75   0.743   0.281  -0.136
    1UNL    H30   76   0.897   0.097  -0.072
    1UNL    H31   77   0.826   0.160   0.090
    1UNL    H32   78   0.762  -0.026   0.143
    1UNL    H33   79   0.798  -0.131  -0.140
    1UNL    H34   80   0.743  -0.237  -0.017
    1UNL    H35   81   0.969  -0.162   0.117
    1UNL    H36   82   0.999  -0.271  -0.016
    1UNL    H37   83   1.016  -0.115  -0.042
    1UNL    H38   84   0.546  -0.100   0.055
    1UNL    H39   85   0.599   0.104   0.181
    1UNL    H40   86   0.644   0.303   0.091
    1UNL    H41   87   0.507   0.283  -0.028
    1UNL    H42   88  -0.216   0.228  -0.075
    1UNL    H43   89  -0.211   0.061  -0.141
    1UNL    H44   90  -0.445   0.109   0.067
    1UNL    H45   91  -0.368  -0.092  -0.091
    1UNL    H46   92  -0.595  -0.089  -0.454
    1UNL    H47   93  -0.745  -0.159  -0.425
    1UNL    H48   94  -0.738   0.013  -0.379
   0.00000   0.00000   0.00000   0.00000   0.00000   0.00000   0.00000   0.00000   0.00000
Generated with MDTraj, t= 5.0
 94
    1UNL     C1    1  -0.376   0.353  -0.245
    1UNL     C2    2  -0.500   0.323  -0.177
    1UNL     C3    3  -0.513   0.211  -0.101
    1UNL     C4    4  -0.652   0.156  -0.062
    1UNL     N1    5  -0.660   0.031   0.012
    1UNL     C5    6  -0.798  -0.002   0.041
    1UNL     C6    7  -0.547  -0.080   0.009
    1UNL     C7    8  -0.494  -0.114   0.152
    1UNL     C8    9  -0.349  -0.151   0.151
    1UNL     C9   10  -0.236  -0.076   0.125
    1UNL     N2   11  -0.130  -0.165   0.128
    1UNL    C10   12  -0.168  -0.297   0.150
    1UNL    C11   13  -0.099  -0.417   0.170
    1UNL    C12   14  -0.171  -0.533   0.198
    1UNL    C13   15  -0.311  -0.533   0.203
    1UNL    C14   16  -0.371  -0.403   0.201
    1UNL    C15   17  -0.306  -0.287   0.170
    1UNL    C16   18  -0.216   0.075   0.120
    1UNL    C17   19  -0.068   0.101   0.148
    1UNL    C18   20  -0.033   0.115   0.284
    1UNL    C19   21   0.096   0.121   0.319
    1UNL    C20   22   0.194   0.113   0.225
    1UNL     N3   23   0.331   0.115   0.239
    1UNL    C21   24   0.387   0.116   0.112
    1UNL    C22   25   0.289   0.094   0.019
    1UNL    C23   26   0.165   0.100   0.092
    1UNL    C24   27   0.028   0.097   0.053
    1UNL    C25   28   0.311   0.083  -0.128
    1UNL    C26   29   0.415  -0.024  -0.167
    1UNL     N4   30   0.546   0.001  -0.130
    1UNL    C27   31   0.602   0.128  -0.185
    1UNL    C28   32   0.696   0.204  -0.085
    1UNL    C29   33   0.802   0.104  -0.017
    1UNL    C30   34   0.737  -0.032   0.036
    1UNL    C31   35   0.799  -0.147  -0.044
    1UNL    C32   36   0.943  -0.179  -0.015
    1UNL    C33   37   0.584  -0.011   0.015
    1UNL    C34   38   0.535   0.121   0.090
    1UNL    C35   39   0.601   0.260   0.027
    1UNL    C36   40  -0.263   0.145  -0.007
    1UNL    C37   41  -0.415   0.122  -0.027
    1UNL    C38   42  -0.442  -0.019  -0.085
    1UNL    C39   43  -0.494  -0.028  -0.224
    1UNL     O1   44  -0.439   0.029  -0.315
    1UNL     O2   45  -0.611  -0.103  -0.242
    1UNL    C40   46  -0.651  -0.101  -0.377
    1UNL     H1   47  -0.293   0.276  -0.221
    1UNL     H2   48  -0.340   0.449  -0.222
    1UNL     H3   49  -0.401   0.345  -0.352
    1UNL     H4   50  -0.590   0.363  -0.222
    1UNL     H5   51  -0.715   0.149  -0.148
    1UNL     H6   52  -0.706   0.224  -0.007
    1UNL     H7   53  -0.796  -0.076   0.127
    1UNL     H8   54  -0.842   0.090   0.056
    1UNL     H9   55  -0.843  -0.059  -0.042
    1UNL    H10   56  -0.593  -0.172  -0.041
    1UNL    H11   57  -0.499  -0.031   0.216
    1UNL    H12   58  -0.564  -0.181   0.200
    1UNL    H13   59  -0.027  -0.148   0.110
    1UNL    H14   60   0.011  -0.421   0.161
    1UNL    H15   61  -0.126  -0.628   0.216
    1UNL    H16   62  -0.359  -0.629   0.209
    1UNL    H17   63  -0.476  -0.390   0.217
    1UNL    H18   64  -0.267   0.109   0.202
    1UNL    H19   65  -0.116   0.098   0.352
    1UNL    H20   66   0.116   0.119   0.424
    1UNL    H21   67   0.376   0.090   0.328
    1UNL    H22   68  -0.005   0.093  -0.042
    1UNL    H23   69   0.345   0.188  -0.164
    1UNL    H24   70   0.218   0.057  -0.174
    1UNL    H25   71   0.388  -0.119  -0.133
    1UNL    H26   72   0.424  -0.041  -0.279
    1UNL    H27   73   0.668   0.112  -0.276
    1UNL    H28   74   0.516   0.196  -0.210
    1UNL    H29   75   0.748   0.287  -0.130
    1UNL    H30   76   0.879   0.062  -0.097
    1UNL    H31   77   0.847   0.164   0.062
    1UNL    H32   78   0.763  -0.045   0.138
    1UNL    H33   79   0.774  -0.131  -0.151
    1UNL    H34   80   0.724  -0.230  -0.013
    1UNL    H35   81   0.958  -0.192   0.085
    1UNL    H36   82   0.978  -0.262  -0.071
    1UNL    H37   83   1.009  -0.099  -0.061
    1UNL    H38   84   0.526  -0.095   0.051
    1UNL    H39   85   0.582   0.114   0.190
    1UNL    H40   86   0.657   0.311   0.106
    1UNL    H41   87   0.527   0.330  -0.011
    1UNL    H42   88  -0.228   0.253  -0.004
    1UNL    H43   89  -0.205   0.098  -0.097
    1UNL    H44   90  -0.448   0.142   0.087
    1UNL    H45   91  -0.345  -0.072  -0.095
    1UNL    H46   92  -0.581  -0.119  -0.451
    1UNL    H47   93  -0.734  -0.171  -0.392
    1UNL    H48   94  -0.689   0.003  -0.384
   0.00000   0.00000   0.00000   0.00000   0.00000   0.00000   0.00000   0.00000   0.00000
Generated with MDTraj, t= 6.0
 94
    1UNL     C1    1  -0.357   0.290  -0.274
    1UNL     C2    2  -0.482   0.292  -0.200
    1UNL     C3    3  -0.507   0.215  -0.094
    1UNL     C4    4  -0.650   0.173  -0.053
    1UNL     N1    5  -0.652   0.050   0.036
    1UNL     C5    6  -0.791  -0.008   0.060
    1UNL     C6    7  -0.548  -0.067   0.030
    1UNL     C7    8  -0.487  -0.093   0.171
    1UNL     C8    9  -0.348  -0.150   0.170
    1UNL     C9   10  -0.231  -0.082   0.138
    1UNL     N2   11  -0.125  -0.169   0.113
    1UNL    C10   12  -0.175  -0.294   0.132
    1UNL    C11   13  -0.108  -0.418   0.137
    1UNL    C12   14  -0.191  -0.527   0.162
    1UNL    C13   15  -0.331  -0.521   0.183
    1UNL    C14   16  -0.398  -0.404   0.172
    1UNL    C15   17  -0.318  -0.288   0.151
    1UNL    C16   18  -0.217   0.072   0.126
    1UNL    C17   19  -0.072   0.113   0.169
    1UNL    C18   20  -0.042   0.135   0.301
    1UNL    C19   21   0.087   0.149   0.347
    1UNL    C20   22   0.195   0.133   0.250
    1UNL     N3   23   0.336   0.139   0.259
    1UNL    C21   24   0.394   0.121   0.131
    1UNL    C22   25   0.287   0.097   0.046
    1UNL    C23   26   0.162   0.114   0.113
    1UNL    C24   27   0.027   0.101   0.073
    1UNL    C25   28   0.297   0.084  -0.103
    1UNL    C26   29   0.389  -0.026  -0.162
    1UNL     N4   30   0.527   0.002  -0.130
    1UNL    C27   31   0.582   0.129  -0.185
    1UNL    C28   32   0.680   0.200  -0.094
    1UNL    C29   33   0.795   0.104  -0.042
    1UNL    C30   34   0.743  -0.034   0.014
    1UNL    C31   35   0.792  -0.148  -0.075
    1UNL    C32   36   0.936  -0.190  -0.037
    1UNL    C33   37   0.582  -0.008   0.009
    1UNL    C34   38   0.539   0.120   0.092
    1UNL    C35   39   0.596   0.251   0.026
    1UNL    C36   40  -0.261   0.140  -0.010
    1UNL    C37   41  -0.411   0.114  -0.029
    1UNL    C38   42  -0.443  -0.029  -0.072
    1UNL    C39   43  -0.485  -0.045  -0.219
    1UNL     O1   44  -0.401   0.001  -0.295
    1UNL     O2   45  -0.601  -0.096  -0.260
    1UNL    C40   46  -0.594  -0.114  -0.400
    1UNL     H1   47  -0.278   0.221  -0.238
    1UNL     H2   48  -0.301   0.381  -0.280
    1UNL     H3   49  -0.376   0.259  -0.377
    1UNL     H4   50  -0.571   0.326  -0.251
    1UNL     H5   51  -0.716   0.159  -0.136
    1UNL     H6   52  -0.698   0.255  -0.014
    1UNL     H7   53  -0.801  -0.099   0.129
    1UNL     H8   54  -0.842   0.079   0.089
    1UNL     H9   55  -0.836  -0.045  -0.032
    1UNL    H10   56  -0.596  -0.165  -0.001
    1UNL    H11   57  -0.489  -0.005   0.229
    1UNL    H12   58  -0.543  -0.167   0.222
    1UNL    H13   59  -0.025  -0.134   0.102
    1UNL    H14   60  -0.010  -0.428   0.095
    1UNL    H15   61  -0.129  -0.619   0.160
    1UNL    H16   62  -0.393  -0.604   0.220
    1UNL    H17   63  -0.505  -0.410   0.169
    1UNL    H18   64  -0.278   0.104   0.201
    1UNL    H19   65  -0.118   0.132   0.377
    1UNL    H20   66   0.120   0.162   0.455
    1UNL    H21   67   0.391   0.169   0.340
    1UNL    H22   68   0.020   0.064  -0.030
    1UNL    H23   69   0.338   0.190  -0.131
    1UNL    H24   70   0.201   0.078  -0.150
    1UNL    H25   71   0.363  -0.128  -0.139
    1UNL    H26   72   0.382  -0.024  -0.273
    1UNL    H27   73   0.625   0.112  -0.289
    1UNL    H28   74   0.499   0.207  -0.192
    1UNL    H29   75   0.727   0.284  -0.143
    1UNL    H30   76   0.872   0.095  -0.134
    1UNL    H31   77   0.843   0.147   0.044
    1UNL    H32   78   0.778  -0.050   0.113
    1UNL    H33   79   0.781  -0.116  -0.180
    1UNL    H34   80   0.724  -0.241  -0.063
    1UNL    H35   81   0.938  -0.228   0.059
    1UNL    H36   82   0.963  -0.254  -0.111
    1UNL    H37   83   1.002  -0.096  -0.059
    1UNL    H38   84   0.539  -0.100   0.044
    1UNL    H39   85   0.586   0.110   0.191
    1UNL    H40   86   0.649   0.310   0.099
    1UNL    H41   87   0.516   0.321  -0.006
    1UNL    H42   88  -0.240   0.252   0.001
    1UNL    H43   89  -0.198   0.101  -0.096
    1UNL    H44   90  -0.450   0.126   0.084
    1UNL    H45   91  -0.361  -0.109  -0.054
    1UNL    H46   92  -0.531  -0.184  -0.444
    1UNL    H47   93  -0.694  -0.133  -0.443
    1UNL    H48   94  -0.532  -0.027  -0.439
   0.00000   0.00000   0.00000   0.00000   0.00000   0.00000   0.00000   0.00000   0.00000
Generated with MDTraj, t= 7.0
 94
    1UNL     C1    1  -0.341   0.273  -0.276
    1UNL     C2    2  -0.481   0.259  -0.220
    1UNL     C3    3  -0.502   0.196  -0.106
    1UNL     C4    4  -0.635   0.174  -0.049
    1UNL     N1    5  -0.649   0.055   0.020
    1UNL     C5    6  -0.784   0.011   0.064
    1UNL     C6    7  -0.547  -0.066   0.027
    1UNL     C7    8  -0.506  -0.094   0.175
    1UNL     C8    9  -0.362  -0.143   0.180
    1UNL     C9   10  -0.241  -0.072   0.159
    1UNL     N2   11  -0.138  -0.161   0.150
    1UNL    C10   12  -0.190  -0.292   0.144
    1UNL    C11   13  -0.131  -0.414   0.097
    1UNL    C12   14  -0.206  -0.529   0.105
    1UNL    C13   15  -0.345  -0.519   0.134
    1UNL    C14   16  -0.410  -0.401   0.165
    1UNL    C15   17  -0.329  -0.283   0.173
    1UNL    C16   18  -0.206   0.080   0.144
    1UNL    C17   19  -0.065   0.111   0.172
    1UNL    C18   20  -0.031   0.139   0.310
    1UNL    C19   21   0.099   0.172   0.346
    1UNL    C20   22   0.198   0.148   0.252
    1UNL     N3   23   0.338   0.146   0.260
    1UNL    C21   24   0.390   0.121   0.136
    1UNL    C22   25   0.292   0.102   0.044
    1UNL    C23   26   0.167   0.120   0.116
    1UNL    C24   27   0.034   0.101   0.076
    1UNL    C25   28   0.292   0.091  -0.102
    1UNL    C26   29   0.388  -0.020  -0.168
    1UNL     N4   30   0.527  -0.003  -0.129
    1UNL    C27   31   0.571   0.125  -0.193
    1UNL    C28   32   0.665   0.201  -0.098
    1UNL    C29   33   0.782   0.109  -0.035
    1UNL    C30   34   0.728  -0.027   0.018
    1UNL    C31   35   0.763  -0.150  -0.071
    1UNL    C32   36   0.914  -0.179  -0.079
    1UNL    C33   37   0.572  -0.009   0.015
    1UNL    C34   38   0.535   0.120   0.097
    1UNL    C35   39   0.580   0.247   0.019
    1UNL    C36   40  -0.250   0.127   0.001
    1UNL    C37   41  -0.399   0.112  -0.021
    1UNL    C38   42  -0.428  -0.031  -0.058
    1UNL    C39   43  -0.444  -0.061  -0.204
    1UNL     O1   44  -0.349  -0.061  -0.282
    1UNL     O2   45  -0.571  -0.090  -0.247
    1UNL    C40   46  -0.575  -0.101  -0.386
    1UNL     H1   47  -0.307   0.176  -0.305
    1UNL     H2   48  -0.268   0.295  -0.196
    1UNL     H3   49  -0.336   0.341  -0.363
    1UNL     H4   50  -0.565   0.281  -0.284
    1UNL     H5   51  -0.709   0.194  -0.123
    1UNL     H6   52  -0.663   0.247   0.019
    1UNL     H7   53  -0.778  -0.059   0.149
    1UNL     H8   54  -0.848   0.098   0.084
    1UNL     H9   55  -0.830  -0.053  -0.011
    1UNL    H10   56  -0.602  -0.152  -0.020
    1UNL    H11   57  -0.519  -0.001   0.225
    1UNL    H12   58  -0.558  -0.174   0.218
    1UNL    H13   59  -0.045  -0.132   0.111
    1UNL    H14   60  -0.038  -0.407   0.046
    1UNL    H15   61  -0.172  -0.627   0.093
    1UNL    H16   62  -0.397  -0.611   0.129
    1UNL    H17   63  -0.522  -0.390   0.175
    1UNL    H18   64  -0.264   0.129   0.212
    1UNL    H19   65  -0.119   0.141   0.372
    1UNL    H20   66   0.125   0.204   0.438
    1UNL    H21   67   0.395   0.187   0.335
    1UNL    H22   68   0.020   0.056  -0.028
    1UNL    H23   69   0.313   0.193  -0.151
    1UNL    H24   70   0.189   0.083  -0.136
    1UNL    H25   71   0.357  -0.119  -0.130
    1UNL    H26   72   0.388  -0.031  -0.276
    1UNL    H27   73   0.606   0.097  -0.297
    1UNL    H28   74   0.482   0.193  -0.208
    1UNL    H29   75   0.712   0.281  -0.155
    1UNL    H30   76   0.861   0.084  -0.112
    1UNL    H31   77   0.829   0.171   0.042
    1UNL    H32   78   0.760  -0.045   0.118
    1UNL    H33   79   0.716  -0.145  -0.171
    1UNL    H34   80   0.705  -0.237  -0.021
    1UNL    H35   81   0.964  -0.158   0.012
    1UNL    H36   82   0.934  -0.274  -0.113
    1UNL    H37   83   0.960  -0.118  -0.163
    1UNL    H38   84   0.539  -0.096   0.069
    1UNL    H39   85   0.588   0.122   0.193
    1UNL    H40   86   0.642   0.311   0.076
    1UNL    H41   87   0.496   0.314  -0.013
    1UNL    H42   88  -0.217   0.237  -0.011
    1UNL    H43   89  -0.201   0.068  -0.079
    1UNL    H44   90  -0.451   0.132   0.085
    1UNL    H45   91  -0.344  -0.107  -0.025
    1UNL    H46   92  -0.491  -0.152  -0.420
    1UNL    H47   93  -0.663  -0.161  -0.418
    1UNL    H48   94  -0.564  -0.000  -0.434
   0.00000   0.00000   0.00000   0.00000   0.00000   0.00000   0.00000   0.00000   0.00000
Generated with MDTraj, t= 8.0
 94
    1UNL     C1    1  -0.304   0.242  -0.258
    1UNL     C2    2  -0.448   0.255  -0.206
    1UNL     C3    3  -0.490   0.187  -0.100
    1UNL     C4    4  -0.632   0.137  -0.094
    1UNL     N1    5  -0.652   0.042   0.020
    1UNL     C5    6  -0.792   0.004   0.047
    1UNL     C6    7  -0.552  -0.071   0.031
    1UNL     C7    8  -0.506  -0.085   0.181
    1UNL     C8    9  -0.358  -0.137   0.204
    1UNL     C9   10  -0.238  -0.067   0.188
    1UNL     N2   11  -0.140  -0.161   0.150
    1UNL    C10   12  -0.191  -0.286   0.140
    1UNL    C11   13  -0.139  -0.408   0.101
    1UNL    C12   14  -0.232  -0.508   0.086
    1UNL    C13   15  -0.371  -0.493   0.099
    1UNL    C14   16  -0.415  -0.373   0.135
    1UNL    C15   17  -0.327  -0.272   0.173
    1UNL    C16   18  -0.215   0.078   0.167
    1UNL    C17   19  -0.071   0.105   0.197
    1UNL    C18   20  -0.026   0.133   0.324
    1UNL    C19   21   0.108   0.160   0.348
    1UNL    C20   22   0.204   0.143   0.247
    1UNL     N3   23   0.337   0.158   0.246
    1UNL    C21   24   0.386   0.140   0.114
    1UNL    C22   25   0.277   0.111   0.033
    1UNL    C23   26   0.163   0.116   0.117
    1UNL    C24   27   0.022   0.102   0.095
    1UNL    C25   28   0.281   0.080  -0.113
    1UNL    C26   29   0.386  -0.020  -0.152
    1UNL     N4   30   0.525  -0.004  -0.125
    1UNL    C27   31   0.577   0.121  -0.197
    1UNL    C28   32   0.677   0.200  -0.109
    1UNL    C29   33   0.788   0.107  -0.045
    1UNL    C30   34   0.720  -0.019   0.024
    1UNL    C31   35   0.766  -0.142  -0.070
    1UNL    C32   36   0.913  -0.175  -0.094
    1UNL    C33   37   0.566  -0.005   0.018
    1UNL    C34   38   0.530   0.133   0.089
    1UNL    C35   39   0.596   0.252   0.010
    1UNL    C36   40  -0.257   0.132   0.028
    1UNL    C37   41  -0.400   0.100  -0.016
    1UNL    C38   42  -0.429  -0.047  -0.051
    1UNL    C39   43  -0.446  -0.066  -0.197
    1UNL     O1   44  -0.343  -0.073  -0.264
    1UNL     O2   45  -0.573  -0.075  -0.249
    1UNL    C40   46  -0.563  -0.100  -0.380
    1UNL     H1   47  -0.274   0.143  -0.247
    1UNL     H2   48  -0.229   0.295  -0.192
    1UNL     H3   49  -0.303   0.270  -0.365
    1UNL     H4   50  -0.527   0.276  -0.277
    1UNL     H5   51  -0.674   0.096  -0.182
    1UNL     H6   52  -0.697   0.221  -0.085
    1UNL     H7   53  -0.822  -0.025   0.146
    1UNL     H8   54  -0.856   0.093   0.013
    1UNL     H9   55  -0.820  -0.075  -0.018
    1UNL    H10   56  -0.603  -0.162  -0.010
    1UNL    H11   57  -0.494   0.010   0.231
    1UNL    H12   58  -0.574  -0.156   0.216
    1UNL    H13   59  -0.043  -0.148   0.122
    1UNL    H14   60  -0.030  -0.429   0.101
    1UNL    H15   61  -0.195  -0.609   0.051
    1UNL    H16   62  -0.434  -0.580   0.071
    1UNL    H17   63  -0.513  -0.355   0.156
    1UNL    H18   64  -0.278   0.127   0.236
    1UNL    H19   65  -0.099   0.150   0.402
    1UNL    H20   66   0.119   0.206   0.451
    1UNL    H21   67   0.402   0.142   0.323
    1UNL    H22   68  -0.005   0.080   0.001
    1UNL    H23   69   0.285   0.178  -0.169
    1UNL    H24   70   0.183   0.047  -0.151
    1UNL    H25   71   0.361  -0.125  -0.119
    1UNL    H26   72   0.379  -0.030  -0.259
    1UNL    H27   73   0.622   0.103  -0.301
    1UNL    H28   74   0.483   0.174  -0.223
    1UNL    H29   75   0.723   0.277  -0.172
    1UNL    H30   76   0.859   0.082  -0.115
    1UNL    H31   77   0.845   0.168   0.028
    1UNL    H32   78   0.749  -0.032   0.125
    1UNL    H33   79   0.712  -0.137  -0.167
    1UNL    H34   80   0.717  -0.237  -0.025
    1UNL    H35   81   0.967  -0.185  -0.000
    1UNL    H36   82   0.930  -0.261  -0.155
    1UNL    H37   83   0.968  -0.108  -0.150
    1UNL    H38   84   0.517  -0.091   0.065
    1UNL    H39   85   0.579   0.132   0.186
    1UNL    H40   86   0.648   0.322   0.069
    1UNL    H41   87   0.515   0.319  -0.033
    1UNL    H42   88  -0.229   0.244   0.019
    1UNL    H43   89  -0.197   0.078  -0.044
    1UNL    H44   90  -0.441   0.123   0.093
    1UNL    H45   91  -0.331  -0.107  -0.025
    1UNL    H46   92  -0.517  -0.196  -0.382
    1UNL    H47   93  -0.664  -0.098  -0.431
    1UNL    H48   94  -0.513  -0.017  -0.438
   0.00000   0.00000   0.00000   0.00000   0.00000   0.00000   0.00000   0.00000   0.00000
Generated with MDTraj, t= 9.0
 94
    1UNL     C1    1  -0.305   0.279  -0.260
    1UNL     C2    2  -0.440   0.265  -0.213
    1UNL     C3    3  -0.478   0.184  -0.118
    1UNL     C4    4  -0.623   0.168  -0.082
    1UNL     N1    5  -0.656   0.044   0.010
    1UNL     C5    6  -0.793  -0.003   0.014
    1UNL     C6    7  -0.557  -0.066   0.040
    1UNL     C7    8  -0.512  -0.080   0.192
    1UNL     C8    9  -0.370  -0.140   0.202
    1UNL     C9   10  -0.244  -0.075   0.185
    1UNL     N2   11  -0.147  -0.164   0.159
    1UNL    C10   12  -0.205  -0.293   0.153
    1UNL    C11   13  -0.148  -0.413   0.111
    1UNL    C12   14  -0.232  -0.516   0.080
    1UNL    C13   15  -0.372  -0.500   0.092
    1UNL    C14   16  -0.431  -0.388   0.140
    1UNL    C15   17  -0.344  -0.281   0.176
    1UNL    C16   18  -0.214   0.068   0.164
    1UNL    C17   19  -0.065   0.097   0.197
    1UNL    C18   20  -0.033   0.139   0.326
    1UNL    C19   21   0.099   0.164   0.363
    1UNL    C20   22   0.199   0.151   0.263
    1UNL     N3   23   0.339   0.144   0.267
    1UNL    C21   24   0.389   0.138   0.135
    1UNL    C22   25   0.286   0.116   0.052
    1UNL    C23   26   0.167   0.119   0.131
    1UNL    C24   27   0.030   0.091   0.098
    1UNL    C25   28   0.287   0.097  -0.097
    1UNL    C26   29   0.373  -0.018  -0.153
    1UNL     N4   30   0.520  -0.003  -0.136
    1UNL    C27   31   0.575   0.113  -0.212
    1UNL    C28   32   0.669   0.203  -0.130
    1UNL    C29   33   0.792   0.116  -0.085
    1UNL    C30   34   0.732  -0.007  -0.010
    1UNL    C31   35   0.779  -0.137  -0.083
    1UNL    C32   36   0.921  -0.190  -0.049
    1UNL    C33   37   0.579   0.005   0.006
    1UNL    C34   38   0.535   0.137   0.081
    1UNL    C35   39   0.587   0.249  -0.008
    1UNL    C36   40  -0.246   0.113   0.019
    1UNL    C37   41  -0.394   0.106  -0.015
    1UNL    C38   42  -0.427  -0.039  -0.042
    1UNL    C39   43  -0.442  -0.071  -0.193
    1UNL     O1   44  -0.342  -0.066  -0.264
    1UNL     O2   45  -0.567  -0.102  -0.244
    1UNL    C40   46  -0.560  -0.113  -0.378
    1UNL     H1   47  -0.266   0.181  -0.277
    1UNL     H2   48  -0.231   0.316  -0.183
    1UNL     H3   49  -0.301   0.339  -0.352
    1UNL     H4   50  -0.526   0.300  -0.271
    1UNL     H5   51  -0.686   0.170  -0.165
    1UNL     H6   52  -0.667   0.251  -0.027
    1UNL     H7   53  -0.796  -0.091   0.072
    1UNL     H8   54  -0.866   0.071   0.064
    1UNL     H9   55  -0.834  -0.030  -0.082
    1UNL    H10   56  -0.588  -0.167   0.008
    1UNL    H11   57  -0.512   0.017   0.234
    1UNL    H12   58  -0.567  -0.151   0.246
    1UNL    H13   59  -0.055  -0.143   0.129
    1UNL    H14   60  -0.046  -0.433   0.114
    1UNL    H15   61  -0.189  -0.596   0.029
    1UNL    H16   62  -0.440  -0.570   0.053
    1UNL    H17   63  -0.544  -0.390   0.149
    1UNL    H18   64  -0.276   0.133   0.228
    1UNL    H19   65  -0.121   0.147   0.390
    1UNL    H20   66   0.127   0.192   0.462
    1UNL    H21   67   0.391   0.165   0.353
    1UNL    H22   68  -0.003   0.076  -0.004
    1UNL    H23   69   0.323   0.186  -0.147
    1UNL    H24   70   0.185   0.095  -0.144
    1UNL    H25   71   0.335  -0.106  -0.089
    1UNL    H26   72   0.353  -0.043  -0.254
    1UNL    H27   73   0.608   0.080  -0.317
    1UNL    H28   74   0.486   0.173  -0.240
    1UNL    H29   75   0.694   0.301  -0.176
    1UNL    H30   76   0.857   0.099  -0.161
    1UNL    H31   77   0.852   0.170  -0.006
    1UNL    H32   78   0.769  -0.007   0.090
    1UNL    H33   79   0.786  -0.123  -0.192
    1UNL    H34   80   0.708  -0.228  -0.076
    1UNL    H35   81   0.932  -0.198   0.060
    1UNL    H36   82   0.941  -0.280  -0.106
    1UNL    H37   83   0.987  -0.125  -0.087
    1UNL    H38   84   0.535  -0.082   0.054
    1UNL    H39   85   0.580   0.138   0.181
    1UNL    H40   86   0.632   0.325   0.050
    1UNL    H41   87   0.497   0.310  -0.041
    1UNL    H42   88  -0.203   0.216   0.013
    1UNL    H43   89  -0.188   0.043  -0.044
    1UNL    H44   90  -0.445   0.137   0.085
    1UNL    H45   91  -0.345  -0.106  -0.006
    1UNL    H46   92  -0.535  -0.214  -0.390
    1UNL    H47   93  -0.653  -0.078  -0.434
    1UNL    H48   94  -0.489  -0.041  -0.428
   0.00000   0.00000   0.00000   0.00000   0.00000   0.00000   0.00000   0.00000   0.00000
Generated with MDTraj, t= 10.0
 94
    1UNL     C1    1  -0.301   0.293  -0.244
    1UNL     C2    2  -0.438   0.282  -0.200
    1UNL     C3    3  -0.483   0.215  -0.096
    1UNL     C4    4  -0.627   0.180  -0.061
    1UNL     N1    5  -0.649   0.044   0.012
    1UNL     C5    6  -0.785  -0.019  -0.009
    1UNL     C6    7  -0.541  -0.061   0.027
    1UNL     C7    8  -0.501  -0.079   0.176
    1UNL     C8    9  -0.362  -0.142   0.186
    1UNL     C9   10  -0.237  -0.083   0.174
    1UNL     N2   11  -0.137  -0.179   0.154
    1UNL    C10   12  -0.204  -0.299   0.147
    1UNL    C11   13  -0.155  -0.427   0.128
    1UNL    C12   14  -0.245  -0.531   0.114
    1UNL    C13   15  -0.376  -0.504   0.138
    1UNL    C14   16  -0.433  -0.381   0.166
    1UNL    C15   17  -0.343  -0.278   0.164
    1UNL    C16   18  -0.202   0.066   0.165
    1UNL    C17   19  -0.057   0.084   0.191
    1UNL    C18   20  -0.014   0.112   0.323
    1UNL    C19   21   0.116   0.138   0.355
    1UNL    C20   22   0.213   0.147   0.254
    1UNL     N3   23   0.352   0.139   0.252
    1UNL    C21   24   0.393   0.131   0.123
    1UNL    C22   25   0.285   0.107   0.038
    1UNL    C23   26   0.171   0.118   0.115
    1UNL    C24   27   0.039   0.083   0.089
    1UNL    C25   28   0.282   0.073  -0.111
    1UNL    C26   29   0.376  -0.038  -0.169
    1UNL     N4   30   0.516   0.003  -0.142
    1UNL    C27   31   0.566   0.126  -0.215
    1UNL    C28   32   0.648   0.211  -0.123
    1UNL    C29   33   0.769   0.121  -0.067
    1UNL    C30   34   0.719  -0.008   0.008
    1UNL    C31   35   0.764  -0.135  -0.059
    1UNL    C32   36   0.912  -0.155  -0.025
    1UNL    C33   37   0.563  -0.001   0.003
    1UNL    C34   38   0.534   0.137   0.083
    1UNL    C35   39   0.573   0.263  -0.002
    1UNL    C36   40  -0.241   0.138   0.024
    1UNL    C37   41  -0.387   0.115  -0.013
    1UNL    C38   42  -0.419  -0.028  -0.063
    1UNL    C39   43  -0.447  -0.053  -0.213
    1UNL     O1   44  -0.354  -0.040  -0.289
    1UNL     O2   45  -0.570  -0.098  -0.249
    1UNL    C40   46  -0.571  -0.141  -0.380
    1UNL     H1   47  -0.267   0.192  -0.269
    1UNL     H2   48  -0.231   0.319  -0.165
    1UNL     H3   49  -0.292   0.360  -0.329
    1UNL     H4   50  -0.515   0.315  -0.267
    1UNL     H5   51  -0.697   0.181  -0.138
    1UNL     H6   52  -0.668   0.259   0.006
    1UNL     H7   53  -0.804  -0.073   0.082
    1UNL     H8   54  -0.871   0.049  -0.022
    1UNL     H9   55  -0.791  -0.092  -0.091
    1UNL    H10   56  -0.598  -0.144  -0.018
    1UNL    H11   57  -0.504   0.013   0.228
    1UNL    H12   58  -0.570  -0.143   0.219
    1UNL    H13   59  -0.041  -0.160   0.151
    1UNL    H14   60  -0.045  -0.437   0.111
    1UNL    H15   61  -0.210  -0.634   0.089
    1UNL    H16   62  -0.438  -0.597   0.128
    1UNL    H17   63  -0.536  -0.362   0.177
    1UNL    H18   64  -0.241   0.138   0.245
    1UNL    H19   65  -0.082   0.115   0.405
    1UNL    H20   66   0.148   0.148   0.454
    1UNL    H21   67   0.412   0.159   0.332
    1UNL    H22   68   0.010   0.067  -0.021
    1UNL    H23   69   0.298   0.159  -0.168
    1UNL    H24   70   0.173   0.051  -0.136
    1UNL    H25   71   0.358  -0.139  -0.115
    1UNL    H26   72   0.355  -0.050  -0.271
    1UNL    H27   73   0.612   0.092  -0.316
    1UNL    H28   74   0.473   0.173  -0.253
    1UNL    H29   75   0.688   0.302  -0.175
    1UNL    H30   76   0.833   0.092  -0.149
    1UNL    H31   77   0.834   0.184  -0.004
    1UNL    H32   78   0.744  -0.011   0.112
    1UNL    H33   79   0.733  -0.142  -0.164
    1UNL    H34   80   0.712  -0.228  -0.015
    1UNL    H35   81   0.927  -0.151   0.080
    1UNL    H36   82   0.961  -0.237  -0.073
    1UNL    H37   83   0.975  -0.068  -0.065
    1UNL    H38   84   0.531  -0.093   0.053
    1UNL    H39   85   0.590   0.136   0.176
    1UNL    H40   86   0.626   0.341   0.044
    1UNL    H41   87   0.482   0.320  -0.037
    1UNL    H42   88  -0.227   0.244   0.032
    1UNL    H43   89  -0.171   0.087  -0.048
    1UNL    H44   90  -0.438   0.120   0.088
    1UNL    H45   91  -0.340  -0.095  -0.035
    1UNL    H46   92  -0.475  -0.175  -0.403
    1UNL    H47   93  -0.642  -0.226  -0.391
    1UNL    H48   94  -0.605  -0.062  -0.451
   0.00000   0.00000   0.00000   0.00000   0.00000   0.00000   0.00000   0.00000   0.00000
Generated with MDTraj, t= 11.0
 94
    1UNL     C1    1  -0.313   0.322  -0.239
    1UNL     C2    2  -0.446   0.300  -0.176
    1UNL     C3    3  -0.485   0.211  -0.088
    1UNL     C4    4  -0.630   0.174  -0.071
    1UNL     N1    5  -0.661   0.046   0.018
    1UNL     C5    6  -0.789  -0.001  -0.037
    1UNL     C6    7  -0.562  -0.069   0.018
    1UNL     C7    8  -0.512  -0.096   0.165
    1UNL     C8    9  -0.372  -0.147   0.171
    1UNL     C9   10  -0.251  -0.085   0.159
    1UNL     N2   11  -0.153  -0.179   0.142
    1UNL    C10   12  -0.204  -0.307   0.147
    1UNL    C11   13  -0.149  -0.435   0.144
    1UNL    C12   14  -0.233  -0.538   0.169
    1UNL    C13   15  -0.374  -0.526   0.187
    1UNL    C14   16  -0.422  -0.399   0.194
    1UNL    C15   17  -0.341  -0.288   0.170
    1UNL    C16   18  -0.219   0.059   0.152
    1UNL    C17   19  -0.068   0.074   0.175
    1UNL    C18   20  -0.026   0.105   0.306
    1UNL    C19   21   0.104   0.131   0.341
    1UNL    C20   22   0.198   0.125   0.240
    1UNL     N3   23   0.335   0.137   0.249
    1UNL    C21   24   0.388   0.130   0.120
    1UNL    C22   25   0.284   0.105   0.034
    1UNL    C23   26   0.163   0.095   0.114
    1UNL    C24   27   0.027   0.059   0.077
    1UNL    C25   28   0.297   0.083  -0.115
    1UNL    C26   29   0.397  -0.030  -0.156
    1UNL     N4   30   0.535  -0.002  -0.127
    1UNL    C27   31   0.589   0.111  -0.218
    1UNL    C28   32   0.667   0.216  -0.133
    1UNL    C29   33   0.786   0.128  -0.073
    1UNL    C30   34   0.745   0.001   0.012
    1UNL    C31   35   0.797  -0.133  -0.047
    1UNL    C32   36   0.946  -0.150  -0.042
    1UNL    C33   37   0.590   0.007   0.013
    1UNL    C34   38   0.540   0.138   0.077
    1UNL    C35   39   0.585   0.259  -0.011
    1UNL    C36   40  -0.251   0.130   0.016
    1UNL    C37   41  -0.401   0.116  -0.006
    1UNL    C38   42  -0.434  -0.022  -0.059
    1UNL    C39   43  -0.453  -0.038  -0.209
    1UNL     O1   44  -0.389   0.030  -0.285
    1UNL     O2   45  -0.553  -0.126  -0.247
    1UNL    C40   46  -0.578  -0.106  -0.386
    1UNL     H1   47  -0.269   0.220  -0.246
    1UNL     H2   48  -0.247   0.380  -0.181
    1UNL     H3   49  -0.327   0.364  -0.339
    1UNL     H4   50  -0.531   0.352  -0.222
    1UNL     H5   51  -0.677   0.166  -0.164
    1UNL     H6   52  -0.691   0.252  -0.019
    1UNL     H7   53  -0.812  -0.092   0.020
    1UNL     H8   54  -0.869   0.064  -0.022
    1UNL     H9   55  -0.788  -0.028  -0.147
    1UNL    H10   56  -0.623  -0.147  -0.024
    1UNL    H11   57  -0.513  -0.016   0.233
    1UNL    H12   58  -0.583  -0.156   0.215
    1UNL    H13   59  -0.056  -0.165   0.122
    1UNL    H14   60  -0.050  -0.456   0.115
    1UNL    H15   61  -0.187  -0.631   0.194
    1UNL    H16   62  -0.435  -0.609   0.210
    1UNL    H17   63  -0.528  -0.385   0.205
    1UNL    H18   64  -0.279   0.125   0.228
    1UNL    H19   65  -0.103   0.111   0.383
    1UNL    H20   66   0.140   0.159   0.445
    1UNL    H21   67   0.390   0.119   0.334
    1UNL    H22   68  -0.009   0.036  -0.017
    1UNL    H23   69   0.317   0.175  -0.159
    1UNL    H24   70   0.195   0.061  -0.163
    1UNL    H25   71   0.354  -0.133  -0.122
    1UNL    H26   72   0.400  -0.031  -0.260
    1UNL    H27   73   0.663   0.069  -0.299
    1UNL    H28   74   0.502   0.131  -0.284
    1UNL    H29   75   0.713   0.292  -0.203
    1UNL    H30   76   0.860   0.101  -0.159
    1UNL    H31   77   0.845   0.195  -0.014
    1UNL    H32   78   0.772   0.006   0.116
    1UNL    H33   79   0.750  -0.159  -0.145
    1UNL    H34   80   0.758  -0.213   0.023
    1UNL    H35   81   0.991  -0.132   0.051
    1UNL    H36   82   0.988  -0.236  -0.087
    1UNL    H37   83   1.002  -0.068  -0.109
    1UNL    H38   84   0.548  -0.080   0.066
    1UNL    H39   85   0.598   0.155   0.167
    1UNL    H40   86   0.643   0.326   0.047
    1UNL    H41   87   0.500   0.318  -0.050
    1UNL    H42   88  -0.219   0.230   0.025
    1UNL    H43   89  -0.203   0.079  -0.071
    1UNL    H44   90  -0.437   0.126   0.100
    1UNL    H45   91  -0.357  -0.085  -0.036
    1UNL    H46   92  -0.497  -0.134  -0.445
    1UNL    H47   93  -0.668  -0.167  -0.408
    1UNL    H48   94  -0.584   0.001  -0.410
   0.00000   0.00000   0.00000   0.00000   0.00000   0.00000   0.00000   0.00000   0.00000
Generated with MDTraj, t= 12.0
 94
    1UNL     C1    1  -0.335   0.358  -0.199
    1UNL     C2    2  -0.474   0.318  -0.149
    1UNL     C3    3  -0.498   0.214  -0.073
    1UNL     C4    4  -0.641   0.180  -0.030
    1UNL     N1    5  -0.671   0.027  -0.005
    1UNL     C5    6  -0.809  -0.017  -0.017
    1UNL     C6    7  -0.559  -0.076   0.002
    1UNL     C7    8  -0.509  -0.102   0.148
    1UNL     C8    9  -0.368  -0.150   0.164
    1UNL     C9   10  -0.242  -0.091   0.143
    1UNL     N2   11  -0.142  -0.190   0.146
    1UNL    C10   12  -0.203  -0.309   0.181
    1UNL    C11   13  -0.150  -0.443   0.190
    1UNL    C12   14  -0.238  -0.549   0.209
    1UNL    C13   15  -0.377  -0.525   0.223
    1UNL    C14   16  -0.433  -0.403   0.208
    1UNL    C15   17  -0.344  -0.291   0.184
    1UNL    C16   18  -0.212   0.053   0.129
    1UNL    C17   19  -0.067   0.084   0.162
    1UNL    C18   20  -0.031   0.101   0.302
    1UNL    C19   21   0.098   0.128   0.334
    1UNL    C20   22   0.196   0.132   0.232
    1UNL     N3   23   0.336   0.140   0.244
    1UNL    C21   24   0.397   0.121   0.116
    1UNL    C22   25   0.289   0.096   0.028
    1UNL    C23   26   0.165   0.099   0.100
    1UNL    C24   27   0.035   0.078   0.067
    1UNL    C25   28   0.296   0.046  -0.121
    1UNL    C26   29   0.411  -0.052  -0.159
    1UNL     N4   30   0.551  -0.009  -0.129
    1UNL    C27   31   0.608   0.107  -0.204
    1UNL    C28   32   0.685   0.208  -0.119
    1UNL    C29   33   0.803   0.136  -0.053
    1UNL    C30   34   0.760   0.001   0.014
    1UNL    C31   35   0.826  -0.116  -0.064
    1UNL    C32   36   0.978  -0.131  -0.044
    1UNL    C33   37   0.600  -0.003   0.018
    1UNL    C34   38   0.540   0.131   0.085
    1UNL    C35   39   0.580   0.257  -0.013
    1UNL    C36   40  -0.248   0.125  -0.007
    1UNL    C37   41  -0.402   0.108  -0.026
    1UNL    C38   42  -0.443  -0.027  -0.087
    1UNL    C39   43  -0.478  -0.014  -0.238
    1UNL     O1   44  -0.416   0.060  -0.310
    1UNL     O2   45  -0.577  -0.100  -0.277
    1UNL    C40   46  -0.576  -0.103  -0.419
    1UNL     H1   47  -0.295   0.263  -0.247
    1UNL     H2   48  -0.274   0.394  -0.120
    1UNL     H3   49  -0.339   0.432  -0.277
    1UNL     H4   50  -0.560   0.369  -0.183
    1UNL     H5   51  -0.711   0.203  -0.104
    1UNL     H6   52  -0.675   0.237   0.059
    1UNL     H7   53  -0.835  -0.082   0.070
    1UNL     H8   54  -0.872   0.064  -0.025
    1UNL     H9   55  -0.819  -0.079  -0.110
    1UNL    H10   56  -0.592  -0.173  -0.027
    1UNL    H11   57  -0.529  -0.019   0.206
    1UNL    H12   58  -0.565  -0.171   0.209
    1UNL    H13   59  -0.039  -0.175   0.144
    1UNL    H14   60  -0.043  -0.458   0.187
    1UNL    H15   61  -0.200  -0.647   0.226
    1UNL    H16   62  -0.446  -0.603   0.261
    1UNL    H17   63  -0.544  -0.385   0.217
    1UNL    H18   64  -0.288   0.106   0.203
    1UNL    H19   65  -0.101   0.086   0.381
    1UNL    H20   66   0.121   0.138   0.433
    1UNL    H21   67   0.388   0.146   0.331
    1UNL    H22   68   0.014   0.046  -0.032
    1UNL    H23   69   0.300   0.133  -0.179
    1UNL    H24   70   0.192   0.008  -0.148
    1UNL    H25   71   0.402  -0.148  -0.095
    1UNL    H26   72   0.400  -0.079  -0.260
    1UNL    H27   73   0.664   0.052  -0.289
    1UNL    H28   74   0.532   0.163  -0.262
    1UNL    H29   75   0.717   0.300  -0.179
    1UNL    H30   76   0.889   0.121  -0.132
    1UNL    H31   77   0.842   0.205   0.017
    1UNL    H32   78   0.796   0.002   0.116
    1UNL    H33   79   0.812  -0.098  -0.174
    1UNL    H34   80   0.784  -0.217  -0.034
    1UNL    H35   81   1.015  -0.123   0.056
    1UNL    H36   82   1.021  -0.208  -0.109
    1UNL    H37   83   1.015  -0.035  -0.094
    1UNL    H38   84   0.561  -0.100   0.055
    1UNL    H39   85   0.595   0.146   0.178
    1UNL    H40   86   0.613   0.340   0.045
    1UNL    H41   87   0.491   0.288  -0.068
    1UNL    H42   88  -0.216   0.225  -0.009
    1UNL    H43   89  -0.197   0.076  -0.089
    1UNL    H44   90  -0.430   0.114   0.082
    1UNL    H45   91  -0.363  -0.091  -0.083
    1UNL    H46   92  -0.482  -0.119  -0.463
    1UNL    H47   93  -0.646  -0.189  -0.441
    1UNL    H48   94  -0.595  -0.004  -0.464
   0.00000   0.00000   0.00000   0.00000   0.00000   0.00000   0.00000   0.00000   0.00000
Generated with MDTraj, t= 13.0
 94
    1UNL     C1    1  -0.369   0.381  -0.178
    1UNL     C2    2  -0.499   0.330  -0.123
    1UNL     C3    3  -0.520   0.215  -0.062
    1UNL     C4    4  -0.651   0.174  -0.005
    1UNL     N1    5  -0.678   0.030  -0.001
    1UNL     C5    6  -0.817  -0.027  -0.018
    1UNL     C6    7  -0.559  -0.067  -0.005
    1UNL     C7    8  -0.510  -0.107   0.135
    1UNL     C8    9  -0.369  -0.161   0.137
    1UNL     C9   10  -0.245  -0.099   0.119
    1UNL     N2   11  -0.145  -0.190   0.152
    1UNL    C10   12  -0.203  -0.313   0.185
    1UNL    C11   13  -0.150  -0.430   0.238
    1UNL    C12   14  -0.236  -0.530   0.277
    1UNL    C13   15  -0.372  -0.522   0.241
    1UNL    C14   16  -0.426  -0.406   0.186
    1UNL    C15   17  -0.341  -0.299   0.169
    1UNL    C16   18  -0.195   0.052   0.105
    1UNL    C17   19  -0.051   0.069   0.139
    1UNL    C18   20  -0.020   0.128   0.265
    1UNL    C19   21   0.106   0.141   0.315
    1UNL    C20   22   0.213   0.106   0.230
    1UNL     N3   23   0.352   0.116   0.238
    1UNL    C21   24   0.396   0.100   0.114
    1UNL    C22   25   0.303   0.057   0.020
    1UNL    C23   26   0.179   0.075   0.095
    1UNL    C24   27   0.048   0.046   0.049
    1UNL    C25   28   0.313   0.037  -0.130
    1UNL    C26   29   0.427  -0.057  -0.165
    1UNL     N4   30   0.562  -0.011  -0.126
    1UNL    C27   31   0.597   0.116  -0.201
    1UNL    C28   32   0.672   0.217  -0.112
    1UNL    C29   33   0.794   0.145  -0.052
    1UNL    C30   34   0.762   0.014   0.023
    1UNL    C31   35   0.823  -0.107  -0.051
    1UNL    C32   36   0.978  -0.115  -0.029
    1UNL    C33   37   0.605  -0.003   0.021
    1UNL    C34   38   0.545   0.124   0.091
    1UNL    C35   39   0.570   0.250   0.008
    1UNL    C36   40  -0.250   0.131  -0.017
    1UNL    C37   41  -0.401   0.112  -0.029
    1UNL    C38   42  -0.443  -0.020  -0.093
    1UNL    C39   43  -0.478  -0.014  -0.245
    1UNL     O1   44  -0.411   0.053  -0.320
    1UNL     O2   45  -0.575  -0.100  -0.288
    1UNL    C40   46  -0.608  -0.070  -0.425
    1UNL     H1   47  -0.327   0.290  -0.234
    1UNL     H2   48  -0.308   0.426  -0.103
    1UNL     H3   49  -0.369   0.456  -0.255
    1UNL     H4   50  -0.586   0.397  -0.138
    1UNL     H5   51  -0.730   0.223  -0.061
    1UNL     H6   52  -0.661   0.204   0.100
    1UNL     H7   53  -0.827  -0.138  -0.017
    1UNL     H8   54  -0.888   0.025   0.045
    1UNL     H9   55  -0.840   0.011  -0.118
    1UNL    H10   56  -0.585  -0.158  -0.053
    1UNL    H11   57  -0.507  -0.017   0.187
    1UNL    H12   58  -0.583  -0.167   0.183
    1UNL    H13   59  -0.042  -0.165   0.146
    1UNL    H14   60  -0.045  -0.428   0.268
    1UNL    H15   61  -0.207  -0.629   0.321
    1UNL    H16   62  -0.424  -0.615   0.239
    1UNL    H17   63  -0.526  -0.382   0.168
    1UNL    H18   64  -0.247   0.104   0.198
    1UNL    H19   65  -0.103   0.170   0.321
    1UNL    H20   66   0.142   0.180   0.414
    1UNL    H21   67   0.393   0.171   0.313
    1UNL    H22   68   0.022  -0.002  -0.053
    1UNL    H23   69   0.326   0.133  -0.179
    1UNL    H24   70   0.213   0.000  -0.169
    1UNL    H25   71   0.399  -0.153  -0.107
    1UNL    H26   72   0.434  -0.080  -0.267
    1UNL    H27   73   0.655   0.080  -0.293
    1UNL    H28   74   0.506   0.163  -0.246
    1UNL    H29   75   0.700   0.321  -0.151
    1UNL    H30   76   0.861   0.130  -0.144
    1UNL    H31   77   0.853   0.208   0.012
    1UNL    H32   78   0.795   0.018   0.128
    1UNL    H33   79   0.798  -0.107  -0.162
    1UNL    H34   80   0.781  -0.195   0.001
    1UNL    H35   81   1.018  -0.093   0.073
    1UNL    H36   82   1.023  -0.207  -0.075
    1UNL    H37   83   1.024  -0.039  -0.085
    1UNL    H38   84   0.571  -0.092   0.078
    1UNL    H39   85   0.595   0.131   0.187
    1UNL    H40   86   0.608   0.331   0.068
    1UNL    H41   87   0.473   0.277  -0.027
    1UNL    H42   88  -0.225   0.235  -0.015
    1UNL    H43   89  -0.208   0.102  -0.108
    1UNL    H44   90  -0.434   0.110   0.077
    1UNL    H45   91  -0.364  -0.087  -0.101
    1UNL    H46   92  -0.528  -0.082  -0.494
    1UNL    H47   93  -0.689  -0.147  -0.445
    1UNL    H48   94  -0.634   0.036  -0.436
   0.00000   0.00000   0.00000   0.00000   0.00000   0.00000   0.00000   0.00000   0.00000
Generated with MDTraj, t= 14.0
 94
    1UNL     C1    1  -0.373   0.369  -0.194
    1UNL     C2    2  -0.496   0.329  -0.123
    1UNL     C3    3  -0.507   0.216  -0.059
    1UNL     C4    4  -0.647   0.170  -0.012
    1UNL     N1    5  -0.676   0.021  -0.002
    1UNL     C5    6  -0.806  -0.028  -0.061
    1UNL     C6    7  -0.566  -0.083  -0.016
    1UNL     C7    8  -0.511  -0.114   0.127
    1UNL     C8    9  -0.370  -0.161   0.141
    1UNL     C9   10  -0.250  -0.092   0.141
    1UNL     N2   11  -0.153  -0.187   0.170
    1UNL    C10   12  -0.200  -0.309   0.195
    1UNL    C11   13  -0.134  -0.424   0.233
    1UNL    C12   14  -0.205  -0.530   0.278
    1UNL    C13   15  -0.347  -0.530   0.268
    1UNL    C14   16  -0.411  -0.419   0.215
    1UNL    C15   17  -0.342  -0.300   0.183
    1UNL    C16   18  -0.216   0.055   0.118
    1UNL    C17   19  -0.069   0.078   0.151
    1UNL    C18   20  -0.028   0.118   0.278
    1UNL    C19   21   0.100   0.145   0.311
    1UNL    C20   22   0.201   0.109   0.217
    1UNL     N3   23   0.333   0.132   0.217
    1UNL    C21   24   0.395   0.094   0.099
    1UNL    C22   25   0.294   0.042   0.015
    1UNL    C23   26   0.168   0.057   0.088
    1UNL    C24   27   0.030   0.043   0.058
    1UNL    C25   28   0.311   0.015  -0.132
    1UNL    C26   29   0.440  -0.065  -0.166
    1UNL     N4   30   0.582  -0.012  -0.137
    1UNL    C27   31   0.605   0.120  -0.202
    1UNL    C28   32   0.673   0.214  -0.101
    1UNL    C29   33   0.801   0.149  -0.052
    1UNL    C30   34   0.771   0.010   0.017
    1UNL    C31   35   0.854  -0.101  -0.046
    1UNL    C32   36   1.003  -0.096  -0.014
    1UNL    C33   37   0.617  -0.016   0.004
    1UNL    C34   38   0.543   0.102   0.089
    1UNL    C35   39   0.575   0.235   0.015
    1UNL    C36   40  -0.256   0.123  -0.015
    1UNL    C37   41  -0.412   0.109  -0.034
    1UNL    C38   42  -0.452  -0.024  -0.102
    1UNL    C39   43  -0.491   0.003  -0.248
    1UNL     O1   44  -0.425   0.084  -0.311
    1UNL     O2   45  -0.609  -0.060  -0.288
    1UNL    C40   46  -0.621  -0.033  -0.428
    1UNL     H1   47  -0.343   0.282  -0.262
    1UNL     H2   48  -0.298   0.421  -0.134
    1UNL     H3   49  -0.392   0.444  -0.270
    1UNL     H4   50  -0.588   0.381  -0.134
    1UNL     H5   51  -0.728   0.214  -0.074
    1UNL     H6   52  -0.661   0.208   0.088
    1UNL     H7   53  -0.821  -0.133  -0.039
    1UNL     H8   54  -0.896   0.037  -0.032
    1UNL     H9   55  -0.797  -0.018  -0.166
    1UNL    H10   56  -0.606  -0.167  -0.067
    1UNL    H11   57  -0.536  -0.035   0.196
    1UNL    H12   58  -0.567  -0.204   0.143
    1UNL    H13   59  -0.051  -0.160   0.190
    1UNL    H14   60  -0.030  -0.428   0.247
    1UNL    H15   61  -0.152  -0.616   0.296
    1UNL    H16   62  -0.414  -0.616   0.277
    1UNL    H17   63  -0.523  -0.424   0.197
    1UNL    H18   64  -0.270   0.110   0.209
    1UNL    H19   65  -0.097   0.134   0.360
    1UNL    H20   66   0.127   0.190   0.405
    1UNL    H21   67   0.379   0.163   0.303
    1UNL    H22   68   0.005   0.001  -0.032
    1UNL    H23   69   0.308   0.118  -0.180
    1UNL    H24   70   0.222  -0.038  -0.170
    1UNL    H25   71   0.436  -0.171  -0.122
    1UNL    H26   72   0.430  -0.081  -0.270
    1UNL    H27   73   0.670   0.121  -0.295
    1UNL    H28   74   0.502   0.148  -0.242
    1UNL    H29   75   0.699   0.314  -0.154
    1UNL    H30   76   0.865   0.125  -0.139
    1UNL    H31   77   0.856   0.226   0.007
    1UNL    H32   78   0.803   0.015   0.124
    1UNL    H33   79   0.835  -0.101  -0.158
    1UNL    H34   80   0.815  -0.194  -0.000
    1UNL    H35   81   1.043  -0.093   0.092
    1UNL    H36   82   1.059  -0.175  -0.071
    1UNL    H37   83   1.047  -0.014  -0.051
    1UNL    H38   84   0.583  -0.114   0.046
    1UNL    H39   85   0.596   0.108   0.185
    1UNL    H40   86   0.610   0.306   0.089
    1UNL    H41   87   0.486   0.264  -0.035
    1UNL    H42   88  -0.229   0.228  -0.003
    1UNL    H43   89  -0.199   0.101  -0.098
    1UNL    H44   90  -0.433   0.088   0.075
    1UNL    H45   91  -0.372  -0.093  -0.116
    1UNL    H46   92  -0.537  -0.069  -0.483
    1UNL    H47   93  -0.710  -0.095  -0.463
    1UNL    H48   94  -0.640   0.075  -0.444
   0.00000   0.00000   0.00000   0.00000   0.00000   0.00000   0.00000   0.00000   0.00000
Generated with MDTraj, t= 15.0
 94
    1UNL     C1    1  -0.359   0.337  -0.201
    1UNL     C2    2  -0.492   0.302  -0.139
    1UNL     C3    3  -0.517   0.196  -0.064
    1UNL     C4    4  -0.652   0.159  -0.005
    1UNL     N1    5  -0.677   0.012  -0.011
    1UNL     C5    6  -0.807  -0.022  -0.085
    1UNL     C6    7  -0.564  -0.083  -0.011
    1UNL     C7    8  -0.503  -0.114   0.132
    1UNL     C8    9  -0.359  -0.164   0.142
    1UNL     C9   10  -0.241  -0.092   0.116
    1UNL     N2   11  -0.139  -0.178   0.152
    1UNL    C10   12  -0.186  -0.300   0.194
    1UNL    C11   13  -0.129  -0.427   0.228
    1UNL    C12   14  -0.212  -0.537   0.257
    1UNL    C13   15  -0.351  -0.519   0.262
    1UNL    C14   16  -0.410  -0.401   0.223
    1UNL    C15   17  -0.322  -0.296   0.188
    1UNL    C16   18  -0.216   0.060   0.110
    1UNL    C17   19  -0.064   0.090   0.143
    1UNL    C18   20  -0.032   0.136   0.276
    1UNL    C19   21   0.095   0.135   0.319
    1UNL    C20   22   0.194   0.103   0.227
    1UNL     N3   23   0.335   0.122   0.234
    1UNL    C21   24   0.391   0.082   0.114
    1UNL    C22   25   0.294   0.056   0.024
    1UNL    C23   26   0.165   0.074   0.096
    1UNL    C24   27   0.033   0.067   0.053
    1UNL    C25   28   0.312   0.013  -0.118
    1UNL    C26   29   0.431  -0.080  -0.153
    1UNL     N4   30   0.573  -0.015  -0.131
    1UNL    C27   31   0.597   0.109  -0.206
    1UNL    C28   32   0.666   0.213  -0.115
    1UNL    C29   33   0.796   0.149  -0.064
    1UNL    C30   34   0.764   0.012   0.009
    1UNL    C31   35   0.845  -0.107  -0.044
    1UNL    C32   36   0.995  -0.092  -0.016
    1UNL    C33   37   0.614  -0.014   0.011
    1UNL    C34   38   0.535   0.102   0.085
    1UNL    C35   39   0.567   0.239   0.005
    1UNL    C36   40  -0.265   0.127  -0.015
    1UNL    C37   41  -0.414   0.099  -0.024
    1UNL    C38   42  -0.443  -0.034  -0.094
    1UNL    C39   43  -0.487   0.001  -0.239
    1UNL     O1   44  -0.408   0.073  -0.294
    1UNL     O2   45  -0.602  -0.048  -0.282
    1UNL    C40   46  -0.624   0.012  -0.410
    1UNL     H1   47  -0.327   0.247  -0.254
    1UNL     H2   48  -0.296   0.397  -0.132
    1UNL     H3   49  -0.382   0.409  -0.280
    1UNL     H4   50  -0.575   0.369  -0.171
    1UNL     H5   51  -0.732   0.208  -0.069
    1UNL     H6   52  -0.660   0.193   0.095
    1UNL     H7   53  -0.835  -0.119  -0.048
    1UNL     H8   54  -0.888   0.054  -0.052
    1UNL     H9   55  -0.808  -0.022  -0.191
    1UNL    H10   56  -0.618  -0.170  -0.047
    1UNL    H11   57  -0.509  -0.024   0.198
    1UNL    H12   58  -0.566  -0.186   0.183
    1UNL    H13   59  -0.036  -0.162   0.140
    1UNL    H14   60  -0.019  -0.442   0.223
    1UNL    H15   61  -0.169  -0.637   0.295
    1UNL    H16   62  -0.414  -0.599   0.301
    1UNL    H17   63  -0.515  -0.396   0.210
    1UNL    H18   64  -0.275   0.093   0.207
    1UNL    H19   65  -0.122   0.142   0.333
    1UNL    H20   66   0.121   0.162   0.417
    1UNL    H21   67   0.381   0.161   0.316
    1UNL    H22   68  -0.003   0.035  -0.043
    1UNL    H23   69   0.312   0.102  -0.193
    1UNL    H24   70   0.222  -0.045  -0.138
    1UNL    H25   71   0.416  -0.165  -0.081
    1UNL    H26   72   0.429  -0.122  -0.252
    1UNL    H27   73   0.652   0.076  -0.298
    1UNL    H28   74   0.507   0.168  -0.249
    1UNL    H29   75   0.685   0.304  -0.183
    1UNL    H30   76   0.867   0.137  -0.141
    1UNL    H31   77   0.841   0.219   0.014
    1UNL    H32   78   0.798   0.023   0.117
    1UNL    H33   79   0.841  -0.114  -0.158
    1UNL    H34   80   0.811  -0.199   0.004
    1UNL    H35   81   1.020  -0.085   0.093
    1UNL    H36   82   1.049  -0.173  -0.066
    1UNL    H37   83   1.031   0.001  -0.061
    1UNL    H38   84   0.586  -0.113   0.052
    1UNL    H39   85   0.586   0.117   0.181
    1UNL    H40   86   0.613   0.312   0.074
    1UNL    H41   87   0.475   0.266  -0.038
    1UNL    H42   88  -0.244   0.231  -0.008
    1UNL    H43   89  -0.213   0.095  -0.099
    1UNL    H44   90  -0.436   0.080   0.082
    1UNL    H45   91  -0.362  -0.110  -0.094
    1UNL    H46   92  -0.556  -0.025  -0.486
    1UNL    H47   93  -0.725  -0.026  -0.447
    1UNL    H48   94  -0.641   0.121  -0.395
   0.00000   0.00000   0.00000   0.00000   0.00000   0.00000   0.00000   0.00000   0.00000
Generated with MDTraj, t= 16.0
 94
    1UNL     C1    1  -0.389   0.363  -0.220
    1UNL     C2    2  -0.510   0.320  -0.149
    1UNL     C3    3  -0.514   0.214  -0.071
    1UNL     C4    4  -0.644   0.167  -0.011
    1UNL     N1    5  -0.668   0.015  -0.003
    1UNL     C5    6  -0.792  -0.040  -0.054
    1UNL     C6    7  -0.553  -0.076   0.001
    1UNL     C7    8  -0.503  -0.096   0.144
    1UNL     C8    9  -0.364  -0.158   0.149
    1UNL     C9   10  -0.241  -0.095   0.120
    1UNL     N2   11  -0.142  -0.186   0.136
    1UNL    C10   12  -0.198  -0.309   0.169
    1UNL    C11   13  -0.129  -0.424   0.206
    1UNL    C12   14  -0.202  -0.536   0.236
    1UNL    C13   15  -0.344  -0.526   0.239
    1UNL    C14   16  -0.413  -0.408   0.209
    1UNL    C15   17  -0.341  -0.296   0.171
    1UNL    C16   18  -0.210   0.061   0.122
    1UNL    C17   19  -0.062   0.082   0.163
    1UNL    C18   20  -0.026   0.130   0.295
    1UNL    C19   21   0.106   0.136   0.335
    1UNL    C20   22   0.209   0.109   0.239
    1UNL     N3   23   0.345   0.138   0.242
    1UNL    C21   24   0.402   0.104   0.120
    1UNL    C22   25   0.296   0.071   0.032
    1UNL    C23   26   0.172   0.069   0.108
    1UNL    C24   27   0.039   0.043   0.077
    1UNL    C25   28   0.310   0.027  -0.112
    1UNL    C26   29   0.405  -0.078  -0.136
    1UNL     N4   30   0.549  -0.026  -0.117
    1UNL    C27   31   0.587   0.087  -0.211
    1UNL    C28   32   0.652   0.200  -0.129
    1UNL    C29   33   0.785   0.146  -0.064
    1UNL    C30   34   0.752   0.011   0.019
    1UNL    C31   35   0.817  -0.115  -0.041
    1UNL    C32   36   0.969  -0.100  -0.039
    1UNL    C33   37   0.600  -0.007   0.022
    1UNL    C34   38   0.541   0.124   0.079
    1UNL    C35   39   0.559   0.250  -0.011
    1UNL    C36   40  -0.251   0.139  -0.005
    1UNL    C37   41  -0.399   0.116  -0.035
    1UNL    C38   42  -0.435  -0.024  -0.092
    1UNL    C39   43  -0.464  -0.021  -0.240
    1UNL     O1   44  -0.373  -0.011  -0.320
    1UNL     O2   45  -0.596  -0.030  -0.282
    1UNL    C40   46  -0.611   0.007  -0.416
    1UNL     H1   47  -0.353   0.278  -0.271
    1UNL     H2   48  -0.321   0.422  -0.152
    1UNL     H3   49  -0.408   0.437  -0.300
    1UNL     H4   50  -0.597   0.377  -0.167
    1UNL     H5   51  -0.732   0.213  -0.068
    1UNL     H6   52  -0.637   0.208   0.087
    1UNL     H7   53  -0.803  -0.136  -0.006
    1UNL     H8   54  -0.873   0.027  -0.013
    1UNL     H9   55  -0.803  -0.051  -0.163
    1UNL    H10   56  -0.595  -0.174  -0.028
    1UNL    H11   57  -0.502  -0.003   0.213
    1UNL    H12   58  -0.569  -0.160   0.207
    1UNL    H13   59  -0.046  -0.158   0.157
    1UNL    H14   60  -0.025  -0.425   0.191
    1UNL    H15   61  -0.162  -0.620   0.280
    1UNL    H16   62  -0.392  -0.609   0.283
    1UNL    H17   63  -0.520  -0.398   0.208
    1UNL    H18   64  -0.262   0.096   0.221
    1UNL    H19   65  -0.098   0.150   0.377
    1UNL    H20   66   0.138   0.129   0.444
    1UNL    H21   67   0.408   0.173   0.314
    1UNL    H22   68   0.023   0.001  -0.028
    1UNL    H23   69   0.340   0.123  -0.172
    1UNL    H24   70   0.212  -0.005  -0.148
    1UNL    H25   71   0.393  -0.168  -0.074
    1UNL    H26   72   0.396  -0.113  -0.238
    1UNL    H27   73   0.669   0.057  -0.280
    1UNL    H28   74   0.508   0.129  -0.285
    1UNL    H29   75   0.681   0.292  -0.192
    1UNL    H30   76   0.849   0.124  -0.143
    1UNL    H31   77   0.834   0.229  -0.000
    1UNL    H32   78   0.781   0.024   0.128
    1UNL    H33   79   0.780  -0.132  -0.147
    1UNL    H34   80   0.793  -0.205   0.015
    1UNL    H35   81   0.996  -0.072   0.064
    1UNL    H36   82   1.021  -0.188  -0.072
    1UNL    H37   83   1.008  -0.006  -0.104
    1UNL    H38   84   0.573  -0.092   0.089
    1UNL    H39   85   0.603   0.149   0.166
    1UNL    H40   86   0.613   0.328   0.045
    1UNL    H41   87   0.459   0.272  -0.032
    1UNL    H42   88  -0.238   0.240   0.008
    1UNL    H43   89  -0.195   0.108  -0.091
    1UNL    H44   90  -0.435   0.109   0.070
    1UNL    H45   91  -0.343  -0.091  -0.077
    1UNL    H46   92  -0.544  -0.047  -0.482
    1UNL    H47   93  -0.711  -0.038  -0.444
    1UNL    H48   94  -0.639   0.115  -0.416
   0.00000   0.00000   0.00000   0.00000   0.00000   0.00000   0.00000   0.00000   0.00000
Generated with MDTraj, t= 17.0
 94
    1UNL     C1    1  -0.340   0.321  -0.218
    1UNL     C2    2  -0.477   0.302  -0.157
    1UNL     C3    3  -0.507   0.203  -0.075
    1UNL     C4    4  -0.651   0.171  -0.029
    1UNL     N1    5  -0.671   0.024   0.010
    1UNL     C5    6  -0.790  -0.035  -0.051
    1UNL     C6    7  -0.555  -0.083   0.010
    1UNL     C7    8  -0.502  -0.100   0.149
    1UNL     C8    9  -0.364  -0.155   0.149
    1UNL     C9   10  -0.243  -0.088   0.152
    1UNL     N2   11  -0.143  -0.181   0.151
    1UNL    C10   12  -0.196  -0.307   0.161
    1UNL    C11   13  -0.127  -0.427   0.170
    1UNL    C12   14  -0.205  -0.537   0.186
    1UNL    C13   15  -0.348  -0.537   0.199
    1UNL    C14   16  -0.409  -0.419   0.199
    1UNL    C15   17  -0.337  -0.298   0.167
    1UNL    C16   18  -0.216   0.068   0.141
    1UNL    C17   19  -0.066   0.089   0.172
    1UNL    C18   20  -0.026   0.130   0.302
    1UNL    C19   21   0.107   0.149   0.335
    1UNL    C20   22   0.201   0.139   0.239
    1UNL     N3   23   0.337   0.153   0.238
    1UNL    C21   24   0.379   0.125   0.116
    1UNL    C22   25   0.279   0.088   0.030
    1UNL    C23   26   0.161   0.107   0.111
    1UNL    C24   27   0.030   0.079   0.075
    1UNL    C25   28   0.297   0.030  -0.106
    1UNL    C26   29   0.399  -0.076  -0.128
    1UNL     N4   30   0.542  -0.021  -0.115
    1UNL    C27   31   0.590   0.077  -0.210
    1UNL    C28   32   0.653   0.195  -0.137
    1UNL    C29   33   0.785   0.143  -0.071
    1UNL    C30   34   0.751   0.012   0.012
    1UNL    C31   35   0.809  -0.121  -0.042
    1UNL    C32   36   0.957  -0.133  -0.047
    1UNL    C33   37   0.597   0.000   0.020
    1UNL    C34   38   0.533   0.132   0.079
    1UNL    C35   39   0.555   0.245  -0.019
    1UNL    C36   40  -0.255   0.131   0.009
    1UNL    C37   41  -0.409   0.111  -0.016
    1UNL    C38   42  -0.439  -0.028  -0.076
    1UNL    C39   43  -0.453  -0.019  -0.228
    1UNL     O1   44  -0.355  -0.045  -0.298
    1UNL     O2   45  -0.576   0.019  -0.274
    1UNL    C40   46  -0.599  -0.031  -0.402
    1UNL     H1   47  -0.303   0.229  -0.252
    1UNL     H2   48  -0.266   0.376  -0.153
    1UNL     H3   49  -0.333   0.384  -0.310
    1UNL     H4   50  -0.560   0.368  -0.190
    1UNL     H5   51  -0.718   0.200  -0.117
    1UNL     H6   52  -0.676   0.224   0.059
    1UNL     H7   53  -0.815  -0.127   0.002
    1UNL     H8   54  -0.874   0.031  -0.054
    1UNL     H9   55  -0.767  -0.060  -0.158
    1UNL    H10   56  -0.589  -0.176  -0.042
    1UNL    H11   57  -0.511  -0.006   0.217
    1UNL    H12   58  -0.563  -0.174   0.213
    1UNL    H13   59  -0.046  -0.160   0.154
    1UNL    H14   60  -0.018  -0.429   0.162
    1UNL    H15   61  -0.149  -0.633   0.176
    1UNL    H16   62  -0.412  -0.627   0.215
    1UNL    H17   63  -0.517  -0.414   0.222
    1UNL    H18   64  -0.282   0.114   0.227
    1UNL    H19   65  -0.102   0.136   0.374
    1UNL    H20   66   0.146   0.141   0.430
    1UNL    H21   67   0.393   0.157   0.323
    1UNL    H22   68   0.010   0.056  -0.021
    1UNL    H23   69   0.322   0.120  -0.171
    1UNL    H24   70   0.199  -0.011  -0.134
    1UNL    H25   71   0.384  -0.157  -0.062
    1UNL    H26   72   0.396  -0.127  -0.227
    1UNL    H27   73   0.672   0.037  -0.275
    1UNL    H28   74   0.506   0.111  -0.280
    1UNL    H29   75   0.667   0.283  -0.208
    1UNL    H30   76   0.841   0.110  -0.153
    1UNL    H31   77   0.838   0.230  -0.018
    1UNL    H32   78   0.776   0.037   0.121
    1UNL    H33   79   0.765  -0.132  -0.146
    1UNL    H34   80   0.763  -0.205   0.007
    1UNL    H35   81   1.001  -0.118   0.054
    1UNL    H36   82   0.990  -0.231  -0.084
    1UNL    H37   83   1.015  -0.057  -0.111
    1UNL    H38   84   0.579  -0.085   0.090
    1UNL    H39   85   0.587   0.158   0.171
    1UNL    H40   86   0.589   0.326   0.048
    1UNL    H41   87   0.468   0.277  -0.065
    1UNL    H42   88  -0.245   0.233   0.015
    1UNL    H43   89  -0.199   0.096  -0.077
    1UNL    H44   90  -0.440   0.119   0.090
    1UNL    H45   91  -0.337  -0.085  -0.065
    1UNL    H46   92  -0.631  -0.133  -0.394
    1UNL    H47   93  -0.684   0.024  -0.449
    1UNL    H48   94  -0.513  -0.015  -0.467
   0.00000   0.00000   0.00000   0.00000   0.00000   0.00000   0.00000   0.00000   0.00000
Generated with MDTraj, t= 18.0
 94
    1UNL     C1    1  -0.312   0.300  -0.229
    1UNL     C2    2  -0.457   0.279  -0.181
    1UNL     C3    3  -0.495   0.192  -0.088
    1UNL     C4    4  -0.638   0.170  -0.038
    1UNL     N1    5  -0.665   0.030   0.008
    1UNL     C5    6  -0.798  -0.018  -0.048
    1UNL     C6    7  -0.563  -0.080   0.024
    1UNL     C7    8  -0.509  -0.100   0.166
    1UNL     C8    9  -0.367  -0.150   0.168
    1UNL     C9   10  -0.241  -0.081   0.164
    1UNL     N2   11  -0.134  -0.175   0.166
    1UNL    C10   12  -0.188  -0.303   0.160
    1UNL    C11   13  -0.130  -0.433   0.148
    1UNL    C12   14  -0.212  -0.542   0.128
    1UNL    C13   15  -0.350  -0.528   0.144
    1UNL    C14   16  -0.408  -0.404   0.163
    1UNL    C15   17  -0.328  -0.288   0.163
    1UNL    C16   18  -0.214   0.067   0.159
    1UNL    C17   19  -0.067   0.091   0.197
    1UNL    C18   20  -0.034   0.157   0.316
    1UNL    C19   21   0.100   0.176   0.339
    1UNL    C20   22   0.200   0.150   0.243
    1UNL     N3   23   0.338   0.183   0.234
    1UNL    C21   24   0.386   0.142   0.108
    1UNL    C22   25   0.278   0.092   0.037
    1UNL    C23   26   0.162   0.094   0.117
    1UNL    C24   27   0.028   0.066   0.098
    1UNL    C25   28   0.274   0.052  -0.114
    1UNL    C26   29   0.380  -0.055  -0.145
    1UNL     N4   30   0.527  -0.016  -0.128
    1UNL    C27   31   0.581   0.081  -0.222
    1UNL    C28   32   0.661   0.187  -0.138
    1UNL    C29   33   0.786   0.119  -0.082
    1UNL    C30   34   0.733  -0.001   0.011
    1UNL    C31   35   0.795  -0.131  -0.032
    1UNL    C32   36   0.950  -0.142  -0.027
    1UNL    C33   37   0.576   0.001   0.013
    1UNL    C34   38   0.526   0.138   0.070
    1UNL    C35   39   0.567   0.250  -0.026
    1UNL    C36   40  -0.259   0.140   0.029
    1UNL    C37   41  -0.403   0.105  -0.009
    1UNL    C38   42  -0.439  -0.042  -0.061
    1UNL    C39   43  -0.451  -0.054  -0.208
    1UNL     O1   44  -0.344  -0.067  -0.270
    1UNL     O2   45  -0.579  -0.041  -0.258
    1UNL    C40   46  -0.561  -0.005  -0.392
    1UNL     H1   47  -0.270   0.203  -0.243
    1UNL     H2   48  -0.253   0.359  -0.153
    1UNL     H3   49  -0.303   0.355  -0.324
    1UNL     H4   50  -0.530   0.342  -0.223
    1UNL     H5   51  -0.709   0.179  -0.124
    1UNL     H6   52  -0.663   0.241   0.040
    1UNL     H7   53  -0.835  -0.120  -0.023
    1UNL     H8   54  -0.871   0.054  -0.037
    1UNL     H9   55  -0.778  -0.016  -0.160
    1UNL    H10   56  -0.600  -0.177  -0.022
    1UNL    H11   57  -0.515  -0.000   0.223
    1UNL    H12   58  -0.575  -0.167   0.235
    1UNL    H13   59  -0.037  -0.169   0.177
    1UNL    H14   60  -0.024  -0.446   0.166
    1UNL    H15   61  -0.175  -0.638   0.090
    1UNL    H16   62  -0.407  -0.614   0.129
    1UNL    H17   63  -0.507  -0.393   0.193
    1UNL    H18   64  -0.282   0.112   0.245
    1UNL    H19   65  -0.109   0.164   0.399
    1UNL    H20   66   0.117   0.213   0.444
    1UNL    H21   67   0.389   0.235   0.306
    1UNL    H22   68  -0.003   0.023   0.002
    1UNL    H23   69   0.281   0.137  -0.181
    1UNL    H24   70   0.175   0.002  -0.123
    1UNL    H25   71   0.363  -0.143  -0.092
    1UNL    H26   72   0.367  -0.090  -0.251
    1UNL    H27   73   0.650   0.021  -0.286
    1UNL    H28   74   0.516   0.135  -0.296
    1UNL    H29   75   0.693   0.268  -0.211
    1UNL    H30   76   0.846   0.087  -0.165
    1UNL    H31   77   0.840   0.195  -0.018
    1UNL    H32   78   0.775   0.022   0.115
    1UNL    H33   79   0.768  -0.152  -0.140
    1UNL    H34   80   0.746  -0.217   0.011
    1UNL    H35   81   0.979  -0.143   0.084
    1UNL    H36   82   0.978  -0.243  -0.076
    1UNL    H37   83   1.005  -0.064  -0.073
    1UNL    H38   84   0.539  -0.089   0.067
    1UNL    H39   85   0.584   0.163   0.160
    1UNL    H40   86   0.621   0.336   0.016
    1UNL    H41   87   0.474   0.287  -0.060
    1UNL    H42   88  -0.245   0.243   0.043
    1UNL    H43   89  -0.196   0.105  -0.052
    1UNL    H44   90  -0.455   0.100   0.085
    1UNL    H45   91  -0.359  -0.126  -0.035
    1UNL    H46   92  -0.653   0.019  -0.446
    1UNL    H47   93  -0.503   0.092  -0.390
    1UNL    H48   94  -0.523  -0.088  -0.447
   0.00000   0.00000   0.00000   0.00000   0.00000   0.00000   0.00000   0.00000   0.00000
Generated with MDTraj, t= 19.0
 94
    1UNL     C1    1  -0.319   0.276  -0.254
    1UNL     C2    2  -0.444   0.267  -0.178
    1UNL     C3    3  -0.473   0.185  -0.078
    1UNL     C4    4  -0.618   0.158  -0.038
    1UNL     N1    5  -0.655   0.017   0.007
    1UNL     C5    6  -0.785  -0.054  -0.009
    1UNL     C6    7  -0.543  -0.082   0.029
    1UNL     C7    8  -0.505  -0.102   0.180
    1UNL     C8    9  -0.366  -0.151   0.186
    1UNL     C9   10  -0.248  -0.082   0.179
    1UNL     N2   11  -0.144  -0.175   0.180
    1UNL    C10   12  -0.199  -0.302   0.162
    1UNL    C11   13  -0.145  -0.422   0.124
    1UNL    C12   14  -0.228  -0.527   0.090
    1UNL    C13   15  -0.367  -0.515   0.100
    1UNL    C14   16  -0.430  -0.399   0.142
    1UNL    C15   17  -0.342  -0.290   0.171
    1UNL    C16   18  -0.201   0.066   0.164
    1UNL    C17   19  -0.060   0.100   0.190
    1UNL    C18   20  -0.024   0.161   0.312
    1UNL    C19   21   0.110   0.199   0.337
    1UNL    C20   22   0.205   0.165   0.240
    1UNL     N3   23   0.343   0.184   0.236
    1UNL    C21   24   0.383   0.146   0.108
    1UNL    C22   25   0.280   0.104   0.027
    1UNL    C23   26   0.168   0.115   0.116
    1UNL    C24   27   0.030   0.066   0.098
    1UNL    C25   28   0.268   0.054  -0.111
    1UNL    C26   29   0.375  -0.056  -0.141
    1UNL     N4   30   0.514  -0.007  -0.122
    1UNL    C27   31   0.562   0.089  -0.217
    1UNL    C28   32   0.651   0.194  -0.146
    1UNL    C29   33   0.771   0.119  -0.088
    1UNL    C30   34   0.721   0.000  -0.000
    1UNL    C31   35   0.767  -0.139  -0.034
    1UNL    C32   36   0.917  -0.164   0.001
    1UNL    C33   37   0.566   0.002   0.013
    1UNL    C34   38   0.527   0.142   0.074
    1UNL    C35   39   0.564   0.252  -0.027
    1UNL    C36   40  -0.238   0.127   0.026
    1UNL    C37   41  -0.382   0.101  -0.001
    1UNL    C38   42  -0.419  -0.046  -0.055
    1UNL    C39   43  -0.437  -0.041  -0.206
    1UNL     O1   44  -0.332  -0.034  -0.270
    1UNL     O2   45  -0.560  -0.026  -0.255
    1UNL    C40   46  -0.555  -0.049  -0.394
    1UNL     H1   47  -0.284   0.173  -0.272
    1UNL     H2   48  -0.243   0.332  -0.195
    1UNL     H3   49  -0.334   0.327  -0.350
    1UNL     H4   50  -0.521   0.340  -0.208
    1UNL     H5   51  -0.684   0.190  -0.122
    1UNL     H6   52  -0.645   0.218   0.051
    1UNL     H7   53  -0.796  -0.134   0.068
    1UNL     H8   54  -0.867   0.011  -0.009
    1UNL     H9   55  -0.782  -0.096  -0.112
    1UNL    H10   56  -0.581  -0.183  -0.009
    1UNL    H11   57  -0.507  -0.003   0.236
    1UNL    H12   58  -0.577  -0.180   0.228
    1UNL    H13   59  -0.048  -0.152   0.174
    1UNL    H14   60  -0.040  -0.436   0.123
    1UNL    H15   61  -0.187  -0.618   0.059
    1UNL    H16   62  -0.424  -0.605   0.068
    1UNL    H17   63  -0.541  -0.395   0.156
    1UNL    H18   64  -0.260   0.127   0.246
    1UNL    H19   65  -0.099   0.174   0.385
    1UNL    H20   66   0.144   0.244   0.426
    1UNL    H21   67   0.403   0.225   0.308
    1UNL    H22   68  -0.009   0.010   0.008
    1UNL    H23   69   0.281   0.132  -0.179
    1UNL    H24   70   0.172   0.000  -0.127
    1UNL    H25   71   0.357  -0.136  -0.079
    1UNL    H26   72   0.361  -0.092  -0.246
    1UNL    H27   73   0.622   0.028  -0.292
    1UNL    H28   74   0.480   0.132  -0.276
    1UNL    H29   75   0.699   0.264  -0.221
    1UNL    H30   76   0.840   0.080  -0.168
    1UNL    H31   77   0.829   0.192  -0.028
    1UNL    H32   78   0.770   0.022   0.102
    1UNL    H33   79   0.732  -0.175  -0.135
    1UNL    H34   80   0.713  -0.211   0.024
    1UNL    H35   81   0.928  -0.146   0.115
    1UNL    H36   82   0.932  -0.279  -0.020
    1UNL    H37   83   0.988  -0.110  -0.050
    1UNL    H38   84   0.522  -0.080   0.075
    1UNL    H39   85   0.579   0.160   0.170
    1UNL    H40   86   0.626   0.323   0.028
    1UNL    H41   87   0.485   0.309  -0.067
    1UNL    H42   88  -0.220   0.236   0.026
    1UNL    H43   89  -0.175   0.082  -0.046
    1UNL    H44   90  -0.422   0.104   0.098
    1UNL    H45   91  -0.332  -0.118  -0.025
    1UNL    H46   92  -0.586   0.035  -0.455
    1UNL    H47   93  -0.446  -0.050  -0.425
    1UNL    H48   94  -0.622  -0.130  -0.418
   0.00000   0.00000   0.00000   0.00000   0.00000   0.00000   0.00000   0.00000   0.00000
Generated with MDTraj, t= 20.0
 94
    1UNL     C1    1  -0.323   0.297  -0.234
    1UNL     C2    2  -0.456   0.273  -0.185
    1UNL     C3    3  -0.488   0.199  -0.079
    1UNL     C4    4  -0.639   0.165  -0.048
    1UNL     N1    5  -0.664   0.028   0.011
    1UNL     C5    6  -0.797  -0.032  -0.015
    1UNL     C6    7  -0.546  -0.074   0.027
    1UNL     C7    8  -0.499  -0.092   0.175
    1UNL     C8    9  -0.362  -0.145   0.180
    1UNL     C9   10  -0.237  -0.081   0.167
    1UNL     N2   11  -0.143  -0.181   0.152
    1UNL    C10   12  -0.199  -0.306   0.141
    1UNL    C11   13  -0.142  -0.428   0.103
    1UNL    C12   14  -0.224  -0.532   0.085
    1UNL    C13   15  -0.362  -0.521   0.103
    1UNL    C14   16  -0.417  -0.398   0.133
    1UNL    C15   17  -0.335  -0.285   0.155
    1UNL    C16   18  -0.208   0.069   0.173
    1UNL    C17   19  -0.063   0.100   0.206
    1UNL    C18   20  -0.012   0.148   0.331
    1UNL    C19   21   0.115   0.188   0.355
    1UNL    C20   22   0.203   0.179   0.246
    1UNL     N3   23   0.337   0.200   0.228
    1UNL    C21   24   0.390   0.152   0.110
    1UNL    C22   25   0.275   0.111   0.038
    1UNL    C23   26   0.163   0.131   0.116
    1UNL    C24   27   0.029   0.079   0.110
    1UNL    C25   28   0.279   0.055  -0.099
    1UNL    C26   29   0.376  -0.055  -0.126
    1UNL     N4   30   0.517  -0.014  -0.121
    1UNL    C27   31   0.575   0.073  -0.219
    1UNL    C28   32   0.662   0.183  -0.148
    1UNL    C29   33   0.778   0.111  -0.087
    1UNL    C30   34   0.729  -0.001   0.008
    1UNL    C31   35   0.766  -0.144  -0.033
    1UNL    C32   36   0.910  -0.175  -0.010
    1UNL    C33   37   0.574   0.007   0.013
    1UNL    C34   38   0.535   0.152   0.065
    1UNL    C35   39   0.572   0.254  -0.040
    1UNL    C36   40  -0.261   0.150   0.046
    1UNL    C37   41  -0.399   0.111   0.004
    1UNL    C38   42  -0.424  -0.038  -0.053
    1UNL    C39   43  -0.436  -0.055  -0.200
    1UNL     O1   44  -0.339  -0.033  -0.272
    1UNL     O2   45  -0.557  -0.096  -0.253
    1UNL    C40   46  -0.551  -0.087  -0.389
    1UNL     H1   47  -0.270   0.198  -0.256
    1UNL     H2   48  -0.263   0.348  -0.160
    1UNL     H3   49  -0.318   0.355  -0.325
    1UNL     H4   50  -0.535   0.322  -0.237
    1UNL     H5   51  -0.698   0.180  -0.140
    1UNL     H6   52  -0.678   0.243   0.023
    1UNL     H7   53  -0.792  -0.133   0.028
    1UNL     H8   54  -0.865   0.021   0.055
    1UNL     H9   55  -0.836  -0.019  -0.116
    1UNL    H10   56  -0.586  -0.175  -0.008
    1UNL    H11   57  -0.519   0.005   0.228
    1UNL    H12   58  -0.569  -0.172   0.223
    1UNL    H13   59  -0.044  -0.162   0.136
    1UNL    H14   60  -0.035  -0.438   0.073
    1UNL    H15   61  -0.172  -0.632   0.062
    1UNL    H16   62  -0.430  -0.602   0.110
    1UNL    H17   63  -0.522  -0.389   0.128
    1UNL    H18   64  -0.262   0.122   0.265
    1UNL    H19   65  -0.082   0.167   0.414
    1UNL    H20   66   0.139   0.242   0.447
    1UNL    H21   67   0.390   0.211   0.315
    1UNL    H22   68   0.008   0.021   0.029
    1UNL    H23   69   0.302   0.130  -0.164
    1UNL    H24   70   0.176   0.021  -0.125
    1UNL    H25   71   0.361  -0.142  -0.069
    1UNL    H26   72   0.357  -0.090  -0.230
    1UNL    H27   73   0.636   0.007  -0.290
    1UNL    H28   74   0.498   0.113  -0.284
    1UNL    H29   75   0.711   0.257  -0.216
    1UNL    H30   76   0.835   0.062  -0.177
    1UNL    H31   77   0.845   0.180  -0.040
    1UNL    H32   78   0.781   0.009   0.111
    1UNL    H33   79   0.737  -0.163  -0.141
    1UNL    H34   80   0.693  -0.211   0.008
    1UNL    H35   81   0.943  -0.178   0.100
    1UNL    H36   82   0.936  -0.277  -0.054
    1UNL    H37   83   0.985  -0.110  -0.059
    1UNL    H38   84   0.534  -0.064   0.089
    1UNL    H39   85   0.594   0.162   0.159
    1UNL    H40   86   0.619   0.338   0.010
    1UNL    H41   87   0.493   0.302  -0.095
    1UNL    H42   88  -0.268   0.256   0.086
    1UNL    H43   89  -0.190   0.150  -0.032
    1UNL    H44   90  -0.442   0.111   0.098
    1UNL    H45   91  -0.334  -0.093  -0.014
    1UNL    H46   92  -0.476  -0.013  -0.416
    1UNL    H47   93  -0.511  -0.181  -0.436
    1UNL    H48   94  -0.645  -0.052  -0.429
   0.00000   0.00000   0.00000   0.00000   0.00000   0.00000   0.00000   0.00000   0.00000
Generated with MDTraj, t= 21.0
 94
    1UNL     C1    1  -0.324   0.324  -0.202
    1UNL     C2    2  -0.458   0.295  -0.162
    1UNL     C3    3  -0.492   0.202  -0.075
    1UNL     C4    4  -0.637   0.160  -0.049
    1UNL     N1    5  -0.661   0.036   0.031
    1UNL     C5    6  -0.801  -0.026  -0.010
    1UNL     C6    7  -0.548  -0.070   0.029
    1UNL     C7    8  -0.496  -0.089   0.172
    1UNL     C8    9  -0.359  -0.149   0.172
    1UNL     C9   10  -0.242  -0.079   0.153
    1UNL     N2   11  -0.134  -0.164   0.138
    1UNL    C10   12  -0.184  -0.289   0.144
    1UNL    C11   13  -0.127  -0.410   0.090
    1UNL    C12   14  -0.208  -0.526   0.085
    1UNL    C13   15  -0.340  -0.521   0.124
    1UNL    C14   16  -0.399  -0.405   0.161
    1UNL    C15   17  -0.323  -0.287   0.170
    1UNL    C16   18  -0.214   0.068   0.147
    1UNL    C17   19  -0.065   0.102   0.178
    1UNL    C18   20  -0.036   0.144   0.308
    1UNL    C19   21   0.097   0.168   0.343
    1UNL    C20   22   0.193   0.164   0.239
    1UNL     N3   23   0.336   0.172   0.237
    1UNL    C21   24   0.380   0.147   0.112
    1UNL    C22   25   0.274   0.114   0.034
    1UNL    C23   26   0.159   0.116   0.113
    1UNL    C24   27   0.027   0.076   0.081
    1UNL    C25   28   0.288   0.072  -0.113
    1UNL    C26   29   0.372  -0.052  -0.125
    1UNL     N4   30   0.515  -0.028  -0.112
    1UNL    C27   31   0.578   0.058  -0.211
    1UNL    C28   32   0.663   0.173  -0.144
    1UNL    C29   33   0.786   0.104  -0.073
    1UNL    C30   34   0.728  -0.002   0.028
    1UNL    C31   35   0.770  -0.143  -0.017
    1UNL    C32   36   0.924  -0.157  -0.032
    1UNL    C33   37   0.570   0.006   0.032
    1UNL    C34   38   0.525   0.144   0.073
    1UNL    C35   39   0.561   0.241  -0.040
    1UNL    C36   40  -0.254   0.132   0.012
    1UNL    C37   41  -0.397   0.111  -0.005
    1UNL    C38   42  -0.423  -0.033  -0.058
    1UNL    C39   43  -0.448  -0.031  -0.201
    1UNL     O1   44  -0.365   0.009  -0.281
    1UNL     O2   45  -0.556  -0.099  -0.243
    1UNL    C40   46  -0.546  -0.139  -0.376
    1UNL     H1   47  -0.264   0.229  -0.228
    1UNL     H2   48  -0.269   0.374  -0.124
    1UNL     H3   49  -0.321   0.392  -0.287
    1UNL     H4   50  -0.535   0.350  -0.216
    1UNL     H5   51  -0.675   0.137  -0.148
    1UNL     H6   52  -0.700   0.246  -0.007
    1UNL     H7   53  -0.851  -0.051   0.083
    1UNL     H8   54  -0.870   0.055  -0.053
    1UNL     H9   55  -0.799  -0.100  -0.086
    1UNL    H10   56  -0.585  -0.169  -0.016
    1UNL    H11   57  -0.498   0.008   0.231
    1UNL    H12   58  -0.578  -0.146   0.229
    1UNL    H13   59  -0.035  -0.145   0.107
    1UNL    H14   60  -0.041  -0.398   0.033
    1UNL    H15   61  -0.174  -0.617   0.056
    1UNL    H16   62  -0.393  -0.618   0.118
    1UNL    H17   63  -0.507  -0.393   0.171
    1UNL    H18   64  -0.286   0.123   0.222
    1UNL    H19   65  -0.115   0.141   0.377
    1UNL    H20   66   0.123   0.196   0.447
    1UNL    H21   67   0.390   0.196   0.321
    1UNL    H22   68   0.001   0.010  -0.008
    1UNL    H23   69   0.323   0.147  -0.177
    1UNL    H24   70   0.188   0.054  -0.157
    1UNL    H25   71   0.345  -0.134  -0.063
    1UNL    H26   72   0.363  -0.101  -0.224
    1UNL    H27   73   0.647  -0.020  -0.259
    1UNL    H28   74   0.518   0.090  -0.295
    1UNL    H29   75   0.692   0.252  -0.216
    1UNL    H30   76   0.850   0.060  -0.161
    1UNL    H31   77   0.845   0.175  -0.019
    1UNL    H32   78   0.777   0.013   0.131
    1UNL    H33   79   0.718  -0.165  -0.114
    1UNL    H34   80   0.740  -0.224   0.045
    1UNL    H35   81   0.969  -0.142   0.070
    1UNL    H36   82   0.949  -0.257  -0.075
    1UNL    H37   83   0.971  -0.073  -0.105
    1UNL    H38   84   0.518  -0.068   0.097
    1UNL    H39   85   0.580   0.168   0.167
    1UNL    H40   86   0.610   0.330  -0.006
    1UNL    H41   87   0.470   0.293  -0.077
    1UNL    H42   88  -0.228   0.242   0.017
    1UNL    H43   89  -0.195   0.079  -0.060
    1UNL    H44   90  -0.434   0.118   0.090
    1UNL    H45   91  -0.339  -0.095  -0.035
    1UNL    H46   92  -0.478  -0.073  -0.429
    1UNL    H47   93  -0.518  -0.246  -0.386
    1UNL    H48   94  -0.639  -0.125  -0.431
   0.00000   0.00000   0.00000   0.00000   0.00000   0.00000   0.00000   0.00000   0.00000
Generated with MDTraj, t= 22.0
 94
    1UNL     C1    1  -0.362   0.376  -0.202
    1UNL     C2    2  -0.492   0.315  -0.157
    1UNL     C3    3  -0.505   0.205  -0.085
    1UNL     C4    4  -0.645   0.147  -0.061
    1UNL     N1    5  -0.653   0.031   0.034
    1UNL     C5    6  -0.795  -0.026   0.030
    1UNL     C6    7  -0.548  -0.071   0.018
    1UNL     C7    8  -0.495  -0.099   0.161
    1UNL     C8    9  -0.355  -0.146   0.162
    1UNL     C9   10  -0.236  -0.074   0.144
    1UNL     N2   11  -0.134  -0.162   0.125
    1UNL    C10   12  -0.186  -0.292   0.127
    1UNL    C11   13  -0.121  -0.416   0.116
    1UNL    C12   14  -0.191  -0.530   0.128
    1UNL    C13   15  -0.333  -0.524   0.148
    1UNL    C14   16  -0.400  -0.405   0.153
    1UNL    C15   17  -0.328  -0.285   0.148
    1UNL    C16   18  -0.210   0.075   0.142
    1UNL    C17   19  -0.070   0.112   0.184
    1UNL    C18   20  -0.026   0.137   0.319
    1UNL    C19   21   0.113   0.159   0.342
    1UNL    C20   22   0.198   0.151   0.236
    1UNL     N3   23   0.336   0.156   0.240
    1UNL    C21   24   0.385   0.129   0.111
    1UNL    C22   25   0.279   0.108   0.024
    1UNL    C23   26   0.163   0.122   0.105
    1UNL    C24   27   0.026   0.109   0.079
    1UNL    C25   28   0.284   0.052  -0.108
    1UNL    C26   29   0.387  -0.066  -0.121
    1UNL     N4   30   0.529  -0.025  -0.115
    1UNL    C27   31   0.585   0.073  -0.209
    1UNL    C28   32   0.669   0.178  -0.131
    1UNL    C29   33   0.791   0.110  -0.065
    1UNL    C30   34   0.736  -0.009   0.019
    1UNL    C31   35   0.787  -0.147  -0.023
    1UNL    C32   36   0.938  -0.158  -0.006
    1UNL    C33   37   0.581  -0.009   0.027
    1UNL    C34   38   0.531   0.125   0.080
    1UNL    C35   39   0.574   0.238  -0.023
    1UNL    C36   40  -0.254   0.149   0.008
    1UNL    C37   41  -0.403   0.121  -0.023
    1UNL    C38   42  -0.426  -0.021  -0.072
    1UNL    C39   43  -0.460  -0.037  -0.220
    1UNL     O1   44  -0.409   0.026  -0.309
    1UNL     O2   45  -0.551  -0.132  -0.245
    1UNL    C40   46  -0.578  -0.137  -0.380
    1UNL     H1   47  -0.293   0.297  -0.245
    1UNL     H2   48  -0.306   0.411  -0.115
    1UNL     H3   49  -0.382   0.459  -0.273
    1UNL     H4   50  -0.580   0.370  -0.185
    1UNL     H5   51  -0.686   0.110  -0.154
    1UNL     H6   52  -0.717   0.232  -0.026
    1UNL     H7   53  -0.803  -0.128   0.067
    1UNL     H8   54  -0.871   0.033   0.092
    1UNL     H9   55  -0.824  -0.017  -0.071
    1UNL    H10   56  -0.578  -0.167  -0.035
    1UNL    H11   57  -0.507  -0.004   0.225
    1UNL    H12   58  -0.563  -0.167   0.220
    1UNL    H13   59  -0.028  -0.146   0.121
    1UNL    H14   60  -0.012  -0.417   0.101
    1UNL    H15   61  -0.145  -0.632   0.116
    1UNL    H16   62  -0.394  -0.612   0.154
    1UNL    H17   63  -0.507  -0.403   0.173
    1UNL    H18   64  -0.282   0.124   0.220
    1UNL    H19   65  -0.092   0.158   0.405
    1UNL    H20   66   0.148   0.188   0.435
    1UNL    H21   67   0.401   0.174   0.317
    1UNL    H22   68   0.002   0.104  -0.028
    1UNL    H23   69   0.277   0.126  -0.190
    1UNL    H24   70   0.190  -0.001  -0.127
    1UNL    H25   71   0.372  -0.150  -0.055
    1UNL    H26   72   0.373  -0.117  -0.214
    1UNL    H27   73   0.637   0.027  -0.299
    1UNL    H28   74   0.495   0.115  -0.254
    1UNL    H29   75   0.698   0.256  -0.201
    1UNL    H30   76   0.854   0.075  -0.151
    1UNL    H31   77   0.843   0.188  -0.010
    1UNL    H32   78   0.766   0.012   0.128
    1UNL    H33   79   0.767  -0.160  -0.132
    1UNL    H34   80   0.735  -0.222   0.031
    1UNL    H35   81   0.968  -0.111   0.095
    1UNL    H36   82   0.974  -0.264  -0.015
    1UNL    H37   83   0.988  -0.093  -0.087
    1UNL    H38   84   0.540  -0.094   0.087
    1UNL    H39   85   0.591   0.142   0.173
    1UNL    H40   86   0.620   0.315   0.031
    1UNL    H41   87   0.495   0.301  -0.071
    1UNL    H42   88  -0.244   0.258   0.032
    1UNL    H43   89  -0.189   0.120  -0.077
    1UNL    H44   90  -0.440   0.114   0.072
    1UNL    H45   91  -0.338  -0.073  -0.059
    1UNL    H46   92  -0.654  -0.064  -0.397
    1UNL    H47   93  -0.486  -0.125  -0.443
    1UNL    H48   94  -0.613  -0.234  -0.420
   0.00000   0.00000   0.00000   0.00000   0.00000   0.00000   0.00000   0.00000   0.00000
Generated with MDTraj, t= 23.0
 94
    1UNL     C1    1  -0.378   0.396  -0.173
    1UNL     C2    2  -0.511   0.321  -0.159
    1UNL     C3    3  -0.530   0.204  -0.093
    1UNL     C4    4  -0.668   0.139  -0.077
    1UNL     N1    5  -0.674   0.021   0.015
    1UNL     C5    6  -0.801  -0.018   0.079
    1UNL     C6    7  -0.556  -0.072   0.018
    1UNL     C7    8  -0.487  -0.107   0.153
    1UNL     C8    9  -0.348  -0.148   0.141
    1UNL     C9   10  -0.235  -0.071   0.124
    1UNL     N2   11  -0.128  -0.161   0.131
    1UNL    C10   12  -0.170  -0.290   0.145
    1UNL    C11   13  -0.101  -0.412   0.153
    1UNL    C12   14  -0.177  -0.525   0.156
    1UNL    C13   15  -0.317  -0.522   0.160
    1UNL    C14   16  -0.385  -0.404   0.164
    1UNL    C15   17  -0.307  -0.285   0.152
    1UNL    C16   18  -0.216   0.079   0.120
    1UNL    C17   19  -0.068   0.106   0.150
    1UNL    C18   20  -0.036   0.150   0.279
    1UNL    C19   21   0.093   0.164   0.319
    1UNL    C20   22   0.200   0.133   0.238
    1UNL     N3   23   0.339   0.149   0.244
    1UNL    C21   24   0.394   0.116   0.120
    1UNL    C22   25   0.294   0.081   0.034
    1UNL    C23   26   0.175   0.084   0.111
    1UNL    C24   27   0.041   0.079   0.067
    1UNL    C25   28   0.305   0.063  -0.109
    1UNL    C26   29   0.399  -0.056  -0.139
    1UNL     N4   30   0.547  -0.025  -0.116
    1UNL    C27   31   0.594   0.084  -0.204
    1UNL    C28   32   0.667   0.188  -0.121
    1UNL    C29   33   0.795   0.106  -0.063
    1UNL    C30   34   0.747  -0.012   0.022
    1UNL    C31   35   0.804  -0.147  -0.029
    1UNL    C32   36   0.946  -0.167   0.014
    1UNL    C33   37   0.591  -0.015   0.027
    1UNL    C34   38   0.541   0.115   0.084
    1UNL    C35   39   0.581   0.231  -0.006
    1UNL    C36   40  -0.270   0.163  -0.000
    1UNL    C37   41  -0.419   0.121  -0.027
    1UNL    C38   42  -0.448  -0.020  -0.080
    1UNL    C39   43  -0.484  -0.028  -0.228
    1UNL     O1   44  -0.459   0.059  -0.307
    1UNL     O2   45  -0.552  -0.142  -0.263
    1UNL    C40   46  -0.598  -0.122  -0.389
    1UNL     H1   47  -0.294   0.332  -0.199
    1UNL     H2   48  -0.341   0.428  -0.073
    1UNL     H3   49  -0.375   0.488  -0.239
    1UNL     H4   50  -0.597   0.374  -0.198
    1UNL     H5   51  -0.696   0.110  -0.177
    1UNL     H6   52  -0.745   0.217  -0.044
    1UNL     H7   53  -0.798  -0.022   0.189
    1UNL     H8   54  -0.887   0.046   0.054
    1UNL     H9   55  -0.826  -0.109   0.027
    1UNL    H10   56  -0.608  -0.164  -0.024
    1UNL    H11   57  -0.501  -0.022   0.232
    1UNL    H12   58  -0.544  -0.191   0.196
    1UNL    H13   59  -0.032  -0.120   0.131
    1UNL    H14   60   0.005  -0.408   0.176
    1UNL    H15   61  -0.119  -0.617   0.142
    1UNL    H16   62  -0.377  -0.614   0.159
    1UNL    H17   63  -0.487  -0.399   0.187
    1UNL    H18   64  -0.284   0.115   0.206
    1UNL    H19   65  -0.117   0.192   0.335
    1UNL    H20   66   0.122   0.215   0.417
    1UNL    H21   67   0.389   0.192   0.323
    1UNL    H22   68   0.038   0.074  -0.034
    1UNL    H23   69   0.342   0.152  -0.171
    1UNL    H24   70   0.209   0.046  -0.152
    1UNL    H25   71   0.367  -0.148  -0.090
    1UNL    H26   72   0.390  -0.080  -0.241
    1UNL    H27   73   0.655   0.038  -0.286
    1UNL    H28   74   0.506   0.119  -0.260
    1UNL    H29   75   0.709   0.267  -0.179
    1UNL    H30   76   0.858   0.076  -0.140
    1UNL    H31   77   0.852   0.182  -0.005
    1UNL    H32   78   0.778   0.000   0.132
    1UNL    H33   79   0.782  -0.151  -0.137
    1UNL    H34   80   0.744  -0.220   0.020
    1UNL    H35   81   0.956  -0.178   0.130
    1UNL    H36   82   1.007  -0.255  -0.030
    1UNL    H37   83   1.009  -0.083  -0.001
    1UNL    H38   84   0.565  -0.102   0.091
    1UNL    H39   85   0.603   0.120   0.177
    1UNL    H40   86   0.637   0.302   0.046
    1UNL    H41   87   0.491   0.291  -0.039
    1UNL    H42   88  -0.266   0.271   0.026
    1UNL    H43   89  -0.200   0.144  -0.089
    1UNL    H44   90  -0.447   0.122   0.072
    1UNL    H45   91  -0.361  -0.074  -0.083
    1UNL    H46   92  -0.695  -0.081  -0.379
    1UNL    H47   93  -0.525  -0.067  -0.453
    1UNL    H48   94  -0.601  -0.217  -0.449
   0.00000   0.00000   0.00000   0.00000   0.00000   0.00000   0.00000   0.00000   0.00000
Generated with MDTraj, t= 24.0
 94
    1UNL     C1    1  -0.383   0.410  -0.171
    1UNL     C2    2  -0.504   0.342  -0.115
    1UNL     C3    3  -0.522   0.215  -0.074
    1UNL     C4    4  -0.658   0.161  -0.041
    1UNL     N1    5  -0.664   0.026   0.032
    1UNL     C5    6  -0.796  -0.018   0.098
    1UNL     C6    7  -0.565  -0.077   0.007
    1UNL     C7    8  -0.499  -0.121   0.138
    1UNL     C8    9  -0.348  -0.155   0.139
    1UNL     C9   10  -0.237  -0.072   0.127
    1UNL     N2   11  -0.127  -0.155   0.142
    1UNL    C10   12  -0.158  -0.293   0.145
    1UNL    C11   13  -0.086  -0.411   0.168
    1UNL    C12   14  -0.156  -0.530   0.177
    1UNL    C13   15  -0.297  -0.531   0.188
    1UNL    C14   16  -0.370  -0.409   0.175
    1UNL    C15   17  -0.299  -0.292   0.152
    1UNL    C16   18  -0.216   0.079   0.111
    1UNL    C17   19  -0.074   0.122   0.140
    1UNL    C18   20  -0.037   0.155   0.267
    1UNL    C19   21   0.090   0.168   0.305
    1UNL    C20   22   0.188   0.152   0.203
    1UNL     N3   23   0.327   0.149   0.223
    1UNL    C21   24   0.378   0.106   0.101
    1UNL    C22   25   0.277   0.073   0.013
    1UNL    C23   26   0.155   0.100   0.072
    1UNL    C24   27   0.017   0.098   0.038
    1UNL    C25   28   0.307   0.031  -0.130
    1UNL    C26   29   0.414  -0.064  -0.165
    1UNL     N4   30   0.559  -0.024  -0.129
    1UNL    C27   31   0.621   0.096  -0.191
    1UNL    C28   32   0.681   0.191  -0.082
    1UNL    C29   33   0.805   0.107  -0.012
    1UNL    C30   34   0.747  -0.022   0.046
    1UNL    C31   35   0.812  -0.150  -0.016
    1UNL    C32   36   0.960  -0.165   0.002
    1UNL    C33   37   0.589  -0.026   0.025
    1UNL    C34   38   0.527   0.103   0.090
    1UNL    C35   39   0.573   0.233   0.016
    1UNL    C36   40  -0.272   0.136  -0.026
    1UNL    C37   41  -0.422   0.111  -0.033
    1UNL    C38   42  -0.454  -0.024  -0.091
    1UNL    C39   43  -0.505  -0.022  -0.237
    1UNL     O1   44  -0.473   0.065  -0.313
    1UNL     O2   45  -0.578  -0.130  -0.275
    1UNL    C40   46  -0.591  -0.125  -0.414
    1UNL     H1   47  -0.321   0.356  -0.240
    1UNL     H2   48  -0.303   0.425  -0.093
    1UNL     H3   49  -0.408   0.513  -0.213
    1UNL     H4   50  -0.594   0.403  -0.110
    1UNL     H5   51  -0.714   0.153  -0.136
    1UNL     H6   52  -0.712   0.241   0.018
    1UNL     H7   53  -0.801   0.039   0.193
    1UNL     H8   54  -0.888   0.002   0.051
    1UNL     H9   55  -0.800  -0.128   0.116
    1UNL    H10   56  -0.627  -0.165  -0.028
    1UNL    H11   57  -0.515  -0.039   0.218
    1UNL    H12   58  -0.552  -0.209   0.179
    1UNL    H13   59  -0.032  -0.123   0.153
    1UNL    H14   60   0.020  -0.403   0.178
    1UNL    H15   61  -0.111  -0.623   0.191
    1UNL    H16   62  -0.339  -0.626   0.212
    1UNL    H17   63  -0.479  -0.402   0.199
    1UNL    H18   64  -0.281   0.123   0.193
    1UNL    H19   65  -0.118   0.162   0.339
    1UNL    H20   66   0.123   0.198   0.397
    1UNL    H21   67   0.375   0.195   0.302
    1UNL    H22   68  -0.013   0.074  -0.070
    1UNL    H23   69   0.330   0.131  -0.187
    1UNL    H24   70   0.220  -0.005  -0.180
    1UNL    H25   71   0.388  -0.164  -0.123
    1UNL    H26   72   0.409  -0.087  -0.265
    1UNL    H27   73   0.690   0.052  -0.266
    1UNL    H28   74   0.544   0.149  -0.251
    1UNL    H29   75   0.727   0.274  -0.130
    1UNL    H30   76   0.881   0.097  -0.079
    1UNL    H31   77   0.845   0.163   0.077
    1UNL    H32   78   0.758  -0.016   0.160
    1UNL    H33   79   0.800  -0.146  -0.125
    1UNL    H34   80   0.762  -0.238   0.023
    1UNL    H35   81   0.989  -0.177   0.114
    1UNL    H36   82   1.007  -0.251  -0.063
    1UNL    H37   83   1.004  -0.075  -0.028
    1UNL    H38   84   0.537  -0.116   0.062
    1UNL    H39   85   0.561   0.106   0.196
    1UNL    H40   86   0.605   0.312   0.076
    1UNL    H41   87   0.487   0.276  -0.042
    1UNL    H42   88  -0.234   0.240  -0.040
    1UNL    H43   89  -0.220   0.077  -0.111
    1UNL    H44   90  -0.451   0.102   0.068
    1UNL    H45   91  -0.369  -0.088  -0.090
    1UNL    H46   92  -0.592  -0.025  -0.446
    1UNL    H47   93  -0.511  -0.188  -0.457
    1UNL    H48   94  -0.682  -0.176  -0.454
   0.00000   0.00000   0.00000   0.00000   0.00000   0.00000   0.00000   0.00000   0.00000
Generated with MDTraj, t= 25.0
 94
    1UNL     C1    1  -0.392   0.394  -0.177
    1UNL     C2    2  -0.520   0.338  -0.130
    1UNL     C3    3  -0.537   0.221  -0.065
    1UNL     C4    4  -0.675   0.170  -0.020
    1UNL     N1    5  -0.676   0.033   0.050
    1UNL     C5    6  -0.810  -0.025   0.097
    1UNL     C6    7  -0.572  -0.076   0.008
    1UNL     C7    8  -0.498  -0.123   0.134
    1UNL     C8    9  -0.346  -0.166   0.121
    1UNL     C9   10  -0.231  -0.086   0.101
    1UNL     N2   11  -0.123  -0.168   0.099
    1UNL    C10   12  -0.161  -0.295   0.133
    1UNL    C11   13  -0.088  -0.404   0.182
    1UNL    C12   14  -0.150  -0.522   0.218
    1UNL    C13   15  -0.290  -0.541   0.209
    1UNL    C14   16  -0.365  -0.430   0.178
    1UNL    C15   17  -0.301  -0.304   0.144
    1UNL    C16   18  -0.209   0.067   0.097
    1UNL    C17   19  -0.073   0.113   0.118
    1UNL    C18   20  -0.046   0.168   0.246
    1UNL    C19   21   0.079   0.178   0.295
    1UNL    C20   22   0.189   0.144   0.211
    1UNL     N3   23   0.326   0.150   0.227
    1UNL    C21   24   0.390   0.104   0.111
    1UNL    C22   25   0.295   0.081   0.014
    1UNL    C23   26   0.165   0.100   0.078
    1UNL    C24   27   0.032   0.078   0.032
    1UNL    C25   28   0.317   0.059  -0.128
    1UNL    C26   29   0.412  -0.056  -0.156
    1UNL     N4   30   0.554  -0.014  -0.112
    1UNL    C27   31   0.618   0.097  -0.186
    1UNL    C28   32   0.696   0.191  -0.087
    1UNL    C29   33   0.808   0.102  -0.017
    1UNL    C30   34   0.747  -0.026   0.042
    1UNL    C31   35   0.807  -0.154  -0.024
    1UNL    C32   36   0.956  -0.187   0.006
    1UNL    C33   37   0.592  -0.016   0.031
    1UNL    C34   38   0.545   0.112   0.098
    1UNL    C35   39   0.600   0.240   0.027
    1UNL    C36   40  -0.279   0.135  -0.033
    1UNL    C37   41  -0.430   0.115  -0.029
    1UNL    C38   42  -0.460  -0.019  -0.091
    1UNL    C39   43  -0.503  -0.017  -0.238
    1UNL     O1   44  -0.451   0.060  -0.313
    1UNL     O2   45  -0.592  -0.112  -0.271
    1UNL    C40   46  -0.614  -0.103  -0.406
    1UNL     H1   47  -0.313   0.322  -0.179
    1UNL     H2   48  -0.351   0.466  -0.098
    1UNL     H3   49  -0.412   0.450  -0.275
    1UNL     H4   50  -0.607   0.399  -0.145
    1UNL     H5   51  -0.741   0.167  -0.112
    1UNL     H6   52  -0.724   0.246   0.045
    1UNL     H7   53  -0.885   0.053   0.118
    1UNL     H8   54  -0.857  -0.094   0.035
    1UNL     H9   55  -0.790  -0.084   0.194
    1UNL    H10   56  -0.634  -0.156  -0.038
    1UNL    H11   57  -0.500  -0.040   0.211
    1UNL    H12   58  -0.550  -0.208   0.180
    1UNL    H13   59  -0.029  -0.143   0.088
    1UNL    H14   60   0.022  -0.399   0.165
    1UNL    H15   61  -0.072  -0.601   0.250
    1UNL    H16   62  -0.341  -0.631   0.246
    1UNL    H17   63  -0.468  -0.444   0.171
    1UNL    H18   64  -0.266   0.104   0.187
    1UNL    H19   65  -0.126   0.209   0.307
    1UNL    H20   66   0.096   0.223   0.396
    1UNL    H21   67   0.369   0.171   0.317
    1UNL    H22   68   0.001   0.033  -0.060
    1UNL    H23   69   0.364   0.158  -0.172
    1UNL    H24   70   0.226   0.051  -0.182
    1UNL    H25   71   0.388  -0.147  -0.097
    1UNL    H26   72   0.406  -0.091  -0.253
    1UNL    H27   73   0.690   0.062  -0.261
    1UNL    H28   74   0.530   0.131  -0.244
    1UNL    H29   75   0.732   0.280  -0.134
    1UNL    H30   76   0.881   0.072  -0.086
    1UNL    H31   77   0.851   0.163   0.065
    1UNL    H32   78   0.783  -0.028   0.149
    1UNL    H33   79   0.804  -0.150  -0.133
    1UNL    H34   80   0.755  -0.243   0.003
    1UNL    H35   81   0.976  -0.171   0.114
    1UNL    H36   82   0.995  -0.291  -0.026
    1UNL    H37   83   1.015  -0.108  -0.046
    1UNL    H38   84   0.539  -0.106   0.066
    1UNL    H39   85   0.595   0.107   0.198
    1UNL    H40   86   0.644   0.307   0.095
    1UNL    H41   87   0.515   0.297  -0.018
    1UNL    H42   88  -0.249   0.244  -0.023
    1UNL    H43   89  -0.226   0.101  -0.129
    1UNL    H44   90  -0.448   0.107   0.078
    1UNL    H45   91  -0.368  -0.078  -0.089
    1UNL    H46   92  -0.634  -0.004  -0.432
    1UNL    H47   93  -0.522  -0.138  -0.457
    1UNL    H48   94  -0.693  -0.176  -0.440
   0.00000   0.00000   0.00000   0.00000   0.00000   0.00000   0.00000   0.00000   0.00000
Generated with MDTraj, t= 26.0
 94
    1UNL     C1    1  -0.420   0.369  -0.217
    1UNL     C2    2  -0.540   0.311  -0.164
    1UNL     C3    3  -0.545   0.207  -0.077
    1UNL     C4    4  -0.681   0.139  -0.049
    1UNL     N1    5  -0.666   0.021   0.038
    1UNL     C5    6  -0.793  -0.043   0.073
    1UNL     C6    7  -0.550  -0.082   0.009
    1UNL     C7    8  -0.482  -0.108   0.145
    1UNL     C8    9  -0.338  -0.161   0.136
    1UNL     C9   10  -0.219  -0.093   0.100
    1UNL     N2   11  -0.118  -0.184   0.091
    1UNL    C10   12  -0.157  -0.307   0.137
    1UNL    C11   13  -0.084  -0.428   0.155
    1UNL    C12   14  -0.158  -0.533   0.203
    1UNL    C13   15  -0.299  -0.520   0.214
    1UNL    C14   16  -0.367  -0.403   0.196
    1UNL    C15   17  -0.292  -0.293   0.162
    1UNL    C16   18  -0.207   0.062   0.108
    1UNL    C17   19  -0.067   0.106   0.138
    1UNL    C18   20  -0.028   0.140   0.272
    1UNL    C19   21   0.101   0.163   0.313
    1UNL    C20   22   0.204   0.146   0.216
    1UNL     N3   23   0.334   0.172   0.229
    1UNL    C21   24   0.392   0.127   0.109
    1UNL    C22   25   0.294   0.090   0.020
    1UNL    C23   26   0.168   0.103   0.087
    1UNL    C24   27   0.036   0.083   0.050
    1UNL    C25   28   0.315   0.062  -0.123
    1UNL    C26   29   0.414  -0.052  -0.151
    1UNL     N4   30   0.551  -0.010  -0.114
    1UNL    C27   31   0.618   0.103  -0.187
    1UNL    C28   32   0.702   0.188  -0.096
    1UNL    C29   33   0.806   0.100  -0.019
    1UNL    C30   34   0.739  -0.028   0.040
    1UNL    C31   35   0.793  -0.162  -0.019
    1UNL    C32   36   0.936  -0.195   0.018
    1UNL    C33   37   0.581  -0.016   0.029
    1UNL    C34   38   0.542   0.120   0.097
    1UNL    C35   39   0.611   0.241   0.015
    1UNL    C36   40  -0.266   0.144  -0.017
    1UNL    C37   41  -0.422   0.121  -0.018
    1UNL    C38   42  -0.448  -0.013  -0.095
    1UNL    C39   43  -0.498  -0.002  -0.237
    1UNL     O1   44  -0.448   0.069  -0.322
    1UNL     O2   45  -0.618  -0.077  -0.261
    1UNL    C40   46  -0.663  -0.066  -0.391
    1UNL     H1   47  -0.378   0.307  -0.298
    1UNL     H2   48  -0.340   0.355  -0.139
    1UNL     H3   49  -0.440   0.478  -0.238
    1UNL     H4   50  -0.632   0.354  -0.203
    1UNL     H5   51  -0.733   0.107  -0.148
    1UNL     H6   52  -0.748   0.212  -0.005
    1UNL     H7   53  -0.856   0.020   0.136
    1UNL     H8   54  -0.849  -0.061  -0.014
    1UNL     H9   55  -0.774  -0.143   0.125
    1UNL    H10   56  -0.597  -0.169  -0.038
    1UNL    H11   57  -0.488  -0.020   0.211
    1UNL    H12   58  -0.546  -0.184   0.193
    1UNL    H13   59  -0.024  -0.159   0.072
    1UNL    H14   60   0.007  -0.439   0.105
    1UNL    H15   61  -0.110  -0.622   0.213
    1UNL    H16   62  -0.348  -0.609   0.249
    1UNL    H17   63  -0.477  -0.397   0.200
    1UNL    H18   64  -0.274   0.091   0.192
    1UNL    H19   65  -0.109   0.154   0.341
    1UNL    H20   66   0.127   0.196   0.413
    1UNL    H21   67   0.377   0.205   0.316
    1UNL    H22   68   0.012   0.036  -0.040
    1UNL    H23   69   0.344   0.155  -0.184
    1UNL    H24   70   0.218   0.032  -0.159
    1UNL    H25   71   0.384  -0.149  -0.105
    1UNL    H26   72   0.422  -0.069  -0.253
    1UNL    H27   73   0.681   0.051  -0.259
    1UNL    H28   74   0.537   0.158  -0.236
    1UNL    H29   75   0.747   0.272  -0.144
    1UNL    H30   76   0.881   0.072  -0.095
    1UNL    H31   77   0.847   0.154   0.066
    1UNL    H32   78   0.763  -0.024   0.150
    1UNL    H33   79   0.775  -0.167  -0.126
    1UNL    H34   80   0.722  -0.236   0.012
    1UNL    H35   81   0.957  -0.204   0.124
    1UNL    H36   82   0.986  -0.283  -0.025
    1UNL    H37   83   1.010  -0.106  -0.010
    1UNL    H38   84   0.512  -0.087   0.079
    1UNL    H39   85   0.587   0.121   0.199
    1UNL    H40   86   0.674   0.309   0.069
    1UNL    H41   87   0.528   0.301  -0.024
    1UNL    H42   88  -0.230   0.252  -0.002
    1UNL    H43   89  -0.220   0.111  -0.115
    1UNL    H44   90  -0.447   0.120   0.091
    1UNL    H45   91  -0.354  -0.074  -0.109
    1UNL    H46   92  -0.729   0.014  -0.400
    1UNL    H47   93  -0.574  -0.047  -0.453
    1UNL    H48   94  -0.705  -0.168  -0.418
   0.00000   0.00000   0.00000   0.00000   0.00000   0.00000   0.00000   0.00000   0.00000
Generated with MDTraj, t= 27.0
 94
    1UNL     C1    1  -0.388   0.327  -0.238
    1UNL     C2    2  -0.502   0.295  -0.158
    1UNL     C3    3  -0.514   0.200  -0.067
    1UNL     C4    4  -0.649   0.156  -0.009
    1UNL     N1    5  -0.661   0.005  -0.000
    1UNL     C5    6  -0.793  -0.052   0.046
    1UNL     C6    7  -0.552  -0.095   0.012
    1UNL     C7    8  -0.492  -0.118   0.154
    1UNL     C8    9  -0.341  -0.154   0.159
    1UNL     C9   10  -0.230  -0.074   0.134
    1UNL     N2   11  -0.122  -0.152   0.113
    1UNL    C10   12  -0.166  -0.285   0.129
    1UNL    C11   13  -0.101  -0.407   0.122
    1UNL    C12   14  -0.162  -0.525   0.164
    1UNL    C13   15  -0.298  -0.525   0.198
    1UNL    C14   16  -0.371  -0.410   0.177
    1UNL    C15   17  -0.304  -0.287   0.162
    1UNL    C16   18  -0.216   0.073   0.119
    1UNL    C17   19  -0.071   0.114   0.144
    1UNL    C18   20  -0.039   0.132   0.280
    1UNL    C19   21   0.086   0.154   0.317
    1UNL    C20   22   0.194   0.146   0.218
    1UNL     N3   23   0.333   0.154   0.233
    1UNL    C21   24   0.392   0.132   0.111
    1UNL    C22   25   0.290   0.114   0.018
    1UNL    C23   26   0.164   0.124   0.083
    1UNL    C24   27   0.027   0.121   0.042
    1UNL    C25   28   0.314   0.090  -0.128
    1UNL    C26   29   0.406  -0.038  -0.151
    1UNL     N4   30   0.550  -0.021  -0.119
    1UNL    C27   31   0.627   0.084  -0.202
    1UNL    C28   32   0.696   0.184  -0.107
    1UNL    C29   33   0.807   0.094  -0.034
    1UNL    C30   34   0.740  -0.023   0.045
    1UNL    C31   35   0.776  -0.163   0.005
    1UNL    C32   36   0.925  -0.201   0.025
    1UNL    C33   37   0.582  -0.007   0.032
    1UNL    C34   38   0.543   0.129   0.088
    1UNL    C35   39   0.590   0.243  -0.002
    1UNL    C36   40  -0.262   0.130  -0.013
    1UNL    C37   41  -0.413   0.098  -0.026
    1UNL    C38   42  -0.440  -0.042  -0.089
    1UNL    C39   43  -0.493  -0.032  -0.236
    1UNL     O1   44  -0.417   0.022  -0.317
    1UNL     O2   45  -0.621  -0.074  -0.242
    1UNL    C40   46  -0.676  -0.019  -0.359
    1UNL     H1   47  -0.327   0.238  -0.269
    1UNL     H2   48  -0.313   0.383  -0.181
    1UNL     H3   49  -0.416   0.394  -0.323
    1UNL     H4   50  -0.591   0.351  -0.172
    1UNL     H5   51  -0.737   0.196  -0.075
    1UNL     H6   52  -0.666   0.200   0.089
    1UNL     H7   53  -0.828   0.002   0.132
    1UNL     H8   54  -0.864  -0.024  -0.035
    1UNL     H9   55  -0.794  -0.161   0.064
    1UNL    H10   56  -0.577  -0.192  -0.027
    1UNL    H11   57  -0.496  -0.025   0.205
    1UNL    H12   58  -0.547  -0.193   0.216
    1UNL    H13   59  -0.029  -0.125   0.079
    1UNL    H14   60   0.006  -0.397   0.096
    1UNL    H15   61  -0.109  -0.624   0.169
    1UNL    H16   62  -0.342  -0.620   0.231
    1UNL    H17   63  -0.475  -0.405   0.202
    1UNL    H18   64  -0.286   0.114   0.192
    1UNL    H19   65  -0.118   0.123   0.354
    1UNL    H20   66   0.116   0.185   0.413
    1UNL    H21   67   0.376   0.180   0.321
    1UNL    H22   68   0.005   0.104  -0.070
    1UNL    H23   69   0.350   0.189  -0.166
    1UNL    H24   70   0.219   0.063  -0.173
    1UNL    H25   71   0.372  -0.118  -0.082
    1UNL    H26   72   0.388  -0.073  -0.248
    1UNL    H27   73   0.689   0.025  -0.269
    1UNL    H28   74   0.557   0.147  -0.256
    1UNL    H29   75   0.747   0.261  -0.161
    1UNL    H30   76   0.876   0.047  -0.112
    1UNL    H31   77   0.861   0.150   0.037
    1UNL    H32   78   0.781  -0.018   0.150
    1UNL    H33   79   0.750  -0.175  -0.099
    1UNL    H34   80   0.713  -0.238   0.052
    1UNL    H35   81   0.951  -0.193   0.132
    1UNL    H36   82   0.955  -0.300  -0.013
    1UNL    H37   83   0.987  -0.119  -0.031
    1UNL    H38   84   0.530  -0.085   0.090
    1UNL    H39   85   0.594   0.138   0.186
    1UNL    H40   86   0.632   0.322   0.059
    1UNL    H41   87   0.510   0.281  -0.061
    1UNL    H42   88  -0.231   0.241  -0.022
    1UNL    H43   89  -0.205   0.069  -0.090
    1UNL    H44   90  -0.454   0.096   0.085
    1UNL    H45   91  -0.346  -0.110  -0.083
    1UNL    H46   92  -0.648   0.081  -0.364
    1UNL    H47   93  -0.614  -0.062  -0.440
    1UNL    H48   94  -0.786  -0.048  -0.376
   0.00000   0.00000   0.00000   0.00000   0.00000   0.00000   0.00000   0.00000   0.00000
Generated with MDTraj, t= 28.0
 94
    1UNL     C1    1  -0.397   0.288  -0.267
    1UNL     C2    2  -0.505   0.276  -0.165
    1UNL     C3    3  -0.512   0.188  -0.063
    1UNL     C4    4  -0.636   0.166   0.015
    1UNL     N1    5  -0.660   0.023   0.030
    1UNL     C5    6  -0.804  -0.024   0.020
    1UNL     C6    7  -0.552  -0.094   0.028
    1UNL     C7    8  -0.488  -0.115   0.168
    1UNL     C8    9  -0.341  -0.147   0.163
    1UNL     C9   10  -0.226  -0.071   0.153
    1UNL     N2   11  -0.116  -0.159   0.147
    1UNL    C10   12  -0.160  -0.290   0.141
    1UNL    C11   13  -0.088  -0.410   0.125
    1UNL    C12   14  -0.164  -0.523   0.126
    1UNL    C13   15  -0.307  -0.513   0.137
    1UNL    C14   16  -0.373  -0.396   0.145
    1UNL    C15   17  -0.297  -0.281   0.159
    1UNL    C16   18  -0.205   0.070   0.125
    1UNL    C17   19  -0.060   0.107   0.154
    1UNL    C18   20  -0.021   0.132   0.289
    1UNL    C19   21   0.104   0.162   0.330
    1UNL    C20   22   0.205   0.159   0.236
    1UNL     N3   23   0.344   0.172   0.244
    1UNL    C21   24   0.391   0.157   0.113
    1UNL    C22   25   0.288   0.131   0.023
    1UNL    C23   26   0.171   0.129   0.099
    1UNL    C24   27   0.041   0.110   0.057
    1UNL    C25   28   0.299   0.103  -0.121
    1UNL    C26   29   0.378  -0.028  -0.142
    1UNL     N4   30   0.522  -0.018  -0.118
    1UNL    C27   31   0.605   0.076  -0.202
    1UNL    C28   32   0.694   0.170  -0.117
    1UNL    C29   33   0.800   0.080  -0.041
    1UNL    C30   34   0.725  -0.032   0.037
    1UNL    C31   35   0.773  -0.168  -0.006
    1UNL    C32   36   0.919  -0.181   0.032
    1UNL    C33   37   0.570  -0.008   0.029
    1UNL    C34   38   0.541   0.135   0.085
    1UNL    C35   39   0.597   0.239  -0.016
    1UNL    C36   40  -0.256   0.121  -0.011
    1UNL    C37   41  -0.413   0.089  -0.017
    1UNL    C38   42  -0.457  -0.043  -0.080
    1UNL    C39   43  -0.501  -0.045  -0.224
    1UNL     O1   44  -0.412  -0.044  -0.308
    1UNL     O2   45  -0.632  -0.039  -0.264
    1UNL    C40   46  -0.637  -0.028  -0.399
    1UNL     H1   47  -0.369   0.183  -0.311
    1UNL     H2   48  -0.301   0.316  -0.224
    1UNL     H3   49  -0.422   0.364  -0.343
    1UNL     H4   50  -0.590   0.345  -0.180
    1UNL     H5   51  -0.719   0.224  -0.040
    1UNL     H6   52  -0.635   0.210   0.115
    1UNL     H7   53  -0.840  -0.047   0.118
    1UNL     H8   54  -0.868   0.059  -0.028
    1UNL     H9   55  -0.807  -0.114  -0.038
    1UNL    H10   56  -0.602  -0.184  -0.001
    1UNL    H11   57  -0.504  -0.028   0.224
    1UNL    H12   58  -0.547  -0.190   0.223
    1UNL    H13   59  -0.015  -0.128   0.140
    1UNL    H14   60   0.018  -0.416   0.140
    1UNL    H15   61  -0.110  -0.617   0.110
    1UNL    H16   62  -0.367  -0.603   0.136
    1UNL    H17   63  -0.480  -0.399   0.156
    1UNL    H18   64  -0.263   0.127   0.193
    1UNL    H19   65  -0.099   0.131   0.364
    1UNL    H20   66   0.140   0.184   0.435
    1UNL    H21   67   0.402   0.186   0.326
    1UNL    H22   68   0.022   0.095  -0.043
    1UNL    H23   69   0.368   0.177  -0.158
    1UNL    H24   70   0.198   0.108  -0.163
    1UNL    H25   71   0.337  -0.106  -0.078
    1UNL    H26   72   0.369  -0.058  -0.242
    1UNL    H27   73   0.672   0.027  -0.270
    1UNL    H28   74   0.533   0.131  -0.260
    1UNL    H29   75   0.757   0.227  -0.184
    1UNL    H30   76   0.866   0.028  -0.121
    1UNL    H31   77   0.858   0.145   0.015
    1UNL    H32   78   0.760  -0.029   0.144
    1UNL    H33   79   0.766  -0.182  -0.112
    1UNL    H34   80   0.711  -0.246   0.038
    1UNL    H35   81   0.917  -0.169   0.146
    1UNL    H36   82   0.964  -0.279   0.000
    1UNL    H37   83   0.969  -0.097  -0.005
    1UNL    H38   84   0.514  -0.082   0.088
    1UNL    H39   85   0.595   0.147   0.180
    1UNL    H40   86   0.652   0.316   0.041
    1UNL    H41   87   0.516   0.277  -0.067
    1UNL    H42   88  -0.238   0.234  -0.018
    1UNL    H43   89  -0.210   0.068  -0.098
    1UNL    H44   90  -0.435   0.094   0.101
    1UNL    H45   91  -0.357  -0.107  -0.086
    1UNL    H46   92  -0.566   0.044  -0.429
    1UNL    H47   93  -0.602  -0.125  -0.441
    1UNL    H48   94  -0.748  -0.016  -0.426
   0.00000   0.00000   0.00000   0.00000   0.00000   0.00000   0.00000   0.00000   0.00000
Generated with MDTraj, t= 29.0
 94
    1UNL     C1    1  -0.395   0.273  -0.283
    1UNL     C2    2  -0.514   0.269  -0.192
    1UNL     C3    3  -0.511   0.209  -0.070
    1UNL     C4    4  -0.639   0.173  -0.005
    1UNL     N1    5  -0.661   0.028   0.027
    1UNL     C5    6  -0.796  -0.023  -0.002
    1UNL     C6    7  -0.546  -0.081   0.035
    1UNL     C7    8  -0.483  -0.112   0.173
    1UNL     C8    9  -0.342  -0.157   0.162
    1UNL     C9   10  -0.227  -0.079   0.157
    1UNL     N2   11  -0.121  -0.168   0.145
    1UNL    C10   12  -0.168  -0.301   0.139
    1UNL    C11   13  -0.105  -0.423   0.132
    1UNL    C12   14  -0.176  -0.536   0.107
    1UNL    C13   15  -0.314  -0.528   0.091
    1UNL    C14   16  -0.384  -0.410   0.119
    1UNL    C15   17  -0.307  -0.294   0.148
    1UNL    C16   18  -0.204   0.072   0.144
    1UNL    C17   19  -0.064   0.109   0.168
    1UNL    C18   20  -0.026   0.147   0.294
    1UNL    C19   21   0.106   0.182   0.327
    1UNL    C20   22   0.205   0.171   0.228
    1UNL     N3   23   0.343   0.170   0.240
    1UNL    C21   24   0.392   0.150   0.113
    1UNL    C22   25   0.288   0.130   0.025
    1UNL    C23   26   0.165   0.140   0.101
    1UNL    C24   27   0.032   0.110   0.074
    1UNL    C25   28   0.287   0.084  -0.115
    1UNL    C26   29   0.378  -0.039  -0.128
    1UNL     N4   30   0.525  -0.006  -0.109
    1UNL    C27   31   0.596   0.086  -0.208
    1UNL    C28   32   0.692   0.181  -0.130
    1UNL    C29   33   0.793   0.089  -0.051
    1UNL    C30   34   0.726  -0.019   0.036
    1UNL    C31   35   0.758  -0.166  -0.010
    1UNL    C32   36   0.897  -0.213   0.021
    1UNL    C33   37   0.576   0.002   0.033
    1UNL    C34   38   0.539   0.144   0.080
    1UNL    C35   39   0.602   0.250  -0.026
    1UNL    C36   40  -0.253   0.150   0.011
    1UNL    C37   41  -0.403   0.113  -0.015
    1UNL    C38   42  -0.435  -0.024  -0.057
    1UNL    C39   43  -0.463  -0.039  -0.200
    1UNL     O1   44  -0.389  -0.095  -0.280
    1UNL     O2   45  -0.596  -0.015  -0.234
    1UNL    C40   46  -0.627  -0.053  -0.368
    1UNL     H1   47  -0.391   0.179  -0.353
    1UNL     H2   48  -0.305   0.255  -0.225
    1UNL     H3   49  -0.387   0.369  -0.336
    1UNL     H4   50  -0.604   0.304  -0.234
    1UNL     H5   51  -0.731   0.215  -0.056
    1UNL     H6   52  -0.634   0.239   0.086
    1UNL     H7   53  -0.796  -0.130  -0.009
    1UNL     H8   54  -0.857   0.019   0.087
    1UNL     H9   55  -0.838   0.016  -0.092
    1UNL    H10   56  -0.591  -0.171  -0.001
    1UNL    H11   57  -0.504  -0.033   0.238
    1UNL    H12   58  -0.544  -0.193   0.212
    1UNL    H13   59  -0.019  -0.143   0.129
    1UNL    H14   60   0.002  -0.425   0.145
    1UNL    H15   61  -0.129  -0.627   0.096
    1UNL    H16   62  -0.365  -0.617   0.058
    1UNL    H17   63  -0.494  -0.405   0.106
    1UNL    H18   64  -0.255   0.119   0.219
    1UNL    H19   65  -0.102   0.153   0.371
    1UNL    H20   66   0.125   0.194   0.426
    1UNL    H21   67   0.400   0.184   0.324
    1UNL    H22   68   0.003   0.080  -0.024
    1UNL    H23   69   0.316   0.165  -0.175
    1UNL    H24   70   0.186   0.048  -0.139
    1UNL    H25   71   0.357  -0.119  -0.061
    1UNL    H26   72   0.362  -0.081  -0.226
    1UNL    H27   73   0.642   0.014  -0.273
    1UNL    H28   74   0.534   0.151  -0.265
    1UNL    H29   75   0.733   0.255  -0.198
    1UNL    H30   76   0.840   0.042  -0.146
    1UNL    H31   77   0.864   0.147  -0.002
    1UNL    H32   78   0.760  -0.002   0.140
    1UNL    H33   79   0.730  -0.165  -0.112
    1UNL    H34   80   0.678  -0.228   0.031
    1UNL    H35   81   0.924  -0.177   0.126
    1UNL    H36   82   0.906  -0.326   0.024
    1UNL    H37   83   0.972  -0.175  -0.036
    1UNL    H38   84   0.521  -0.066   0.100
    1UNL    H39   85   0.597   0.159   0.172
    1UNL    H40   86   0.659   0.330   0.025
    1UNL    H41   87   0.514   0.283  -0.067
    1UNL    H42   88  -0.254   0.261   0.037
    1UNL    H43   89  -0.189   0.137  -0.080
    1UNL    H44   90  -0.441   0.117   0.100
    1UNL    H45   91  -0.337  -0.089  -0.044
    1UNL    H46   92  -0.569   0.012  -0.424
    1UNL    H47   93  -0.580  -0.152  -0.389
    1UNL    H48   94  -0.739  -0.057  -0.393
   0.00000   0.00000   0.00000   0.00000   0.00000   0.00000   0.00000   0.00000   0.00000
Generated with MDTraj, t= 30.0
 94
    1UNL     C1    1  -0.348   0.273  -0.235
    1UNL     C2    2  -0.478   0.273  -0.168
    1UNL     C3    3  -0.508   0.187  -0.070
    1UNL     C4    4  -0.643   0.161  -0.013
    1UNL     N1    5  -0.663   0.021   0.039
    1UNL     C5    6  -0.787  -0.048  -0.012
    1UNL     C6    7  -0.547  -0.080   0.042
    1UNL     C7    8  -0.492  -0.096   0.190
    1UNL     C8    9  -0.348  -0.143   0.186
    1UNL     C9   10  -0.233  -0.072   0.170
    1UNL     N2   11  -0.130  -0.152   0.125
    1UNL    C10   12  -0.174  -0.281   0.115
    1UNL    C11   13  -0.116  -0.405   0.086
    1UNL    C12   14  -0.192  -0.519   0.078
    1UNL    C13   15  -0.325  -0.517   0.116
    1UNL    C14   16  -0.385  -0.398   0.151
    1UNL    C15   17  -0.311  -0.277   0.151
    1UNL    C16   18  -0.204   0.076   0.153
    1UNL    C17   19  -0.058   0.103   0.186
    1UNL    C18   20  -0.024   0.155   0.314
    1UNL    C19   21   0.105   0.198   0.336
    1UNL    C20   22   0.198   0.187   0.230
    1UNL     N3   23   0.336   0.205   0.232
    1UNL    C21   24   0.388   0.152   0.116
    1UNL    C22   25   0.285   0.109   0.030
    1UNL    C23   26   0.162   0.126   0.106
    1UNL    C24   27   0.028   0.082   0.085
    1UNL    C25   28   0.278   0.074  -0.115
    1UNL    C26   29   0.371  -0.042  -0.150
    1UNL     N4   30   0.521  -0.010  -0.114
    1UNL    C27   31   0.595   0.075  -0.210
    1UNL    C28   32   0.684   0.171  -0.132
    1UNL    C29   33   0.794   0.091  -0.045
    1UNL    C30   34   0.719  -0.025   0.036
    1UNL    C31   35   0.756  -0.166  -0.012
    1UNL    C32   36   0.910  -0.201  -0.002
    1UNL    C33   37   0.567  -0.003   0.033
    1UNL    C34   38   0.534   0.144   0.079
    1UNL    C35   39   0.587   0.246  -0.030
    1UNL    C36   40  -0.247   0.128   0.009
    1UNL    C37   41  -0.404   0.100  -0.014
    1UNL    C38   42  -0.430  -0.035  -0.061
    1UNL    C39   43  -0.470  -0.046  -0.212
    1UNL     O1   44  -0.377  -0.075  -0.283
    1UNL     O2   45  -0.590  -0.032  -0.259
    1UNL    C40   46  -0.606  -0.066  -0.394
    1UNL     H1   47  -0.292   0.174  -0.229
    1UNL     H2   48  -0.272   0.341  -0.191
    1UNL     H3   49  -0.356   0.303  -0.342
    1UNL     H4   50  -0.558   0.337  -0.208
    1UNL     H5   51  -0.711   0.186  -0.097
    1UNL     H6   52  -0.676   0.231   0.071
    1UNL     H7   53  -0.808  -0.134   0.054
    1UNL     H8   54  -0.869   0.028  -0.016
    1UNL     H9   55  -0.779  -0.096  -0.108
    1UNL    H10   56  -0.577  -0.176   0.011
    1UNL    H11   57  -0.496  -0.000   0.235
    1UNL    H12   58  -0.555  -0.155   0.253
    1UNL    H13   59  -0.028  -0.131   0.113
    1UNL    H14   60  -0.014  -0.403   0.047
    1UNL    H15   61  -0.139  -0.619   0.057
    1UNL    H16   62  -0.375  -0.613   0.129
    1UNL    H17   63  -0.486  -0.392   0.175
    1UNL    H18   64  -0.260   0.126   0.221
    1UNL    H19   65  -0.100   0.144   0.389
    1UNL    H20   66   0.130   0.220   0.445
    1UNL    H21   67   0.389   0.236   0.313
    1UNL    H22   68  -0.009   0.036  -0.012
    1UNL    H23   69   0.304   0.160  -0.165
    1UNL    H24   70   0.170   0.058  -0.134
    1UNL    H25   71   0.345  -0.128  -0.099
    1UNL    H26   72   0.377  -0.072  -0.254
    1UNL    H27   73   0.659   0.024  -0.276
    1UNL    H28   74   0.528   0.129  -0.273
    1UNL    H29   75   0.722   0.251  -0.196
    1UNL    H30   76   0.874   0.054  -0.115
    1UNL    H31   77   0.837   0.167   0.016
    1UNL    H32   78   0.749  -0.024   0.143
    1UNL    H33   79   0.731  -0.165  -0.114
    1UNL    H34   80   0.690  -0.244   0.033
    1UNL    H35   81   0.927  -0.239   0.098
    1UNL    H36   82   0.937  -0.281  -0.074
    1UNL    H37   83   0.974  -0.114  -0.011
    1UNL    H38   84   0.511  -0.074   0.095
    1UNL    H39   85   0.592   0.163   0.170
    1UNL    H40   86   0.635   0.327   0.026
    1UNL    H41   87   0.504   0.286  -0.080
    1UNL    H42   88  -0.224   0.239  -0.001
    1UNL    H43   89  -0.183   0.082  -0.072
    1UNL    H44   90  -0.434   0.109   0.102
    1UNL    H45   91  -0.341  -0.104  -0.047
    1UNL    H46   92  -0.517  -0.041  -0.441
    1UNL    H47   93  -0.614  -0.175  -0.405
    1UNL    H48   94  -0.694  -0.012  -0.439
   0.00000   0.00000   0.00000   0.00000   0.00000   0.00000   0.00000   0.00000   0.00000
Generated with MDTraj, t= 31.0
 94
    1UNL     C1    1  -0.347   0.323  -0.211
    1UNL     C2    2  -0.480   0.287  -0.173
    1UNL     C3    3  -0.505   0.192  -0.084
    1UNL     C4    4  -0.645   0.144  -0.047
    1UNL     N1    5  -0.661   0.006   0.016
    1UNL     C5    6  -0.796  -0.046  -0.022
    1UNL     C6    7  -0.546  -0.089   0.033
    1UNL     C7    8  -0.492  -0.103   0.180
    1UNL     C8    9  -0.350  -0.148   0.185
    1UNL     C9   10  -0.228  -0.076   0.167
    1UNL     N2   11  -0.131  -0.166   0.128
    1UNL    C10   12  -0.184  -0.293   0.123
    1UNL    C11   13  -0.137  -0.416   0.067
    1UNL    C12   14  -0.215  -0.528   0.075
    1UNL    C13   15  -0.347  -0.518   0.128
    1UNL    C14   16  -0.393  -0.403   0.184
    1UNL    C15   17  -0.315  -0.285   0.175
    1UNL    C16   18  -0.218   0.077   0.150
    1UNL    C17   19  -0.068   0.125   0.172
    1UNL    C18   20  -0.023   0.174   0.296
    1UNL    C19   21   0.103   0.210   0.326
    1UNL    C20   22   0.201   0.182   0.231
    1UNL     N3   23   0.340   0.172   0.238
    1UNL    C21   24   0.389   0.142   0.111
    1UNL    C22   25   0.282   0.112   0.026
    1UNL    C23   26   0.164   0.139   0.100
    1UNL    C24   27   0.026   0.109   0.075
    1UNL    C25   28   0.291   0.077  -0.112
    1UNL    C26   29   0.370  -0.047  -0.131
    1UNL     N4   30   0.520  -0.026  -0.108
    1UNL    C27   31   0.583   0.069  -0.205
    1UNL    C28   32   0.668   0.177  -0.132
    1UNL    C29   33   0.786   0.100  -0.064
    1UNL    C30   34   0.734  -0.017   0.023
    1UNL    C31   35   0.771  -0.159  -0.027
    1UNL    C32   36   0.920  -0.191  -0.006
    1UNL    C33   37   0.581  -0.008   0.030
    1UNL    C34   38   0.537   0.134   0.084
    1UNL    C35   39   0.583   0.240  -0.017
    1UNL    C36   40  -0.259   0.135   0.016
    1UNL    C37   41  -0.407   0.106  -0.011
    1UNL    C38   42  -0.421  -0.046  -0.053
    1UNL    C39   43  -0.441  -0.062  -0.199
    1UNL     O1   44  -0.348  -0.036  -0.275
    1UNL     O2   45  -0.576  -0.081  -0.238
    1UNL    C40   46  -0.596  -0.048  -0.367
    1UNL     H1   47  -0.287   0.238  -0.238
    1UNL     H2   48  -0.287   0.366  -0.124
    1UNL     H3   49  -0.352   0.403  -0.290
    1UNL     H4   50  -0.562   0.335  -0.221
    1UNL     H5   51  -0.708   0.136  -0.135
    1UNL     H6   52  -0.691   0.233   0.013
    1UNL     H7   53  -0.825  -0.151   0.010
    1UNL     H8   54  -0.866   0.030   0.000
    1UNL     H9   55  -0.800  -0.059  -0.131
    1UNL    H10   56  -0.573  -0.187   0.002
    1UNL    H11   57  -0.499  -0.010   0.230
    1UNL    H12   58  -0.554  -0.165   0.235
    1UNL    H13   59  -0.039  -0.135   0.101
    1UNL    H14   60  -0.046  -0.425   0.013
    1UNL    H15   61  -0.179  -0.617   0.043
    1UNL    H16   62  -0.411  -0.602   0.140
    1UNL    H17   63  -0.495  -0.403   0.227
    1UNL    H18   64  -0.274   0.121   0.227
    1UNL    H19   65  -0.092   0.165   0.379
    1UNL    H20   66   0.129   0.235   0.426
    1UNL    H21   67   0.386   0.188   0.327
    1UNL    H22   68   0.015   0.066  -0.016
    1UNL    H23   69   0.329   0.160  -0.160
    1UNL    H24   70   0.187   0.065  -0.148
    1UNL    H25   71   0.346  -0.123  -0.066
    1UNL    H26   72   0.357  -0.080  -0.235
    1UNL    H27   73   0.650   0.031  -0.276
    1UNL    H28   74   0.509   0.111  -0.268
    1UNL    H29   75   0.714   0.247  -0.206
    1UNL    H30   76   0.850   0.062  -0.143
    1UNL    H31   77   0.845   0.171  -0.004
    1UNL    H32   78   0.771  -0.013   0.127
    1UNL    H33   79   0.750  -0.171  -0.130
    1UNL    H34   80   0.720  -0.244   0.024
    1UNL    H35   81   0.944  -0.163   0.092
    1UNL    H36   82   0.930  -0.297  -0.015
    1UNL    H37   83   0.992  -0.137  -0.077
    1UNL    H38   84   0.548  -0.093   0.093
    1UNL    H39   85   0.583   0.162   0.179
    1UNL    H40   86   0.628   0.326   0.030
    1UNL    H41   87   0.491   0.278  -0.061
    1UNL    H42   88  -0.220   0.242   0.013
    1UNL    H43   89  -0.201   0.095  -0.073
    1UNL    H44   90  -0.460   0.115   0.095
    1UNL    H45   91  -0.331  -0.100  -0.026
    1UNL    H46   92  -0.564   0.051  -0.371
    1UNL    H47   93  -0.527  -0.111  -0.423
    1UNL    H48   94  -0.706  -0.059  -0.389
   0.00000   0.00000   0.00000   0.00000   0.00000   0.00000   0.00000   0.00000   0.00000
Generated with MDTraj, t= 32.0
 94
    1UNL     C1    1  -0.365   0.355  -0.207
    1UNL     C2    2  -0.497   0.305  -0.170
    1UNL     C3    3  -0.521   0.199  -0.090
    1UNL     C4    4  -0.654   0.135  -0.061
    1UNL     N1    5  -0.658   0.005   0.016
    1UNL     C5    6  -0.777  -0.079   0.006
    1UNL     C6    7  -0.537  -0.081   0.028
    1UNL     C7    8  -0.487  -0.090   0.177
    1UNL     C8    9  -0.348  -0.141   0.177
    1UNL     C9   10  -0.232  -0.073   0.156
    1UNL     N2   11  -0.131  -0.167   0.128
    1UNL    C10   12  -0.192  -0.291   0.136
    1UNL    C11   13  -0.132  -0.418   0.118
    1UNL    C12   14  -0.217  -0.527   0.122
    1UNL    C13   15  -0.354  -0.513   0.137
    1UNL    C14   16  -0.413  -0.391   0.149
    1UNL    C15   17  -0.329  -0.279   0.160
    1UNL    C16   18  -0.212   0.084   0.147
    1UNL    C17   19  -0.064   0.105   0.184
    1UNL    C18   20  -0.022   0.146   0.311
    1UNL    C19   21   0.113   0.174   0.341
    1UNL    C20   22   0.207   0.149   0.243
    1UNL     N3   23   0.340   0.184   0.231
    1UNL    C21   24   0.390   0.142   0.102
    1UNL    C22   25   0.282   0.091   0.031
    1UNL    C23   26   0.166   0.115   0.114
    1UNL    C24   27   0.028   0.088   0.088
    1UNL    C25   28   0.283   0.045  -0.108
    1UNL    C26   29   0.387  -0.068  -0.135
    1UNL     N4   30   0.528  -0.025  -0.115
    1UNL    C27   31   0.589   0.076  -0.210
    1UNL    C28   32   0.674   0.178  -0.132
    1UNL    C29   33   0.790   0.093  -0.066
    1UNL    C30   34   0.728  -0.016   0.024
    1UNL    C31   35   0.780  -0.154  -0.026
    1UNL    C32   36   0.930  -0.160  -0.013
    1UNL    C33   37   0.574  -0.006   0.023
    1UNL    C34   38   0.540   0.141   0.072
    1UNL    C35   39   0.592   0.246  -0.025
    1UNL    C36   40  -0.265   0.150   0.013
    1UNL    C37   41  -0.415   0.118  -0.006
    1UNL    C38   42  -0.424  -0.030  -0.060
    1UNL    C39   43  -0.451  -0.034  -0.210
    1UNL     O1   44  -0.373   0.028  -0.284
    1UNL     O2   45  -0.570  -0.093  -0.254
    1UNL    C40   46  -0.572  -0.093  -0.395
    1UNL     H1   47  -0.296   0.274  -0.210
    1UNL     H2   48  -0.325   0.421  -0.122
    1UNL     H3   49  -0.372   0.417  -0.303
    1UNL     H4   50  -0.581   0.366  -0.205
    1UNL     H5   51  -0.707   0.135  -0.156
    1UNL     H6   52  -0.713   0.202   0.016
    1UNL     H7   53  -0.772  -0.165   0.080
    1UNL     H8   54  -0.866  -0.028   0.008
    1UNL     H9   55  -0.773  -0.135  -0.090
    1UNL    H10   56  -0.567  -0.174  -0.017
    1UNL    H11   57  -0.487   0.003   0.228
    1UNL    H12   58  -0.549  -0.155   0.225
    1UNL    H13   59  -0.039  -0.155   0.095
    1UNL    H14   60  -0.023  -0.431   0.115
    1UNL    H15   61  -0.189  -0.633   0.107
    1UNL    H16   62  -0.417  -0.602   0.134
    1UNL    H17   63  -0.515  -0.379   0.172
    1UNL    H18   64  -0.270   0.124   0.229
    1UNL    H19   65  -0.101   0.164   0.379
    1UNL    H20   66   0.148   0.225   0.428
    1UNL    H21   67   0.390   0.232   0.306
    1UNL    H22   68   0.005   0.054  -0.015
    1UNL    H23   69   0.304   0.132  -0.168
    1UNL    H24   70   0.187   0.007  -0.144
    1UNL    H25   71   0.367  -0.137  -0.060
    1UNL    H26   72   0.380  -0.107  -0.238
    1UNL    H27   73   0.630   0.013  -0.282
    1UNL    H28   74   0.527   0.143  -0.268
    1UNL    H29   75   0.717   0.250  -0.206
    1UNL    H30   76   0.846   0.046  -0.139
    1UNL    H31   77   0.860   0.162  -0.013
    1UNL    H32   78   0.758  -0.003   0.129
    1UNL    H33   79   0.751  -0.179  -0.124
    1UNL    H34   80   0.735  -0.236   0.035
    1UNL    H35   81   0.962  -0.152   0.086
    1UNL    H36   82   0.968  -0.253  -0.037
    1UNL    H37   83   1.003  -0.086  -0.066
    1UNL    H38   84   0.526  -0.071   0.098
    1UNL    H39   85   0.595   0.165   0.163
    1UNL    H40   86   0.653   0.323   0.015
    1UNL    H41   87   0.504   0.299  -0.067
    1UNL    H42   88  -0.257   0.263   0.003
    1UNL    H43   89  -0.198   0.125  -0.077
    1UNL    H44   90  -0.460   0.134   0.100
    1UNL    H45   91  -0.330  -0.066  -0.044
    1UNL    H46   92  -0.661  -0.041  -0.420
    1UNL    H47   93  -0.484  -0.036  -0.420
    1UNL    H48   94  -0.575  -0.195  -0.445
   0.00000   0.00000   0.00000   0.00000   0.00000   0.00000   0.00000   0.00000   0.00000
Generated with MDTraj, t= 33.0
 94
    1UNL     C1    1  -0.365   0.371  -0.190
    1UNL     C2    2  -0.496   0.332  -0.144
    1UNL     C3    3  -0.520   0.219  -0.076
    1UNL     C4    4  -0.659   0.171  -0.052
    1UNL     N1    5  -0.670   0.025  -0.001
    1UNL     C5    6  -0.808  -0.034   0.002
    1UNL     C6    7  -0.560  -0.080   0.005
    1UNL     C7    8  -0.514  -0.112   0.152
    1UNL     C8    9  -0.371  -0.153   0.162
    1UNL     C9   10  -0.249  -0.080   0.147
    1UNL     N2   11  -0.135  -0.165   0.166
    1UNL    C10   12  -0.179  -0.296   0.170
    1UNL    C11   13  -0.108  -0.417   0.157
    1UNL    C12   14  -0.186  -0.529   0.151
    1UNL    C13   15  -0.329  -0.531   0.153
    1UNL    C14   16  -0.395  -0.412   0.153
    1UNL    C15   17  -0.325  -0.290   0.169
    1UNL    C16   18  -0.219   0.075   0.145
    1UNL    C17   19  -0.069   0.113   0.168
    1UNL    C18   20  -0.030   0.151   0.303
    1UNL    C19   21   0.105   0.174   0.332
    1UNL    C20   22   0.203   0.137   0.236
    1UNL     N3   23   0.345   0.155   0.241
    1UNL    C21   24   0.390   0.120   0.114
    1UNL    C22   25   0.287   0.077   0.028
    1UNL    C23   26   0.166   0.091   0.104
    1UNL    C24   27   0.030   0.087   0.070
    1UNL    C25   28   0.308   0.049  -0.121
    1UNL    C26   29   0.405  -0.074  -0.136
    1UNL     N4   30   0.542  -0.033  -0.120
    1UNL    C27   31   0.594   0.071  -0.215
    1UNL    C28   32   0.667   0.181  -0.142
    1UNL    C29   33   0.789   0.117  -0.076
    1UNL    C30   34   0.741  -0.002   0.016
    1UNL    C31   35   0.797  -0.141  -0.027
    1UNL    C32   36   0.947  -0.164  -0.005
    1UNL    C33   37   0.587  -0.009   0.019
    1UNL    C34   38   0.534   0.129   0.077
    1UNL    C35   39   0.563   0.237  -0.029
    1UNL    C36   40  -0.272   0.151   0.021
    1UNL    C37   41  -0.426   0.123  -0.010
    1UNL    C38   42  -0.439  -0.020  -0.075
    1UNL    C39   43  -0.467  -0.020  -0.223
    1UNL     O1   44  -0.411   0.067  -0.288
    1UNL     O2   45  -0.549  -0.119  -0.265
    1UNL    C40   46  -0.539  -0.122  -0.402
    1UNL     H1   47  -0.314   0.291  -0.241
    1UNL     H2   48  -0.296   0.394  -0.104
    1UNL     H3   49  -0.370   0.466  -0.254
    1UNL     H4   50  -0.584   0.385  -0.171
    1UNL     H5   51  -0.713   0.167  -0.147
    1UNL     H6   52  -0.709   0.249   0.019
    1UNL     H7   53  -0.815  -0.103   0.089
    1UNL     H8   54  -0.886   0.038   0.002
    1UNL     H9   55  -0.827  -0.104  -0.081
    1UNL    H10   56  -0.596  -0.171  -0.040
    1UNL    H11   57  -0.537  -0.034   0.217
    1UNL    H12   58  -0.570  -0.190   0.192
    1UNL    H13   59  -0.042  -0.134   0.161
    1UNL    H14   60  -0.001  -0.424   0.161
    1UNL    H15   61  -0.138  -0.628   0.128
    1UNL    H16   62  -0.383  -0.623   0.144
    1UNL    H17   63  -0.504  -0.415   0.142
    1UNL    H18   64  -0.266   0.118   0.241
    1UNL    H19   65  -0.111   0.145   0.379
    1UNL    H20   66   0.118   0.199   0.441
    1UNL    H21   67   0.397   0.197   0.319
    1UNL    H22   68   0.002   0.051  -0.032
    1UNL    H23   69   0.339   0.142  -0.182
    1UNL    H24   70   0.212   0.021  -0.161
    1UNL    H25   71   0.389  -0.140  -0.058
    1UNL    H26   72   0.395  -0.116  -0.238
    1UNL    H27   73   0.657   0.034  -0.288
    1UNL    H28   74   0.514   0.111  -0.274
    1UNL    H29   75   0.701   0.261  -0.215
    1UNL    H30   76   0.860   0.089  -0.144
    1UNL    H31   77   0.835   0.202  -0.017
    1UNL    H32   78   0.775   0.022   0.118
    1UNL    H33   79   0.782  -0.156  -0.130
    1UNL    H34   80   0.746  -0.228   0.022
    1UNL    H35   81   0.979  -0.165   0.096
    1UNL    H36   82   0.979  -0.258  -0.040
    1UNL    H37   83   1.016  -0.091  -0.052
    1UNL    H38   84   0.560  -0.094   0.083
    1UNL    H39   85   0.598   0.144   0.163
    1UNL    H40   86   0.594   0.329   0.012
    1UNL    H41   87   0.466   0.272  -0.076
    1UNL    H42   88  -0.246   0.261   0.025
    1UNL    H43   89  -0.213   0.119  -0.073
    1UNL    H44   90  -0.469   0.091   0.088
    1UNL    H45   91  -0.361  -0.081  -0.051
    1UNL    H46   92  -0.606  -0.202  -0.431
    1UNL    H47   93  -0.562  -0.021  -0.436
    1UNL    H48   94  -0.435  -0.151  -0.441
   0.00000   0.00000   0.00000   0.00000   0.00000   0.00000   0.00000   0.00000   0.00000
Generated with MDTraj, t= 34.0
 94
    1UNL     C1    1  -0.355   0.381  -0.163
    1UNL     C2    2  -0.487   0.333  -0.123
    1UNL     C3    3  -0.516   0.216  -0.067
    1UNL     C4    4  -0.657   0.186  -0.029
    1UNL     N1    5  -0.671   0.044   0.024
    1UNL     C5    6  -0.810  -0.003   0.005
    1UNL     C6    7  -0.561  -0.063  -0.003
    1UNL     C7    8  -0.507  -0.120   0.130
    1UNL     C8    9  -0.360  -0.151   0.137
    1UNL     C9   10  -0.242  -0.078   0.140
    1UNL     N2   11  -0.131  -0.161   0.162
    1UNL    C10   12  -0.173  -0.292   0.167
    1UNL    C11   13  -0.101  -0.415   0.192
    1UNL    C12   14  -0.179  -0.526   0.204
    1UNL    C13   15  -0.317  -0.535   0.181
    1UNL    C14   16  -0.386  -0.418   0.154
    1UNL    C15   17  -0.315  -0.291   0.152
    1UNL    C16   18  -0.224   0.074   0.140
    1UNL    C17   19  -0.073   0.095   0.169
    1UNL    C18   20  -0.034   0.138   0.289
    1UNL    C19   21   0.100   0.157   0.320
    1UNL    C20   22   0.191   0.137   0.219
    1UNL     N3   23   0.325   0.157   0.219
    1UNL    C21   24   0.378   0.105   0.104
    1UNL    C22   25   0.274   0.069   0.022
    1UNL    C23   26   0.153   0.095   0.093
    1UNL    C24   27   0.014   0.074   0.068
    1UNL    C25   28   0.285   0.024  -0.119
    1UNL    C26   29   0.396  -0.083  -0.139
    1UNL     N4   30   0.537  -0.038  -0.130
    1UNL    C27   31   0.577   0.076  -0.211
    1UNL    C28   32   0.652   0.186  -0.128
    1UNL    C29   33   0.775   0.121  -0.057
    1UNL    C30   34   0.738  -0.013   0.021
    1UNL    C31   35   0.814  -0.133  -0.029
    1UNL    C32   36   0.970  -0.126  -0.008
    1UNL    C33   37   0.586  -0.022   0.015
    1UNL    C34   38   0.526   0.109   0.073
    1UNL    C35   39   0.557   0.234  -0.014
    1UNL    C36   40  -0.259   0.141   0.008
    1UNL    C37   41  -0.413   0.117  -0.017
    1UNL    C38   42  -0.440  -0.016  -0.083
    1UNL    C39   43  -0.460  -0.012  -0.235
    1UNL     O1   44  -0.431   0.091  -0.295
    1UNL     O2   45  -0.499  -0.139  -0.282
    1UNL    C40   46  -0.543  -0.129  -0.419
    1UNL     H1   47  -0.281   0.299  -0.179
    1UNL     H2   48  -0.312   0.448  -0.088
    1UNL     H3   49  -0.362   0.446  -0.255
    1UNL     H4   50  -0.574   0.397  -0.140
    1UNL     H5   51  -0.710   0.198  -0.124
    1UNL     H6   52  -0.696   0.256   0.055
    1UNL     H7   53  -0.821  -0.110   0.008
    1UNL     H8   54  -0.869   0.045   0.087
    1UNL     H9   55  -0.861   0.035  -0.084
    1UNL    H10   56  -0.615  -0.136  -0.062
    1UNL    H11   57  -0.514  -0.046   0.202
    1UNL    H12   58  -0.571  -0.196   0.169
    1UNL    H13   59  -0.032  -0.136   0.165
    1UNL    H14   60   0.007  -0.422   0.195
    1UNL    H15   61  -0.125  -0.608   0.226
    1UNL    H16   62  -0.367  -0.633   0.179
    1UNL    H17   63  -0.488  -0.418   0.119
    1UNL    H18   64  -0.287   0.119   0.229
    1UNL    H19   65  -0.105   0.153   0.366
    1UNL    H20   66   0.131   0.183   0.413
    1UNL    H21   67   0.384   0.189   0.297
    1UNL    H22   68  -0.024   0.039  -0.018
    1UNL    H23   69   0.301   0.128  -0.170
    1UNL    H24   70   0.189  -0.007  -0.156
    1UNL    H25   71   0.386  -0.158  -0.066
    1UNL    H26   72   0.393  -0.122  -0.243
    1UNL    H27   73   0.649   0.047  -0.281
    1UNL    H28   74   0.497   0.104  -0.279
    1UNL    H29   75   0.679   0.277  -0.188
    1UNL    H30   76   0.842   0.102  -0.136
    1UNL    H31   77   0.827   0.195   0.007
    1UNL    H32   78   0.763   0.008   0.125
    1UNL    H33   79   0.803  -0.152  -0.133
    1UNL    H34   80   0.788  -0.226   0.025
    1UNL    H35   81   1.002  -0.120   0.096
    1UNL    H36   82   1.007  -0.218  -0.047
    1UNL    H37   83   1.009  -0.050  -0.060
    1UNL    H38   84   0.542  -0.106   0.070
    1UNL    H39   85   0.572   0.115   0.171
    1UNL    H40   86   0.587   0.320   0.039
    1UNL    H41   87   0.463   0.278  -0.064
    1UNL    H42   88  -0.243   0.252   0.007
    1UNL    H43   89  -0.194   0.093  -0.074
    1UNL    H44   90  -0.456   0.101   0.088
    1UNL    H45   91  -0.354  -0.071  -0.063
    1UNL    H46   92  -0.503  -0.215  -0.474
    1UNL    H47   93  -0.650  -0.114  -0.419
    1UNL    H48   94  -0.504  -0.034  -0.468
   0.00000   0.00000   0.00000   0.00000   0.00000   0.00000   0.00000   0.00000   0.00000
Generated with MDTraj, t= 35.0
 94
    1UNL     C1    1  -0.357   0.387  -0.173
    1UNL     C2    2  -0.492   0.344  -0.130
    1UNL     C3    3  -0.514   0.228  -0.066
    1UNL     C4    4  -0.649   0.172  -0.045
    1UNL     N1    5  -0.662   0.031   0.005
    1UNL     C5    6  -0.789  -0.042   0.021
    1UNL     C6    7  -0.546  -0.068  -0.014
    1UNL     C7    8  -0.494  -0.105   0.130
    1UNL     C8    9  -0.357  -0.161   0.142
    1UNL     C9   10  -0.237  -0.093   0.131
    1UNL     N2   11  -0.133  -0.184   0.140
    1UNL    C10   12  -0.182  -0.307   0.170
    1UNL    C11   13  -0.116  -0.424   0.207
    1UNL    C12   14  -0.185  -0.539   0.218
    1UNL    C13   15  -0.323  -0.532   0.210
    1UNL    C14   16  -0.396  -0.416   0.187
    1UNL    C15   17  -0.325  -0.301   0.157
    1UNL    C16   18  -0.215   0.068   0.132
    1UNL    C17   19  -0.072   0.094   0.161
    1UNL    C18   20  -0.035   0.161   0.283
    1UNL    C19   21   0.092   0.173   0.332
    1UNL    C20   22   0.193   0.125   0.240
    1UNL     N3   23   0.334   0.135   0.240
    1UNL    C21   24   0.384   0.105   0.117
    1UNL    C22   25   0.281   0.057   0.036
    1UNL    C23   26   0.159   0.071   0.110
    1UNL    C24   27   0.025   0.048   0.082
    1UNL    C25   28   0.285   0.014  -0.107
    1UNL    C26   29   0.389  -0.086  -0.132
    1UNL     N4   30   0.527  -0.022  -0.122
    1UNL    C27   31   0.572   0.085  -0.217
    1UNL    C28   32   0.651   0.190  -0.138
    1UNL    C29   33   0.784   0.126  -0.076
    1UNL    C30   34   0.749  -0.002   0.011
    1UNL    C31   35   0.813  -0.133  -0.033
    1UNL    C32   36   0.965  -0.128  -0.022
    1UNL    C33   37   0.589  -0.005   0.018
    1UNL    C34   38   0.528   0.117   0.076
    1UNL    C35   39   0.561   0.238  -0.023
    1UNL    C36   40  -0.254   0.155   0.007
    1UNL    C37   41  -0.407   0.127  -0.027
    1UNL    C38   42  -0.439  -0.008  -0.099
    1UNL    C39   43  -0.480   0.009  -0.243
    1UNL     O1   44  -0.490   0.117  -0.297
    1UNL     O2   45  -0.505  -0.115  -0.298
    1UNL    C40   46  -0.515  -0.112  -0.434
    1UNL     H1   47  -0.319   0.322  -0.260
    1UNL     H2   48  -0.287   0.383  -0.092
    1UNL     H3   49  -0.359   0.496  -0.197
    1UNL     H4   50  -0.575   0.407  -0.157
    1UNL     H5   51  -0.711   0.172  -0.137
    1UNL     H6   52  -0.685   0.239   0.041
    1UNL     H7   53  -0.789  -0.084   0.117
    1UNL     H8   54  -0.882   0.021  -0.002
    1UNL     H9   55  -0.796  -0.121  -0.052
    1UNL    H10   56  -0.583  -0.161  -0.062
    1UNL    H11   57  -0.511  -0.030   0.200
    1UNL    H12   58  -0.549  -0.189   0.172
    1UNL    H13   59  -0.031  -0.160   0.151
    1UNL    H14   60  -0.008  -0.418   0.205
    1UNL    H15   61  -0.141  -0.640   0.257
    1UNL    H16   62  -0.377  -0.620   0.235
    1UNL    H17   63  -0.501  -0.414   0.178
    1UNL    H18   64  -0.276   0.117   0.223
    1UNL    H19   65  -0.113   0.206   0.346
    1UNL    H20   66   0.109   0.208   0.438
    1UNL    H21   67   0.391   0.176   0.314
    1UNL    H22   68  -0.001   0.010  -0.023
    1UNL    H23   69   0.297   0.109  -0.172
    1UNL    H24   70   0.182  -0.016  -0.128
    1UNL    H25   71   0.389  -0.169  -0.065
    1UNL    H26   72   0.377  -0.116  -0.239
    1UNL    H27   73   0.607   0.026  -0.297
    1UNL    H28   74   0.492   0.139  -0.265
    1UNL    H29   75   0.675   0.279  -0.204
    1UNL    H30   76   0.850   0.102  -0.165
    1UNL    H31   77   0.837   0.203  -0.020
    1UNL    H32   78   0.787   0.014   0.112
    1UNL    H33   79   0.777  -0.164  -0.130
    1UNL    H34   80   0.778  -0.213   0.037
    1UNL    H35   81   1.011  -0.105   0.073
    1UNL    H36   82   1.005  -0.223  -0.047
    1UNL    H37   83   1.007  -0.062  -0.089
    1UNL    H38   84   0.563  -0.093   0.078
    1UNL    H39   85   0.578   0.131   0.171
    1UNL    H40   86   0.608   0.322   0.021
    1UNL    H41   87   0.470   0.289  -0.070
    1UNL    H42   88  -0.239   0.263   0.034
    1UNL    H43   89  -0.196   0.129  -0.088
    1UNL    H44   90  -0.446   0.100   0.078
    1UNL    H45   91  -0.344  -0.060  -0.099
    1UNL    H46   92  -0.513  -0.221  -0.457
    1UNL    H47   93  -0.606  -0.063  -0.465
    1UNL    H48   94  -0.427  -0.068  -0.486
   0.00000   0.00000   0.00000   0.00000   0.00000   0.00000   0.00000   0.00000   0.00000
Generated with MDTraj, t= 36.0
 94
    1UNL     C1    1  -0.371   0.392  -0.161
    1UNL     C2    2  -0.500   0.333  -0.120
    1UNL     C3    3  -0.517   0.215  -0.061
    1UNL     C4    4  -0.655   0.161  -0.048
    1UNL     N1    5  -0.674   0.023   0.002
    1UNL     C5    6  -0.817  -0.024   0.009
    1UNL     C6    7  -0.556  -0.074  -0.011
    1UNL     C7    8  -0.508  -0.117   0.134
    1UNL     C8    9  -0.364  -0.162   0.140
    1UNL     C9   10  -0.243  -0.087   0.125
    1UNL     N2   11  -0.140  -0.177   0.137
    1UNL    C10   12  -0.191  -0.304   0.154
    1UNL    C11   13  -0.130  -0.431   0.187
    1UNL    C12   14  -0.207  -0.539   0.225
    1UNL    C13   15  -0.350  -0.527   0.225
    1UNL    C14   16  -0.407  -0.408   0.202
    1UNL    C15   17  -0.330  -0.302   0.158
    1UNL    C16   18  -0.211   0.063   0.135
    1UNL    C17   19  -0.066   0.091   0.164
    1UNL    C18   20  -0.026   0.139   0.293
    1UNL    C19   21   0.102   0.167   0.328
    1UNL    C20   22   0.205   0.153   0.234
    1UNL     N3   23   0.342   0.161   0.241
    1UNL    C21   24   0.400   0.110   0.122
    1UNL    C22   25   0.297   0.070   0.039
    1UNL    C23   26   0.173   0.095   0.112
    1UNL    C24   27   0.035   0.076   0.075
    1UNL    C25   28   0.293   0.005  -0.097
    1UNL    C26   29   0.404  -0.096  -0.121
    1UNL     N4   30   0.540  -0.034  -0.116
    1UNL    C27   31   0.579   0.079  -0.210
    1UNL    C28   32   0.649   0.190  -0.133
    1UNL    C29   33   0.786   0.133  -0.076
    1UNL    C30   34   0.754   0.008   0.009
    1UNL    C31   35   0.811  -0.122  -0.062
    1UNL    C32   36   0.961  -0.134  -0.039
    1UNL    C33   37   0.598  -0.011   0.022
    1UNL    C34   38   0.540   0.118   0.082
    1UNL    C35   39   0.556   0.238  -0.021
    1UNL    C36   40  -0.263   0.140   0.010
    1UNL    C37   41  -0.414   0.119  -0.017
    1UNL    C38   42  -0.434  -0.017  -0.087
    1UNL    C39   43  -0.460  -0.004  -0.245
    1UNL     O1   44  -0.460   0.105  -0.297
    1UNL     O2   45  -0.484  -0.121  -0.315
    1UNL    C40   46  -0.527  -0.097  -0.449
    1UNL     H1   47  -0.282   0.317  -0.165
    1UNL     H2   48  -0.347   0.482  -0.105
    1UNL     H3   49  -0.381   0.436  -0.261
    1UNL     H4   50  -0.591   0.385  -0.148
    1UNL     H5   51  -0.693   0.160  -0.154
    1UNL     H6   52  -0.720   0.220   0.020
    1UNL     H7   53  -0.829  -0.074   0.101
    1UNL     H8   54  -0.878   0.073   0.011
    1UNL     H9   55  -0.857  -0.074  -0.078
    1UNL    H10   56  -0.585  -0.165  -0.072
    1UNL    H11   57  -0.513  -0.042   0.210
    1UNL    H12   58  -0.574  -0.195   0.174
    1UNL    H13   59  -0.038  -0.152   0.157
    1UNL    H14   60  -0.025  -0.443   0.210
    1UNL    H15   61  -0.164  -0.626   0.265
    1UNL    H16   62  -0.414  -0.613   0.252
    1UNL    H17   63  -0.515  -0.392   0.222
    1UNL    H18   64  -0.284   0.104   0.221
    1UNL    H19   65  -0.106   0.136   0.364
    1UNL    H20   66   0.132   0.189   0.429
    1UNL    H21   67   0.396   0.187   0.325
    1UNL    H22   68   0.003   0.048  -0.024
    1UNL    H23   69   0.290   0.088  -0.176
    1UNL    H24   70   0.188  -0.038  -0.103
    1UNL    H25   71   0.396  -0.168  -0.040
    1UNL    H26   72   0.399  -0.142  -0.223
    1UNL    H27   73   0.631   0.045  -0.297
    1UNL    H28   74   0.487   0.101  -0.257
    1UNL    H29   75   0.684   0.263  -0.209
    1UNL    H30   76   0.856   0.111  -0.170
    1UNL    H31   77   0.834   0.212  -0.021
    1UNL    H32   78   0.792   0.009   0.110
    1UNL    H33   79   0.783  -0.116  -0.168
    1UNL    H34   80   0.752  -0.208  -0.029
    1UNL    H35   81   0.996  -0.135   0.059
    1UNL    H36   82   1.000  -0.218  -0.089
    1UNL    H37   83   1.010  -0.048  -0.088
    1UNL    H38   84   0.578  -0.096   0.087
    1UNL    H39   85   0.599   0.139   0.171
    1UNL    H40   86   0.600   0.321   0.031
    1UNL    H41   87   0.460   0.275  -0.066
    1UNL    H42   88  -0.264   0.251   0.031
    1UNL    H43   89  -0.204   0.116  -0.082
    1UNL    H44   90  -0.448   0.096   0.090
    1UNL    H45   91  -0.339  -0.078  -0.075
    1UNL    H46   92  -0.582  -0.185  -0.487
    1UNL    H47   93  -0.590  -0.010  -0.450
    1UNL    H48   94  -0.442  -0.079  -0.517
   0.00000   0.00000   0.00000   0.00000   0.00000   0.00000   0.00000   0.00000   0.00000
Generated with MDTraj, t= 37.0
 94
    1UNL     C1    1  -0.345   0.398  -0.145
    1UNL     C2    2  -0.481   0.344  -0.123
    1UNL     C3    3  -0.512   0.230  -0.064
    1UNL     C4    4  -0.652   0.172  -0.044
    1UNL     N1    5  -0.664   0.018  -0.006
    1UNL     C5    6  -0.802  -0.039  -0.022
    1UNL     C6    7  -0.549  -0.083   0.003
    1UNL     C7    8  -0.508  -0.104   0.147
    1UNL     C8    9  -0.370  -0.155   0.153
    1UNL     C9   10  -0.251  -0.085   0.147
    1UNL     N2   11  -0.145  -0.175   0.161
    1UNL    C10   12  -0.196  -0.304   0.171
    1UNL    C11   13  -0.131  -0.428   0.184
    1UNL    C12   14  -0.213  -0.538   0.197
    1UNL    C13   15  -0.353  -0.530   0.208
    1UNL    C14   16  -0.413  -0.410   0.188
    1UNL    C15   17  -0.335  -0.294   0.161
    1UNL    C16   18  -0.218   0.061   0.129
    1UNL    C17   19  -0.070   0.079   0.161
    1UNL    C18   20  -0.034   0.135   0.287
    1UNL    C19   21   0.093   0.163   0.315
    1UNL    C20   22   0.190   0.132   0.218
    1UNL     N3   23   0.324   0.158   0.225
    1UNL    C21   24   0.383   0.114   0.106
    1UNL    C22   25   0.281   0.069   0.026
    1UNL    C23   26   0.157   0.075   0.097
    1UNL    C24   27   0.026   0.050   0.061
    1UNL    C25   28   0.298   0.030  -0.113
    1UNL    C26   29   0.410  -0.076  -0.133
    1UNL     N4   30   0.548  -0.036  -0.109
    1UNL    C27   31   0.591   0.073  -0.209
    1UNL    C28   32   0.658   0.190  -0.136
    1UNL    C29   33   0.788   0.129  -0.074
    1UNL    C30   34   0.749   0.011   0.017
    1UNL    C31   35   0.809  -0.121  -0.042
    1UNL    C32   36   0.960  -0.118  -0.055
    1UNL    C33   37   0.593  -0.006   0.026
    1UNL    C34   38   0.527   0.122   0.077
    1UNL    C35   39   0.568   0.240  -0.023
    1UNL    C36   40  -0.264   0.147   0.010
    1UNL    C37   41  -0.414   0.131  -0.012
    1UNL    C38   42  -0.436  -0.015  -0.074
    1UNL    C39   43  -0.459  -0.005  -0.224
    1UNL     O1   44  -0.398   0.075  -0.291
    1UNL     O2   45  -0.533  -0.109  -0.283
    1UNL    C40   46  -0.511  -0.124  -0.419
    1UNL     H1   47  -0.289   0.341  -0.223
    1UNL     H2   48  -0.283   0.414  -0.053
    1UNL     H3   49  -0.353   0.505  -0.173
    1UNL     H4   50  -0.563   0.391  -0.176
    1UNL     H5   51  -0.709   0.178  -0.143
    1UNL     H6   52  -0.703   0.239   0.024
    1UNL     H7   53  -0.801  -0.147  -0.013
    1UNL     H8   54  -0.862   0.009   0.058
    1UNL     H9   55  -0.850   0.002  -0.110
    1UNL    H10   56  -0.584  -0.173  -0.060
    1UNL    H11   57  -0.522  -0.013   0.211
    1UNL    H12   58  -0.571  -0.182   0.189
    1UNL    H13   59  -0.044  -0.148   0.172
    1UNL    H14   60  -0.027  -0.425   0.214
    1UNL    H15   61  -0.176  -0.639   0.195
    1UNL    H16   62  -0.421  -0.611   0.207
    1UNL    H17   63  -0.516  -0.394   0.194
    1UNL    H18   64  -0.272   0.112   0.222
    1UNL    H19   65  -0.106   0.168   0.361
    1UNL    H20   66   0.120   0.206   0.410
    1UNL    H21   67   0.362   0.211   0.304
    1UNL    H22   68  -0.001   0.013  -0.030
    1UNL    H23   69   0.315   0.126  -0.168
    1UNL    H24   70   0.203  -0.019  -0.161
    1UNL    H25   71   0.385  -0.160  -0.068
    1UNL    H26   72   0.400  -0.098  -0.241
    1UNL    H27   73   0.664   0.033  -0.279
    1UNL    H28   74   0.511   0.086  -0.276
    1UNL    H29   75   0.684   0.277  -0.198
    1UNL    H30   76   0.856   0.086  -0.159
    1UNL    H31   77   0.833   0.214  -0.025
    1UNL    H32   78   0.790   0.023   0.116
    1UNL    H33   79   0.760  -0.143  -0.138
    1UNL    H34   80   0.790  -0.206   0.023
    1UNL    H35   81   0.999  -0.106   0.038
    1UNL    H36   82   0.983  -0.205  -0.105
    1UNL    H37   83   0.981  -0.029  -0.120
    1UNL    H38   84   0.559  -0.095   0.080
    1UNL    H39   85   0.573   0.134   0.175
    1UNL    H40   86   0.609   0.322   0.039
    1UNL    H41   87   0.474   0.277  -0.067
    1UNL    H42   88  -0.230   0.250   0.041
    1UNL    H43   89  -0.211   0.118  -0.082
    1UNL    H44   90  -0.457   0.113   0.092
    1UNL    H45   91  -0.336  -0.078  -0.073
    1UNL    H46   92  -0.503  -0.235  -0.436
    1UNL    H47   93  -0.596  -0.092  -0.475
    1UNL    H48   94  -0.420  -0.078  -0.455
   0.00000   0.00000   0.00000   0.00000   0.00000   0.00000   0.00000   0.00000   0.00000
Generated with MDTraj, t= 38.0
 94
    1UNL     C1    1  -0.346   0.396  -0.165
    1UNL     C2    2  -0.482   0.333  -0.139
    1UNL     C3    3  -0.506   0.218  -0.071
    1UNL     C4    4  -0.645   0.167  -0.059
    1UNL     N1    5  -0.669   0.033   0.005
    1UNL     C5    6  -0.789  -0.029  -0.053
    1UNL     C6    7  -0.557  -0.068   0.007
    1UNL     C7    8  -0.510  -0.110   0.152
    1UNL     C8    9  -0.370  -0.154   0.157
    1UNL     C9   10  -0.247  -0.085   0.160
    1UNL     N2   11  -0.147  -0.181   0.170
    1UNL    C10   12  -0.207  -0.308   0.178
    1UNL    C11   13  -0.143  -0.430   0.178
    1UNL    C12   14  -0.221  -0.544   0.178
    1UNL    C13   15  -0.362  -0.532   0.172
    1UNL    C14   16  -0.426  -0.410   0.166
    1UNL    C15   17  -0.347  -0.296   0.164
    1UNL    C16   18  -0.216   0.070   0.150
    1UNL    C17   19  -0.071   0.099   0.183
    1UNL    C18   20  -0.032   0.145   0.310
    1UNL    C19   21   0.105   0.168   0.334
    1UNL    C20   22   0.209   0.138   0.239
    1UNL     N3   23   0.347   0.143   0.225
    1UNL    C21   24   0.383   0.114   0.100
    1UNL    C22   25   0.276   0.071   0.028
    1UNL    C23   26   0.161   0.088   0.112
    1UNL    C24   27   0.027   0.071   0.087
    1UNL    C25   28   0.284   0.023  -0.119
    1UNL    C26   29   0.397  -0.067  -0.159
    1UNL     N4   30   0.537  -0.013  -0.135
    1UNL    C27   31   0.597   0.086  -0.231
    1UNL    C28   32   0.666   0.194  -0.146
    1UNL    C29   33   0.793   0.126  -0.077
    1UNL    C30   34   0.743   0.011   0.009
    1UNL    C31   35   0.809  -0.126  -0.029
    1UNL    C32   36   0.958  -0.117  -0.014
    1UNL    C33   37   0.588  -0.003   0.003
    1UNL    C34   38   0.533   0.128   0.067
    1UNL    C35   39   0.565   0.244  -0.038
    1UNL    C36   40  -0.263   0.140   0.022
    1UNL    C37   41  -0.408   0.120   0.000
    1UNL    C38   42  -0.436  -0.015  -0.065
    1UNL    C39   43  -0.446  -0.030  -0.216
    1UNL     O1   44  -0.357   0.021  -0.280
    1UNL     O2   45  -0.540  -0.115  -0.270
    1UNL    C40   46  -0.545  -0.105  -0.407
    1UNL     H1   47  -0.278   0.313  -0.170
    1UNL     H2   48  -0.325   0.477  -0.086
    1UNL     H3   49  -0.340   0.461  -0.256
    1UNL     H4   50  -0.565   0.387  -0.180
    1UNL     H5   51  -0.696   0.170  -0.163
    1UNL     H6   52  -0.701   0.235   0.000
    1UNL     H7   53  -0.826  -0.101   0.025
    1UNL     H8   54  -0.860   0.036  -0.098
    1UNL     H9   55  -0.756  -0.088  -0.139
    1UNL    H10   56  -0.593  -0.162  -0.047
    1UNL    H11   57  -0.515  -0.015   0.217
    1UNL    H12   58  -0.576  -0.182   0.203
    1UNL    H13   59  -0.047  -0.168   0.167
    1UNL    H14   60  -0.036  -0.434   0.194
    1UNL    H15   61  -0.176  -0.650   0.183
    1UNL    H16   62  -0.420  -0.624   0.148
    1UNL    H17   63  -0.532  -0.392   0.141
    1UNL    H18   64  -0.270   0.118   0.242
    1UNL    H19   65  -0.110   0.163   0.382
    1UNL    H20   66   0.151   0.208   0.428
    1UNL    H21   67   0.398   0.178   0.307
    1UNL    H22   68  -0.012   0.023  -0.011
    1UNL    H23   69   0.289   0.104  -0.194
    1UNL    H24   70   0.178  -0.029  -0.137
    1UNL    H25   71   0.383  -0.156  -0.095
    1UNL    H26   72   0.395  -0.090  -0.267
    1UNL    H27   73   0.648   0.027  -0.309
    1UNL    H28   74   0.523   0.132  -0.288
    1UNL    H29   75   0.687   0.282  -0.205
    1UNL    H30   76   0.861   0.101  -0.160
    1UNL    H31   77   0.841   0.193  -0.003
    1UNL    H32   78   0.770   0.033   0.111
    1UNL    H33   79   0.777  -0.157  -0.131
    1UNL    H34   80   0.758  -0.202   0.031
    1UNL    H35   81   0.992  -0.069   0.072
    1UNL    H36   82   0.995  -0.212  -0.022
    1UNL    H37   83   0.999  -0.062  -0.102
    1UNL    H38   84   0.543  -0.092   0.048
    1UNL    H39   85   0.594   0.141   0.157
    1UNL    H40   86   0.610   0.333   0.017
    1UNL    H41   87   0.470   0.274  -0.078
    1UNL    H42   88  -0.252   0.248   0.041
    1UNL    H43   89  -0.192   0.115  -0.059
    1UNL    H44   90  -0.452   0.118   0.103
    1UNL    H45   91  -0.339  -0.081  -0.047
    1UNL    H46   92  -0.611  -0.187  -0.445
    1UNL    H47   93  -0.582  -0.014  -0.447
    1UNL    H48   94  -0.449  -0.129  -0.451
   0.00000   0.00000   0.00000   0.00000   0.00000   0.00000   0.00000   0.00000   0.00000
Generated with MDTraj, t= 39.0
 94
    1UNL     C1    1  -0.315   0.334  -0.185
    1UNL     C2    2  -0.456   0.291  -0.161
    1UNL     C3    3  -0.492   0.196  -0.075
    1UNL     C4    4  -0.640   0.152  -0.072
    1UNL     N1    5  -0.659   0.011  -0.018
    1UNL     C5    6  -0.790  -0.061  -0.050
    1UNL     C6    7  -0.547  -0.077   0.008
    1UNL     C7    8  -0.515  -0.093   0.159
    1UNL     C8    9  -0.378  -0.137   0.186
    1UNL     C9   10  -0.253  -0.078   0.159
    1UNL     N2   11  -0.150  -0.171   0.171
    1UNL    C10   12  -0.202  -0.294   0.187
    1UNL    C11   13  -0.150  -0.423   0.157
    1UNL    C12   14  -0.232  -0.536   0.142
    1UNL    C13   15  -0.372  -0.514   0.145
    1UNL    C14   16  -0.429  -0.392   0.168
    1UNL    C15   17  -0.344  -0.278   0.188
    1UNL    C16   18  -0.205   0.065   0.157
    1UNL    C17   19  -0.062   0.087   0.191
    1UNL    C18   20  -0.009   0.129   0.318
    1UNL    C19   21   0.122   0.149   0.343
    1UNL    C20   22   0.210   0.141   0.234
    1UNL     N3   23   0.345   0.163   0.231
    1UNL    C21   24   0.389   0.125   0.110
    1UNL    C22   25   0.282   0.097   0.028
    1UNL    C23   26   0.162   0.103   0.107
    1UNL    C24   27   0.029   0.063   0.086
    1UNL    C25   28   0.281   0.044  -0.113
    1UNL    C26   29   0.374  -0.070  -0.139
    1UNL     N4   30   0.520  -0.022  -0.127
    1UNL    C27   31   0.566   0.083  -0.225
    1UNL    C28   32   0.641   0.194  -0.146
    1UNL    C29   33   0.779   0.134  -0.099
    1UNL    C30   34   0.741   0.014  -0.008
    1UNL    C31   35   0.809  -0.116  -0.055
    1UNL    C32   36   0.946  -0.142   0.014
    1UNL    C33   37   0.585   0.003   0.005
    1UNL    C34   38   0.531   0.134   0.070
    1UNL    C35   39   0.561   0.253  -0.029
    1UNL    C36   40  -0.245   0.134   0.030
    1UNL    C37   41  -0.394   0.105  -0.003
    1UNL    C38   42  -0.421  -0.034  -0.064
    1UNL    C39   43  -0.437  -0.026  -0.214
    1UNL     O1   44  -0.341   0.011  -0.280
    1UNL     O2   45  -0.565  -0.061  -0.255
    1UNL    C40   46  -0.570  -0.076  -0.394
    1UNL     H1   47  -0.261   0.246  -0.214
    1UNL     H2   48  -0.272   0.398  -0.100
    1UNL     H3   49  -0.309   0.413  -0.265
    1UNL     H4   50  -0.538   0.336  -0.217
    1UNL     H5   51  -0.684   0.158  -0.179
    1UNL     H6   52  -0.705   0.216  -0.018
    1UNL     H7   53  -0.785  -0.173  -0.034
    1UNL     H8   54  -0.875  -0.015  -0.013
    1UNL     H9   55  -0.800  -0.048  -0.158
    1UNL    H10   56  -0.574  -0.184  -0.019
    1UNL    H11   57  -0.535  -0.004   0.229
    1UNL    H12   58  -0.581  -0.174   0.199
    1UNL    H13   59  -0.055  -0.147   0.173
    1UNL    H14   60  -0.044  -0.439   0.147
    1UNL    H15   61  -0.188  -0.626   0.154
    1UNL    H16   62  -0.441  -0.594   0.132
    1UNL    H17   63  -0.531  -0.374   0.142
    1UNL    H18   64  -0.263   0.112   0.242
    1UNL    H19   65  -0.070   0.148   0.406
    1UNL    H20   66   0.155   0.195   0.429
    1UNL    H21   67   0.407   0.179   0.312
    1UNL    H22   68   0.002   0.019  -0.009
    1UNL    H23   69   0.297   0.135  -0.175
    1UNL    H24   70   0.173   0.010  -0.147
    1UNL    H25   71   0.366  -0.139  -0.053
    1UNL    H26   72   0.350  -0.121  -0.233
    1UNL    H27   73   0.632   0.042  -0.303
    1UNL    H28   74   0.478   0.104  -0.279
    1UNL    H29   75   0.670   0.279  -0.206
    1UNL    H30   76   0.842   0.102  -0.176
    1UNL    H31   77   0.829   0.219  -0.044
    1UNL    H32   78   0.784   0.040   0.087
    1UNL    H33   79   0.811  -0.117  -0.167
    1UNL    H34   80   0.739  -0.199  -0.039
    1UNL    H35   81   0.936  -0.153   0.121
    1UNL    H36   82   1.007  -0.219  -0.021
    1UNL    H37   83   1.006  -0.058   0.008
    1UNL    H38   84   0.551  -0.079   0.068
    1UNL    H39   85   0.596   0.150   0.157
    1UNL    H40   86   0.621   0.339   0.021
    1UNL    H41   87   0.467   0.289  -0.062
    1UNL    H42   88  -0.212   0.237   0.042
    1UNL    H43   89  -0.186   0.107  -0.057
    1UNL    H44   90  -0.432   0.105   0.096
    1UNL    H45   91  -0.336  -0.110  -0.042
    1UNL    H46   92  -0.675  -0.078  -0.438
    1UNL    H47   93  -0.519  -0.003  -0.452
    1UNL    H48   94  -0.527  -0.172  -0.415
   0.00000   0.00000   0.00000   0.00000   0.00000   0.00000   0.00000   0.00000   0.00000
Generated with MDTraj, t= 40.0
 94
    1UNL     C1    1  -0.327   0.293  -0.250
    1UNL     C2    2  -0.457   0.276  -0.190
    1UNL     C3    3  -0.481   0.194  -0.089
    1UNL     C4    4  -0.625   0.174  -0.043
    1UNL     N1    5  -0.663   0.039   0.007
    1UNL     C5    6  -0.778  -0.034  -0.051
    1UNL     C6    7  -0.546  -0.070   0.026
    1UNL     C7    8  -0.497  -0.086   0.172
    1UNL     C8    9  -0.363  -0.148   0.190
    1UNL     C9   10  -0.238  -0.086   0.180
    1UNL     N2   11  -0.143  -0.183   0.165
    1UNL    C10   12  -0.196  -0.309   0.170
    1UNL    C11   13  -0.143  -0.434   0.139
    1UNL    C12   14  -0.231  -0.539   0.132
    1UNL    C13   15  -0.371  -0.526   0.157
    1UNL    C14   16  -0.422  -0.398   0.169
    1UNL    C15   17  -0.334  -0.286   0.171
    1UNL    C16   18  -0.206   0.065   0.170
    1UNL    C17   19  -0.062   0.097   0.199
    1UNL    C18   20  -0.024   0.135   0.327
    1UNL    C19   21   0.105   0.154   0.358
    1UNL    C20   22   0.199   0.145   0.255
    1UNL     N3   23   0.339   0.162   0.242
    1UNL    C21   24   0.384   0.134   0.110
    1UNL    C22   25   0.276   0.096   0.036
    1UNL    C23   26   0.160   0.095   0.131
    1UNL    C24   27   0.028   0.063   0.106
    1UNL    C25   28   0.282   0.049  -0.106
    1UNL    C26   29   0.382  -0.056  -0.130
    1UNL     N4   30   0.529  -0.012  -0.125
    1UNL    C27   31   0.572   0.087  -0.229
    1UNL    C28   32   0.640   0.206  -0.159
    1UNL    C29   33   0.772   0.137  -0.099
    1UNL    C30   34   0.732   0.015   0.000
    1UNL    C31   35   0.783  -0.125  -0.038
    1UNL    C32   36   0.928  -0.163  -0.017
    1UNL    C33   37   0.578   0.011   0.006
    1UNL    C34   38   0.523   0.144   0.064
    1UNL    C35   39   0.554   0.258  -0.047
    1UNL    C36   40  -0.248   0.135   0.035
    1UNL    C37   41  -0.391   0.103  -0.010
    1UNL    C38   42  -0.423  -0.039  -0.061
    1UNL    C39   43  -0.440  -0.050  -0.215
    1UNL     O1   44  -0.335  -0.036  -0.278
    1UNL     O2   45  -0.565  -0.056  -0.272
    1UNL    C40   46  -0.557  -0.019  -0.408
    1UNL     H1   47  -0.288   0.193  -0.263
    1UNL     H2   48  -0.262   0.372  -0.200
    1UNL     H3   49  -0.334   0.342  -0.352
    1UNL     H4   50  -0.544   0.326  -0.225
    1UNL     H5   51  -0.701   0.202  -0.123
    1UNL     H6   52  -0.645   0.249   0.031
    1UNL     H7   53  -0.822  -0.100   0.028
    1UNL     H8   54  -0.852   0.027  -0.095
    1UNL     H9   55  -0.747  -0.106  -0.128
    1UNL    H10   56  -0.588  -0.165  -0.017
    1UNL    H11   57  -0.498   0.018   0.218
    1UNL    H12   58  -0.570  -0.142   0.239
    1UNL    H13   59  -0.050  -0.175   0.135
    1UNL    H14   60  -0.040  -0.449   0.113
    1UNL    H15   61  -0.196  -0.647   0.123
    1UNL    H16   62  -0.437  -0.613   0.154
    1UNL    H17   63  -0.527  -0.374   0.171
    1UNL    H18   64  -0.280   0.103   0.245
    1UNL    H19   65  -0.103   0.137   0.400
    1UNL    H20   66   0.142   0.193   0.459
    1UNL    H21   67   0.413   0.198   0.303
    1UNL    H22   68  -0.002   0.016   0.024
    1UNL    H23   69   0.294   0.138  -0.175
    1UNL    H24   70   0.176   0.013  -0.127
    1UNL    H25   71   0.364  -0.142  -0.060
    1UNL    H26   72   0.381  -0.092  -0.231
    1UNL    H27   73   0.647   0.033  -0.291
    1UNL    H28   74   0.493   0.105  -0.299
    1UNL    H29   75   0.670   0.278  -0.232
    1UNL    H30   76   0.823   0.101  -0.179
    1UNL    H31   77   0.837   0.206  -0.035
    1UNL    H32   78   0.770   0.045   0.095
    1UNL    H33   79   0.768  -0.149  -0.146
    1UNL    H34   80   0.728  -0.201   0.016
    1UNL    H35   81   0.942  -0.165   0.090
    1UNL    H36   82   0.957  -0.254  -0.064
    1UNL    H37   83   0.984  -0.089  -0.053
    1UNL    H38   84   0.548  -0.075   0.065
    1UNL    H39   85   0.585   0.168   0.151
    1UNL    H40   86   0.604   0.343   0.014
    1UNL    H41   87   0.469   0.293  -0.100
    1UNL    H42   88  -0.230   0.241   0.042
    1UNL    H43   89  -0.177   0.114  -0.043
    1UNL    H44   90  -0.431   0.119   0.084
    1UNL    H45   91  -0.338  -0.112  -0.042
    1UNL    H46   92  -0.658  -0.025  -0.463
    1UNL    H47   93  -0.522   0.082  -0.426
    1UNL    H48   94  -0.492  -0.090  -0.453
   0.00000   0.00000   0.00000   0.00000   0.00000   0.00000   0.00000   0.00000   0.00000
Generated with MDTraj, t= 41.0
 94
    1UNL     C1    1  -0.329   0.244  -0.273
    1UNL     C2    2  -0.447   0.268  -0.186
    1UNL     C3    3  -0.477   0.208  -0.069
    1UNL     C4    4  -0.617   0.191  -0.011
    1UNL     N1    5  -0.662   0.041   0.016
    1UNL     C5    6  -0.789   0.003  -0.053
    1UNL     C6    7  -0.553  -0.077   0.023
    1UNL     C7    8  -0.509  -0.102   0.169
    1UNL     C8    9  -0.368  -0.157   0.175
    1UNL     C9   10  -0.245  -0.090   0.161
    1UNL     N2   11  -0.144  -0.185   0.153
    1UNL    C10   12  -0.202  -0.310   0.146
    1UNL    C11   13  -0.142  -0.435   0.133
    1UNL    C12   14  -0.218  -0.550   0.155
    1UNL    C13   15  -0.359  -0.532   0.165
    1UNL    C14   16  -0.423  -0.413   0.174
    1UNL    C15   17  -0.344  -0.296   0.160
    1UNL    C16   18  -0.208   0.062   0.154
    1UNL    C17   19  -0.061   0.084   0.186
    1UNL    C18   20  -0.028   0.137   0.315
    1UNL    C19   21   0.098   0.170   0.346
    1UNL    C20   22   0.196   0.153   0.244
    1UNL     N3   23   0.334   0.189   0.242
    1UNL    C21   24   0.387   0.156   0.121
    1UNL    C22   25   0.283   0.111   0.043
    1UNL    C23   26   0.161   0.111   0.116
    1UNL    C24   27   0.033   0.073   0.090
    1UNL    C25   28   0.282   0.054  -0.102
    1UNL    C26   29   0.376  -0.059  -0.134
    1UNL     N4   30   0.521  -0.016  -0.122
    1UNL    C27   31   0.573   0.085  -0.220
    1UNL    C28   32   0.651   0.195  -0.138
    1UNL    C29   33   0.776   0.124  -0.075
    1UNL    C30   34   0.725  -0.003   0.010
    1UNL    C31   35   0.778  -0.131  -0.041
    1UNL    C32   36   0.930  -0.133  -0.066
    1UNL    C33   37   0.568   0.001   0.014
    1UNL    C34   38   0.526   0.136   0.079
    1UNL    C35   39   0.560   0.252  -0.023
    1UNL    C36   40  -0.247   0.128   0.013
    1UNL    C37   41  -0.391   0.103   0.004
    1UNL    C38   42  -0.423  -0.034  -0.061
    1UNL    C39   43  -0.430  -0.039  -0.207
    1UNL     O1   44  -0.330  -0.061  -0.276
    1UNL     O2   45  -0.553  -0.013  -0.261
    1UNL    C40   46  -0.556  -0.035  -0.393
    1UNL     H1   47  -0.348   0.144  -0.315
    1UNL     H2   48  -0.232   0.258  -0.221
    1UNL     H3   49  -0.322   0.321  -0.354
    1UNL     H4   50  -0.530   0.315  -0.240
    1UNL     H5   51  -0.689   0.244  -0.072
    1UNL     H6   52  -0.627   0.243   0.084
    1UNL     H7   53  -0.807  -0.103  -0.048
    1UNL     H8   54  -0.866   0.049   0.010
    1UNL     H9   55  -0.810   0.032  -0.157
    1UNL    H10   56  -0.598  -0.167  -0.026
    1UNL    H11   57  -0.511  -0.004   0.227
    1UNL    H12   58  -0.587  -0.167   0.223
    1UNL    H13   59  -0.048  -0.157   0.149
    1UNL    H14   60  -0.034  -0.436   0.123
    1UNL    H15   61  -0.172  -0.646   0.142
    1UNL    H16   62  -0.415  -0.622   0.141
    1UNL    H17   63  -0.532  -0.405   0.187
    1UNL    H18   64  -0.259   0.108   0.237
    1UNL    H19   65  -0.110   0.175   0.375
    1UNL    H20   66   0.125   0.219   0.434
    1UNL    H21   67   0.392   0.217   0.321
    1UNL    H22   68   0.017   0.034  -0.015
    1UNL    H23   69   0.310   0.146  -0.167
    1UNL    H24   70   0.177   0.030  -0.134
    1UNL    H25   71   0.362  -0.149  -0.067
    1UNL    H26   72   0.363  -0.095  -0.234
    1UNL    H27   73   0.628   0.019  -0.288
    1UNL    H28   74   0.497   0.134  -0.280
    1UNL    H29   75   0.686   0.277  -0.196
    1UNL    H30   76   0.843   0.098  -0.155
    1UNL    H31   77   0.821   0.199  -0.004
    1UNL    H32   78   0.764   0.006   0.110
    1UNL    H33   79   0.726  -0.150  -0.140
    1UNL    H34   80   0.753  -0.213   0.026
    1UNL    H35   81   0.975  -0.097   0.023
    1UNL    H36   82   0.979  -0.223  -0.088
    1UNL    H37   83   0.968  -0.065  -0.141
    1UNL    H38   84   0.535  -0.082   0.076
    1UNL    H39   85   0.590   0.150   0.168
    1UNL    H40   86   0.614   0.344   0.021
    1UNL    H41   87   0.469   0.289  -0.067
    1UNL    H42   88  -0.223   0.232   0.006
    1UNL    H43   89  -0.190   0.083  -0.063
    1UNL    H44   90  -0.432   0.107   0.096
    1UNL    H45   91  -0.351  -0.112  -0.040
    1UNL    H46   92  -0.660  -0.081  -0.419
    1UNL    H47   93  -0.551   0.060  -0.446
    1UNL    H48   94  -0.477  -0.104  -0.414
   0.00000   0.00000   0.00000   0.00000   0.00000   0.00000   0.00000   0.00000   0.00000
Generated with MDTraj, t= 42.0
 94
    1UNL     C1    1  -0.329   0.305  -0.249
    1UNL     C2    2  -0.459   0.288  -0.177
    1UNL     C3    3  -0.490   0.202  -0.081
    1UNL     C4    4  -0.632   0.181  -0.017
    1UNL     N1    5  -0.670   0.038   0.022
    1UNL     C5    6  -0.795  -0.011  -0.051
    1UNL     C6    7  -0.556  -0.072   0.022
    1UNL     C7    8  -0.504  -0.098   0.170
    1UNL     C8    9  -0.363  -0.154   0.175
    1UNL     C9   10  -0.239  -0.090   0.155
    1UNL     N2   11  -0.140  -0.183   0.158
    1UNL    C10   12  -0.200  -0.313   0.167
    1UNL    C11   13  -0.141  -0.443   0.154
    1UNL    C12   14  -0.225  -0.549   0.152
    1UNL    C13   15  -0.366  -0.534   0.171
    1UNL    C14   16  -0.422  -0.409   0.178
    1UNL    C15   17  -0.339  -0.294   0.170
    1UNL    C16   18  -0.213   0.058   0.149
    1UNL    C17   19  -0.064   0.094   0.177
    1UNL    C18   20  -0.030   0.150   0.301
    1UNL    C19   21   0.105   0.167   0.336
    1UNL    C20   22   0.212   0.150   0.248
    1UNL     N3   23   0.344   0.176   0.245
    1UNL    C21   24   0.391   0.150   0.120
    1UNL    C22   25   0.293   0.103   0.035
    1UNL    C23   26   0.179   0.098   0.122
    1UNL    C24   27   0.038   0.070   0.085
    1UNL    C25   28   0.291   0.056  -0.106
    1UNL    C26   29   0.388  -0.054  -0.134
    1UNL     N4   30   0.528  -0.016  -0.118
    1UNL    C27   31   0.583   0.091  -0.210
    1UNL    C28   32   0.664   0.196  -0.126
    1UNL    C29   33   0.785   0.127  -0.069
    1UNL    C30   34   0.746   0.001   0.012
    1UNL    C31   35   0.782  -0.128  -0.050
    1UNL    C32   36   0.935  -0.142  -0.073
    1UNL    C33   37   0.586   0.007   0.022
    1UNL    C34   38   0.537   0.143   0.088
    1UNL    C35   39   0.574   0.256  -0.009
    1UNL    C36   40  -0.247   0.124   0.018
    1UNL    C37   41  -0.400   0.103  -0.016
    1UNL    C38   42  -0.430  -0.036  -0.067
    1UNL    C39   43  -0.460  -0.046  -0.222
    1UNL     O1   44  -0.366  -0.075  -0.295
    1UNL     O2   45  -0.587  -0.039  -0.272
    1UNL    C40   46  -0.584  -0.042  -0.416
    1UNL     H1   47  -0.281   0.205  -0.268
    1UNL     H2   48  -0.259   0.375  -0.204
    1UNL     H3   49  -0.343   0.352  -0.348
    1UNL     H4   50  -0.542   0.343  -0.212
    1UNL     H5   51  -0.710   0.214  -0.077
    1UNL     H6   52  -0.640   0.247   0.072
    1UNL     H7   53  -0.856  -0.075   0.003
    1UNL     H8   54  -0.857   0.080  -0.079
    1UNL     H9   55  -0.776  -0.066  -0.143
    1UNL    H10   56  -0.599  -0.163  -0.021
    1UNL    H11   57  -0.511   0.001   0.227
    1UNL    H12   58  -0.575  -0.174   0.223
    1UNL    H13   59  -0.043  -0.164   0.188
    1UNL    H14   60  -0.036  -0.455   0.163
    1UNL    H15   61  -0.182  -0.644   0.132
    1UNL    H16   62  -0.433  -0.614   0.157
    1UNL    H17   63  -0.526  -0.401   0.192
    1UNL    H18   64  -0.263   0.104   0.231
    1UNL    H19   65  -0.106   0.182   0.369
    1UNL    H20   66   0.141   0.191   0.436
    1UNL    H21   67   0.406   0.200   0.321
    1UNL    H22   68   0.019   0.042  -0.021
    1UNL    H23   69   0.311   0.150  -0.174
    1UNL    H24   70   0.190   0.014  -0.124
    1UNL    H25   71   0.373  -0.135  -0.056
    1UNL    H26   72   0.378  -0.100  -0.229
    1UNL    H27   73   0.652   0.057  -0.289
    1UNL    H28   74   0.499   0.138  -0.263
    1UNL    H29   75   0.695   0.279  -0.188
    1UNL    H30   76   0.846   0.101  -0.167
    1UNL    H31   77   0.840   0.199  -0.005
    1UNL    H32   78   0.782   0.006   0.113
    1UNL    H33   79   0.725  -0.125  -0.149
    1UNL    H34   80   0.749  -0.211   0.012
    1UNL    H35   81   0.984  -0.131   0.016
    1UNL    H36   82   0.966  -0.234  -0.109
    1UNL    H37   83   0.990  -0.069  -0.142
    1UNL    H38   84   0.547  -0.072   0.084
    1UNL    H39   85   0.596   0.159   0.180
    1UNL    H40   86   0.640   0.326   0.050
    1UNL    H41   87   0.496   0.321  -0.053
    1UNL    H42   88  -0.220   0.227   0.019
    1UNL    H43   89  -0.194   0.074  -0.057
    1UNL    H44   90  -0.431   0.111   0.082
    1UNL    H45   91  -0.348  -0.097  -0.045
    1UNL    H46   92  -0.660   0.025  -0.470
    1UNL    H47   93  -0.487  -0.002  -0.443
    1UNL    H48   94  -0.585  -0.147  -0.439
   0.00000   0.00000   0.00000   0.00000   0.00000   0.00000   0.00000   0.00000   0.00000
Generated with MDTraj, t= 43.0
 94
    1UNL     C1    1  -0.344   0.349  -0.204
    1UNL     C2    2  -0.476   0.297  -0.166
    1UNL     C3    3  -0.495   0.191  -0.089
    1UNL     C4    4  -0.636   0.155  -0.049
    1UNL     N1    5  -0.666   0.016  -0.000
    1UNL     C5    6  -0.800  -0.054  -0.033
    1UNL     C6    7  -0.554  -0.083   0.013
    1UNL     C7    8  -0.502  -0.084   0.163
    1UNL     C8    9  -0.360  -0.139   0.177
    1UNL     C9   10  -0.240  -0.074   0.159
    1UNL     N2   11  -0.145  -0.179   0.157
    1UNL    C10   12  -0.203  -0.301   0.172
    1UNL    C11   13  -0.147  -0.426   0.181
    1UNL    C12   14  -0.239  -0.532   0.175
    1UNL    C13   15  -0.375  -0.518   0.177
    1UNL    C14   16  -0.425  -0.391   0.179
    1UNL    C15   17  -0.339  -0.280   0.168
    1UNL    C16   18  -0.207   0.070   0.137
    1UNL    C17   19  -0.060   0.099   0.168
    1UNL    C18   20  -0.024   0.144   0.297
    1UNL    C19   21   0.107   0.146   0.335
    1UNL    C20   22   0.201   0.135   0.237
    1UNL     N3   23   0.340   0.153   0.244
    1UNL    C21   24   0.395   0.114   0.118
    1UNL    C22   25   0.287   0.084   0.033
    1UNL    C23   26   0.169   0.095   0.108
    1UNL    C24   27   0.039   0.070   0.073
    1UNL    C25   28   0.296   0.045  -0.113
    1UNL    C26   29   0.416  -0.048  -0.155
    1UNL     N4   30   0.551  -0.006  -0.124
    1UNL    C27   31   0.599   0.109  -0.210
    1UNL    C28   32   0.674   0.215  -0.120
    1UNL    C29   33   0.799   0.149  -0.061
    1UNL    C30   34   0.759   0.011   0.008
    1UNL    C31   35   0.808  -0.121  -0.050
    1UNL    C32   36   0.955  -0.165  -0.034
    1UNL    C33   37   0.600   0.001   0.013
    1UNL    C34   38   0.537   0.126   0.085
    1UNL    C35   39   0.577   0.249  -0.002
    1UNL    C36   40  -0.242   0.123  -0.004
    1UNL    C37   41  -0.396   0.090  -0.029
    1UNL    C38   42  -0.435  -0.045  -0.079
    1UNL    C39   43  -0.468  -0.050  -0.225
    1UNL     O1   44  -0.383  -0.043  -0.312
    1UNL     O2   45  -0.600  -0.049  -0.252
    1UNL    C40   46  -0.628  -0.040  -0.387
    1UNL     H1   47  -0.282   0.267  -0.256
    1UNL     H2   48  -0.287   0.381  -0.119
    1UNL     H3   49  -0.346   0.438  -0.271
    1UNL     H4   50  -0.563   0.354  -0.203
    1UNL     H5   51  -0.701   0.185  -0.122
    1UNL     H6   52  -0.664   0.213   0.042
    1UNL     H7   53  -0.814  -0.154  -0.004
    1UNL     H8   54  -0.892   0.008  -0.009
    1UNL     H9   55  -0.798  -0.068  -0.140
    1UNL    H10   56  -0.586  -0.185  -0.006
    1UNL    H11   57  -0.504   0.023   0.207
    1UNL    H12   58  -0.575  -0.146   0.228
    1UNL    H13   59  -0.048  -0.173   0.116
    1UNL    H14   60  -0.039  -0.433   0.202
    1UNL    H15   61  -0.201  -0.638   0.195
    1UNL    H16   62  -0.438  -0.610   0.177
    1UNL    H17   63  -0.534  -0.376   0.177
    1UNL    H18   64  -0.259   0.132   0.206
    1UNL    H19   65  -0.104   0.157   0.372
    1UNL    H20   66   0.122   0.170   0.440
    1UNL    H21   67   0.376   0.200   0.326
    1UNL    H22   68   0.023   0.052  -0.024
    1UNL    H23   69   0.314   0.137  -0.180
    1UNL    H24   70   0.207  -0.012  -0.141
    1UNL    H25   71   0.399  -0.151  -0.108
    1UNL    H26   72   0.418  -0.065  -0.258
    1UNL    H27   73   0.674   0.073  -0.279
    1UNL    H28   74   0.521   0.165  -0.266
    1UNL    H29   75   0.691   0.310  -0.170
    1UNL    H30   76   0.868   0.129  -0.157
    1UNL    H31   77   0.851   0.224   0.001
    1UNL    H32   78   0.795   0.012   0.109
    1UNL    H33   79   0.793  -0.119  -0.163
    1UNL    H34   80   0.753  -0.201  -0.002
    1UNL    H35   81   0.964  -0.177   0.069
    1UNL    H36   82   0.970  -0.253  -0.085
    1UNL    H37   83   1.033  -0.091  -0.070
    1UNL    H38   84   0.564  -0.093   0.054
    1UNL    H39   85   0.586   0.130   0.185
    1UNL    H40   86   0.632   0.319   0.063
    1UNL    H41   87   0.484   0.306  -0.037
    1UNL    H42   88  -0.221   0.226  -0.008
    1UNL    H43   89  -0.190   0.067  -0.075
    1UNL    H44   90  -0.432   0.095   0.068
    1UNL    H45   91  -0.354  -0.108  -0.063
    1UNL    H46   92  -0.717   0.029  -0.398
    1UNL    H47   93  -0.543   0.002  -0.439
    1UNL    H48   94  -0.651  -0.142  -0.410
   0.00000   0.00000   0.00000   0.00000   0.00000   0.00000   0.00000   0.00000   0.00000
Generated with MDTraj, t= 44.0
 94
    1UNL     C1    1  -0.361   0.363  -0.202
    1UNL     C2    2  -0.492   0.311  -0.155
    1UNL     C3    3  -0.517   0.203  -0.084
    1UNL     C4    4  -0.661   0.155  -0.077
    1UNL     N1    5  -0.678   0.027  -0.005
    1UNL     C5    6  -0.805  -0.046  -0.015
    1UNL     C6    7  -0.565  -0.069   0.012
    1UNL     C7    8  -0.505  -0.086   0.154
    1UNL     C8    9  -0.362  -0.145   0.169
    1UNL     C9   10  -0.240  -0.083   0.148
    1UNL     N2   11  -0.144  -0.176   0.155
    1UNL    C10   12  -0.198  -0.303   0.181
    1UNL    C11   13  -0.138  -0.432   0.180
    1UNL    C12   14  -0.216  -0.541   0.194
    1UNL    C13   15  -0.357  -0.522   0.206
    1UNL    C14   16  -0.421  -0.397   0.222
    1UNL    C15   17  -0.338  -0.287   0.191
    1UNL    C16   18  -0.208   0.064   0.124
    1UNL    C17   19  -0.061   0.091   0.153
    1UNL    C18   20  -0.030   0.128   0.285
    1UNL    C19   21   0.107   0.134   0.322
    1UNL    C20   22   0.203   0.115   0.222
    1UNL     N3   23   0.344   0.128   0.227
    1UNL    C21   24   0.404   0.094   0.105
    1UNL    C22   25   0.299   0.082   0.019
    1UNL    C23   26   0.172   0.090   0.090
    1UNL    C24   27   0.033   0.062   0.059
    1UNL    C25   28   0.308   0.061  -0.127
    1UNL    C26   29   0.413  -0.041  -0.179
    1UNL     N4   30   0.556  -0.004  -0.136
    1UNL    C27   31   0.611   0.116  -0.208
    1UNL    C28   32   0.679   0.217  -0.103
    1UNL    C29   33   0.803   0.140  -0.045
    1UNL    C30   34   0.758   0.003   0.018
    1UNL    C31   35   0.837  -0.119  -0.041
    1UNL    C32   36   0.983  -0.125   0.005
    1UNL    C33   37   0.604  -0.019  -0.004
    1UNL    C34   38   0.546   0.101   0.084
    1UNL    C35   39   0.583   0.237   0.021
    1UNL    C36   40  -0.257   0.132  -0.014
    1UNL    C37   41  -0.412   0.107  -0.024
    1UNL    C38   42  -0.449  -0.027  -0.076
    1UNL    C39   43  -0.480  -0.027  -0.226
    1UNL     O1   44  -0.395   0.009  -0.306
    1UNL     O2   45  -0.609  -0.061  -0.256
    1UNL    C40   46  -0.622  -0.066  -0.393
    1UNL     H1   47  -0.282   0.281  -0.196
    1UNL     H2   48  -0.327   0.442  -0.136
    1UNL     H3   49  -0.364   0.403  -0.306
    1UNL     H4   50  -0.573   0.362  -0.200
    1UNL     H5   51  -0.704   0.140  -0.169
    1UNL     H6   52  -0.725   0.232  -0.029
    1UNL     H7   53  -0.825  -0.104   0.073
    1UNL     H8   54  -0.889   0.022  -0.041
    1UNL     H9   55  -0.793  -0.123  -0.089
    1UNL    H10   56  -0.601  -0.163  -0.023
    1UNL    H11   57  -0.522   0.014   0.214
    1UNL    H12   58  -0.580  -0.153   0.210
    1UNL    H13   59  -0.041  -0.149   0.165
    1UNL    H14   60  -0.034  -0.453   0.168
    1UNL    H15   61  -0.173  -0.631   0.212
    1UNL    H16   62  -0.414  -0.609   0.207
    1UNL    H17   63  -0.526  -0.397   0.220
    1UNL    H18   64  -0.262   0.121   0.195
    1UNL    H19   65  -0.114   0.143   0.349
    1UNL    H20   66   0.134   0.163   0.419
    1UNL    H21   67   0.391   0.133   0.316
    1UNL    H22   68   0.001   0.035  -0.047
    1UNL    H23   69   0.333   0.162  -0.167
    1UNL    H24   70   0.210   0.025  -0.160
    1UNL    H25   71   0.389  -0.148  -0.144
    1UNL    H26   72   0.411  -0.054  -0.283
    1UNL    H27   73   0.686   0.073  -0.273
    1UNL    H28   74   0.539   0.179  -0.265
    1UNL    H29   75   0.716   0.304  -0.157
    1UNL    H30   76   0.882   0.131  -0.127
    1UNL    H31   77   0.853   0.209   0.029
    1UNL    H32   78   0.780   0.004   0.123
    1UNL    H33   79   0.837  -0.095  -0.153
    1UNL    H34   80   0.789  -0.215  -0.030
    1UNL    H35   81   0.982  -0.159   0.108
    1UNL    H36   82   1.045  -0.190  -0.049
    1UNL    H37   83   1.039  -0.032   0.009
    1UNL    H38   84   0.575  -0.119   0.029
    1UNL    H39   85   0.584   0.080   0.188
    1UNL    H40   86   0.630   0.309   0.089
    1UNL    H41   87   0.486   0.288  -0.019
    1UNL    H42   88  -0.240   0.234  -0.012
    1UNL    H43   89  -0.209   0.085  -0.093
    1UNL    H44   90  -0.446   0.116   0.079
    1UNL    H45   91  -0.365  -0.087  -0.065
    1UNL    H46   92  -0.717  -0.121  -0.419
    1UNL    H47   93  -0.629   0.038  -0.424
    1UNL    H48   94  -0.537  -0.116  -0.429
   0.00000   0.00000   0.00000   0.00000   0.00000   0.00000   0.00000   0.00000   0.00000
Generated with MDTraj, t= 45.0
 94
    1UNL     C1    1  -0.364   0.362  -0.211
    1UNL     C2    2  -0.496   0.317  -0.167
    1UNL     C3    3  -0.523   0.219  -0.081
    1UNL     C4    4  -0.668   0.179  -0.046
    1UNL     N1    5  -0.676   0.046   0.026
    1UNL     C5    6  -0.810  -0.012   0.023
    1UNL     C6    7  -0.574  -0.062   0.016
    1UNL     C7    8  -0.517  -0.100   0.154
    1UNL     C8    9  -0.370  -0.157   0.140
    1UNL     C9   10  -0.249  -0.092   0.111
    1UNL     N2   11  -0.144  -0.178   0.111
    1UNL    C10   12  -0.191  -0.300   0.154
    1UNL    C11   13  -0.129  -0.423   0.185
    1UNL    C12   14  -0.202  -0.522   0.240
    1UNL    C13   15  -0.339  -0.512   0.259
    1UNL    C14   16  -0.409  -0.402   0.215
    1UNL    C15   17  -0.334  -0.292   0.156
    1UNL    C16   18  -0.214   0.057   0.117
    1UNL    C17   19  -0.069   0.094   0.137
    1UNL    C18   20  -0.027   0.109   0.270
    1UNL    C19   21   0.100   0.109   0.318
    1UNL    C20   22   0.203   0.091   0.227
    1UNL     N3   23   0.338   0.094   0.230
    1UNL    C21   24   0.389   0.094   0.105
    1UNL    C22   25   0.292   0.075   0.007
    1UNL    C23   26   0.169   0.080   0.085
    1UNL    C24   27   0.028   0.073   0.044
    1UNL    C25   28   0.315   0.050  -0.138
    1UNL    C26   29   0.425  -0.045  -0.174
    1UNL     N4   30   0.567   0.001  -0.138
    1UNL    C27   31   0.619   0.128  -0.206
    1UNL    C28   32   0.683   0.212  -0.091
    1UNL    C29   33   0.812   0.139  -0.037
    1UNL    C30   34   0.759   0.005   0.025
    1UNL    C31   35   0.827  -0.121  -0.025
    1UNL    C32   36   0.978  -0.112  -0.010
    1UNL    C33   37   0.604  -0.006   0.005
    1UNL    C34   38   0.540   0.108   0.090
    1UNL    C35   39   0.584   0.237   0.026
    1UNL    C36   40  -0.271   0.143  -0.006
    1UNL    C37   41  -0.425   0.121  -0.022
    1UNL    C38   42  -0.454  -0.018  -0.077
    1UNL    C39   43  -0.485  -0.025  -0.226
    1UNL     O1   44  -0.411   0.042  -0.296
    1UNL     O2   45  -0.578  -0.116  -0.272
    1UNL    C40   46  -0.596  -0.091  -0.406
    1UNL     H1   47  -0.314   0.290  -0.279
    1UNL     H2   48  -0.295   0.363  -0.124
    1UNL     H3   49  -0.365   0.465  -0.254
    1UNL     H4   50  -0.583   0.367  -0.213
    1UNL     H5   51  -0.728   0.177  -0.132
    1UNL     H6   52  -0.714   0.253   0.020
    1UNL     H7   53  -0.804  -0.116   0.064
    1UNL     H8   54  -0.875   0.050   0.078
    1UNL     H9   55  -0.844  -0.030  -0.078
    1UNL    H10   56  -0.621  -0.144  -0.035
    1UNL    H11   57  -0.523  -0.009   0.224
    1UNL    H12   58  -0.587  -0.169   0.210
    1UNL    H13   59  -0.046  -0.136   0.111
    1UNL    H14   60  -0.022  -0.425   0.170
    1UNL    H15   61  -0.145  -0.612   0.281
    1UNL    H16   62  -0.397  -0.601   0.296
    1UNL    H17   63  -0.519  -0.406   0.221
    1UNL    H18   64  -0.261   0.099   0.202
    1UNL    H19   65  -0.101   0.103   0.352
    1UNL    H20   66   0.112   0.094   0.428
    1UNL    H21   67   0.401   0.107   0.309
    1UNL    H22   68   0.015   0.037  -0.058
    1UNL    H23   69   0.337   0.144  -0.183
    1UNL    H24   70   0.218   0.012  -0.175
    1UNL    H25   71   0.408  -0.148  -0.128
    1UNL    H26   72   0.429  -0.075  -0.275
    1UNL    H27   73   0.705   0.114  -0.271
    1UNL    H28   74   0.542   0.188  -0.259
    1UNL    H29   75   0.721   0.302  -0.141
    1UNL    H30   76   0.887   0.122  -0.113
    1UNL    H31   77   0.863   0.216   0.035
    1UNL    H32   78   0.780   0.004   0.130
    1UNL    H33   79   0.799  -0.141  -0.133
    1UNL    H34   80   0.784  -0.209   0.023
    1UNL    H35   81   1.001  -0.077   0.093
    1UNL    H36   82   1.023  -0.209  -0.017
    1UNL    H37   83   1.030  -0.054  -0.073
    1UNL    H38   84   0.574  -0.102   0.046
    1UNL    H39   85   0.583   0.109   0.193
    1UNL    H40   86   0.638   0.305   0.093
    1UNL    H41   87   0.505   0.310  -0.019
    1UNL    H42   88  -0.236   0.241  -0.008
    1UNL    H43   89  -0.236   0.104  -0.096
    1UNL    H44   90  -0.451   0.114   0.086
    1UNL    H45   91  -0.372  -0.081  -0.065
    1UNL    H46   92  -0.659  -0.168  -0.455
    1UNL    H47   93  -0.650   0.005  -0.401
    1UNL    H48   94  -0.502  -0.078  -0.454
   0.00000   0.00000   0.00000   0.00000   0.00000   0.00000   0.00000   0.00000   0.00000
Generated with MDTraj, t= 46.0
 94
    1UNL     C1    1  -0.372   0.358  -0.240
    1UNL     C2    2  -0.491   0.330  -0.163
    1UNL     C3    3  -0.511   0.227  -0.083
    1UNL     C4    4  -0.648   0.187  -0.030
    1UNL     N1    5  -0.659   0.040   0.013
    1UNL     C5    6  -0.791   0.003   0.075
    1UNL     C6    7  -0.556  -0.071  -0.004
    1UNL     C7    8  -0.506  -0.107   0.139
    1UNL     C8    9  -0.361  -0.154   0.141
    1UNL     C9   10  -0.242  -0.091   0.110
    1UNL     N2   11  -0.136  -0.183   0.118
    1UNL    C10   12  -0.189  -0.298   0.171
    1UNL    C11   13  -0.124  -0.423   0.180
    1UNL    C12   14  -0.200  -0.522   0.231
    1UNL    C13   15  -0.338  -0.514   0.266
    1UNL    C14   16  -0.400  -0.399   0.230
    1UNL    C15   17  -0.328  -0.288   0.181
    1UNL    C16   18  -0.215   0.055   0.102
    1UNL    C17   19  -0.065   0.069   0.138
    1UNL    C18   20  -0.041   0.076   0.275
    1UNL    C19   21   0.089   0.089   0.321
    1UNL    C20   22   0.191   0.084   0.227
    1UNL     N3   23   0.328   0.116   0.246
    1UNL    C21   24   0.388   0.101   0.125
    1UNL    C22   25   0.292   0.083   0.027
    1UNL    C23   26   0.167   0.079   0.089
    1UNL    C24   27   0.035   0.069   0.045
    1UNL    C25   28   0.310   0.057  -0.118
    1UNL    C26   29   0.416  -0.041  -0.156
    1UNL     N4   30   0.564  -0.009  -0.129
    1UNL    C27   31   0.617   0.111  -0.199
    1UNL    C28   32   0.678   0.214  -0.095
    1UNL    C29   33   0.799   0.142  -0.031
    1UNL    C30   34   0.752   0.003   0.022
    1UNL    C31   35   0.818  -0.108  -0.054
    1UNL    C32   36   0.969  -0.124  -0.027
    1UNL    C33   37   0.597  -0.002   0.015
    1UNL    C34   38   0.536   0.112   0.093
    1UNL    C35   39   0.577   0.243   0.025
    1UNL    C36   40  -0.258   0.140  -0.036
    1UNL    C37   41  -0.409   0.124  -0.034
    1UNL    C38   42  -0.449  -0.009  -0.098
    1UNL    C39   43  -0.499  -0.008  -0.239
    1UNL     O1   44  -0.459   0.078  -0.313
    1UNL     O2   45  -0.583  -0.114  -0.277
    1UNL    C40   46  -0.571  -0.130  -0.415
    1UNL     H1   47  -0.300   0.278  -0.237
    1UNL     H2   48  -0.309   0.437  -0.182
    1UNL     H3   49  -0.395   0.396  -0.343
    1UNL     H4   50  -0.577   0.386  -0.185
    1UNL     H5   51  -0.722   0.212  -0.104
    1UNL     H6   52  -0.667   0.245   0.057
    1UNL     H7   53  -0.781  -0.087   0.142
    1UNL     H8   54  -0.818   0.088   0.127
    1UNL     H9   55  -0.863  -0.026  -0.001
    1UNL    H10   56  -0.603  -0.155  -0.051
    1UNL    H11   57  -0.524  -0.019   0.202
    1UNL    H12   58  -0.578  -0.179   0.186
    1UNL    H13   59  -0.039  -0.191   0.078
    1UNL    H14   60  -0.014  -0.424   0.176
    1UNL    H15   61  -0.156  -0.617   0.247
    1UNL    H16   62  -0.379  -0.607   0.293
    1UNL    H17   63  -0.506  -0.387   0.242
    1UNL    H18   64  -0.274   0.093   0.184
    1UNL    H19   65  -0.129   0.071   0.333
    1UNL    H20   66   0.114   0.101   0.421
    1UNL    H21   67   0.377   0.122   0.335
    1UNL    H22   68   0.017   0.051  -0.054
    1UNL    H23   69   0.332   0.146  -0.165
    1UNL    H24   70   0.215   0.023  -0.162
    1UNL    H25   71   0.402  -0.135  -0.091
    1UNL    H26   72   0.404  -0.089  -0.249
    1UNL    H27   73   0.693   0.083  -0.271
    1UNL    H28   74   0.540   0.173  -0.247
    1UNL    H29   75   0.697   0.314  -0.139
    1UNL    H30   76   0.867   0.131  -0.110
    1UNL    H31   77   0.853   0.207   0.052
    1UNL    H32   78   0.779  -0.011   0.124
    1UNL    H33   79   0.796  -0.112  -0.165
    1UNL    H34   80   0.774  -0.204  -0.026
    1UNL    H35   81   0.978  -0.162   0.075
    1UNL    H36   82   0.997  -0.203  -0.093
    1UNL    H37   83   1.023  -0.036  -0.043
    1UNL    H38   84   0.562  -0.095   0.058
    1UNL    H39   85   0.582   0.115   0.194
    1UNL    H40   86   0.613   0.327   0.087
    1UNL    H41   87   0.484   0.294  -0.020
    1UNL    H42   88  -0.229   0.241  -0.043
    1UNL    H43   89  -0.210   0.104  -0.122
    1UNL    H44   90  -0.438   0.111   0.073
    1UNL    H45   91  -0.360  -0.069  -0.097
    1UNL    H46   92  -0.660  -0.183  -0.450
    1UNL    H47   93  -0.579  -0.026  -0.455
    1UNL    H48   94  -0.479  -0.176  -0.445
   0.00000   0.00000   0.00000   0.00000   0.00000   0.00000   0.00000   0.00000   0.00000
Generated with MDTraj, t= 47.0
 94
    1UNL     C1    1  -0.364   0.336  -0.236
    1UNL     C2    2  -0.483   0.323  -0.156
    1UNL     C3    3  -0.500   0.217  -0.077
    1UNL     C4    4  -0.629   0.189  -0.008
    1UNL     N1    5  -0.668   0.047  -0.002
    1UNL     C5    6  -0.788   0.037   0.095
    1UNL     C6    7  -0.560  -0.067  -0.002
    1UNL     C7    8  -0.501  -0.099   0.141
    1UNL     C8    9  -0.359  -0.153   0.134
    1UNL     C9   10  -0.237  -0.084   0.124
    1UNL     N2   11  -0.135  -0.185   0.122
    1UNL    C10   12  -0.189  -0.312   0.146
    1UNL    C11   13  -0.131  -0.436   0.176
    1UNL    C12   14  -0.211  -0.526   0.239
    1UNL    C13   15  -0.353  -0.510   0.235
    1UNL    C14   16  -0.416  -0.395   0.195
    1UNL    C15   17  -0.330  -0.290   0.160
    1UNL    C16   18  -0.210   0.063   0.112
    1UNL    C17   19  -0.065   0.088   0.153
    1UNL    C18   20  -0.038   0.110   0.290
    1UNL    C19   21   0.091   0.121   0.334
    1UNL    C20   22   0.198   0.101   0.243
    1UNL     N3   23   0.338   0.105   0.254
    1UNL    C21   24   0.394   0.100   0.121
    1UNL    C22   25   0.292   0.090   0.031
    1UNL    C23   26   0.173   0.092   0.106
    1UNL    C24   27   0.039   0.083   0.061
    1UNL    C25   28   0.310   0.080  -0.119
    1UNL    C26   29   0.411  -0.030  -0.155
    1UNL     N4   30   0.549   0.004  -0.121
    1UNL    C27   31   0.608   0.126  -0.196
    1UNL    C28   32   0.676   0.217  -0.099
    1UNL    C29   33   0.799   0.145  -0.040
    1UNL    C30   34   0.747   0.004   0.018
    1UNL    C31   35   0.809  -0.122  -0.050
    1UNL    C32   36   0.960  -0.141  -0.045
    1UNL    C33   37   0.594  -0.012   0.016
    1UNL    C34   38   0.539   0.105   0.098
    1UNL    C35   39   0.575   0.243   0.021
    1UNL    C36   40  -0.248   0.123  -0.027
    1UNL    C37   41  -0.401   0.104  -0.045
    1UNL    C38   42  -0.448  -0.034  -0.105
    1UNL    C39   43  -0.486  -0.039  -0.255
    1UNL     O1   44  -0.460   0.057  -0.323
    1UNL     O2   45  -0.561  -0.148  -0.292
    1UNL    C40   46  -0.609  -0.130  -0.422
    1UNL     H1   47  -0.332   0.243  -0.280
    1UNL     H2   48  -0.276   0.346  -0.160
    1UNL     H3   49  -0.370   0.424  -0.306
    1UNL     H4   50  -0.570   0.386  -0.177
    1UNL     H5   51  -0.708   0.234  -0.070
    1UNL     H6   52  -0.628   0.232   0.086
    1UNL     H7   53  -0.754   0.078   0.192
    1UNL     H8   54  -0.863   0.099   0.057
    1UNL     H9   55  -0.815  -0.067   0.116
    1UNL    H10   56  -0.609  -0.156  -0.037
    1UNL    H11   57  -0.502  -0.009   0.195
    1UNL    H12   58  -0.565  -0.171   0.194
    1UNL    H13   59  -0.040  -0.155   0.150
    1UNL    H14   60  -0.026  -0.436   0.181
    1UNL    H15   61  -0.163  -0.609   0.288
    1UNL    H16   62  -0.421  -0.595   0.248
    1UNL    H17   63  -0.522  -0.400   0.184
    1UNL    H18   64  -0.269   0.105   0.193
    1UNL    H19   65  -0.118   0.114   0.365
    1UNL    H20   66   0.104   0.135   0.444
    1UNL    H21   67   0.401   0.107   0.335
    1UNL    H22   68   0.018   0.068  -0.050
    1UNL    H23   69   0.338   0.168  -0.163
    1UNL    H24   70   0.220   0.046  -0.169
    1UNL    H25   71   0.380  -0.128  -0.108
    1UNL    H26   72   0.417  -0.058  -0.258
    1UNL    H27   73   0.690   0.100  -0.265
    1UNL    H28   74   0.537   0.183  -0.259
    1UNL    H29   75   0.698   0.317  -0.147
    1UNL    H30   76   0.873   0.140  -0.117
    1UNL    H31   77   0.840   0.211   0.045
    1UNL    H32   78   0.770   0.005   0.122
    1UNL    H33   79   0.774  -0.114  -0.158
    1UNL    H34   80   0.751  -0.213  -0.030
    1UNL    H35   81   1.002  -0.169   0.047
    1UNL    H36   82   0.987  -0.216  -0.114
    1UNL    H37   83   1.015  -0.047  -0.082
    1UNL    H38   84   0.565  -0.109   0.058
    1UNL    H39   85   0.591   0.101   0.196
    1UNL    H40   86   0.607   0.325   0.091
    1UNL    H41   87   0.479   0.285  -0.017
    1UNL    H42   88  -0.200   0.215  -0.048
    1UNL    H43   89  -0.197   0.068  -0.101
    1UNL    H44   90  -0.428   0.095   0.064
    1UNL    H45   91  -0.356  -0.093  -0.094
    1UNL    H46   92  -0.662  -0.218  -0.457
    1UNL    H47   93  -0.687  -0.048  -0.414
    1UNL    H48   94  -0.535  -0.092  -0.493
   0.00000   0.00000   0.00000   0.00000   0.00000   0.00000   0.00000   0.00000   0.00000
Generated with MDTraj, t= 48.0
 94
    1UNL     C1    1  -0.343   0.310  -0.250
    1UNL     C2    2  -0.472   0.306  -0.183
    1UNL     C3    3  -0.495   0.217  -0.087
    1UNL     C4    4  -0.634   0.190  -0.029
    1UNL     N1    5  -0.659   0.045  -0.008
    1UNL     C5    6  -0.784   0.006   0.068
    1UNL     C6    7  -0.551  -0.064   0.010
    1UNL     C7    8  -0.506  -0.088   0.156
    1UNL     C8    9  -0.366  -0.149   0.173
    1UNL     C9   10  -0.243  -0.089   0.149
    1UNL     N2   11  -0.143  -0.182   0.160
    1UNL    C10   12  -0.205  -0.308   0.177
    1UNL    C11   13  -0.145  -0.435   0.187
    1UNL    C12   14  -0.227  -0.547   0.179
    1UNL    C13   15  -0.364  -0.532   0.174
    1UNL    C14   16  -0.423  -0.401   0.165
    1UNL    C15   17  -0.341  -0.291   0.173
    1UNL    C16   18  -0.202   0.062   0.114
    1UNL    C17   19  -0.063   0.080   0.158
    1UNL    C18   20  -0.027   0.118   0.293
    1UNL    C19   21   0.104   0.138   0.332
    1UNL    C20   22   0.200   0.134   0.235
    1UNL     N3   23   0.336   0.142   0.242
    1UNL    C21   24   0.394   0.121   0.119
    1UNL    C22   25   0.294   0.090   0.030
    1UNL    C23   26   0.171   0.100   0.101
    1UNL    C24   27   0.038   0.066   0.063
    1UNL    C25   28   0.292   0.081  -0.117
    1UNL    C26   29   0.402  -0.020  -0.170
    1UNL     N4   30   0.543   0.015  -0.133
    1UNL    C27   31   0.597   0.146  -0.186
    1UNL    C28   32   0.685   0.217  -0.082
    1UNL    C29   33   0.808   0.122  -0.039
    1UNL    C30   34   0.748  -0.013   0.016
    1UNL    C31   35   0.806  -0.139  -0.061
    1UNL    C32   36   0.959  -0.145  -0.052
    1UNL    C33   37   0.591  -0.001   0.005
    1UNL    C34   38   0.545   0.112   0.100
    1UNL    C35   39   0.601   0.247   0.043
    1UNL    C36   40  -0.237   0.120  -0.022
    1UNL    C37   41  -0.397   0.114  -0.036
    1UNL    C38   42  -0.438  -0.027  -0.089
    1UNL    C39   43  -0.484  -0.033  -0.239
    1UNL     O1   44  -0.449   0.050  -0.321
    1UNL     O2   45  -0.580  -0.134  -0.260
    1UNL    C40   46  -0.617  -0.138  -0.397
    1UNL     H1   47  -0.307   0.216  -0.289
    1UNL     H2   48  -0.266   0.321  -0.168
    1UNL     H3   49  -0.333   0.397  -0.321
    1UNL     H4   50  -0.554   0.365  -0.218
    1UNL     H5   51  -0.710   0.236  -0.093
    1UNL     H6   52  -0.639   0.227   0.066
    1UNL     H7   53  -0.850   0.088   0.079
    1UNL     H8   54  -0.836  -0.066   0.002
    1UNL     H9   55  -0.763  -0.031   0.169
    1UNL    H10   56  -0.592  -0.160  -0.017
    1UNL    H11   57  -0.508   0.002   0.206
    1UNL    H12   58  -0.576  -0.156   0.201
    1UNL    H13   59  -0.054  -0.156   0.115
    1UNL    H14   60  -0.036  -0.447   0.209
    1UNL    H15   61  -0.178  -0.644   0.200
    1UNL    H16   62  -0.425  -0.620   0.179
    1UNL    H17   63  -0.530  -0.386   0.144
    1UNL    H18   64  -0.263   0.119   0.186
    1UNL    H19   65  -0.106   0.121   0.367
    1UNL    H20   66   0.140   0.143   0.431
    1UNL    H21   67   0.381   0.174   0.329
    1UNL    H22   68   0.012   0.039  -0.037
    1UNL    H23   69   0.305   0.171  -0.170
    1UNL    H24   70   0.199   0.046  -0.149
    1UNL    H25   71   0.391  -0.117  -0.122
    1UNL    H26   72   0.393  -0.045  -0.275
    1UNL    H27   73   0.662   0.129  -0.276
    1UNL    H28   74   0.522   0.212  -0.232
    1UNL    H29   75   0.733   0.305  -0.134
    1UNL    H30   76   0.867   0.091  -0.124
    1UNL    H31   77   0.865   0.188   0.027
    1UNL    H32   78   0.774  -0.021   0.118
    1UNL    H33   79   0.765  -0.152  -0.165
    1UNL    H34   80   0.761  -0.228  -0.018
    1UNL    H35   81   0.991  -0.132   0.046
    1UNL    H36   82   0.998  -0.238  -0.088
    1UNL    H37   83   1.006  -0.058  -0.114
    1UNL    H38   84   0.557  -0.096   0.048
    1UNL    H39   85   0.595   0.084   0.195
    1UNL    H40   86   0.663   0.302   0.121
    1UNL    H41   87   0.517   0.311   0.017
    1UNL    H42   88  -0.192   0.215  -0.029
    1UNL    H43   89  -0.188   0.076  -0.106
    1UNL    H44   90  -0.424   0.111   0.074
    1UNL    H45   91  -0.357  -0.103  -0.076
    1UNL    H46   92  -0.619  -0.239  -0.434
    1UNL    H47   93  -0.723  -0.098  -0.409
    1UNL    H48   94  -0.558  -0.071  -0.462
   0.00000   0.00000   0.00000   0.00000   0.00000   0.00000   0.00000   0.00000   0.00000
Generated with MDTraj, t= 49.0
 94
    1UNL     C1    1  -0.336   0.309  -0.254
    1UNL     C2    2  -0.464   0.292  -0.185
    1UNL     C3    3  -0.495   0.202  -0.092
    1UNL     C4    4  -0.634   0.184  -0.051
    1UNL     N1    5  -0.663   0.051   0.025
    1UNL     C5    6  -0.801   0.004   0.012
    1UNL     C6    7  -0.566  -0.071   0.026
    1UNL     C7    8  -0.516  -0.100   0.170
    1UNL     C8    9  -0.370  -0.149   0.180
    1UNL     C9   10  -0.247  -0.080   0.169
    1UNL     N2   11  -0.153  -0.178   0.160
    1UNL    C10   12  -0.203  -0.305   0.162
    1UNL    C11   13  -0.157  -0.436   0.157
    1UNL    C12   14  -0.247  -0.549   0.151
    1UNL    C13   15  -0.384  -0.526   0.141
    1UNL    C14   16  -0.429  -0.397   0.148
    1UNL    C15   17  -0.344  -0.289   0.166
    1UNL    C16   18  -0.212   0.069   0.139
    1UNL    C17   19  -0.064   0.095   0.164
    1UNL    C18   20  -0.021   0.134   0.290
    1UNL    C19   21   0.108   0.152   0.334
    1UNL    C20   22   0.217   0.141   0.238
    1UNL     N3   23   0.355   0.147   0.244
    1UNL    C21   24   0.402   0.122   0.118
    1UNL    C22   25   0.294   0.091   0.034
    1UNL    C23   26   0.174   0.102   0.105
    1UNL    C24   27   0.037   0.079   0.071
    1UNL    C25   28   0.299   0.072  -0.119
    1UNL    C26   29   0.411  -0.016  -0.172
    1UNL     N4   30   0.549   0.027  -0.134
    1UNL    C27   31   0.610   0.151  -0.192
    1UNL    C28   32   0.693   0.223  -0.085
    1UNL    C29   33   0.812   0.127  -0.040
    1UNL    C30   34   0.756  -0.011   0.013
    1UNL    C31   35   0.796  -0.132  -0.073
    1UNL    C32   36   0.938  -0.178  -0.051
    1UNL    C33   37   0.598   0.007   0.009
    1UNL    C34   38   0.550   0.125   0.092
    1UNL    C35   39   0.610   0.260   0.035
    1UNL    C36   40  -0.249   0.121   0.001
    1UNL    C37   41  -0.401   0.104  -0.019
    1UNL    C38   42  -0.447  -0.036  -0.068
    1UNL    C39   43  -0.480  -0.056  -0.218
    1UNL     O1   44  -0.400  -0.006  -0.295
    1UNL     O2   45  -0.590  -0.127  -0.244
    1UNL    C40   46  -0.615  -0.124  -0.380
    1UNL     H1   47  -0.258   0.244  -0.214
    1UNL     H2   48  -0.291   0.406  -0.224
    1UNL     H3   49  -0.340   0.299  -0.367
    1UNL     H4   50  -0.544   0.351  -0.229
    1UNL     H5   51  -0.699   0.185  -0.140
    1UNL     H6   52  -0.659   0.268   0.005
    1UNL     H7   53  -0.804  -0.080  -0.052
    1UNL     H8   54  -0.841  -0.039   0.109
    1UNL     H9   55  -0.866   0.080  -0.024
    1UNL    H10   56  -0.620  -0.156  -0.015
    1UNL    H11   57  -0.532  -0.016   0.229
    1UNL    H12   58  -0.576  -0.175   0.209
    1UNL    H13   59  -0.052  -0.171   0.161
    1UNL    H14   60  -0.053  -0.446   0.141
    1UNL    H15   61  -0.214  -0.648   0.148
    1UNL    H16   62  -0.454  -0.608   0.127
    1UNL    H17   63  -0.531  -0.385   0.126
    1UNL    H18   64  -0.270   0.125   0.215
    1UNL    H19   65  -0.096   0.134   0.366
    1UNL    H20   66   0.135   0.171   0.436
    1UNL    H21   67   0.397   0.153   0.338
    1UNL    H22   68   0.016   0.047  -0.024
    1UNL    H23   69   0.312   0.173  -0.154
    1UNL    H24   70   0.212   0.039  -0.162
    1UNL    H25   71   0.391  -0.115  -0.138
    1UNL    H26   72   0.416  -0.035  -0.281
    1UNL    H27   73   0.655   0.128  -0.293
    1UNL    H28   74   0.539   0.232  -0.221
    1UNL    H29   75   0.748   0.308  -0.137
    1UNL    H30   76   0.869   0.107  -0.134
    1UNL    H31   77   0.879   0.164   0.028
    1UNL    H32   78   0.789  -0.027   0.113
    1UNL    H33   79   0.779  -0.112  -0.183
    1UNL    H34   80   0.732  -0.218  -0.051
    1UNL    H35   81   0.961  -0.208   0.049
    1UNL    H36   82   0.944  -0.266  -0.115
    1UNL    H37   83   1.006  -0.097  -0.089
    1UNL    H38   84   0.544  -0.081   0.045
    1UNL    H39   85   0.588   0.109   0.193
    1UNL    H40   86   0.672   0.313   0.115
    1UNL    H41   87   0.530   0.324   0.001
    1UNL    H42   88  -0.221   0.220  -0.018
    1UNL    H43   89  -0.197   0.070  -0.078
    1UNL    H44   90  -0.449   0.116   0.088
    1UNL    H45   91  -0.359  -0.106  -0.048
    1UNL    H46   92  -0.707  -0.174  -0.399
    1UNL    H47   93  -0.621  -0.016  -0.416
    1UNL    H48   94  -0.537  -0.166  -0.445
   0.00000   0.00000   0.00000   0.00000   0.00000   0.00000   0.00000   0.00000   0.00000
Generated with MDTraj, t= 50.0
 94
    1UNL     C1    1  -0.315   0.293  -0.251
    1UNL     C2    2  -0.456   0.274  -0.200
    1UNL     C3    3  -0.496   0.194  -0.102
    1UNL     C4    4  -0.640   0.172  -0.059
    1UNL     N1    5  -0.661   0.027   0.002
    1UNL     C5    6  -0.798  -0.018  -0.009
    1UNL     C6    7  -0.555  -0.078   0.038
    1UNL     C7    8  -0.504  -0.085   0.186
    1UNL     C8    9  -0.359  -0.137   0.194
    1UNL     C9   10  -0.235  -0.076   0.165
    1UNL     N2   11  -0.146  -0.176   0.137
    1UNL    C10   12  -0.205  -0.300   0.138
    1UNL    C11   13  -0.163  -0.433   0.100
    1UNL    C12   14  -0.252  -0.533   0.118
    1UNL    C13   15  -0.392  -0.499   0.144
    1UNL    C14   16  -0.433  -0.378   0.183
    1UNL    C15   17  -0.336  -0.275   0.178
    1UNL    C16   18  -0.203   0.071   0.146
    1UNL    C17   19  -0.059   0.095   0.172
    1UNL    C18   20  -0.020   0.118   0.307
    1UNL    C19   21   0.109   0.143   0.339
    1UNL    C20   22   0.209   0.130   0.239
    1UNL     N3   23   0.345   0.151   0.254
    1UNL    C21   24   0.397   0.122   0.128
    1UNL    C22   25   0.297   0.104   0.034
    1UNL    C23   26   0.173   0.097   0.108
    1UNL    C24   27   0.035   0.081   0.075
    1UNL    C25   28   0.306   0.099  -0.115
    1UNL    C26   29   0.396  -0.006  -0.171
    1UNL     N4   30   0.537   0.011  -0.133
    1UNL    C27   31   0.602   0.135  -0.198
    1UNL    C28   32   0.685   0.218  -0.105
    1UNL    C29   33   0.799   0.129  -0.037
    1UNL    C30   34   0.741  -0.009   0.012
    1UNL    C31   35   0.790  -0.123  -0.072
    1UNL    C32   36   0.934  -0.172  -0.046
    1UNL    C33   37   0.585  -0.003   0.009
    1UNL    C34   38   0.543   0.119   0.095
    1UNL    C35   39   0.589   0.254   0.015
    1UNL    C36   40  -0.251   0.126   0.005
    1UNL    C37   41  -0.404   0.109  -0.023
    1UNL    C38   42  -0.435  -0.038  -0.055
    1UNL    C39   43  -0.467  -0.053  -0.195
    1UNL     O1   44  -0.370  -0.064  -0.267
    1UNL     O2   45  -0.600  -0.073  -0.237
    1UNL    C40   46  -0.601  -0.114  -0.368
    1UNL     H1   47  -0.269   0.207  -0.311
    1UNL     H2   48  -0.246   0.308  -0.170
    1UNL     H3   49  -0.306   0.385  -0.317
    1UNL     H4   50  -0.533   0.319  -0.259
    1UNL     H5   51  -0.705   0.187  -0.144
    1UNL     H6   52  -0.673   0.248   0.013
    1UNL     H7   53  -0.813  -0.075  -0.098
    1UNL     H8   54  -0.831  -0.091   0.072
    1UNL     H9   55  -0.864   0.065  -0.014
    1UNL    H10   56  -0.605  -0.172   0.009
    1UNL    H11   57  -0.511   0.009   0.233
    1UNL    H12   58  -0.563  -0.138   0.250
    1UNL    H13   59  -0.052  -0.165   0.108
    1UNL    H14   60  -0.071  -0.449   0.043
    1UNL    H15   61  -0.216  -0.635   0.090
    1UNL    H16   62  -0.463  -0.577   0.135
    1UNL    H17   63  -0.532  -0.356   0.223
    1UNL    H18   64  -0.267   0.122   0.222
    1UNL    H19   65  -0.095   0.121   0.389
    1UNL    H20   66   0.138   0.169   0.443
    1UNL    H21   67   0.396   0.185   0.337
    1UNL    H22   68  -0.011   0.045  -0.025
    1UNL    H23   69   0.350   0.192  -0.147
    1UNL    H24   70   0.209   0.102  -0.150
    1UNL    H25   71   0.375  -0.106  -0.145
    1UNL    H26   72   0.387  -0.010  -0.283
    1UNL    H27   73   0.670   0.104  -0.283
    1UNL    H28   74   0.524   0.189  -0.256
    1UNL    H29   75   0.727   0.317  -0.145
    1UNL    H30   76   0.886   0.111  -0.105
    1UNL    H31   77   0.828   0.181   0.045
    1UNL    H32   78   0.782  -0.031   0.107
    1UNL    H33   79   0.778  -0.091  -0.178
    1UNL    H34   80   0.717  -0.204  -0.053
    1UNL    H35   81   0.957  -0.232   0.046
    1UNL    H36   82   0.962  -0.242  -0.127
    1UNL    H37   83   1.008  -0.099  -0.048
    1UNL    H38   84   0.544  -0.097   0.049
    1UNL    H39   85   0.594   0.103   0.190
    1UNL    H40   86   0.636   0.326   0.092
    1UNL    H41   87   0.501   0.300  -0.024
    1UNL    H42   88  -0.216   0.225   0.000
    1UNL    H43   89  -0.205   0.076  -0.081
    1UNL    H44   90  -0.447   0.134   0.087
    1UNL    H45   91  -0.346  -0.110  -0.036
    1UNL    H46   92  -0.692  -0.084  -0.408
    1UNL    H47   93  -0.513  -0.074  -0.428
    1UNL    H48   94  -0.600  -0.222  -0.380
   0.00000   0.00000   0.00000   0.00000   0.00000   0.00000   0.00000   0.00000   0.00000
Generated with MDTraj, t= 51.0
 94
    1UNL     C1    1  -0.336   0.278  -0.284
    1UNL     C2    2  -0.466   0.285  -0.210
    1UNL     C3    3  -0.493   0.199  -0.111
    1UNL     C4    4  -0.629   0.167  -0.052
    1UNL     N1    5  -0.644   0.025   0.006
    1UNL     C5    6  -0.782  -0.031   0.007
    1UNL     C6    7  -0.540  -0.074   0.039
    1UNL     C7    8  -0.492  -0.077   0.189
    1UNL     C8    9  -0.358  -0.137   0.209
    1UNL     C9   10  -0.236  -0.076   0.171
    1UNL     N2   11  -0.146  -0.168   0.120
    1UNL    C10   12  -0.210  -0.293   0.127
    1UNL    C11   13  -0.174  -0.418   0.083
    1UNL    C12   14  -0.260  -0.522   0.097
    1UNL    C13   15  -0.388  -0.507   0.161
    1UNL    C14   16  -0.432  -0.384   0.192
    1UNL    C15   17  -0.339  -0.275   0.180
    1UNL    C16   18  -0.205   0.068   0.155
    1UNL    C17   19  -0.064   0.101   0.183
    1UNL    C18   20  -0.023   0.101   0.321
    1UNL    C19   21   0.106   0.115   0.357
    1UNL    C20   22   0.205   0.119   0.257
    1UNL     N3   23   0.342   0.129   0.252
    1UNL    C21   24   0.394   0.123   0.122
    1UNL    C22   25   0.287   0.114   0.037
    1UNL    C23   26   0.168   0.118   0.119
    1UNL    C24   27   0.033   0.117   0.087
    1UNL    C25   28   0.290   0.107  -0.109
    1UNL    C26   29   0.387  -0.014  -0.149
    1UNL     N4   30   0.533   0.003  -0.134
    1UNL    C27   31   0.593   0.126  -0.208
    1UNL    C28   32   0.675   0.210  -0.115
    1UNL    C29   33   0.786   0.125  -0.057
    1UNL    C30   34   0.736  -0.003   0.011
    1UNL    C31   35   0.785  -0.138  -0.054
    1UNL    C32   36   0.939  -0.153  -0.048
    1UNL    C33   37   0.580  -0.001   0.007
    1UNL    C34   38   0.538   0.125   0.087
    1UNL    C35   39   0.588   0.257   0.007
    1UNL    C36   40  -0.242   0.122   0.006
    1UNL    C37   41  -0.393   0.116  -0.030
    1UNL    C38   42  -0.424  -0.034  -0.053
    1UNL    C39   43  -0.454  -0.065  -0.201
    1UNL     O1   44  -0.360  -0.109  -0.266
    1UNL     O2   45  -0.579  -0.053  -0.246
    1UNL    C40   46  -0.587  -0.080  -0.381
    1UNL     H1   47  -0.323   0.183  -0.347
    1UNL     H2   48  -0.257   0.282  -0.212
    1UNL     H3   49  -0.324   0.357  -0.364
    1UNL     H4   50  -0.541   0.347  -0.256
    1UNL     H5   51  -0.707   0.191  -0.120
    1UNL     H6   52  -0.645   0.239   0.036
    1UNL     H7   53  -0.798  -0.105  -0.070
    1UNL     H8   54  -0.802  -0.090   0.098
    1UNL     H9   55  -0.855   0.047  -0.007
    1UNL    H10   56  -0.583  -0.170   0.003
    1UNL    H11   57  -0.485   0.017   0.232
    1UNL    H12   58  -0.560  -0.132   0.245
    1UNL    H13   59  -0.080  -0.141   0.052
    1UNL    H14   60  -0.075  -0.424   0.043
    1UNL    H15   61  -0.234  -0.618   0.063
    1UNL    H16   62  -0.438  -0.604   0.181
    1UNL    H17   63  -0.517  -0.366   0.259
    1UNL    H18   64  -0.269   0.124   0.229
    1UNL    H19   65  -0.095   0.097   0.396
    1UNL    H20   66   0.131   0.114   0.458
    1UNL    H21   67   0.406   0.142   0.331
    1UNL    H22   68  -0.002   0.106  -0.012
    1UNL    H23   69   0.320   0.204  -0.143
    1UNL    H24   70   0.187   0.090  -0.143
    1UNL    H25   71   0.352  -0.100  -0.100
    1UNL    H26   72   0.377  -0.037  -0.259
    1UNL    H27   73   0.655   0.090  -0.296
    1UNL    H28   74   0.506   0.167  -0.268
    1UNL    H29   75   0.708   0.306  -0.169
    1UNL    H30   76   0.857   0.106  -0.139
    1UNL    H31   77   0.837   0.180   0.017
    1UNL    H32   78   0.769  -0.002   0.113
    1UNL    H33   79   0.753  -0.136  -0.160
    1UNL    H34   80   0.740  -0.222   0.007
    1UNL    H35   81   0.981  -0.130   0.054
    1UNL    H36   82   0.975  -0.255  -0.073
    1UNL    H37   83   0.983  -0.087  -0.109
    1UNL    H38   84   0.537  -0.085   0.065
    1UNL    H39   85   0.596   0.123   0.178
    1UNL    H40   86   0.644   0.335   0.071
    1UNL    H41   87   0.498   0.301  -0.030
    1UNL    H42   88  -0.220   0.225   0.021
    1UNL    H43   89  -0.184   0.078  -0.076
    1UNL    H44   90  -0.431   0.154   0.079
    1UNL    H45   91  -0.330  -0.100  -0.033
    1UNL    H46   92  -0.686  -0.092  -0.408
    1UNL    H47   93  -0.534  -0.001  -0.442
    1UNL    H48   94  -0.537  -0.174  -0.406
   0.00000   0.00000   0.00000   0.00000   0.00000   0.00000   0.00000   0.00000   0.00000
Generated with MDTraj, t= 52.0
 94
    1UNL     C1    1  -0.342   0.248  -0.264
    1UNL     C2    2  -0.478   0.252  -0.212
    1UNL     C3    3  -0.504   0.187  -0.099
    1UNL     C4    4  -0.638   0.171  -0.040
    1UNL     N1    5  -0.663   0.039   0.025
    1UNL     C5    6  -0.807  -0.001   0.018
    1UNL     C6    7  -0.557  -0.070   0.036
    1UNL     C7    8  -0.501  -0.080   0.182
    1UNL     C8    9  -0.362  -0.135   0.191
    1UNL     C9   10  -0.245  -0.072   0.159
    1UNL     N2   11  -0.145  -0.164   0.124
    1UNL    C10   12  -0.202  -0.292   0.136
    1UNL    C11   13  -0.151  -0.419   0.114
    1UNL    C12   14  -0.237  -0.527   0.122
    1UNL    C13   15  -0.374  -0.506   0.143
    1UNL    C14   16  -0.423  -0.380   0.165
    1UNL    C15   17  -0.335  -0.275   0.179
    1UNL    C16   18  -0.210   0.069   0.136
    1UNL    C17   19  -0.058   0.096   0.175
    1UNL    C18   20  -0.015   0.097   0.305
    1UNL    C19   21   0.113   0.108   0.355
    1UNL    C20   22   0.214   0.115   0.252
    1UNL     N3   23   0.356   0.122   0.256
    1UNL    C21   24   0.398   0.141   0.132
    1UNL    C22   25   0.291   0.120   0.048
    1UNL    C23   26   0.171   0.110   0.121
    1UNL    C24   27   0.040   0.105   0.077
    1UNL    C25   28   0.300   0.106  -0.101
    1UNL    C26   29   0.378  -0.030  -0.135
    1UNL     N4   30   0.521   0.000  -0.124
    1UNL    C27   31   0.583   0.116  -0.205
    1UNL    C28   32   0.670   0.207  -0.120
    1UNL    C29   33   0.795   0.121  -0.071
    1UNL    C30   34   0.734  -0.002   0.003
    1UNL    C31   35   0.784  -0.139  -0.055
    1UNL    C32   36   0.933  -0.148  -0.050
    1UNL    C33   37   0.578   0.010   0.016
    1UNL    C34   38   0.547   0.137   0.098
    1UNL    C35   39   0.593   0.257   0.005
    1UNL    C36   40  -0.252   0.121  -0.004
    1UNL    C37   41  -0.405   0.107  -0.022
    1UNL    C38   42  -0.437  -0.040  -0.056
    1UNL    C39   43  -0.456  -0.066  -0.204
    1UNL     O1   44  -0.354  -0.097  -0.265
    1UNL     O2   45  -0.575  -0.043  -0.264
    1UNL    C40   46  -0.567  -0.049  -0.406
    1UNL     H1   47  -0.292   0.150  -0.236
    1UNL     H2   48  -0.287   0.327  -0.212
    1UNL     H3   49  -0.335   0.244  -0.377
    1UNL     H4   50  -0.549   0.306  -0.274
    1UNL     H5   51  -0.712   0.191  -0.112
    1UNL     H6   52  -0.641   0.257   0.038
    1UNL     H7   53  -0.819  -0.110   0.034
    1UNL     H8   54  -0.855   0.034   0.104
    1UNL     H9   55  -0.855   0.035  -0.075
    1UNL    H10   56  -0.596  -0.172   0.010
    1UNL    H11   57  -0.506   0.008   0.235
    1UNL    H12   58  -0.552  -0.157   0.235
    1UNL    H13   59  -0.048  -0.151   0.112
    1UNL    H14   60  -0.047  -0.436   0.099
    1UNL    H15   61  -0.195  -0.627   0.101
    1UNL    H16   62  -0.438  -0.590   0.149
    1UNL    H17   63  -0.527  -0.360   0.171
    1UNL    H18   64  -0.269   0.133   0.208
    1UNL    H19   65  -0.099   0.081   0.378
    1UNL    H20   66   0.150   0.129   0.458
    1UNL    H21   67   0.412   0.122   0.343
    1UNL    H22   68   0.019   0.095  -0.023
    1UNL    H23   69   0.346   0.195  -0.141
    1UNL    H24   70   0.195   0.103  -0.152
    1UNL    H25   71   0.353  -0.100  -0.060
    1UNL    H26   72   0.342  -0.065  -0.237
    1UNL    H27   73   0.614   0.077  -0.307
    1UNL    H28   74   0.498   0.183  -0.239
    1UNL    H29   75   0.706   0.299  -0.179
    1UNL    H30   76   0.845   0.083  -0.158
    1UNL    H31   77   0.868   0.177  -0.015
    1UNL    H32   78   0.771   0.003   0.103
    1UNL    H33   79   0.759  -0.143  -0.163
    1UNL    H34   80   0.746  -0.226   0.008
    1UNL    H35   81   0.964  -0.142   0.056
    1UNL    H36   82   0.975  -0.238  -0.094
    1UNL    H37   83   0.973  -0.058  -0.098
    1UNL    H38   84   0.532  -0.076   0.068
    1UNL    H39   85   0.606   0.145   0.188
    1UNL    H40   86   0.664   0.328   0.058
    1UNL    H41   87   0.510   0.319  -0.027
    1UNL    H42   88  -0.227   0.224  -0.015
    1UNL    H43   89  -0.200   0.051  -0.073
    1UNL    H44   90  -0.449   0.128   0.088
    1UNL    H45   91  -0.357  -0.119  -0.033
    1UNL    H46   92  -0.664  -0.035  -0.440
    1UNL    H47   93  -0.495   0.025  -0.452
    1UNL    H48   94  -0.537  -0.151  -0.435
   0.00000   0.00000   0.00000   0.00000   0.00000   0.00000   0.00000   0.00000   0.00000
Generated with MDTraj, t= 53.0
 94
    1UNL     C1    1  -0.343   0.259  -0.276
    1UNL     C2    2  -0.470   0.271  -0.203
    1UNL     C3    3  -0.492   0.207  -0.088
    1UNL     C4    4  -0.638   0.186  -0.043
    1UNL     N1    5  -0.653   0.052   0.018
    1UNL     C5    6  -0.793   0.011   0.030
    1UNL     C6    7  -0.553  -0.069   0.022
    1UNL     C7    8  -0.508  -0.107   0.163
    1UNL     C8    9  -0.369  -0.153   0.177
    1UNL     C9   10  -0.250  -0.080   0.175
    1UNL     N2   11  -0.150  -0.177   0.185
    1UNL    C10   12  -0.198  -0.308   0.169
    1UNL    C11   13  -0.136  -0.433   0.158
    1UNL    C12   14  -0.215  -0.548   0.147
    1UNL    C13   15  -0.351  -0.531   0.139
    1UNL    C14   16  -0.413  -0.406   0.157
    1UNL    C15   17  -0.334  -0.294   0.183
    1UNL    C16   18  -0.219   0.069   0.149
    1UNL    C17   19  -0.069   0.085   0.183
    1UNL    C18   20  -0.024   0.100   0.318
    1UNL    C19   21   0.105   0.139   0.346
    1UNL    C20   22   0.200   0.144   0.243
    1UNL     N3   23   0.340   0.144   0.245
    1UNL    C21   24   0.390   0.114   0.117
    1UNL    C22   25   0.284   0.108   0.027
    1UNL    C23   26   0.164   0.113   0.105
    1UNL    C24   27   0.027   0.093   0.080
    1UNL    C25   28   0.299   0.093  -0.120
    1UNL    C26   29   0.392  -0.020  -0.162
    1UNL     N4   30   0.534   0.006  -0.137
    1UNL    C27   31   0.612   0.118  -0.211
    1UNL    C28   32   0.676   0.215  -0.109
    1UNL    C29   33   0.795   0.125  -0.038
    1UNL    C30   34   0.735  -0.010   0.020
    1UNL    C31   35   0.787  -0.130  -0.064
    1UNL    C32   36   0.936  -0.167  -0.050
    1UNL    C33   37   0.579   0.002   0.011
    1UNL    C34   38   0.538   0.130   0.082
    1UNL    C35   39   0.578   0.254  -0.000
    1UNL    C36   40  -0.255   0.123   0.010
    1UNL    C37   41  -0.404   0.104  -0.024
    1UNL    C38   42  -0.431  -0.042  -0.070
    1UNL    C39   43  -0.453  -0.049  -0.219
    1UNL     O1   44  -0.354  -0.054  -0.293
    1UNL     O2   45  -0.585  -0.031  -0.262
    1UNL    C40   46  -0.600  -0.048  -0.402
    1UNL     H1   47  -0.337   0.165  -0.335
    1UNL     H2   48  -0.263   0.258  -0.196
    1UNL     H3   49  -0.322   0.334  -0.356
    1UNL     H4   50  -0.553   0.312  -0.258
    1UNL     H5   51  -0.693   0.196  -0.135
    1UNL     H6   52  -0.671   0.270   0.027
    1UNL     H7   53  -0.824   0.040   0.132
    1UNL     H8   54  -0.854   0.070  -0.030
    1UNL     H9   55  -0.807  -0.097  -0.001
    1UNL    H10   56  -0.609  -0.150  -0.032
    1UNL    H11   57  -0.517  -0.026   0.226
    1UNL    H12   58  -0.577  -0.181   0.205
    1UNL    H13   59  -0.053  -0.160   0.168
    1UNL    H14   60  -0.025  -0.442   0.144
    1UNL    H15   61  -0.165  -0.640   0.128
    1UNL    H16   62  -0.426  -0.608   0.108
    1UNL    H17   63  -0.518  -0.396   0.126
    1UNL    H18   64  -0.274   0.146   0.211
    1UNL    H19   65  -0.091   0.098   0.398
    1UNL    H20   66   0.136   0.172   0.441
    1UNL    H21   67   0.403   0.151   0.326
    1UNL    H22   68  -0.006   0.078  -0.029
    1UNL    H23   69   0.333   0.187  -0.167
    1UNL    H24   70   0.189   0.080  -0.161
    1UNL    H25   71   0.354  -0.097  -0.100
    1UNL    H26   72   0.377  -0.042  -0.273
    1UNL    H27   73   0.685   0.080  -0.289
    1UNL    H28   74   0.535   0.165  -0.281
    1UNL    H29   75   0.734   0.303  -0.153
    1UNL    H30   76   0.879   0.112  -0.097
    1UNL    H31   77   0.832   0.182   0.050
    1UNL    H32   78   0.766  -0.024   0.123
    1UNL    H33   79   0.770  -0.102  -0.168
    1UNL    H34   80   0.717  -0.219  -0.039
    1UNL    H35   81   0.961  -0.186   0.053
    1UNL    H36   82   0.980  -0.251  -0.099
    1UNL    H37   83   1.010  -0.076  -0.072
    1UNL    H38   84   0.531  -0.087   0.056
    1UNL    H39   85   0.601   0.133   0.171
    1UNL    H40   86   0.611   0.337   0.066
    1UNL    H41   87   0.489   0.288  -0.058
    1UNL    H42   88  -0.229   0.228   0.018
    1UNL    H43   89  -0.201   0.061  -0.067
    1UNL    H44   90  -0.449   0.118   0.085
    1UNL    H45   91  -0.343  -0.107  -0.045
    1UNL    H46   92  -0.701  -0.028  -0.426
    1UNL    H47   93  -0.529   0.016  -0.463
    1UNL    H48   94  -0.578  -0.155  -0.417
   0.00000   0.00000   0.00000   0.00000   0.00000   0.00000   0.00000   0.00000   0.00000
Generated with MDTraj, t= 54.0
 94
    1UNL     C1    1  -0.314   0.302  -0.235
    1UNL     C2    2  -0.450   0.299  -0.181
    1UNL     C3    3  -0.489   0.205  -0.097
    1UNL     C4    4  -0.635   0.177  -0.063
    1UNL     N1    5  -0.651   0.048   0.009
    1UNL     C5    6  -0.794   0.002   0.040
    1UNL     C6    7  -0.552  -0.075   0.012
    1UNL     C7    8  -0.503  -0.104   0.157
    1UNL     C8    9  -0.360  -0.163   0.157
    1UNL     C9   10  -0.236  -0.096   0.155
    1UNL     N2   11  -0.128  -0.183   0.168
    1UNL    C10   12  -0.182  -0.309   0.168
    1UNL    C11   13  -0.127  -0.436   0.204
    1UNL    C12   14  -0.210  -0.549   0.200
    1UNL    C13   15  -0.348  -0.538   0.174
    1UNL    C14   16  -0.404  -0.417   0.135
    1UNL    C15   17  -0.327  -0.302   0.149
    1UNL    C16   18  -0.207   0.055   0.137
    1UNL    C17   19  -0.065   0.084   0.165
    1UNL    C18   20  -0.028   0.130   0.295
    1UNL    C19   21   0.099   0.164   0.327
    1UNL    C20   22   0.195   0.140   0.231
    1UNL     N3   23   0.334   0.150   0.242
    1UNL    C21   24   0.383   0.117   0.116
    1UNL    C22   25   0.281   0.079   0.031
    1UNL    C23   26   0.163   0.079   0.112
    1UNL    C24   27   0.031   0.053   0.077
    1UNL    C25   28   0.284   0.071  -0.114
    1UNL    C26   29   0.394  -0.016  -0.170
    1UNL     N4   30   0.532   0.022  -0.130
    1UNL    C27   31   0.595   0.142  -0.199
    1UNL    C28   32   0.680   0.222  -0.104
    1UNL    C29   33   0.794   0.123  -0.048
    1UNL    C30   34   0.735  -0.009   0.009
    1UNL    C31   35   0.782  -0.139  -0.051
    1UNL    C32   36   0.931  -0.172  -0.035
    1UNL    C33   37   0.581  -0.005   0.006
    1UNL    C34   38   0.531   0.123   0.086
    1UNL    C35   39   0.589   0.255   0.013
    1UNL    C36   40  -0.249   0.121   0.000
    1UNL    C37   41  -0.398   0.104  -0.026
    1UNL    C38   42  -0.435  -0.040  -0.077
    1UNL    C39   43  -0.478  -0.032  -0.223
    1UNL     O1   44  -0.389  -0.006  -0.302
    1UNL     O2   45  -0.606  -0.054  -0.261
    1UNL    C40   46  -0.625  -0.040  -0.400
    1UNL     H1   47  -0.279   0.200  -0.258
    1UNL     H2   48  -0.245   0.346  -0.151
    1UNL     H3   49  -0.302   0.344  -0.338
    1UNL     H4   50  -0.524   0.370  -0.219
    1UNL     H5   51  -0.695   0.178  -0.155
    1UNL     H6   52  -0.662   0.263   0.006
    1UNL     H7   53  -0.868   0.072   0.002
    1UNL     H8   54  -0.807  -0.092  -0.011
    1UNL     H9   55  -0.802  -0.026   0.147
    1UNL    H10   56  -0.601  -0.168  -0.032
    1UNL    H11   57  -0.508  -0.016   0.219
    1UNL    H12   58  -0.576  -0.172   0.200
    1UNL    H13   59  -0.027  -0.165   0.164
    1UNL    H14   60  -0.024  -0.446   0.211
    1UNL    H15   61  -0.173  -0.649   0.222
    1UNL    H16   62  -0.408  -0.622   0.202
    1UNL    H17   63  -0.507  -0.400   0.115
    1UNL    H18   64  -0.273   0.118   0.205
    1UNL    H19   65  -0.112   0.154   0.363
    1UNL    H20   66   0.121   0.190   0.430
    1UNL    H21   67   0.385   0.200   0.316
    1UNL    H22   68   0.000   0.017  -0.019
    1UNL    H23   69   0.297   0.182  -0.144
    1UNL    H24   70   0.180   0.052  -0.163
    1UNL    H25   71   0.384  -0.118  -0.142
    1UNL    H26   72   0.376  -0.009  -0.284
    1UNL    H27   73   0.654   0.103  -0.288
    1UNL    H28   74   0.506   0.189  -0.255
    1UNL    H29   75   0.722   0.321  -0.144
    1UNL    H30   76   0.860   0.109  -0.125
    1UNL    H31   77   0.849   0.172   0.036
    1UNL    H32   78   0.758   0.000   0.114
    1UNL    H33   79   0.754  -0.133  -0.157
    1UNL    H34   80   0.716  -0.228  -0.012
    1UNL    H35   81   0.949  -0.183   0.071
    1UNL    H36   82   0.968  -0.263  -0.082
    1UNL    H37   83   0.996  -0.080  -0.066
    1UNL    H38   84   0.539  -0.100   0.044
    1UNL    H39   85   0.578   0.109   0.184
    1UNL    H40   86   0.653   0.315   0.078
    1UNL    H41   87   0.499   0.316  -0.021
    1UNL    H42   88  -0.223   0.228   0.015
    1UNL    H43   89  -0.191   0.066  -0.077
    1UNL    H44   90  -0.438   0.121   0.084
    1UNL    H45   91  -0.350  -0.107  -0.065
    1UNL    H46   92  -0.725  -0.079  -0.412
    1UNL    H47   93  -0.620   0.066  -0.438
    1UNL    H48   94  -0.550  -0.108  -0.446
   0.00000   0.00000   0.00000   0.00000   0.00000   0.00000   0.00000   0.00000   0.00000
Generated with MDTraj, t= 55.0
 94
    1UNL     C1    1  -0.330   0.369  -0.197
    1UNL     C2    2  -0.465   0.321  -0.163
    1UNL     C3    3  -0.493   0.206  -0.102
    1UNL     C4    4  -0.634   0.169  -0.068
    1UNL     N1    5  -0.646   0.035   0.005
    1UNL     C5    6  -0.791   0.009   0.043
    1UNL     C6    7  -0.556  -0.085  -0.012
    1UNL     C7    8  -0.508  -0.129   0.132
    1UNL     C8    9  -0.363  -0.173   0.143
    1UNL     C9   10  -0.239  -0.106   0.131
    1UNL     N2   11  -0.135  -0.195   0.144
    1UNL    C10   12  -0.186  -0.317   0.171
    1UNL    C11   13  -0.124  -0.442   0.189
    1UNL    C12   14  -0.202  -0.549   0.218
    1UNL    C13   15  -0.348  -0.543   0.216
    1UNL    C14   16  -0.406  -0.423   0.204
    1UNL    C15   17  -0.326  -0.307   0.184
    1UNL    C16   18  -0.206   0.049   0.129
    1UNL    C17   19  -0.061   0.083   0.161
    1UNL    C18   20  -0.034   0.130   0.285
    1UNL    C19   21   0.097   0.158   0.326
    1UNL    C20   22   0.204   0.145   0.230
    1UNL     N3   23   0.342   0.154   0.243
    1UNL    C21   24   0.401   0.121   0.122
    1UNL    C22   25   0.295   0.088   0.035
    1UNL    C23   26   0.170   0.100   0.100
    1UNL    C24   27   0.036   0.071   0.067
    1UNL    C25   28   0.280   0.048  -0.109
    1UNL    C26   29   0.389  -0.047  -0.151
    1UNL     N4   30   0.527   0.011  -0.125
    1UNL    C27   31   0.575   0.137  -0.190
    1UNL    C28   32   0.678   0.213  -0.097
    1UNL    C29   33   0.797   0.120  -0.064
    1UNL    C30   34   0.752  -0.007   0.007
    1UNL    C31   35   0.799  -0.130  -0.060
    1UNL    C32   36   0.942  -0.160  -0.034
    1UNL    C33   37   0.595  -0.003   0.011
    1UNL    C34   38   0.549   0.120   0.097
    1UNL    C35   39   0.603   0.250   0.032
    1UNL    C36   40  -0.249   0.122  -0.008
    1UNL    C37   41  -0.393   0.102  -0.043
    1UNL    C38   42  -0.437  -0.036  -0.099
    1UNL    C39   43  -0.489  -0.017  -0.241
    1UNL     O1   44  -0.418   0.048  -0.316
    1UNL     O2   45  -0.607  -0.084  -0.276
    1UNL    C40   46  -0.639  -0.049  -0.412
    1UNL     H1   47  -0.275   0.287  -0.244
    1UNL     H2   48  -0.282   0.393  -0.096
    1UNL     H3   49  -0.332   0.449  -0.276
    1UNL     H4   50  -0.546   0.383  -0.193
    1UNL     H5   51  -0.688   0.156  -0.167
    1UNL     H6   52  -0.676   0.250  -0.003
    1UNL     H7   53  -0.840  -0.052  -0.034
    1UNL     H8   54  -0.798  -0.034   0.146
    1UNL     H9   55  -0.838   0.104   0.051
    1UNL    H10   56  -0.610  -0.174  -0.058
    1UNL    H11   57  -0.522  -0.039   0.199
    1UNL    H12   58  -0.571  -0.209   0.170
    1UNL    H13   59  -0.034  -0.166   0.153
    1UNL    H14   60  -0.015  -0.451   0.166
    1UNL    H15   61  -0.158  -0.644   0.233
    1UNL    H16   62  -0.407  -0.624   0.255
    1UNL    H17   63  -0.510  -0.407   0.227
    1UNL    H18   64  -0.268   0.099   0.210
    1UNL    H19   65  -0.114   0.146   0.353
    1UNL    H20   66   0.118   0.197   0.426
    1UNL    H21   67   0.388   0.173   0.332
    1UNL    H22   68   0.006   0.054  -0.029
    1UNL    H23   69   0.265   0.145  -0.174
    1UNL    H24   70   0.171   0.012  -0.114
    1UNL    H25   71   0.370  -0.143  -0.106
    1UNL    H26   72   0.397  -0.067  -0.264
    1UNL    H27   73   0.604   0.110  -0.298
    1UNL    H28   74   0.481   0.200  -0.209
    1UNL    H29   75   0.695   0.315  -0.143
    1UNL    H30   76   0.845   0.098  -0.155
    1UNL    H31   77   0.867   0.178   0.001
    1UNL    H32   78   0.788   0.002   0.108
    1UNL    H33   79   0.779  -0.129  -0.167
    1UNL    H34   80   0.736  -0.224  -0.027
    1UNL    H35   81   0.940  -0.166   0.075
    1UNL    H36   82   0.978  -0.259  -0.076
    1UNL    H37   83   1.001  -0.074  -0.064
    1UNL    H38   84   0.553  -0.097   0.050
    1UNL    H39   85   0.595   0.105   0.195
    1UNL    H40   86   0.670   0.305   0.096
    1UNL    H41   87   0.515   0.316  -0.001
    1UNL    H42   88  -0.230   0.230   0.017
    1UNL    H43   89  -0.186   0.086  -0.092
    1UNL    H44   90  -0.433   0.099   0.068
    1UNL    H45   91  -0.362  -0.110  -0.093
    1UNL    H46   92  -0.733  -0.098  -0.437
    1UNL    H47   93  -0.652   0.059  -0.425
    1UNL    H48   94  -0.552  -0.088  -0.470
   0.00000   0.00000   0.00000   0.00000   0.00000   0.00000   0.00000   0.00000   0.00000
Generated with MDTraj, t= 56.0
 94
    1UNL     C1    1  -0.347   0.392  -0.154
    1UNL     C2    2  -0.483   0.335  -0.130
    1UNL     C3    3  -0.510   0.213  -0.090
    1UNL     C4    4  -0.652   0.163  -0.059
    1UNL     N1    5  -0.660   0.027   0.001
    1UNL     C5    6  -0.792  -0.011   0.050
    1UNL     C6    7  -0.549  -0.077  -0.004
    1UNL     C7    8  -0.495  -0.108   0.140
    1UNL     C8    9  -0.361  -0.159   0.132
    1UNL     C9   10  -0.240  -0.091   0.113
    1UNL     N2   11  -0.139  -0.190   0.115
    1UNL    C10   12  -0.191  -0.311   0.145
    1UNL    C11   13  -0.123  -0.428   0.187
    1UNL    C12   14  -0.199  -0.528   0.236
    1UNL    C13   15  -0.342  -0.518   0.244
    1UNL    C14   16  -0.406  -0.402   0.210
    1UNL    C15   17  -0.329  -0.294   0.163
    1UNL    C16   18  -0.212   0.054   0.112
    1UNL    C17   19  -0.069   0.075   0.145
    1UNL    C18   20  -0.037   0.107   0.277
    1UNL    C19   21   0.088   0.132   0.322
    1UNL    C20   22   0.197   0.126   0.233
    1UNL     N3   23   0.337   0.138   0.238
    1UNL    C21   24   0.386   0.106   0.118
    1UNL    C22   25   0.291   0.072   0.024
    1UNL    C23   26   0.166   0.089   0.097
    1UNL    C24   27   0.032   0.062   0.056
    1UNL    C25   28   0.296   0.039  -0.117
    1UNL    C26   29   0.413  -0.057  -0.153
    1UNL     N4   30   0.545  -0.006  -0.120
    1UNL    C27   31   0.601   0.108  -0.199
    1UNL    C28   32   0.677   0.207  -0.103
    1UNL    C29   33   0.806   0.135  -0.039
    1UNL    C30   34   0.756   0.002   0.028
    1UNL    C31   35   0.809  -0.126  -0.041
    1UNL    C32   36   0.960  -0.134  -0.056
    1UNL    C33   37   0.596  -0.006   0.024
    1UNL    C34   38   0.534   0.115   0.094
    1UNL    C35   39   0.575   0.242   0.013
    1UNL    C36   40  -0.263   0.133  -0.017
    1UNL    C37   41  -0.410   0.115  -0.040
    1UNL    C38   42  -0.440  -0.025  -0.098
    1UNL    C39   43  -0.482  -0.018  -0.244
    1UNL     O1   44  -0.418   0.060  -0.311
    1UNL     O2   45  -0.588  -0.095  -0.277
    1UNL    C40   46  -0.613  -0.078  -0.411
    1UNL     H1   47  -0.273   0.320  -0.198
    1UNL     H2   48  -0.305   0.425  -0.057
    1UNL     H3   49  -0.347   0.470  -0.237
    1UNL     H4   50  -0.569   0.402  -0.138
    1UNL     H5   51  -0.719   0.160  -0.155
    1UNL     H6   52  -0.693   0.226   0.022
    1UNL     H7   53  -0.780  -0.097   0.120
    1UNL     H8   54  -0.847   0.077   0.094
    1UNL     H9   55  -0.839  -0.046  -0.034
    1UNL    H10   56  -0.609  -0.158  -0.055
    1UNL    H11   57  -0.492  -0.015   0.207
    1UNL    H12   58  -0.557  -0.187   0.185
    1UNL    H13   59  -0.034  -0.174   0.106
    1UNL    H14   60  -0.018  -0.438   0.171
    1UNL    H15   61  -0.156  -0.630   0.251
    1UNL    H16   62  -0.405  -0.598   0.288
    1UNL    H17   63  -0.508  -0.377   0.241
    1UNL    H18   64  -0.269   0.095   0.203
    1UNL    H19   65  -0.115   0.119   0.351
    1UNL    H20   66   0.100   0.181   0.413
    1UNL    H21   67   0.385   0.166   0.323
    1UNL    H22   68   0.012   0.040  -0.055
    1UNL    H23   69   0.309   0.139  -0.177
    1UNL    H24   70   0.198   0.002  -0.162
    1UNL    H25   71   0.412  -0.151  -0.096
    1UNL    H26   72   0.399  -0.085  -0.261
    1UNL    H27   73   0.677   0.067  -0.276
    1UNL    H28   74   0.518   0.151  -0.262
    1UNL    H29   75   0.721   0.294  -0.157
    1UNL    H30   76   0.882   0.121  -0.118
    1UNL    H31   77   0.852   0.193   0.042
    1UNL    H32   78   0.788  -0.011   0.129
    1UNL    H33   79   0.758  -0.136  -0.138
    1UNL    H34   80   0.759  -0.222   0.006
    1UNL    H35   81   1.001  -0.117   0.046
    1UNL    H36   82   1.006  -0.234  -0.089
    1UNL    H37   83   1.000  -0.060  -0.112
    1UNL    H38   84   0.554  -0.102   0.058
    1UNL    H39   85   0.584   0.127   0.192
    1UNL    H40   86   0.626   0.316   0.072
    1UNL    H41   87   0.487   0.290  -0.044
    1UNL    H42   88  -0.230   0.241  -0.001
    1UNL    H43   89  -0.202   0.097  -0.103
    1UNL    H44   90  -0.441   0.114   0.070
    1UNL    H45   91  -0.350  -0.075  -0.097
    1UNL    H46   92  -0.694  -0.151  -0.431
    1UNL    H47   93  -0.655   0.019  -0.433
    1UNL    H48   94  -0.520  -0.102  -0.466
   0.00000   0.00000   0.00000   0.00000   0.00000   0.00000   0.00000   0.00000   0.00000
Generated with MDTraj, t= 57.0
 94
    1UNL     C1    1  -0.387   0.408  -0.151
    1UNL     C2    2  -0.519   0.349  -0.129
    1UNL     C3    3  -0.532   0.226  -0.086
    1UNL     C4    4  -0.667   0.165  -0.068
    1UNL     N1    5  -0.674   0.041   0.023
    1UNL     C5    6  -0.808  -0.015   0.031
    1UNL     C6    7  -0.570  -0.061   0.013
    1UNL     C7    8  -0.503  -0.101   0.147
    1UNL     C8    9  -0.366  -0.155   0.143
    1UNL     C9   10  -0.247  -0.088   0.118
    1UNL     N2   11  -0.135  -0.175   0.130
    1UNL    C10   12  -0.185  -0.304   0.145
    1UNL    C11   13  -0.120  -0.422   0.189
    1UNL    C12   14  -0.195  -0.538   0.218
    1UNL    C13   15  -0.333  -0.522   0.240
    1UNL    C14   16  -0.402  -0.407   0.200
    1UNL    C15   17  -0.328  -0.297   0.158
    1UNL    C16   18  -0.220   0.064   0.108
    1UNL    C17   19  -0.071   0.089   0.146
    1UNL    C18   20  -0.034   0.110   0.278
    1UNL    C19   21   0.100   0.125   0.313
    1UNL    C20   22   0.197   0.104   0.219
    1UNL     N3   23   0.334   0.105   0.234
    1UNL    C21   24   0.392   0.088   0.105
    1UNL    C22   25   0.290   0.063   0.016
    1UNL    C23   26   0.169   0.069   0.087
    1UNL    C24   27   0.029   0.056   0.054
    1UNL    C25   28   0.322   0.047  -0.126
    1UNL    C26   29   0.429  -0.057  -0.150
    1UNL     N4   30   0.565  -0.025  -0.123
    1UNL    C27   31   0.629   0.082  -0.203
    1UNL    C28   32   0.677   0.200  -0.112
    1UNL    C29   33   0.796   0.144  -0.030
    1UNL    C30   34   0.755   0.004   0.031
    1UNL    C31   35   0.830  -0.119  -0.024
    1UNL    C32   36   0.985  -0.103  -0.044
    1UNL    C33   37   0.601  -0.014   0.020
    1UNL    C34   38   0.534   0.109   0.086
    1UNL    C35   39   0.567   0.233  -0.006
    1UNL    C36   40  -0.279   0.142  -0.013
    1UNL    C37   41  -0.426   0.126  -0.027
    1UNL    C38   42  -0.452  -0.015  -0.083
    1UNL    C39   43  -0.475  -0.010  -0.235
    1UNL     O1   44  -0.408   0.061  -0.306
    1UNL     O2   45  -0.577  -0.096  -0.275
    1UNL    C40   46  -0.578  -0.101  -0.414
    1UNL     H1   47  -0.326   0.351  -0.228
    1UNL     H2   48  -0.332   0.404  -0.060
    1UNL     H3   49  -0.386   0.513  -0.199
    1UNL     H4   50  -0.605   0.409  -0.144
    1UNL     H5   51  -0.707   0.123  -0.172
    1UNL     H6   52  -0.734   0.238  -0.018
    1UNL     H7   53  -0.827  -0.038   0.138
    1UNL     H8   54  -0.881   0.065   0.002
    1UNL     H9   55  -0.825  -0.103  -0.024
    1UNL    H10   56  -0.608  -0.157  -0.028
    1UNL    H11   57  -0.494  -0.012   0.220
    1UNL    H12   58  -0.566  -0.175   0.203
    1UNL    H13   59  -0.033  -0.149   0.134
    1UNL    H14   60  -0.013  -0.427   0.189
    1UNL    H15   61  -0.161  -0.637   0.222
    1UNL    H16   62  -0.380  -0.599   0.287
    1UNL    H17   63  -0.503  -0.395   0.222
    1UNL    H18   64  -0.281   0.097   0.200
    1UNL    H19   65  -0.116   0.124   0.349
    1UNL    H20   66   0.134   0.148   0.417
    1UNL    H21   67   0.388   0.128   0.316
    1UNL    H22   68   0.011   0.011  -0.040
    1UNL    H23   69   0.346   0.146  -0.176
    1UNL    H24   70   0.227   0.017  -0.182
    1UNL    H25   71   0.392  -0.144  -0.091
    1UNL    H26   72   0.435  -0.090  -0.254
    1UNL    H27   73   0.715   0.027  -0.260
    1UNL    H28   74   0.555   0.123  -0.276
    1UNL    H29   75   0.716   0.290  -0.163
    1UNL    H30   76   0.889   0.126  -0.100
    1UNL    H31   77   0.823   0.219   0.042
    1UNL    H32   78   0.781  -0.001   0.134
    1UNL    H33   79   0.777  -0.139  -0.120
    1UNL    H34   80   0.802  -0.217   0.032
    1UNL    H35   81   1.031  -0.092   0.056
    1UNL    H36   82   1.032  -0.193  -0.093
    1UNL    H37   83   1.008  -0.017  -0.098
    1UNL    H38   84   0.561  -0.100   0.077
    1UNL    H39   85   0.588   0.125   0.182
    1UNL    H40   86   0.612   0.312   0.055
    1UNL    H41   87   0.471   0.271  -0.053
    1UNL    H42   88  -0.246   0.251  -0.009
    1UNL    H43   89  -0.230   0.117  -0.112
    1UNL    H44   90  -0.463   0.118   0.076
    1UNL    H45   91  -0.376  -0.083  -0.071
    1UNL    H46   92  -0.661  -0.168  -0.445
    1UNL    H47   93  -0.605  -0.005  -0.451
    1UNL    H48   94  -0.483  -0.138  -0.452
   0.00000   0.00000   0.00000   0.00000   0.00000   0.00000   0.00000   0.00000   0.00000
Generated with MDTraj, t= 58.0
 94
    1UNL     C1    1  -0.383   0.410  -0.148
    1UNL     C2    2  -0.509   0.328  -0.141
    1UNL     C3    3  -0.530   0.211  -0.087
    1UNL     C4    4  -0.670   0.154  -0.077
    1UNL     N1    5  -0.676   0.035   0.026
    1UNL     C5    6  -0.813  -0.028   0.030
    1UNL     C6    7  -0.564  -0.075   0.012
    1UNL     C7    8  -0.514  -0.104   0.149
    1UNL     C8    9  -0.375  -0.153   0.149
    1UNL     C9   10  -0.258  -0.075   0.133
    1UNL     N2   11  -0.149  -0.158   0.145
    1UNL    C10   12  -0.189  -0.289   0.159
    1UNL    C11   13  -0.126  -0.412   0.178
    1UNL    C12   14  -0.206  -0.523   0.188
    1UNL    C13   15  -0.344  -0.525   0.187
    1UNL    C14   16  -0.408  -0.403   0.191
    1UNL    C15   17  -0.330  -0.283   0.181
    1UNL    C16   18  -0.223   0.077   0.119
    1UNL    C17   19  -0.068   0.099   0.145
    1UNL    C18   20  -0.028   0.114   0.282
    1UNL    C19   21   0.103   0.124   0.318
    1UNL    C20   22   0.197   0.112   0.213
    1UNL     N3   23   0.341   0.112   0.224
    1UNL    C21   24   0.401   0.083   0.105
    1UNL    C22   25   0.298   0.064   0.016
    1UNL    C23   26   0.170   0.086   0.082
    1UNL    C24   27   0.032   0.084   0.047
    1UNL    C25   28   0.312   0.015  -0.120
    1UNL    C26   29   0.426  -0.089  -0.139
    1UNL     N4   30   0.561  -0.026  -0.132
    1UNL    C27   31   0.600   0.100  -0.207
    1UNL    C28   32   0.670   0.204  -0.112
    1UNL    C29   33   0.799   0.136  -0.062
    1UNL    C30   34   0.766   0.003   0.008
    1UNL    C31   35   0.845  -0.117  -0.039
    1UNL    C32   36   0.989  -0.103   0.012
    1UNL    C33   37   0.607  -0.018   0.004
    1UNL    C34   38   0.549   0.105   0.080
    1UNL    C35   39   0.578   0.237   0.012
    1UNL    C36   40  -0.277   0.144  -0.002
    1UNL    C37   41  -0.428   0.120  -0.017
    1UNL    C38   42  -0.445  -0.020  -0.073
    1UNL    C39   43  -0.470  -0.016  -0.224
    1UNL     O1   44  -0.406   0.060  -0.291
    1UNL     O2   45  -0.564  -0.102  -0.268
    1UNL    C40   46  -0.575  -0.100  -0.409
    1UNL     H1   47  -0.291   0.350  -0.180
    1UNL     H2   48  -0.362   0.453  -0.053
    1UNL     H3   49  -0.391   0.485  -0.236
    1UNL     H4   50  -0.597   0.386  -0.172
    1UNL     H5   51  -0.705   0.109  -0.179
    1UNL     H6   52  -0.743   0.230  -0.040
    1UNL     H7   53  -0.805  -0.136   0.036
    1UNL     H8   54  -0.870   0.003   0.118
    1UNL     H9   55  -0.873  -0.011  -0.061
    1UNL    H10   56  -0.608  -0.156  -0.048
    1UNL    H11   57  -0.525  -0.010   0.212
    1UNL    H12   58  -0.579  -0.179   0.207
    1UNL    H13   59  -0.052  -0.126   0.145
    1UNL    H14   60  -0.019  -0.429   0.167
    1UNL    H15   61  -0.150  -0.620   0.186
    1UNL    H16   62  -0.417  -0.613   0.200
    1UNL    H17   63  -0.520  -0.399   0.190
    1UNL    H18   64  -0.278   0.124   0.209
    1UNL    H19   65  -0.106   0.119   0.355
    1UNL    H20   66   0.127   0.134   0.418
    1UNL    H21   67   0.388   0.124   0.313
    1UNL    H22   68   0.012   0.050  -0.049
    1UNL    H23   69   0.321   0.092  -0.198
    1UNL    H24   70   0.213  -0.033  -0.153
    1UNL    H25   71   0.422  -0.178  -0.069
    1UNL    H26   72   0.409  -0.134  -0.234
    1UNL    H27   73   0.677   0.066  -0.288
    1UNL    H28   74   0.513   0.148  -0.257
    1UNL    H29   75   0.678   0.294  -0.172
    1UNL    H30   76   0.861   0.133  -0.162
    1UNL    H31   77   0.852   0.204   0.005
    1UNL    H32   78   0.792   0.019   0.111
    1UNL    H33   79   0.842  -0.136  -0.150
    1UNL    H34   80   0.794  -0.208   0.010
    1UNL    H35   81   0.986  -0.112   0.121
    1UNL    H36   82   1.042  -0.192  -0.022
    1UNL    H37   83   1.038  -0.004  -0.015
    1UNL    H38   84   0.582  -0.110   0.058
    1UNL    H39   85   0.598   0.097   0.180
    1UNL    H40   86   0.628   0.299   0.090
    1UNL    H41   87   0.486   0.289  -0.021
    1UNL    H42   88  -0.258   0.254  -0.001
    1UNL    H43   89  -0.215   0.115  -0.095
    1UNL    H44   90  -0.461   0.124   0.082
    1UNL    H45   91  -0.351  -0.069  -0.063
    1UNL    H46   92  -0.669  -0.152  -0.442
    1UNL    H47   93  -0.588  -0.000  -0.439
    1UNL    H48   94  -0.491  -0.146  -0.462
   0.00000   0.00000   0.00000   0.00000   0.00000   0.00000   0.00000   0.00000   0.00000
Generated with MDTraj, t= 59.0
 94
    1UNL     C1    1  -0.356   0.390  -0.174
    1UNL     C2    2  -0.488   0.326  -0.140
    1UNL     C3    3  -0.507   0.207  -0.088
    1UNL     C4    4  -0.649   0.157  -0.054
    1UNL     N1    5  -0.666   0.014  -0.006
    1UNL     C5    6  -0.804  -0.035   0.038
    1UNL     C6    7  -0.552  -0.087   0.003
    1UNL     C7    8  -0.508  -0.099   0.153
    1UNL     C8    9  -0.361  -0.136   0.163
    1UNL     C9   10  -0.235  -0.076   0.152
    1UNL     N2   11  -0.137  -0.174   0.144
    1UNL    C10   12  -0.197  -0.294   0.159
    1UNL    C11   13  -0.137  -0.419   0.164
    1UNL    C12   14  -0.217  -0.532   0.156
    1UNL    C13   15  -0.353  -0.511   0.157
    1UNL    C14   16  -0.413  -0.390   0.160
    1UNL    C15   17  -0.333  -0.274   0.170
    1UNL    C16   18  -0.207   0.077   0.138
    1UNL    C17   19  -0.061   0.103   0.167
    1UNL    C18   20  -0.026   0.162   0.288
    1UNL    C19   21   0.109   0.166   0.329
    1UNL    C20   22   0.206   0.120   0.242
    1UNL     N3   23   0.341   0.132   0.235
    1UNL    C21   24   0.387   0.095   0.114
    1UNL    C22   25   0.282   0.052   0.037
    1UNL    C23   26   0.165   0.063   0.113
    1UNL    C24   27   0.030   0.060   0.079
    1UNL    C25   28   0.297   0.020  -0.108
    1UNL    C26   29   0.402  -0.074  -0.163
    1UNL     N4   30   0.540  -0.013  -0.140
    1UNL    C27   31   0.573   0.107  -0.216
    1UNL    C28   32   0.661   0.200  -0.127
    1UNL    C29   33   0.793   0.132  -0.078
    1UNL    C30   34   0.751   0.004  -0.002
    1UNL    C31   35   0.827  -0.126  -0.027
    1UNL    C32   36   0.964  -0.123   0.028
    1UNL    C33   37   0.597  -0.012  -0.001
    1UNL    C34   38   0.532   0.105   0.074
    1UNL    C35   39   0.564   0.240  -0.004
    1UNL    C36   40  -0.252   0.142   0.009
    1UNL    C37   41  -0.405   0.109  -0.026
    1UNL    C38   42  -0.432  -0.031  -0.079
    1UNL    C39   43  -0.461  -0.028  -0.221
    1UNL     O1   44  -0.392   0.039  -0.293
    1UNL     O2   45  -0.572  -0.100  -0.265
    1UNL    C40   46  -0.585  -0.096  -0.402
    1UNL     H1   47  -0.290   0.327  -0.240
    1UNL     H2   48  -0.297   0.423  -0.087
    1UNL     H3   49  -0.376   0.474  -0.248
    1UNL     H4   50  -0.572   0.388  -0.160
    1UNL     H5   51  -0.705   0.150  -0.154
    1UNL     H6   52  -0.708   0.222   0.017
    1UNL     H7   53  -0.799  -0.123   0.099
    1UNL     H8   54  -0.857   0.037   0.096
    1UNL     H9   55  -0.869  -0.068  -0.051
    1UNL    H10   56  -0.593  -0.184  -0.028
    1UNL    H11   57  -0.523  -0.004   0.213
    1UNL    H12   58  -0.580  -0.169   0.212
    1UNL    H13   59  -0.039  -0.166   0.127
    1UNL    H14   60  -0.032  -0.427   0.149
    1UNL    H15   61  -0.175  -0.629   0.149
    1UNL    H16   62  -0.406  -0.597   0.179
    1UNL    H17   63  -0.517  -0.382   0.160
    1UNL    H18   64  -0.265   0.130   0.221
    1UNL    H19   65  -0.098   0.196   0.364
    1UNL    H20   66   0.141   0.222   0.419
    1UNL    H21   67   0.399   0.190   0.295
    1UNL    H22   68  -0.017   0.009  -0.014
    1UNL    H23   69   0.300   0.115  -0.157
    1UNL    H24   70   0.197  -0.019  -0.146
    1UNL    H25   71   0.387  -0.179  -0.120
    1UNL    H26   72   0.395  -0.099  -0.265
    1UNL    H27   73   0.654   0.075  -0.294
    1UNL    H28   74   0.485   0.156  -0.262
    1UNL    H29   75   0.694   0.287  -0.181
    1UNL    H30   76   0.863   0.102  -0.161
    1UNL    H31   77   0.841   0.217  -0.023
    1UNL    H32   78   0.776   0.033   0.098
    1UNL    H33   79   0.828  -0.143  -0.142
    1UNL    H34   80   0.768  -0.212   0.018
    1UNL    H35   81   0.974  -0.102   0.134
    1UNL    H36   82   1.011  -0.218   0.016
    1UNL    H37   83   1.034  -0.043  -0.024
    1UNL    H38   84   0.574  -0.109   0.043
    1UNL    H39   85   0.578   0.111   0.178
    1UNL    H40   86   0.622   0.316   0.055
    1UNL    H41   87   0.473   0.294  -0.024
    1UNL    H42   88  -0.240   0.253   0.021
    1UNL    H43   89  -0.175   0.116  -0.073
    1UNL    H44   90  -0.444   0.103   0.067
    1UNL    H45   91  -0.343  -0.093  -0.064
    1UNL    H46   92  -0.645  -0.187  -0.431
    1UNL    H47   93  -0.644  -0.013  -0.427
    1UNL    H48   94  -0.492  -0.101  -0.459
   0.00000   0.00000   0.00000   0.00000   0.00000   0.00000   0.00000   0.00000   0.00000
Generated with MDTraj, t= 60.0
 94
    1UNL     C1    1  -0.323   0.336  -0.212
    1UNL     C2    2  -0.458   0.313  -0.160
    1UNL     C3    3  -0.490   0.210  -0.085
    1UNL     C4    4  -0.631   0.178  -0.041
    1UNL     N1    5  -0.662   0.040   0.000
    1UNL     C5    6  -0.798  -0.018   0.016
    1UNL     C6    7  -0.553  -0.067   0.015
    1UNL     C7    8  -0.492  -0.098   0.153
    1UNL     C8    9  -0.355  -0.160   0.158
    1UNL     C9   10  -0.234  -0.090   0.166
    1UNL     N2   11  -0.133  -0.182   0.164
    1UNL    C10   12  -0.188  -0.312   0.155
    1UNL    C11   13  -0.134  -0.439   0.131
    1UNL    C12   14  -0.214  -0.551   0.130
    1UNL    C13   15  -0.353  -0.532   0.141
    1UNL    C14   16  -0.413  -0.409   0.151
    1UNL    C15   17  -0.331  -0.297   0.166
    1UNL    C16   18  -0.211   0.059   0.157
    1UNL    C17   19  -0.071   0.095   0.184
    1UNL    C18   20  -0.031   0.159   0.306
    1UNL    C19   21   0.102   0.188   0.333
    1UNL    C20   22   0.201   0.154   0.237
    1UNL     N3   23   0.338   0.184   0.231
    1UNL    C21   24   0.380   0.125   0.116
    1UNL    C22   25   0.277   0.085   0.035
    1UNL    C23   26   0.164   0.095   0.117
    1UNL    C24   27   0.025   0.069   0.092
    1UNL    C25   28   0.282   0.038  -0.110
    1UNL    C26   29   0.386  -0.065  -0.133
    1UNL     N4   30   0.532  -0.025  -0.114
    1UNL    C27   31   0.564   0.077  -0.213
    1UNL    C28   32   0.645   0.186  -0.136
    1UNL    C29   33   0.777   0.125  -0.071
    1UNL    C30   34   0.741   0.005   0.019
    1UNL    C31   35   0.799  -0.128  -0.043
    1UNL    C32   36   0.952  -0.150  -0.030
    1UNL    C33   37   0.583  -0.002   0.019
    1UNL    C34   38   0.529   0.126   0.072
    1UNL    C35   39   0.560   0.246  -0.016
    1UNL    C36   40  -0.246   0.136   0.028
    1UNL    C37   41  -0.393   0.110  -0.017
    1UNL    C38   42  -0.432  -0.027  -0.070
    1UNL    C39   43  -0.455  -0.026  -0.226
    1UNL     O1   44  -0.371   0.026  -0.298
    1UNL     O2   45  -0.565  -0.098  -0.260
    1UNL    C40   46  -0.588  -0.088  -0.396
    1UNL     H1   47  -0.268   0.247  -0.245
    1UNL     H2   48  -0.257   0.401  -0.145
    1UNL     H3   49  -0.336   0.384  -0.313
    1UNL     H4   50  -0.526   0.400  -0.164
    1UNL     H5   51  -0.709   0.213  -0.112
    1UNL     H6   52  -0.645   0.239   0.057
    1UNL     H7   53  -0.822  -0.049   0.116
    1UNL     H8   54  -0.866   0.060  -0.010
    1UNL     H9   55  -0.812  -0.110  -0.052
    1UNL    H10   56  -0.597  -0.159  -0.021
    1UNL    H11   57  -0.502  -0.007   0.221
    1UNL    H12   58  -0.560  -0.174   0.210
    1UNL    H13   59  -0.039  -0.160   0.146
    1UNL    H14   60  -0.029  -0.453   0.099
    1UNL    H15   61  -0.177  -0.653   0.113
    1UNL    H16   62  -0.412  -0.626   0.149
    1UNL    H17   63  -0.520  -0.399   0.174
    1UNL    H18   64  -0.271   0.106   0.240
    1UNL    H19   65  -0.102   0.198   0.375
    1UNL    H20   66   0.120   0.243   0.425
    1UNL    H21   67   0.396   0.222   0.306
    1UNL    H22   68  -0.008   0.039  -0.001
    1UNL    H23   69   0.301   0.118  -0.177
    1UNL    H24   70   0.178   0.004  -0.135
    1UNL    H25   71   0.369  -0.160  -0.070
    1UNL    H26   72   0.369  -0.099  -0.230
    1UNL    H27   73   0.634   0.030  -0.289
    1UNL    H28   74   0.485   0.142  -0.259
    1UNL    H29   75   0.681   0.256  -0.208
    1UNL    H30   76   0.838   0.092  -0.153
    1UNL    H31   77   0.842   0.199  -0.012
    1UNL    H32   78   0.770   0.021   0.122
    1UNL    H33   79   0.776  -0.124  -0.159
    1UNL    H34   80   0.745  -0.216   0.002
    1UNL    H35   81   0.984  -0.177   0.072
    1UNL    H36   82   0.978  -0.238  -0.084
    1UNL    H37   83   1.023  -0.064  -0.062
    1UNL    H38   84   0.544  -0.087   0.076
    1UNL    H39   85   0.585   0.143   0.169
    1UNL    H40   86   0.606   0.331   0.046
    1UNL    H41   87   0.475   0.294  -0.057
    1UNL    H42   88  -0.231   0.246   0.054
    1UNL    H43   89  -0.174   0.109  -0.057
    1UNL    H44   90  -0.432   0.111   0.080
    1UNL    H45   91  -0.344  -0.093  -0.042
    1UNL    H46   92  -0.686  -0.135  -0.436
    1UNL    H47   93  -0.585   0.014  -0.421
    1UNL    H48   94  -0.509  -0.140  -0.452
   0.00000   0.00000   0.00000   0.00000   0.00000   0.00000   0.00000   0.00000   0.00000
Generated with MDTraj, t= 61.0
 94
    1UNL     C1    1  -0.292   0.283  -0.232
    1UNL     C2    2  -0.438   0.276  -0.179
    1UNL     C3    3  -0.485   0.207  -0.074
    1UNL     C4    4  -0.631   0.184  -0.037
    1UNL     N1    5  -0.665   0.052   0.023
    1UNL     C5    6  -0.794  -0.005  -0.010
    1UNL     C6    7  -0.561  -0.065   0.027
    1UNL     C7    8  -0.506  -0.100   0.169
    1UNL     C8    9  -0.371  -0.163   0.165
    1UNL     C9   10  -0.251  -0.097   0.157
    1UNL     N2   11  -0.149  -0.187   0.143
    1UNL    C10   12  -0.198  -0.315   0.132
    1UNL    C11   13  -0.128  -0.436   0.121
    1UNL    C12   14  -0.204  -0.550   0.126
    1UNL    C13   15  -0.344  -0.540   0.127
    1UNL    C14   16  -0.407  -0.422   0.129
    1UNL    C15   17  -0.334  -0.300   0.146
    1UNL    C16   18  -0.206   0.053   0.157
    1UNL    C17   19  -0.061   0.088   0.194
    1UNL    C18   20  -0.021   0.140   0.319
    1UNL    C19   21   0.110   0.182   0.346
    1UNL    C20   22   0.202   0.178   0.242
    1UNL     N3   23   0.336   0.209   0.239
    1UNL    C21   24   0.390   0.166   0.113
    1UNL    C22   25   0.284   0.109   0.044
    1UNL    C23   26   0.172   0.111   0.124
    1UNL    C24   27   0.037   0.078   0.099
    1UNL    C25   28   0.284   0.042  -0.090
    1UNL    C26   29   0.381  -0.072  -0.108
    1UNL     N4   30   0.524  -0.025  -0.094
    1UNL    C27   31   0.566   0.062  -0.201
    1UNL    C28   32   0.654   0.178  -0.147
    1UNL    C29   33   0.783   0.122  -0.076
    1UNL    C30   34   0.734   0.006   0.023
    1UNL    C31   35   0.769  -0.136  -0.030
    1UNL    C32   36   0.909  -0.163  -0.085
    1UNL    C33   37   0.576   0.014   0.038
    1UNL    C34   38   0.532   0.160   0.074
    1UNL    C35   39   0.562   0.252  -0.049
    1UNL    C36   40  -0.252   0.128   0.022
    1UNL    C37   41  -0.403   0.104  -0.005
    1UNL    C38   42  -0.438  -0.031  -0.064
    1UNL    C39   43  -0.450  -0.027  -0.212
    1UNL     O1   44  -0.356   0.010  -0.281
    1UNL     O2   45  -0.572  -0.066  -0.259
    1UNL    C40   46  -0.571  -0.073  -0.391
    1UNL     H1   47  -0.270   0.198  -0.299
    1UNL     H2   48  -0.216   0.304  -0.146
    1UNL     H3   49  -0.291   0.366  -0.305
    1UNL     H4   50  -0.506   0.343  -0.225
    1UNL     H5   51  -0.690   0.193  -0.128
    1UNL     H6   52  -0.673   0.266   0.036
    1UNL     H7   53  -0.824  -0.077   0.068
    1UNL     H8   54  -0.862   0.080  -0.004
    1UNL     H9   55  -0.792  -0.059  -0.108
    1UNL    H10   56  -0.606  -0.153  -0.016
    1UNL    H11   57  -0.496  -0.002   0.230
    1UNL    H12   58  -0.579  -0.169   0.226
    1UNL    H13   59  -0.053  -0.162   0.159
    1UNL    H14   60  -0.023  -0.437   0.109
    1UNL    H15   61  -0.154  -0.644   0.104
    1UNL    H16   62  -0.412  -0.628   0.137
    1UNL    H17   63  -0.514  -0.422   0.143
    1UNL    H18   64  -0.275   0.095   0.234
    1UNL    H19   65  -0.101   0.148   0.393
    1UNL    H20   66   0.140   0.209   0.443
    1UNL    H21   67   0.387   0.256   0.314
    1UNL    H22   68   0.008   0.053  -0.001
    1UNL    H23   69   0.286   0.114  -0.170
    1UNL    H24   70   0.189  -0.012  -0.090
    1UNL    H25   71   0.348  -0.139  -0.021
    1UNL    H26   72   0.365  -0.125  -0.197
    1UNL    H27   73   0.629   0.003  -0.271
    1UNL    H28   74   0.477   0.115  -0.248
    1UNL    H29   75   0.678   0.234  -0.236
    1UNL    H30   76   0.842   0.074  -0.145
    1UNL    H31   77   0.844   0.214  -0.033
    1UNL    H32   78   0.784   0.015   0.118
    1UNL    H33   79   0.700  -0.159  -0.123
    1UNL    H34   80   0.753  -0.213   0.051
    1UNL    H35   81   0.991  -0.137  -0.012
    1UNL    H36   82   0.912  -0.272  -0.094
    1UNL    H37   83   0.933  -0.118  -0.180
    1UNL    H38   84   0.551  -0.054   0.119
    1UNL    H39   85   0.590   0.192   0.165
    1UNL    H40   86   0.613   0.349  -0.018
    1UNL    H41   87   0.468   0.280  -0.090
    1UNL    H42   88  -0.236   0.240   0.030
    1UNL    H43   89  -0.197   0.083  -0.068
    1UNL    H44   90  -0.439   0.108   0.095
    1UNL    H45   91  -0.348  -0.104  -0.041
    1UNL    H46   92  -0.673  -0.114  -0.425
    1UNL    H47   93  -0.552   0.022  -0.431
    1UNL    H48   94  -0.499  -0.153  -0.419
   0.00000   0.00000   0.00000   0.00000   0.00000   0.00000   0.00000   0.00000   0.00000
Generated with MDTraj, t= 62.0
 94
    1UNL     C1    1  -0.312   0.326  -0.236
    1UNL     C2    2  -0.448   0.294  -0.173
    1UNL     C3    3  -0.475   0.201  -0.084
    1UNL     C4    4  -0.619   0.169  -0.048
    1UNL     N1    5  -0.644   0.032   0.016
    1UNL     C5    6  -0.788  -0.016  -0.001
    1UNL     C6    7  -0.538  -0.079   0.023
    1UNL     C7    8  -0.489  -0.097   0.170
    1UNL     C8    9  -0.354  -0.153   0.177
    1UNL     C9   10  -0.228  -0.086   0.165
    1UNL     N2   11  -0.128  -0.183   0.153
    1UNL    C10   12  -0.193  -0.310   0.147
    1UNL    C11   13  -0.139  -0.438   0.119
    1UNL    C12   14  -0.225  -0.544   0.093
    1UNL    C13   15  -0.365  -0.534   0.113
    1UNL    C14   16  -0.413  -0.407   0.150
    1UNL    C15   17  -0.331  -0.293   0.170
    1UNL    C16   18  -0.211   0.060   0.166
    1UNL    C17   19  -0.062   0.088   0.196
    1UNL    C18   20  -0.030   0.152   0.321
    1UNL    C19   21   0.100   0.175   0.353
    1UNL    C20   22   0.198   0.168   0.249
    1UNL     N3   23   0.339   0.181   0.236
    1UNL    C21   24   0.382   0.158   0.106
    1UNL    C22   25   0.279   0.105   0.038
    1UNL    C23   26   0.163   0.108   0.126
    1UNL    C24   27   0.032   0.065   0.099
    1UNL    C25   28   0.275   0.062  -0.100
    1UNL    C26   29   0.366  -0.062  -0.116
    1UNL     N4   30   0.513  -0.023  -0.094
    1UNL    C27   31   0.564   0.060  -0.211
    1UNL    C28   32   0.651   0.176  -0.154
    1UNL    C29   33   0.773   0.117  -0.085
    1UNL    C30   34   0.727   0.009   0.024
    1UNL    C31   35   0.774  -0.141   0.007
    1UNL    C32   36   0.905  -0.149  -0.070
    1UNL    C33   37   0.572   0.012   0.035
    1UNL    C34   38   0.526   0.153   0.062
    1UNL    C35   39   0.555   0.251  -0.055
    1UNL    C36   40  -0.251   0.130   0.029
    1UNL    C37   41  -0.393   0.102  -0.008
    1UNL    C38   42  -0.412  -0.035  -0.065
    1UNL    C39   43  -0.431  -0.047  -0.213
    1UNL     O1   44  -0.343  -0.060  -0.299
    1UNL     O2   45  -0.564  -0.037  -0.253
    1UNL    C40   46  -0.590  -0.049  -0.389
    1UNL     H1   47  -0.242   0.239  -0.231
    1UNL     H2   48  -0.274   0.424  -0.192
    1UNL     H3   49  -0.327   0.332  -0.345
    1UNL     H4   50  -0.534   0.355  -0.201
    1UNL     H5   51  -0.672   0.165  -0.143
    1UNL     H6   52  -0.665   0.258   0.011
    1UNL     H7   53  -0.809  -0.123   0.023
    1UNL     H8   54  -0.844   0.055   0.064
    1UNL     H9   55  -0.812  -0.004  -0.103
    1UNL    H10   56  -0.573  -0.168  -0.025
    1UNL    H11   57  -0.497   0.004   0.228
    1UNL    H12   58  -0.562  -0.170   0.221
    1UNL    H13   59  -0.034  -0.168   0.111
    1UNL    H14   60  -0.032  -0.446   0.099
    1UNL    H15   61  -0.188  -0.631   0.045
    1UNL    H16   62  -0.418  -0.620   0.094
    1UNL    H17   63  -0.516  -0.392   0.164
    1UNL    H18   64  -0.275   0.097   0.249
    1UNL    H19   65  -0.107   0.175   0.390
    1UNL    H20   66   0.126   0.214   0.455
    1UNL    H21   67   0.396   0.215   0.314
    1UNL    H22   68   0.015   0.022  -0.006
    1UNL    H23   69   0.308   0.136  -0.171
    1UNL    H24   70   0.179   0.036  -0.133
    1UNL    H25   71   0.340  -0.144  -0.043
    1UNL    H26   72   0.346  -0.095  -0.215
    1UNL    H27   73   0.644   0.013  -0.269
    1UNL    H28   74   0.480   0.099  -0.280
    1UNL    H29   75   0.677   0.239  -0.238
    1UNL    H30   76   0.835   0.069  -0.157
    1UNL    H31   77   0.836   0.205  -0.042
    1UNL    H32   78   0.763   0.047   0.119
    1UNL    H33   79   0.694  -0.191  -0.061
    1UNL    H34   80   0.771  -0.189   0.108
    1UNL    H35   81   0.987  -0.079  -0.038
    1UNL    H36   82   0.952  -0.248  -0.049
    1UNL    H37   83   0.901  -0.143  -0.172
    1UNL    H38   84   0.535  -0.052   0.114
    1UNL    H39   85   0.580   0.187   0.154
    1UNL    H40   86   0.605   0.343  -0.014
    1UNL    H41   87   0.462   0.282  -0.100
    1UNL    H42   88  -0.247   0.244   0.050
    1UNL    H43   89  -0.187   0.094  -0.056
    1UNL    H44   90  -0.445   0.102   0.086
    1UNL    H45   91  -0.320  -0.107  -0.041
    1UNL    H46   92  -0.698  -0.078  -0.409
    1UNL    H47   93  -0.561   0.039  -0.438
    1UNL    H48   94  -0.533  -0.139  -0.415
   0.00000   0.00000   0.00000   0.00000   0.00000   0.00000   0.00000   0.00000   0.00000
Generated with MDTraj, t= 63.0
 94
    1UNL     C1    1  -0.321   0.333  -0.203
    1UNL     C2    2  -0.459   0.291  -0.168
    1UNL     C3    3  -0.490   0.201  -0.078
    1UNL     C4    4  -0.633   0.151  -0.055
    1UNL     N1    5  -0.660   0.013   0.003
    1UNL     C5    6  -0.808  -0.042   0.021
    1UNL     C6    7  -0.546  -0.083   0.025
    1UNL     C7    8  -0.498  -0.090   0.172
    1UNL     C8    9  -0.359  -0.149   0.181
    1UNL     C9   10  -0.240  -0.087   0.171
    1UNL     N2   11  -0.134  -0.175   0.146
    1UNL    C10   12  -0.189  -0.302   0.134
    1UNL    C11   13  -0.128  -0.426   0.118
    1UNL    C12   14  -0.219  -0.528   0.103
    1UNL    C13   15  -0.361  -0.508   0.121
    1UNL    C14   16  -0.425  -0.391   0.150
    1UNL    C15   17  -0.331  -0.285   0.160
    1UNL    C16   18  -0.213   0.067   0.159
    1UNL    C17   19  -0.068   0.097   0.194
    1UNL    C18   20  -0.019   0.139   0.320
    1UNL    C19   21   0.112   0.174   0.340
    1UNL    C20   22   0.204   0.162   0.238
    1UNL     N3   23   0.336   0.183   0.239
    1UNL    C21   24   0.385   0.141   0.116
    1UNL    C22   25   0.279   0.101   0.037
    1UNL    C23   26   0.161   0.115   0.112
    1UNL    C24   27   0.025   0.076   0.092
    1UNL    C25   28   0.282   0.049  -0.103
    1UNL    C26   29   0.377  -0.066  -0.120
    1UNL     N4   30   0.523  -0.027  -0.116
    1UNL    C27   31   0.571   0.061  -0.223
    1UNL    C28   32   0.650   0.177  -0.155
    1UNL    C29   33   0.774   0.117  -0.084
    1UNL    C30   34   0.733  -0.001   0.012
    1UNL    C31   35   0.792  -0.135  -0.040
    1UNL    C32   36   0.938  -0.140  -0.001
    1UNL    C33   37   0.581   0.003   0.021
    1UNL    C34   38   0.532   0.140   0.072
    1UNL    C35   39   0.559   0.251  -0.044
    1UNL    C36   40  -0.253   0.132   0.026
    1UNL    C37   41  -0.398   0.098  -0.010
    1UNL    C38   42  -0.423  -0.042  -0.062
    1UNL    C39   43  -0.447  -0.046  -0.212
    1UNL     O1   44  -0.353  -0.078  -0.278
    1UNL     O2   45  -0.566  -0.028  -0.263
    1UNL    C40   46  -0.568  -0.024  -0.407
    1UNL     H1   47  -0.273   0.261  -0.279
    1UNL     H2   48  -0.262   0.358  -0.115
    1UNL     H3   49  -0.317   0.425  -0.267
    1UNL     H4   50  -0.541   0.338  -0.217
    1UNL     H5   51  -0.683   0.161  -0.153
    1UNL     H6   52  -0.688   0.223   0.011
    1UNL     H7   53  -0.850  -0.041   0.126
    1UNL     H8   54  -0.879   0.011  -0.049
    1UNL     H9   55  -0.798  -0.143  -0.002
    1UNL    H10   56  -0.578  -0.177  -0.017
    1UNL    H11   57  -0.504   0.012   0.226
    1UNL    H12   58  -0.568  -0.158   0.232
    1UNL    H13   59  -0.030  -0.152   0.151
    1UNL    H14   60  -0.021  -0.426   0.103
    1UNL    H15   61  -0.176  -0.628   0.079
    1UNL    H16   62  -0.429  -0.602   0.117
    1UNL    H17   63  -0.537  -0.384   0.156
    1UNL    H18   64  -0.272   0.106   0.241
    1UNL    H19   65  -0.090   0.169   0.397
    1UNL    H20   66   0.151   0.216   0.425
    1UNL    H21   67   0.383   0.205   0.328
    1UNL    H22   68   0.005   0.034   0.001
    1UNL    H23   69   0.304   0.131  -0.169
    1UNL    H24   70   0.185   0.029  -0.131
    1UNL    H25   71   0.352  -0.137  -0.037
    1UNL    H26   72   0.367  -0.123  -0.210
    1UNL    H27   73   0.637   0.002  -0.285
    1UNL    H28   74   0.495   0.126  -0.285
    1UNL    H29   75   0.679   0.250  -0.230
    1UNL    H30   76   0.852   0.075  -0.158
    1UNL    H31   77   0.833   0.194  -0.025
    1UNL    H32   78   0.777   0.019   0.111
    1UNL    H33   79   0.774  -0.144  -0.152
    1UNL    H34   80   0.740  -0.224   0.007
    1UNL    H35   81   0.941  -0.145   0.111
    1UNL    H36   82   0.979  -0.239  -0.033
    1UNL    H37   83   1.000  -0.063  -0.034
    1UNL    H38   84   0.546  -0.076   0.086
    1UNL    H39   85   0.604   0.162   0.153
    1UNL    H40   86   0.607   0.340  -0.001
    1UNL    H41   87   0.467   0.287  -0.091
    1UNL    H42   88  -0.237   0.246   0.035
    1UNL    H43   89  -0.191   0.083  -0.051
    1UNL    H44   90  -0.441   0.101   0.089
    1UNL    H45   91  -0.335  -0.113  -0.038
    1UNL    H46   92  -0.655   0.029  -0.454
    1UNL    H47   93  -0.476   0.015  -0.439
    1UNL    H48   94  -0.581  -0.129  -0.433
   0.00000   0.00000   0.00000   0.00000   0.00000   0.00000   0.00000   0.00000   0.00000
Generated with MDTraj, t= 64.0
 94
    1UNL     C1    1  -0.360   0.344  -0.214
    1UNL     C2    2  -0.494   0.303  -0.165
    1UNL     C3    3  -0.516   0.207  -0.076
    1UNL     C4    4  -0.662   0.156  -0.051
    1UNL     N1    5  -0.673   0.030   0.035
    1UNL     C5    6  -0.810  -0.036   0.028
    1UNL     C6    7  -0.562  -0.068   0.016
    1UNL     C7    8  -0.519  -0.116   0.157
    1UNL     C8    9  -0.370  -0.157   0.166
    1UNL     C9   10  -0.249  -0.077   0.160
    1UNL     N2   11  -0.148  -0.170   0.153
    1UNL    C10   12  -0.195  -0.298   0.149
    1UNL    C11   13  -0.131  -0.421   0.125
    1UNL    C12   14  -0.201  -0.538   0.119
    1UNL    C13   15  -0.342  -0.539   0.133
    1UNL    C14   16  -0.402  -0.414   0.161
    1UNL    C15   17  -0.332  -0.292   0.164
    1UNL    C16   18  -0.217   0.075   0.160
    1UNL    C17   19  -0.068   0.097   0.174
    1UNL    C18   20  -0.028   0.146   0.303
    1UNL    C19   21   0.102   0.180   0.326
    1UNL    C20   22   0.199   0.145   0.230
    1UNL     N3   23   0.340   0.155   0.235
    1UNL    C21   24   0.390   0.114   0.113
    1UNL    C22   25   0.287   0.077   0.024
    1UNL    C23   26   0.164   0.101   0.102
    1UNL    C24   27   0.031   0.075   0.075
    1UNL    C25   28   0.300   0.025  -0.120
    1UNL    C26   29   0.407  -0.077  -0.137
    1UNL     N4   30   0.544  -0.018  -0.127
    1UNL    C27   31   0.587   0.088  -0.226
    1UNL    C28   32   0.661   0.198  -0.146
    1UNL    C29   33   0.786   0.135  -0.091
    1UNL    C30   34   0.753   0.010   0.002
    1UNL    C31   35   0.818  -0.120  -0.043
    1UNL    C32   36   0.929  -0.167   0.050
    1UNL    C33   37   0.599  -0.000   0.013
    1UNL    C34   38   0.535   0.127   0.074
    1UNL    C35   39   0.565   0.244  -0.033
    1UNL    C36   40  -0.260   0.134   0.028
    1UNL    C37   41  -0.413   0.117   0.004
    1UNL    C38   42  -0.438  -0.020  -0.053
    1UNL    C39   43  -0.446  -0.033  -0.201
    1UNL     O1   44  -0.344  -0.066  -0.259
    1UNL     O2   45  -0.564  -0.012  -0.271
    1UNL    C40   46  -0.548  -0.027  -0.412
    1UNL     H1   47  -0.302   0.251  -0.250
    1UNL     H2   48  -0.315   0.398  -0.134
    1UNL     H3   49  -0.363   0.402  -0.313
    1UNL     H4   50  -0.577   0.360  -0.208
    1UNL     H5   51  -0.717   0.133  -0.146
    1UNL     H6   52  -0.720   0.238  -0.012
    1UNL     H7   53  -0.890   0.040   0.010
    1UNL     H8   54  -0.820  -0.116  -0.049
    1UNL     H9   55  -0.823  -0.075   0.127
    1UNL    H10   56  -0.604  -0.155  -0.030
    1UNL    H11   57  -0.541  -0.032   0.228
    1UNL    H12   58  -0.592  -0.195   0.197
    1UNL    H13   59  -0.042  -0.156   0.153
    1UNL    H14   60  -0.024  -0.424   0.115
    1UNL    H15   61  -0.143  -0.624   0.107
    1UNL    H16   62  -0.395  -0.627   0.134
    1UNL    H17   63  -0.506  -0.413   0.175
    1UNL    H18   64  -0.269   0.119   0.242
    1UNL    H19   65  -0.109   0.157   0.370
    1UNL    H20   66   0.133   0.241   0.414
    1UNL    H21   67   0.385   0.200   0.317
    1UNL    H22   68   0.005   0.031  -0.020
    1UNL    H23   69   0.300   0.109  -0.187
    1UNL    H24   70   0.209  -0.011  -0.153
    1UNL    H25   71   0.412  -0.156  -0.062
    1UNL    H26   72   0.396  -0.134  -0.228
    1UNL    H27   73   0.663   0.041  -0.290
    1UNL    H28   74   0.499   0.132  -0.287
    1UNL    H29   75   0.698   0.285  -0.205
    1UNL    H30   76   0.862   0.097  -0.178
    1UNL    H31   77   0.849   0.207  -0.035
    1UNL    H32   78   0.791   0.034   0.103
    1UNL    H33   79   0.858  -0.115  -0.147
    1UNL    H34   80   0.739  -0.202  -0.053
    1UNL    H35   81   0.890  -0.176   0.149
    1UNL    H36   82   0.954  -0.271   0.019
    1UNL    H37   83   1.017  -0.102   0.048
    1UNL    H38   84   0.568  -0.079   0.080
    1UNL    H39   85   0.594   0.146   0.166
    1UNL    H40   86   0.609   0.334   0.007
    1UNL    H41   87   0.465   0.269  -0.076
    1UNL    H42   88  -0.238   0.248   0.033
    1UNL    H43   89  -0.200   0.093  -0.052
    1UNL    H44   90  -0.456   0.115   0.104
    1UNL    H45   91  -0.355  -0.086  -0.029
    1UNL    H46   92  -0.644  -0.030  -0.469
    1UNL    H47   93  -0.480   0.050  -0.440
    1UNL    H48   94  -0.510  -0.128  -0.423
   0.00000   0.00000   0.00000   0.00000   0.00000   0.00000   0.00000   0.00000   0.00000
Generated with MDTraj, t= 65.0
 94
    1UNL     C1    1  -0.375   0.354  -0.211
    1UNL     C2    2  -0.502   0.308  -0.154
    1UNL     C3    3  -0.517   0.210  -0.069
    1UNL     C4    4  -0.660   0.162  -0.040
    1UNL     N1    5  -0.672   0.027   0.032
    1UNL     C5    6  -0.805  -0.020   0.055
    1UNL     C6    7  -0.555  -0.077   0.019
    1UNL     C7    8  -0.497  -0.106   0.162
    1UNL     C8    9  -0.350  -0.155   0.157
    1UNL     C9   10  -0.231  -0.089   0.140
    1UNL     N2   11  -0.127  -0.177   0.135
    1UNL    C10   12  -0.176  -0.303   0.152
    1UNL    C11   13  -0.113  -0.429   0.155
    1UNL    C12   14  -0.196  -0.541   0.155
    1UNL    C13   15  -0.338  -0.528   0.165
    1UNL    C14   16  -0.399  -0.405   0.163
    1UNL    C15   17  -0.318  -0.292   0.154
    1UNL    C16   18  -0.211   0.061   0.130
    1UNL    C17   19  -0.065   0.092   0.158
    1UNL    C18   20  -0.030   0.146   0.284
    1UNL    C19   21   0.101   0.166   0.314
    1UNL    C20   22   0.195   0.121   0.221
    1UNL     N3   23   0.331   0.142   0.221
    1UNL    C21   24   0.379   0.116   0.091
    1UNL    C22   25   0.281   0.053   0.017
    1UNL    C23   26   0.154   0.069   0.093
    1UNL    C24   27   0.021   0.054   0.061
    1UNL    C25   28   0.289   0.011  -0.123
    1UNL    C26   29   0.412  -0.079  -0.160
    1UNL     N4   30   0.546  -0.017  -0.129
    1UNL    C27   31   0.595   0.098  -0.212
    1UNL    C28   32   0.664   0.212  -0.125
    1UNL    C29   33   0.783   0.142  -0.064
    1UNL    C30   34   0.738   0.010   0.019
    1UNL    C31   35   0.820  -0.115  -0.033
    1UNL    C32   36   0.921  -0.169   0.071
    1UNL    C33   37   0.583  -0.005   0.012
    1UNL    C34   38   0.525   0.127   0.071
    1UNL    C35   39   0.553   0.251  -0.022
    1UNL    C36   40  -0.259   0.155   0.012
    1UNL    C37   41  -0.409   0.124  -0.005
    1UNL    C38   42  -0.436  -0.025  -0.062
    1UNL    C39   43  -0.451  -0.027  -0.214
    1UNL     O1   44  -0.346  -0.011  -0.272
    1UNL     O2   45  -0.574  -0.031  -0.270
    1UNL    C40   46  -0.565  -0.019  -0.409
    1UNL     H1   47  -0.298   0.273  -0.221
    1UNL     H2   48  -0.344   0.440  -0.153
    1UNL     H3   49  -0.389   0.376  -0.323
    1UNL     H4   50  -0.586   0.357  -0.195
    1UNL     H5   51  -0.709   0.146  -0.142
    1UNL     H6   52  -0.725   0.231   0.003
    1UNL     H7   53  -0.881   0.058   0.045
    1UNL     H8   54  -0.833  -0.095  -0.020
    1UNL     H9   55  -0.807  -0.068   0.156
    1UNL    H10   56  -0.595  -0.163  -0.033
    1UNL    H11   57  -0.515  -0.019   0.226
    1UNL    H12   58  -0.568  -0.184   0.201
    1UNL    H13   59  -0.034  -0.154   0.094
    1UNL    H14   60  -0.004  -0.427   0.163
    1UNL    H15   61  -0.155  -0.645   0.158
    1UNL    H16   62  -0.387  -0.628   0.170
    1UNL    H17   63  -0.506  -0.405   0.188
    1UNL    H18   64  -0.266   0.094   0.213
    1UNL    H19   65  -0.093   0.166   0.372
    1UNL    H20   66   0.134   0.219   0.400
    1UNL    H21   67   0.384   0.195   0.293
    1UNL    H22   68  -0.019   0.005  -0.035
    1UNL    H23   69   0.293   0.097  -0.186
    1UNL    H24   70   0.197  -0.024  -0.156
    1UNL    H25   71   0.402  -0.169  -0.105
    1UNL    H26   72   0.418  -0.105  -0.267
    1UNL    H27   73   0.666   0.055  -0.284
    1UNL    H28   74   0.498   0.131  -0.267
    1UNL    H29   75   0.686   0.290  -0.201
    1UNL    H30   76   0.854   0.115  -0.151
    1UNL    H31   77   0.845   0.207   0.002
    1UNL    H32   78   0.773   0.028   0.123
    1UNL    H33   79   0.866  -0.087  -0.128
    1UNL    H34   80   0.749  -0.195  -0.073
    1UNL    H35   81   0.875  -0.220   0.149
    1UNL    H36   82   0.990  -0.247   0.032
    1UNL    H37   83   0.987  -0.091   0.119
    1UNL    H38   84   0.542  -0.087   0.069
    1UNL    H39   85   0.582   0.138   0.164
    1UNL    H40   86   0.579   0.326   0.047
    1UNL    H41   87   0.463   0.279  -0.083
    1UNL    H42   88  -0.231   0.266   0.036
    1UNL    H43   89  -0.205   0.136  -0.080
    1UNL    H44   90  -0.441   0.127   0.099
    1UNL    H45   91  -0.346  -0.074  -0.048
    1UNL    H46   92  -0.663  -0.035  -0.458
    1UNL    H47   93  -0.518   0.077  -0.422
    1UNL    H48   94  -0.501  -0.101  -0.442
   0.00000   0.00000   0.00000   0.00000   0.00000   0.00000   0.00000   0.00000   0.00000
Generated with MDTraj, t= 66.0
 94
    1UNL     C1    1  -0.352   0.358  -0.197
    1UNL     C2    2  -0.484   0.309  -0.154
    1UNL     C3    3  -0.509   0.209  -0.075
    1UNL     C4    4  -0.649   0.158  -0.055
    1UNL     N1    5  -0.661   0.022   0.015
    1UNL     C5    6  -0.792  -0.016   0.071
    1UNL     C6    7  -0.559  -0.081   0.005
    1UNL     C7    8  -0.502  -0.123   0.148
    1UNL     C8    9  -0.355  -0.172   0.144
    1UNL     C9   10  -0.241  -0.092   0.128
    1UNL     N2   11  -0.138  -0.177   0.131
    1UNL    C10   12  -0.183  -0.309   0.157
    1UNL    C11   13  -0.112  -0.434   0.160
    1UNL    C12   14  -0.183  -0.543   0.191
    1UNL    C13   15  -0.324  -0.540   0.200
    1UNL    C14   16  -0.393  -0.424   0.190
    1UNL    C15   17  -0.322  -0.305   0.164
    1UNL    C16   18  -0.209   0.054   0.126
    1UNL    C17   19  -0.067   0.090   0.159
    1UNL    C18   20  -0.033   0.132   0.285
    1UNL    C19   21   0.093   0.160   0.329
    1UNL    C20   22   0.197   0.135   0.234
    1UNL     N3   23   0.337   0.147   0.232
    1UNL    C21   24   0.390   0.110   0.112
    1UNL    C22   25   0.286   0.080   0.026
    1UNL    C23   26   0.165   0.100   0.101
    1UNL    C24   27   0.032   0.083   0.066
    1UNL    C25   28   0.300   0.055  -0.124
    1UNL    C26   29   0.403  -0.059  -0.147
    1UNL     N4   30   0.549  -0.028  -0.125
    1UNL    C27   31   0.594   0.084  -0.216
    1UNL    C28   32   0.660   0.196  -0.130
    1UNL    C29   33   0.788   0.133  -0.076
    1UNL    C30   34   0.757   0.005   0.010
    1UNL    C31   35   0.833  -0.122  -0.036
    1UNL    C32   36   0.932  -0.174   0.066
    1UNL    C33   37   0.599  -0.005   0.019
    1UNL    C34   38   0.536   0.125   0.085
    1UNL    C35   39   0.566   0.248  -0.019
    1UNL    C36   40  -0.259   0.134  -0.003
    1UNL    C37   41  -0.410   0.112  -0.016
    1UNL    C38   42  -0.443  -0.024  -0.088
    1UNL    C39   43  -0.481   0.002  -0.235
    1UNL     O1   44  -0.402   0.057  -0.310
    1UNL     O2   45  -0.602  -0.055  -0.280
    1UNL    C40   46  -0.622  -0.028  -0.414
    1UNL     H1   47  -0.306   0.301  -0.279
    1UNL     H2   48  -0.286   0.365  -0.106
    1UNL     H3   49  -0.349   0.461  -0.246
    1UNL     H4   50  -0.572   0.362  -0.192
    1UNL     H5   51  -0.711   0.152  -0.149
    1UNL     H6   52  -0.701   0.223   0.007
    1UNL     H7   53  -0.835   0.043   0.150
    1UNL     H8   54  -0.863  -0.011  -0.010
    1UNL     H9   55  -0.794  -0.127   0.103
    1UNL    H10   56  -0.594  -0.168  -0.050
    1UNL    H11   57  -0.499  -0.029   0.199
    1UNL    H12   58  -0.566  -0.191   0.207
    1UNL    H13   59  -0.045  -0.151   0.166
    1UNL    H14   60  -0.008  -0.433   0.141
    1UNL    H15   61  -0.128  -0.633   0.198
    1UNL    H16   62  -0.384  -0.634   0.196
    1UNL    H17   63  -0.500  -0.427   0.188
    1UNL    H18   64  -0.260   0.092   0.208
    1UNL    H19   65  -0.112   0.141   0.356
    1UNL    H20   66   0.127   0.174   0.429
    1UNL    H21   67   0.383   0.167   0.321
    1UNL    H22   68   0.005   0.052  -0.027
    1UNL    H23   69   0.314   0.145  -0.176
    1UNL    H24   70   0.204   0.027  -0.163
    1UNL    H25   71   0.376  -0.144  -0.090
    1UNL    H26   72   0.386  -0.087  -0.253
    1UNL    H27   73   0.664   0.027  -0.282
    1UNL    H28   74   0.505   0.124  -0.275
    1UNL    H29   75   0.688   0.291  -0.184
    1UNL    H30   76   0.850   0.101  -0.156
    1UNL    H31   77   0.844   0.213  -0.016
    1UNL    H32   78   0.798   0.022   0.113
    1UNL    H33   79   0.889  -0.102  -0.125
    1UNL    H34   80   0.758  -0.199  -0.077
    1UNL    H35   81   0.888  -0.170   0.161
    1UNL    H36   82   0.965  -0.277   0.050
    1UNL    H37   83   1.022  -0.102   0.066
    1UNL    H38   84   0.568  -0.093   0.074
    1UNL    H39   85   0.591   0.143   0.176
    1UNL    H40   86   0.611   0.333   0.025
    1UNL    H41   87   0.465   0.279  -0.057
    1UNL    H42   88  -0.227   0.243   0.001
    1UNL    H43   89  -0.211   0.103  -0.098
    1UNL    H44   90  -0.439   0.097   0.086
    1UNL    H45   91  -0.371  -0.097  -0.089
    1UNL    H46   92  -0.724  -0.064  -0.440
    1UNL    H47   93  -0.605   0.079  -0.420
    1UNL    H48   94  -0.550  -0.087  -0.473
   0.00000   0.00000   0.00000   0.00000   0.00000   0.00000   0.00000   0.00000   0.00000
Generated with MDTraj, t= 67.0
 94
    1UNL     C1    1  -0.340   0.371  -0.195
    1UNL     C2    2  -0.475   0.322  -0.141
    1UNL     C3    3  -0.505   0.217  -0.069
    1UNL     C4    4  -0.642   0.174  -0.038
    1UNL     N1    5  -0.658   0.026   0.012
    1UNL     C5    6  -0.796  -0.008   0.067
    1UNL     C6    7  -0.546  -0.078  -0.011
    1UNL     C7    8  -0.487  -0.116   0.128
    1UNL     C8    9  -0.349  -0.168   0.121
    1UNL     C9   10  -0.232  -0.094   0.113
    1UNL     N2   11  -0.132  -0.187   0.129
    1UNL    C10   12  -0.183  -0.314   0.151
    1UNL    C11   13  -0.113  -0.430   0.179
    1UNL    C12   14  -0.181  -0.542   0.214
    1UNL    C13   15  -0.319  -0.537   0.218
    1UNL    C14   16  -0.389  -0.427   0.176
    1UNL    C15   17  -0.320  -0.309   0.140
    1UNL    C16   18  -0.212   0.051   0.122
    1UNL    C17   19  -0.069   0.081   0.160
    1UNL    C18   20  -0.027   0.109   0.296
    1UNL    C19   21   0.103   0.132   0.331
    1UNL    C20   22   0.208   0.129   0.234
    1UNL     N3   23   0.346   0.157   0.240
    1UNL    C21   24   0.396   0.139   0.114
    1UNL    C22   25   0.293   0.105   0.027
    1UNL    C23   26   0.175   0.101   0.101
    1UNL    C24   27   0.035   0.078   0.064
    1UNL    C25   28   0.303   0.053  -0.113
    1UNL    C26   29   0.404  -0.061  -0.143
    1UNL     N4   30   0.543  -0.016  -0.114
    1UNL    C27   31   0.597   0.091  -0.209
    1UNL    C28   32   0.681   0.193  -0.132
    1UNL    C29   33   0.796   0.116  -0.055
    1UNL    C30   34   0.744  -0.000   0.029
    1UNL    C31   35   0.790  -0.140  -0.016
    1UNL    C32   36   0.934  -0.169   0.023
    1UNL    C33   37   0.586   0.008   0.033
    1UNL    C34   38   0.543   0.146   0.084
    1UNL    C35   39   0.586   0.251  -0.026
    1UNL    C36   40  -0.255   0.128  -0.015
    1UNL    C37   41  -0.406   0.111  -0.030
    1UNL    C38   42  -0.446  -0.019  -0.107
    1UNL    C39   43  -0.504  -0.007  -0.249
    1UNL     O1   44  -0.445   0.064  -0.326
    1UNL     O2   45  -0.608  -0.088  -0.275
    1UNL    C40   46  -0.670  -0.053  -0.396
    1UNL     H1   47  -0.266   0.293  -0.200
    1UNL     H2   48  -0.303   0.456  -0.125
    1UNL     H3   49  -0.336   0.400  -0.305
    1UNL     H4   50  -0.556   0.385  -0.171
    1UNL     H5   51  -0.694   0.177  -0.136
    1UNL     H6   52  -0.695   0.240   0.025
    1UNL     H7   53  -0.818   0.042   0.158
    1UNL     H8   54  -0.878   0.026   0.004
    1UNL     H9   55  -0.814  -0.121   0.081
    1UNL    H10   56  -0.595  -0.157  -0.071
    1UNL    H11   57  -0.495  -0.040   0.203
    1UNL    H12   58  -0.554  -0.194   0.157
    1UNL    H13   59  -0.035  -0.166   0.117
    1UNL    H14   60  -0.004  -0.418   0.189
    1UNL    H15   61  -0.121  -0.626   0.254
    1UNL    H16   62  -0.359  -0.626   0.248
    1UNL    H17   63  -0.494  -0.442   0.166
    1UNL    H18   64  -0.273   0.086   0.196
    1UNL    H19   65  -0.105   0.104   0.371
    1UNL    H20   66   0.135   0.119   0.437
    1UNL    H21   67   0.394   0.195   0.322
    1UNL    H22   68   0.007   0.058  -0.040
    1UNL    H23   69   0.332   0.135  -0.167
    1UNL    H24   70   0.200   0.039  -0.146
    1UNL    H25   71   0.372  -0.142  -0.086
    1UNL    H26   72   0.395  -0.084  -0.253
    1UNL    H27   73   0.660   0.042  -0.289
    1UNL    H28   74   0.507   0.126  -0.262
    1UNL    H29   75   0.729   0.273  -0.195
    1UNL    H30   76   0.871   0.098  -0.123
    1UNL    H31   77   0.841   0.179   0.030
    1UNL    H32   78   0.773   0.017   0.137
    1UNL    H33   79   0.766  -0.155  -0.119
    1UNL    H34   80   0.721  -0.222   0.031
    1UNL    H35   81   0.932  -0.164   0.132
    1UNL    H36   82   0.970  -0.262  -0.013
    1UNL    H37   83   0.993  -0.081  -0.018
    1UNL    H38   84   0.531  -0.066   0.091
    1UNL    H39   85   0.601   0.173   0.170
    1UNL    H40   86   0.621   0.334   0.029
    1UNL    H41   87   0.491   0.283  -0.076
    1UNL    H42   88  -0.236   0.236  -0.007
    1UNL    H43   89  -0.198   0.097  -0.107
    1UNL    H44   90  -0.438   0.098   0.074
    1UNL    H45   91  -0.360  -0.077  -0.113
    1UNL    H46   92  -0.742  -0.133  -0.420
    1UNL    H47   93  -0.714   0.046  -0.378
    1UNL    H48   94  -0.593  -0.042  -0.475
   0.00000   0.00000   0.00000   0.00000   0.00000   0.00000   0.00000   0.00000   0.00000
Generated with MDTraj, t= 68.0
 94
    1UNL     C1    1  -0.346   0.371  -0.208
    1UNL     C2    2  -0.477   0.332  -0.141
    1UNL     C3    3  -0.496   0.223  -0.070
    1UNL     C4    4  -0.631   0.181  -0.022
    1UNL     N1    5  -0.656   0.034   0.028
    1UNL     C5    6  -0.799   0.003   0.061
    1UNL     C6    7  -0.551  -0.080   0.002
    1UNL     C7    8  -0.482  -0.109   0.136
    1UNL     C8    9  -0.344  -0.171   0.122
    1UNL     C9   10  -0.228  -0.102   0.110
    1UNL     N2   11  -0.123  -0.189   0.129
    1UNL    C10   12  -0.169  -0.320   0.162
    1UNL    C11   13  -0.108  -0.442   0.186
    1UNL    C12   14  -0.189  -0.551   0.201
    1UNL    C13   15  -0.327  -0.543   0.198
    1UNL    C14   16  -0.391  -0.422   0.172
    1UNL    C15   17  -0.310  -0.309   0.148
    1UNL    C16   18  -0.204   0.044   0.105
    1UNL    C17   19  -0.061   0.083   0.137
    1UNL    C18   20  -0.038   0.120   0.273
    1UNL    C19   21   0.092   0.133   0.316
    1UNL    C20   22   0.193   0.136   0.216
    1UNL     N3   23   0.322   0.164   0.231
    1UNL    C21   24   0.384   0.140   0.106
    1UNL    C22   25   0.284   0.116   0.012
    1UNL    C23   26   0.160   0.106   0.085
    1UNL    C24   27   0.032   0.078   0.043
    1UNL    C25   28   0.315   0.085  -0.130
    1UNL    C26   29   0.403  -0.041  -0.147
    1UNL     N4   30   0.544  -0.020  -0.107
    1UNL    C27   31   0.620   0.081  -0.196
    1UNL    C28   32   0.691   0.185  -0.108
    1UNL    C29   33   0.797   0.106  -0.021
    1UNL    C30   34   0.732  -0.013   0.059
    1UNL    C31   35   0.789  -0.149   0.019
    1UNL    C32   36   0.927  -0.151  -0.043
    1UNL    C33   37   0.578  -0.006   0.040
    1UNL    C34   38   0.535   0.139   0.086
    1UNL    C35   39   0.594   0.251  -0.016
    1UNL    C36   40  -0.246   0.121  -0.020
    1UNL    C37   41  -0.403   0.113  -0.034
    1UNL    C38   42  -0.447  -0.022  -0.095
    1UNL    C39   43  -0.500  -0.009  -0.229
    1UNL     O1   44  -0.457   0.064  -0.313
    1UNL     O2   45  -0.606  -0.094  -0.257
    1UNL    C40   46  -0.653  -0.076  -0.393
    1UNL     H1   47  -0.332   0.308  -0.295
    1UNL     H2   48  -0.264   0.353  -0.131
    1UNL     H3   49  -0.345   0.476  -0.250
    1UNL     H4   50  -0.563   0.394  -0.158
    1UNL     H5   51  -0.702   0.191  -0.099
    1UNL     H6   52  -0.658   0.249   0.057
    1UNL     H7   53  -0.832   0.061   0.147
    1UNL     H8   54  -0.878   0.023  -0.011
    1UNL     H9   55  -0.802  -0.105   0.090
    1UNL    H10   56  -0.600  -0.174  -0.035
    1UNL    H11   57  -0.483  -0.016   0.191
    1UNL    H12   58  -0.534  -0.170   0.203
    1UNL    H13   59  -0.032  -0.154   0.138
    1UNL    H14   60  -0.004  -0.449   0.201
    1UNL    H15   61  -0.144  -0.641   0.237
    1UNL    H16   62  -0.380  -0.646   0.212
    1UNL    H17   63  -0.499  -0.423   0.152
    1UNL    H18   64  -0.271   0.081   0.174
    1UNL    H19   65  -0.109   0.103   0.352
    1UNL    H20   66   0.115   0.129   0.417
    1UNL    H21   67   0.372   0.165   0.320
    1UNL    H22   68   0.010   0.057  -0.066
    1UNL    H23   69   0.359   0.169  -0.174
    1UNL    H24   70   0.221   0.078  -0.188
    1UNL    H25   71   0.358  -0.115  -0.088
    1UNL    H26   72   0.390  -0.063  -0.257
    1UNL    H27   73   0.669   0.029  -0.285
    1UNL    H28   74   0.534   0.127  -0.243
    1UNL    H29   75   0.740   0.265  -0.172
    1UNL    H30   76   0.872   0.065  -0.079
    1UNL    H31   77   0.844   0.192   0.038
    1UNL    H32   78   0.761   0.003   0.167
    1UNL    H33   79   0.715  -0.193  -0.043
    1UNL    H34   80   0.774  -0.219   0.110
    1UNL    H35   81   0.987  -0.087   0.028
    1UNL    H36   82   0.980  -0.242  -0.058
    1UNL    H37   83   0.923  -0.101  -0.140
    1UNL    H38   84   0.529  -0.088   0.094
    1UNL    H39   85   0.584   0.156   0.180
    1UNL    H40   86   0.638   0.330   0.040
    1UNL    H41   87   0.512   0.301  -0.071
    1UNL    H42   88  -0.213   0.221  -0.006
    1UNL    H43   89  -0.201   0.079  -0.117
    1UNL    H44   90  -0.435   0.107   0.071
    1UNL    H45   91  -0.366  -0.092  -0.094
    1UNL    H46   92  -0.735  -0.148  -0.406
    1UNL    H47   93  -0.688   0.029  -0.405
    1UNL    H48   94  -0.571  -0.089  -0.466
   0.00000   0.00000   0.00000   0.00000   0.00000   0.00000   0.00000   0.00000   0.00000
Generated with MDTraj, t= 69.0
 94
    1UNL     C1    1  -0.365   0.342  -0.223
    1UNL     C2    2  -0.492   0.307  -0.157
    1UNL     C3    3  -0.516   0.210  -0.069
    1UNL     C4    4  -0.658   0.177  -0.025
    1UNL     N1    5  -0.669   0.050   0.061
    1UNL     C5    6  -0.803  -0.004   0.058
    1UNL     C6    7  -0.569  -0.063   0.027
    1UNL     C7    8  -0.503  -0.125   0.149
    1UNL     C8    9  -0.358  -0.171   0.136
    1UNL     C9   10  -0.240  -0.094   0.117
    1UNL     N2   11  -0.136  -0.183   0.111
    1UNL    C10   12  -0.185  -0.311   0.137
    1UNL    C11   13  -0.121  -0.434   0.145
    1UNL    C12   14  -0.194  -0.544   0.169
    1UNL    C13   15  -0.331  -0.539   0.187
    1UNL    C14   16  -0.401  -0.421   0.188
    1UNL    C15   17  -0.324  -0.306   0.146
    1UNL    C16   18  -0.210   0.053   0.107
    1UNL    C17   19  -0.066   0.092   0.146
    1UNL    C18   20  -0.036   0.131   0.281
    1UNL    C19   21   0.094   0.162   0.316
    1UNL    C20   22   0.195   0.155   0.221
    1UNL     N3   23   0.335   0.181   0.234
    1UNL    C21   24   0.396   0.147   0.115
    1UNL    C22   25   0.297   0.114   0.025
    1UNL    C23   26   0.168   0.121   0.087
    1UNL    C24   27   0.037   0.088   0.052
    1UNL    C25   28   0.329   0.082  -0.121
    1UNL    C26   29   0.422  -0.043  -0.136
    1UNL     N4   30   0.565  -0.019  -0.106
    1UNL    C27   31   0.638   0.093  -0.189
    1UNL    C28   32   0.711   0.192  -0.098
    1UNL    C29   33   0.821   0.101  -0.018
    1UNL    C30   34   0.753  -0.019   0.054
    1UNL    C31   35   0.785  -0.148  -0.029
    1UNL    C32   36   0.934  -0.182  -0.053
    1UNL    C33   37   0.596  -0.002   0.040
    1UNL    C34   38   0.551   0.139   0.090
    1UNL    C35   39   0.610   0.246  -0.003
    1UNL    C36   40  -0.254   0.123  -0.019
    1UNL    C37   41  -0.412   0.101  -0.020
    1UNL    C38   42  -0.463  -0.033  -0.077
    1UNL    C39   43  -0.507  -0.019  -0.226
    1UNL     O1   44  -0.444   0.042  -0.309
    1UNL     O2   45  -0.613  -0.090  -0.262
    1UNL    C40   46  -0.627  -0.087  -0.406
    1UNL     H1   47  -0.300   0.253  -0.236
    1UNL     H2   48  -0.308   0.412  -0.160
    1UNL     H3   49  -0.375   0.378  -0.329
    1UNL     H4   50  -0.572   0.377  -0.175
    1UNL     H5   51  -0.712   0.167  -0.111
    1UNL     H6   52  -0.700   0.257   0.037
    1UNL     H7   53  -0.873   0.083   0.051
    1UNL     H8   54  -0.826  -0.059  -0.034
    1UNL     H9   55  -0.826  -0.064   0.142
    1UNL    H10   56  -0.629  -0.149  -0.016
    1UNL    H11   57  -0.493  -0.055   0.230
    1UNL    H12   58  -0.569  -0.194   0.188
    1UNL    H13   59  -0.042  -0.166   0.133
    1UNL    H14   60  -0.012  -0.440   0.142
    1UNL    H15   61  -0.138  -0.636   0.181
    1UNL    H16   62  -0.390  -0.623   0.188
    1UNL    H17   63  -0.506  -0.424   0.202
    1UNL    H18   64  -0.265   0.094   0.184
    1UNL    H19   65  -0.114   0.115   0.355
    1UNL    H20   66   0.125   0.176   0.422
    1UNL    H21   67   0.380   0.197   0.323
    1UNL    H22   68   0.018   0.061  -0.043
    1UNL    H23   69   0.359   0.180  -0.166
    1UNL    H24   70   0.229   0.063  -0.162
    1UNL    H25   71   0.373  -0.119  -0.081
    1UNL    H26   72   0.415  -0.070  -0.246
    1UNL    H27   73   0.704   0.032  -0.261
    1UNL    H28   74   0.562   0.131  -0.255
    1UNL    H29   75   0.764   0.266  -0.167
    1UNL    H30   76   0.902   0.084  -0.094
    1UNL    H31   77   0.869   0.154   0.067
    1UNL    H32   78   0.783  -0.029   0.162
    1UNL    H33   79   0.735  -0.142  -0.121
    1UNL    H34   80   0.725  -0.237   0.014
    1UNL    H35   81   0.986  -0.166   0.048
    1UNL    H36   82   0.962  -0.280  -0.088
    1UNL    H37   83   0.975  -0.110  -0.120
    1UNL    H38   84   0.548  -0.083   0.096
    1UNL    H39   85   0.583   0.152   0.192
    1UNL    H40   86   0.650   0.335   0.042
    1UNL    H41   87   0.521   0.286  -0.054
    1UNL    H42   88  -0.231   0.228  -0.014
    1UNL    H43   89  -0.211   0.073  -0.113
    1UNL    H44   90  -0.433   0.106   0.091
    1UNL    H45   91  -0.382  -0.108  -0.072
    1UNL    H46   92  -0.724  -0.130  -0.429
    1UNL    H47   93  -0.619   0.018  -0.446
    1UNL    H48   94  -0.541  -0.135  -0.452
   0.00000   0.00000   0.00000   0.00000   0.00000   0.00000   0.00000   0.00000   0.00000
Generated with MDTraj, t= 70.0
 94
    1UNL     C1    1  -0.376   0.315  -0.240
    1UNL     C2    2  -0.503   0.285  -0.178
    1UNL     C3    3  -0.519   0.204  -0.078
    1UNL     C4    4  -0.661   0.160  -0.032
    1UNL     N1    5  -0.677   0.016   0.004
    1UNL     C5    6  -0.797  -0.028   0.079
    1UNL     C6    7  -0.553  -0.073   0.027
    1UNL     C7    8  -0.497  -0.089   0.175
    1UNL     C8    9  -0.351  -0.135   0.164
    1UNL     C9   10  -0.233  -0.074   0.128
    1UNL     N2   11  -0.142  -0.172   0.101
    1UNL    C10   12  -0.193  -0.297   0.120
    1UNL    C11   13  -0.133  -0.426   0.102
    1UNL    C12   14  -0.213  -0.540   0.116
    1UNL    C13   15  -0.344  -0.517   0.160
    1UNL    C14   16  -0.396  -0.395   0.182
    1UNL    C15   17  -0.329  -0.279   0.148
    1UNL    C16   18  -0.205   0.073   0.122
    1UNL    C17   19  -0.061   0.104   0.158
    1UNL    C18   20  -0.026   0.150   0.287
    1UNL    C19   21   0.108   0.181   0.318
    1UNL    C20   22   0.210   0.147   0.228
    1UNL     N3   23   0.347   0.157   0.237
    1UNL    C21   24   0.395   0.123   0.112
    1UNL    C22   25   0.296   0.089   0.022
    1UNL    C23   26   0.177   0.112   0.097
    1UNL    C24   27   0.041   0.082   0.065
    1UNL    C25   28   0.309   0.056  -0.128
    1UNL    C26   29   0.420  -0.049  -0.167
    1UNL     N4   30   0.555   0.001  -0.125
    1UNL    C27   31   0.602   0.127  -0.185
    1UNL    C28   32   0.690   0.203  -0.089
    1UNL    C29   33   0.811   0.112  -0.036
    1UNL    C30   34   0.748  -0.020   0.023
    1UNL    C31   35   0.796  -0.150  -0.038
    1UNL    C32   36   0.929  -0.195   0.014
    1UNL    C33   37   0.591  -0.012   0.021
    1UNL    C34   38   0.545   0.115   0.099
    1UNL    C35   39   0.602   0.241   0.032
    1UNL    C36   40  -0.254   0.144  -0.006
    1UNL    C37   41  -0.413   0.116  -0.018
    1UNL    C38   42  -0.443  -0.027  -0.068
    1UNL    C39   43  -0.480  -0.039  -0.213
    1UNL     O1   44  -0.406  -0.002  -0.302
    1UNL     O2   45  -0.606  -0.091  -0.235
    1UNL    C40   46  -0.628  -0.082  -0.367
    1UNL     H1   47  -0.335   0.232  -0.307
    1UNL     H2   48  -0.305   0.333  -0.163
    1UNL     H3   49  -0.385   0.402  -0.311
    1UNL     H4   50  -0.592   0.337  -0.212
    1UNL     H5   51  -0.723   0.170  -0.111
    1UNL     H6   52  -0.692   0.223   0.052
    1UNL     H7   53  -0.815   0.012   0.183
    1UNL     H8   54  -0.882   0.006   0.019
    1UNL     H9   55  -0.793  -0.131   0.071
    1UNL    H10   56  -0.584  -0.176  -0.009
    1UNL    H11   57  -0.514   0.004   0.224
    1UNL    H12   58  -0.547  -0.156   0.236
    1UNL    H13   59  -0.053  -0.153   0.060
    1UNL    H14   60  -0.027  -0.438   0.091
    1UNL    H15   61  -0.180  -0.642   0.107
    1UNL    H16   62  -0.402  -0.611   0.166
    1UNL    H17   63  -0.493  -0.381   0.233
    1UNL    H18   64  -0.251   0.110   0.207
    1UNL    H19   65  -0.106   0.168   0.360
    1UNL    H20   66   0.134   0.221   0.411
    1UNL    H21   67   0.404   0.201   0.309
    1UNL    H22   68   0.021   0.039  -0.036
    1UNL    H23   69   0.336   0.159  -0.174
    1UNL    H24   70   0.204   0.044  -0.159
    1UNL    H25   71   0.402  -0.142  -0.119
    1UNL    H26   72   0.413  -0.070  -0.279
    1UNL    H27   73   0.651   0.104  -0.287
    1UNL    H28   74   0.513   0.181  -0.212
    1UNL    H29   75   0.733   0.299  -0.134
    1UNL    H30   76   0.889   0.078  -0.116
    1UNL    H31   77   0.872   0.166   0.038
    1UNL    H32   78   0.773  -0.021   0.131
    1UNL    H33   79   0.807  -0.138  -0.142
    1UNL    H34   80   0.720  -0.235  -0.029
    1UNL    H35   81   0.921  -0.217   0.126
    1UNL    H36   82   0.979  -0.280  -0.034
    1UNL    H37   83   0.990  -0.110   0.005
    1UNL    H38   84   0.542  -0.104   0.056
    1UNL    H39   85   0.583   0.104   0.199
    1UNL    H40   86   0.652   0.305   0.105
    1UNL    H41   87   0.529   0.313  -0.003
    1UNL    H42   88  -0.237   0.249   0.008
    1UNL    H43   89  -0.196   0.109  -0.096
    1UNL    H44   90  -0.446   0.126   0.097
    1UNL    H45   91  -0.349  -0.093  -0.063
    1UNL    H46   92  -0.720  -0.134  -0.381
    1UNL    H47   93  -0.637   0.024  -0.405
    1UNL    H48   94  -0.543  -0.123  -0.421
   0.00000   0.00000   0.00000   0.00000   0.00000   0.00000   0.00000   0.00000   0.00000
Generated with MDTraj, t= 71.0
 94
    1UNL     C1    1  -0.393   0.291  -0.269
    1UNL     C2    2  -0.507   0.271  -0.186
    1UNL     C3    3  -0.512   0.191  -0.082
    1UNL     C4    4  -0.641   0.160  -0.011
    1UNL     N1    5  -0.655   0.010   0.020
    1UNL     C5    6  -0.780  -0.036   0.098
    1UNL     C6    7  -0.538  -0.079   0.030
    1UNL     C7    8  -0.481  -0.070   0.177
    1UNL     C8    9  -0.344  -0.130   0.185
    1UNL     C9   10  -0.229  -0.057   0.154
    1UNL     N2   11  -0.135  -0.148   0.122
    1UNL    C10   12  -0.183  -0.279   0.130
    1UNL    C11   13  -0.140  -0.398   0.073
    1UNL    C12   14  -0.228  -0.503   0.066
    1UNL    C13   15  -0.361  -0.498   0.116
    1UNL    C14   16  -0.402  -0.382   0.173
    1UNL    C15   17  -0.316  -0.268   0.170
    1UNL    C16   18  -0.211   0.094   0.136
    1UNL    C17   19  -0.063   0.125   0.163
    1UNL    C18   20  -0.029   0.175   0.291
    1UNL    C19   21   0.105   0.174   0.325
    1UNL    C20   22   0.203   0.128   0.235
    1UNL     N3   23   0.336   0.120   0.242
    1UNL    C21   24   0.389   0.093   0.116
    1UNL    C22   25   0.287   0.072   0.024
    1UNL    C23   26   0.164   0.096   0.103
    1UNL    C24   27   0.026   0.097   0.071
    1UNL    C25   28   0.289   0.058  -0.124
    1UNL    C26   29   0.400  -0.030  -0.175
    1UNL     N4   30   0.542   0.002  -0.145
    1UNL    C27   31   0.589   0.134  -0.194
    1UNL    C28   32   0.677   0.206  -0.089
    1UNL    C29   33   0.790   0.110  -0.054
    1UNL    C30   34   0.744  -0.023   0.010
    1UNL    C31   35   0.816  -0.151  -0.031
    1UNL    C32   36   0.940  -0.180   0.054
    1UNL    C33   37   0.588  -0.019   0.002
    1UNL    C34   38   0.536   0.097   0.093
    1UNL    C35   39   0.593   0.232   0.043
    1UNL    C36   40  -0.250   0.137  -0.013
    1UNL    C37   41  -0.399   0.108  -0.028
    1UNL    C38   42  -0.427  -0.035  -0.067
    1UNL    C39   43  -0.469  -0.054  -0.213
    1UNL     O1   44  -0.381  -0.029  -0.297
    1UNL     O2   45  -0.599  -0.098  -0.235
    1UNL    C40   46  -0.611  -0.082  -0.371
    1UNL     H1   47  -0.334   0.196  -0.295
    1UNL     H2   48  -0.328   0.360  -0.218
    1UNL     H3   49  -0.433   0.327  -0.366
    1UNL     H4   50  -0.592   0.334  -0.208
    1UNL     H5   51  -0.716   0.186  -0.080
    1UNL     H6   52  -0.651   0.218   0.080
    1UNL     H7   53  -0.756  -0.052   0.205
    1UNL     H8   54  -0.848   0.051   0.097
    1UNL     H9   55  -0.829  -0.116   0.051
    1UNL    H10   56  -0.576  -0.183   0.001
    1UNL    H11   57  -0.472   0.027   0.213
    1UNL    H12   58  -0.550  -0.125   0.237
    1UNL    H13   59  -0.037  -0.112   0.116
    1UNL    H14   60  -0.039  -0.410   0.040
    1UNL    H15   61  -0.205  -0.598   0.023
    1UNL    H16   62  -0.440  -0.578   0.106
    1UNL    H17   63  -0.502  -0.366   0.207
    1UNL    H18   64  -0.267   0.137   0.212
    1UNL    H19   65  -0.107   0.197   0.361
    1UNL    H20   66   0.117   0.225   0.422
    1UNL    H21   67   0.390   0.120   0.328
    1UNL    H22   68  -0.003   0.045  -0.022
    1UNL    H23   69   0.291   0.163  -0.178
    1UNL    H24   70   0.196   0.012  -0.166
    1UNL    H25   71   0.375  -0.128  -0.139
    1UNL    H26   72   0.391  -0.036  -0.288
    1UNL    H27   73   0.640   0.123  -0.296
    1UNL    H28   74   0.497   0.189  -0.214
    1UNL    H29   75   0.715   0.308  -0.125
    1UNL    H30   76   0.839   0.071  -0.157
    1UNL    H31   77   0.871   0.157   0.001
    1UNL    H32   78   0.765  -0.010   0.119
    1UNL    H33   79   0.834  -0.151  -0.135
    1UNL    H34   80   0.739  -0.233  -0.014
    1UNL    H35   81   0.921  -0.193   0.161
    1UNL    H36   82   1.001  -0.268   0.024
    1UNL    H37   83   1.009  -0.098   0.049
    1UNL    H38   84   0.537  -0.111   0.033
    1UNL    H39   85   0.582   0.080   0.189
    1UNL    H40   86   0.648   0.291   0.117
    1UNL    H41   87   0.514   0.301   0.026
    1UNL    H42   88  -0.221   0.240  -0.038
    1UNL    H43   89  -0.203   0.080  -0.094
    1UNL    H44   90  -0.428   0.107   0.089
    1UNL    H45   91  -0.337  -0.109  -0.058
    1UNL    H46   92  -0.708  -0.096  -0.409
    1UNL    H47   93  -0.576   0.021  -0.405
    1UNL    H48   94  -0.536  -0.144  -0.419
   0.00000   0.00000   0.00000   0.00000   0.00000   0.00000   0.00000   0.00000   0.00000
Generated with MDTraj, t= 72.0
 94
    1UNL     C1    1  -0.386   0.254  -0.272
    1UNL     C2    2  -0.513   0.256  -0.197
    1UNL     C3    3  -0.519   0.197  -0.080
    1UNL     C4    4  -0.655   0.169  -0.014
    1UNL     N1    5  -0.675   0.025   0.031
    1UNL     C5    6  -0.811  -0.002   0.101
    1UNL     C6    7  -0.561  -0.077   0.038
    1UNL     C7    8  -0.508  -0.082   0.186
    1UNL     C8    9  -0.360  -0.126   0.177
    1UNL     C9   10  -0.240  -0.052   0.153
    1UNL     N2   11  -0.134  -0.140   0.131
    1UNL    C10   12  -0.188  -0.265   0.123
    1UNL    C11   13  -0.122  -0.381   0.084
    1UNL    C12   14  -0.198  -0.493   0.064
    1UNL    C13   15  -0.339  -0.490   0.089
    1UNL    C14   16  -0.407  -0.378   0.128
    1UNL    C15   17  -0.326  -0.263   0.144
    1UNL    C16   18  -0.211   0.097   0.138
    1UNL    C17   19  -0.067   0.128   0.165
    1UNL    C18   20  -0.026   0.135   0.301
    1UNL    C19   21   0.105   0.139   0.341
    1UNL    C20   22   0.196   0.134   0.241
    1UNL     N3   23   0.333   0.124   0.252
    1UNL    C21   24   0.395   0.108   0.129
    1UNL    C22   25   0.291   0.094   0.035
    1UNL    C23   26   0.166   0.119   0.102
    1UNL    C24   27   0.026   0.121   0.065
    1UNL    C25   28   0.302   0.060  -0.111
    1UNL    C26   29   0.404  -0.044  -0.153
    1UNL     N4   30   0.545  -0.015  -0.126
    1UNL    C27   31   0.598   0.109  -0.195
    1UNL    C28   32   0.682   0.196  -0.103
    1UNL    C29   33   0.799   0.110  -0.053
    1UNL    C30   34   0.749  -0.023   0.017
    1UNL    C31   35   0.817  -0.149  -0.045
    1UNL    C32   36   0.967  -0.172  -0.002
    1UNL    C33   37   0.588  -0.026   0.019
    1UNL    C34   38   0.541   0.103   0.098
    1UNL    C35   39   0.588   0.229   0.019
    1UNL    C36   40  -0.261   0.146  -0.006
    1UNL    C37   41  -0.411   0.111  -0.014
    1UNL    C38   42  -0.441  -0.035  -0.054
    1UNL    C39   43  -0.471  -0.056  -0.205
    1UNL     O1   44  -0.373  -0.049  -0.278
    1UNL     O2   45  -0.595  -0.085  -0.244
    1UNL    C40   46  -0.583  -0.108  -0.376
    1UNL     H1   47  -0.336   0.153  -0.276
    1UNL     H2   48  -0.315   0.319  -0.221
    1UNL     H3   49  -0.400   0.274  -0.380
    1UNL     H4   50  -0.598   0.310  -0.232
    1UNL     H5   51  -0.741   0.196  -0.076
    1UNL     H6   52  -0.654   0.231   0.071
    1UNL     H7   53  -0.805   0.066   0.186
    1UNL     H8   54  -0.904   0.006   0.043
    1UNL     H9   55  -0.802  -0.105   0.135
    1UNL    H10   56  -0.605  -0.177   0.004
    1UNL    H11   57  -0.514   0.007   0.234
    1UNL    H12   58  -0.566  -0.147   0.248
    1UNL    H13   59  -0.042  -0.109   0.087
    1UNL    H14   60  -0.015  -0.388   0.063
    1UNL    H15   61  -0.148  -0.585   0.036
    1UNL    H16   62  -0.397  -0.570   0.070
    1UNL    H17   63  -0.514  -0.364   0.128
    1UNL    H18   64  -0.259   0.142   0.220
    1UNL    H19   65  -0.113   0.134   0.370
    1UNL    H20   66   0.134   0.130   0.444
    1UNL    H21   67   0.380   0.134   0.342
    1UNL    H22   68   0.003   0.099  -0.032
    1UNL    H23   69   0.325   0.160  -0.166
    1UNL    H24   70   0.195   0.039  -0.148
    1UNL    H25   71   0.383  -0.143  -0.111
    1UNL    H26   72   0.396  -0.065  -0.265
    1UNL    H27   73   0.662   0.063  -0.274
    1UNL    H28   74   0.523   0.163  -0.257
    1UNL    H29   75   0.708   0.286  -0.170
    1UNL    H30   76   0.870   0.097  -0.143
    1UNL    H31   77   0.858   0.158   0.027
    1UNL    H32   78   0.778  -0.016   0.124
    1UNL    H33   79   0.806  -0.142  -0.151
    1UNL    H34   80   0.755  -0.234  -0.007
    1UNL    H35   81   0.992  -0.166   0.100
    1UNL    H36   82   0.998  -0.272  -0.041
    1UNL    H37   83   1.031  -0.102  -0.058
    1UNL    H38   84   0.545  -0.120   0.057
    1UNL    H39   85   0.593   0.099   0.192
    1UNL    H40   86   0.647   0.297   0.084
    1UNL    H41   87   0.505   0.289  -0.003
    1UNL    H42   88  -0.249   0.252  -0.039
    1UNL    H43   89  -0.205   0.098  -0.082
    1UNL    H44   90  -0.442   0.117   0.098
    1UNL    H45   91  -0.342  -0.094  -0.034
    1UNL    H46   92  -0.675  -0.140  -0.415
    1UNL    H47   93  -0.550  -0.018  -0.439
    1UNL    H48   94  -0.502  -0.181  -0.391
   0.00000   0.00000   0.00000   0.00000   0.00000   0.00000   0.00000   0.00000   0.00000
Generated with MDTraj, t= 73.0
 94
    1UNL     C1    1  -0.373   0.286  -0.283
    1UNL     C2    2  -0.501   0.273  -0.205
    1UNL     C3    3  -0.520   0.205  -0.094
    1UNL     C4    4  -0.660   0.176  -0.045
    1UNL     N1    5  -0.669   0.038   0.032
    1UNL     C5    6  -0.803   0.023   0.104
    1UNL     C6    7  -0.554  -0.065   0.030
    1UNL     C7    8  -0.506  -0.093   0.171
    1UNL     C8    9  -0.359  -0.134   0.170
    1UNL     C9   10  -0.239  -0.063   0.153
    1UNL     N2   11  -0.134  -0.152   0.143
    1UNL    C10   12  -0.179  -0.280   0.130
    1UNL    C11   13  -0.117  -0.393   0.092
    1UNL    C12   14  -0.188  -0.509   0.072
    1UNL    C13   15  -0.326  -0.510   0.097
    1UNL    C14   16  -0.397  -0.395   0.132
    1UNL    C15   17  -0.322  -0.278   0.147
    1UNL    C16   18  -0.217   0.084   0.141
    1UNL    C17   19  -0.065   0.109   0.169
    1UNL    C18   20  -0.033   0.127   0.302
    1UNL    C19   21   0.098   0.138   0.347
    1UNL    C20   22   0.200   0.127   0.251
    1UNL     N3   23   0.344   0.136   0.251
    1UNL    C21   24   0.394   0.124   0.123
    1UNL    C22   25   0.294   0.108   0.034
    1UNL    C23   26   0.173   0.112   0.113
    1UNL    C24   27   0.036   0.093   0.072
    1UNL    C25   28   0.313   0.074  -0.115
    1UNL    C26   29   0.400  -0.052  -0.139
    1UNL     N4   30   0.541  -0.023  -0.101
    1UNL    C27   31   0.609   0.070  -0.189
    1UNL    C28   32   0.678   0.183  -0.107
    1UNL    C29   33   0.791   0.113  -0.029
    1UNL    C30   34   0.743  -0.021   0.043
    1UNL    C31   35   0.785  -0.146  -0.039
    1UNL    C32   36   0.930  -0.154  -0.083
    1UNL    C33   37   0.586  -0.012   0.041
    1UNL    C34   38   0.539   0.128   0.095
    1UNL    C35   39   0.578   0.243  -0.003
    1UNL    C36   40  -0.267   0.158   0.019
    1UNL    C37   41  -0.411   0.122  -0.016
    1UNL    C38   42  -0.432  -0.021  -0.059
    1UNL    C39   43  -0.465  -0.054  -0.202
    1UNL     O1   44  -0.379  -0.048  -0.289
    1UNL     O2   45  -0.600  -0.084  -0.241
    1UNL    C40   46  -0.593  -0.125  -0.371
    1UNL     H1   47  -0.341   0.193  -0.331
    1UNL     H2   48  -0.292   0.313  -0.209
    1UNL     H3   49  -0.377   0.353  -0.370
    1UNL     H4   50  -0.589   0.320  -0.251
    1UNL     H5   51  -0.719   0.171  -0.139
    1UNL     H6   52  -0.703   0.253   0.009
    1UNL     H7   53  -0.800   0.092   0.183
    1UNL     H8   54  -0.886   0.031   0.035
    1UNL     H9   55  -0.804  -0.085   0.140
    1UNL    H10   56  -0.596  -0.163  -0.009
    1UNL    H11   57  -0.526  -0.014   0.234
    1UNL    H12   58  -0.562  -0.166   0.226
    1UNL    H13   59  -0.030  -0.130   0.133
    1UNL    H14   60  -0.013  -0.384   0.075
    1UNL    H15   61  -0.144  -0.602   0.043
    1UNL    H16   62  -0.383  -0.608   0.073
    1UNL    H17   63  -0.505  -0.380   0.127
    1UNL    H18   64  -0.253   0.134   0.227
    1UNL    H19   65  -0.105   0.163   0.369
    1UNL    H20   66   0.128   0.152   0.449
    1UNL    H21   67   0.402   0.152   0.333
    1UNL    H22   68   0.024   0.088  -0.040
    1UNL    H23   69   0.353   0.167  -0.162
    1UNL    H24   70   0.204   0.063  -0.163
    1UNL    H25   71   0.368  -0.145  -0.087
    1UNL    H26   72   0.402  -0.085  -0.245
    1UNL    H27   73   0.676   0.010  -0.251
    1UNL    H28   74   0.532   0.113  -0.259
    1UNL    H29   75   0.729   0.259  -0.173
    1UNL    H30   76   0.875   0.074  -0.081
    1UNL    H31   77   0.833   0.201   0.028
    1UNL    H32   78   0.781  -0.032   0.146
    1UNL    H33   79   0.729  -0.140  -0.131
    1UNL    H34   80   0.758  -0.236   0.020
    1UNL    H35   81   1.000  -0.128  -0.011
    1UNL    H36   82   0.946  -0.254  -0.131
    1UNL    H37   83   0.937  -0.088  -0.173
    1UNL    H38   84   0.548  -0.095   0.102
    1UNL    H39   85   0.589   0.137   0.190
    1UNL    H40   86   0.623   0.329   0.049
    1UNL    H41   87   0.494   0.275  -0.055
    1UNL    H42   88  -0.245   0.269   0.021
    1UNL    H43   89  -0.213   0.134  -0.067
    1UNL    H44   90  -0.459   0.124   0.088
    1UNL    H45   91  -0.334  -0.073  -0.029
    1UNL    H46   92  -0.688  -0.139  -0.416
    1UNL    H47   93  -0.544  -0.047  -0.441
    1UNL    H48   94  -0.532  -0.216  -0.375
   0.00000   0.00000   0.00000   0.00000   0.00000   0.00000   0.00000   0.00000   0.00000
Generated with MDTraj, t= 74.0
 94
    1UNL     C1    1  -0.317   0.328  -0.240
    1UNL     C2    2  -0.459   0.290  -0.194
    1UNL     C3    3  -0.486   0.201  -0.101
    1UNL     C4    4  -0.628   0.155  -0.071
    1UNL     N1    5  -0.635   0.050   0.041
    1UNL     C5    6  -0.770   0.019   0.104
    1UNL     C6    7  -0.548  -0.066   0.034
    1UNL     C7    8  -0.483  -0.096   0.170
    1UNL     C8    9  -0.342  -0.153   0.163
    1UNL     C9   10  -0.226  -0.082   0.141
    1UNL     N2   11  -0.126  -0.174   0.118
    1UNL    C10   12  -0.175  -0.303   0.121
    1UNL    C11   13  -0.120  -0.428   0.100
    1UNL    C12   14  -0.200  -0.537   0.118
    1UNL    C13   15  -0.339  -0.529   0.134
    1UNL    C14   16  -0.398  -0.406   0.150
    1UNL    C15   17  -0.312  -0.294   0.147
    1UNL    C16   18  -0.214   0.072   0.125
    1UNL    C17   19  -0.072   0.110   0.173
    1UNL    C18   20  -0.037   0.148   0.308
    1UNL    C19   21   0.094   0.169   0.345
    1UNL    C20   22   0.189   0.161   0.250
    1UNL     N3   23   0.327   0.161   0.261
    1UNL    C21   24   0.382   0.141   0.134
    1UNL    C22   25   0.277   0.114   0.045
    1UNL    C23   26   0.152   0.119   0.119
    1UNL    C24   27   0.024   0.093   0.081
    1UNL    C25   28   0.282   0.063  -0.097
    1UNL    C26   29   0.385  -0.053  -0.133
    1UNL     N4   30   0.528  -0.026  -0.116
    1UNL    C27   31   0.579   0.092  -0.192
    1UNL    C28   32   0.667   0.187  -0.106
    1UNL    C29   33   0.791   0.108  -0.048
    1UNL    C30   34   0.733  -0.015   0.031
    1UNL    C31   35   0.770  -0.159  -0.035
    1UNL    C32   36   0.911  -0.163  -0.091
    1UNL    C33   37   0.577  -0.007   0.030
    1UNL    C34   38   0.529   0.132   0.096
    1UNL    C35   39   0.579   0.247   0.007
    1UNL    C36   40  -0.245   0.132  -0.010
    1UNL    C37   41  -0.392   0.105  -0.032
    1UNL    C38   42  -0.433  -0.038  -0.070
    1UNL    C39   43  -0.475  -0.046  -0.217
    1UNL     O1   44  -0.405  -0.002  -0.307
    1UNL     O2   45  -0.597  -0.097  -0.245
    1UNL    C40   46  -0.612  -0.096  -0.382
    1UNL     H1   47  -0.253   0.243  -0.249
    1UNL     H2   48  -0.273   0.396  -0.159
    1UNL     H3   49  -0.315   0.371  -0.341
    1UNL     H4   50  -0.542   0.347  -0.229
    1UNL     H5   51  -0.682   0.111  -0.158
    1UNL     H6   52  -0.687   0.236  -0.047
    1UNL     H7   53  -0.789   0.076   0.191
    1UNL     H8   54  -0.840   0.024   0.023
    1UNL     H9   55  -0.774  -0.094   0.126
    1UNL    H10   56  -0.608  -0.147  -0.017
    1UNL    H11   57  -0.472  -0.007   0.233
    1UNL    H12   58  -0.550  -0.153   0.229
    1UNL    H13   59  -0.027  -0.150   0.103
    1UNL    H14   60  -0.011  -0.443   0.093
    1UNL    H15   61  -0.146  -0.633   0.113
    1UNL    H16   62  -0.411  -0.605   0.134
    1UNL    H17   63  -0.501  -0.379   0.167
    1UNL    H18   64  -0.289   0.119   0.185
    1UNL    H19   65  -0.122   0.150   0.383
    1UNL    H20   66   0.117   0.224   0.438
    1UNL    H21   67   0.376   0.159   0.351
    1UNL    H22   68   0.002   0.077  -0.022
    1UNL    H23   69   0.291   0.146  -0.169
    1UNL    H24   70   0.179   0.013  -0.129
    1UNL    H25   71   0.358  -0.150  -0.085
    1UNL    H26   72   0.379  -0.071  -0.241
    1UNL    H27   73   0.639   0.058  -0.275
    1UNL    H28   74   0.492   0.154  -0.231
    1UNL    H29   75   0.710   0.264  -0.174
    1UNL    H30   76   0.851   0.087  -0.126
    1UNL    H31   77   0.856   0.156   0.031
    1UNL    H32   78   0.764  -0.010   0.136
    1UNL    H33   79   0.694  -0.195  -0.104
    1UNL    H34   80   0.775  -0.225   0.053
    1UNL    H35   81   0.989  -0.123  -0.031
    1UNL    H36   82   0.933  -0.267  -0.117
    1UNL    H37   83   0.920  -0.116  -0.192
    1UNL    H38   84   0.536  -0.090   0.089
    1UNL    H39   85   0.589   0.145   0.185
    1UNL    H40   86   0.635   0.314   0.074
    1UNL    H41   87   0.497   0.293  -0.039
    1UNL    H42   88  -0.219   0.238  -0.036
    1UNL    H43   89  -0.194   0.073  -0.081
    1UNL    H44   90  -0.429   0.121   0.074
    1UNL    H45   91  -0.344  -0.104  -0.056
    1UNL    H46   92  -0.707  -0.125  -0.418
    1UNL    H47   93  -0.599   0.010  -0.427
    1UNL    H48   94  -0.534  -0.160  -0.427
   0.00000   0.00000   0.00000   0.00000   0.00000   0.00000   0.00000   0.00000   0.00000
Generated with MDTraj, t= 75.0
 94
    1UNL     C1    1  -0.298   0.352  -0.197
    1UNL     C2    2  -0.441   0.315  -0.164
    1UNL     C3    3  -0.479   0.211  -0.094
    1UNL     C4    4  -0.627   0.166  -0.074
    1UNL     N1    5  -0.643   0.050   0.019
    1UNL     C5    6  -0.789   0.037   0.068
    1UNL     C6    7  -0.556  -0.071   0.009
    1UNL     C7    8  -0.498  -0.114   0.148
    1UNL     C8    9  -0.356  -0.167   0.147
    1UNL     C9   10  -0.232  -0.098   0.137
    1UNL     N2   11  -0.130  -0.189   0.115
    1UNL    C10   12  -0.179  -0.317   0.136
    1UNL    C11   13  -0.118  -0.444   0.122
    1UNL    C12   14  -0.193  -0.562   0.142
    1UNL    C13   15  -0.331  -0.548   0.177
    1UNL    C14   16  -0.395  -0.427   0.175
    1UNL    C15   17  -0.320  -0.310   0.151
    1UNL    C16   18  -0.210   0.052   0.135
    1UNL    C17   19  -0.069   0.084   0.176
    1UNL    C18   20  -0.046   0.155   0.300
    1UNL    C19   21   0.083   0.190   0.337
    1UNL    C20   22   0.195   0.181   0.243
    1UNL     N3   23   0.337   0.186   0.246
    1UNL    C21   24   0.390   0.144   0.121
    1UNL    C22   25   0.284   0.106   0.043
    1UNL    C23   26   0.169   0.121   0.124
    1UNL    C24   27   0.042   0.066   0.094
    1UNL    C25   28   0.286   0.059  -0.103
    1UNL    C26   29   0.383  -0.046  -0.140
    1UNL     N4   30   0.520  -0.003  -0.119
    1UNL    C27   31   0.561   0.115  -0.195
    1UNL    C28   32   0.668   0.195  -0.116
    1UNL    C29   33   0.781   0.103  -0.070
    1UNL    C30   34   0.722  -0.019   0.016
    1UNL    C31   35   0.767  -0.145  -0.058
    1UNL    C32   36   0.916  -0.184  -0.042
    1UNL    C33   37   0.574  -0.007   0.025
    1UNL    C34   38   0.534   0.127   0.096
    1UNL    C35   39   0.600   0.250   0.014
    1UNL    C36   40  -0.237   0.116  -0.004
    1UNL    C37   41  -0.390   0.110  -0.030
    1UNL    C38   42  -0.437  -0.026  -0.083
    1UNL    C39   43  -0.471  -0.037  -0.231
    1UNL     O1   44  -0.406   0.016  -0.319
    1UNL     O2   45  -0.586  -0.106  -0.250
    1UNL    C40   46  -0.638  -0.085  -0.374
    1UNL     H1   47  -0.247   0.277  -0.255
    1UNL     H2   48  -0.244   0.373  -0.102
    1UNL     H3   49  -0.294   0.437  -0.267
    1UNL     H4   50  -0.522   0.380  -0.198
    1UNL     H5   51  -0.670   0.137  -0.171
    1UNL     H6   52  -0.701   0.239  -0.046
    1UNL     H7   53  -0.848   0.124   0.047
    1UNL     H8   54  -0.832  -0.058   0.038
    1UNL     H9   55  -0.785   0.032   0.180
    1UNL    H10   56  -0.619  -0.150  -0.040
    1UNL    H11   57  -0.507  -0.026   0.220
    1UNL    H12   58  -0.558  -0.189   0.190
    1UNL    H13   59  -0.040  -0.152   0.097
    1UNL    H14   60  -0.015  -0.452   0.100
    1UNL    H15   61  -0.158  -0.661   0.140
    1UNL    H16   62  -0.392  -0.635   0.195
    1UNL    H17   63  -0.497  -0.415   0.210
    1UNL    H18   64  -0.270   0.091   0.215
    1UNL    H19   65  -0.127   0.179   0.360
    1UNL    H20   66   0.092   0.250   0.422
    1UNL    H21   67   0.392   0.208   0.330
    1UNL    H22   68   0.031   0.023   0.000
    1UNL    H23   69   0.297   0.145  -0.170
    1UNL    H24   70   0.185   0.022  -0.121
    1UNL    H25   71   0.375  -0.140  -0.077
    1UNL    H26   72   0.371  -0.074  -0.243
    1UNL    H27   73   0.596   0.082  -0.293
    1UNL    H28   74   0.474   0.185  -0.204
    1UNL    H29   75   0.696   0.290  -0.167
    1UNL    H30   76   0.846   0.060  -0.147
    1UNL    H31   77   0.842   0.169  -0.006
    1UNL    H32   78   0.770  -0.012   0.114
    1UNL    H33   79   0.746  -0.134  -0.165
    1UNL    H34   80   0.708  -0.227  -0.021
    1UNL    H35   81   0.948  -0.215   0.060
    1UNL    H36   82   0.938  -0.256  -0.117
    1UNL    H37   83   0.985  -0.102  -0.070
    1UNL    H38   84   0.536  -0.093   0.082
    1UNL    H39   85   0.582   0.139   0.192
    1UNL    H40   86   0.679   0.296   0.073
    1UNL    H41   87   0.522   0.321   0.000
    1UNL    H42   88  -0.200   0.221   0.005
    1UNL    H43   89  -0.182   0.070  -0.082
    1UNL    H44   90  -0.430   0.109   0.074
    1UNL    H45   91  -0.362  -0.104  -0.069
    1UNL    H46   92  -0.706  -0.162  -0.397
    1UNL    H47   93  -0.699   0.012  -0.379
    1UNL    H48   94  -0.558  -0.085  -0.449
   0.00000   0.00000   0.00000   0.00000   0.00000   0.00000   0.00000   0.00000   0.00000
Generated with MDTraj, t= 76.0
 94
    1UNL     C1    1  -0.315   0.375  -0.175
    1UNL     C2    2  -0.449   0.319  -0.152
    1UNL     C3    3  -0.492   0.216  -0.077
    1UNL     C4    4  -0.639   0.171  -0.053
    1UNL     N1    5  -0.656   0.040   0.023
    1UNL     C5    6  -0.800  -0.002   0.040
    1UNL     C6    7  -0.549  -0.068   0.015
    1UNL     C7    8  -0.500  -0.113   0.155
    1UNL     C8    9  -0.358  -0.164   0.151
    1UNL     C9   10  -0.234  -0.103   0.136
    1UNL     N2   11  -0.129  -0.195   0.147
    1UNL    C10   12  -0.186  -0.318   0.158
    1UNL    C11   13  -0.123  -0.441   0.169
    1UNL    C12   14  -0.204  -0.550   0.181
    1UNL    C13   15  -0.348  -0.539   0.171
    1UNL    C14   16  -0.407  -0.419   0.165
    1UNL    C15   17  -0.328  -0.303   0.155
    1UNL    C16   18  -0.207   0.047   0.144
    1UNL    C17   19  -0.062   0.078   0.176
    1UNL    C18   20  -0.028   0.135   0.299
    1UNL    C19   21   0.101   0.170   0.324
    1UNL    C20   22   0.198   0.149   0.224
    1UNL     N3   23   0.329   0.163   0.229
    1UNL    C21   24   0.384   0.127   0.108
    1UNL    C22   25   0.290   0.083   0.020
    1UNL    C23   26   0.168   0.091   0.098
    1UNL    C24   27   0.034   0.048   0.078
    1UNL    C25   28   0.295   0.051  -0.128
    1UNL    C26   29   0.409  -0.039  -0.178
    1UNL     N4   30   0.546   0.003  -0.139
    1UNL    C27   31   0.596   0.118  -0.213
    1UNL    C28   32   0.680   0.208  -0.115
    1UNL    C29   33   0.794   0.128  -0.044
    1UNL    C30   34   0.727  -0.002   0.024
    1UNL    C31   35   0.777  -0.132  -0.045
    1UNL    C32   36   0.906  -0.190   0.004
    1UNL    C33   37   0.576   0.004   0.006
    1UNL    C34   38   0.532   0.134   0.080
    1UNL    C35   39   0.578   0.254  -0.005
    1UNL    C36   40  -0.247   0.124   0.005
    1UNL    C37   41  -0.392   0.110  -0.021
    1UNL    C38   42  -0.439  -0.021  -0.081
    1UNL    C39   43  -0.482  -0.015  -0.230
    1UNL     O1   44  -0.413   0.043  -0.311
    1UNL     O2   45  -0.590  -0.090  -0.262
    1UNL    C40   46  -0.607  -0.091  -0.405
    1UNL     H1   47  -0.237   0.301  -0.192
    1UNL     H2   48  -0.291   0.442  -0.092
    1UNL     H3   49  -0.309   0.428  -0.272
    1UNL     H4   50  -0.523   0.382  -0.193
    1UNL     H5   51  -0.695   0.153  -0.144
    1UNL     H6   52  -0.704   0.254  -0.014
    1UNL     H7   53  -0.862   0.019  -0.051
    1UNL     H8   54  -0.817  -0.102   0.079
    1UNL     H9   55  -0.843   0.067   0.110
    1UNL    H10   56  -0.608  -0.152  -0.026
    1UNL    H11   57  -0.512  -0.030   0.235
    1UNL    H12   58  -0.564  -0.192   0.187
    1UNL    H13   59  -0.033  -0.178   0.162
    1UNL    H14   60  -0.015  -0.453   0.174
    1UNL    H15   61  -0.172  -0.655   0.201
    1UNL    H16   62  -0.409  -0.633   0.175
    1UNL    H17   63  -0.514  -0.401   0.161
    1UNL    H18   64  -0.267   0.070   0.231
    1UNL    H19   65  -0.110   0.183   0.360
    1UNL    H20   66   0.144   0.203   0.422
    1UNL    H21   67   0.370   0.207   0.313
    1UNL    H22   68  -0.003  -0.015  -0.010
    1UNL    H23   69   0.298   0.152  -0.173
    1UNL    H24   70   0.204   0.011  -0.155
    1UNL    H25   71   0.396  -0.146  -0.141
    1UNL    H26   72   0.406  -0.039  -0.284
    1UNL    H27   73   0.666   0.092  -0.293
    1UNL    H28   74   0.502   0.164  -0.254
    1UNL    H29   75   0.711   0.297  -0.170
    1UNL    H30   76   0.884   0.108  -0.116
    1UNL    H31   77   0.834   0.184   0.039
    1UNL    H32   78   0.748   0.005   0.132
    1UNL    H33   79   0.779  -0.124  -0.155
    1UNL    H34   80   0.704  -0.207  -0.030
    1UNL    H35   81   0.925  -0.180   0.116
    1UNL    H36   82   0.913  -0.288  -0.032
    1UNL    H37   83   0.990  -0.145  -0.047
    1UNL    H38   84   0.536  -0.082   0.063
    1UNL    H39   85   0.581   0.146   0.176
    1UNL    H40   86   0.622   0.321   0.065
    1UNL    H41   87   0.494   0.304  -0.054
    1UNL    H42   88  -0.229   0.229   0.024
    1UNL    H43   89  -0.188   0.088  -0.080
    1UNL    H44   90  -0.429   0.107   0.083
    1UNL    H45   91  -0.359  -0.092  -0.083
    1UNL    H46   92  -0.699  -0.135  -0.433
    1UNL    H47   93  -0.609   0.015  -0.445
    1UNL    H48   94  -0.523  -0.147  -0.445
   0.00000   0.00000   0.00000   0.00000   0.00000   0.00000   0.00000   0.00000   0.00000
Generated with MDTraj, t= 77.0
 94
    1UNL     C1    1  -0.365   0.378  -0.184
    1UNL     C2    2  -0.489   0.330  -0.129
    1UNL     C3    3  -0.504   0.219  -0.061
    1UNL     C4    4  -0.650   0.163  -0.040
    1UNL     N1    5  -0.683   0.029   0.024
    1UNL     C5    6  -0.812  -0.039   0.016
    1UNL     C6    7  -0.565  -0.073   0.010
    1UNL     C7    8  -0.516  -0.112   0.151
    1UNL     C8    9  -0.377  -0.163   0.154
    1UNL     C9   10  -0.253  -0.094   0.151
    1UNL     N2   11  -0.149  -0.186   0.164
    1UNL    C10   12  -0.199  -0.311   0.175
    1UNL    C11   13  -0.144  -0.439   0.201
    1UNL    C12   14  -0.226  -0.547   0.201
    1UNL    C13   15  -0.365  -0.543   0.177
    1UNL    C14   16  -0.423  -0.422   0.161
    1UNL    C15   17  -0.339  -0.301   0.163
    1UNL    C16   18  -0.211   0.055   0.136
    1UNL    C17   19  -0.068   0.078   0.152
    1UNL    C18   20  -0.025   0.096   0.284
    1UNL    C19   21   0.103   0.116   0.323
    1UNL    C20   22   0.202   0.118   0.223
    1UNL     N3   23   0.339   0.133   0.221
    1UNL    C21   24   0.393   0.129   0.095
    1UNL    C22   25   0.290   0.105   0.008
    1UNL    C23   26   0.161   0.095   0.083
    1UNL    C24   27   0.030   0.076   0.054
    1UNL    C25   28   0.312   0.078  -0.138
    1UNL    C26   29   0.415  -0.035  -0.175
    1UNL     N4   30   0.561  -0.014  -0.139
    1UNL    C27   31   0.618   0.094  -0.218
    1UNL    C28   32   0.692   0.201  -0.125
    1UNL    C29   33   0.811   0.130  -0.058
    1UNL    C30   34   0.752   0.003   0.022
    1UNL    C31   35   0.823  -0.128  -0.037
    1UNL    C32   36   0.959  -0.151   0.029
    1UNL    C33   37   0.597  -0.001   0.005
    1UNL    C34   38   0.540   0.134   0.062
    1UNL    C35   39   0.594   0.254  -0.023
    1UNL    C36   40  -0.268   0.138   0.009
    1UNL    C37   41  -0.416   0.118  -0.005
    1UNL    C38   42  -0.446  -0.016  -0.072
    1UNL    C39   43  -0.468  -0.007  -0.218
    1UNL     O1   44  -0.388   0.052  -0.285
    1UNL     O2   45  -0.563  -0.081  -0.272
    1UNL    C40   46  -0.573  -0.062  -0.416
    1UNL     H1   47  -0.330   0.308  -0.263
    1UNL     H2   48  -0.296   0.397  -0.107
    1UNL     H3   49  -0.378   0.471  -0.243
    1UNL     H4   50  -0.582   0.388  -0.145
    1UNL     H5   51  -0.707   0.171  -0.130
    1UNL     H6   52  -0.714   0.232   0.027
    1UNL     H7   53  -0.812  -0.136  -0.045
    1UNL     H8   54  -0.841  -0.064   0.117
    1UNL     H9   55  -0.892   0.016  -0.026
    1UNL    H10   56  -0.595  -0.168  -0.034
    1UNL    H11   57  -0.516  -0.017   0.217
    1UNL    H12   58  -0.582  -0.184   0.203
    1UNL    H13   59  -0.053  -0.163   0.166
    1UNL    H14   60  -0.039  -0.449   0.222
    1UNL    H15   61  -0.178  -0.636   0.227
    1UNL    H16   62  -0.427  -0.625   0.172
    1UNL    H17   63  -0.526  -0.407   0.129
    1UNL    H18   64  -0.264   0.096   0.221
    1UNL    H19   65  -0.098   0.101   0.360
    1UNL    H20   66   0.126   0.131   0.424
    1UNL    H21   67   0.389   0.127   0.311
    1UNL    H22   68   0.010   0.042  -0.042
    1UNL    H23   69   0.332   0.169  -0.197
    1UNL    H24   70   0.224   0.044  -0.177
    1UNL    H25   71   0.379  -0.137  -0.137
    1UNL    H26   72   0.415  -0.036  -0.281
    1UNL    H27   73   0.683   0.044  -0.293
    1UNL    H28   74   0.546   0.158  -0.274
    1UNL    H29   75   0.738   0.279  -0.184
    1UNL    H30   76   0.889   0.082  -0.135
    1UNL    H31   77   0.869   0.190   0.008
    1UNL    H32   78   0.774   0.009   0.129
    1UNL    H33   79   0.822  -0.136  -0.148
    1UNL    H34   80   0.763  -0.209  -0.012
    1UNL    H35   81   0.954  -0.203   0.131
    1UNL    H36   82   1.025  -0.204  -0.033
    1UNL    H37   83   1.009  -0.059   0.046
    1UNL    H38   84   0.561  -0.089   0.062
    1UNL    H39   85   0.577   0.154   0.163
    1UNL    H40   86   0.640   0.327   0.035
    1UNL    H41   87   0.510   0.300  -0.076
    1UNL    H42   88  -0.242   0.241   0.013
    1UNL    H43   89  -0.230   0.091  -0.083
    1UNL    H44   90  -0.445   0.116   0.097
    1UNL    H45   91  -0.358  -0.074  -0.068
    1UNL    H46   92  -0.673  -0.091  -0.437
    1UNL    H47   93  -0.558   0.044  -0.447
    1UNL    H48   94  -0.506  -0.135  -0.459
   0.00000   0.00000   0.00000   0.00000   0.00000   0.00000   0.00000   0.00000   0.00000
Generated with MDTraj, t= 78.0
 94
    1UNL     C1    1  -0.382   0.372  -0.181
    1UNL     C2    2  -0.512   0.310  -0.138
    1UNL     C3    3  -0.532   0.210  -0.050
    1UNL     C4    4  -0.674   0.157  -0.015
    1UNL     N1    5  -0.689   0.005  -0.005
    1UNL     C5    6  -0.827  -0.051  -0.018
    1UNL     C6    7  -0.565  -0.080   0.001
    1UNL     C7    8  -0.515  -0.103   0.142
    1UNL     C8    9  -0.374  -0.145   0.161
    1UNL     C9   10  -0.249  -0.083   0.148
    1UNL     N2   11  -0.150  -0.181   0.155
    1UNL    C10   12  -0.205  -0.309   0.172
    1UNL    C11   13  -0.151  -0.441   0.181
    1UNL    C12   14  -0.237  -0.549   0.193
    1UNL    C13   15  -0.370  -0.522   0.217
    1UNL    C14   16  -0.428  -0.395   0.205
    1UNL    C15   17  -0.345  -0.288   0.181
    1UNL    C16   18  -0.212   0.068   0.132
    1UNL    C17   19  -0.057   0.077   0.151
    1UNL    C18   20  -0.018   0.073   0.288
    1UNL    C19   21   0.115   0.077   0.328
    1UNL    C20   22   0.214   0.095   0.224
    1UNL     N3   23   0.351   0.111   0.229
    1UNL    C21   24   0.403   0.122   0.099
    1UNL    C22   25   0.300   0.107   0.013
    1UNL    C23   26   0.180   0.098   0.093
    1UNL    C24   27   0.038   0.088   0.050
    1UNL    C25   28   0.312   0.060  -0.131
    1UNL    C26   29   0.413  -0.049  -0.168
    1UNL     N4   30   0.557  -0.014  -0.138
    1UNL    C27   31   0.609   0.088  -0.221
    1UNL    C28   32   0.683   0.199  -0.137
    1UNL    C29   33   0.804   0.128  -0.071
    1UNL    C30   34   0.756   0.003   0.023
    1UNL    C31   35   0.833  -0.124  -0.010
    1UNL    C32   36   0.987  -0.108   0.006
    1UNL    C33   37   0.603  -0.004   0.007
    1UNL    C34   38   0.547   0.132   0.065
    1UNL    C35   39   0.584   0.251  -0.028
    1UNL    C36   40  -0.273   0.144   0.011
    1UNL    C37   41  -0.422   0.113   0.001
    1UNL    C38   42  -0.443  -0.020  -0.073
    1UNL    C39   43  -0.452  -0.004  -0.226
    1UNL     O1   44  -0.369   0.063  -0.284
    1UNL     O2   45  -0.565  -0.056  -0.284
    1UNL    C40   46  -0.565  -0.037  -0.428
    1UNL     H1   47  -0.313   0.287  -0.202
    1UNL     H2   48  -0.349   0.435  -0.104
    1UNL     H3   49  -0.387   0.422  -0.278
    1UNL     H4   50  -0.600   0.351  -0.181
    1UNL     H5   51  -0.736   0.171  -0.100
    1UNL     H6   52  -0.732   0.219   0.067
    1UNL     H7   53  -0.886  -0.027  -0.113
    1UNL     H8   54  -0.843  -0.158   0.001
    1UNL     H9   55  -0.881   0.001   0.057
    1UNL    H10   56  -0.578  -0.171  -0.055
    1UNL    H11   57  -0.541  -0.013   0.206
    1UNL    H12   58  -0.580  -0.183   0.193
    1UNL    H13   59  -0.052  -0.164   0.136
    1UNL    H14   60  -0.046  -0.453   0.179
    1UNL    H15   61  -0.199  -0.652   0.197
    1UNL    H16   62  -0.430  -0.617   0.232
    1UNL    H17   63  -0.534  -0.383   0.209
    1UNL    H18   64  -0.259   0.122   0.215
    1UNL    H19   65  -0.096   0.050   0.360
    1UNL    H20   66   0.146   0.094   0.432
    1UNL    H21   67   0.417   0.117   0.307
    1UNL    H22   68   0.005   0.085  -0.054
    1UNL    H23   69   0.337   0.143  -0.190
    1UNL    H24   70   0.214   0.038  -0.162
    1UNL    H25   71   0.387  -0.148  -0.114
    1UNL    H26   72   0.413  -0.069  -0.272
    1UNL    H27   73   0.677   0.045  -0.301
    1UNL    H28   74   0.529   0.141  -0.276
    1UNL    H29   75   0.723   0.275  -0.201
    1UNL    H30   76   0.878   0.079  -0.146
    1UNL    H31   77   0.860   0.196  -0.012
    1UNL    H32   78   0.780   0.021   0.129
    1UNL    H33   79   0.807  -0.164  -0.110
    1UNL    H34   80   0.799  -0.201   0.050
    1UNL    H35   81   1.011  -0.029   0.083
    1UNL    H36   82   1.039  -0.201   0.026
    1UNL    H37   83   1.023  -0.073  -0.087
    1UNL    H38   84   0.567  -0.093   0.061
    1UNL    H39   85   0.598   0.152   0.160
    1UNL    H40   86   0.626   0.321   0.035
    1UNL    H41   87   0.492   0.297  -0.068
    1UNL    H42   88  -0.258   0.244   0.040
    1UNL    H43   89  -0.226   0.124  -0.087
    1UNL    H44   90  -0.445   0.105   0.099
    1UNL    H45   91  -0.360  -0.082  -0.058
    1UNL    H46   92  -0.614  -0.123  -0.471
    1UNL    H47   93  -0.619   0.056  -0.451
    1UNL    H48   94  -0.460  -0.038  -0.457
   0.00000   0.00000   0.00000   0.00000   0.00000   0.00000   0.00000   0.00000   0.00000
Generated with MDTraj, t= 79.0
 94
    1UNL     C1    1  -0.376   0.363  -0.200
    1UNL     C2    2  -0.495   0.311  -0.130
    1UNL     C3    3  -0.509   0.209  -0.049
    1UNL     C4    4  -0.639   0.158  -0.002
    1UNL     N1    5  -0.658   0.013  -0.025
    1UNL     C5    6  -0.794  -0.050  -0.058
    1UNL     C6    7  -0.547  -0.075   0.005
    1UNL     C7    8  -0.510  -0.095   0.156
    1UNL     C8    9  -0.372  -0.148   0.167
    1UNL     C9   10  -0.252  -0.085   0.136
    1UNL     N2   11  -0.157  -0.182   0.126
    1UNL    C10   12  -0.213  -0.304   0.153
    1UNL    C11   13  -0.153  -0.430   0.159
    1UNL    C12   14  -0.226  -0.532   0.213
    1UNL    C13   15  -0.360  -0.519   0.235
    1UNL    C14   16  -0.421  -0.396   0.224
    1UNL    C15   17  -0.347  -0.284   0.190
    1UNL    C16   18  -0.207   0.058   0.131
    1UNL    C17   19  -0.064   0.077   0.163
    1UNL    C18   20  -0.021   0.097   0.302
    1UNL    C19   21   0.109   0.104   0.329
    1UNL    C20   22   0.200   0.093   0.227
    1UNL     N3   23   0.335   0.115   0.239
    1UNL    C21   24   0.387   0.110   0.113
    1UNL    C22   25   0.285   0.074   0.024
    1UNL    C23   26   0.168   0.068   0.094
    1UNL    C24   27   0.032   0.049   0.067
    1UNL    C25   28   0.304   0.039  -0.128
    1UNL    C26   29   0.410  -0.065  -0.152
    1UNL     N4   30   0.547  -0.019  -0.127
    1UNL    C27   31   0.583   0.094  -0.217
    1UNL    C28   32   0.656   0.205  -0.133
    1UNL    C29   33   0.783   0.149  -0.071
    1UNL    C30   34   0.753   0.015   0.011
    1UNL    C31   35   0.829  -0.110  -0.033
    1UNL    C32   36   0.984  -0.115  -0.030
    1UNL    C33   37   0.596  -0.002   0.015
    1UNL    C34   38   0.531   0.132   0.078
    1UNL    C35   39   0.557   0.246  -0.018
    1UNL    C36   40  -0.246   0.142   0.012
    1UNL    C37   41  -0.397   0.114  -0.009
    1UNL    C38   42  -0.423  -0.025  -0.082
    1UNL    C39   43  -0.447  -0.005  -0.231
    1UNL     O1   44  -0.369   0.061  -0.297
    1UNL     O2   45  -0.562  -0.058  -0.283
    1UNL    C40   46  -0.582  -0.018  -0.418
    1UNL     H1   47  -0.343   0.290  -0.274
    1UNL     H2   48  -0.298   0.385  -0.127
    1UNL     H3   49  -0.391   0.452  -0.259
    1UNL     H4   50  -0.590   0.366  -0.138
    1UNL     H5   51  -0.728   0.213  -0.028
    1UNL     H6   52  -0.638   0.159   0.115
    1UNL     H7   53  -0.884   0.012  -0.055
    1UNL     H8   54  -0.787  -0.092  -0.160
    1UNL     H9   55  -0.815  -0.132   0.010
    1UNL    H10   56  -0.580  -0.167  -0.040
    1UNL    H11   57  -0.511  -0.003   0.222
    1UNL    H12   58  -0.589  -0.170   0.203
    1UNL    H13   59  -0.052  -0.173   0.119
    1UNL    H14   60  -0.044  -0.439   0.143
    1UNL    H15   61  -0.176  -0.627   0.225
    1UNL    H16   62  -0.422  -0.596   0.266
    1UNL    H17   63  -0.527  -0.396   0.249
    1UNL    H18   64  -0.258   0.114   0.212
    1UNL    H19   65  -0.095   0.102   0.380
    1UNL    H20   66   0.140   0.118   0.432
    1UNL    H21   67   0.383   0.139   0.327
    1UNL    H22   68   0.002   0.040  -0.039
    1UNL    H23   69   0.315   0.124  -0.181
    1UNL    H24   70   0.214  -0.002  -0.173
    1UNL    H25   71   0.399  -0.156  -0.084
    1UNL    H26   72   0.403  -0.101  -0.252
    1UNL    H27   73   0.666   0.056  -0.287
    1UNL    H28   74   0.505   0.129  -0.286
    1UNL    H29   75   0.666   0.285  -0.202
    1UNL    H30   76   0.858   0.143  -0.148
    1UNL    H31   77   0.823   0.220   0.002
    1UNL    H32   78   0.778   0.033   0.118
    1UNL    H33   79   0.785  -0.135  -0.131
    1UNL    H34   80   0.795  -0.186   0.027
    1UNL    H35   81   1.031  -0.106   0.067
    1UNL    H36   82   1.019  -0.208  -0.081
    1UNL    H37   83   1.021  -0.036  -0.089
    1UNL    H38   84   0.564  -0.087   0.075
    1UNL    H39   85   0.581   0.155   0.174
    1UNL    H40   86   0.590   0.326   0.041
    1UNL    H41   87   0.460   0.285  -0.048
    1UNL    H42   88  -0.231   0.246   0.023
    1UNL    H43   89  -0.176   0.101  -0.062
    1UNL    H44   90  -0.426   0.101   0.092
    1UNL    H45   91  -0.345  -0.092  -0.068
    1UNL    H46   92  -0.682  -0.055  -0.441
    1UNL    H47   93  -0.578   0.093  -0.411
    1UNL    H48   94  -0.504  -0.063  -0.480
   0.00000   0.00000   0.00000   0.00000   0.00000   0.00000   0.00000   0.00000   0.00000
Generated with MDTraj, t= 80.0
 94
    1UNL     C1    1  -0.342   0.350  -0.213
    1UNL     C2    2  -0.475   0.322  -0.152
    1UNL     C3    3  -0.498   0.224  -0.065
    1UNL     C4    4  -0.636   0.192  -0.028
    1UNL     N1    5  -0.669   0.037  -0.007
    1UNL     C5    6  -0.785  -0.010  -0.089
    1UNL     C6    7  -0.560  -0.067  -0.003
    1UNL     C7    8  -0.502  -0.104   0.144
    1UNL     C8    9  -0.361  -0.171   0.151
    1UNL     C9   10  -0.237  -0.108   0.137
    1UNL     N2   11  -0.135  -0.199   0.136
    1UNL    C10   12  -0.193  -0.322   0.169
    1UNL    C11   13  -0.131  -0.450   0.189
    1UNL    C12   14  -0.215  -0.552   0.214
    1UNL    C13   15  -0.353  -0.535   0.230
    1UNL    C14   16  -0.412  -0.418   0.199
    1UNL    C15   17  -0.330  -0.307   0.173
    1UNL    C16   18  -0.209   0.041   0.142
    1UNL    C17   19  -0.065   0.077   0.183
    1UNL    C18   20  -0.042   0.144   0.303
    1UNL    C19   21   0.097   0.156   0.344
    1UNL    C20   22   0.206   0.122   0.256
    1UNL     N3   23   0.343   0.139   0.246
    1UNL    C21   24   0.389   0.092   0.129
    1UNL    C22   25   0.286   0.040   0.052
    1UNL    C23   26   0.168   0.070   0.128
    1UNL    C24   27   0.035   0.053   0.096
    1UNL    C25   28   0.290   0.010  -0.096
    1UNL    C26   29   0.408  -0.078  -0.141
    1UNL     N4   30   0.543  -0.015  -0.131
    1UNL    C27   31   0.573   0.104  -0.212
    1UNL    C28   32   0.642   0.210  -0.126
    1UNL    C29   33   0.768   0.154  -0.071
    1UNL    C30   34   0.751   0.014  -0.009
    1UNL    C31   35   0.825  -0.099  -0.088
    1UNL    C32   36   0.977  -0.116  -0.068
    1UNL    C33   37   0.598  -0.008   0.003
    1UNL    C34   38   0.530   0.117   0.080
    1UNL    C35   39   0.543   0.246  -0.004
    1UNL    C36   40  -0.251   0.131   0.022
    1UNL    C37   41  -0.402   0.119  -0.010
    1UNL    C38   42  -0.440  -0.012  -0.082
    1UNL    C39   43  -0.469   0.003  -0.232
    1UNL     O1   44  -0.374   0.046  -0.295
    1UNL     O2   45  -0.590  -0.047  -0.281
    1UNL    C40   46  -0.587  -0.034  -0.420
    1UNL     H1   47  -0.296   0.255  -0.233
    1UNL     H2   48  -0.278   0.408  -0.140
    1UNL     H3   49  -0.341   0.397  -0.308
    1UNL     H4   50  -0.562   0.379  -0.177
    1UNL     H5   51  -0.705   0.231  -0.105
    1UNL     H6   52  -0.661   0.243   0.071
    1UNL     H7   53  -0.880   0.031  -0.067
    1UNL     H8   54  -0.760   0.020  -0.193
    1UNL     H9   55  -0.799  -0.122  -0.077
    1UNL    H10   56  -0.603  -0.152  -0.050
    1UNL    H11   57  -0.505  -0.010   0.209
    1UNL    H12   58  -0.578  -0.177   0.193
    1UNL    H13   59  -0.031  -0.174   0.138
    1UNL    H14   60  -0.028  -0.462   0.175
    1UNL    H15   61  -0.175  -0.651   0.221
    1UNL    H16   62  -0.410  -0.621   0.271
    1UNL    H17   63  -0.515  -0.410   0.221
    1UNL    H18   64  -0.269   0.094   0.222
    1UNL    H19   65  -0.121   0.179   0.366
    1UNL    H20   66   0.132   0.188   0.438
    1UNL    H21   67   0.400   0.175   0.323
    1UNL    H22   68   0.014   0.015   0.002
    1UNL    H23   69   0.290   0.088  -0.167
    1UNL    H24   70   0.201  -0.045  -0.125
    1UNL    H25   71   0.402  -0.172  -0.079
    1UNL    H26   72   0.402  -0.102  -0.247
    1UNL    H27   73   0.639   0.059  -0.295
    1UNL    H28   74   0.485   0.151  -0.258
    1UNL    H29   75   0.660   0.300  -0.182
    1UNL    H30   76   0.833   0.138  -0.145
    1UNL    H31   77   0.818   0.233  -0.011
    1UNL    H32   78   0.793   0.017   0.094
    1UNL    H33   79   0.798  -0.087  -0.194
    1UNL    H34   80   0.776  -0.184  -0.054
    1UNL    H35   81   1.000  -0.146   0.029
    1UNL    H36   82   1.033  -0.182  -0.141
    1UNL    H37   83   1.022  -0.018  -0.073
    1UNL    H38   84   0.580  -0.105   0.052
    1UNL    H39   85   0.584   0.135   0.176
    1UNL    H40   86   0.576   0.330   0.051
    1UNL    H41   87   0.443   0.281  -0.026
    1UNL    H42   88  -0.230   0.233   0.052
    1UNL    H43   89  -0.194   0.124  -0.070
    1UNL    H44   90  -0.442   0.105   0.091
    1UNL    H45   91  -0.357  -0.073  -0.064
    1UNL    H46   92  -0.692  -0.047  -0.455
    1UNL    H47   93  -0.547   0.069  -0.431
    1UNL    H48   94  -0.523  -0.110  -0.465
   0.00000   0.00000   0.00000   0.00000   0.00000   0.00000   0.00000   0.00000   0.00000
Generated with MDTraj, t= 81.0
 94
    1UNL     C1    1  -0.306   0.320  -0.211
    1UNL     C2    2  -0.442   0.304  -0.147
    1UNL     C3    3  -0.480   0.209  -0.062
    1UNL     C4    4  -0.617   0.201  -0.010
    1UNL     N1    5  -0.657   0.045  -0.002
    1UNL     C5    6  -0.795   0.011  -0.046
    1UNL     C6    7  -0.558  -0.074  -0.016
    1UNL     C7    8  -0.516  -0.120   0.129
    1UNL     C8    9  -0.368  -0.160   0.136
    1UNL     C9   10  -0.251  -0.087   0.157
    1UNL     N2   11  -0.154  -0.181   0.187
    1UNL    C10   12  -0.201  -0.309   0.187
    1UNL    C11   13  -0.138  -0.433   0.213
    1UNL    C12   14  -0.213  -0.546   0.208
    1UNL    C13   15  -0.352  -0.536   0.169
    1UNL    C14   16  -0.414  -0.417   0.151
    1UNL    C15   17  -0.341  -0.295   0.159
    1UNL    C16   18  -0.207   0.056   0.151
    1UNL    C17   19  -0.064   0.083   0.183
    1UNL    C18   20  -0.027   0.154   0.296
    1UNL    C19   21   0.102   0.177   0.326
    1UNL    C20   22   0.198   0.126   0.245
    1UNL     N3   23   0.335   0.155   0.244
    1UNL    C21   24   0.387   0.104   0.124
    1UNL    C22   25   0.286   0.046   0.050
    1UNL    C23   26   0.166   0.058   0.126
    1UNL    C24   27   0.029   0.039   0.088
    1UNL    C25   28   0.282  -0.012  -0.088
    1UNL    C26   29   0.403  -0.098  -0.137
    1UNL     N4   30   0.536  -0.020  -0.124
    1UNL    C27   31   0.543   0.113  -0.193
    1UNL    C28   32   0.627   0.214  -0.114
    1UNL    C29   33   0.771   0.154  -0.090
    1UNL    C30   34   0.746   0.017  -0.013
    1UNL    C31   35   0.802  -0.101  -0.086
    1UNL    C32   36   0.951  -0.086  -0.105
    1UNL    C33   37   0.590  -0.009   0.009
    1UNL    C34   38   0.531   0.115   0.091
    1UNL    C35   39   0.559   0.242   0.025
    1UNL    C36   40  -0.244   0.111   0.007
    1UNL    C37   41  -0.392   0.098  -0.010
    1UNL    C38   42  -0.427  -0.030  -0.086
    1UNL    C39   43  -0.453  -0.008  -0.235
    1UNL     O1   44  -0.358   0.035  -0.299
    1UNL     O2   45  -0.574  -0.057  -0.281
    1UNL    C40   46  -0.587  -0.035  -0.416
    1UNL     H1   47  -0.285   0.228  -0.259
    1UNL     H2   48  -0.227   0.339  -0.134
    1UNL     H3   49  -0.304   0.395  -0.286
    1UNL     H4   50  -0.522   0.375  -0.170
    1UNL     H5   51  -0.685   0.240  -0.093
    1UNL     H6   52  -0.631   0.256   0.088
    1UNL     H7   53  -0.863   0.085  -0.012
    1UNL     H8   54  -0.801  -0.000  -0.154
    1UNL     H9   55  -0.825  -0.083   0.015
    1UNL    H10   56  -0.608  -0.152  -0.066
    1UNL    H11   57  -0.543  -0.043   0.212
    1UNL    H12   58  -0.578  -0.212   0.151
    1UNL    H13   59  -0.050  -0.162   0.194
    1UNL    H14   60  -0.027  -0.431   0.207
    1UNL    H15   61  -0.173  -0.649   0.223
    1UNL    H16   62  -0.393  -0.633   0.170
    1UNL    H17   63  -0.521  -0.420   0.130
    1UNL    H18   64  -0.264   0.114   0.231
    1UNL    H19   65  -0.094   0.189   0.378
    1UNL    H20   66   0.123   0.228   0.425
    1UNL    H21   67   0.382   0.224   0.302
    1UNL    H22   68  -0.002  -0.028   0.002
    1UNL    H23   69   0.265   0.080  -0.153
    1UNL    H24   70   0.190  -0.067  -0.105
    1UNL    H25   71   0.413  -0.189  -0.074
    1UNL    H26   72   0.390  -0.135  -0.240
    1UNL    H27   73   0.590   0.097  -0.296
    1UNL    H28   74   0.439   0.149  -0.211
    1UNL    H29   75   0.647   0.299  -0.178
    1UNL    H30   76   0.816   0.147  -0.183
    1UNL    H31   77   0.850   0.209  -0.037
    1UNL    H32   78   0.792   0.021   0.089
    1UNL    H33   79   0.755  -0.109  -0.185
    1UNL    H34   80   0.781  -0.187  -0.029
    1UNL    H35   81   0.994  -0.054  -0.017
    1UNL    H36   82   0.999  -0.178  -0.145
    1UNL    H37   83   0.967  -0.004  -0.177
    1UNL    H38   84   0.573  -0.109   0.052
    1UNL    H39   85   0.585   0.126   0.189
    1UNL    H40   86   0.618   0.298   0.095
    1UNL    H41   87   0.469   0.298   0.016
    1UNL    H42   88  -0.215   0.213  -0.012
    1UNL    H43   89  -0.189   0.060  -0.072
    1UNL    H44   90  -0.432   0.084   0.095
    1UNL    H45   91  -0.344  -0.094  -0.070
    1UNL    H46   92  -0.677  -0.098  -0.442
    1UNL    H47   93  -0.599   0.074  -0.422
    1UNL    H48   94  -0.502  -0.071  -0.473
   0.00000   0.00000   0.00000   0.00000   0.00000   0.00000   0.00000   0.00000   0.00000
Generated with MDTraj, t= 82.0
 94
    1UNL     C1    1  -0.314   0.335  -0.226
    1UNL     C2    2  -0.447   0.303  -0.177
    1UNL     C3    3  -0.474   0.217  -0.079
    1UNL     C4    4  -0.620   0.187  -0.047
    1UNL     N1    5  -0.652   0.038  -0.020
    1UNL     C5    6  -0.794  -0.005   0.010
    1UNL     C6    7  -0.546  -0.071  -0.003
    1UNL     C7    8  -0.507  -0.099   0.145
    1UNL     C8    9  -0.375  -0.157   0.166
    1UNL     C9   10  -0.252  -0.092   0.180
    1UNL     N2   11  -0.156  -0.186   0.214
    1UNL    C10   12  -0.215  -0.312   0.200
    1UNL    C11   13  -0.160  -0.441   0.217
    1UNL    C12   14  -0.231  -0.546   0.170
    1UNL    C13   15  -0.366  -0.534   0.125
    1UNL    C14   16  -0.424  -0.410   0.134
    1UNL    C15   17  -0.347  -0.293   0.170
    1UNL    C16   18  -0.212   0.055   0.163
    1UNL    C17   19  -0.067   0.080   0.196
    1UNL    C18   20  -0.030   0.149   0.314
    1UNL    C19   21   0.103   0.184   0.340
    1UNL    C20   22   0.202   0.131   0.259
    1UNL     N3   23   0.341   0.160   0.239
    1UNL    C21   24   0.390   0.091   0.125
    1UNL    C22   25   0.284   0.042   0.058
    1UNL    C23   26   0.168   0.065   0.140
    1UNL    C24   27   0.031   0.036   0.114
    1UNL    C25   28   0.287  -0.017  -0.077
    1UNL    C26   29   0.401  -0.091  -0.130
    1UNL     N4   30   0.532  -0.014  -0.130
    1UNL    C27   31   0.531   0.120  -0.202
    1UNL    C28   32   0.621   0.220  -0.127
    1UNL    C29   33   0.761   0.157  -0.112
    1UNL    C30   34   0.753   0.026  -0.017
    1UNL    C31   35   0.807  -0.096  -0.080
    1UNL    C32   36   0.952  -0.092  -0.118
    1UNL    C33   37   0.600  -0.008   0.004
    1UNL    C34   38   0.535   0.109   0.093
    1UNL    C35   39   0.571   0.242   0.021
    1UNL    C36   40  -0.239   0.115   0.018
    1UNL    C37   41  -0.383   0.105  -0.023
    1UNL    C38   42  -0.417  -0.037  -0.086
    1UNL    C39   43  -0.443  -0.024  -0.238
    1UNL     O1   44  -0.352   0.026  -0.303
    1UNL     O2   45  -0.566  -0.062  -0.291
    1UNL    C40   46  -0.572  -0.034  -0.430
    1UNL     H1   47  -0.256   0.247  -0.244
    1UNL     H2   48  -0.258   0.394  -0.152
    1UNL     H3   49  -0.319   0.386  -0.320
    1UNL     H4   50  -0.529   0.365  -0.207
    1UNL     H5   51  -0.694   0.228  -0.130
    1UNL     H6   52  -0.638   0.229   0.054
    1UNL     H7   53  -0.823   0.041   0.104
    1UNL     H8   54  -0.861   0.026  -0.071
    1UNL     H9   55  -0.795  -0.114   0.035
    1UNL    H10   56  -0.583  -0.160  -0.046
    1UNL    H11   57  -0.516   0.005   0.197
    1UNL    H12   58  -0.582  -0.155   0.202
    1UNL    H13   59  -0.061  -0.171   0.251
    1UNL    H14   60  -0.057  -0.449   0.243
    1UNL    H15   61  -0.176  -0.635   0.167
    1UNL    H16   62  -0.430  -0.622   0.106
    1UNL    H17   63  -0.527  -0.405   0.103
    1UNL    H18   64  -0.283   0.103   0.242
    1UNL    H19   65  -0.116   0.170   0.369
    1UNL    H20   66   0.124   0.225   0.431
    1UNL    H21   67   0.406   0.197   0.307
    1UNL    H22   68   0.002  -0.021   0.031
    1UNL    H23   69   0.246   0.063  -0.153
    1UNL    H24   70   0.207  -0.089  -0.072
    1UNL    H25   71   0.414  -0.183  -0.072
    1UNL    H26   72   0.384  -0.127  -0.235
    1UNL    H27   73   0.570   0.088  -0.304
    1UNL    H28   74   0.426   0.158  -0.222
    1UNL    H29   75   0.625   0.316  -0.179
    1UNL    H30   76   0.806   0.114  -0.208
    1UNL    H31   77   0.825   0.239  -0.086
    1UNL    H32   78   0.803   0.047   0.081
    1UNL    H33   79   0.747  -0.108  -0.169
    1UNL    H34   80   0.786  -0.178  -0.014
    1UNL    H35   81   1.010  -0.038  -0.044
    1UNL    H36   82   1.001  -0.184  -0.147
    1UNL    H37   83   0.964  -0.026  -0.206
    1UNL    H38   84   0.586  -0.105   0.053
    1UNL    H39   85   0.586   0.118   0.194
    1UNL    H40   86   0.635   0.305   0.082
    1UNL    H41   87   0.481   0.296   0.020
    1UNL    H42   88  -0.201   0.217   0.018
    1UNL    H43   89  -0.181   0.065  -0.057
    1UNL    H44   90  -0.430   0.098   0.081
    1UNL    H45   91  -0.338  -0.106  -0.074
    1UNL    H46   92  -0.670  -0.079  -0.461
    1UNL    H47   93  -0.564   0.072  -0.445
    1UNL    H48   94  -0.495  -0.085  -0.484
   0.00000   0.00000   0.00000   0.00000   0.00000   0.00000   0.00000   0.00000   0.00000
Generated with MDTraj, t= 83.0
 94
    1UNL     C1    1  -0.304   0.304  -0.209
    1UNL     C2    2  -0.442   0.295  -0.171
    1UNL     C3    3  -0.482   0.205  -0.080
    1UNL     C4    4  -0.628   0.165  -0.067
    1UNL     N1    5  -0.656   0.021  -0.043
    1UNL     C5    6  -0.777  -0.001   0.045
    1UNL     C6    7  -0.543  -0.073  -0.003
    1UNL     C7    8  -0.513  -0.089   0.147
    1UNL     C8    9  -0.378  -0.149   0.166
    1UNL     C9   10  -0.253  -0.086   0.164
    1UNL     N2   11  -0.155  -0.185   0.169
    1UNL    C10   12  -0.214  -0.309   0.157
    1UNL    C11   13  -0.163  -0.439   0.175
    1UNL    C12   14  -0.252  -0.548   0.153
    1UNL    C13   15  -0.388  -0.520   0.152
    1UNL    C14   16  -0.446  -0.390   0.152
    1UNL    C15   17  -0.355  -0.284   0.156
    1UNL    C16   18  -0.211   0.066   0.162
    1UNL    C17   19  -0.065   0.086   0.199
    1UNL    C18   20  -0.025   0.153   0.317
    1UNL    C19   21   0.106   0.169   0.358
    1UNL    C20   22   0.207   0.128   0.259
    1UNL     N3   23   0.342   0.145   0.251
    1UNL    C21   24   0.395   0.087   0.137
    1UNL    C22   25   0.285   0.036   0.064
    1UNL    C23   26   0.165   0.069   0.140
    1UNL    C24   27   0.030   0.040   0.116
    1UNL    C25   28   0.278  -0.018  -0.071
    1UNL    C26   29   0.398  -0.094  -0.127
    1UNL     N4   30   0.530  -0.015  -0.128
    1UNL    C27   31   0.540   0.106  -0.216
    1UNL    C28   32   0.618   0.216  -0.145
    1UNL    C29   33   0.759   0.168  -0.103
    1UNL    C30   34   0.742   0.032  -0.022
    1UNL    C31   35   0.803  -0.087  -0.094
    1UNL    C32   36   0.961  -0.089  -0.100
    1UNL    C33   37   0.593  -0.000   0.002
    1UNL    C34   38   0.533   0.119   0.083
    1UNL    C35   39   0.545   0.244  -0.004
    1UNL    C36   40  -0.250   0.144   0.040
    1UNL    C37   41  -0.397   0.115  -0.000
    1UNL    C38   42  -0.417  -0.025  -0.071
    1UNL    C39   43  -0.421  -0.026  -0.228
    1UNL     O1   44  -0.321   0.011  -0.289
    1UNL     O2   45  -0.543  -0.056  -0.280
    1UNL    C40   46  -0.544  -0.059  -0.424
    1UNL     H1   47  -0.264   0.210  -0.243
    1UNL     H2   48  -0.239   0.335  -0.132
    1UNL     H3   49  -0.294   0.370  -0.294
    1UNL     H4   50  -0.516   0.359  -0.219
    1UNL     H5   51  -0.689   0.198  -0.164
    1UNL     H6   52  -0.677   0.224   0.012
    1UNL     H7   53  -0.752   0.007   0.154
    1UNL     H8   54  -0.847   0.080   0.016
    1UNL     H9   55  -0.818  -0.099   0.033
    1UNL    H10   56  -0.564  -0.166  -0.048
    1UNL    H11   57  -0.531   0.004   0.210
    1UNL    H12   58  -0.592  -0.150   0.190
    1UNL    H13   59  -0.058  -0.167   0.159
    1UNL    H14   60  -0.060  -0.448   0.199
    1UNL    H15   61  -0.211  -0.650   0.150
    1UNL    H16   62  -0.450  -0.606   0.153
    1UNL    H17   63  -0.551  -0.382   0.163
    1UNL    H18   64  -0.278   0.100   0.253
    1UNL    H19   65  -0.101   0.171   0.397
    1UNL    H20   66   0.139   0.198   0.460
    1UNL    H21   67   0.395   0.197   0.320
    1UNL    H22   68   0.022  -0.008   0.019
    1UNL    H23   69   0.268   0.068  -0.151
    1UNL    H24   70   0.186  -0.073  -0.090
    1UNL    H25   71   0.412  -0.186  -0.075
    1UNL    H26   72   0.378  -0.119  -0.237
    1UNL    H27   73   0.579   0.074  -0.317
    1UNL    H28   74   0.431   0.135  -0.235
    1UNL    H29   75   0.609   0.305  -0.209
    1UNL    H30   76   0.806   0.147  -0.211
    1UNL    H31   77   0.825   0.230  -0.049
    1UNL    H32   78   0.785   0.046   0.081
    1UNL    H33   79   0.758  -0.097  -0.189
    1UNL    H34   80   0.772  -0.175  -0.037
    1UNL    H35   81   1.006  -0.109   0.002
    1UNL    H36   82   1.007  -0.146  -0.176
    1UNL    H37   83   0.997   0.014  -0.117
    1UNL    H38   84   0.582  -0.097   0.053
    1UNL    H39   85   0.605   0.134   0.168
    1UNL    H40   86   0.614   0.309   0.047
    1UNL    H41   87   0.456   0.296   0.002
    1UNL    H42   88  -0.239   0.251   0.066
    1UNL    H43   89  -0.185   0.116  -0.041
    1UNL    H44   90  -0.449   0.119   0.104
    1UNL    H45   91  -0.333  -0.089  -0.055
    1UNL    H46   92  -0.649  -0.078  -0.460
    1UNL    H47   93  -0.503   0.026  -0.471
    1UNL    H48   94  -0.485  -0.143  -0.458
   0.00000   0.00000   0.00000   0.00000   0.00000   0.00000   0.00000   0.00000   0.00000
Generated with MDTraj, t= 84.0
 94
    1UNL     C1    1  -0.301   0.338  -0.222
    1UNL     C2    2  -0.439   0.302  -0.181
    1UNL     C3    3  -0.476   0.210  -0.088
    1UNL     C4    4  -0.622   0.180  -0.051
    1UNL     N1    5  -0.651   0.045  -0.010
    1UNL     C5    6  -0.790   0.029   0.050
    1UNL     C6    7  -0.548  -0.065   0.013
    1UNL     C7    8  -0.509  -0.089   0.166
    1UNL     C8    9  -0.375  -0.152   0.177
    1UNL     C9   10  -0.254  -0.088   0.166
    1UNL     N2   11  -0.159  -0.186   0.145
    1UNL    C10   12  -0.224  -0.311   0.144
    1UNL    C11   13  -0.170  -0.435   0.119
    1UNL    C12   14  -0.247  -0.547   0.137
    1UNL    C13   15  -0.383  -0.536   0.176
    1UNL    C14   16  -0.437  -0.408   0.198
    1UNL    C15   17  -0.357  -0.293   0.182
    1UNL    C16   18  -0.214   0.067   0.155
    1UNL    C17   19  -0.071   0.074   0.194
    1UNL    C18   20  -0.032   0.129   0.315
    1UNL    C19   21   0.097   0.140   0.345
    1UNL    C20   22   0.197   0.118   0.253
    1UNL     N3   23   0.335   0.127   0.252
    1UNL    C21   24   0.376   0.102   0.125
    1UNL    C22   25   0.275   0.055   0.046
    1UNL    C23   26   0.159   0.065   0.122
    1UNL    C24   27   0.024   0.040   0.094
    1UNL    C25   28   0.272   0.013  -0.094
    1UNL    C26   29   0.378  -0.089  -0.129
    1UNL     N4   30   0.519  -0.033  -0.128
    1UNL    C27   31   0.553   0.083  -0.222
    1UNL    C28   32   0.618   0.204  -0.145
    1UNL    C29   33   0.749   0.172  -0.087
    1UNL    C30   34   0.735   0.033  -0.013
    1UNL    C31   35   0.815  -0.077  -0.082
    1UNL    C32   36   0.964  -0.069  -0.082
    1UNL    C33   37   0.584  -0.001   0.009
    1UNL    C34   38   0.515   0.128   0.072
    1UNL    C35   39   0.525   0.243  -0.026
    1UNL    C36   40  -0.240   0.133   0.022
    1UNL    C37   41  -0.389   0.117  -0.012
    1UNL    C38   42  -0.420  -0.024  -0.062
    1UNL    C39   43  -0.406  -0.032  -0.211
    1UNL     O1   44  -0.293  -0.011  -0.252
    1UNL     O2   45  -0.522  -0.061  -0.280
    1UNL    C40   46  -0.493  -0.062  -0.421
    1UNL     H1   47  -0.243   0.250  -0.244
    1UNL     H2   48  -0.250   0.389  -0.148
    1UNL     H3   49  -0.307   0.396  -0.314
    1UNL     H4   50  -0.514   0.364  -0.230
    1UNL     H5   51  -0.681   0.181  -0.153
    1UNL     H6   52  -0.673   0.265   0.001
    1UNL     H7   53  -0.824   0.108   0.126
    1UNL     H8   54  -0.859   0.026  -0.037
    1UNL     H9   55  -0.789  -0.061   0.101
    1UNL    H10   56  -0.585  -0.160  -0.017
    1UNL    H11   57  -0.513   0.001   0.220
    1UNL    H12   58  -0.584  -0.152   0.213
    1UNL    H13   59  -0.064  -0.188   0.169
    1UNL    H14   60  -0.062  -0.446   0.090
    1UNL    H15   61  -0.205  -0.640   0.105
    1UNL    H16   62  -0.444  -0.629   0.180
    1UNL    H17   63  -0.541  -0.407   0.235
    1UNL    H18   64  -0.286   0.113   0.237
    1UNL    H19   65  -0.104   0.133   0.392
    1UNL    H20   66   0.133   0.173   0.441
    1UNL    H21   67   0.392   0.166   0.326
    1UNL    H22   68  -0.001  -0.014   0.002
    1UNL    H23   69   0.265   0.105  -0.162
    1UNL    H24   70   0.173  -0.037  -0.108
    1UNL    H25   71   0.371  -0.171  -0.061
    1UNL    H26   72   0.360  -0.135  -0.233
    1UNL    H27   73   0.630   0.041  -0.294
    1UNL    H28   74   0.461   0.107  -0.285
    1UNL    H29   75   0.632   0.292  -0.211
    1UNL    H30   76   0.837   0.160  -0.164
    1UNL    H31   77   0.778   0.250  -0.021
    1UNL    H32   78   0.777   0.041   0.092
    1UNL    H33   79   0.784  -0.088  -0.180
    1UNL    H34   80   0.787  -0.172  -0.034
    1UNL    H35   81   0.998  -0.043   0.026
    1UNL    H36   82   1.016  -0.148  -0.127
    1UNL    H37   83   0.987   0.022  -0.136
    1UNL    H38   84   0.562  -0.086   0.074
    1UNL    H39   85   0.579   0.154   0.161
    1UNL    H40   86   0.549   0.337   0.021
    1UNL    H41   87   0.430   0.253  -0.065
    1UNL    H42   88  -0.216   0.241   0.037
    1UNL    H43   89  -0.181   0.083  -0.053
    1UNL    H44   90  -0.447   0.117   0.089
    1UNL    H45   91  -0.341  -0.095  -0.035
    1UNL    H46   92  -0.579  -0.104  -0.483
    1UNL    H47   93  -0.465   0.029  -0.467
    1UNL    H48   94  -0.407  -0.125  -0.435
   0.00000   0.00000   0.00000   0.00000   0.00000   0.00000   0.00000   0.00000   0.00000
Generated with MDTraj, t= 85.0
 94
    1UNL     C1    1  -0.290   0.318  -0.208
    1UNL     C2    2  -0.432   0.296  -0.178
    1UNL     C3    3  -0.482   0.216  -0.081
    1UNL     C4    4  -0.631   0.171  -0.077
    1UNL     N1    5  -0.654   0.059   0.024
    1UNL     C5    6  -0.795   0.025   0.050
    1UNL     C6    7  -0.565  -0.057   0.014
    1UNL     C7    8  -0.529  -0.093   0.159
    1UNL     C8    9  -0.385  -0.151   0.169
    1UNL     C9   10  -0.258  -0.087   0.160
    1UNL     N2   11  -0.159  -0.188   0.151
    1UNL    C10   12  -0.217  -0.313   0.150
    1UNL    C11   13  -0.163  -0.445   0.135
    1UNL    C12   14  -0.253  -0.549   0.152
    1UNL    C13   15  -0.392  -0.527   0.172
    1UNL    C14   16  -0.444  -0.402   0.173
    1UNL    C15   17  -0.355  -0.287   0.165
    1UNL    C16   18  -0.215   0.055   0.161
    1UNL    C17   19  -0.067   0.060   0.193
    1UNL    C18   20  -0.026   0.087   0.327
    1UNL    C19   21   0.109   0.116   0.354
    1UNL    C20   22   0.205   0.107   0.248
    1UNL     N3   23   0.345   0.131   0.238
    1UNL    C21   24   0.379   0.113   0.104
    1UNL    C22   25   0.271   0.067   0.034
    1UNL    C23   26   0.161   0.071   0.121
    1UNL    C24   27   0.030   0.051   0.094
    1UNL    C25   28   0.273   0.020  -0.112
    1UNL    C26   29   0.387  -0.078  -0.133
    1UNL     N4   30   0.528  -0.016  -0.132
    1UNL    C27   31   0.556   0.092  -0.230
    1UNL    C28   32   0.622   0.211  -0.163
    1UNL    C29   33   0.766   0.163  -0.110
    1UNL    C30   34   0.745   0.039  -0.007
    1UNL    C31   35   0.826  -0.088  -0.037
    1UNL    C32   36   0.977  -0.082  -0.049
    1UNL    C33   37   0.592   0.009   0.003
    1UNL    C34   38   0.522   0.139   0.065
    1UNL    C35   39   0.530   0.255  -0.038
    1UNL    C36   40  -0.258   0.151   0.042
    1UNL    C37   41  -0.402   0.123  -0.001
    1UNL    C38   42  -0.434  -0.017  -0.058
    1UNL    C39   43  -0.423  -0.028  -0.211
    1UNL     O1   44  -0.312  -0.012  -0.250
    1UNL     O2   45  -0.523  -0.069  -0.286
    1UNL    C40   46  -0.493  -0.072  -0.421
    1UNL     H1   47  -0.236   0.232  -0.241
    1UNL     H2   48  -0.234   0.357  -0.129
    1UNL     H3   49  -0.287   0.389  -0.290
    1UNL     H4   50  -0.504   0.355  -0.233
    1UNL     H5   51  -0.672   0.154  -0.183
    1UNL     H6   52  -0.693   0.259  -0.044
    1UNL     H7   53  -0.842   0.114   0.103
    1UNL     H8   54  -0.842   0.028  -0.051
    1UNL     H9   55  -0.815  -0.063   0.105
    1UNL    H10   56  -0.616  -0.136  -0.039
    1UNL    H11   57  -0.535  -0.007   0.209
    1UNL    H12   58  -0.599  -0.163   0.198
    1UNL    H13   59  -0.064  -0.173   0.131
    1UNL    H14   60  -0.063  -0.455   0.113
    1UNL    H15   61  -0.210  -0.649   0.142
    1UNL    H16   62  -0.458  -0.606   0.191
    1UNL    H17   63  -0.547  -0.388   0.188
    1UNL    H18   64  -0.267   0.104   0.257
    1UNL    H19   65  -0.108   0.113   0.396
    1UNL    H20   66   0.139   0.133   0.454
    1UNL    H21   67   0.408   0.141   0.318
    1UNL    H22   68  -0.003   0.038  -0.002
    1UNL    H23   69   0.281   0.106  -0.177
    1UNL    H24   70   0.168  -0.023  -0.136
    1UNL    H25   71   0.388  -0.156  -0.060
    1UNL    H26   72   0.373  -0.136  -0.232
    1UNL    H27   73   0.626   0.036  -0.300
    1UNL    H28   74   0.462   0.124  -0.285
    1UNL    H29   75   0.639   0.290  -0.241
    1UNL    H30   76   0.837   0.138  -0.188
    1UNL    H31   77   0.814   0.238  -0.050
    1UNL    H32   78   0.778   0.068   0.098
    1UNL    H33   79   0.783  -0.131  -0.120
    1UNL    H34   80   0.801  -0.164   0.039
    1UNL    H35   81   1.020  -0.017   0.035
    1UNL    H36   82   1.026  -0.177  -0.058
    1UNL    H37   83   1.003  -0.026  -0.137
    1UNL    H38   84   0.565  -0.082   0.058
    1UNL    H39   85   0.588   0.164   0.153
    1UNL    H40   86   0.580   0.334   0.012
    1UNL    H41   87   0.435   0.287  -0.069
    1UNL    H42   88  -0.250   0.253   0.082
    1UNL    H43   89  -0.192   0.136  -0.044
    1UNL    H44   90  -0.448   0.129   0.104
    1UNL    H45   91  -0.345  -0.079  -0.023
    1UNL    H46   92  -0.589  -0.096  -0.480
    1UNL    H47   93  -0.446   0.013  -0.465
    1UNL    H48   94  -0.422  -0.151  -0.442
   0.00000   0.00000   0.00000   0.00000   0.00000   0.00000   0.00000   0.00000   0.00000
Generated with MDTraj, t= 86.0
 94
    1UNL     C1    1  -0.288   0.331  -0.213
    1UNL     C2    2  -0.431   0.307  -0.175
    1UNL     C3    3  -0.472   0.214  -0.086
    1UNL     C4    4  -0.620   0.175  -0.077
    1UNL     N1    5  -0.661   0.048  -0.006
    1UNL     C5    6  -0.801   0.014   0.018
    1UNL     C6    7  -0.561  -0.059   0.013
    1UNL     C7    8  -0.518  -0.101   0.159
    1UNL     C8    9  -0.377  -0.159   0.168
    1UNL     C9   10  -0.249  -0.102   0.168
    1UNL     N2   11  -0.156  -0.199   0.183
    1UNL    C10   12  -0.224  -0.324   0.193
    1UNL    C11   13  -0.173  -0.452   0.183
    1UNL    C12   14  -0.260  -0.555   0.158
    1UNL    C13   15  -0.403  -0.538   0.142
    1UNL    C14   16  -0.450  -0.411   0.140
    1UNL    C15   17  -0.363  -0.303   0.171
    1UNL    C16   18  -0.207   0.043   0.160
    1UNL    C17   19  -0.058   0.061   0.184
    1UNL    C18   20  -0.014   0.087   0.320
    1UNL    C19   21   0.114   0.129   0.348
    1UNL    C20   22   0.209   0.119   0.241
    1UNL     N3   23   0.342   0.144   0.243
    1UNL    C21   24   0.387   0.125   0.107
    1UNL    C22   25   0.280   0.082   0.028
    1UNL    C23   26   0.166   0.069   0.117
    1UNL    C24   27   0.035   0.041   0.088
    1UNL    C25   28   0.282   0.039  -0.111
    1UNL    C26   29   0.390  -0.064  -0.138
    1UNL     N4   30   0.531  -0.012  -0.136
    1UNL    C27   31   0.570   0.094  -0.237
    1UNL    C28   32   0.643   0.213  -0.156
    1UNL    C29   33   0.772   0.157  -0.103
    1UNL    C30   34   0.746   0.034  -0.008
    1UNL    C31   35   0.819  -0.097  -0.042
    1UNL    C32   36   0.976  -0.088  -0.017
    1UNL    C33   37   0.593   0.013  -0.003
    1UNL    C34   38   0.529   0.142   0.054
    1UNL    C35   39   0.554   0.259  -0.040
    1UNL    C36   40  -0.246   0.133   0.026
    1UNL    C37   41  -0.390   0.116   0.000
    1UNL    C38   42  -0.423  -0.023  -0.058
    1UNL    C39   43  -0.439  -0.016  -0.202
    1UNL     O1   44  -0.347   0.025  -0.270
    1UNL     O2   45  -0.559  -0.063  -0.263
    1UNL    C40   46  -0.555  -0.075  -0.398
    1UNL     H1   47  -0.233   0.242  -0.226
    1UNL     H2   48  -0.231   0.386  -0.137
    1UNL     H3   49  -0.284   0.388  -0.304
    1UNL     H4   50  -0.510   0.366  -0.221
    1UNL     H5   51  -0.657   0.150  -0.181
    1UNL     H6   52  -0.681   0.266  -0.042
    1UNL     H7   53  -0.864   0.103   0.001
    1UNL     H8   54  -0.842  -0.065  -0.046
    1UNL     H9   55  -0.807  -0.009   0.125
    1UNL    H10   56  -0.602  -0.148  -0.032
    1UNL    H11   57  -0.533  -0.024   0.227
    1UNL    H12   58  -0.580  -0.181   0.183
    1UNL    H13   59  -0.056  -0.189   0.185
    1UNL    H14   60  -0.062  -0.463   0.174
    1UNL    H15   61  -0.229  -0.658   0.163
    1UNL    H16   62  -0.457  -0.635   0.137
    1UNL    H17   63  -0.556  -0.389   0.113
    1UNL    H18   64  -0.262   0.108   0.243
    1UNL    H19   65  -0.082   0.096   0.403
    1UNL    H20   66   0.149   0.166   0.448
    1UNL    H21   67   0.389   0.203   0.312
    1UNL    H22   68  -0.005   0.024  -0.016
    1UNL    H23   69   0.295   0.120  -0.175
    1UNL    H24   70   0.177  -0.007  -0.142
    1UNL    H25   71   0.377  -0.148  -0.074
    1UNL    H26   72   0.375  -0.108  -0.244
    1UNL    H27   73   0.639   0.040  -0.310
    1UNL    H28   74   0.472   0.124  -0.281
    1UNL    H29   75   0.670   0.295  -0.228
    1UNL    H30   76   0.822   0.132  -0.189
    1UNL    H31   77   0.829   0.238  -0.054
    1UNL    H32   78   0.782   0.062   0.097
    1UNL    H33   79   0.791  -0.134  -0.134
    1UNL    H34   80   0.774  -0.174   0.022
    1UNL    H35   81   1.001  -0.087   0.090
    1UNL    H36   82   1.028  -0.163  -0.079
    1UNL    H37   83   1.009   0.009  -0.050
    1UNL    H38   84   0.569  -0.072   0.064
    1UNL    H39   85   0.590   0.163   0.146
    1UNL    H40   86   0.607   0.338   0.006
    1UNL    H41   87   0.458   0.295  -0.073
    1UNL    H42   88  -0.230   0.241   0.042
    1UNL    H43   89  -0.183   0.106  -0.062
    1UNL    H44   90  -0.439   0.120   0.104
    1UNL    H45   91  -0.342  -0.102  -0.031
    1UNL    H46   92  -0.663  -0.090  -0.436
    1UNL    H47   93  -0.510   0.005  -0.451
    1UNL    H48   94  -0.496  -0.161  -0.429
   0.00000   0.00000   0.00000   0.00000   0.00000   0.00000   0.00000   0.00000   0.00000
Generated with MDTraj, t= 87.0
 94
    1UNL     C1    1  -0.282   0.343  -0.188
    1UNL     C2    2  -0.423   0.315  -0.146
    1UNL     C3    3  -0.466   0.208  -0.077
    1UNL     C4    4  -0.605   0.182  -0.042
    1UNL     N1    5  -0.644   0.050   0.019
    1UNL     C5    6  -0.783   0.007  -0.032
    1UNL     C6    7  -0.556  -0.062   0.017
    1UNL     C7    8  -0.511  -0.090   0.164
    1UNL     C8    9  -0.376  -0.162   0.170
    1UNL     C9   10  -0.251  -0.104   0.167
    1UNL     N2   11  -0.158  -0.208   0.187
    1UNL    C10   12  -0.217  -0.331   0.182
    1UNL    C11   13  -0.171  -0.464   0.183
    1UNL    C12   14  -0.263  -0.565   0.175
    1UNL    C13   15  -0.398  -0.536   0.154
    1UNL    C14   16  -0.444  -0.408   0.154
    1UNL    C15   17  -0.355  -0.303   0.172
    1UNL    C16   18  -0.206   0.039   0.158
    1UNL    C17   19  -0.057   0.064   0.191
    1UNL    C18   20  -0.016   0.129   0.313
    1UNL    C19   21   0.110   0.153   0.339
    1UNL    C20   22   0.205   0.135   0.240
    1UNL     N3   23   0.339   0.159   0.227
    1UNL    C21   24   0.387   0.119   0.106
    1UNL    C22   25   0.284   0.074   0.029
    1UNL    C23   26   0.170   0.075   0.115
    1UNL    C24   27   0.037   0.042   0.091
    1UNL    C25   28   0.294   0.040  -0.117
    1UNL    C26   29   0.400  -0.064  -0.149
    1UNL     N4   30   0.538  -0.003  -0.139
    1UNL    C27   31   0.595   0.106  -0.225
    1UNL    C28   32   0.665   0.219  -0.144
    1UNL    C29   33   0.789   0.155  -0.073
    1UNL    C30   34   0.746   0.028   0.006
    1UNL    C31   35   0.810  -0.093  -0.058
    1UNL    C32   36   0.955  -0.107  -0.020
    1UNL    C33   37   0.591   0.010   0.004
    1UNL    C34   38   0.534   0.143   0.064
    1UNL    C35   39   0.560   0.263  -0.037
    1UNL    C36   40  -0.234   0.103   0.010
    1UNL    C37   41  -0.379   0.097  -0.025
    1UNL    C38   42  -0.432  -0.038  -0.078
    1UNL    C39   43  -0.468  -0.039  -0.228
    1UNL     O1   44  -0.388   0.015  -0.301
    1UNL     O2   45  -0.591  -0.081  -0.271
    1UNL    C40   46  -0.625  -0.053  -0.404
    1UNL     H1   47  -0.234   0.259  -0.228
    1UNL     H2   48  -0.217   0.368  -0.101
    1UNL     H3   49  -0.287   0.426  -0.253
    1UNL     H4   50  -0.498   0.389  -0.165
    1UNL     H5   51  -0.664   0.196  -0.135
    1UNL     H6   52  -0.635   0.256   0.043
    1UNL     H7   53  -0.861   0.073  -0.002
    1UNL     H8   54  -0.794   0.002  -0.140
    1UNL     H9   55  -0.812  -0.093   0.015
    1UNL    H10   56  -0.611  -0.141  -0.036
    1UNL    H11   57  -0.500   0.001   0.222
    1UNL    H12   58  -0.577  -0.156   0.205
    1UNL    H13   59  -0.061  -0.192   0.214
    1UNL    H14   60  -0.066  -0.485   0.191
    1UNL    H15   61  -0.224  -0.664   0.189
    1UNL    H16   62  -0.473  -0.610   0.146
    1UNL    H17   63  -0.544  -0.387   0.129
    1UNL    H18   64  -0.266   0.116   0.223
    1UNL    H19   65  -0.091   0.155   0.386
    1UNL    H20   66   0.141   0.218   0.414
    1UNL    H21   67   0.392   0.208   0.301
    1UNL    H22   68  -0.005   0.005   0.001
    1UNL    H23   69   0.310   0.131  -0.165
    1UNL    H24   70   0.187  -0.002  -0.143
    1UNL    H25   71   0.398  -0.146  -0.081
    1UNL    H26   72   0.374  -0.117  -0.249
    1UNL    H27   73   0.679   0.045  -0.275
    1UNL    H28   74   0.513   0.140  -0.294
    1UNL    H29   75   0.689   0.310  -0.209
    1UNL    H30   76   0.862   0.137  -0.140
    1UNL    H31   77   0.827   0.241  -0.015
    1UNL    H32   78   0.779   0.040   0.115
    1UNL    H33   79   0.791  -0.095  -0.163
    1UNL    H34   80   0.757  -0.181  -0.025
    1UNL    H35   81   0.971  -0.071   0.078
    1UNL    H36   82   0.984  -0.216  -0.037
    1UNL    H37   83   1.019  -0.044  -0.082
    1UNL    H38   84   0.559  -0.080   0.060
    1UNL    H39   85   0.585   0.166   0.160
    1UNL    H40   86   0.601   0.338   0.020
    1UNL    H41   87   0.474   0.314  -0.084
    1UNL    H42   88  -0.189   0.201  -0.005
    1UNL    H43   89  -0.182   0.045  -0.070
    1UNL    H44   90  -0.424   0.103   0.082
    1UNL    H45   91  -0.347  -0.115  -0.058
    1UNL    H46   92  -0.704  -0.126  -0.443
    1UNL    H47   93  -0.662   0.046  -0.419
    1UNL    H48   94  -0.539  -0.052  -0.472
   0.00000   0.00000   0.00000   0.00000   0.00000   0.00000   0.00000   0.00000   0.00000
Generated with MDTraj, t= 88.0
 94
    1UNL     C1    1  -0.299   0.328  -0.179
    1UNL     C2    2  -0.440   0.307  -0.136
    1UNL     C3    3  -0.478   0.206  -0.057
    1UNL     C4    4  -0.619   0.185  -0.010
    1UNL     N1    5  -0.665   0.042   0.010
    1UNL     C5    6  -0.794   0.020  -0.071
    1UNL     C6    7  -0.563  -0.068   0.008
    1UNL     C7    8  -0.509  -0.094   0.154
    1UNL     C8    9  -0.374  -0.162   0.156
    1UNL     C9   10  -0.242  -0.108   0.148
    1UNL     N2   11  -0.146  -0.209   0.144
    1UNL    C10   12  -0.220  -0.328   0.153
    1UNL    C11   13  -0.167  -0.456   0.169
    1UNL    C12   14  -0.249  -0.564   0.188
    1UNL    C13   15  -0.387  -0.544   0.203
    1UNL    C14   16  -0.444  -0.415   0.196
    1UNL    C15   17  -0.356  -0.307   0.168
    1UNL    C16   18  -0.202   0.041   0.124
    1UNL    C17   19  -0.058   0.069   0.163
    1UNL    C18   20  -0.023   0.119   0.293
    1UNL    C19   21   0.102   0.167   0.331
    1UNL    C20   22   0.208   0.151   0.227
    1UNL     N3   23   0.344   0.179   0.228
    1UNL    C21   24   0.401   0.133   0.109
    1UNL    C22   25   0.303   0.065   0.042
    1UNL    C23   26   0.180   0.078   0.109
    1UNL    C24   27   0.049   0.038   0.080
    1UNL    C25   28   0.307   0.034  -0.110
    1UNL    C26   29   0.419  -0.065  -0.135
    1UNL     N4   30   0.551  -0.001  -0.122
    1UNL    C27   31   0.588   0.114  -0.211
    1UNL    C28   32   0.674   0.217  -0.129
    1UNL    C29   33   0.802   0.145  -0.082
    1UNL    C30   34   0.756   0.028   0.014
    1UNL    C31   35   0.806  -0.109  -0.043
    1UNL    C32   36   0.954  -0.118  -0.046
    1UNL    C33   37   0.602   0.014   0.020
    1UNL    C34   38   0.549   0.141   0.080
    1UNL    C35   39   0.586   0.264  -0.006
    1UNL    C36   40  -0.236   0.098  -0.009
    1UNL    C37   41  -0.389   0.093  -0.026
    1UNL    C38   42  -0.443  -0.034  -0.087
    1UNL    C39   43  -0.486  -0.022  -0.232
    1UNL     O1   44  -0.408   0.035  -0.307
    1UNL     O2   45  -0.612  -0.077  -0.257
    1UNL    C40   46  -0.653  -0.061  -0.385
    1UNL     H1   47  -0.248   0.236  -0.194
    1UNL     H2   48  -0.235   0.371  -0.099
    1UNL     H3   49  -0.294   0.393  -0.261
    1UNL     H4   50  -0.523   0.376  -0.153
    1UNL     H5   51  -0.684   0.233  -0.085
    1UNL     H6   52  -0.623   0.236   0.095
    1UNL     H7   53  -0.864   0.098  -0.071
    1UNL     H8   54  -0.771   0.007  -0.177
    1UNL     H9   55  -0.849  -0.073  -0.032
    1UNL    H10   56  -0.619  -0.159  -0.026
    1UNL    H11   57  -0.501  -0.003   0.217
    1UNL    H12   58  -0.573  -0.150   0.211
    1UNL    H13   59  -0.051  -0.208   0.099
    1UNL    H14   60  -0.062  -0.465   0.180
    1UNL    H15   61  -0.211  -0.666   0.191
    1UNL    H16   62  -0.453  -0.630   0.209
    1UNL    H17   63  -0.550  -0.401   0.214
    1UNL    H18   64  -0.256   0.109   0.204
    1UNL    H19   65  -0.109   0.149   0.354
    1UNL    H20   66   0.122   0.217   0.431
    1UNL    H21   67   0.390   0.218   0.311
    1UNL    H22   68   0.027  -0.001  -0.015
    1UNL    H23   69   0.330   0.120  -0.167
    1UNL    H24   70   0.204  -0.005  -0.137
    1UNL    H25   71   0.406  -0.159  -0.083
    1UNL    H26   72   0.411  -0.093  -0.245
    1UNL    H27   73   0.647   0.063  -0.296
    1UNL    H28   74   0.492   0.160  -0.242
    1UNL    H29   75   0.706   0.309  -0.189
    1UNL    H30   76   0.861   0.128  -0.172
    1UNL    H31   77   0.860   0.212  -0.022
    1UNL    H32   78   0.792   0.041   0.123
    1UNL    H33   79   0.773  -0.114  -0.148
    1UNL    H34   80   0.759  -0.193   0.003
    1UNL    H35   81   0.999  -0.132   0.045
    1UNL    H36   82   0.986  -0.198  -0.122
    1UNL    H37   83   1.000  -0.023  -0.078
    1UNL    H38   84   0.567  -0.078   0.071
    1UNL    H39   85   0.605   0.157   0.174
    1UNL    H40   86   0.636   0.336   0.049
    1UNL    H41   87   0.493   0.317  -0.032
    1UNL    H42   88  -0.202   0.199  -0.009
    1UNL    H43   89  -0.169   0.047  -0.085
    1UNL    H44   90  -0.413   0.086   0.089
    1UNL    H45   91  -0.362  -0.118  -0.081
    1UNL    H46   92  -0.762  -0.088  -0.394
    1UNL    H47   93  -0.636   0.041  -0.413
    1UNL    H48   94  -0.591  -0.119  -0.454
   0.00000   0.00000   0.00000   0.00000   0.00000   0.00000   0.00000   0.00000   0.00000
Generated with MDTraj, t= 89.0
 94
    1UNL     C1    1  -0.384   0.343  -0.245
    1UNL     C2    2  -0.488   0.319  -0.146
    1UNL     C3    3  -0.501   0.213  -0.062
    1UNL     C4    4  -0.628   0.195   0.014
    1UNL     N1    5  -0.664   0.046   0.026
    1UNL     C5    6  -0.797   0.020  -0.026
    1UNL     C6    7  -0.555  -0.067   0.020
    1UNL     C7    8  -0.497  -0.096   0.162
    1UNL     C8    9  -0.364  -0.167   0.147
    1UNL     C9   10  -0.236  -0.112   0.124
    1UNL     N2   11  -0.143  -0.220   0.114
    1UNL    C10   12  -0.207  -0.334   0.149
    1UNL    C11   13  -0.163  -0.466   0.163
    1UNL    C12   14  -0.248  -0.570   0.196
    1UNL    C13   15  -0.381  -0.541   0.227
    1UNL    C14   16  -0.430  -0.412   0.213
    1UNL    C15   17  -0.348  -0.309   0.171
    1UNL    C16   18  -0.200   0.047   0.112
    1UNL    C17   19  -0.058   0.076   0.153
    1UNL    C18   20  -0.023   0.118   0.284
    1UNL    C19   21   0.106   0.154   0.319
    1UNL    C20   22   0.201   0.146   0.221
    1UNL     N3   23   0.333   0.160   0.231
    1UNL    C21   24   0.398   0.112   0.117
    1UNL    C22   25   0.299   0.063   0.028
    1UNL    C23   26   0.172   0.088   0.098
    1UNL    C24   27   0.041   0.057   0.062
    1UNL    C25   28   0.307   0.029  -0.113
    1UNL    C26   29   0.429  -0.062  -0.142
    1UNL     N4   30   0.565  -0.007  -0.122
    1UNL    C27   31   0.602   0.106  -0.197
    1UNL    C28   32   0.679   0.214  -0.109
    1UNL    C29   33   0.810   0.152  -0.055
    1UNL    C30   34   0.768   0.023   0.018
    1UNL    C31   35   0.825  -0.113  -0.040
    1UNL    C32   36   0.980  -0.115  -0.050
    1UNL    C33   37   0.615   0.005   0.024
    1UNL    C34   38   0.548   0.124   0.094
    1UNL    C35   39   0.588   0.253   0.008
    1UNL    C36   40  -0.246   0.118  -0.016
    1UNL    C37   41  -0.395   0.105  -0.021
    1UNL    C38   42  -0.446  -0.023  -0.078
    1UNL    C39   43  -0.494  -0.004  -0.228
    1UNL     O1   44  -0.421   0.061  -0.303
    1UNL     O2   45  -0.604  -0.078  -0.267
    1UNL    C40   46  -0.622  -0.076  -0.404
    1UNL     H1   47  -0.371   0.256  -0.305
    1UNL     H2   48  -0.286   0.345  -0.197
    1UNL     H3   49  -0.401   0.434  -0.296
    1UNL     H4   50  -0.569   0.387  -0.147
    1UNL     H5   51  -0.701   0.242  -0.055
    1UNL     H6   52  -0.614   0.248   0.117
    1UNL     H7   53  -0.867   0.091   0.016
    1UNL     H8   54  -0.791   0.041  -0.134
    1UNL     H9   55  -0.834  -0.083  -0.003
    1UNL    H10   56  -0.611  -0.161  -0.010
    1UNL    H11   57  -0.480  -0.002   0.220
    1UNL    H12   58  -0.565  -0.147   0.228
    1UNL    H13   59  -0.039  -0.205   0.135
    1UNL    H14   60  -0.053  -0.487   0.150
    1UNL    H15   61  -0.215  -0.673   0.191
    1UNL    H16   62  -0.450  -0.625   0.249
    1UNL    H17   63  -0.536  -0.387   0.241
    1UNL    H18   64  -0.267   0.090   0.198
    1UNL    H19   65  -0.105   0.139   0.346
    1UNL    H20   66   0.127   0.194   0.413
    1UNL    H21   67   0.382   0.217   0.302
    1UNL    H22   68   0.011   0.019  -0.040
    1UNL    H23   69   0.306   0.118  -0.175
    1UNL    H24   70   0.225  -0.033  -0.144
    1UNL    H25   71   0.423  -0.147  -0.073
    1UNL    H26   72   0.417  -0.110  -0.243
    1UNL    H27   73   0.662   0.060  -0.284
    1UNL    H28   74   0.502   0.140  -0.238
    1UNL    H29   75   0.708   0.305  -0.172
    1UNL    H30   76   0.881   0.119  -0.139
    1UNL    H31   77   0.858   0.225   0.003
    1UNL    H32   78   0.810   0.024   0.125
    1UNL    H33   79   0.775  -0.145  -0.134
    1UNL    H34   80   0.808  -0.192   0.029
    1UNL    H35   81   1.029  -0.084   0.038
    1UNL    H36   82   1.017  -0.216  -0.083
    1UNL    H37   83   1.020  -0.042  -0.123
    1UNL    H38   84   0.585  -0.088   0.076
    1UNL    H39   85   0.592   0.136   0.195
    1UNL    H40   86   0.631   0.324   0.072
    1UNL    H41   87   0.499   0.300  -0.034
    1UNL    H42   88  -0.197   0.212  -0.025
    1UNL    H43   89  -0.215   0.057  -0.106
    1UNL    H44   90  -0.429   0.103   0.091
    1UNL    H45   91  -0.362  -0.102  -0.082
    1UNL    H46   92  -0.732  -0.088  -0.417
    1UNL    H47   93  -0.586   0.020  -0.433
    1UNL    H48   94  -0.566  -0.156  -0.454
   0.00000   0.00000   0.00000   0.00000   0.00000   0.00000   0.00000   0.00000   0.00000
Generated with MDTraj, t= 90.0
 94
    1UNL     C1    1  -0.414   0.322  -0.251
    1UNL     C2    2  -0.514   0.312  -0.147
    1UNL     C3    3  -0.514   0.221  -0.049
    1UNL     C4    4  -0.650   0.194   0.027
    1UNL     N1    5  -0.678   0.044   0.042
    1UNL     C5    6  -0.808  -0.002  -0.004
    1UNL     C6    7  -0.564  -0.066   0.029
    1UNL     C7    8  -0.501  -0.091   0.168
    1UNL     C8    9  -0.369  -0.146   0.143
    1UNL     C9   10  -0.246  -0.089   0.108
    1UNL     N2   11  -0.146  -0.183   0.109
    1UNL    C10   12  -0.198  -0.303   0.140
    1UNL    C11   13  -0.140  -0.433   0.159
    1UNL    C12   14  -0.225  -0.533   0.196
    1UNL    C13   15  -0.365  -0.519   0.204
    1UNL    C14   16  -0.420  -0.394   0.192
    1UNL    C15   17  -0.337  -0.286   0.155
    1UNL    C16   18  -0.213   0.063   0.110
    1UNL    C17   19  -0.064   0.079   0.140
    1UNL    C18   20  -0.027   0.123   0.267
    1UNL    C19   21   0.101   0.119   0.310
    1UNL    C20   22   0.210   0.095   0.227
    1UNL     N3   23   0.349   0.118   0.230
    1UNL    C21   24   0.403   0.089   0.106
    1UNL    C22   25   0.304   0.055   0.017
    1UNL    C23   26   0.177   0.053   0.092
    1UNL    C24   27   0.037   0.048   0.045
    1UNL    C25   28   0.318   0.038  -0.131
    1UNL    C26   29   0.427  -0.061  -0.151
    1UNL     N4   30   0.566  -0.011  -0.118
    1UNL    C27   31   0.624   0.100  -0.195
    1UNL    C28   32   0.682   0.209  -0.101
    1UNL    C29   33   0.808   0.152  -0.031
    1UNL    C30   34   0.770   0.014   0.029
    1UNL    C31   35   0.847  -0.099  -0.040
    1UNL    C32   36   0.999  -0.104  -0.010
    1UNL    C33   37   0.614  -0.009   0.025
    1UNL    C34   38   0.552   0.117   0.089
    1UNL    C35   39   0.580   0.242  -0.001
    1UNL    C36   40  -0.259   0.145  -0.015
    1UNL    C37   41  -0.413   0.123  -0.023
    1UNL    C38   42  -0.457  -0.018  -0.068
    1UNL    C39   43  -0.490  -0.022  -0.224
    1UNL     O1   44  -0.411   0.038  -0.297
    1UNL     O2   45  -0.606  -0.084  -0.257
    1UNL    C40   46  -0.619  -0.082  -0.396
    1UNL     H1   47  -0.419   0.237  -0.318
    1UNL     H2   48  -0.315   0.308  -0.217
    1UNL     H3   49  -0.420   0.417  -0.297
    1UNL     H4   50  -0.603   0.377  -0.148
    1UNL     H5   51  -0.732   0.234  -0.036
    1UNL     H6   52  -0.650   0.238   0.132
    1UNL     H7   53  -0.883   0.080   0.012
    1UNL     H8   54  -0.796  -0.015  -0.113
    1UNL     H9   55  -0.836  -0.089   0.050
    1UNL    H10   56  -0.615  -0.161  -0.011
    1UNL    H11   57  -0.490   0.006   0.221
    1UNL    H12   58  -0.563  -0.151   0.243
    1UNL    H13   59  -0.042  -0.162   0.104
    1UNL    H14   60  -0.039  -0.449   0.152
    1UNL    H15   61  -0.183  -0.628   0.230
    1UNL    H16   62  -0.433  -0.589   0.239
    1UNL    H17   63  -0.520  -0.376   0.205
    1UNL    H18   64  -0.276   0.089   0.207
    1UNL    H19   65  -0.110   0.160   0.333
    1UNL    H20   66   0.117   0.179   0.401
    1UNL    H21   67   0.404   0.155   0.308
    1UNL    H22   68   0.025   0.014  -0.051
    1UNL    H23   69   0.333   0.135  -0.183
    1UNL    H24   70   0.229   0.005  -0.166
    1UNL    H25   71   0.419  -0.160  -0.104
    1UNL    H26   72   0.430  -0.091  -0.258
    1UNL    H27   73   0.706   0.054  -0.260
    1UNL    H28   74   0.546   0.124  -0.273
    1UNL    H29   75   0.708   0.299  -0.169
    1UNL    H30   76   0.901   0.153  -0.102
    1UNL    H31   77   0.834   0.212   0.050
    1UNL    H32   78   0.799   0.009   0.140
    1UNL    H33   79   0.837  -0.092  -0.153
    1UNL    H34   80   0.805  -0.192  -0.015
    1UNL    H35   81   1.035  -0.097   0.097
    1UNL    H36   82   1.034  -0.196  -0.055
    1UNL    H37   83   1.055  -0.022  -0.059
    1UNL    H38   84   0.578  -0.096   0.084
    1UNL    H39   85   0.592   0.129   0.191
    1UNL    H40   86   0.619   0.318   0.066
    1UNL    H41   87   0.491   0.282  -0.045
    1UNL    H42   88  -0.240   0.250  -0.002
    1UNL    H43   89  -0.199   0.120  -0.108
    1UNL    H44   90  -0.424   0.130   0.096
    1UNL    H45   91  -0.366  -0.086  -0.076
    1UNL    H46   92  -0.663  -0.181  -0.418
    1UNL    H47   93  -0.686  -0.002  -0.418
    1UNL    H48   94  -0.519  -0.071  -0.443
   0.00000   0.00000   0.00000   0.00000   0.00000   0.00000   0.00000   0.00000   0.00000
Generated with MDTraj, t= 91.0
 94
    1UNL     C1    1  -0.396   0.345  -0.235
    1UNL     C2    2  -0.518   0.302  -0.173
    1UNL     C3    3  -0.533   0.208  -0.077
    1UNL     C4    4  -0.660   0.182   0.002
    1UNL     N1    5  -0.683   0.039   0.034
    1UNL     C5    6  -0.811  -0.015  -0.029
    1UNL     C6    7  -0.574  -0.068   0.027
    1UNL     C7    8  -0.504  -0.088   0.163
    1UNL     C8    9  -0.365  -0.132   0.166
    1UNL     C9   10  -0.242  -0.067   0.138
    1UNL     N2   11  -0.140  -0.159   0.139
    1UNL    C10   12  -0.196  -0.282   0.159
    1UNL    C11   13  -0.126  -0.404   0.142
    1UNL    C12   14  -0.198  -0.520   0.145
    1UNL    C13   15  -0.332  -0.515   0.187
    1UNL    C14   16  -0.402  -0.398   0.199
    1UNL    C15   17  -0.338  -0.274   0.174
    1UNL    C16   18  -0.202   0.079   0.114
    1UNL    C17   19  -0.053   0.105   0.137
    1UNL    C18   20  -0.015   0.099   0.272
    1UNL    C19   21   0.116   0.104   0.323
    1UNL    C20   22   0.209   0.094   0.219
    1UNL     N3   23   0.346   0.084   0.234
    1UNL    C21   24   0.401   0.074   0.110
    1UNL    C22   25   0.298   0.061   0.020
    1UNL    C23   26   0.174   0.078   0.086
    1UNL    C24   27   0.041   0.095   0.039
    1UNL    C25   28   0.323   0.032  -0.131
    1UNL    C26   29   0.432  -0.065  -0.163
    1UNL     N4   30   0.573  -0.009  -0.138
    1UNL    C27   31   0.627   0.110  -0.203
    1UNL    C28   32   0.679   0.211  -0.099
    1UNL    C29   33   0.808   0.146  -0.039
    1UNL    C30   34   0.770   0.008   0.024
    1UNL    C31   35   0.861  -0.111  -0.023
    1UNL    C32   36   1.002  -0.111   0.032
    1UNL    C33   37   0.617  -0.019   0.008
    1UNL    C34   38   0.547   0.092   0.083
    1UNL    C35   39   0.568   0.233   0.011
    1UNL    C36   40  -0.266   0.145  -0.018
    1UNL    C37   41  -0.420   0.117  -0.019
    1UNL    C38   42  -0.468  -0.025  -0.067
    1UNL    C39   43  -0.506  -0.028  -0.211
    1UNL     O1   44  -0.436   0.020  -0.299
    1UNL     O2   45  -0.629  -0.084  -0.236
    1UNL    C40   46  -0.649  -0.085  -0.381
    1UNL     H1   47  -0.327   0.262  -0.248
    1UNL     H2   48  -0.340   0.413  -0.180
    1UNL     H3   49  -0.414   0.396  -0.327
    1UNL     H4   50  -0.598   0.371  -0.189
    1UNL     H5   51  -0.751   0.219  -0.051
    1UNL     H6   52  -0.653   0.224   0.105
    1UNL     H7   53  -0.896   0.054   0.002
    1UNL     H8   54  -0.804  -0.006  -0.139
    1UNL     H9   55  -0.830  -0.112   0.005
    1UNL    H10   56  -0.618  -0.167  -0.013
    1UNL    H11   57  -0.505   0.002   0.227
    1UNL    H12   58  -0.566  -0.166   0.227
    1UNL    H13   59  -0.041  -0.134   0.115
    1UNL    H14   60  -0.020  -0.403   0.105
    1UNL    H15   61  -0.159  -0.621   0.144
    1UNL    H16   62  -0.384  -0.612   0.212
    1UNL    H17   63  -0.513  -0.391   0.223
    1UNL    H18   64  -0.246   0.130   0.211
    1UNL    H19   65  -0.096   0.104   0.337
    1UNL    H20   66   0.153   0.104   0.427
    1UNL    H21   67   0.389   0.098   0.326
    1UNL    H22   68   0.027   0.080  -0.070
    1UNL    H23   69   0.327   0.127  -0.192
    1UNL    H24   70   0.237  -0.008  -0.165
    1UNL    H25   71   0.418  -0.164  -0.115
    1UNL    H26   72   0.441  -0.101  -0.268
    1UNL    H27   73   0.691   0.067  -0.288
    1UNL    H28   74   0.537   0.153  -0.255
    1UNL    H29   75   0.698   0.315  -0.145
    1UNL    H30   76   0.899   0.141  -0.110
    1UNL    H31   77   0.836   0.212   0.039
    1UNL    H32   78   0.798   0.017   0.136
    1UNL    H33   79   0.868  -0.112  -0.137
    1UNL    H34   80   0.816  -0.201   0.002
    1UNL    H35   81   1.008  -0.128   0.148
    1UNL    H36   82   1.063  -0.183  -0.017
    1UNL    H37   83   1.050  -0.013   0.024
    1UNL    H38   84   0.597  -0.124   0.045
    1UNL    H39   85   0.598   0.092   0.179
    1UNL    H40   86   0.587   0.317   0.081
    1UNL    H41   87   0.470   0.253  -0.023
    1UNL    H42   88  -0.241   0.250  -0.023
    1UNL    H43   89  -0.224   0.103  -0.112
    1UNL    H44   90  -0.451   0.125   0.094
    1UNL    H45   91  -0.388  -0.106  -0.070
    1UNL    H46   92  -0.737  -0.146  -0.395
    1UNL    H47   93  -0.673   0.015  -0.411
    1UNL    H48   94  -0.558  -0.129  -0.429
   0.00000   0.00000   0.00000   0.00000   0.00000   0.00000   0.00000   0.00000   0.00000
Generated with MDTraj, t= 92.0
 94
    1UNL     C1    1  -0.367   0.327  -0.239
    1UNL     C2    2  -0.490   0.308  -0.162
    1UNL     C3    3  -0.513   0.206  -0.077
    1UNL     C4    4  -0.648   0.168  -0.012
    1UNL     N1    5  -0.671   0.024   0.029
    1UNL     C5    6  -0.801  -0.048  -0.006
    1UNL     C6    7  -0.557  -0.070   0.028
    1UNL     C7    8  -0.491  -0.078   0.166
    1UNL     C8    9  -0.356  -0.130   0.163
    1UNL     C9   10  -0.242  -0.061   0.136
    1UNL     N2   11  -0.134  -0.150   0.131
    1UNL    C10   12  -0.183  -0.279   0.142
    1UNL    C11   13  -0.120  -0.405   0.135
    1UNL    C12   14  -0.203  -0.515   0.150
    1UNL    C13   15  -0.344  -0.505   0.168
    1UNL    C14   16  -0.402  -0.385   0.176
    1UNL    C15   17  -0.323  -0.270   0.159
    1UNL    C16   18  -0.210   0.083   0.122
    1UNL    C17   19  -0.063   0.108   0.147
    1UNL    C18   20  -0.026   0.126   0.283
    1UNL    C19   21   0.103   0.119   0.323
    1UNL    C20   22   0.199   0.094   0.233
    1UNL     N3   23   0.336   0.096   0.236
    1UNL    C21   24   0.396   0.078   0.113
    1UNL    C22   25   0.292   0.072   0.017
    1UNL    C23   26   0.168   0.079   0.095
    1UNL    C24   27   0.035   0.094   0.051
    1UNL    C25   28   0.308   0.059  -0.128
    1UNL    C26   29   0.418  -0.043  -0.163
    1UNL     N4   30   0.563  -0.008  -0.142
    1UNL    C27   31   0.609   0.122  -0.202
    1UNL    C28   32   0.677   0.205  -0.094
    1UNL    C29   33   0.804   0.119  -0.049
    1UNL    C30   34   0.758  -0.002   0.025
    1UNL    C31   35   0.840  -0.136  -0.012
    1UNL    C32   36   0.989  -0.121   0.014
    1UNL    C33   37   0.608  -0.019   0.005
    1UNL    C34   38   0.544   0.095   0.090
    1UNL    C35   39   0.587   0.235   0.023
    1UNL    C36   40  -0.257   0.138  -0.017
    1UNL    C37   41  -0.406   0.106  -0.032
    1UNL    C38   42  -0.451  -0.031  -0.076
    1UNL    C39   43  -0.507  -0.033  -0.214
    1UNL     O1   44  -0.446   0.023  -0.299
    1UNL     O2   45  -0.616  -0.106  -0.227
    1UNL    C40   46  -0.670  -0.080  -0.364
    1UNL     H1   47  -0.339   0.231  -0.279
    1UNL     H2   48  -0.284   0.354  -0.182
    1UNL     H3   49  -0.374   0.404  -0.314
    1UNL     H4   50  -0.569   0.384  -0.179
    1UNL     H5   51  -0.739   0.181  -0.079
    1UNL     H6   52  -0.662   0.227   0.078
    1UNL     H7   53  -0.890   0.017   0.016
    1UNL     H8   54  -0.803  -0.076  -0.111
    1UNL     H9   55  -0.805  -0.133   0.060
    1UNL    H10   56  -0.596  -0.173  -0.007
    1UNL    H11   57  -0.479   0.023   0.211
    1UNL    H12   58  -0.552  -0.142   0.244
    1UNL    H13   59  -0.037  -0.123   0.127
    1UNL    H14   60  -0.018  -0.424   0.119
    1UNL    H15   61  -0.167  -0.616   0.129
    1UNL    H16   62  -0.406  -0.587   0.156
    1UNL    H17   63  -0.506  -0.369   0.182
    1UNL    H18   64  -0.266   0.151   0.201
    1UNL    H19   65  -0.098   0.164   0.362
    1UNL    H20   66   0.121   0.132   0.423
    1UNL    H21   67   0.390   0.131   0.316
    1UNL    H22   68   0.003   0.079  -0.054
    1UNL    H23   69   0.344   0.152  -0.175
    1UNL    H24   70   0.222   0.032  -0.186
    1UNL    H25   71   0.406  -0.140  -0.108
    1UNL    H26   72   0.401  -0.077  -0.267
    1UNL    H27   73   0.695   0.092  -0.269
    1UNL    H28   74   0.530   0.159  -0.276
    1UNL    H29   75   0.717   0.303  -0.138
    1UNL    H30   76   0.847   0.080  -0.141
    1UNL    H31   77   0.887   0.170   0.001
    1UNL    H32   78   0.776   0.026   0.134
    1UNL    H33   79   0.819  -0.167  -0.120
    1UNL    H34   80   0.800  -0.214   0.046
    1UNL    H35   81   1.010  -0.118   0.129
    1UNL    H36   82   1.046  -0.200  -0.032
    1UNL    H37   83   1.024  -0.023  -0.021
    1UNL    H38   84   0.562  -0.114   0.043
    1UNL    H39   85   0.587   0.100   0.189
    1UNL    H40   86   0.622   0.297   0.110
    1UNL    H41   87   0.507   0.291  -0.015
    1UNL    H42   88  -0.243   0.247  -0.010
    1UNL    H43   89  -0.193   0.101  -0.098
    1UNL    H44   90  -0.433   0.109   0.083
    1UNL    H45   91  -0.367  -0.102  -0.075
    1UNL    H46   92  -0.764  -0.027  -0.355
    1UNL    H47   93  -0.607  -0.008  -0.415
    1UNL    H48   94  -0.678  -0.175  -0.423
   0.00000   0.00000   0.00000   0.00000   0.00000   0.00000   0.00000   0.00000   0.00000
Generated with MDTraj, t= 93.0
 94
    1UNL     C1    1  -0.378   0.328  -0.263
    1UNL     C2    2  -0.499   0.301  -0.183
    1UNL     C3    3  -0.508   0.208  -0.090
    1UNL     C4    4  -0.650   0.178  -0.044
    1UNL     N1    5  -0.669   0.041   0.037
    1UNL     C5    6  -0.809  -0.008   0.038
    1UNL     C6    7  -0.553  -0.062   0.032
    1UNL     C7    8  -0.486  -0.091   0.167
    1UNL     C8    9  -0.350  -0.144   0.156
    1UNL     C9   10  -0.226  -0.083   0.121
    1UNL     N2   11  -0.127  -0.179   0.125
    1UNL    C10   12  -0.177  -0.308   0.138
    1UNL    C11   13  -0.121  -0.436   0.130
    1UNL    C12   14  -0.203  -0.544   0.140
    1UNL    C13   15  -0.339  -0.530   0.162
    1UNL    C14   16  -0.397  -0.405   0.172
    1UNL    C15   17  -0.318  -0.287   0.154
    1UNL    C16   18  -0.209   0.065   0.124
    1UNL    C17   19  -0.066   0.101   0.168
    1UNL    C18   20  -0.030   0.143   0.300
    1UNL    C19   21   0.104   0.161   0.332
    1UNL    C20   22   0.207   0.145   0.237
    1UNL     N3   23   0.348   0.154   0.247
    1UNL    C21   24   0.397   0.122   0.124
    1UNL    C22   25   0.297   0.093   0.039
    1UNL    C23   26   0.173   0.098   0.108
    1UNL    C24   27   0.033   0.081   0.073
    1UNL    C25   28   0.314   0.074  -0.113
    1UNL    C26   29   0.403  -0.043  -0.146
    1UNL     N4   30   0.548  -0.000  -0.120
    1UNL    C27   31   0.613   0.113  -0.191
    1UNL    C28   32   0.690   0.201  -0.095
    1UNL    C29   33   0.806   0.114  -0.039
    1UNL    C30   34   0.746  -0.022   0.014
    1UNL    C31   35   0.795  -0.144  -0.059
    1UNL    C32   36   0.946  -0.168  -0.040
    1UNL    C33   37   0.589  -0.014   0.022
    1UNL    C34   38   0.542   0.108   0.099
    1UNL    C35   39   0.595   0.234   0.025
    1UNL    C36   40  -0.256   0.137  -0.009
    1UNL    C37   41  -0.409   0.117  -0.031
    1UNL    C38   42  -0.447  -0.023  -0.077
    1UNL    C39   43  -0.492  -0.029  -0.213
    1UNL     O1   44  -0.435   0.020  -0.304
    1UNL     O2   45  -0.605  -0.102  -0.237
    1UNL    C40   46  -0.636  -0.100  -0.371
    1UNL     H1   47  -0.331   0.233  -0.280
    1UNL     H2   48  -0.312   0.399  -0.215
    1UNL     H3   49  -0.406   0.372  -0.356
    1UNL     H4   50  -0.590   0.351  -0.207
    1UNL     H5   51  -0.715   0.170  -0.139
    1UNL     H6   52  -0.697   0.254   0.014
    1UNL     H7   53  -0.879   0.071   0.062
    1UNL     H8   54  -0.834  -0.044  -0.061
    1UNL     H9   55  -0.816  -0.088   0.117
    1UNL    H10   56  -0.610  -0.157  -0.001
    1UNL    H11   57  -0.488  -0.003   0.237
    1UNL    H12   58  -0.552  -0.173   0.215
    1UNL    H13   59  -0.031  -0.164   0.108
    1UNL    H14   60  -0.016  -0.453   0.133
    1UNL    H15   61  -0.166  -0.639   0.113
    1UNL    H16   62  -0.411  -0.615   0.155
    1UNL    H17   63  -0.500  -0.389   0.195
    1UNL    H18   64  -0.279   0.120   0.199
    1UNL    H19   65  -0.098   0.149   0.378
    1UNL    H20   66   0.136   0.204   0.434
    1UNL    H21   67   0.402   0.181   0.329
    1UNL    H22   68   0.005   0.049  -0.019
    1UNL    H23   69   0.360   0.157  -0.168
    1UNL    H24   70   0.208   0.055  -0.157
    1UNL    H25   71   0.367  -0.134  -0.087
    1UNL    H26   72   0.395  -0.073  -0.252
    1UNL    H27   73   0.670   0.069  -0.277
    1UNL    H28   74   0.525   0.168  -0.236
    1UNL    H29   75   0.732   0.298  -0.142
    1UNL    H30   76   0.883   0.098  -0.104
    1UNL    H31   77   0.846   0.175   0.046
    1UNL    H32   78   0.788  -0.034   0.119
    1UNL    H33   79   0.774  -0.124  -0.169
    1UNL    H34   80   0.736  -0.229  -0.037
    1UNL    H35   81   0.979  -0.140   0.062
    1UNL    H36   82   0.970  -0.274  -0.063
    1UNL    H37   83   1.003  -0.103  -0.109
    1UNL    H38   84   0.554  -0.112   0.065
    1UNL    H39   85   0.594   0.113   0.194
    1UNL    H40   86   0.639   0.313   0.091
    1UNL    H41   87   0.505   0.279  -0.005
    1UNL    H42   88  -0.240   0.247   0.004
    1UNL    H43   89  -0.193   0.100  -0.088
    1UNL    H44   90  -0.444   0.121   0.082
    1UNL    H45   91  -0.361  -0.086  -0.067
    1UNL    H46   92  -0.642   0.003  -0.399
    1UNL    H47   93  -0.556  -0.143  -0.435
    1UNL    H48   94  -0.736  -0.153  -0.380
   0.00000   0.00000   0.00000   0.00000   0.00000   0.00000   0.00000   0.00000   0.00000
Generated with MDTraj, t= 94.0
 94
    1UNL     C1    1  -0.329   0.306  -0.238
    1UNL     C2    2  -0.470   0.287  -0.182
    1UNL     C3    3  -0.505   0.201  -0.086
    1UNL     C4    4  -0.641   0.172  -0.040
    1UNL     N1    5  -0.656   0.053   0.051
    1UNL     C5    6  -0.793   0.013   0.083
    1UNL     C6    7  -0.562  -0.066   0.029
    1UNL     C7    8  -0.494  -0.112   0.156
    1UNL     C8    9  -0.353  -0.159   0.154
    1UNL     C9   10  -0.238  -0.083   0.134
    1UNL     N2   11  -0.140  -0.177   0.105
    1UNL    C10   12  -0.187  -0.307   0.124
    1UNL    C11   13  -0.123  -0.430   0.118
    1UNL    C12   14  -0.199  -0.548   0.133
    1UNL    C13   15  -0.332  -0.540   0.159
    1UNL    C14   16  -0.400  -0.424   0.162
    1UNL    C15   17  -0.325  -0.304   0.146
    1UNL    C16   18  -0.202   0.069   0.127
    1UNL    C17   19  -0.062   0.104   0.165
    1UNL    C18   20  -0.030   0.154   0.294
    1UNL    C19   21   0.098   0.183   0.333
    1UNL    C20   22   0.193   0.169   0.231
    1UNL     N3   23   0.335   0.180   0.238
    1UNL    C21   24   0.391   0.136   0.121
    1UNL    C22   25   0.286   0.104   0.035
    1UNL    C23   26   0.170   0.126   0.104
    1UNL    C24   27   0.040   0.089   0.074
    1UNL    C25   28   0.299   0.076  -0.118
    1UNL    C26   29   0.396  -0.037  -0.136
    1UNL     N4   30   0.539   0.004  -0.109
    1UNL    C27   31   0.606   0.115  -0.187
    1UNL    C28   32   0.691   0.197  -0.091
    1UNL    C29   33   0.806   0.100  -0.030
    1UNL    C30   34   0.736  -0.031   0.027
    1UNL    C31   35   0.744  -0.157  -0.061
    1UNL    C32   36   0.889  -0.195  -0.083
    1UNL    C33   37   0.578  -0.003   0.038
    1UNL    C34   38   0.539   0.134   0.102
    1UNL    C35   39   0.599   0.254   0.021
    1UNL    C36   40  -0.253   0.128  -0.006
    1UNL    C37   41  -0.399   0.106  -0.021
    1UNL    C38   42  -0.441  -0.032  -0.068
    1UNL    C39   43  -0.473  -0.026  -0.219
    1UNL     O1   44  -0.394   0.001  -0.305
    1UNL     O2   45  -0.596  -0.082  -0.247
    1UNL    C40   46  -0.604  -0.120  -0.378
    1UNL     H1   47  -0.292   0.210  -0.256
    1UNL     H2   48  -0.264   0.366  -0.172
    1UNL     H3   49  -0.329   0.362  -0.329
    1UNL     H4   50  -0.549   0.349  -0.228
    1UNL     H5   51  -0.707   0.147  -0.128
    1UNL     H6   52  -0.679   0.261   0.003
    1UNL     H7   53  -0.859   0.090   0.109
    1UNL     H8   54  -0.837  -0.040  -0.001
    1UNL     H9   55  -0.784  -0.056   0.175
    1UNL    H10   56  -0.630  -0.145  -0.016
    1UNL    H11   57  -0.493  -0.021   0.226
    1UNL    H12   58  -0.556  -0.187   0.208
    1UNL    H13   59  -0.043  -0.158   0.102
    1UNL    H14   60  -0.013  -0.438   0.100
    1UNL    H15   61  -0.142  -0.644   0.139
    1UNL    H16   62  -0.382  -0.632   0.174
    1UNL    H17   63  -0.507  -0.406   0.191
    1UNL    H18   64  -0.268   0.127   0.202
    1UNL    H19   65  -0.113   0.162   0.369
    1UNL    H20   66   0.140   0.210   0.424
    1UNL    H21   67   0.376   0.193   0.330
    1UNL    H22   68   0.020   0.051  -0.031
    1UNL    H23   69   0.329   0.169  -0.167
    1UNL    H24   70   0.192   0.037  -0.157
    1UNL    H25   71   0.367  -0.130  -0.073
    1UNL    H26   72   0.384  -0.075  -0.238
    1UNL    H27   73   0.655   0.066  -0.275
    1UNL    H28   74   0.527   0.183  -0.231
    1UNL    H29   75   0.731   0.278  -0.162
    1UNL    H30   76   0.862   0.076  -0.111
    1UNL    H31   77   0.874   0.148   0.045
    1UNL    H32   78   0.771  -0.050   0.133
    1UNL    H33   79   0.694  -0.140  -0.160
    1UNL    H34   80   0.681  -0.233  -0.018
    1UNL    H35   81   0.917  -0.280  -0.027
    1UNL    H36   82   0.904  -0.224  -0.192
    1UNL    H37   83   0.962  -0.118  -0.052
    1UNL    H38   84   0.527  -0.094   0.082
    1UNL    H39   85   0.586   0.135   0.200
    1UNL    H40   86   0.653   0.322   0.088
    1UNL    H41   87   0.522   0.319  -0.017
    1UNL    H42   88  -0.222   0.236  -0.002
    1UNL    H43   89  -0.208   0.080  -0.091
    1UNL    H44   90  -0.440   0.112   0.088
    1UNL    H45   91  -0.361  -0.095  -0.045
    1UNL    H46   92  -0.541  -0.049  -0.426
    1UNL    H47   93  -0.562  -0.219  -0.411
    1UNL    H48   94  -0.708  -0.102  -0.418
   0.00000   0.00000   0.00000   0.00000   0.00000   0.00000   0.00000   0.00000   0.00000
Generated with MDTraj, t= 95.0
 94
    1UNL     C1    1  -0.316   0.318  -0.233
    1UNL     C2    2  -0.460   0.295  -0.185
    1UNL     C3    3  -0.493   0.200  -0.099
    1UNL     C4    4  -0.636   0.153  -0.066
    1UNL     N1    5  -0.643   0.039   0.035
    1UNL     C5    6  -0.777   0.029   0.113
    1UNL     C6    7  -0.551  -0.076   0.027
    1UNL     C7    8  -0.486  -0.096   0.170
    1UNL     C8    9  -0.353  -0.160   0.169
    1UNL     C9   10  -0.232  -0.086   0.148
    1UNL     N2   11  -0.131  -0.175   0.133
    1UNL    C10   12  -0.175  -0.309   0.133
    1UNL    C11   13  -0.115  -0.429   0.106
    1UNL    C12   14  -0.191  -0.543   0.110
    1UNL    C13   15  -0.331  -0.529   0.131
    1UNL    C14   16  -0.394  -0.415   0.164
    1UNL    C15   17  -0.316  -0.299   0.159
    1UNL    C16   18  -0.219   0.068   0.141
    1UNL    C17   19  -0.077   0.107   0.175
    1UNL    C18   20  -0.037   0.145   0.310
    1UNL    C19   21   0.095   0.174   0.332
    1UNL    C20   22   0.193   0.168   0.237
    1UNL     N3   23   0.330   0.186   0.238
    1UNL    C21   24   0.384   0.146   0.117
    1UNL    C22   25   0.279   0.113   0.031
    1UNL    C23   26   0.156   0.132   0.105
    1UNL    C24   27   0.023   0.088   0.084
    1UNL    C25   28   0.284   0.108  -0.111
    1UNL    C26   29   0.369  -0.006  -0.161
    1UNL     N4   30   0.513   0.007  -0.127
    1UNL    C27   31   0.588   0.118  -0.196
    1UNL    C28   32   0.688   0.187  -0.100
    1UNL    C29   33   0.788   0.082  -0.046
    1UNL    C30   34   0.712  -0.036   0.021
    1UNL    C31   35   0.744  -0.170  -0.052
    1UNL    C32   36   0.895  -0.206  -0.041
    1UNL    C33   37   0.563  -0.005   0.017
    1UNL    C34   38   0.528   0.129   0.089
    1UNL    C35   39   0.596   0.239   0.018
    1UNL    C36   40  -0.250   0.130   0.001
    1UNL    C37   41  -0.401   0.111  -0.029
    1UNL    C38   42  -0.427  -0.041  -0.067
    1UNL    C39   43  -0.458  -0.062  -0.214
    1UNL     O1   44  -0.369  -0.043  -0.292
    1UNL     O2   45  -0.587  -0.084  -0.256
    1UNL    C40   46  -0.587  -0.080  -0.387
    1UNL     H1   47  -0.276   0.226  -0.263
    1UNL     H2   48  -0.249   0.372  -0.163
    1UNL     H3   49  -0.311   0.382  -0.318
    1UNL     H4   50  -0.544   0.346  -0.226
    1UNL     H5   51  -0.681   0.131  -0.165
    1UNL     H6   52  -0.695   0.233  -0.026
    1UNL     H7   53  -0.809   0.119   0.155
    1UNL     H8   54  -0.858   0.006   0.043
    1UNL     H9   55  -0.780  -0.044   0.200
    1UNL    H10   56  -0.605  -0.168  -0.008
    1UNL    H11   57  -0.475   0.004   0.228
    1UNL    H12   58  -0.549  -0.155   0.233
    1UNL    H13   59  -0.038  -0.154   0.099
    1UNL    H14   60  -0.016  -0.439   0.076
    1UNL    H15   61  -0.153  -0.641   0.111
    1UNL    H16   62  -0.398  -0.616   0.146
    1UNL    H17   63  -0.495  -0.406   0.178
    1UNL    H18   64  -0.301   0.102   0.212
    1UNL    H19   65  -0.098   0.148   0.395
    1UNL    H20   66   0.130   0.176   0.437
    1UNL    H21   67   0.384   0.224   0.315
    1UNL    H22   68  -0.002   0.052  -0.015
    1UNL    H23   69   0.330   0.198  -0.154
    1UNL    H24   70   0.173   0.098  -0.152
    1UNL    H25   71   0.323  -0.105  -0.122
    1UNL    H26   72   0.365  -0.015  -0.270
    1UNL    H27   73   0.660   0.070  -0.267
    1UNL    H28   74   0.519   0.180  -0.260
    1UNL    H29   75   0.752   0.268  -0.151
    1UNL    H30   76   0.834   0.022  -0.124
    1UNL    H31   77   0.867   0.135   0.010
    1UNL    H32   78   0.745  -0.044   0.130
    1UNL    H33   79   0.715  -0.160  -0.160
    1UNL    H34   80   0.685  -0.253  -0.016
    1UNL    H35   81   0.940  -0.141   0.024
    1UNL    H36   82   0.915  -0.312  -0.003
    1UNL    H37   83   0.962  -0.190  -0.131
    1UNL    H38   84   0.507  -0.092   0.063
    1UNL    H39   85   0.572   0.115   0.188
    1UNL    H40   86   0.642   0.310   0.086
    1UNL    H41   87   0.513   0.301  -0.024
    1UNL    H42   88  -0.232   0.240   0.008
    1UNL    H43   89  -0.182   0.091  -0.071
    1UNL    H44   90  -0.431   0.127   0.083
    1UNL    H45   91  -0.343  -0.097  -0.043
    1UNL    H46   92  -0.595   0.022  -0.413
    1UNL    H47   93  -0.494  -0.116  -0.437
    1UNL    H48   94  -0.675  -0.136  -0.426
   0.00000   0.00000   0.00000   0.00000   0.00000   0.00000   0.00000   0.00000   0.00000
Generated with MDTraj, t= 96.0
 94
    1UNL     C1    1  -0.334   0.334  -0.239
    1UNL     C2    2  -0.469   0.279  -0.199
    1UNL     C3    3  -0.495   0.185  -0.108
    1UNL     C4    4  -0.639   0.138  -0.076
    1UNL     N1    5  -0.646   0.033   0.030
    1UNL     C5    6  -0.780   0.022   0.095
    1UNL     C6    7  -0.550  -0.087   0.032
    1UNL     C7    8  -0.497  -0.110   0.179
    1UNL     C8    9  -0.350  -0.147   0.172
    1UNL     C9   10  -0.229  -0.073   0.163
    1UNL     N2   11  -0.123  -0.165   0.156
    1UNL    C10   12  -0.178  -0.291   0.147
    1UNL    C11   13  -0.115  -0.413   0.118
    1UNL    C12   14  -0.190  -0.529   0.102
    1UNL    C13   15  -0.329  -0.527   0.119
    1UNL    C14   16  -0.389  -0.409   0.139
    1UNL    C15   17  -0.314  -0.286   0.154
    1UNL    C16   18  -0.207   0.083   0.151
    1UNL    C17   19  -0.063   0.111   0.181
    1UNL    C18   20  -0.028   0.130   0.314
    1UNL    C19   21   0.108   0.144   0.348
    1UNL    C20   22   0.204   0.135   0.245
    1UNL     N3   23   0.341   0.148   0.248
    1UNL    C21   24   0.385   0.136   0.119
    1UNL    C22   25   0.278   0.133   0.034
    1UNL    C23   26   0.161   0.130   0.113
    1UNL    C24   27   0.024   0.124   0.078
    1UNL    C25   28   0.283   0.125  -0.119
    1UNL    C26   29   0.360   0.003  -0.162
    1UNL     N4   30   0.506   0.014  -0.128
    1UNL    C27   31   0.582   0.111  -0.212
    1UNL    C28   32   0.676   0.182  -0.123
    1UNL    C29   33   0.784   0.087  -0.071
    1UNL    C30   34   0.712  -0.032   0.007
    1UNL    C31   35   0.747  -0.174  -0.043
    1UNL    C32   36   0.883  -0.214   0.013
    1UNL    C33   37   0.555  -0.012   0.010
    1UNL    C34   38   0.527   0.130   0.082
    1UNL    C35   39   0.583   0.242  -0.004
    1UNL    C36   40  -0.255   0.133   0.007
    1UNL    C37   41  -0.402   0.106  -0.021
    1UNL    C38   42  -0.425  -0.046  -0.057
    1UNL    C39   43  -0.450  -0.063  -0.208
    1UNL     O1   44  -0.357  -0.045  -0.287
    1UNL     O2   45  -0.582  -0.078  -0.252
    1UNL    C40   46  -0.575  -0.065  -0.390
    1UNL     H1   47  -0.269   0.251  -0.250
    1UNL     H2   48  -0.299   0.416  -0.173
    1UNL     H3   49  -0.344   0.386  -0.332
    1UNL     H4   50  -0.554   0.318  -0.257
    1UNL     H5   51  -0.680   0.094  -0.162
    1UNL     H6   52  -0.699   0.229  -0.064
    1UNL     H7   53  -0.832   0.116   0.109
    1UNL     H8   54  -0.853  -0.029   0.027
    1UNL     H9   55  -0.780  -0.027   0.191
    1UNL    H10   56  -0.607  -0.170  -0.016
    1UNL    H11   57  -0.510  -0.019   0.247
    1UNL    H12   58  -0.547  -0.193   0.224
    1UNL    H13   59  -0.025  -0.130   0.156
    1UNL    H14   60  -0.008  -0.414   0.085
    1UNL    H15   61  -0.139  -0.623   0.072
    1UNL    H16   62  -0.385  -0.618   0.109
    1UNL    H17   63  -0.501  -0.391   0.137
    1UNL    H18   64  -0.273   0.118   0.233
    1UNL    H19   65  -0.095   0.097   0.394
    1UNL    H20   66   0.132   0.154   0.455
    1UNL    H21   67   0.396   0.137   0.332
    1UNL    H22   68  -0.007   0.113  -0.019
    1UNL    H23   69   0.340   0.213  -0.155
    1UNL    H24   70   0.183   0.126  -0.168
    1UNL    H25   71   0.324  -0.093  -0.110
    1UNL    H26   72   0.348  -0.019  -0.268
    1UNL    H27   73   0.625   0.053  -0.298
    1UNL    H28   74   0.525   0.197  -0.256
    1UNL    H29   75   0.722   0.266  -0.188
    1UNL    H30   76   0.847   0.047  -0.158
    1UNL    H31   77   0.852   0.130   0.002
    1UNL    H32   78   0.737  -0.023   0.119
    1UNL    H33   79   0.756  -0.183  -0.153
    1UNL    H34   80   0.675  -0.251  -0.012
    1UNL    H35   81   0.962  -0.195  -0.056
    1UNL    H36   82   0.902  -0.162   0.110
    1UNL    H37   83   0.895  -0.323   0.037
    1UNL    H38   84   0.493  -0.092   0.058
    1UNL    H39   85   0.587   0.121   0.173
    1UNL    H40   86   0.643   0.309   0.052
    1UNL    H41   87   0.497   0.308  -0.038
    1UNL    H42   88  -0.225   0.240   0.015
    1UNL    H43   89  -0.203   0.089  -0.076
    1UNL    H44   90  -0.458   0.109   0.082
    1UNL    H45   91  -0.334  -0.097  -0.043
    1UNL    H46   92  -0.531   0.026  -0.420
    1UNL    H47   93  -0.511  -0.145  -0.431
    1UNL    H48   94  -0.672  -0.084  -0.442
   0.00000   0.00000   0.00000   0.00000   0.00000   0.00000   0.00000   0.00000   0.00000
Generated with MDTraj, t= 97.0
 94
    1UNL     C1    1  -0.340   0.306  -0.236
    1UNL     C2    2  -0.473   0.283  -0.184
    1UNL     C3    3  -0.505   0.200  -0.084
    1UNL     C4    4  -0.649   0.154  -0.050
    1UNL     N1    5  -0.661   0.037   0.041
    1UNL     C5    6  -0.792  -0.031   0.048
    1UNL     C6    7  -0.553  -0.071   0.030
    1UNL     C7    8  -0.504  -0.110   0.165
    1UNL     C8    9  -0.361  -0.145   0.168
    1UNL     C9   10  -0.243  -0.065   0.161
    1UNL     N2   11  -0.132  -0.145   0.151
    1UNL    C10   12  -0.168  -0.276   0.144
    1UNL    C11   13  -0.099  -0.394   0.127
    1UNL    C12   14  -0.174  -0.509   0.113
    1UNL    C13   15  -0.319  -0.514   0.126
    1UNL    C14   16  -0.389  -0.397   0.141
    1UNL    C15   17  -0.312  -0.278   0.155
    1UNL    C16   18  -0.209   0.089   0.140
    1UNL    C17   19  -0.067   0.104   0.177
    1UNL    C18   20  -0.021   0.087   0.308
    1UNL    C19   21   0.112   0.105   0.346
    1UNL    C20   22   0.206   0.119   0.244
    1UNL     N3   23   0.347   0.138   0.247
    1UNL    C21   24   0.391   0.144   0.118
    1UNL    C22   25   0.282   0.140   0.031
    1UNL    C23   26   0.166   0.127   0.108
    1UNL    C24   27   0.028   0.133   0.077
    1UNL    C25   28   0.280   0.116  -0.116
    1UNL    C26   29   0.360  -0.008  -0.148
    1UNL     N4   30   0.509  -0.002  -0.126
    1UNL    C27   31   0.580   0.094  -0.214
    1UNL    C28   32   0.676   0.183  -0.126
    1UNL    C29   33   0.779   0.080  -0.068
    1UNL    C30   34   0.709  -0.034   0.011
    1UNL    C31   35   0.741  -0.173  -0.034
    1UNL    C32   36   0.882  -0.212   0.004
    1UNL    C33   37   0.563  -0.002   0.013
    1UNL    C34   38   0.537   0.143   0.079
    1UNL    C35   39   0.586   0.250  -0.014
    1UNL    C36   40  -0.259   0.155   0.008
    1UNL    C37   41  -0.406   0.116  -0.008
    1UNL    C38   42  -0.431  -0.032  -0.061
    1UNL    C39   43  -0.452  -0.042  -0.213
    1UNL     O1   44  -0.351  -0.034  -0.284
    1UNL     O2   45  -0.577  -0.068  -0.255
    1UNL    C40   46  -0.565  -0.102  -0.391
    1UNL     H1   47  -0.298   0.209  -0.260
    1UNL     H2   48  -0.281   0.366  -0.170
    1UNL     H3   49  -0.340   0.371  -0.323
    1UNL     H4   50  -0.549   0.332  -0.241
    1UNL     H5   51  -0.701   0.147  -0.140
    1UNL     H6   52  -0.698   0.239   0.002
    1UNL     H7   53  -0.879   0.040   0.034
    1UNL     H8   54  -0.805  -0.099  -0.039
    1UNL     H9   55  -0.808  -0.077   0.139
    1UNL    H10   56  -0.596  -0.162  -0.016
    1UNL    H11   57  -0.528  -0.028   0.232
    1UNL    H12   58  -0.559  -0.193   0.206
    1UNL    H13   59  -0.037  -0.109   0.121
    1UNL    H14   60   0.007  -0.396   0.125
    1UNL    H15   61  -0.132  -0.599   0.076
    1UNL    H16   62  -0.370  -0.607   0.104
    1UNL    H17   63  -0.495  -0.391   0.153
    1UNL    H18   64  -0.259   0.133   0.225
    1UNL    H19   65  -0.091   0.041   0.379
    1UNL    H20   66   0.149   0.082   0.440
    1UNL    H21   67   0.402   0.146   0.332
    1UNL    H22   68  -0.006   0.147  -0.030
    1UNL    H23   69   0.310   0.210  -0.172
    1UNL    H24   70   0.181   0.099  -0.139
    1UNL    H25   71   0.322  -0.093  -0.082
    1UNL    H26   72   0.350  -0.046  -0.250
    1UNL    H27   73   0.641   0.033  -0.285
    1UNL    H28   74   0.515   0.154  -0.280
    1UNL    H29   75   0.724   0.269  -0.186
    1UNL    H30   76   0.839   0.028  -0.158
    1UNL    H31   77   0.855   0.132  -0.011
    1UNL    H32   78   0.743  -0.033   0.121
    1UNL    H33   79   0.723  -0.185  -0.142
    1UNL    H34   80   0.674  -0.245   0.016
    1UNL    H35   81   0.963  -0.136  -0.022
    1UNL    H36   82   0.894  -0.242   0.108
    1UNL    H37   83   0.911  -0.302  -0.051
    1UNL    H38   84   0.503  -0.078   0.070
    1UNL    H39   85   0.592   0.150   0.174
    1UNL    H40   86   0.632   0.333   0.034
    1UNL    H41   87   0.495   0.300  -0.065
    1UNL    H42   88  -0.252   0.263   0.004
    1UNL    H43   89  -0.198   0.111  -0.072
    1UNL    H44   90  -0.448   0.113   0.101
    1UNL    H45   91  -0.345  -0.095  -0.058
    1UNL    H46   92  -0.499  -0.045  -0.451
    1UNL    H47   93  -0.526  -0.207  -0.393
    1UNL    H48   94  -0.662  -0.115  -0.443
   0.00000   0.00000   0.00000   0.00000   0.00000   0.00000   0.00000   0.00000   0.00000
Generated with MDTraj, t= 98.0
 94
    1UNL     C1    1  -0.366   0.311  -0.248
    1UNL     C2    2  -0.492   0.297  -0.183
    1UNL     C3    3  -0.510   0.211  -0.082
    1UNL     C4    4  -0.653   0.164  -0.034
    1UNL     N1    5  -0.668   0.023   0.006
    1UNL     C5    6  -0.800  -0.041  -0.023
    1UNL     C6    7  -0.546  -0.069   0.025
    1UNL     C7    8  -0.493  -0.093   0.165
    1UNL     C8    9  -0.346  -0.143   0.167
    1UNL     C9   10  -0.232  -0.072   0.149
    1UNL     N2   11  -0.125  -0.161   0.133
    1UNL    C10   12  -0.166  -0.291   0.138
    1UNL    C11   13  -0.095  -0.414   0.117
    1UNL    C12   14  -0.169  -0.531   0.127
    1UNL    C13   15  -0.311  -0.525   0.145
    1UNL    C14   16  -0.378  -0.405   0.175
    1UNL    C15   17  -0.305  -0.282   0.173
    1UNL    C16   18  -0.214   0.078   0.151
    1UNL    C17   19  -0.068   0.109   0.183
    1UNL    C18   20  -0.026   0.112   0.318
    1UNL    C19   21   0.103   0.143   0.350
    1UNL    C20   22   0.199   0.140   0.249
    1UNL     N3   23   0.339   0.139   0.248
    1UNL    C21   24   0.382   0.139   0.114
    1UNL    C22   25   0.275   0.141   0.028
    1UNL    C23   26   0.157   0.139   0.113
    1UNL    C24   27   0.022   0.122   0.083
    1UNL    C25   28   0.286   0.120  -0.112
    1UNL    C26   29   0.363  -0.011  -0.149
    1UNL     N4   30   0.509  -0.005  -0.123
    1UNL    C27   31   0.596   0.077  -0.208
    1UNL    C28   32   0.681   0.172  -0.117
    1UNL    C29   33   0.786   0.085  -0.048
    1UNL    C30   34   0.711  -0.043   0.014
    1UNL    C31   35   0.752  -0.175  -0.053
    1UNL    C32   36   0.908  -0.210  -0.038
    1UNL    C33   37   0.561  -0.014   0.014
    1UNL    C34   38   0.531   0.127   0.083
    1UNL    C35   39   0.584   0.232  -0.014
    1UNL    C36   40  -0.262   0.151   0.025
    1UNL    C37   41  -0.413   0.124  -0.006
    1UNL    C38   42  -0.431  -0.017  -0.062
    1UNL    C39   43  -0.453  -0.032  -0.210
    1UNL     O1   44  -0.363   0.010  -0.285
    1UNL     O2   45  -0.570  -0.090  -0.243
    1UNL    C40   46  -0.575  -0.092  -0.382
    1UNL     H1   47  -0.320   0.211  -0.251
    1UNL     H2   48  -0.303   0.381  -0.202
    1UNL     H3   49  -0.365   0.353  -0.349
    1UNL     H4   50  -0.580   0.343  -0.228
    1UNL     H5   51  -0.723   0.183  -0.107
    1UNL     H6   52  -0.678   0.232   0.050
    1UNL     H7   53  -0.875  -0.004   0.052
    1UNL     H8   54  -0.835  -0.008  -0.121
    1UNL     H9   55  -0.796  -0.146  -0.011
    1UNL    H10   56  -0.563  -0.171  -0.008
    1UNL    H11   57  -0.500  -0.007   0.223
    1UNL    H12   58  -0.559  -0.152   0.230
    1UNL    H13   59  -0.021  -0.139   0.129
    1UNL    H14   60   0.013  -0.416   0.117
    1UNL    H15   61  -0.112  -0.624   0.110
    1UNL    H16   62  -0.369  -0.615   0.152
    1UNL    H17   63  -0.480  -0.406   0.200
    1UNL    H18   64  -0.269   0.118   0.232
    1UNL    H19   65  -0.097   0.109   0.394
    1UNL    H20   66   0.141   0.127   0.456
    1UNL    H21   67   0.402   0.162   0.325
    1UNL    H22   68  -0.006   0.120  -0.022
    1UNL    H23   69   0.343   0.205  -0.160
    1UNL    H24   70   0.197   0.126  -0.160
    1UNL    H25   71   0.324  -0.104  -0.097
    1UNL    H26   72   0.358  -0.026  -0.257
    1UNL    H27   73   0.673   0.012  -0.254
    1UNL    H28   74   0.541   0.124  -0.290
    1UNL    H29   75   0.733   0.257  -0.177
    1UNL    H30   76   0.864   0.058  -0.133
    1UNL    H31   77   0.843   0.149   0.019
    1UNL    H32   78   0.743  -0.058   0.124
    1UNL    H33   79   0.721  -0.173  -0.157
    1UNL    H34   80   0.693  -0.257  -0.006
    1UNL    H35   81   0.977  -0.124  -0.081
    1UNL    H36   82   0.938  -0.232   0.063
    1UNL    H37   83   0.935  -0.298  -0.094
    1UNL    H38   84   0.509  -0.102   0.059
    1UNL    H39   85   0.587   0.142   0.178
    1UNL    H40   86   0.621   0.323   0.032
    1UNL    H41   87   0.498   0.268  -0.077
    1UNL    H42   88  -0.246   0.256   0.042
    1UNL    H43   89  -0.208   0.133  -0.070
    1UNL    H44   90  -0.454   0.118   0.101
    1UNL    H45   91  -0.340  -0.075  -0.049
    1UNL    H46   92  -0.570  -0.002  -0.438
    1UNL    H47   93  -0.490  -0.159  -0.411
    1UNL    H48   94  -0.665  -0.147  -0.419
   0.00000   0.00000   0.00000   0.00000   0.00000   0.00000   0.00000   0.00000   0.00000
Generated with MDTraj, t= 99.0
 94
    1UNL     C1    1  -0.382   0.336  -0.218
    1UNL     C2    2  -0.506   0.298  -0.143
    1UNL     C3    3  -0.513   0.194  -0.061
    1UNL     C4    4  -0.647   0.151   0.004
    1UNL     N1    5  -0.662   0.003   0.005
    1UNL     C5    6  -0.779  -0.061  -0.071
    1UNL     C6    7  -0.542  -0.083   0.023
    1UNL     C7    8  -0.480  -0.090   0.167
    1UNL     C8    9  -0.340  -0.140   0.168
    1UNL     C9   10  -0.222  -0.070   0.154
    1UNL     N2   11  -0.122  -0.156   0.122
    1UNL    C10   12  -0.176  -0.283   0.136
    1UNL    C11   13  -0.106  -0.404   0.136
    1UNL    C12   14  -0.180  -0.520   0.148
    1UNL    C13   15  -0.316  -0.518   0.179
    1UNL    C14   16  -0.384  -0.395   0.176
    1UNL    C15   17  -0.310  -0.278   0.161
    1UNL    C16   18  -0.206   0.077   0.146
    1UNL    C17   19  -0.060   0.117   0.176
    1UNL    C18   20  -0.027   0.171   0.304
    1UNL    C19   21   0.102   0.187   0.335
    1UNL    C20   22   0.200   0.157   0.237
    1UNL     N3   23   0.337   0.158   0.245
    1UNL    C21   24   0.392   0.118   0.124
    1UNL    C22   25   0.286   0.103   0.038
    1UNL    C23   26   0.162   0.113   0.110
    1UNL    C24   27   0.028   0.094   0.076
    1UNL    C25   28   0.287   0.079  -0.110
    1UNL    C26   29   0.377  -0.036  -0.152
    1UNL     N4   30   0.518  -0.000  -0.125
    1UNL    C27   31   0.583   0.116  -0.200
    1UNL    C28   32   0.679   0.186  -0.102
    1UNL    C29   33   0.785   0.077  -0.067
    1UNL    C30   34   0.718  -0.041   0.014
    1UNL    C31   35   0.749  -0.181  -0.055
    1UNL    C32   36   0.900  -0.214  -0.067
    1UNL    C33   37   0.564  -0.016   0.017
    1UNL    C34   38   0.535   0.111   0.103
    1UNL    C35   39   0.594   0.235   0.028
    1UNL    C36   40  -0.250   0.133   0.004
    1UNL    C37   41  -0.403   0.101  -0.019
    1UNL    C38   42  -0.432  -0.039  -0.078
    1UNL    C39   43  -0.462  -0.030  -0.224
    1UNL     O1   44  -0.398   0.050  -0.293
    1UNL     O2   45  -0.564  -0.103  -0.267
    1UNL    C40   46  -0.596  -0.076  -0.405
    1UNL     H1   47  -0.346   0.242  -0.264
    1UNL     H2   48  -0.309   0.380  -0.155
    1UNL     H3   49  -0.400   0.418  -0.288
    1UNL     H4   50  -0.597   0.347  -0.173
    1UNL     H5   51  -0.723   0.194  -0.054
    1UNL     H6   52  -0.657   0.181   0.109
    1UNL     H7   53  -0.843   0.019  -0.114
    1UNL     H8   54  -0.735  -0.111  -0.154
    1UNL     H9   55  -0.840  -0.121  -0.002
    1UNL    H10   56  -0.576  -0.177  -0.013
    1UNL    H11   57  -0.498  -0.011   0.230
    1UNL    H12   58  -0.544  -0.161   0.222
    1UNL    H13   59  -0.021  -0.138   0.101
    1UNL    H14   60   0.002  -0.394   0.118
    1UNL    H15   61  -0.125  -0.613   0.161
    1UNL    H16   62  -0.364  -0.606   0.220
    1UNL    H17   63  -0.496  -0.399   0.204
    1UNL    H18   64  -0.262   0.129   0.215
    1UNL    H19   65  -0.113   0.178   0.379
    1UNL    H20   66   0.120   0.231   0.426
    1UNL    H21   67   0.388   0.158   0.334
    1UNL    H22   68  -0.001   0.060  -0.016
    1UNL    H23   69   0.315   0.174  -0.156
    1UNL    H24   70   0.193   0.060  -0.150
    1UNL    H25   71   0.357  -0.125  -0.090
    1UNL    H26   72   0.372  -0.065  -0.260
    1UNL    H27   73   0.626   0.068  -0.289
    1UNL    H28   74   0.519   0.201  -0.220
    1UNL    H29   75   0.730   0.276  -0.154
    1UNL    H30   76   0.839   0.056  -0.164
    1UNL    H31   77   0.864   0.128  -0.009
    1UNL    H32   78   0.750  -0.041   0.124
    1UNL    H33   79   0.697  -0.185  -0.149
    1UNL    H34   80   0.697  -0.259   0.009
    1UNL    H35   81   0.941  -0.144  -0.149
    1UNL    H36   82   0.946  -0.193   0.028
    1UNL    H37   83   0.923  -0.317  -0.095
    1UNL    H38   84   0.516  -0.104   0.068
    1UNL    H39   85   0.593   0.111   0.199
    1UNL    H40   86   0.669   0.279   0.097
    1UNL    H41   87   0.519   0.313   0.008
    1UNL    H42   88  -0.227   0.234  -0.014
    1UNL    H43   89  -0.195   0.077  -0.075
    1UNL    H44   90  -0.444   0.096   0.088
    1UNL    H45   91  -0.334  -0.092  -0.068
    1UNL    H46   92  -0.653   0.010  -0.428
    1UNL    H47   93  -0.500  -0.081  -0.465
    1UNL    H48   94  -0.661  -0.158  -0.446
   0.00000   0.00000   0.00000   0.00000   0.00000   0.00000   0.00000   0.00000   0.00000
