Generated with MDTraj, t= 0.0
 49
    1UNL     C1    1  -0.376   0.181   0.075
    1UNL     C2    2  -0.285   0.066   0.113
    1UNL     C3    3  -0.158   0.050   0.025
    1UNL     C4    4  -0.197   0.027  -0.124
    1UNL     C5    5  -0.292  -0.093  -0.144
    1UNL     C6    6  -0.255  -0.213  -0.055
    1UNL     N1    7  -0.114  -0.202  -0.005
    1UNL     C7    8  -0.051  -0.322   0.057
    1UNL     C8    9   0.103  -0.314   0.063
    1UNL     C9   10   0.152  -0.173   0.057
    1UNL    C10   11   0.068  -0.064   0.060
    1UNL     N2   12   0.137   0.050   0.024
    1UNL    C11   13   0.271   0.016   0.003
    1UNL    C12   14   0.381   0.092  -0.036
    1UNL    C13   15   0.501   0.028  -0.054
    1UNL    C14   16   0.514  -0.110  -0.034
    1UNL    C15   17   0.406  -0.187   0.004
    1UNL    C16   18   0.282  -0.123   0.024
    1UNL    C17   19   0.071   0.175  -0.017
    1UNL     O1   20   0.149   0.289   0.019
    1UNL    C18   21   0.105   0.408  -0.042
    1UNL    C19   22  -0.072   0.180   0.041
    1UNL    C20   23  -0.080  -0.078   0.072
    1UNL     H1   24  -0.326   0.277   0.082
    1UNL     H2   25  -0.464   0.186   0.139
    1UNL     H3   26  -0.413   0.171  -0.028
    1UNL     H4   27  -0.341  -0.028   0.112
    1UNL     H5   28  -0.252   0.078   0.217
    1UNL     H6   29  -0.240   0.119  -0.166
    1UNL     H7   30  -0.104   0.010  -0.181
    1UNL     H8   31  -0.290  -0.124  -0.249
    1UNL     H9   32  -0.395  -0.063  -0.125
    1UNL    H10   33  -0.265  -0.307  -0.109
    1UNL    H11   34  -0.321  -0.221   0.032
    1UNL    H12   35  -0.083  -0.411   0.001
    1UNL    H13   36  -0.093  -0.333   0.158
    1UNL    H14   37   0.141  -0.362   0.154
    1UNL    H15   38   0.147  -0.369  -0.021
    1UNL    H16   39   0.370   0.198  -0.050
    1UNL    H17   40   0.588   0.085  -0.084
    1UNL    H18   41   0.609  -0.157  -0.050
    1UNL    H19   42   0.415  -0.293   0.018
    1UNL    H20   43   0.066   0.173  -0.127
    1UNL    H21   44   0.176   0.487  -0.020
    1UNL    H22   45   0.099   0.395  -0.150
    1UNL    H23   46   0.007   0.436  -0.003
    1UNL    H24   47  -0.063   0.204   0.147
    1UNL    H25   48  -0.126   0.264  -0.004
    1UNL    H26   49  -0.104  -0.097   0.178
   0.00000   0.00000   0.00000   0.00000   0.00000   0.00000   0.00000   0.00000   0.00000
Generated with MDTraj, t= 1.0
 49
    1UNL     C1    1  -0.375   0.173   0.084
    1UNL     C2    2  -0.285   0.058   0.124
    1UNL     C3    3  -0.162   0.048   0.031
    1UNL     C4    4  -0.213   0.035  -0.113
    1UNL     C5    5  -0.311  -0.087  -0.133
    1UNL     C6    6  -0.266  -0.215  -0.057
    1UNL     N1    7  -0.125  -0.201  -0.005
    1UNL     C7    8  -0.047  -0.324   0.044
    1UNL     C8    9   0.105  -0.305   0.053
    1UNL     C9   10   0.157  -0.169   0.056
    1UNL    C10   11   0.069  -0.067   0.040
    1UNL     N2   12   0.135   0.045   0.001
    1UNL    C11   13   0.267   0.017  -0.011
    1UNL    C12   14   0.383   0.095  -0.033
    1UNL    C13   15   0.507   0.033  -0.040
    1UNL    C14   16   0.520  -0.101  -0.013
    1UNL    C15   17   0.411  -0.178   0.030
    1UNL    C16   18   0.286  -0.118   0.024
    1UNL    C17   19   0.070   0.168  -0.026
    1UNL     O1   20   0.161   0.278   0.006
    1UNL    C18   21   0.134   0.404  -0.059
    1UNL    C19   22  -0.076   0.175   0.055
    1UNL    C20   23  -0.085  -0.078   0.070
    1UNL     H1   24  -0.321   0.260   0.062
    1UNL     H2   25  -0.450   0.202   0.156
    1UNL     H3   26  -0.433   0.133  -0.004
    1UNL     H4   27  -0.346  -0.029   0.136
    1UNL     H5   28  -0.245   0.068   0.225
    1UNL     H6   29  -0.246   0.132  -0.150
    1UNL     H7   30  -0.129   0.003  -0.172
    1UNL     H8   31  -0.322  -0.102  -0.237
    1UNL     H9   32  -0.415  -0.058  -0.094
    1UNL    H10   33  -0.293  -0.313  -0.105
    1UNL    H11   34  -0.324  -0.216   0.031
    1UNL    H12   35  -0.086  -0.412  -0.009
    1UNL    H13   36  -0.085  -0.337   0.145
    1UNL    H14   37   0.138  -0.343   0.148
    1UNL    H15   38   0.176  -0.361  -0.024
    1UNL    H16   39   0.376   0.205  -0.050
    1UNL    H17   40   0.595   0.088  -0.075
    1UNL    H18   41   0.618  -0.151  -0.039
    1UNL    H19   42   0.416  -0.281   0.043
    1UNL    H20   43   0.029   0.173  -0.124
    1UNL    H21   44   0.029   0.413  -0.073
    1UNL    H22   45   0.147   0.497  -0.008
    1UNL    H23   46   0.176   0.405  -0.158
    1UNL    H24   47  -0.052   0.178   0.160
    1UNL    H25   48  -0.131   0.268   0.040
    1UNL    H26   49  -0.096  -0.094   0.178
   0.00000   0.00000   0.00000   0.00000   0.00000   0.00000   0.00000   0.00000   0.00000
Generated with MDTraj, t= 2.0
 49
    1UNL     C1    1  -0.358   0.178   0.113
    1UNL     C2    2  -0.270   0.058   0.132
    1UNL     C3    3  -0.157   0.048   0.022
    1UNL     C4    4  -0.221   0.024  -0.116
    1UNL     C5    5  -0.310  -0.095  -0.142
    1UNL     C6    6  -0.265  -0.208  -0.050
    1UNL     N1    7  -0.120  -0.198  -0.011
    1UNL     C7    8  -0.047  -0.330   0.040
    1UNL     C8    9   0.103  -0.314   0.060
    1UNL     C9   10   0.149  -0.172   0.045
    1UNL    C10   11   0.068  -0.062   0.055
    1UNL     N2   12   0.135   0.054   0.017
    1UNL    C11   13   0.269   0.017  -0.007
    1UNL    C12   14   0.385   0.095  -0.025
    1UNL    C13   15   0.506   0.030  -0.028
    1UNL    C14   16   0.522  -0.109  -0.004
    1UNL    C15   17   0.410  -0.188   0.011
    1UNL    C16   18   0.283  -0.125   0.008
    1UNL    C17   19   0.070   0.181  -0.026
    1UNL     O1   20   0.147   0.296   0.015
    1UNL    C18   21   0.116   0.397  -0.077
    1UNL    C19   22  -0.076   0.187   0.023
    1UNL    C20   23  -0.082  -0.080   0.072
    1UNL     H1   24  -0.315   0.271   0.123
    1UNL     H2   25  -0.451   0.188   0.166
    1UNL     H3   26  -0.396   0.159   0.007
    1UNL     H4   27  -0.324  -0.030   0.136
    1UNL     H5   28  -0.235   0.058   0.236
    1UNL     H6   29  -0.270   0.115  -0.149
    1UNL     H7   30  -0.132   0.009  -0.175
    1UNL     H8   31  -0.317  -0.120  -0.243
    1UNL     H9   32  -0.416  -0.053  -0.106
    1UNL    H10   33  -0.274  -0.303  -0.111
    1UNL    H11   34  -0.330  -0.239   0.024
    1UNL    H12   35  -0.077  -0.422  -0.013
    1UNL    H13   36  -0.105  -0.344   0.132
    1UNL    H14   37   0.152  -0.350   0.147
    1UNL    H15   38   0.165  -0.371  -0.029
    1UNL    H16   39   0.379   0.198  -0.031
    1UNL    H17   40   0.590   0.094  -0.040
    1UNL    H18   41   0.612  -0.158  -0.011
    1UNL    H19   42   0.425  -0.301   0.033
    1UNL    H20   43   0.096   0.163  -0.128
    1UNL    H21   44   0.191   0.424  -0.145
    1UNL    H22   45   0.035   0.378  -0.142
    1UNL    H23   46   0.111   0.487  -0.020
    1UNL    H24   47  -0.077   0.228   0.120
    1UNL    H25   48  -0.115   0.266  -0.045
    1UNL    H26   49  -0.108  -0.106   0.176
   0.00000   0.00000   0.00000   0.00000   0.00000   0.00000   0.00000   0.00000   0.00000
Generated with MDTraj, t= 3.0
 49
    1UNL     C1    1  -0.359   0.197   0.098
    1UNL     C2    2  -0.278   0.072   0.125
    1UNL     C3    3  -0.160   0.050   0.026
    1UNL     C4    4  -0.220   0.036  -0.116
    1UNL     C5    5  -0.306  -0.088  -0.129
    1UNL     C6    6  -0.261  -0.212  -0.042
    1UNL     N1    7  -0.116  -0.202  -0.018
    1UNL     C7    8  -0.050  -0.325   0.041
    1UNL     C8    9   0.103  -0.319   0.039
    1UNL     C9   10   0.153  -0.178   0.056
    1UNL    C10   11   0.069  -0.070   0.052
    1UNL     N2   12   0.142   0.047   0.034
    1UNL    C11   13   0.273   0.017   0.021
    1UNL    C12   14   0.382   0.101  -0.015
    1UNL    C13   15   0.504   0.040  -0.033
    1UNL    C14   16   0.515  -0.102  -0.031
    1UNL    C15   17   0.414  -0.187   0.006
    1UNL    C16   18   0.288  -0.127   0.031
    1UNL    C17   19   0.074   0.162  -0.028
    1UNL     O1   20   0.149   0.286  -0.010
    1UNL    C18   21   0.098   0.393  -0.075
    1UNL    C19   22  -0.065   0.177   0.038
    1UNL    C20   23  -0.082  -0.084   0.073
    1UNL     H1   24  -0.307   0.286   0.122
    1UNL     H2   25  -0.458   0.214   0.136
    1UNL     H3   26  -0.377   0.187  -0.013
    1UNL     H4   27  -0.347  -0.005   0.139
    1UNL     H5   28  -0.237   0.081   0.225
    1UNL     H6   29  -0.273   0.127  -0.138
    1UNL     H7   30  -0.141   0.035  -0.190
    1UNL     H8   31  -0.300  -0.112  -0.231
    1UNL     H9   32  -0.420  -0.065  -0.103
    1UNL    H10   33  -0.281  -0.308  -0.099
    1UNL    H11   34  -0.326  -0.230   0.035
    1UNL    H12   35  -0.088  -0.406  -0.023
    1UNL    H13   36  -0.086  -0.352   0.140
    1UNL    H14   37   0.136  -0.382   0.119
    1UNL    H15   38   0.151  -0.362  -0.060
    1UNL    H16   39   0.371   0.212  -0.013
    1UNL    H17   40   0.602   0.088  -0.047
    1UNL    H18   41   0.620  -0.148  -0.039
    1UNL    H19   42   0.425  -0.289   0.015
    1UNL    H20   43   0.067   0.139  -0.132
    1UNL    H21   44   0.051   0.464  -0.012
    1UNL    H22   45   0.177   0.441  -0.127
    1UNL    H23   46   0.020   0.360  -0.143
    1UNL    H24   47  -0.059   0.220   0.133
    1UNL    H25   48  -0.117   0.256  -0.021
    1UNL    H26   49  -0.113  -0.126   0.172
   0.00000   0.00000   0.00000   0.00000   0.00000   0.00000   0.00000   0.00000   0.00000
Generated with MDTraj, t= 4.0
 49
    1UNL     C1    1  -0.375   0.184   0.096
    1UNL     C2    2  -0.284   0.065   0.118
    1UNL     C3    3  -0.161   0.053   0.038
    1UNL     C4    4  -0.199   0.040  -0.112
    1UNL     C5    5  -0.295  -0.084  -0.132
    1UNL     C6    6  -0.251  -0.214  -0.047
    1UNL     N1    7  -0.116  -0.204  -0.005
    1UNL     C7    8  -0.052  -0.338   0.041
    1UNL     C8    9   0.105  -0.317   0.038
    1UNL     C9   10   0.153  -0.176   0.050
    1UNL    C10   11   0.068  -0.067   0.058
    1UNL     N2   12   0.139   0.049   0.022
    1UNL    C11   13   0.270   0.017   0.017
    1UNL    C12   14   0.386   0.092  -0.024
    1UNL    C13   15   0.507   0.032  -0.040
    1UNL    C14   16   0.512  -0.111  -0.027
    1UNL    C15   17   0.402  -0.188   0.002
    1UNL    C16   18   0.281  -0.122   0.029
    1UNL    C17   19   0.065   0.176  -0.020
    1UNL     O1   20   0.140   0.297  -0.003
    1UNL    C18   21   0.119   0.402  -0.096
    1UNL    C19   22  -0.072   0.180   0.057
    1UNL    C20   23  -0.081  -0.083   0.077
    1UNL     H1   24  -0.317   0.278   0.085
    1UNL     H2   25  -0.453   0.212   0.164
    1UNL     H3   26  -0.423   0.166  -0.004
    1UNL     H4   27  -0.342  -0.027   0.110
    1UNL     H5   28  -0.257   0.069   0.222
    1UNL     H6   29  -0.242   0.131  -0.147
    1UNL     H7   30  -0.106   0.033  -0.166
    1UNL     H8   31  -0.301  -0.116  -0.232
    1UNL     H9   32  -0.401  -0.053  -0.094
    1UNL    H10   33  -0.285  -0.309  -0.097
    1UNL    H11   34  -0.296  -0.215   0.046
    1UNL    H12   35  -0.077  -0.428  -0.020
    1UNL    H13   36  -0.086  -0.355   0.142
    1UNL    H14   37   0.144  -0.372   0.123
    1UNL    H15   38   0.130  -0.365  -0.055
    1UNL    H16   39   0.384   0.196  -0.044
    1UNL    H17   40   0.601   0.078  -0.063
    1UNL    H18   41   0.599  -0.161  -0.048
    1UNL    H19   42   0.400  -0.298   0.007
    1UNL    H20   43   0.037   0.172  -0.125
    1UNL    H21   44   0.057   0.369  -0.179
    1UNL    H22   45   0.068   0.485  -0.050
    1UNL    H23   46   0.220   0.437  -0.132
    1UNL    H24   47  -0.053   0.178   0.159
    1UNL    H25   48  -0.132   0.274   0.052
    1UNL    H26   49  -0.084  -0.097   0.188
   0.00000   0.00000   0.00000   0.00000   0.00000   0.00000   0.00000   0.00000   0.00000
Generated with MDTraj, t= 5.0
 49
    1UNL     C1    1  -0.394   0.162   0.100
    1UNL     C2    2  -0.283   0.059   0.122
    1UNL     C3    3  -0.160   0.058   0.029
    1UNL     C4    4  -0.198   0.030  -0.121
    1UNL     C5    5  -0.296  -0.080  -0.135
    1UNL     C6    6  -0.254  -0.201  -0.052
    1UNL     N1    7  -0.119  -0.202  -0.006
    1UNL     C7    8  -0.056  -0.324   0.059
    1UNL     C8    9   0.097  -0.318   0.074
    1UNL     C9   10   0.148  -0.177   0.055
    1UNL    C10   11   0.068  -0.067   0.057
    1UNL     N2   12   0.139   0.049   0.027
    1UNL    C11   13   0.270   0.014  -0.002
    1UNL    C12   14   0.378   0.093  -0.040
    1UNL    C13   15   0.502   0.038  -0.051
    1UNL    C14   16   0.517  -0.102  -0.030
    1UNL    C15   17   0.408  -0.188  -0.008
    1UNL    C16   18   0.280  -0.126   0.015
    1UNL    C17   19   0.068   0.179  -0.021
    1UNL     O1   20   0.146   0.288   0.025
    1UNL    C18   21   0.144   0.395  -0.077
    1UNL    C19   22  -0.074   0.188   0.040
    1UNL    C20   23  -0.074  -0.078   0.067
    1UNL     H1   24  -0.346   0.263   0.076
    1UNL     H2   25  -0.462   0.182   0.179
    1UNL     H3   26  -0.454   0.146   0.009
    1UNL     H4   27  -0.337  -0.042   0.120
    1UNL     H5   28  -0.234   0.057   0.218
    1UNL     H6   29  -0.248   0.118  -0.152
    1UNL     H7   30  -0.110   0.026  -0.183
    1UNL     H8   31  -0.303  -0.111  -0.238
    1UNL     H9   32  -0.398  -0.045  -0.103
    1UNL    H10   33  -0.263  -0.294  -0.111
    1UNL    H11   34  -0.317  -0.215   0.031
    1UNL    H12   35  -0.086  -0.414   0.002
    1UNL    H13   36  -0.096  -0.338   0.158
    1UNL    H14   37   0.123  -0.371   0.168
    1UNL    H15   38   0.135  -0.373  -0.001
    1UNL    H16   39   0.366   0.198  -0.059
    1UNL    H17   40   0.586   0.096  -0.084
    1UNL    H18   41   0.613  -0.155  -0.052
    1UNL    H19   42   0.423  -0.298  -0.004
    1UNL    H20   43   0.088   0.167  -0.132
    1UNL    H21   44   0.242   0.403  -0.131
    1UNL    H22   45   0.078   0.372  -0.163
    1UNL    H23   46   0.119   0.493  -0.021
    1UNL    H24   47  -0.060   0.208   0.142
    1UNL    H25   48  -0.130   0.279   0.009
    1UNL    H26   49  -0.084  -0.100   0.178
   0.00000   0.00000   0.00000   0.00000   0.00000   0.00000   0.00000   0.00000   0.00000
Generated with MDTraj, t= 6.0
 49
    1UNL     C1    1  -0.383   0.197   0.077
    1UNL     C2    2  -0.292   0.077   0.112
    1UNL     C3    3  -0.167   0.052   0.028
    1UNL     C4    4  -0.202   0.024  -0.126
    1UNL     C5    5  -0.301  -0.097  -0.132
    1UNL     C6    6  -0.254  -0.215  -0.037
    1UNL     N1    7  -0.112  -0.200  -0.002
    1UNL     C7    8  -0.038  -0.318   0.053
    1UNL     C8    9   0.117  -0.314   0.061
    1UNL     C9   10   0.154  -0.166   0.057
    1UNL    C10   11   0.064  -0.063   0.058
    1UNL     N2   12   0.132   0.047   0.021
    1UNL    C11   13   0.266   0.015  -0.007
    1UNL    C12   14   0.374   0.089  -0.053
    1UNL    C13   15   0.499   0.024  -0.069
    1UNL    C14   16   0.510  -0.112  -0.044
    1UNL    C15   17   0.406  -0.191   0.011
    1UNL    C16   18   0.285  -0.121   0.024
    1UNL    C17   19   0.072   0.172  -0.018
    1UNL     O1   20   0.155   0.282   0.030
    1UNL    C18   21   0.126   0.400  -0.042
    1UNL    C19   22  -0.077   0.178   0.043
    1UNL    C20   23  -0.083  -0.076   0.080
    1UNL     H1   24  -0.315   0.288   0.100
    1UNL     H2   25  -0.465   0.198   0.146
    1UNL     H3   26  -0.412   0.212  -0.025
    1UNL     H4   27  -0.344  -0.029   0.105
    1UNL     H5   28  -0.264   0.093   0.213
    1UNL     H6   29  -0.247   0.112  -0.162
    1UNL     H7   30  -0.110   0.021  -0.182
    1UNL     H8   31  -0.296  -0.123  -0.239
    1UNL     H9   32  -0.400  -0.073  -0.110
    1UNL    H10   33  -0.260  -0.310  -0.088
    1UNL    H11   34  -0.311  -0.230   0.056
    1UNL    H12   35  -0.063  -0.394  -0.025
    1UNL    H13   36  -0.092  -0.356   0.139
    1UNL    H14   37   0.160  -0.364   0.149
    1UNL    H15   38   0.157  -0.367  -0.016
    1UNL    H16   39   0.368   0.195  -0.075
    1UNL    H17   40   0.582   0.077  -0.113
    1UNL    H18   41   0.605  -0.156  -0.067
    1UNL    H19   42   0.411  -0.293   0.018
    1UNL    H20   43   0.081   0.174  -0.133
    1UNL    H21   44   0.184   0.480   0.013
    1UNL    H22   45   0.177   0.393  -0.142
    1UNL    H23   46   0.013   0.420  -0.025
    1UNL    H24   47  -0.086   0.223   0.138
    1UNL    H25   48  -0.118   0.260  -0.019
    1UNL    H26   49  -0.112  -0.105   0.186
   0.00000   0.00000   0.00000   0.00000   0.00000   0.00000   0.00000   0.00000   0.00000
Generated with MDTraj, t= 7.0
 49
    1UNL     C1    1  -0.362   0.193   0.071
    1UNL     C2    2  -0.276   0.075   0.118
    1UNL     C3    3  -0.153   0.056   0.024
    1UNL     C4    4  -0.192   0.022  -0.128
    1UNL     C5    5  -0.293  -0.102  -0.148
    1UNL     C6    6  -0.259  -0.216  -0.045
    1UNL     N1    7  -0.118  -0.214   0.007
    1UNL     C7    8  -0.046  -0.323   0.083
    1UNL     C8    9   0.105  -0.314   0.080
    1UNL     C9   10   0.149  -0.173   0.044
    1UNL    C10   11   0.069  -0.062   0.048
    1UNL     N2   12   0.139   0.050   0.013
    1UNL    C11   13   0.269   0.016   0.000
    1UNL    C12   14   0.377   0.093  -0.039
    1UNL    C13   15   0.489   0.018  -0.080
    1UNL    C14   16   0.504  -0.120  -0.052
    1UNL    C15   17   0.402  -0.192  -0.001
    1UNL    C16   18   0.277  -0.125   0.015
    1UNL    C17   19   0.078   0.178  -0.018
    1UNL     O1   20   0.151   0.298   0.026
    1UNL    C18   21   0.097   0.414  -0.016
    1UNL    C19   22  -0.075   0.184   0.037
    1UNL    C20   23  -0.079  -0.078   0.070
    1UNL     H1   24  -0.302   0.287   0.097
    1UNL     H2   25  -0.449   0.201   0.134
    1UNL     H3   26  -0.382   0.200  -0.033
    1UNL     H4   27  -0.339  -0.022   0.102
    1UNL     H5   28  -0.239   0.077   0.218
    1UNL     H6   29  -0.214   0.109  -0.183
    1UNL     H7   30  -0.098  -0.008  -0.169
    1UNL     H8   31  -0.273  -0.148  -0.247
    1UNL     H9   32  -0.387  -0.061  -0.146
    1UNL    H10   33  -0.279  -0.313  -0.084
    1UNL    H11   34  -0.318  -0.210   0.051
    1UNL    H12   35  -0.089  -0.419   0.040
    1UNL    H13   36  -0.089  -0.327   0.182
    1UNL    H14   37   0.158  -0.349   0.167
    1UNL    H15   38   0.146  -0.383   0.006
    1UNL    H16   39   0.377   0.199  -0.047
    1UNL    H17   40   0.574   0.078  -0.109
    1UNL    H18   41   0.598  -0.169  -0.061
    1UNL    H19   42   0.418  -0.300   0.026
    1UNL    H20   43   0.078   0.178  -0.134
    1UNL    H21   44   0.035   0.448   0.071
    1UNL    H22   45   0.187   0.483  -0.014
    1UNL    H23   46   0.030   0.397  -0.107
    1UNL    H24   47  -0.064   0.207   0.142
    1UNL    H25   48  -0.129   0.275   0.007
    1UNL    H26   49  -0.095  -0.073   0.183
   0.00000   0.00000   0.00000   0.00000   0.00000   0.00000   0.00000   0.00000   0.00000
Generated with MDTraj, t= 8.0
 49
    1UNL     C1    1  -0.375   0.175   0.058
    1UNL     C2    2  -0.281   0.076   0.115
    1UNL     C3    3  -0.152   0.058   0.025
    1UNL     C4    4  -0.187   0.019  -0.123
    1UNL     C5    5  -0.281  -0.101  -0.138
    1UNL     C6    6  -0.252  -0.208  -0.042
    1UNL     N1    7  -0.122  -0.208   0.018
    1UNL     C7    8  -0.050  -0.323   0.082
    1UNL     C8    9   0.105  -0.311   0.072
    1UNL     C9   10   0.149  -0.169   0.046
    1UNL    C10   11   0.065  -0.059   0.059
    1UNL     N2   12   0.131   0.051   0.013
    1UNL    C11   13   0.265   0.017  -0.013
    1UNL    C12   14   0.382   0.084  -0.053
    1UNL    C13   15   0.499   0.019  -0.072
    1UNL    C14   16   0.506  -0.124  -0.051
    1UNL    C15   17   0.401  -0.192  -0.005
    1UNL    C16   18   0.275  -0.123   0.009
    1UNL    C17   19   0.072   0.175  -0.025
    1UNL     O1   20   0.155   0.289   0.013
    1UNL    C18   21   0.102   0.419   0.005
    1UNL    C19   22  -0.072   0.185   0.038
    1UNL    C20   23  -0.080  -0.073   0.076
    1UNL     H1   24  -0.324   0.273   0.076
    1UNL     H2   25  -0.464   0.182   0.123
    1UNL     H3   26  -0.399   0.175  -0.046
    1UNL     H4   27  -0.331  -0.021   0.132
    1UNL     H5   28  -0.236   0.105   0.209
    1UNL     H6   29  -0.229   0.103  -0.171
    1UNL     H7   30  -0.101  -0.007  -0.181
    1UNL     H8   31  -0.256  -0.128  -0.245
    1UNL     H9   32  -0.380  -0.077  -0.127
    1UNL    H10   33  -0.258  -0.303  -0.087
    1UNL    H11   34  -0.333  -0.200   0.037
    1UNL    H12   35  -0.087  -0.424   0.048
    1UNL    H13   36  -0.082  -0.310   0.185
    1UNL    H14   37   0.146  -0.349   0.160
    1UNL    H15   38   0.150  -0.372  -0.014
    1UNL    H16   39   0.382   0.193  -0.055
    1UNL    H17   40   0.592   0.070  -0.086
    1UNL    H18   41   0.609  -0.167  -0.061
    1UNL    H19   42   0.402  -0.292   0.024
    1UNL    H20   43   0.071   0.161  -0.141
    1UNL    H21   44   0.001   0.431   0.048
    1UNL    H22   45   0.160   0.484   0.074
    1UNL    H23   46   0.111   0.448  -0.102
    1UNL    H24   47  -0.069   0.207   0.145
    1UNL    H25   48  -0.130   0.269   0.003
    1UNL    H26   49  -0.104  -0.069   0.187
   0.00000   0.00000   0.00000   0.00000   0.00000   0.00000   0.00000   0.00000   0.00000
Generated with MDTraj, t= 9.0
 49
    1UNL     C1    1  -0.391   0.184   0.047
    1UNL     C2    2  -0.295   0.082   0.106
    1UNL     C3    3  -0.160   0.050   0.028
    1UNL     C4    4  -0.197   0.025  -0.122
    1UNL     C5    5  -0.296  -0.098  -0.139
    1UNL     C6    6  -0.255  -0.208  -0.034
    1UNL     N1    7  -0.120  -0.200   0.016
    1UNL     C7    8  -0.051  -0.317   0.070
    1UNL     C8    9   0.104  -0.310   0.067
    1UNL     C9   10   0.158  -0.169   0.065
    1UNL    C10   11   0.070  -0.062   0.068
    1UNL     N2   12   0.138   0.046   0.020
    1UNL    C11   13   0.271   0.018  -0.016
    1UNL    C12   14   0.380   0.084  -0.071
    1UNL    C13   15   0.503   0.023  -0.079
    1UNL    C14   16   0.519  -0.112  -0.043
    1UNL    C15   17   0.412  -0.184  -0.009
    1UNL    C16   18   0.282  -0.120   0.009
    1UNL    C17   19   0.071   0.166  -0.016
    1UNL     O1   20   0.151   0.272   0.037
    1UNL    C18   21   0.119   0.405  -0.006
    1UNL    C19   22  -0.077   0.178   0.039
    1UNL    C20   23  -0.077  -0.072   0.083
    1UNL     H1   24  -0.341   0.276   0.041
    1UNL     H2   25  -0.474   0.197   0.120
    1UNL     H3   26  -0.428   0.165  -0.054
    1UNL     H4   27  -0.336  -0.010   0.122
    1UNL     H5   28  -0.274   0.121   0.206
    1UNL     H6   29  -0.236   0.115  -0.164
    1UNL     H7   30  -0.105   0.010  -0.172
    1UNL     H8   31  -0.276  -0.145  -0.239
    1UNL     H9   32  -0.392  -0.057  -0.130
    1UNL    H10   33  -0.266  -0.298  -0.085
    1UNL    H11   34  -0.318  -0.215   0.059
    1UNL    H12   35  -0.079  -0.403   0.001
    1UNL    H13   36  -0.080  -0.337   0.171
    1UNL    H14   37   0.138  -0.349   0.155
    1UNL    H15   38   0.142  -0.379  -0.022
    1UNL    H16   39   0.367   0.185  -0.098
    1UNL    H17   40   0.589   0.074  -0.127
    1UNL    H18   41   0.615  -0.150  -0.060
    1UNL    H19   42   0.416  -0.293   0.012
    1UNL    H20   43   0.080   0.171  -0.132
    1UNL    H21   44   0.104   0.475   0.076
    1UNL    H22   45   0.213   0.454  -0.040
    1UNL    H23   46   0.058   0.406  -0.095
    1UNL    H24   47  -0.092   0.210   0.144
    1UNL    H25   48  -0.129   0.254  -0.011
    1UNL    H26   49  -0.120  -0.081   0.189
   0.00000   0.00000   0.00000   0.00000   0.00000   0.00000   0.00000   0.00000   0.00000
Generated with MDTraj, t= 10.0
 49
    1UNL     C1    1  -0.372   0.183   0.077
    1UNL     C2    2  -0.285   0.062   0.116
    1UNL     C3    3  -0.157   0.055   0.026
    1UNL     C4    4  -0.193   0.022  -0.129
    1UNL     C5    5  -0.292  -0.095  -0.149
    1UNL     C6    6  -0.260  -0.215  -0.053
    1UNL     N1    7  -0.123  -0.207   0.005
    1UNL     C7    8  -0.058  -0.326   0.079
    1UNL     C8    9   0.100  -0.313   0.088
    1UNL     C9   10   0.150  -0.171   0.056
    1UNL    C10   11   0.070  -0.060   0.063
    1UNL     N2   12   0.140   0.055   0.031
    1UNL    C11   13   0.274   0.016   0.004
    1UNL    C12   14   0.379   0.085  -0.051
    1UNL    C13   15   0.500   0.023  -0.074
    1UNL    C14   16   0.512  -0.112  -0.051
    1UNL    C15   17   0.399  -0.186  -0.018
    1UNL    C16   18   0.280  -0.122   0.019
    1UNL    C17   19   0.076   0.176  -0.021
    1UNL     O1   20   0.149   0.290   0.024
    1UNL    C18   21   0.116   0.419  -0.027
    1UNL    C19   22  -0.072   0.177   0.034
    1UNL    C20   23  -0.078  -0.074   0.079
    1UNL     H1   24  -0.317   0.269   0.078
    1UNL     H2   25  -0.458   0.205   0.144
    1UNL     H3   26  -0.407   0.178  -0.028
    1UNL     H4   27  -0.344  -0.018   0.094
    1UNL     H5   28  -0.259   0.050   0.220
    1UNL     H6   29  -0.210   0.113  -0.184
    1UNL     H7   30  -0.103  -0.008  -0.176
    1UNL     H8   31  -0.276  -0.123  -0.256
    1UNL     H9   32  -0.395  -0.065  -0.141
    1UNL    H10   33  -0.267  -0.311  -0.099
    1UNL    H11   34  -0.334  -0.220   0.030
    1UNL    H12   35  -0.068  -0.418   0.015
    1UNL    H13   36  -0.098  -0.342   0.178
    1UNL    H14   37   0.133  -0.353   0.177
    1UNL    H15   38   0.142  -0.372  -0.006
    1UNL    H16   39   0.371   0.188  -0.087
    1UNL    H17   40   0.575   0.082  -0.120
    1UNL    H18   41   0.595  -0.172  -0.088
    1UNL    H19   42   0.404  -0.294  -0.023
    1UNL    H20   43   0.085   0.181  -0.135
    1UNL    H21   44   0.056   0.462   0.048
    1UNL    H22   45   0.206   0.480  -0.035
    1UNL    H23   46   0.077   0.422  -0.123
    1UNL    H24   47  -0.054   0.208   0.140
    1UNL    H25   48  -0.135   0.250  -0.006
    1UNL    H26   49  -0.094  -0.080   0.192
   0.00000   0.00000   0.00000   0.00000   0.00000   0.00000   0.00000   0.00000   0.00000
Generated with MDTraj, t= 11.0
 49
    1UNL     C1    1  -0.363   0.198   0.079
    1UNL     C2    2  -0.288   0.066   0.119
    1UNL     C3    3  -0.159   0.045   0.040
    1UNL     C4    4  -0.192   0.024  -0.114
    1UNL     C5    5  -0.283  -0.091  -0.144
    1UNL     C6    6  -0.254  -0.213  -0.050
    1UNL     N1    7  -0.119  -0.208  -0.000
    1UNL     C7    8  -0.045  -0.327   0.058
    1UNL     C8    9   0.105  -0.315   0.058
    1UNL     C9   10   0.152  -0.171   0.061
    1UNL    C10   11   0.066  -0.065   0.065
    1UNL     N2   12   0.135   0.051   0.026
    1UNL    C11   13   0.272   0.017   0.005
    1UNL    C12   14   0.379   0.086  -0.048
    1UNL    C13   15   0.499   0.015  -0.064
    1UNL    C14   16   0.507  -0.120  -0.047
    1UNL    C15   17   0.397  -0.192  -0.001
    1UNL    C16   18   0.283  -0.120   0.027
    1UNL    C17   19   0.065   0.177  -0.016
    1UNL     O1   20   0.140   0.300   0.003
    1UNL    C18   21   0.107   0.423  -0.056
    1UNL    C19   22  -0.069   0.173   0.059
    1UNL    C20   23  -0.080  -0.085   0.073
    1UNL     H1   24  -0.302   0.282   0.101
    1UNL     H2   25  -0.462   0.222   0.122
    1UNL     H3   26  -0.372   0.209  -0.030
    1UNL     H4   27  -0.352  -0.020   0.130
    1UNL     H5   28  -0.260   0.082   0.221
    1UNL     H6   29  -0.237   0.114  -0.154
    1UNL     H7   30  -0.102   0.030  -0.167
    1UNL     H8   31  -0.275  -0.121  -0.249
    1UNL     H9   32  -0.391  -0.061  -0.131
    1UNL    H10   33  -0.267  -0.308  -0.101
    1UNL    H11   34  -0.322  -0.225   0.038
    1UNL    H12   35  -0.067  -0.423   0.001
    1UNL    H13   36  -0.083  -0.344   0.157
    1UNL    H14   37   0.146  -0.357   0.147
    1UNL    H15   38   0.155  -0.366  -0.033
    1UNL    H16   39   0.367   0.192  -0.067
    1UNL    H17   40   0.592   0.072  -0.091
    1UNL    H18   41   0.602  -0.169  -0.061
    1UNL    H19   42   0.401  -0.296  -0.001
    1UNL    H20   43   0.035   0.174  -0.124
    1UNL    H21   44   0.005   0.439  -0.044
    1UNL    H22   45   0.167   0.504  -0.018
    1UNL    H23   46   0.126   0.428  -0.158
    1UNL    H24   47  -0.054   0.187   0.169
    1UNL    H25   48  -0.112   0.263   0.025
    1UNL    H26   49  -0.092  -0.092   0.187
   0.00000   0.00000   0.00000   0.00000   0.00000   0.00000   0.00000   0.00000   0.00000
Generated with MDTraj, t= 12.0
 49
    1UNL     C1    1  -0.382   0.179   0.092
    1UNL     C2    2  -0.283   0.073   0.131
    1UNL     C3    3  -0.161   0.051   0.032
    1UNL     C4    4  -0.207   0.032  -0.112
    1UNL     C5    5  -0.300  -0.080  -0.140
    1UNL     C6    6  -0.263  -0.200  -0.045
    1UNL     N1    7  -0.124  -0.204  -0.010
    1UNL     C7    8  -0.052  -0.326   0.047
    1UNL     C8    9   0.104  -0.323   0.057
    1UNL     C9   10   0.158  -0.177   0.060
    1UNL    C10   11   0.071  -0.070   0.070
    1UNL     N2   12   0.134   0.042   0.027
    1UNL    C11   13   0.268   0.011   0.002
    1UNL    C12   14   0.378   0.090  -0.039
    1UNL    C13   15   0.501   0.037  -0.058
    1UNL    C14   16   0.521  -0.102  -0.036
    1UNL    C15   17   0.416  -0.180  -0.002
    1UNL    C16   18   0.288  -0.126   0.016
    1UNL    C17   19   0.068   0.169  -0.012
    1UNL     O1   20   0.151   0.285   0.010
    1UNL    C18   21   0.128   0.396  -0.075
    1UNL    C19   22  -0.074   0.183   0.039
    1UNL    C20   23  -0.076  -0.078   0.076
    1UNL     H1   24  -0.340   0.280   0.082
    1UNL     H2   25  -0.473   0.179   0.151
    1UNL     H3   26  -0.408   0.155  -0.012
    1UNL     H4   27  -0.349  -0.019   0.152
    1UNL     H5   28  -0.250   0.093   0.230
    1UNL     H6   29  -0.253   0.128  -0.137
    1UNL     H7   30  -0.120   0.029  -0.168
    1UNL     H8   31  -0.299  -0.114  -0.244
    1UNL     H9   32  -0.408  -0.046  -0.110
    1UNL    H10   33  -0.297  -0.290  -0.101
    1UNL    H11   34  -0.319  -0.201   0.049
    1UNL    H12   35  -0.092  -0.419  -0.003
    1UNL    H13   36  -0.087  -0.344   0.148
    1UNL    H14   37   0.144  -0.366   0.152
    1UNL    H15   38   0.158  -0.380  -0.021
    1UNL    H16   39   0.360   0.194  -0.039
    1UNL    H17   40   0.578   0.104  -0.065
    1UNL    H18   41   0.625  -0.134  -0.033
    1UNL    H19   42   0.430  -0.291   0.021
    1UNL    H20   43   0.054   0.156  -0.122
    1UNL    H21   44   0.034   0.447  -0.067
    1UNL    H22   45   0.216   0.461  -0.078
    1UNL    H23   46   0.121   0.366  -0.176
    1UNL    H24   47  -0.057   0.221   0.141
    1UNL    H25   48  -0.127   0.265  -0.010
    1UNL    H26   49  -0.112  -0.113   0.176
   0.00000   0.00000   0.00000   0.00000   0.00000   0.00000   0.00000   0.00000   0.00000
Generated with MDTraj, t= 13.0
 49
    1UNL     C1    1  -0.384   0.178   0.109
    1UNL     C2    2  -0.284   0.067   0.133
    1UNL     C3    3  -0.161   0.048   0.033
    1UNL     C4    4  -0.210   0.034  -0.116
    1UNL     C5    5  -0.313  -0.080  -0.123
    1UNL     C6    6  -0.261  -0.212  -0.046
    1UNL     N1    7  -0.122  -0.206  -0.006
    1UNL     C7    8  -0.044  -0.329   0.047
    1UNL     C8    9   0.107  -0.315   0.050
    1UNL     C9   10   0.151  -0.173   0.046
    1UNL    C10   11   0.067  -0.064   0.051
    1UNL     N2   12   0.138   0.052   0.021
    1UNL    C11   13   0.273   0.014  -0.006
    1UNL    C12   14   0.392   0.089  -0.021
    1UNL    C13   15   0.508   0.028  -0.036
    1UNL    C14   16   0.522  -0.115  -0.030
    1UNL    C15   17   0.412  -0.188   0.002
    1UNL    C16   18   0.282  -0.127   0.012
    1UNL    C17   19   0.069   0.175  -0.027
    1UNL     O1   20   0.146   0.296   0.010
    1UNL    C18   21   0.129   0.402  -0.081
    1UNL    C19   22  -0.075   0.186   0.031
    1UNL    C20   23  -0.080  -0.079   0.075
    1UNL     H1   24  -0.345   0.284   0.079
    1UNL     H2   25  -0.464   0.187   0.179
    1UNL     H3   26  -0.430   0.147   0.015
    1UNL     H4   27  -0.341  -0.036   0.133
    1UNL     H5   28  -0.258   0.069   0.236
    1UNL     H6   29  -0.233   0.133  -0.155
    1UNL     H7   30  -0.128  -0.001  -0.172
    1UNL     H8   31  -0.329  -0.099  -0.230
    1UNL     H9   32  -0.418  -0.055  -0.071
    1UNL    H10   33  -0.280  -0.308  -0.103
    1UNL    H11   34  -0.326  -0.219   0.040
    1UNL    H12   35  -0.070  -0.425  -0.005
    1UNL    H13   36  -0.084  -0.348   0.145
    1UNL    H14   37   0.153  -0.373   0.141
    1UNL    H15   38   0.157  -0.358  -0.034
    1UNL    H16   39   0.375   0.197  -0.008
    1UNL    H17   40   0.600   0.090  -0.047
    1UNL    H18   41   0.613  -0.163  -0.059
    1UNL    H19   42   0.419  -0.286   0.029
    1UNL    H20   43   0.062   0.160  -0.136
    1UNL    H21   44   0.032   0.426  -0.129
    1UNL    H22   45   0.188   0.492  -0.045
    1UNL    H23   46   0.186   0.379  -0.171
    1UNL    H24   47  -0.073   0.243   0.124
    1UNL    H25   48  -0.136   0.255  -0.033
    1UNL    H26   49  -0.087  -0.089   0.186
   0.00000   0.00000   0.00000   0.00000   0.00000   0.00000   0.00000   0.00000   0.00000
Generated with MDTraj, t= 14.0
 49
    1UNL     C1    1  -0.360   0.203   0.105
    1UNL     C2    2  -0.288   0.069   0.120
    1UNL     C3    3  -0.158   0.045   0.030
    1UNL     C4    4  -0.210   0.031  -0.116
    1UNL     C5    5  -0.310  -0.092  -0.122
    1UNL     C6    6  -0.265  -0.209  -0.035
    1UNL     N1    7  -0.123  -0.210  -0.008
    1UNL     C7    8  -0.046  -0.330   0.052
    1UNL     C8    9   0.111  -0.320   0.036
    1UNL     C9   10   0.154  -0.178   0.041
    1UNL    C10   11   0.064  -0.072   0.037
    1UNL     N2   12   0.138   0.048   0.014
    1UNL    C11   13   0.274   0.018   0.007
    1UNL    C12   14   0.386   0.097  -0.022
    1UNL    C13   15   0.505   0.035  -0.040
    1UNL    C14   16   0.515  -0.106  -0.023
    1UNL    C15   17   0.409  -0.186   0.016
    1UNL    C16   18   0.286  -0.122   0.022
    1UNL    C17   19   0.069   0.171  -0.027
    1UNL     O1   20   0.152   0.290   0.000
    1UNL    C18   21   0.116   0.405  -0.072
    1UNL    C19   22  -0.069   0.178   0.046
    1UNL    C20   23  -0.083  -0.087   0.071
    1UNL     H1   24  -0.295   0.299   0.098
    1UNL     H2   25  -0.441   0.212   0.174
    1UNL     H3   26  -0.407   0.198   0.007
    1UNL     H4   27  -0.375  -0.011   0.130
    1UNL     H5   28  -0.249   0.054   0.217
    1UNL     H6   29  -0.260   0.121  -0.149
    1UNL     H7   30  -0.128   0.015  -0.179
    1UNL     H8   31  -0.324  -0.130  -0.224
    1UNL     H9   32  -0.413  -0.044  -0.087
    1UNL    H10   33  -0.292  -0.306  -0.089
    1UNL    H11   34  -0.312  -0.219   0.061
    1UNL    H12   35  -0.083  -0.420  -0.002
    1UNL    H13   36  -0.076  -0.344   0.155
    1UNL    H14   37   0.165  -0.382   0.122
    1UNL    H15   38   0.134  -0.372  -0.052
    1UNL    H16   39   0.363   0.202  -0.032
    1UNL    H17   40   0.585   0.080  -0.096
    1UNL    H18   41   0.609  -0.151  -0.055
    1UNL    H19   42   0.411  -0.297   0.016
    1UNL    H20   43   0.057   0.174  -0.134
    1UNL    H21   44   0.011   0.447  -0.066
    1UNL    H22   45   0.201   0.476  -0.038
    1UNL    H23   46   0.143   0.402  -0.180
    1UNL    H24   47  -0.082   0.208   0.149
    1UNL    H25   48  -0.129   0.260  -0.006
    1UNL    H26   49  -0.093  -0.102   0.179
   0.00000   0.00000   0.00000   0.00000   0.00000   0.00000   0.00000   0.00000   0.00000
Generated with MDTraj, t= 15.0
 49
    1UNL     C1    1  -0.361   0.191   0.097
    1UNL     C2    2  -0.277   0.068   0.129
    1UNL     C3    3  -0.155   0.055   0.028
    1UNL     C4    4  -0.205   0.032  -0.113
    1UNL     C5    5  -0.300  -0.089  -0.129
    1UNL     C6    6  -0.254  -0.204  -0.045
    1UNL     N1    7  -0.108  -0.207  -0.014
    1UNL     C7    8  -0.052  -0.327   0.056
    1UNL     C8    9   0.101  -0.319   0.057
    1UNL     C9   10   0.149  -0.177   0.046
    1UNL    C10   11   0.067  -0.069   0.056
    1UNL     N2   12   0.135   0.049   0.032
    1UNL    C11   13   0.267   0.014   0.004
    1UNL    C12   14   0.378   0.095  -0.037
    1UNL    C13   15   0.500   0.033  -0.044
    1UNL    C14   16   0.516  -0.105  -0.017
    1UNL    C15   17   0.404  -0.192  -0.003
    1UNL    C16   18   0.281  -0.129   0.011
    1UNL    C17   19   0.073   0.164  -0.034
    1UNL     O1   20   0.156   0.283  -0.009
    1UNL    C18   21   0.098   0.406  -0.051
    1UNL    C19   22  -0.071   0.186   0.031
    1UNL    C20   23  -0.078  -0.078   0.070
    1UNL     H1   24  -0.307   0.291   0.108
    1UNL     H2   25  -0.454   0.183   0.151
    1UNL     H3   26  -0.381   0.185  -0.008
    1UNL     H4   27  -0.331  -0.033   0.142
    1UNL     H5   28  -0.246   0.082   0.230
    1UNL     H6   29  -0.256   0.124  -0.135
    1UNL     H7   30  -0.123   0.017  -0.177
    1UNL     H8   31  -0.315  -0.096  -0.238
    1UNL     H9   32  -0.407  -0.066  -0.088
    1UNL    H10   33  -0.275  -0.304  -0.097
    1UNL    H11   34  -0.305  -0.210   0.048
    1UNL    H12   35  -0.084  -0.418   0.003
    1UNL    H13   36  -0.094  -0.331   0.156
    1UNL    H14   37   0.125  -0.376   0.157
    1UNL    H15   38   0.138  -0.384  -0.016
    1UNL    H16   39   0.366   0.197  -0.067
    1UNL    H17   40   0.583   0.097  -0.059
    1UNL    H18   41   0.609  -0.155  -0.020
    1UNL    H19   42   0.419  -0.301   0.006
    1UNL    H20   43   0.075   0.160  -0.139
    1UNL    H21   44   0.023   0.442   0.027
    1UNL    H22   45   0.186   0.476  -0.078
    1UNL    H23   46   0.041   0.397  -0.146
    1UNL    H24   47  -0.046   0.211   0.132
    1UNL    H25   48  -0.139   0.275  -0.001
    1UNL    H26   49  -0.099  -0.100   0.175
   0.00000   0.00000   0.00000   0.00000   0.00000   0.00000   0.00000   0.00000   0.00000
Generated with MDTraj, t= 16.0
 49
    1UNL     C1    1  -0.377   0.176   0.085
    1UNL     C2    2  -0.272   0.073   0.127
    1UNL     C3    3  -0.154   0.055   0.034
    1UNL     C4    4  -0.207   0.039  -0.116
    1UNL     C5    5  -0.293  -0.089  -0.132
    1UNL     C6    6  -0.250  -0.205  -0.054
    1UNL     N1    7  -0.116  -0.200  -0.004
    1UNL     C7    8  -0.049  -0.321   0.049
    1UNL     C8    9   0.106  -0.310   0.066
    1UNL     C9   10   0.155  -0.170   0.049
    1UNL    C10   11   0.070  -0.065   0.056
    1UNL     N2   12   0.141   0.052   0.024
    1UNL    C11   13   0.278   0.020  -0.000
    1UNL    C12   14   0.389   0.080  -0.056
    1UNL    C13   15   0.508   0.009  -0.061
    1UNL    C14   16   0.515  -0.126  -0.030
    1UNL    C15   17   0.402  -0.198   0.007
    1UNL    C16   18   0.288  -0.121   0.021
    1UNL    C17   19   0.069   0.175  -0.024
    1UNL     O1   20   0.142   0.291   0.007
    1UNL    C18   21   0.083   0.406  -0.042
    1UNL    C19   22  -0.077   0.186   0.036
    1UNL    C20   23  -0.079  -0.072   0.080
    1UNL     H1   24  -0.341   0.276   0.064
    1UNL     H2   25  -0.470   0.177   0.144
    1UNL     H3   26  -0.411   0.149  -0.015
    1UNL     H4   27  -0.312  -0.027   0.139
    1UNL     H5   28  -0.243   0.098   0.227
    1UNL     H6   29  -0.255   0.129  -0.153
    1UNL     H7   30  -0.117   0.022  -0.168
    1UNL     H8   31  -0.313  -0.124  -0.238
    1UNL     H9   32  -0.395  -0.053  -0.100
    1UNL    H10   33  -0.256  -0.303  -0.113
    1UNL    H11   34  -0.303  -0.212   0.036
    1UNL    H12   35  -0.076  -0.402  -0.020
    1UNL    H13   36  -0.097  -0.348   0.142
    1UNL    H14   37   0.135  -0.349   0.164
    1UNL    H15   38   0.151  -0.379  -0.002
    1UNL    H16   39   0.375   0.185  -0.082
    1UNL    H17   40   0.604   0.068  -0.076
    1UNL    H18   41   0.612  -0.180  -0.017
    1UNL    H19   42   0.407  -0.300   0.030
    1UNL    H20   43   0.070   0.163  -0.129
    1UNL    H21   44  -0.004   0.415   0.026
    1UNL    H22   45   0.159   0.490  -0.040
    1UNL    H23   46   0.054   0.394  -0.146
    1UNL    H24   47  -0.063   0.224   0.136
    1UNL    H25   48  -0.136   0.267  -0.019
    1UNL    H26   49  -0.095  -0.092   0.185
   0.00000   0.00000   0.00000   0.00000   0.00000   0.00000   0.00000   0.00000   0.00000
Generated with MDTraj, t= 17.0
 49
    1UNL     C1    1  -0.372   0.183   0.072
    1UNL     C2    2  -0.289   0.063   0.117
    1UNL     C3    3  -0.158   0.053   0.028
    1UNL     C4    4  -0.193   0.033  -0.125
    1UNL     C5    5  -0.297  -0.088  -0.146
    1UNL     C6    6  -0.261  -0.213  -0.047
    1UNL     N1    7  -0.122  -0.208   0.006
    1UNL     C7    8  -0.049  -0.323   0.068
    1UNL     C8    9   0.104  -0.309   0.082
    1UNL     C9   10   0.152  -0.168   0.058
    1UNL    C10   11   0.059  -0.065   0.046
    1UNL     N2   12   0.133   0.045   0.011
    1UNL    C11   13   0.274   0.019   0.007
    1UNL    C12   14   0.381   0.095  -0.048
    1UNL    C13   15   0.495   0.029  -0.083
    1UNL    C14   16   0.510  -0.109  -0.053
    1UNL    C15   17   0.410  -0.183   0.007
    1UNL    C16   18   0.288  -0.117   0.032
    1UNL    C17   19   0.064   0.176  -0.019
    1UNL     O1   20   0.155   0.271   0.015
    1UNL    C18   21   0.126   0.401  -0.030
    1UNL    C19   22  -0.074   0.179   0.052
    1UNL    C20   23  -0.082  -0.075   0.076
    1UNL     H1   24  -0.314   0.267   0.078
    1UNL     H2   25  -0.467   0.196   0.131
    1UNL     H3   26  -0.397   0.179  -0.033
    1UNL     H4   27  -0.356  -0.018   0.123
    1UNL     H5   28  -0.253   0.076   0.219
    1UNL     H6   29  -0.228   0.124  -0.165
    1UNL     H7   30  -0.100   0.012  -0.177
    1UNL     H8   31  -0.291  -0.117  -0.257
    1UNL     H9   32  -0.405  -0.068  -0.132
    1UNL    H10   33  -0.250  -0.306  -0.113
    1UNL    H11   34  -0.323  -0.218   0.037
    1UNL    H12   35  -0.066  -0.406  -0.001
    1UNL    H13   36  -0.106  -0.352   0.156
    1UNL    H14   37   0.135  -0.344   0.171
    1UNL    H15   38   0.154  -0.375   0.011
    1UNL    H16   39   0.368   0.200  -0.057
    1UNL    H17   40   0.567   0.080  -0.133
    1UNL    H18   41   0.603  -0.146  -0.078
    1UNL    H19   42   0.413  -0.295   0.020
    1UNL    H20   43   0.053   0.169  -0.122
    1UNL    H21   44   0.045   0.422   0.037
    1UNL    H22   45   0.212   0.468  -0.022
    1UNL    H23   46   0.101   0.394  -0.135
    1UNL    H24   47  -0.068   0.195   0.159
    1UNL    H25   48  -0.123   0.273   0.011
    1UNL    H26   49  -0.088  -0.097   0.182
   0.00000   0.00000   0.00000   0.00000   0.00000   0.00000   0.00000   0.00000   0.00000
Generated with MDTraj, t= 18.0
 49
    1UNL     C1    1  -0.362   0.191   0.065
    1UNL     C2    2  -0.288   0.067   0.107
    1UNL     C3    3  -0.157   0.049   0.024
    1UNL     C4    4  -0.185   0.011  -0.124
    1UNL     C5    5  -0.279  -0.102  -0.145
    1UNL     C6    6  -0.252  -0.209  -0.042
    1UNL     N1    7  -0.115  -0.203   0.009
    1UNL     C7    8  -0.043  -0.318   0.075
    1UNL     C8    9   0.110  -0.315   0.073
    1UNL     C9   10   0.149  -0.169   0.053
    1UNL    C10   11   0.068  -0.058   0.076
    1UNL     N2   12   0.136   0.052   0.024
    1UNL    C11   13   0.259   0.013  -0.026
    1UNL    C12   14   0.370   0.087  -0.059
    1UNL    C13   15   0.489   0.024  -0.071
    1UNL    C14   16   0.501  -0.117  -0.041
    1UNL    C15   17   0.397  -0.193  -0.011
    1UNL    C16   18   0.269  -0.125  -0.001
    1UNL    C17   19   0.072   0.183  -0.014
    1UNL     O1   20   0.142   0.288   0.043
    1UNL    C18   21   0.120   0.413  -0.024
    1UNL    C19   22  -0.072   0.184   0.038
    1UNL    C20   23  -0.080  -0.077   0.087
    1UNL     H1   24  -0.295   0.267   0.063
    1UNL     H2   25  -0.446   0.215   0.135
    1UNL     H3   26  -0.404   0.192  -0.036
    1UNL     H4   27  -0.343  -0.017   0.091
    1UNL     H5   28  -0.282   0.081   0.216
    1UNL     H6   29  -0.224   0.097  -0.171
    1UNL     H7   30  -0.091  -0.011  -0.171
    1UNL     H8   31  -0.261  -0.149  -0.253
    1UNL     H9   32  -0.383  -0.071  -0.140
    1UNL    H10   33  -0.250  -0.306  -0.102
    1UNL    H11   34  -0.309  -0.200   0.045
    1UNL    H12   35  -0.083  -0.406   0.028
    1UNL    H13   36  -0.075  -0.324   0.180
    1UNL    H14   37   0.149  -0.354   0.157
    1UNL    H15   38   0.150  -0.371  -0.011
    1UNL    H16   39   0.362   0.196  -0.068
    1UNL    H17   40   0.583   0.079  -0.104
    1UNL    H18   41   0.592  -0.171  -0.077
    1UNL    H19   42   0.410  -0.294   0.003
    1UNL    H20   43   0.073   0.196  -0.118
    1UNL    H21   44   0.015   0.421  -0.024
    1UNL    H22   45   0.162   0.496   0.027
    1UNL    H23   46   0.175   0.403  -0.116
    1UNL    H24   47  -0.074   0.224   0.141
    1UNL    H25   48  -0.131   0.261  -0.018
    1UNL    H26   49  -0.089  -0.085   0.194
   0.00000   0.00000   0.00000   0.00000   0.00000   0.00000   0.00000   0.00000   0.00000
Generated with MDTraj, t= 19.0
 49
    1UNL     C1    1  -0.390   0.172   0.048
    1UNL     C2    2  -0.289   0.068   0.099
    1UNL     C3    3  -0.158   0.048   0.021
    1UNL     C4    4  -0.191   0.021  -0.127
    1UNL     C5    5  -0.285  -0.103  -0.139
    1UNL     C6    6  -0.254  -0.218  -0.035
    1UNL     N1    7  -0.124  -0.198   0.030
    1UNL     C7    8  -0.054  -0.316   0.090
    1UNL     C8    9   0.099  -0.311   0.059
    1UNL     C9   10   0.151  -0.170   0.052
    1UNL    C10   11   0.072  -0.056   0.065
    1UNL     N2   12   0.140   0.049   0.025
    1UNL    C11   13   0.268   0.013  -0.007
    1UNL    C12   14   0.379   0.088  -0.047
    1UNL    C13   15   0.498   0.021  -0.079
    1UNL    C14   16   0.509  -0.118  -0.065
    1UNL    C15   17   0.403  -0.189  -0.017
    1UNL    C16   18   0.276  -0.128   0.006
    1UNL    C17   19   0.080   0.179  -0.010
    1UNL     O1   20   0.158   0.289   0.041
    1UNL    C18   21   0.118   0.420  -0.007
    1UNL    C19   22  -0.073   0.179   0.025
    1UNL    C20   23  -0.077  -0.062   0.085
    1UNL     H1   24  -0.346   0.268   0.063
    1UNL     H2   25  -0.487   0.171   0.099
    1UNL     H3   26  -0.421   0.185  -0.056
    1UNL     H4   27  -0.346  -0.021   0.092
    1UNL     H5   28  -0.263   0.082   0.205
    1UNL     H6   29  -0.226   0.109  -0.172
    1UNL     H7   30  -0.097   0.002  -0.177
    1UNL     H8   31  -0.284  -0.143  -0.253
    1UNL     H9   32  -0.386  -0.064  -0.127
    1UNL    H10   33  -0.249  -0.319  -0.082
    1UNL    H11   34  -0.317  -0.214   0.048
    1UNL    H12   35  -0.093  -0.413   0.068
    1UNL    H13   36  -0.071  -0.294   0.197
    1UNL    H14   37   0.153  -0.356   0.141
    1UNL    H15   38   0.121  -0.364  -0.032
    1UNL    H16   39   0.386   0.194  -0.043
    1UNL    H17   40   0.581   0.074  -0.116
    1UNL    H18   41   0.606  -0.157  -0.086
    1UNL    H19   42   0.402  -0.300   0.008
    1UNL    H20   43   0.096   0.197  -0.112
    1UNL    H21   44   0.017   0.430   0.018
    1UNL    H22   45   0.175   0.495   0.043
    1UNL    H23   46   0.151   0.415  -0.108
    1UNL    H24   47  -0.073   0.209   0.132
    1UNL    H25   48  -0.139   0.256  -0.020
    1UNL    H26   49  -0.096  -0.066   0.189
   0.00000   0.00000   0.00000   0.00000   0.00000   0.00000   0.00000   0.00000   0.00000
Generated with MDTraj, t= 20.0
 49
    1UNL     C1    1  -0.387   0.182   0.029
    1UNL     C2    2  -0.294   0.083   0.103
    1UNL     C3    3  -0.159   0.057   0.030
    1UNL     C4    4  -0.188   0.026  -0.120
    1UNL     C5    5  -0.268  -0.102  -0.138
    1UNL     C6    6  -0.258  -0.215  -0.030
    1UNL     N1    7  -0.126  -0.205   0.035
    1UNL     C7    8  -0.055  -0.335   0.076
    1UNL     C8    9   0.098  -0.320   0.075
    1UNL     C9   10   0.151  -0.181   0.052
    1UNL    C10   11   0.072  -0.066   0.054
    1UNL     N2   12   0.138   0.048   0.011
    1UNL    C11   13   0.270   0.013  -0.006
    1UNL    C12   14   0.380   0.087  -0.049
    1UNL    C13   15   0.502   0.024  -0.084
    1UNL    C14   16   0.511  -0.112  -0.070
    1UNL    C15   17   0.407  -0.184  -0.018
    1UNL    C16   18   0.278  -0.126   0.011
    1UNL    C17   19   0.070   0.182  -0.011
    1UNL     O1   20   0.156   0.287   0.033
    1UNL    C18   21   0.110   0.417  -0.005
    1UNL    C19   22  -0.071   0.185   0.052
    1UNL    C20   23  -0.081  -0.067   0.085
    1UNL     H1   24  -0.325   0.273   0.001
    1UNL     H2   25  -0.466   0.206   0.098
    1UNL     H3   26  -0.438   0.149  -0.059
    1UNL     H4   27  -0.350  -0.011   0.117
    1UNL     H5   28  -0.275   0.127   0.202
    1UNL     H6   29  -0.237   0.109  -0.161
    1UNL     H7   30  -0.096   0.016  -0.177
    1UNL     H8   31  -0.230  -0.139  -0.245
    1UNL     H9   32  -0.371  -0.073  -0.160
    1UNL    H10   33  -0.269  -0.319  -0.068
    1UNL    H11   34  -0.331  -0.203   0.045
    1UNL    H12   35  -0.083  -0.404  -0.001
    1UNL    H13   36  -0.090  -0.376   0.173
    1UNL    H14   37   0.144  -0.350   0.177
    1UNL    H15   38   0.146  -0.375  -0.001
    1UNL    H16   39   0.370   0.194  -0.056
    1UNL    H17   40   0.588   0.086  -0.103
    1UNL    H18   41   0.607  -0.161  -0.081
    1UNL    H19   42   0.427  -0.284   0.009
    1UNL    H20   43   0.074   0.188  -0.118
    1UNL    H21   44   0.056   0.456   0.078
    1UNL    H22   45   0.201   0.477  -0.005
    1UNL    H23   46   0.060   0.404  -0.101
    1UNL    H24   47  -0.083   0.208   0.163
    1UNL    H25   48  -0.118   0.272   0.004
    1UNL    H26   49  -0.090  -0.065   0.191
   0.00000   0.00000   0.00000   0.00000   0.00000   0.00000   0.00000   0.00000   0.00000
Generated with MDTraj, t= 21.0
 49
    1UNL     C1    1  -0.371   0.188   0.062
    1UNL     C2    2  -0.288   0.067   0.113
    1UNL     C3    3  -0.147   0.056   0.031
    1UNL     C4    4  -0.169   0.019  -0.120
    1UNL     C5    5  -0.267  -0.090  -0.147
    1UNL     C6    6  -0.244  -0.212  -0.054
    1UNL     N1    7  -0.114  -0.199   0.020
    1UNL     C7    8  -0.056  -0.331   0.075
    1UNL     C8    9   0.097  -0.319   0.084
    1UNL     C9   10   0.146  -0.177   0.062
    1UNL    C10   11   0.072  -0.060   0.068
    1UNL     N2   12   0.133   0.051   0.011
    1UNL    C11   13   0.264   0.007  -0.016
    1UNL    C12   14   0.370   0.083  -0.067
    1UNL    C13   15   0.491   0.019  -0.078
    1UNL    C14   16   0.503  -0.120  -0.056
    1UNL    C15   17   0.396  -0.196  -0.009
    1UNL    C16   18   0.274  -0.133   0.021
    1UNL    C17   19   0.067   0.185  -0.019
    1UNL     O1   20   0.148   0.299   0.021
    1UNL    C18   21   0.093   0.428  -0.011
    1UNL    C19   22  -0.070   0.188   0.045
    1UNL    C20   23  -0.074  -0.073   0.088
    1UNL     H1   24  -0.319   0.285   0.092
    1UNL     H2   25  -0.466   0.180   0.107
    1UNL     H3   26  -0.388   0.188  -0.044
    1UNL     H4   27  -0.343  -0.035   0.098
    1UNL     H5   28  -0.270   0.074   0.220
    1UNL     H6   29  -0.201   0.101  -0.178
    1UNL     H7   30  -0.071  -0.011  -0.154
    1UNL     H8   31  -0.251  -0.122  -0.257
    1UNL     H9   32  -0.367  -0.043  -0.144
    1UNL    H10   33  -0.223  -0.293  -0.125
    1UNL    H11   34  -0.318  -0.251   0.015
    1UNL    H12   35  -0.074  -0.406   0.002
    1UNL    H13   36  -0.106  -0.358   0.171
    1UNL    H14   37   0.151  -0.361   0.181
    1UNL    H15   38   0.138  -0.368   0.002
    1UNL    H16   39   0.367   0.185  -0.106
    1UNL    H17   40   0.581   0.083  -0.105
    1UNL    H18   41   0.598  -0.171  -0.076
    1UNL    H19   42   0.408  -0.302   0.005
    1UNL    H20   43   0.068   0.173  -0.128
    1UNL    H21   44   0.001   0.445   0.047
    1UNL    H22   45   0.166   0.497   0.039
    1UNL    H23   46   0.067   0.423  -0.120
    1UNL    H24   47  -0.061   0.228   0.152
    1UNL    H25   48  -0.126   0.262  -0.012
    1UNL    H26   49  -0.095  -0.091   0.190
   0.00000   0.00000   0.00000   0.00000   0.00000   0.00000   0.00000   0.00000   0.00000
Generated with MDTraj, t= 22.0
 49
    1UNL     C1    1  -0.381   0.189   0.081
    1UNL     C2    2  -0.291   0.069   0.110
    1UNL     C3    3  -0.163   0.051   0.030
    1UNL     C4    4  -0.200   0.028  -0.124
    1UNL     C5    5  -0.288  -0.098  -0.150
    1UNL     C6    6  -0.246  -0.212  -0.049
    1UNL     N1    7  -0.114  -0.195  -0.002
    1UNL     C7    8  -0.053  -0.314   0.063
    1UNL     C8    9   0.102  -0.304   0.083
    1UNL     C9   10   0.156  -0.168   0.074
    1UNL    C10   11   0.072  -0.062   0.062
    1UNL     N2   12   0.142   0.044   0.017
    1UNL    C11   13   0.270   0.009   0.007
    1UNL    C12   14   0.375   0.081  -0.053
    1UNL    C13   15   0.498   0.019  -0.086
    1UNL    C14   16   0.509  -0.118  -0.060
    1UNL    C15   17   0.407  -0.192  -0.004
    1UNL    C16   18   0.286  -0.126   0.034
    1UNL    C17   19   0.075   0.173  -0.016
    1UNL     O1   20   0.150   0.290   0.030
    1UNL    C18   21   0.107   0.415  -0.027
    1UNL    C19   22  -0.072   0.179   0.032
    1UNL    C20   23  -0.079  -0.075   0.077
    1UNL     H1   24  -0.326   0.287   0.094
    1UNL     H2   25  -0.468   0.193   0.137
    1UNL     H3   26  -0.415   0.191  -0.023
    1UNL     H4   27  -0.345  -0.035   0.094
    1UNL     H5   28  -0.261   0.059   0.214
    1UNL     H6   29  -0.238   0.118  -0.163
    1UNL     H7   30  -0.108   0.010  -0.174
    1UNL     H8   31  -0.264  -0.132  -0.251
    1UNL     H9   32  -0.400  -0.081  -0.154
    1UNL    H10   33  -0.260  -0.315  -0.078
    1UNL    H11   34  -0.322  -0.219   0.029
    1UNL    H12   35  -0.079  -0.402   0.010
    1UNL    H13   36  -0.103  -0.324   0.161
    1UNL    H14   37   0.138  -0.352   0.185
    1UNL    H15   38   0.157  -0.363   0.016
    1UNL    H16   39   0.354   0.181  -0.081
    1UNL    H17   40   0.566   0.058  -0.149
    1UNL    H18   41   0.601  -0.161  -0.089
    1UNL    H19   42   0.412  -0.305  -0.007
    1UNL    H20   43   0.071   0.182  -0.127
    1UNL    H21   44   0.029   0.457   0.043
    1UNL    H22   45   0.193   0.488  -0.012
    1UNL    H23   46   0.060   0.392  -0.128
    1UNL    H24   47  -0.049   0.212   0.140
    1UNL    H25   48  -0.115   0.268  -0.010
    1UNL    H26   49  -0.106  -0.109   0.174
   0.00000   0.00000   0.00000   0.00000   0.00000   0.00000   0.00000   0.00000   0.00000
Generated with MDTraj, t= 23.0
 49
    1UNL     C1    1  -0.376   0.191   0.068
    1UNL     C2    2  -0.287   0.081   0.117
    1UNL     C3    3  -0.165   0.056   0.035
    1UNL     C4    4  -0.205   0.018  -0.110
    1UNL     C5    5  -0.313  -0.093  -0.123
    1UNL     C6    6  -0.257  -0.218  -0.046
    1UNL     N1    7  -0.120  -0.196   0.006
    1UNL     C7    8  -0.046  -0.328   0.025
    1UNL     C8    9   0.100  -0.313   0.073
    1UNL     C9   10   0.159  -0.174   0.060
    1UNL    C10   11   0.072  -0.066   0.057
    1UNL     N2   12   0.139   0.045   0.020
    1UNL    C11   13   0.269   0.011  -0.004
    1UNL    C12   14   0.384   0.088  -0.040
    1UNL    C13   15   0.501   0.029  -0.063
    1UNL    C14   16   0.520  -0.111  -0.041
    1UNL    C15   17   0.411  -0.187  -0.005
    1UNL    C16   18   0.287  -0.127   0.020
    1UNL    C17   19   0.072   0.171  -0.020
    1UNL     O1   20   0.154   0.288   0.017
    1UNL    C18   21   0.111   0.408  -0.045
    1UNL    C19   22  -0.067   0.182   0.040
    1UNL    C20   23  -0.080  -0.075   0.081
    1UNL     H1   24  -0.311   0.278   0.050
    1UNL     H2   25  -0.453   0.212   0.138
    1UNL     H3   26  -0.423   0.161  -0.028
    1UNL     H4   27  -0.352  -0.013   0.134
    1UNL     H5   28  -0.250   0.100   0.220
    1UNL     H6   29  -0.249   0.103  -0.155
    1UNL     H7   30  -0.114   0.001  -0.161
    1UNL     H8   31  -0.322  -0.131  -0.221
    1UNL     H9   32  -0.419  -0.063  -0.091
    1UNL    H10   33  -0.286  -0.312  -0.090
    1UNL    H11   34  -0.316  -0.228   0.043
    1UNL    H12   35  -0.060  -0.388  -0.062
    1UNL    H13   36  -0.097  -0.378   0.110
    1UNL    H14   37   0.101  -0.349   0.185
    1UNL    H15   38   0.160  -0.389   0.031
    1UNL    H16   39   0.382   0.196  -0.057
    1UNL    H17   40   0.592   0.091  -0.095
    1UNL    H18   41   0.615  -0.164  -0.064
    1UNL    H19   42   0.420  -0.286   0.019
    1UNL    H20   43   0.059   0.174  -0.133
    1UNL    H21   44   0.005   0.428  -0.010
    1UNL    H22   45   0.163   0.496   0.002
    1UNL    H23   46   0.119   0.396  -0.158
    1UNL    H24   47  -0.049   0.205   0.151
    1UNL    H25   48  -0.113   0.272   0.004
    1UNL    H26   49  -0.091  -0.078   0.186
   0.00000   0.00000   0.00000   0.00000   0.00000   0.00000   0.00000   0.00000   0.00000
Generated with MDTraj, t= 24.0
 49
    1UNL     C1    1  -0.368   0.173   0.107
    1UNL     C2    2  -0.267   0.061   0.138
    1UNL     C3    3  -0.163   0.056   0.027
    1UNL     C4    4  -0.201   0.025  -0.119
    1UNL     C5    5  -0.299  -0.092  -0.131
    1UNL     C6    6  -0.257  -0.211  -0.042
    1UNL     N1    7  -0.118  -0.198  -0.009
    1UNL     C7    8  -0.059  -0.334   0.037
    1UNL     C8    9   0.091  -0.317   0.058
    1UNL     C9   10   0.144  -0.173   0.046
    1UNL    C10   11   0.066  -0.063   0.058
    1UNL     N2   12   0.135   0.052   0.013
    1UNL    C11   13   0.266   0.017  -0.011
    1UNL    C12   14   0.381   0.095  -0.036
    1UNL    C13   15   0.500   0.030  -0.040
    1UNL    C14   16   0.518  -0.112  -0.024
    1UNL    C15   17   0.410  -0.188   0.012
    1UNL    C16   18   0.279  -0.124   0.017
    1UNL    C17   19   0.067   0.178  -0.021
    1UNL     O1   20   0.157   0.294  -0.003
    1UNL    C18   21   0.121   0.409  -0.074
    1UNL    C19   22  -0.068   0.186   0.043
    1UNL    C20   23  -0.078  -0.080   0.073
    1UNL     H1   24  -0.325   0.268   0.109
    1UNL     H2   25  -0.449   0.176   0.179
    1UNL     H3   26  -0.416   0.162   0.008
    1UNL     H4   27  -0.322  -0.031   0.148
    1UNL     H5   28  -0.212   0.064   0.235
    1UNL     H6   29  -0.255   0.112  -0.147
    1UNL     H7   30  -0.117   0.014  -0.180
    1UNL     H8   31  -0.308  -0.124  -0.230
    1UNL     H9   32  -0.407  -0.074  -0.091
    1UNL    H10   33  -0.277  -0.296  -0.104
    1UNL    H11   34  -0.324  -0.237   0.037
    1UNL    H12   35  -0.082  -0.417  -0.026
    1UNL    H13   36  -0.115  -0.354   0.131
    1UNL    H14   37   0.115  -0.357   0.162
    1UNL    H15   38   0.147  -0.391   0.001
    1UNL    H16   39   0.362   0.201  -0.040
    1UNL    H17   40   0.593   0.079  -0.053
    1UNL    H18   41   0.613  -0.158  -0.023
    1UNL    H19   42   0.426  -0.294   0.048
    1UNL    H20   43   0.055   0.170  -0.135
    1UNL    H21   44   0.034   0.462  -0.029
    1UNL    H22   45   0.195   0.487  -0.048
    1UNL    H23   46   0.119   0.395  -0.185
    1UNL    H24   47  -0.057   0.212   0.152
    1UNL    H25   48  -0.125   0.268  -0.001
    1UNL    H26   49  -0.098  -0.102   0.176
   0.00000   0.00000   0.00000   0.00000   0.00000   0.00000   0.00000   0.00000   0.00000
Generated with MDTraj, t= 25.0
 49
    1UNL     C1    1  -0.363   0.196   0.121
    1UNL     C2    2  -0.277   0.062   0.130
    1UNL     C3    3  -0.165   0.052   0.035
    1UNL     C4    4  -0.219   0.040  -0.115
    1UNL     C5    5  -0.312  -0.090  -0.128
    1UNL     C6    6  -0.259  -0.216  -0.055
    1UNL     N1    7  -0.117  -0.195  -0.023
    1UNL     C7    8  -0.058  -0.317   0.046
    1UNL     C8    9   0.097  -0.311   0.047
    1UNL     C9   10   0.152  -0.176   0.048
    1UNL    C10   11   0.071  -0.069   0.045
    1UNL     N2   12   0.142   0.047   0.014
    1UNL    C11   13   0.276   0.014   0.002
    1UNL    C12   14   0.392   0.096  -0.024
    1UNL    C13   15   0.509   0.030  -0.042
    1UNL    C14   16   0.525  -0.106  -0.017
    1UNL    C15   17   0.413  -0.186   0.018
    1UNL    C16   18   0.289  -0.127   0.019
    1UNL    C17   19   0.067   0.168  -0.023
    1UNL     O1   20   0.145   0.287  -0.005
    1UNL    C18   21   0.103   0.388  -0.089
    1UNL    C19   22  -0.065   0.174   0.055
    1UNL    C20   23  -0.079  -0.077   0.068
    1UNL     H1   24  -0.315   0.285   0.136
    1UNL     H2   25  -0.450   0.203   0.188
    1UNL     H3   26  -0.407   0.207   0.022
    1UNL     H4   27  -0.329  -0.028   0.116
    1UNL     H5   28  -0.241   0.058   0.236
    1UNL     H6   29  -0.270   0.129  -0.145
    1UNL     H7   30  -0.135   0.034  -0.174
    1UNL     H8   31  -0.319  -0.124  -0.226
    1UNL     H9   32  -0.420  -0.065  -0.093
    1UNL    H10   33  -0.260  -0.304  -0.117
    1UNL    H11   34  -0.325  -0.244   0.024
    1UNL    H12   35  -0.102  -0.400  -0.006
    1UNL    H13   36  -0.098  -0.326   0.148
    1UNL    H14   37   0.136  -0.374   0.129
    1UNL    H15   38   0.139  -0.372  -0.038
    1UNL    H16   39   0.378   0.202  -0.032
    1UNL    H17   40   0.595   0.086  -0.079
    1UNL    H18   41   0.625  -0.146   0.004
    1UNL    H19   42   0.418  -0.286   0.049
    1UNL    H20   43   0.054   0.148  -0.137
    1UNL    H21   44   0.004   0.428  -0.068
    1UNL    H22   45   0.160   0.476  -0.067
    1UNL    H23   46   0.120   0.364  -0.195
    1UNL    H24   47  -0.046   0.190   0.164
    1UNL    H25   48  -0.114   0.267   0.017
    1UNL    H26   49  -0.113  -0.109   0.165
   0.00000   0.00000   0.00000   0.00000   0.00000   0.00000   0.00000   0.00000   0.00000
Generated with MDTraj, t= 26.0
 49
    1UNL     C1    1  -0.364   0.199   0.112
    1UNL     C2    2  -0.280   0.073   0.137
    1UNL     C3    3  -0.160   0.054   0.038
    1UNL     C4    4  -0.209   0.024  -0.109
    1UNL     C5    5  -0.314  -0.093  -0.126
    1UNL     C6    6  -0.260  -0.210  -0.046
    1UNL     N1    7  -0.116  -0.196   0.002
    1UNL     C7    8  -0.039  -0.324  -0.005
    1UNL     C8    9   0.101  -0.310   0.052
    1UNL     C9   10   0.149  -0.176   0.047
    1UNL    C10   11   0.069  -0.067   0.056
    1UNL     N2   12   0.138   0.051   0.023
    1UNL    C11   13   0.270   0.015   0.011
    1UNL    C12   14   0.383   0.092  -0.011
    1UNL    C13   15   0.503   0.035  -0.032
    1UNL    C14   16   0.515  -0.105  -0.026
    1UNL    C15   17   0.404  -0.186   0.003
    1UNL    C16   18   0.283  -0.127   0.029
    1UNL    C17   19   0.074   0.168  -0.031
    1UNL     O1   20   0.154   0.282  -0.008
    1UNL    C18   21   0.108   0.385  -0.091
    1UNL    C19   22  -0.069   0.175   0.037
    1UNL    C20   23  -0.078  -0.076   0.083
    1UNL     H1   24  -0.310   0.290   0.119
    1UNL     H2   25  -0.448   0.204   0.183
    1UNL     H3   26  -0.400   0.187   0.013
    1UNL     H4   27  -0.347  -0.006   0.136
    1UNL     H5   28  -0.231   0.091   0.237
    1UNL     H6   29  -0.248   0.114  -0.150
    1UNL     H7   30  -0.128   0.002  -0.170
    1UNL     H8   31  -0.314  -0.114  -0.228
    1UNL     H9   32  -0.424  -0.066  -0.101
    1UNL    H10   33  -0.281  -0.304  -0.096
    1UNL    H11   34  -0.298  -0.216   0.052
    1UNL    H12   35  -0.032  -0.350  -0.109
    1UNL    H13   36  -0.104  -0.396   0.049
    1UNL    H14   37   0.107  -0.344   0.151
    1UNL    H15   38   0.171  -0.382  -0.005
    1UNL    H16   39   0.362   0.193  -0.043
    1UNL    H17   40   0.590   0.100  -0.056
    1UNL    H18   41   0.600  -0.162  -0.056
    1UNL    H19   42   0.419  -0.295   0.007
    1UNL    H20   43   0.057   0.147  -0.144
    1UNL    H21   44   0.005   0.407  -0.076
    1UNL    H22   45   0.159   0.475  -0.079
    1UNL    H23   46   0.126   0.365  -0.196
    1UNL    H24   47  -0.040   0.193   0.141
    1UNL    H25   48  -0.128   0.266   0.001
    1UNL    H26   49  -0.105  -0.098   0.185
   0.00000   0.00000   0.00000   0.00000   0.00000   0.00000   0.00000   0.00000   0.00000
Generated with MDTraj, t= 27.0
 49
    1UNL     C1    1  -0.372   0.173   0.101
    1UNL     C2    2  -0.271   0.070   0.137
    1UNL     C3    3  -0.154   0.059   0.033
    1UNL     C4    4  -0.199   0.024  -0.106
    1UNL     C5    5  -0.305  -0.093  -0.115
    1UNL     C6    6  -0.264  -0.208  -0.035
    1UNL     N1    7  -0.120  -0.192  -0.014
    1UNL     C7    8  -0.037  -0.316  -0.019
    1UNL     C8    9   0.097  -0.311   0.070
    1UNL     C9   10   0.151  -0.174   0.061
    1UNL    C10   11   0.068  -0.066   0.062
    1UNL     N2   12   0.136   0.051   0.022
    1UNL    C11   13   0.268   0.012   0.008
    1UNL    C12   14   0.380   0.093  -0.034
    1UNL    C13   15   0.501   0.031  -0.044
    1UNL    C14   16   0.508  -0.110  -0.027
    1UNL    C15   17   0.403  -0.189   0.012
    1UNL    C16   18   0.280  -0.125   0.033
    1UNL    C17   19   0.073   0.171  -0.022
    1UNL     O1   20   0.146   0.285   0.005
    1UNL    C18   21   0.119   0.390  -0.086
    1UNL    C19   22  -0.071   0.186   0.037
    1UNL    C20   23  -0.078  -0.079   0.067
    1UNL     H1   24  -0.336   0.276   0.093
    1UNL     H2   25  -0.452   0.181   0.175
    1UNL     H3   26  -0.414   0.150   0.010
    1UNL     H4   27  -0.315  -0.024   0.146
    1UNL     H5   28  -0.224   0.104   0.235
    1UNL     H6   29  -0.248   0.112  -0.139
    1UNL     H7   30  -0.119   0.005  -0.172
    1UNL     H8   31  -0.329  -0.112  -0.216
    1UNL     H9   32  -0.399  -0.047  -0.071
    1UNL    H10   33  -0.260  -0.303  -0.086
    1UNL    H11   34  -0.310  -0.215   0.060
    1UNL    H12   35  -0.025  -0.329  -0.126
    1UNL    H13   36  -0.098  -0.396   0.026
    1UNL    H14   37   0.083  -0.342   0.167
    1UNL    H15   38   0.176  -0.384   0.022
    1UNL    H16   39   0.362   0.195  -0.060
    1UNL    H17   40   0.581   0.075  -0.092
    1UNL    H18   41   0.606  -0.155  -0.041
    1UNL    H19   42   0.407  -0.298   0.026
    1UNL    H20   43   0.050   0.166  -0.136
    1UNL    H21   44   0.030   0.441  -0.058
    1UNL    H22   45   0.199   0.454  -0.109
    1UNL    H23   46   0.104   0.358  -0.188
    1UNL    H24   47  -0.057   0.212   0.141
    1UNL    H25   48  -0.118   0.277  -0.016
    1UNL    H26   49  -0.105  -0.100   0.170
   0.00000   0.00000   0.00000   0.00000   0.00000   0.00000   0.00000   0.00000   0.00000
Generated with MDTraj, t= 28.0
 49
    1UNL     C1    1  -0.376   0.189   0.106
    1UNL     C2    2  -0.277   0.070   0.135
    1UNL     C3    3  -0.165   0.052   0.031
    1UNL     C4    4  -0.211   0.040  -0.119
    1UNL     C5    5  -0.301  -0.087  -0.130
    1UNL     C6    6  -0.256  -0.213  -0.056
    1UNL     N1    7  -0.109  -0.200  -0.014
    1UNL     C7    8  -0.044  -0.331   0.017
    1UNL     C8    9   0.095  -0.311   0.080
    1UNL     C9   10   0.151  -0.172   0.065
    1UNL    C10   11   0.068  -0.061   0.058
    1UNL     N2   12   0.135   0.049   0.005
    1UNL    C11   13   0.274   0.015  -0.003
    1UNL    C12   14   0.389   0.086  -0.049
    1UNL    C13   15   0.508   0.019  -0.064
    1UNL    C14   16   0.519  -0.119  -0.030
    1UNL    C15   17   0.409  -0.184   0.017
    1UNL    C16   18   0.282  -0.123   0.036
    1UNL    C17   19   0.065   0.174  -0.022
    1UNL     O1   20   0.149   0.283  -0.000
    1UNL    C18   21   0.101   0.396  -0.060
    1UNL    C19   22  -0.070   0.179   0.055
    1UNL    C20   23  -0.077  -0.074   0.074
    1UNL     H1   24  -0.320   0.285   0.102
    1UNL     H2   25  -0.453   0.209   0.178
    1UNL     H3   26  -0.417   0.184   0.010
    1UNL     H4   27  -0.329  -0.023   0.136
    1UNL     H5   28  -0.228   0.084   0.234
    1UNL     H6   29  -0.251   0.128  -0.162
    1UNL     H7   30  -0.122   0.022  -0.172
    1UNL     H8   31  -0.317  -0.107  -0.233
    1UNL     H9   32  -0.398  -0.053  -0.090
    1UNL    H10   33  -0.256  -0.299  -0.121
    1UNL    H11   34  -0.305  -0.231   0.036
    1UNL    H12   35  -0.021  -0.381  -0.076
    1UNL    H13   36  -0.112  -0.392   0.079
    1UNL    H14   37   0.084  -0.324   0.182
    1UNL    H15   38   0.172  -0.391   0.044
    1UNL    H16   39   0.378   0.192  -0.072
    1UNL    H17   40   0.600   0.073  -0.106
    1UNL    H18   41   0.617  -0.162  -0.034
    1UNL    H19   42   0.421  -0.278   0.052
    1UNL    H20   43   0.042   0.178  -0.135
    1UNL    H21   44  -0.005   0.381  -0.071
    1UNL    H22   45   0.124   0.491  -0.016
    1UNL    H23   46   0.141   0.415  -0.159
    1UNL    H24   47  -0.046   0.195   0.160
    1UNL    H25   48  -0.124   0.272   0.019
    1UNL    H26   49  -0.109  -0.102   0.175
   0.00000   0.00000   0.00000   0.00000   0.00000   0.00000   0.00000   0.00000   0.00000
Generated with MDTraj, t= 29.0
 49
    1UNL     C1    1  -0.373   0.193   0.116
    1UNL     C2    2  -0.289   0.063   0.114
    1UNL     C3    3  -0.162   0.051   0.027
    1UNL     C4    4  -0.199   0.031  -0.122
    1UNL     C5    5  -0.289  -0.095  -0.151
    1UNL     C6    6  -0.255  -0.223  -0.067
    1UNL     N1    7  -0.118  -0.204   0.007
    1UNL     C7    8  -0.053  -0.326   0.067
    1UNL     C8    9   0.101  -0.313   0.078
    1UNL     C9   10   0.151  -0.174   0.048
    1UNL    C10   11   0.069  -0.063   0.052
    1UNL     N2   12   0.137   0.052   0.019
    1UNL    C11   13   0.270   0.016  -0.016
    1UNL    C12   14   0.380   0.090  -0.051
    1UNL    C13   15   0.499   0.022  -0.067
    1UNL    C14   16   0.511  -0.113  -0.037
    1UNL    C15   17   0.405  -0.181   0.006
    1UNL    C16   18   0.278  -0.120   0.019
    1UNL    C17   19   0.071   0.180  -0.018
    1UNL     O1   20   0.151   0.288   0.018
    1UNL    C18   21   0.121   0.400  -0.055
    1UNL    C19   22  -0.066   0.180   0.049
    1UNL    C20   23  -0.082  -0.070   0.080
    1UNL     H1   24  -0.309   0.271   0.157
    1UNL     H2   25  -0.460   0.184   0.175
    1UNL     H3   26  -0.393   0.219   0.012
    1UNL     H4   27  -0.357  -0.018   0.074
    1UNL     H5   28  -0.265   0.030   0.217
    1UNL     H6   29  -0.243   0.120  -0.155
    1UNL     H7   30  -0.110   0.029  -0.181
    1UNL     H8   31  -0.281  -0.115  -0.256
    1UNL     H9   32  -0.393  -0.074  -0.134
    1UNL    H10   33  -0.235  -0.297  -0.144
    1UNL    H11   34  -0.325  -0.250   0.011
    1UNL    H12   35  -0.079  -0.413   0.008
    1UNL    H13   36  -0.094  -0.345   0.168
    1UNL    H14   37   0.137  -0.340   0.175
    1UNL    H15   38   0.149  -0.380   0.002
    1UNL    H16   39   0.365   0.195  -0.060
    1UNL    H17   40   0.580   0.081  -0.081
    1UNL    H18   41   0.608  -0.164  -0.038
    1UNL    H19   42   0.421  -0.286   0.049
    1UNL    H20   43   0.071   0.179  -0.132
    1UNL    H21   44   0.017   0.422  -0.023
    1UNL    H22   45   0.184   0.486  -0.037
    1UNL    H23   46   0.115   0.395  -0.167
    1UNL    H24   47  -0.048   0.197   0.156
    1UNL    H25   48  -0.128   0.266   0.016
    1UNL    H26   49  -0.103  -0.080   0.188
   0.00000   0.00000   0.00000   0.00000   0.00000   0.00000   0.00000   0.00000   0.00000
Generated with MDTraj, t= 30.0
 49
    1UNL     C1    1  -0.364   0.193   0.061
    1UNL     C2    2  -0.287   0.071   0.108
    1UNL     C3    3  -0.151   0.050   0.025
    1UNL     C4    4  -0.185   0.018  -0.120
    1UNL     C5    5  -0.274  -0.109  -0.145
    1UNL     C6    6  -0.263  -0.213  -0.029
    1UNL     N1    7  -0.129  -0.207   0.032
    1UNL     C7    8  -0.051  -0.326   0.069
    1UNL     C8    9   0.101  -0.317   0.048
    1UNL     C9   10   0.146  -0.174   0.041
    1UNL    C10   11   0.065  -0.064   0.067
    1UNL     N2   12   0.136   0.048   0.033
    1UNL    C11   13   0.267   0.013  -0.010
    1UNL    C12   14   0.372   0.099  -0.037
    1UNL    C13   15   0.492   0.034  -0.064
    1UNL    C14   16   0.502  -0.103  -0.050
    1UNL    C15   17   0.398  -0.188  -0.018
    1UNL    C16   18   0.273  -0.129   0.002
    1UNL    C17   19   0.079   0.177  -0.009
    1UNL     O1   20   0.155   0.291   0.034
    1UNL    C18   21   0.120   0.410  -0.041
    1UNL    C19   22  -0.062   0.180   0.040
    1UNL    C20   23  -0.085  -0.078   0.086
    1UNL     H1   24  -0.314   0.287   0.078
    1UNL     H2   25  -0.456   0.197   0.108
    1UNL     H3   26  -0.384   0.189  -0.050
    1UNL     H4   27  -0.350  -0.028   0.117
    1UNL     H5   28  -0.258   0.078   0.213
    1UNL     H6   29  -0.238   0.099  -0.159
    1UNL     H7   30  -0.099   0.019  -0.184
    1UNL     H8   31  -0.242  -0.159  -0.236
    1UNL     H9   32  -0.373  -0.083  -0.167
    1UNL    H10   33  -0.261  -0.318  -0.061
    1UNL    H11   34  -0.342  -0.188   0.040
    1UNL    H12   35  -0.093  -0.418   0.029
    1UNL    H13   36  -0.073  -0.333   0.177
    1UNL    H14   37   0.161  -0.373   0.120
    1UNL    H15   38   0.123  -0.353  -0.049
    1UNL    H16   39   0.359   0.207  -0.040
    1UNL    H17   40   0.572   0.099  -0.109
    1UNL    H18   41   0.604  -0.134  -0.049
    1UNL    H19   42   0.402  -0.293  -0.020
    1UNL    H20   43   0.076   0.182  -0.120
    1UNL    H21   44   0.021   0.451  -0.001
    1UNL    H22   45   0.198   0.488  -0.037
    1UNL    H23   46   0.093   0.401  -0.152
    1UNL    H24   47  -0.078   0.198   0.149
    1UNL    H25   48  -0.116   0.263  -0.004
    1UNL    H26   49  -0.100  -0.076   0.196
   0.00000   0.00000   0.00000   0.00000   0.00000   0.00000   0.00000   0.00000   0.00000
Generated with MDTraj, t= 31.0
 49
    1UNL     C1    1  -0.377   0.171   0.019
    1UNL     C2    2  -0.288   0.079   0.093
    1UNL     C3    3  -0.152   0.054   0.025
    1UNL     C4    4  -0.187   0.014  -0.125
    1UNL     C5    5  -0.285  -0.104  -0.132
    1UNL     C6    6  -0.256  -0.209  -0.028
    1UNL     N1    7  -0.122  -0.205   0.047
    1UNL     C7    8  -0.048  -0.325   0.083
    1UNL     C8    9   0.100  -0.311   0.039
    1UNL     C9   10   0.153  -0.171   0.054
    1UNL    C10   11   0.071  -0.060   0.062
    1UNL     N2   12   0.138   0.050   0.028
    1UNL    C11   13   0.273   0.016   0.003
    1UNL    C12   14   0.384   0.088  -0.028
    1UNL    C13   15   0.502   0.021  -0.069
    1UNL    C14   16   0.499  -0.120  -0.077
    1UNL    C15   17   0.392  -0.193  -0.040
    1UNL    C16   18   0.279  -0.124   0.014
    1UNL    C17   19   0.071   0.179  -0.010
    1UNL     O1   20   0.155   0.290   0.038
    1UNL    C18   21   0.108   0.421  -0.003
    1UNL    C19   22  -0.073   0.187   0.041
    1UNL    C20   23  -0.076  -0.068   0.090
    1UNL     H1   24  -0.340   0.269   0.003
    1UNL     H2   25  -0.465   0.179   0.075
    1UNL     H3   26  -0.403   0.127  -0.082
    1UNL     H4   27  -0.337  -0.022   0.129
    1UNL     H5   28  -0.272   0.121   0.194
    1UNL     H6   29  -0.221   0.092  -0.186
    1UNL     H7   30  -0.097  -0.014  -0.174
    1UNL     H8   31  -0.283  -0.144  -0.233
    1UNL     H9   32  -0.380  -0.070  -0.123
    1UNL    H10   33  -0.282  -0.306  -0.071
    1UNL    H11   34  -0.319  -0.195   0.061
    1UNL    H12   35  -0.095  -0.413   0.038
    1UNL    H13   36  -0.064  -0.342   0.192
    1UNL    H14   37   0.164  -0.363   0.112
    1UNL    H15   38   0.121  -0.342  -0.055
    1UNL    H16   39   0.377   0.195  -0.046
    1UNL    H17   40   0.585   0.084  -0.103
    1UNL    H18   41   0.583  -0.166  -0.131
    1UNL    H19   42   0.398  -0.298  -0.055
    1UNL    H20   43   0.060   0.196  -0.117
    1UNL    H21   44  -0.006   0.432   0.014
    1UNL    H22   45   0.182   0.497   0.028
    1UNL    H23   46   0.112   0.419  -0.117
    1UNL    H24   47  -0.070   0.215   0.149
    1UNL    H25   48  -0.130   0.268   0.001
    1UNL    H26   49  -0.086  -0.077   0.201
   0.00000   0.00000   0.00000   0.00000   0.00000   0.00000   0.00000   0.00000   0.00000
Generated with MDTraj, t= 32.0
 49
    1UNL     C1    1  -0.385   0.176   0.041
    1UNL     C2    2  -0.284   0.072   0.097
    1UNL     C3    3  -0.154   0.059   0.021
    1UNL     C4    4  -0.175   0.030  -0.132
    1UNL     C5    5  -0.256  -0.107  -0.155
    1UNL     C6    6  -0.247  -0.211  -0.043
    1UNL     N1    7  -0.133  -0.198   0.055
    1UNL     C7    8  -0.052  -0.321   0.099
    1UNL     C8    9   0.103  -0.316   0.074
    1UNL     C9   10   0.156  -0.173   0.064
    1UNL    C10   11   0.066  -0.067   0.054
    1UNL     N2   12   0.132   0.046   0.015
    1UNL    C11   13   0.268   0.011  -0.013
    1UNL    C12   14   0.375   0.085  -0.069
    1UNL    C13   15   0.496   0.019  -0.083
    1UNL    C14   16   0.503  -0.120  -0.076
    1UNL    C15   17   0.395  -0.191  -0.030
    1UNL    C16   18   0.278  -0.125   0.015
    1UNL    C17   19   0.070   0.182  -0.010
    1UNL     O1   20   0.142   0.285   0.055
    1UNL    C18   21   0.109   0.413   0.018
    1UNL    C19   22  -0.074   0.193   0.030
    1UNL    C20   23  -0.078  -0.060   0.082
    1UNL     H1   24  -0.344   0.272   0.034
    1UNL     H2   25  -0.467   0.180   0.110
    1UNL     H3   26  -0.417   0.142  -0.059
    1UNL     H4   27  -0.332  -0.028   0.102
    1UNL     H5   28  -0.272   0.091   0.204
    1UNL     H6   29  -0.219   0.112  -0.183
    1UNL     H7   30  -0.081   0.023  -0.178
    1UNL     H8   31  -0.234  -0.146  -0.253
    1UNL     H9   32  -0.353  -0.078  -0.169
    1UNL    H10   33  -0.230  -0.312  -0.083
    1UNL    H11   34  -0.339  -0.223   0.013
    1UNL    H12   35  -0.101  -0.405   0.048
    1UNL    H13   36  -0.061  -0.345   0.207
    1UNL    H14   37   0.159  -0.365   0.155
    1UNL    H15   38   0.123  -0.355  -0.018
    1UNL    H16   39   0.367   0.189  -0.094
    1UNL    H17   40   0.578   0.078  -0.109
    1UNL    H18   41   0.594  -0.168  -0.101
    1UNL    H19   42   0.402  -0.302  -0.002
    1UNL    H20   43   0.078   0.202  -0.114
    1UNL    H21   44   0.036   0.469   0.084
    1UNL    H22   45   0.212   0.449   0.017
    1UNL    H23   46   0.075   0.406  -0.088
    1UNL    H24   47  -0.061   0.237   0.133
    1UNL    H25   48  -0.130   0.269  -0.018
    1UNL    H26   49  -0.077  -0.056   0.194
   0.00000   0.00000   0.00000   0.00000   0.00000   0.00000   0.00000   0.00000   0.00000
Generated with MDTraj, t= 33.0
 49
    1UNL     C1    1  -0.379   0.192   0.038
    1UNL     C2    2  -0.304   0.063   0.086
    1UNL     C3    3  -0.154   0.049   0.021
    1UNL     C4    4  -0.160   0.029  -0.131
    1UNL     C5    5  -0.245  -0.098  -0.158
    1UNL     C6    6  -0.225  -0.218  -0.062
    1UNL     N1    7  -0.131  -0.205   0.062
    1UNL     C7    8  -0.048  -0.324   0.119
    1UNL     C8    9   0.103  -0.309   0.093
    1UNL     C9   10   0.146  -0.171   0.054
    1UNL    C10   11   0.062  -0.058   0.063
    1UNL     N2   12   0.125   0.046  -0.005
    1UNL    C11   13   0.257   0.007  -0.036
    1UNL    C12   14   0.356   0.079  -0.097
    1UNL    C13   15   0.479   0.020  -0.093
    1UNL    C14   16   0.500  -0.116  -0.054
    1UNL    C15   17   0.395  -0.193  -0.023
    1UNL    C16   18   0.272  -0.129  -0.004
    1UNL    C17   19   0.066   0.186  -0.012
    1UNL     O1   20   0.162   0.285   0.049
    1UNL    C18   21   0.119   0.427   0.038
    1UNL    C19   22  -0.069   0.178   0.056
    1UNL    C20   23  -0.084  -0.067   0.094
    1UNL     H1   24  -0.345   0.282   0.084
    1UNL     H2   25  -0.482   0.191   0.074
    1UNL     H3   26  -0.384   0.213  -0.065
    1UNL     H4   27  -0.363  -0.022   0.066
    1UNL     H5   28  -0.299   0.061   0.197
    1UNL     H6   29  -0.204   0.117  -0.176
    1UNL     H7   30  -0.068   0.023  -0.179
    1UNL     H8   31  -0.218  -0.136  -0.255
    1UNL     H9   32  -0.347  -0.078  -0.167
    1UNL    H10   33  -0.177  -0.296  -0.123
    1UNL    H11   34  -0.321  -0.260  -0.027
    1UNL    H12   35  -0.068  -0.426   0.078
    1UNL    H13   36  -0.077  -0.321   0.226
    1UNL    H14   37   0.156  -0.346   0.181
    1UNL    H15   38   0.117  -0.369   0.002
    1UNL    H16   39   0.325   0.180  -0.123
    1UNL    H17   40   0.572   0.068  -0.135
    1UNL    H18   41   0.604  -0.146  -0.035
    1UNL    H19   42   0.413  -0.288   0.007
    1UNL    H20   43   0.054   0.208  -0.114
    1UNL    H21   44   0.019   0.447   0.078
    1UNL    H22   45   0.178   0.480   0.107
    1UNL    H23   46   0.137   0.454  -0.067
    1UNL    H24   47  -0.059   0.191   0.166
    1UNL    H25   48  -0.111   0.270   0.026
    1UNL    H26   49  -0.088  -0.060   0.206
   0.00000   0.00000   0.00000   0.00000   0.00000   0.00000   0.00000   0.00000   0.00000
Generated with MDTraj, t= 34.0
 49
    1UNL     C1    1  -0.397   0.178   0.030
    1UNL     C2    2  -0.300   0.081   0.095
    1UNL     C3    3  -0.163   0.058   0.016
    1UNL     C4    4  -0.198   0.028  -0.130
    1UNL     C5    5  -0.242  -0.123  -0.153
    1UNL     C6    6  -0.137  -0.216  -0.087
    1UNL     N1    7  -0.138  -0.202   0.064
    1UNL     C7    8  -0.054  -0.293   0.147
    1UNL     C8    9   0.086  -0.313   0.079
    1UNL     C9   10   0.143  -0.176   0.049
    1UNL    C10   11   0.059  -0.066   0.048
    1UNL     N2   12   0.131   0.050   0.016
    1UNL    C11   13   0.256   0.005  -0.026
    1UNL    C12   14   0.367   0.080  -0.075
    1UNL    C13   15   0.478   0.015  -0.106
    1UNL    C14   16   0.490  -0.124  -0.079
    1UNL    C15   17   0.387  -0.197  -0.029
    1UNL    C16   18   0.270  -0.131   0.005
    1UNL    C17   19   0.071   0.183  -0.007
    1UNL     O1   20   0.156   0.278   0.067
    1UNL    C18   21   0.132   0.426   0.043
    1UNL    C19   22  -0.071   0.189   0.039
    1UNL    C20   23  -0.088  -0.059   0.086
    1UNL     H1   24  -0.354   0.276   0.017
    1UNL     H2   25  -0.474   0.198   0.107
    1UNL     H3   26  -0.443   0.149  -0.057
    1UNL     H4   27  -0.354  -0.007   0.094
    1UNL     H5   28  -0.276   0.118   0.199
    1UNL     H6   29  -0.271   0.095  -0.173
    1UNL     H7   30  -0.114   0.051  -0.187
    1UNL     H8   31  -0.249  -0.149  -0.254
    1UNL     H9   32  -0.338  -0.150  -0.107
    1UNL    H10   33  -0.038  -0.191  -0.124
    1UNL    H11   34  -0.157  -0.323  -0.115
    1UNL    H12   35  -0.120  -0.383   0.157
    1UNL    H13   36  -0.025  -0.257   0.247
    1UNL    H14   37   0.146  -0.356   0.156
    1UNL    H15   38   0.076  -0.386  -0.011
    1UNL    H16   39   0.353   0.184  -0.092
    1UNL    H17   40   0.560   0.072  -0.135
    1UNL    H18   41   0.575  -0.177  -0.114
    1UNL    H19   42   0.391  -0.307  -0.012
    1UNL    H20   43   0.074   0.201  -0.110
    1UNL    H21   44   0.043   0.454   0.098
    1UNL    H22   45   0.201   0.481   0.097
    1UNL    H23   46   0.130   0.447  -0.063
    1UNL    H24   47  -0.058   0.214   0.146
    1UNL    H25   48  -0.120   0.277   0.001
    1UNL    H26   49  -0.093  -0.039   0.197
   0.00000   0.00000   0.00000   0.00000   0.00000   0.00000   0.00000   0.00000   0.00000
Generated with MDTraj, t= 35.0
 49
    1UNL     C1    1  -0.389   0.159   0.034
    1UNL     C2    2  -0.285   0.070   0.099
    1UNL     C3    3  -0.151   0.060   0.025
    1UNL     C4    4  -0.166   0.035  -0.134
    1UNL     C5    5  -0.235  -0.100  -0.153
    1UNL     C6    6  -0.157  -0.213  -0.088
    1UNL     N1    7  -0.135  -0.192   0.057
    1UNL     C7    8  -0.062  -0.307   0.123
    1UNL     C8    9   0.095  -0.295   0.115
    1UNL     C9   10   0.136  -0.170   0.055
    1UNL    C10   11   0.063  -0.059   0.053
    1UNL     N2   12   0.131   0.053   0.005
    1UNL    C11   13   0.259   0.007  -0.027
    1UNL    C12   14   0.377   0.076  -0.064
    1UNL    C13   15   0.483  -0.001  -0.105
    1UNL    C14   16   0.487  -0.142  -0.096
    1UNL    C15   17   0.379  -0.208  -0.032
    1UNL    C16   18   0.267  -0.133   0.003
    1UNL    C17   19   0.067   0.192  -0.000
    1UNL     O1   20   0.141   0.291   0.072
    1UNL    C18   21   0.101   0.421   0.028
    1UNL    C19   22  -0.077   0.194   0.043
    1UNL    C20   23  -0.078  -0.059   0.088
    1UNL     H1   24  -0.365   0.263   0.043
    1UNL     H2   25  -0.481   0.150   0.094
    1UNL     H3   26  -0.410   0.137  -0.065
    1UNL     H4   27  -0.318  -0.028   0.099
    1UNL     H5   28  -0.265   0.115   0.200
    1UNL     H6   29  -0.205   0.117  -0.195
    1UNL     H7   30  -0.073   0.017  -0.176
    1UNL     H8   31  -0.258  -0.131  -0.250
    1UNL     H9   32  -0.335  -0.096  -0.100
    1UNL    H10   33  -0.066  -0.237  -0.146
    1UNL    H11   34  -0.221  -0.308  -0.094
    1UNL    H12   35  -0.092  -0.409   0.089
    1UNL    H13   36  -0.101  -0.303   0.227
    1UNL    H14   37   0.141  -0.317   0.207
    1UNL    H15   38   0.133  -0.381   0.041
    1UNL    H16   39   0.374   0.184  -0.073
    1UNL    H17   40   0.568   0.048  -0.159
    1UNL    H18   41   0.571  -0.201  -0.131
    1UNL    H19   42   0.373  -0.316  -0.041
    1UNL    H20   43   0.056   0.228  -0.097
    1UNL    H21   44  -0.003   0.429   0.059
    1UNL    H22   45   0.139   0.484   0.102
    1UNL    H23   46   0.125   0.434  -0.078
    1UNL    H24   47  -0.072   0.224   0.148
    1UNL    H25   48  -0.144   0.270   0.002
    1UNL    H26   49  -0.096  -0.044   0.200
   0.00000   0.00000   0.00000   0.00000   0.00000   0.00000   0.00000   0.00000   0.00000
Generated with MDTraj, t= 36.0
 49
    1UNL     C1    1  -0.387   0.181   0.031
    1UNL     C2    2  -0.301   0.073   0.094
    1UNL     C3    3  -0.155   0.062   0.034
    1UNL     C4    4  -0.150   0.026  -0.120
    1UNL     C5    5  -0.218  -0.106  -0.155
    1UNL     C6    6  -0.155  -0.219  -0.084
    1UNL     N1    7  -0.137  -0.192   0.065
    1UNL     C7    8  -0.055  -0.307   0.115
    1UNL     C8    9   0.089  -0.306   0.061
    1UNL     C9   10   0.138  -0.168   0.066
    1UNL    C10   11   0.058  -0.059   0.072
    1UNL     N2   12   0.119   0.046   0.003
    1UNL    C11   13   0.251   0.009  -0.024
    1UNL    C12   14   0.354   0.082  -0.086
    1UNL    C13   15   0.465   0.008  -0.118
    1UNL    C14   16   0.486  -0.124  -0.078
    1UNL    C15   17   0.386  -0.194  -0.006
    1UNL    C16   18   0.268  -0.126   0.015
    1UNL    C17   19   0.062   0.184  -0.007
    1UNL     O1   20   0.162   0.274   0.051
    1UNL    C18   21   0.116   0.402   0.023
    1UNL    C19   22  -0.073   0.191   0.060
    1UNL    C20   23  -0.085  -0.057   0.103
    1UNL     H1   24  -0.346   0.280   0.028
    1UNL     H2   25  -0.473   0.191   0.095
    1UNL     H3   26  -0.427   0.157  -0.067
    1UNL     H4   27  -0.340  -0.023   0.087
    1UNL     H5   28  -0.280   0.101   0.201
    1UNL     H6   29  -0.200   0.097  -0.186
    1UNL     H7   30  -0.052   0.021  -0.157
    1UNL     H8   31  -0.219  -0.118  -0.258
    1UNL     H9   32  -0.329  -0.112  -0.127
    1UNL    H10   33  -0.051  -0.227  -0.119
    1UNL    H11   34  -0.190  -0.325  -0.111
    1UNL    H12   35  -0.119  -0.393   0.088
    1UNL    H13   36  -0.058  -0.306   0.225
    1UNL    H14   37   0.152  -0.375   0.114
    1UNL    H15   38   0.105  -0.348  -0.049
    1UNL    H16   39   0.334   0.187  -0.106
    1UNL    H17   40   0.537   0.057  -0.175
    1UNL    H18   41   0.584  -0.173  -0.082
    1UNL    H19   42   0.401  -0.290   0.036
    1UNL    H20   43   0.044   0.218  -0.105
    1UNL    H21   44   0.047   0.432   0.105
    1UNL    H22   45   0.199   0.469   0.038
    1UNL    H23   46   0.069   0.400  -0.077
    1UNL    H24   47  -0.064   0.210   0.164
    1UNL    H25   48  -0.132   0.276   0.020
    1UNL    H26   49  -0.113  -0.039   0.212
   0.00000   0.00000   0.00000   0.00000   0.00000   0.00000   0.00000   0.00000   0.00000
Generated with MDTraj, t= 37.0
 49
    1UNL     C1    1  -0.398   0.188   0.050
    1UNL     C2    2  -0.308   0.070   0.098
    1UNL     C3    3  -0.166   0.063   0.024
    1UNL     C4    4  -0.190   0.026  -0.123
    1UNL     C5    5  -0.254  -0.114  -0.151
    1UNL     C6    6  -0.161  -0.221  -0.098
    1UNL     N1    7  -0.137  -0.195   0.051
    1UNL     C7    8  -0.064  -0.305   0.114
    1UNL     C8    9   0.092  -0.294   0.119
    1UNL     C9   10   0.138  -0.171   0.044
    1UNL    C10   11   0.063  -0.058   0.050
    1UNL     N2   12   0.137   0.051   0.010
    1UNL    C11   13   0.265   0.004  -0.025
    1UNL    C12   14   0.373   0.084  -0.067
    1UNL    C13   15   0.487   0.020  -0.090
    1UNL    C14   16   0.495  -0.122  -0.081
    1UNL    C15   17   0.389  -0.195  -0.037
    1UNL    C16   18   0.270  -0.132  -0.003
    1UNL    C17   19   0.075   0.179  -0.002
    1UNL     O1   20   0.165   0.274   0.059
    1UNL    C18   21   0.114   0.405   0.017
    1UNL    C19   22  -0.067   0.185   0.047
    1UNL    C20   23  -0.080  -0.061   0.088
    1UNL     H1   24  -0.342   0.279   0.046
    1UNL     H2   25  -0.470   0.199   0.124
    1UNL     H3   26  -0.450   0.163  -0.047
    1UNL     H4   27  -0.351  -0.024   0.084
    1UNL     H5   28  -0.275   0.080   0.204
    1UNL     H6   29  -0.244   0.110  -0.164
    1UNL     H7   30  -0.098   0.022  -0.177
    1UNL     H8   31  -0.282  -0.136  -0.250
    1UNL     H9   32  -0.356  -0.117  -0.100
    1UNL    H10   33  -0.066  -0.234  -0.153
    1UNL    H11   34  -0.197  -0.330  -0.112
    1UNL    H12   35  -0.111  -0.392   0.065
    1UNL    H13   36  -0.105  -0.314   0.214
    1UNL    H14   37   0.140  -0.286   0.217
    1UNL    H15   38   0.138  -0.393   0.089
    1UNL    H16   39   0.346   0.187  -0.079
    1UNL    H17   40   0.577   0.082  -0.105
    1UNL    H18   41   0.586  -0.173  -0.104
    1UNL    H19   42   0.405  -0.297   0.011
    1UNL    H20   43   0.076   0.203  -0.107
    1UNL    H21   44   0.014   0.443   0.055
    1UNL    H22   45   0.199   0.469   0.041
    1UNL    H23   46   0.098   0.398  -0.093
    1UNL    H24   47  -0.050   0.189   0.151
    1UNL    H25   48  -0.114   0.281   0.019
    1UNL    H26   49  -0.088  -0.045   0.199
   0.00000   0.00000   0.00000   0.00000   0.00000   0.00000   0.00000   0.00000   0.00000
Generated with MDTraj, t= 38.0
 49
    1UNL     C1    1  -0.398   0.173   0.074
    1UNL     C2    2  -0.293   0.064   0.106
    1UNL     C3    3  -0.159   0.055   0.026
    1UNL     C4    4  -0.186   0.026  -0.129
    1UNL     C5    5  -0.259  -0.115  -0.143
    1UNL     C6    6  -0.161  -0.223  -0.090
    1UNL     N1    7  -0.142  -0.196   0.056
    1UNL     C7    8  -0.063  -0.303   0.121
    1UNL     C8    9   0.080  -0.307   0.060
    1UNL     C9   10   0.137  -0.169   0.039
    1UNL    C10   11   0.063  -0.055   0.047
    1UNL     N2   12   0.135   0.057   0.005
    1UNL    C11   13   0.265   0.013  -0.030
    1UNL    C12   14   0.381   0.074  -0.079
    1UNL    C13   15   0.498   0.006  -0.084
    1UNL    C14   16   0.500  -0.133  -0.043
    1UNL    C15   17   0.388  -0.196  -0.008
    1UNL    C16   18   0.268  -0.129  -0.005
    1UNL    C17   19   0.074   0.192  -0.006
    1UNL     O1   20   0.166   0.297   0.052
    1UNL    C18   21   0.108   0.422   0.012
    1UNL    C19   22  -0.072   0.189   0.044
    1UNL    C20   23  -0.081  -0.064   0.082
    1UNL     H1   24  -0.360   0.270   0.094
    1UNL     H2   25  -0.480   0.161   0.137
    1UNL     H3   26  -0.435   0.161  -0.034
    1UNL     H4   27  -0.339  -0.030   0.088
    1UNL     H5   28  -0.270   0.064   0.214
    1UNL     H6   29  -0.252   0.097  -0.176
    1UNL     H7   30  -0.092   0.037  -0.181
    1UNL     H8   31  -0.300  -0.134  -0.241
    1UNL     H9   32  -0.354  -0.134  -0.083
    1UNL    H10   33  -0.072  -0.238  -0.154
    1UNL    H11   34  -0.205  -0.330  -0.096
    1UNL    H12   35  -0.111  -0.400   0.114
    1UNL    H13   36  -0.063  -0.275   0.226
    1UNL    H14   37   0.142  -0.374   0.122
    1UNL    H15   38   0.091  -0.356  -0.036
    1UNL    H16   39   0.368   0.177  -0.113
    1UNL    H17   40   0.583   0.038  -0.142
    1UNL    H18   41   0.598  -0.180  -0.028
    1UNL    H19   42   0.387  -0.292   0.024
    1UNL    H20   43   0.064   0.217  -0.112
    1UNL    H21   44   0.003   0.419  -0.035
    1UNL    H22   45   0.124   0.499   0.091
    1UNL    H23   46   0.162   0.450  -0.082
    1UNL    H24   47  -0.069   0.224   0.142
    1UNL    H25   48  -0.129   0.265  -0.015
    1UNL    H26   49  -0.097  -0.046   0.192
   0.00000   0.00000   0.00000   0.00000   0.00000   0.00000   0.00000   0.00000   0.00000
Generated with MDTraj, t= 39.0
 49
    1UNL     C1    1  -0.384   0.186   0.055
    1UNL     C2    2  -0.289   0.083   0.118
    1UNL     C3    3  -0.162   0.054   0.031
    1UNL     C4    4  -0.180   0.027  -0.123
    1UNL     C5    5  -0.258  -0.103  -0.136
    1UNL     C6    6  -0.177  -0.219  -0.091
    1UNL     N1    7  -0.149  -0.210   0.053
    1UNL     C7    8  -0.060  -0.323   0.113
    1UNL     C8    9   0.089  -0.309   0.080
    1UNL     C9   10   0.139  -0.173   0.047
    1UNL    C10   11   0.051  -0.069   0.034
    1UNL     N2   12   0.122   0.044  -0.007
    1UNL    C11   13   0.255   0.014  -0.030
    1UNL    C12   14   0.372   0.096  -0.048
    1UNL    C13   15   0.494   0.033  -0.063
    1UNL    C14   16   0.501  -0.104  -0.058
    1UNL    C15   17   0.392  -0.180  -0.025
    1UNL    C16   18   0.264  -0.120   0.004
    1UNL    C17   19   0.070   0.180  -0.013
    1UNL     O1   20   0.161   0.270   0.044
    1UNL    C18   21   0.139   0.393  -0.009
    1UNL    C19   22  -0.069   0.186   0.052
    1UNL    C20   23  -0.088  -0.074   0.087
    1UNL     H1   24  -0.337   0.281   0.036
    1UNL     H2   25  -0.462   0.215   0.119
    1UNL     H3   26  -0.434   0.150  -0.040
    1UNL     H4   27  -0.346  -0.008   0.139
    1UNL     H5   28  -0.253   0.110   0.218
    1UNL     H6   29  -0.227   0.114  -0.163
    1UNL     H7   30  -0.086   0.013  -0.180
    1UNL     H8   31  -0.290  -0.131  -0.240
    1UNL     H9   32  -0.356  -0.100  -0.080
    1UNL    H10   33  -0.087  -0.211  -0.156
    1UNL    H11   34  -0.218  -0.319  -0.132
    1UNL    H12   35  -0.100  -0.416   0.073
    1UNL    H13   36  -0.064  -0.325   0.221
    1UNL    H14   37   0.157  -0.341   0.164
    1UNL    H15   38   0.104  -0.369  -0.000
    1UNL    H16   39   0.364   0.201  -0.061
    1UNL    H17   40   0.581   0.090  -0.086
    1UNL    H18   41   0.588  -0.157  -0.088
    1UNL    H19   42   0.382  -0.293  -0.023
    1UNL    H20   43   0.048   0.208  -0.119
    1UNL    H21   44   0.040   0.441   0.015
    1UNL    H22   45   0.222   0.453   0.034
    1UNL    H23   46   0.145   0.399  -0.119
    1UNL    H24   47  -0.060   0.209   0.154
    1UNL    H25   48  -0.117   0.273   0.007
    1UNL    H26   49  -0.087  -0.070   0.198
   0.00000   0.00000   0.00000   0.00000   0.00000   0.00000   0.00000   0.00000   0.00000
Generated with MDTraj, t= 40.0
 49
    1UNL     C1    1  -0.400   0.173   0.077
    1UNL     C2    2  -0.291   0.064   0.116
    1UNL     C3    3  -0.160   0.056   0.029
    1UNL     C4    4  -0.177   0.041  -0.123
    1UNL     C5    5  -0.248  -0.093  -0.155
    1UNL     C6    6  -0.170  -0.212  -0.093
    1UNL     N1    7  -0.149  -0.199   0.053
    1UNL     C7    8  -0.062  -0.318   0.108
    1UNL     C8    9   0.092  -0.304   0.074
    1UNL     C9   10   0.143  -0.169   0.051
    1UNL    C10   11   0.059  -0.059   0.046
    1UNL     N2   12   0.130   0.049  -0.003
    1UNL    C11   13   0.266   0.018  -0.022
    1UNL    C12   14   0.380   0.084  -0.059
    1UNL    C13   15   0.499   0.012  -0.082
    1UNL    C14   16   0.498  -0.128  -0.059
    1UNL    C15   17   0.388  -0.194  -0.013
    1UNL    C16   18   0.273  -0.120   0.017
    1UNL    C17   19   0.068   0.179  -0.011
    1UNL     O1   20   0.142   0.280   0.050
    1UNL    C18   21   0.123   0.402  -0.021
    1UNL    C19   22  -0.074   0.189   0.049
    1UNL    C20   23  -0.083  -0.071   0.086
    1UNL     H1   24  -0.374   0.273   0.109
    1UNL     H2   25  -0.490   0.156   0.133
    1UNL     H3   26  -0.431   0.174  -0.028
    1UNL     H4   27  -0.344  -0.034   0.120
    1UNL     H5   28  -0.272   0.084   0.220
    1UNL     H6   29  -0.229   0.119  -0.170
    1UNL     H7   30  -0.073   0.040  -0.164
    1UNL     H8   31  -0.283  -0.103  -0.265
    1UNL     H9   32  -0.345  -0.098  -0.101
    1UNL    H10   33  -0.073  -0.210  -0.144
    1UNL    H11   34  -0.216  -0.310  -0.133
    1UNL    H12   35  -0.090  -0.416   0.068
    1UNL    H13   36  -0.075  -0.317   0.214
    1UNL    H14   37   0.148  -0.339   0.166
    1UNL    H15   38   0.119  -0.355  -0.009
    1UNL    H16   39   0.385   0.189  -0.084
    1UNL    H17   40   0.592   0.065  -0.108
    1UNL    H18   41   0.588  -0.187  -0.079
    1UNL    H19   42   0.392  -0.302  -0.005
    1UNL    H20   43   0.066   0.201  -0.122
    1UNL    H21   44   0.035   0.458   0.016
    1UNL    H22   45   0.204   0.476  -0.006
    1UNL    H23   46   0.114   0.387  -0.127
    1UNL    H24   47  -0.062   0.211   0.152
    1UNL    H25   48  -0.126   0.276   0.010
    1UNL    H26   49  -0.089  -0.068   0.196
   0.00000   0.00000   0.00000   0.00000   0.00000   0.00000   0.00000   0.00000   0.00000
Generated with MDTraj, t= 41.0
 49
    1UNL     C1    1  -0.392   0.182   0.067
    1UNL     C2    2  -0.291   0.082   0.117
    1UNL     C3    3  -0.162   0.060   0.032
    1UNL     C4    4  -0.188   0.041  -0.127
    1UNL     C5    5  -0.237  -0.099  -0.154
    1UNL     C6    6  -0.140  -0.209  -0.097
    1UNL     N1    7  -0.134  -0.199   0.048
    1UNL     C7    8  -0.065  -0.321   0.103
    1UNL     C8    9   0.086  -0.320   0.078
    1UNL     C9   10   0.144  -0.175   0.055
    1UNL    C10   11   0.067  -0.061   0.065
    1UNL     N2   12   0.135   0.053   0.017
    1UNL    C11   13   0.266   0.010  -0.011
    1UNL    C12   14   0.372   0.076  -0.075
    1UNL    C13   15   0.489   0.000  -0.098
    1UNL    C14   16   0.496  -0.133  -0.062
    1UNL    C15   17   0.389  -0.203  -0.012
    1UNL    C16   18   0.269  -0.130   0.012
    1UNL    C17   19   0.069   0.183  -0.017
    1UNL     O1   20   0.144   0.295   0.032
    1UNL    C18   21   0.092   0.424   0.001
    1UNL    C19   22  -0.070   0.184   0.052
    1UNL    C20   23  -0.085  -0.067   0.094
    1UNL     H1   24  -0.359   0.285   0.054
    1UNL     H2   25  -0.477   0.193   0.137
    1UNL     H3   26  -0.436   0.147  -0.022
    1UNL     H4   27  -0.349  -0.017   0.119
    1UNL     H5   28  -0.272   0.098   0.221
    1UNL     H6   29  -0.258   0.111  -0.162
    1UNL     H7   30  -0.095   0.051  -0.189
    1UNL     H8   31  -0.264  -0.114  -0.270
    1UNL     H9   32  -0.337  -0.105  -0.108
    1UNL    H10   33  -0.046  -0.186  -0.148
    1UNL    H11   34  -0.167  -0.313  -0.135
    1UNL    H12   35  -0.114  -0.403   0.049
    1UNL    H13   36  -0.084  -0.335   0.207
    1UNL    H14   37   0.143  -0.365   0.161
    1UNL    H15   38   0.106  -0.372  -0.015
    1UNL    H16   39   0.376   0.183  -0.097
    1UNL    H17   40   0.570   0.050  -0.145
    1UNL    H18   41   0.594  -0.173  -0.047
    1UNL    H19   42   0.389  -0.304   0.013
    1UNL    H20   43   0.075   0.193  -0.131
    1UNL    H21   44   0.006   0.403  -0.063
    1UNL    H22   45   0.029   0.483   0.072
    1UNL    H23   46   0.161   0.486  -0.048
    1UNL    H24   47  -0.051   0.204   0.158
    1UNL    H25   48  -0.124   0.265   0.014
    1UNL    H26   49  -0.096  -0.064   0.201
   0.00000   0.00000   0.00000   0.00000   0.00000   0.00000   0.00000   0.00000   0.00000
Generated with MDTraj, t= 42.0
 49
    1UNL     C1    1  -0.386   0.185   0.053
    1UNL     C2    2  -0.299   0.066   0.089
    1UNL     C3    3  -0.159   0.058   0.023
    1UNL     C4    4  -0.182   0.025  -0.129
    1UNL     C5    5  -0.250  -0.109  -0.154
    1UNL     C6    6  -0.163  -0.224  -0.090
    1UNL     N1    7  -0.142  -0.196   0.059
    1UNL     C7    8  -0.065  -0.316   0.116
    1UNL     C8    9   0.089  -0.307   0.109
    1UNL     C9   10   0.140  -0.177   0.048
    1UNL    C10   11   0.060  -0.065   0.048
    1UNL     N2   12   0.129   0.046   0.019
    1UNL    C11   13   0.259   0.009  -0.017
    1UNL    C12   14   0.364   0.087  -0.066
    1UNL    C13   15   0.484   0.022  -0.096
    1UNL    C14   16   0.497  -0.119  -0.080
    1UNL    C15   17   0.395  -0.194  -0.033
    1UNL    C16   18   0.268  -0.132   0.005
    1UNL    C17   19   0.064   0.184  -0.004
    1UNL     O1   20   0.152   0.288   0.041
    1UNL    C18   21   0.141   0.424   0.015
    1UNL    C19   22  -0.073   0.185   0.061
    1UNL    C20   23  -0.084  -0.065   0.091
    1UNL     H1   24  -0.336   0.280   0.075
    1UNL     H2   25  -0.482   0.187   0.108
    1UNL     H3   26  -0.412   0.185  -0.048
    1UNL     H4   27  -0.358  -0.031   0.080
    1UNL     H5   28  -0.277   0.070   0.193
    1UNL     H6   29  -0.251   0.100  -0.162
    1UNL     H7   30  -0.090   0.033  -0.191
    1UNL     H8   31  -0.268  -0.120  -0.273
    1UNL     H9   32  -0.356  -0.100  -0.122
    1UNL    H10   33  -0.068  -0.244  -0.138
    1UNL    H11   34  -0.232  -0.314  -0.105
    1UNL    H12   35  -0.106  -0.411   0.077
    1UNL    H13   36  -0.099  -0.319   0.218
    1UNL    H14   37   0.136  -0.314   0.206
    1UNL    H15   38   0.133  -0.392   0.042
    1UNL    H16   39   0.347   0.190  -0.083
    1UNL    H17   40   0.571   0.077  -0.132
    1UNL    H18   41   0.590  -0.162  -0.117
    1UNL    H19   42   0.418  -0.303  -0.004
    1UNL    H20   43   0.057   0.201  -0.118
    1UNL    H21   44   0.182   0.450  -0.080
    1UNL    H22   45   0.035   0.449   0.006
    1UNL    H23   46   0.188   0.482   0.090
    1UNL    H24   47  -0.055   0.176   0.169
    1UNL    H25   48  -0.115   0.280   0.050
    1UNL    H26   49  -0.079  -0.049   0.197
   0.00000   0.00000   0.00000   0.00000   0.00000   0.00000   0.00000   0.00000   0.00000
Generated with MDTraj, t= 43.0
 49
    1UNL     C1    1  -0.392   0.174   0.035
    1UNL     C2    2  -0.304   0.066   0.093
    1UNL     C3    3  -0.168   0.055   0.022
    1UNL     C4    4  -0.189   0.020  -0.132
    1UNL     C5    5  -0.247  -0.119  -0.145
    1UNL     C6    6  -0.154  -0.215  -0.072
    1UNL     N1    7  -0.139  -0.187   0.073
    1UNL     C7    8  -0.052  -0.300   0.129
    1UNL     C8    9   0.091  -0.306   0.068
    1UNL     C9   10   0.143  -0.167   0.043
    1UNL    C10   11   0.057  -0.054   0.051
    1UNL     N2   12   0.127   0.052   0.002
    1UNL    C11   13   0.253   0.005  -0.035
    1UNL    C12   14   0.362   0.080  -0.079
    1UNL    C13   15   0.480   0.017  -0.097
    1UNL    C14   16   0.502  -0.123  -0.065
    1UNL    C15   17   0.398  -0.199  -0.027
    1UNL    C16   18   0.267  -0.136  -0.011
    1UNL    C17   19   0.059   0.189  -0.006
    1UNL     O1   20   0.131   0.284   0.081
    1UNL    C18   21   0.179   0.406   0.030
    1UNL    C19   22  -0.089   0.188   0.041
    1UNL    C20   23  -0.083  -0.055   0.101
    1UNL     H1   24  -0.339   0.268   0.040
    1UNL     H2   25  -0.483   0.182   0.097
    1UNL     H3   26  -0.420   0.151  -0.065
    1UNL     H4   27  -0.353  -0.039   0.090
    1UNL     H5   28  -0.284   0.086   0.196
    1UNL     H6   29  -0.248   0.093  -0.186
    1UNL     H7   30  -0.088   0.031  -0.175
    1UNL     H8   31  -0.272  -0.142  -0.259
    1UNL     H9   32  -0.350  -0.119  -0.102
    1UNL    H10   33  -0.058  -0.195  -0.116
    1UNL    H11   34  -0.194  -0.322  -0.072
    1UNL    H12   35  -0.110  -0.393   0.117
    1UNL    H13   36  -0.044  -0.287   0.235
    1UNL    H14   37   0.160  -0.360   0.131
    1UNL    H15   38   0.095  -0.363  -0.038
    1UNL    H16   39   0.355   0.184  -0.112
    1UNL    H17   40   0.553   0.072  -0.153
    1UNL    H18   41   0.601  -0.161  -0.090
    1UNL    H19   42   0.414  -0.298  -0.001
    1UNL    H20   43   0.072   0.229  -0.114
    1UNL    H21   44   0.252   0.406  -0.052
    1UNL    H22   45   0.081   0.453   0.021
    1UNL    H23   46   0.217   0.469   0.106
    1UNL    H24   47  -0.086   0.208   0.148
    1UNL    H25   48  -0.143   0.266  -0.001
    1UNL    H26   49  -0.082  -0.039   0.208
   0.00000   0.00000   0.00000   0.00000   0.00000   0.00000   0.00000   0.00000   0.00000
Generated with MDTraj, t= 44.0
 49
    1UNL     C1    1  -0.402   0.151   0.031
    1UNL     C2    2  -0.293   0.071   0.098
    1UNL     C3    3  -0.160   0.059   0.022
    1UNL     C4    4  -0.186   0.028  -0.131
    1UNL     C5    5  -0.250  -0.109  -0.149
    1UNL     C6    6  -0.175  -0.216  -0.083
    1UNL     N1    7  -0.137  -0.188   0.066
    1UNL     C7    8  -0.057  -0.301   0.127
    1UNL     C8    9   0.098  -0.301   0.114
    1UNL     C9   10   0.146  -0.168   0.058
    1UNL    C10   11   0.064  -0.059   0.052
    1UNL     N2   12   0.120   0.049  -0.016
    1UNL    C11   13   0.253   0.011  -0.033
    1UNL    C12   14   0.363   0.090  -0.072
    1UNL    C13   15   0.480   0.022  -0.100
    1UNL    C14   16   0.489  -0.116  -0.089
    1UNL    C15   17   0.392  -0.197  -0.032
    1UNL    C16   18   0.266  -0.126  -0.003
    1UNL    C17   19   0.069   0.190  -0.016
    1UNL     O1   20   0.139   0.263   0.084
    1UNL    C18   21   0.175   0.395   0.046
    1UNL    C19   22  -0.079   0.195   0.027
    1UNL    C20   23  -0.080  -0.055   0.096
    1UNL     H1   24  -0.362   0.240  -0.011
    1UNL     H2   25  -0.485   0.180   0.097
    1UNL     H3   26  -0.452   0.095  -0.051
    1UNL     H4   27  -0.322  -0.041   0.103
    1UNL     H5   28  -0.266   0.100   0.196
    1UNL     H6   29  -0.239   0.113  -0.176
    1UNL     H7   30  -0.089   0.033  -0.181
    1UNL     H8   31  -0.268  -0.141  -0.260
    1UNL     H9   32  -0.359  -0.101  -0.113
    1UNL    H10   33  -0.077  -0.225  -0.127
    1UNL    H11   34  -0.242  -0.306  -0.082
    1UNL    H12   35  -0.098  -0.395   0.084
    1UNL    H13   36  -0.084  -0.305   0.231
    1UNL    H14   37   0.138  -0.313   0.214
    1UNL    H15   38   0.124  -0.396   0.051
    1UNL    H16   39   0.350   0.196  -0.081
    1UNL    H17   40   0.566   0.072  -0.145
    1UNL    H18   41   0.583  -0.160  -0.111
    1UNL    H19   42   0.402  -0.306  -0.028
    1UNL    H20   43   0.089   0.228  -0.125
    1UNL    H21   44   0.238   0.392  -0.044
    1UNL    H22   45   0.084   0.458   0.038
    1UNL    H23   46   0.220   0.451   0.126
    1UNL    H24   47  -0.079   0.225   0.131
    1UNL    H25   48  -0.134   0.267  -0.029
    1UNL    H26   49  -0.079  -0.046   0.203
   0.00000   0.00000   0.00000   0.00000   0.00000   0.00000   0.00000   0.00000   0.00000
Generated with MDTraj, t= 45.0
 49
    1UNL     C1    1  -0.395   0.179   0.021
    1UNL     C2    2  -0.304   0.073   0.094
    1UNL     C3    3  -0.158   0.060   0.027
    1UNL     C4    4  -0.174   0.033  -0.123
    1UNL     C5    5  -0.227  -0.115  -0.150
    1UNL     C6    6  -0.151  -0.226  -0.082
    1UNL     N1    7  -0.136  -0.200   0.072
    1UNL     C7    8  -0.051  -0.303   0.144
    1UNL     C8    9   0.088  -0.312   0.074
    1UNL     C9   10   0.138  -0.172   0.046
    1UNL    C10   11   0.061  -0.059   0.046
    1UNL     N2   12   0.127   0.053  -0.002
    1UNL    C11   13   0.251   0.009  -0.046
    1UNL    C12   14   0.359   0.073  -0.103
    1UNL    C13   15   0.478   0.003  -0.120
    1UNL    C14   16   0.490  -0.125  -0.071
    1UNL    C15   17   0.383  -0.191  -0.008
    1UNL    C16   18   0.267  -0.128   0.002
    1UNL    C17   19   0.069   0.193  -0.001
    1UNL     O1   20   0.157   0.280   0.071
    1UNL    C18   21   0.120   0.417   0.052
    1UNL    C19   22  -0.075   0.193   0.058
    1UNL    C20   23  -0.080  -0.060   0.090
    1UNL     H1   24  -0.345   0.272   0.033
    1UNL     H2   25  -0.499   0.186   0.056
    1UNL     H3   26  -0.405   0.160  -0.090
    1UNL     H4   27  -0.358  -0.029   0.091
    1UNL     H5   28  -0.283   0.106   0.192
    1UNL     H6   29  -0.239   0.110  -0.169
    1UNL     H7   30  -0.081   0.059  -0.171
    1UNL     H8   31  -0.243  -0.127  -0.262
    1UNL     H9   32  -0.338  -0.123  -0.112
    1UNL    H10   33  -0.055  -0.237  -0.125
    1UNL    H11   34  -0.213  -0.319  -0.076
    1UNL    H12   35  -0.100  -0.402   0.158
    1UNL    H13   36  -0.035  -0.264   0.244
    1UNL    H14   37   0.151  -0.383   0.133
    1UNL    H15   38   0.064  -0.359  -0.025
    1UNL    H16   39   0.358   0.177  -0.130
    1UNL    H17   40   0.569   0.058  -0.132
    1UNL    H18   41   0.587  -0.179  -0.075
    1UNL    H19   42   0.404  -0.288   0.037
    1UNL    H20   43   0.071   0.213  -0.116
    1UNL    H21   44   0.143   0.430  -0.057
    1UNL    H22   45   0.021   0.466   0.074
    1UNL    H23   46   0.186   0.478   0.115
    1UNL    H24   47  -0.063   0.189   0.165
    1UNL    H25   48  -0.133   0.281   0.032
    1UNL    H26   49  -0.079  -0.048   0.197
   0.00000   0.00000   0.00000   0.00000   0.00000   0.00000   0.00000   0.00000   0.00000
Generated with MDTraj, t= 46.0
 49
    1UNL     C1    1  -0.381   0.185   0.046
    1UNL     C2    2  -0.290   0.078   0.098
    1UNL     C3    3  -0.151   0.054   0.019
    1UNL     C4    4  -0.177   0.032  -0.134
    1UNL     C5    5  -0.244  -0.110  -0.162
    1UNL     C6    6  -0.170  -0.228  -0.100
    1UNL     N1    7  -0.137  -0.209   0.050
    1UNL     C7    8  -0.056  -0.304   0.134
    1UNL     C8    9   0.097  -0.300   0.117
    1UNL     C9   10   0.141  -0.171   0.065
    1UNL    C10   11   0.063  -0.061   0.068
    1UNL     N2   12   0.137   0.050   0.023
    1UNL    C11   13   0.261   0.006  -0.008
    1UNL    C12   14   0.370   0.077  -0.068
    1UNL    C13   15   0.480   0.010  -0.108
    1UNL    C14   16   0.483  -0.128  -0.099
    1UNL    C15   17   0.378  -0.202  -0.049
    1UNL    C16   18   0.269  -0.131   0.004
    1UNL    C17   19   0.082   0.187  -0.004
    1UNL     O1   20   0.164   0.303   0.043
    1UNL    C18   21   0.083   0.417   0.045
    1UNL    C19   22  -0.066   0.185   0.044
    1UNL    C20   23  -0.087  -0.071   0.088
    1UNL     H1   24  -0.349   0.281   0.084
    1UNL     H2   25  -0.488   0.170   0.060
    1UNL     H3   26  -0.370   0.194  -0.067
    1UNL     H4   27  -0.339  -0.024   0.084
    1UNL     H5   28  -0.273   0.100   0.201
    1UNL     H6   29  -0.237   0.122  -0.162
    1UNL     H7   30  -0.089   0.041  -0.194
    1UNL     H8   31  -0.247  -0.121  -0.275
    1UNL     H9   32  -0.360  -0.107  -0.134
    1UNL    H10   33  -0.075  -0.231  -0.145
    1UNL    H11   34  -0.229  -0.322  -0.109
    1UNL    H12   35  -0.101  -0.403   0.109
    1UNL    H13   36  -0.085  -0.294   0.238
    1UNL    H14   37   0.144  -0.316   0.220
    1UNL    H15   38   0.125  -0.383   0.057
    1UNL    H16   39   0.362   0.184  -0.072
    1UNL    H17   40   0.563   0.068  -0.152
    1UNL    H18   41   0.568  -0.189  -0.123
    1UNL    H19   42   0.379  -0.310  -0.056
    1UNL    H20   43   0.088   0.198  -0.119
    1UNL    H21   44   0.020   0.411  -0.049
    1UNL    H22   45   0.015   0.450   0.128
    1UNL    H23   46   0.159   0.498   0.038
    1UNL    H24   47  -0.065   0.213   0.146
    1UNL    H25   48  -0.114   0.267  -0.014
    1UNL    H26   49  -0.102  -0.066   0.195
   0.00000   0.00000   0.00000   0.00000   0.00000   0.00000   0.00000   0.00000   0.00000
Generated with MDTraj, t= 47.0
 49
    1UNL     C1    1  -0.391   0.187   0.058
    1UNL     C2    2  -0.297   0.082   0.111
    1UNL     C3    3  -0.159   0.058   0.033
    1UNL     C4    4  -0.186   0.036  -0.123
    1UNL     C5    5  -0.221  -0.107  -0.163
    1UNL     C6    6  -0.140  -0.215  -0.094
    1UNL     N1    7  -0.138  -0.204   0.058
    1UNL     C7    8  -0.045  -0.308   0.123
    1UNL     C8    9   0.092  -0.306   0.057
    1UNL     C9   10   0.139  -0.167   0.065
    1UNL    C10   11   0.057  -0.060   0.071
    1UNL     N2   12   0.135   0.049   0.031
    1UNL    C11   13   0.255   0.010  -0.018
    1UNL    C12   14   0.362   0.075  -0.083
    1UNL    C13   15   0.479   0.012  -0.097
    1UNL    C14   16   0.486  -0.130  -0.073
    1UNL    C15   17   0.376  -0.200  -0.027
    1UNL    C16   18   0.264  -0.129   0.008
    1UNL    C17   19   0.072   0.177  -0.001
    1UNL     O1   20   0.152   0.287   0.051
    1UNL    C18   21   0.110   0.412  -0.002
    1UNL    C19   22  -0.073   0.186   0.046
    1UNL    C20   23  -0.087  -0.069   0.093
    1UNL     H1   24  -0.338   0.284   0.047
    1UNL     H2   25  -0.486   0.204   0.107
    1UNL     H3   26  -0.426   0.163  -0.046
    1UNL     H4   27  -0.353  -0.014   0.102
    1UNL     H5   28  -0.271   0.104   0.213
    1UNL     H6   29  -0.266   0.098  -0.168
    1UNL     H7   30  -0.092   0.061  -0.166
    1UNL     H8   31  -0.218  -0.125  -0.277
    1UNL     H9   32  -0.333  -0.117  -0.130
    1UNL    H10   33  -0.040  -0.201  -0.122
    1UNL    H11   34  -0.183  -0.313  -0.118
    1UNL    H12   35  -0.096  -0.408   0.126
    1UNL    H13   36  -0.048  -0.290   0.232
    1UNL    H14   37   0.172  -0.379   0.101
    1UNL    H15   38   0.089  -0.335  -0.042
    1UNL    H16   39   0.351   0.180  -0.107
    1UNL    H17   40   0.562   0.042  -0.152
    1UNL    H18   41   0.574  -0.182  -0.105
    1UNL    H19   42   0.364  -0.308  -0.012
    1UNL    H20   43   0.084   0.197  -0.112
    1UNL    H21   44   0.076   0.403  -0.109
    1UNL    H22   45   0.019   0.438   0.057
    1UNL    H23   46   0.180   0.492   0.026
    1UNL    H24   47  -0.067   0.218   0.147
    1UNL    H25   48  -0.119   0.269  -0.014
    1UNL    H26   49  -0.099  -0.065   0.200
   0.00000   0.00000   0.00000   0.00000   0.00000   0.00000   0.00000   0.00000   0.00000
Generated with MDTraj, t= 48.0
 49
    1UNL     C1    1  -0.392   0.162   0.062
    1UNL     C2    2  -0.291   0.058   0.113
    1UNL     C3    3  -0.158   0.060   0.039
    1UNL     C4    4  -0.184   0.049  -0.116
    1UNL     C5    5  -0.253  -0.078  -0.154
    1UNL     C6    6  -0.183  -0.207  -0.098
    1UNL     N1    7  -0.138  -0.201   0.046
    1UNL     C7    8  -0.057  -0.318   0.103
    1UNL     C8    9   0.098  -0.301   0.112
    1UNL     C9   10   0.141  -0.172   0.049
    1UNL    C10   11   0.057  -0.066   0.039
    1UNL     N2   12   0.123   0.046  -0.009
    1UNL    C11   13   0.255   0.019  -0.024
    1UNL    C12   14   0.370   0.086  -0.069
    1UNL    C13   15   0.489   0.020  -0.080
    1UNL    C14   16   0.497  -0.123  -0.059
    1UNL    C15   17   0.388  -0.189  -0.019
    1UNL    C16   18   0.272  -0.116   0.007
    1UNL    C17   19   0.055   0.178  -0.008
    1UNL     O1   20   0.154   0.270   0.036
    1UNL    C18   21   0.143   0.399  -0.024
    1UNL    C19   22  -0.069   0.181   0.081
    1UNL    C20   23  -0.079  -0.072   0.084
    1UNL     H1   24  -0.343   0.264   0.079
    1UNL     H2   25  -0.492   0.157   0.106
    1UNL     H3   26  -0.410   0.154  -0.045
    1UNL     H4   27  -0.335  -0.042   0.118
    1UNL     H5   28  -0.268   0.089   0.214
    1UNL     H6   29  -0.233   0.142  -0.153
    1UNL     H7   30  -0.092   0.029  -0.167
    1UNL     H8   31  -0.271  -0.080  -0.269
    1UNL     H9   32  -0.354  -0.083  -0.105
    1UNL    H10   33  -0.094  -0.219  -0.153
    1UNL    H11   34  -0.244  -0.298  -0.106
    1UNL    H12   35  -0.086  -0.409   0.045
    1UNL    H13   36  -0.104  -0.349   0.199
    1UNL    H14   37   0.130  -0.302   0.224
    1UNL    H15   38   0.151  -0.379   0.071
    1UNL    H16   39   0.362   0.188  -0.107
    1UNL    H17   40   0.585   0.074  -0.112
    1UNL    H18   41   0.577  -0.184  -0.101
    1UNL    H19   42   0.388  -0.293   0.005
    1UNL    H20   43   0.029   0.212  -0.112
    1UNL    H21   44   0.207   0.419  -0.111
    1UNL    H22   45   0.035   0.410  -0.046
    1UNL    H23   46   0.147   0.467   0.060
    1UNL    H24   47  -0.040   0.175   0.184
    1UNL    H25   48  -0.124   0.279   0.071
    1UNL    H26   49  -0.069  -0.073   0.193
   0.00000   0.00000   0.00000   0.00000   0.00000   0.00000   0.00000   0.00000   0.00000
Generated with MDTraj, t= 49.0
 49
    1UNL     C1    1  -0.380   0.167   0.085
    1UNL     C2    2  -0.275   0.072   0.128
    1UNL     C3    3  -0.161   0.059   0.019
    1UNL     C4    4  -0.215   0.035  -0.124
    1UNL     C5    5  -0.282  -0.097  -0.122
    1UNL     C6    6  -0.171  -0.206  -0.098
    1UNL     N1    7  -0.137  -0.201   0.045
    1UNL     C7    8  -0.060  -0.322   0.085
    1UNL     C8    9   0.094  -0.309   0.080
    1UNL     C9   10   0.143  -0.172   0.038
    1UNL    C10   11   0.057  -0.064   0.034
    1UNL     N2   12   0.128   0.049   0.002
    1UNL    C11   13   0.261   0.013  -0.012
    1UNL    C12   14   0.364   0.083  -0.069
    1UNL    C13   15   0.485   0.018  -0.081
    1UNL    C14   16   0.508  -0.110  -0.034
    1UNL    C15   17   0.401  -0.191   0.003
    1UNL    C16   18   0.275  -0.127   0.003
    1UNL    C17   19   0.067   0.183  -0.020
    1UNL     O1   20   0.150   0.281   0.053
    1UNL    C18   21   0.153   0.401  -0.018
    1UNL    C19   22  -0.077   0.187   0.029
    1UNL    C20   23  -0.085  -0.065   0.075
    1UNL     H1   24  -0.328   0.259   0.043
    1UNL     H2   25  -0.460   0.195   0.157
    1UNL     H3   26  -0.436   0.126   0.004
    1UNL     H4   27  -0.322  -0.025   0.142
    1UNL     H5   28  -0.241   0.094   0.229
    1UNL     H6   29  -0.294   0.109  -0.148
    1UNL     H7   30  -0.134   0.033  -0.194
    1UNL     H8   31  -0.337  -0.127  -0.221
    1UNL     H9   32  -0.361  -0.104  -0.046
    1UNL    H10   33  -0.081  -0.184  -0.146
    1UNL    H11   34  -0.202  -0.307  -0.129
    1UNL    H12   35  -0.086  -0.414   0.025
    1UNL    H13   36  -0.089  -0.354   0.187
    1UNL    H14   37   0.137  -0.329   0.184
    1UNL    H15   38   0.126  -0.388   0.017
    1UNL    H16   39   0.352   0.183  -0.096
    1UNL    H17   40   0.564   0.068  -0.119
    1UNL    H18   41   0.602  -0.148   0.001
    1UNL    H19   42   0.400  -0.296   0.034
    1UNL    H20   43   0.078   0.198  -0.130
    1UNL    H21   44   0.156   0.397  -0.126
    1UNL    H22   45   0.070   0.461   0.020
    1UNL    H23   46   0.240   0.449   0.019
    1UNL    H24   47  -0.075   0.218   0.135
    1UNL    H25   48  -0.137   0.266  -0.021
    1UNL    H26   49  -0.092  -0.050   0.184
   0.00000   0.00000   0.00000   0.00000   0.00000   0.00000   0.00000   0.00000   0.00000
Generated with MDTraj, t= 50.0
 49
    1UNL     C1    1  -0.370   0.196   0.109
    1UNL     C2    2  -0.290   0.069   0.106
    1UNL     C3    3  -0.160   0.056   0.024
    1UNL     C4    4  -0.205   0.026  -0.127
    1UNL     C5    5  -0.271  -0.110  -0.141
    1UNL     C6    6  -0.172  -0.213  -0.079
    1UNL     N1    7  -0.144  -0.191   0.061
    1UNL     C7    8  -0.058  -0.311   0.104
    1UNL     C8    9   0.089  -0.316   0.053
    1UNL     C9   10   0.134  -0.178   0.020
    1UNL    C10   11   0.057  -0.065   0.035
    1UNL     N2   12   0.130   0.044   0.001
    1UNL    C11   13   0.264   0.013  -0.027
    1UNL    C12   14   0.375   0.085  -0.050
    1UNL    C13   15   0.498   0.021  -0.054
    1UNL    C14   16   0.509  -0.117  -0.034
    1UNL    C15   17   0.397  -0.194  -0.009
    1UNL    C16   18   0.271  -0.128  -0.009
    1UNL    C17   19   0.067   0.177  -0.031
    1UNL     O1   20   0.157   0.279   0.027
    1UNL    C18   21   0.113   0.411  -0.005
    1UNL    C19   22  -0.074   0.186   0.035
    1UNL    C20   23  -0.080  -0.060   0.086
    1UNL     H1   24  -0.301   0.284   0.114
    1UNL     H2   25  -0.446   0.200   0.192
    1UNL     H3   26  -0.430   0.212   0.021
    1UNL     H4   27  -0.355  -0.012   0.082
    1UNL     H5   28  -0.269   0.039   0.209
    1UNL     H6   29  -0.269   0.110  -0.157
    1UNL     H7   30  -0.114   0.018  -0.180
    1UNL     H8   31  -0.290  -0.146  -0.253
    1UNL     H9   32  -0.370  -0.131  -0.100
    1UNL    H10   33  -0.078  -0.218  -0.127
    1UNL    H11   34  -0.210  -0.316  -0.078
    1UNL    H12   35  -0.101  -0.413   0.085
    1UNL    H13   36  -0.043  -0.308   0.213
    1UNL    H14   37   0.150  -0.360   0.136
    1UNL    H15   38   0.101  -0.379  -0.036
    1UNL    H16   39   0.367   0.194  -0.062
    1UNL    H17   40   0.595   0.080  -0.059
    1UNL    H18   41   0.608  -0.161  -0.030
    1UNL    H19   42   0.398  -0.301  -0.003
    1UNL    H20   43   0.065   0.176  -0.140
    1UNL    H21   44   0.165   0.452  -0.090
    1UNL    H22   45   0.004   0.423  -0.015
    1UNL    H23   46   0.154   0.474   0.069
    1UNL    H24   47  -0.053   0.209   0.144
    1UNL    H25   48  -0.129   0.275  -0.002
    1UNL    H26   49  -0.080  -0.047   0.197
   0.00000   0.00000   0.00000   0.00000   0.00000   0.00000   0.00000   0.00000   0.00000
Generated with MDTraj, t= 51.0
 49
    1UNL     C1    1  -0.375   0.209   0.079
    1UNL     C2    2  -0.303   0.077   0.108
    1UNL     C3    3  -0.168   0.055   0.036
    1UNL     C4    4  -0.194   0.035  -0.117
    1UNL     C5    5  -0.241  -0.105  -0.152
    1UNL     C6    6  -0.169  -0.222  -0.085
    1UNL     N1    7  -0.137  -0.200   0.060
    1UNL     C7    8  -0.058  -0.315   0.119
    1UNL     C8    9   0.082  -0.312   0.064
    1UNL     C9   10   0.138  -0.171   0.027
    1UNL    C10   11   0.059  -0.061   0.032
    1UNL     N2   12   0.134   0.049  -0.004
    1UNL    C11   13   0.264   0.010  -0.034
    1UNL    C12   14   0.384   0.087  -0.039
    1UNL    C13   15   0.501   0.018  -0.059
    1UNL    C14   16   0.500  -0.124  -0.048
    1UNL    C15   17   0.391  -0.202  -0.026
    1UNL    C16   18   0.267  -0.128  -0.017
    1UNL    C17   19   0.064   0.177  -0.009
    1UNL     O1   20   0.151   0.284   0.028
    1UNL    C18   21   0.096   0.408  -0.013
    1UNL    C19   22  -0.071   0.176   0.070
    1UNL    C20   23  -0.076  -0.065   0.085
    1UNL     H1   24  -0.318   0.291   0.121
    1UNL     H2   25  -0.482   0.205   0.118
    1UNL     H3   26  -0.383   0.227  -0.028
    1UNL     H4   27  -0.368  -0.002   0.104
    1UNL     H5   28  -0.278   0.075   0.214
    1UNL     H6   29  -0.269   0.109  -0.151
    1UNL     H7   30  -0.097   0.044  -0.158
    1UNL     H8   31  -0.231  -0.132  -0.266
    1UNL     H9   32  -0.347  -0.125  -0.137
    1UNL    H10   33  -0.075  -0.237  -0.133
    1UNL    H11   34  -0.216  -0.322  -0.092
    1UNL    H12   35  -0.105  -0.415   0.092
    1UNL    H13   36  -0.058  -0.325   0.228
    1UNL    H14   37   0.152  -0.347   0.138
    1UNL    H15   38   0.089  -0.384  -0.024
    1UNL    H16   39   0.394   0.194  -0.034
    1UNL    H17   40   0.589   0.079  -0.075
    1UNL    H18   41   0.587  -0.178  -0.081
    1UNL    H19   42   0.393  -0.310  -0.015
    1UNL    H20   43   0.035   0.184  -0.113
    1UNL    H21   44   0.090   0.412  -0.121
    1UNL    H22   45  -0.000   0.450   0.029
    1UNL    H23   46   0.180   0.473  -0.012
    1UNL    H24   47  -0.053   0.173   0.184
    1UNL    H25   48  -0.119   0.273   0.052
    1UNL    H26   49  -0.072  -0.060   0.197
   0.00000   0.00000   0.00000   0.00000   0.00000   0.00000   0.00000   0.00000   0.00000
Generated with MDTraj, t= 52.0
 49
    1UNL     C1    1  -0.396   0.146   0.058
    1UNL     C2    2  -0.273   0.083   0.122
    1UNL     C3    3  -0.151   0.066   0.032
    1UNL     C4    4  -0.191   0.039  -0.116
    1UNL     C5    5  -0.251  -0.100  -0.152
    1UNL     C6    6  -0.164  -0.214  -0.109
    1UNL     N1    7  -0.146  -0.198   0.038
    1UNL     C7    8  -0.068  -0.315   0.096
    1UNL     C8    9   0.084  -0.314   0.069
    1UNL     C9   10   0.143  -0.171   0.072
    1UNL    C10   11   0.059  -0.061   0.079
    1UNL     N2   12   0.130   0.042   0.029
    1UNL    C11   13   0.263   0.011  -0.000
    1UNL    C12   14   0.363   0.079  -0.060
    1UNL    C13   15   0.478   0.014  -0.103
    1UNL    C14   16   0.488  -0.125  -0.084
    1UNL    C15   17   0.390  -0.189  -0.014
    1UNL    C16   18   0.268  -0.126   0.023
    1UNL    C17   19   0.086   0.183  -0.005
    1UNL     O1   20   0.165   0.294   0.040
    1UNL    C18   21   0.122   0.415  -0.012
    1UNL    C19   22  -0.063   0.197   0.043
    1UNL    C20   23  -0.087  -0.070   0.087
    1UNL     H1   24  -0.380   0.243   0.020
    1UNL     H2   25  -0.489   0.139   0.124
    1UNL     H3   26  -0.426   0.085  -0.031
    1UNL     H4   27  -0.298  -0.012   0.152
    1UNL     H5   28  -0.246   0.131   0.216
    1UNL     H6   29  -0.276   0.106  -0.136
    1UNL     H7   30  -0.103   0.047  -0.176
    1UNL     H8   31  -0.263  -0.112  -0.267
    1UNL     H9   32  -0.350  -0.123  -0.112
    1UNL    H10   33  -0.065  -0.215  -0.151
    1UNL    H11   34  -0.209  -0.313  -0.133
    1UNL    H12   35  -0.109  -0.413   0.056
    1UNL    H13   36  -0.091  -0.335   0.201
    1UNL    H14   37   0.135  -0.380   0.133
    1UNL    H15   38   0.109  -0.352  -0.039
    1UNL    H16   39   0.359   0.186  -0.065
    1UNL    H17   40   0.551   0.050  -0.171
    1UNL    H18   41   0.579  -0.169  -0.121
    1UNL    H19   42   0.402  -0.295   0.003
    1UNL    H20   43   0.085   0.183  -0.111
    1UNL    H21   44   0.054   0.400  -0.097
    1UNL    H22   45   0.064   0.485   0.056
    1UNL    H23   46   0.203   0.465  -0.062
    1UNL    H24   47  -0.056   0.226   0.155
    1UNL    H25   48  -0.119   0.279  -0.006
    1UNL    H26   49  -0.116  -0.066   0.196
   0.00000   0.00000   0.00000   0.00000   0.00000   0.00000   0.00000   0.00000   0.00000
Generated with MDTraj, t= 53.0
 49
    1UNL     C1    1  -0.405   0.151   0.033
    1UNL     C2    2  -0.304   0.061   0.110
    1UNL     C3    3  -0.162   0.053   0.040
    1UNL     C4    4  -0.174   0.047  -0.114
    1UNL     C5    5  -0.237  -0.089  -0.158
    1UNL     C6    6  -0.141  -0.199  -0.099
    1UNL     N1    7  -0.135  -0.193   0.053
    1UNL     C7    8  -0.067  -0.305   0.119
    1UNL     C8    9   0.085  -0.304   0.092
    1UNL     C9   10   0.147  -0.165   0.070
    1UNL    C10   11   0.065  -0.055   0.065
    1UNL     N2   12   0.130   0.053   0.012
    1UNL    C11   13   0.256   0.007  -0.027
    1UNL    C12   14   0.373   0.074  -0.080
    1UNL    C13   15   0.487  -0.002  -0.101
    1UNL    C14   16   0.482  -0.139  -0.091
    1UNL    C15   17   0.378  -0.204  -0.037
    1UNL    C16   18   0.265  -0.129   0.004
    1UNL    C17   19   0.073   0.191   0.012
    1UNL     O1   20   0.157   0.299   0.057
    1UNL    C18   21   0.121   0.416  -0.011
    1UNL    C19   22  -0.072   0.177   0.072
    1UNL    C20   23  -0.079  -0.067   0.094
    1UNL     H1   24  -0.371   0.251   0.024
    1UNL     H2   25  -0.512   0.145   0.068
    1UNL     H3   26  -0.407   0.119  -0.075
    1UNL     H4   27  -0.344  -0.034   0.121
    1UNL     H5   28  -0.290   0.106   0.208
    1UNL     H6   29  -0.240   0.127  -0.152
    1UNL     H7   30  -0.076   0.032  -0.153
    1UNL     H8   31  -0.245  -0.100  -0.269
    1UNL     H9   32  -0.336  -0.106  -0.111
    1UNL    H10   33  -0.042  -0.179  -0.139
    1UNL    H11   34  -0.165  -0.303  -0.127
    1UNL    H12   35  -0.115  -0.402   0.089
    1UNL    H13   36  -0.082  -0.315   0.227
    1UNL    H14   37   0.140  -0.362   0.159
    1UNL    H15   38   0.093  -0.359  -0.012
    1UNL    H16   39   0.370   0.184  -0.088
    1UNL    H17   40   0.582   0.060  -0.114
    1UNL    H18   41   0.573  -0.192  -0.120
    1UNL    H19   42   0.385  -0.306  -0.005
    1UNL    H20   43   0.067   0.206  -0.092
    1UNL    H21   44   0.142   0.420  -0.119
    1UNL    H22   45   0.006   0.411   0.003
    1UNL    H23   46   0.145   0.509   0.040
    1UNL    H24   47  -0.063   0.184   0.186
    1UNL    H25   48  -0.132   0.264   0.039
    1UNL    H26   49  -0.091  -0.049   0.205
   0.00000   0.00000   0.00000   0.00000   0.00000   0.00000   0.00000   0.00000   0.00000
Generated with MDTraj, t= 54.0
 49
    1UNL     C1    1  -0.377   0.199   0.053
    1UNL     C2    2  -0.307   0.067   0.070
    1UNL     C3    3  -0.158   0.059   0.023
    1UNL     C4    4  -0.164   0.022  -0.128
    1UNL     C5    5  -0.225  -0.122  -0.156
    1UNL     C6    6  -0.165  -0.234  -0.076
    1UNL     N1    7  -0.144  -0.204   0.070
    1UNL     C7    8  -0.058  -0.298   0.138
    1UNL     C8    9   0.086  -0.311   0.084
    1UNL     C9   10   0.140  -0.173   0.055
    1UNL    C10   11   0.062  -0.061   0.063
    1UNL     N2   12   0.124   0.047   0.007
    1UNL    C11   13   0.255   0.013  -0.025
    1UNL    C12   14   0.359   0.083  -0.079
    1UNL    C13   15   0.478   0.023  -0.103
    1UNL    C14   16   0.487  -0.117  -0.094
    1UNL    C15   17   0.381  -0.191  -0.045
    1UNL    C16   18   0.264  -0.127   0.001
    1UNL    C17   19   0.069   0.182  -0.000
    1UNL     O1   20   0.152   0.279   0.075
    1UNL    C18   21   0.138   0.417   0.024
    1UNL    C19   22  -0.074   0.192   0.054
    1UNL    C20   23  -0.085  -0.067   0.093
    1UNL     H1   24  -0.312   0.285   0.073
    1UNL     H2   25  -0.470   0.209   0.112
    1UNL     H3   26  -0.408   0.221  -0.053
    1UNL     H4   27  -0.369  -0.002   0.018
    1UNL     H5   28  -0.298   0.044   0.175
    1UNL     H6   29  -0.232   0.091  -0.183
    1UNL     H7   30  -0.065   0.005  -0.163
    1UNL     H8   31  -0.200  -0.145  -0.260
    1UNL     H9   32  -0.337  -0.129  -0.147
    1UNL    H10   33  -0.065  -0.263  -0.109
    1UNL    H11   34  -0.228  -0.324  -0.094
    1UNL    H12   35  -0.103  -0.400   0.143
    1UNL    H13   36  -0.053  -0.276   0.244
    1UNL    H14   37   0.149  -0.363   0.151
    1UNL    H15   38   0.082  -0.369  -0.015
    1UNL    H16   39   0.348   0.184  -0.103
    1UNL    H17   40   0.560   0.081  -0.119
    1UNL    H18   41   0.575  -0.169  -0.124
    1UNL    H19   42   0.393  -0.299  -0.053
    1UNL    H20   43   0.076   0.208  -0.102
    1UNL    H21   44   0.187   0.444  -0.069
    1UNL    H22   45   0.023   0.426   0.010
    1UNL    H23   46   0.156   0.485   0.107
    1UNL    H24   47  -0.071   0.211   0.164
    1UNL    H25   48  -0.118   0.282   0.002
    1UNL    H26   49  -0.106  -0.048   0.203
   0.00000   0.00000   0.00000   0.00000   0.00000   0.00000   0.00000   0.00000   0.00000
Generated with MDTraj, t= 55.0
 49
    1UNL     C1    1  -0.376   0.203   0.044
    1UNL     C2    2  -0.288   0.092   0.097
    1UNL     C3    3  -0.164   0.059   0.007
    1UNL     C4    4  -0.197   0.016  -0.134
    1UNL     C5    5  -0.258  -0.131  -0.131
    1UNL     C6    6  -0.160  -0.232  -0.078
    1UNL     N1    7  -0.127  -0.203   0.062
    1UNL     C7    8  -0.057  -0.315   0.134
    1UNL     C8    9   0.098  -0.307   0.090
    1UNL     C9   10   0.142  -0.168   0.054
    1UNL    C10   11   0.061  -0.059   0.048
    1UNL     N2   12   0.132   0.051  -0.000
    1UNL    C11   13   0.262   0.008  -0.025
    1UNL    C12   14   0.362   0.082  -0.086
    1UNL    C13   15   0.478   0.016  -0.110
    1UNL    C14   16   0.495  -0.117  -0.077
    1UNL    C15   17   0.390  -0.199  -0.029
    1UNL    C16   18   0.270  -0.130  -0.001
    1UNL    C17   19   0.073   0.186  -0.009
    1UNL     O1   20   0.135   0.272   0.095
    1UNL    C18   21   0.132   0.413   0.065
    1UNL    C19   22  -0.080   0.197   0.003
    1UNL    C20   23  -0.081  -0.061   0.073
    1UNL     H1   24  -0.330   0.307   0.054
    1UNL     H2   25  -0.476   0.200   0.087
    1UNL     H3   26  -0.388   0.195  -0.065
    1UNL     H4   27  -0.348   0.001   0.096
    1UNL     H5   28  -0.258   0.118   0.198
    1UNL     H6   29  -0.271   0.086  -0.176
    1UNL     H7   30  -0.104   0.013  -0.185
    1UNL     H8   31  -0.303  -0.161  -0.225
    1UNL     H9   32  -0.348  -0.133  -0.060
    1UNL    H10   33  -0.072  -0.225  -0.145
    1UNL    H11   34  -0.190  -0.338  -0.076
    1UNL    H12   35  -0.101  -0.415   0.120
    1UNL    H13   36  -0.062  -0.304   0.241
    1UNL    H14   37   0.159  -0.333   0.175
    1UNL    H15   38   0.121  -0.370   0.005
    1UNL    H16   39   0.347   0.189  -0.111
    1UNL    H17   40   0.565   0.061  -0.170
    1UNL    H18   41   0.595  -0.158  -0.093
    1UNL    H19   42   0.388  -0.305  -0.044
    1UNL    H20   43   0.104   0.228  -0.099
    1UNL    H21   44   0.140   0.442  -0.039
    1UNL    H22   45   0.034   0.450   0.111
    1UNL    H23   46   0.211   0.446   0.132
    1UNL    H24   47  -0.102   0.255   0.094
    1UNL    H25   48  -0.119   0.259  -0.085
    1UNL    H26   49  -0.104  -0.035   0.180
   0.00000   0.00000   0.00000   0.00000   0.00000   0.00000   0.00000   0.00000   0.00000
Generated with MDTraj, t= 56.0
 49
    1UNL     C1    1  -0.409   0.169   0.058
    1UNL     C2    2  -0.288   0.077   0.095
    1UNL     C3    3  -0.158   0.060   0.013
    1UNL     C4    4  -0.182   0.019  -0.136
    1UNL     C5    5  -0.253  -0.113  -0.138
    1UNL     C6    6  -0.167  -0.215  -0.067
    1UNL     N1    7  -0.134  -0.181   0.073
    1UNL     C7    8  -0.049  -0.279   0.139
    1UNL     C8    9   0.093  -0.301   0.085
    1UNL     C9   10   0.136  -0.175   0.023
    1UNL    C10   11   0.057  -0.061   0.017
    1UNL     N2   12   0.129   0.050  -0.027
    1UNL    C11   13   0.263   0.009  -0.039
    1UNL    C12   14   0.379   0.073  -0.092
    1UNL    C13   15   0.493   0.000  -0.099
    1UNL    C14   16   0.505  -0.136  -0.059
    1UNL    C15   17   0.395  -0.197  -0.016
    1UNL    C16   18   0.274  -0.127  -0.004
    1UNL    C17   19   0.065   0.188  -0.018
    1UNL     O1   20   0.141   0.270   0.073
    1UNL    C18   21   0.109   0.408   0.087
    1UNL    C19   22  -0.079   0.190   0.032
    1UNL    C20   23  -0.073  -0.050   0.079
    1UNL     H1   24  -0.397   0.204  -0.051
    1UNL     H2   25  -0.427   0.253   0.124
    1UNL     H3   26  -0.504   0.117   0.051
    1UNL     H4   27  -0.327  -0.027   0.105
    1UNL     H5   28  -0.251   0.103   0.192
    1UNL     H6   29  -0.238   0.102  -0.177
    1UNL     H7   30  -0.086   0.010  -0.182
    1UNL     H8   31  -0.259  -0.144  -0.242
    1UNL     H9   32  -0.365  -0.114  -0.109
    1UNL    H10   33  -0.067  -0.224  -0.120
    1UNL    H11   34  -0.215  -0.312  -0.084
    1UNL    H12   35  -0.102  -0.374   0.145
    1UNL    H13   36  -0.043  -0.252   0.243
    1UNL    H14   37   0.163  -0.334   0.163
    1UNL    H15   38   0.086  -0.369   0.010
    1UNL    H16   39   0.375   0.175  -0.123
    1UNL    H17   40   0.578   0.054  -0.131
    1UNL    H18   41   0.588  -0.198  -0.085
    1UNL    H19   42   0.392  -0.303   0.010
    1UNL    H20   43   0.057   0.220  -0.118
    1UNL    H21   44   0.179   0.462   0.027
    1UNL    H22   45   0.009   0.438   0.045
    1UNL    H23   46   0.131   0.430   0.191
    1UNL    H24   47  -0.079   0.219   0.137
    1UNL    H25   48  -0.133   0.273  -0.027
    1UNL    H26   49  -0.060  -0.025   0.187
   0.00000   0.00000   0.00000   0.00000   0.00000   0.00000   0.00000   0.00000   0.00000
Generated with MDTraj, t= 57.0
 49
    1UNL     C1    1  -0.387   0.182   0.034
    1UNL     C2    2  -0.292   0.083   0.102
    1UNL     C3    3  -0.161   0.062   0.022
    1UNL     C4    4  -0.176   0.022  -0.128
    1UNL     C5    5  -0.239  -0.110  -0.149
    1UNL     C6    6  -0.165  -0.225  -0.069
    1UNL     N1    7  -0.142  -0.195   0.075
    1UNL     C7    8  -0.058  -0.308   0.129
    1UNL     C8    9   0.093  -0.308   0.087
    1UNL     C9   10   0.139  -0.174   0.040
    1UNL    C10   11   0.055  -0.064   0.044
    1UNL     N2   12   0.116   0.047  -0.009
    1UNL    C11   13   0.249   0.007  -0.038
    1UNL    C12   14   0.359   0.081  -0.074
    1UNL    C13   15   0.483   0.027  -0.091
    1UNL    C14   16   0.498  -0.111  -0.072
    1UNL    C15   17   0.394  -0.190  -0.034
    1UNL    C16   18   0.266  -0.136  -0.021
    1UNL    C17   19   0.065   0.184  -0.018
    1UNL     O1   20   0.156   0.267   0.058
    1UNL    C18   21   0.134   0.408   0.057
    1UNL    C19   22  -0.075   0.188   0.045
    1UNL    C20   23  -0.084  -0.059   0.090
    1UNL     H1   24  -0.449   0.118  -0.038
    1UNL     H2   25  -0.338   0.266  -0.016
    1UNL     H3   26  -0.457   0.226   0.103
    1UNL     H4   27  -0.343  -0.013   0.134
    1UNL     H5   28  -0.255   0.127   0.192
    1UNL     H6   29  -0.217   0.104  -0.183
    1UNL     H7   30  -0.071   0.019  -0.146
    1UNL     H8   31  -0.259  -0.133  -0.253
    1UNL     H9   32  -0.349  -0.104  -0.114
    1UNL    H10   33  -0.068  -0.241  -0.127
    1UNL    H11   34  -0.216  -0.321  -0.067
    1UNL    H12   35  -0.110  -0.403   0.116
    1UNL    H13   36  -0.060  -0.303   0.237
    1UNL    H14   37   0.157  -0.336   0.173
    1UNL    H15   38   0.112  -0.372   0.012
    1UNL    H16   39   0.340   0.187  -0.064
    1UNL    H17   40   0.574   0.080  -0.114
    1UNL    H18   41   0.594  -0.164  -0.077
    1UNL    H19   42   0.404  -0.287   0.007
    1UNL    H20   43   0.054   0.221  -0.117
    1UNL    H21   44   0.233   0.450   0.051
    1UNL    H22   45   0.088   0.442  -0.041
    1UNL    H23   46   0.110   0.453   0.153
    1UNL    H24   47  -0.054   0.196   0.150
    1UNL    H25   48  -0.131   0.284   0.013
    1UNL    H26   49  -0.080  -0.038   0.198
   0.00000   0.00000   0.00000   0.00000   0.00000   0.00000   0.00000   0.00000   0.00000
Generated with MDTraj, t= 58.0
 49
    1UNL     C1    1  -0.391   0.178   0.049
    1UNL     C2    2  -0.299   0.067   0.094
    1UNL     C3    3  -0.157   0.056   0.032
    1UNL     C4    4  -0.170   0.030  -0.127
    1UNL     C5    5  -0.243  -0.102  -0.147
    1UNL     C6    6  -0.169  -0.218  -0.085
    1UNL     N1    7  -0.142  -0.197   0.054
    1UNL     C7    8  -0.061  -0.311   0.110
    1UNL     C8    9   0.088  -0.307   0.068
    1UNL     C9   10   0.147  -0.172   0.062
    1UNL    C10   11   0.069  -0.059   0.088
    1UNL     N2   12   0.134   0.052   0.027
    1UNL    C11   13   0.263   0.007  -0.015
    1UNL    C12   14   0.366   0.083  -0.074
    1UNL    C13   15   0.476   0.008  -0.112
    1UNL    C14   16   0.492  -0.127  -0.089
    1UNL    C15   17   0.393  -0.196  -0.025
    1UNL    C16   18   0.272  -0.128   0.000
    1UNL    C17   19   0.062   0.181  -0.002
    1UNL     O1   20   0.146   0.290   0.056
    1UNL    C18   21   0.135   0.423  -0.001
    1UNL    C19   22  -0.081   0.184   0.058
    1UNL    C20   23  -0.083  -0.069   0.098
    1UNL     H1   24  -0.432   0.150  -0.049
    1UNL     H2   25  -0.343   0.278   0.046
    1UNL     H3   26  -0.478   0.194   0.114
    1UNL     H4   27  -0.346  -0.036   0.082
    1UNL     H5   28  -0.286   0.078   0.198
    1UNL     H6   29  -0.221   0.113  -0.165
    1UNL     H7   30  -0.069   0.031  -0.163
    1UNL     H8   31  -0.254  -0.114  -0.255
    1UNL     H9   32  -0.355  -0.102  -0.121
    1UNL    H10   33  -0.066  -0.219  -0.135
    1UNL    H11   34  -0.222  -0.309  -0.113
    1UNL    H12   35  -0.107  -0.404   0.078
    1UNL    H13   36  -0.077  -0.323   0.216
    1UNL    H14   37   0.148  -0.364   0.138
    1UNL    H15   38   0.098  -0.353  -0.028
    1UNL    H16   39   0.356   0.190  -0.091
    1UNL    H17   40   0.556   0.066  -0.166
    1UNL    H18   41   0.584  -0.174  -0.115
    1UNL    H19   42   0.387  -0.301   0.007
    1UNL    H20   43   0.058   0.212  -0.105
    1UNL    H21   44   0.138   0.500   0.073
    1UNL    H22   45   0.210   0.437  -0.085
    1UNL    H23   46   0.040   0.441  -0.048
    1UNL    H24   47  -0.062   0.181   0.165
    1UNL    H25   48  -0.138   0.277   0.029
    1UNL    H26   49  -0.107  -0.074   0.205
   0.00000   0.00000   0.00000   0.00000   0.00000   0.00000   0.00000   0.00000   0.00000
Generated with MDTraj, t= 59.0
 49
    1UNL     C1    1  -0.393   0.175   0.071
    1UNL     C2    2  -0.309   0.053   0.099
    1UNL     C3    3  -0.163   0.056   0.038
    1UNL     C4    4  -0.184   0.039  -0.117
    1UNL     C5    5  -0.234  -0.099  -0.162
    1UNL     C6    6  -0.138  -0.201  -0.103
    1UNL     N1    7  -0.136  -0.194   0.046
    1UNL     C7    8  -0.068  -0.309   0.120
    1UNL     C8    9   0.079  -0.313   0.083
    1UNL     C9   10   0.140  -0.176   0.066
    1UNL    C10   11   0.064  -0.060   0.074
    1UNL     N2   12   0.139   0.054   0.035
    1UNL    C11   13   0.268   0.013  -0.013
    1UNL    C12   14   0.379   0.079  -0.057
    1UNL    C13   15   0.492   0.014  -0.107
    1UNL    C14   16   0.484  -0.131  -0.095
    1UNL    C15   17   0.379  -0.202  -0.038
    1UNL    C16   18   0.266  -0.132   0.008
    1UNL    C17   19   0.067   0.178   0.004
    1UNL     O1   20   0.137   0.301   0.049
    1UNL    C18   21   0.127   0.412  -0.033
    1UNL    C19   22  -0.068   0.180   0.064
    1UNL    C20   23  -0.084  -0.062   0.093
    1UNL     H1   24  -0.392   0.201  -0.032
    1UNL     H2   25  -0.344   0.257   0.128
    1UNL     H3   26  -0.500   0.178   0.100
    1UNL     H4   27  -0.367  -0.037   0.058
    1UNL     H5   28  -0.301   0.036   0.203
    1UNL     H6   29  -0.250   0.113  -0.148
    1UNL     H7   30  -0.085   0.051  -0.158
    1UNL     H8   31  -0.228  -0.098  -0.272
    1UNL     H9   32  -0.346  -0.106  -0.150
    1UNL    H10   33  -0.033  -0.185  -0.148
    1UNL    H11   34  -0.169  -0.302  -0.134
    1UNL    H12   35  -0.116  -0.402   0.097
    1UNL    H13   36  -0.078  -0.308   0.228
    1UNL    H14   37   0.131  -0.366   0.160
    1UNL    H15   38   0.090  -0.370  -0.015
    1UNL    H16   39   0.376   0.185  -0.059
    1UNL    H17   40   0.578   0.066  -0.123
    1UNL    H18   41   0.561  -0.193  -0.141
    1UNL    H19   42   0.386  -0.307  -0.047
    1UNL    H20   43   0.058   0.196  -0.104
    1UNL    H21   44   0.135   0.496   0.035
    1UNL    H22   45   0.180   0.414  -0.136
    1UNL    H23   46   0.025   0.418  -0.070
    1UNL    H24   47  -0.047   0.189   0.172
    1UNL    H25   48  -0.120   0.269   0.028
    1UNL    H26   49  -0.094  -0.057   0.201
   0.00000   0.00000   0.00000   0.00000   0.00000   0.00000   0.00000   0.00000   0.00000
Generated with MDTraj, t= 60.0
 49
    1UNL     C1    1  -0.374   0.195   0.061
    1UNL     C2    2  -0.286   0.082   0.118
    1UNL     C3    3  -0.160   0.047   0.042
    1UNL     C4    4  -0.186   0.036  -0.107
    1UNL     C5    5  -0.237  -0.104  -0.155
    1UNL     C6    6  -0.159  -0.220  -0.097
    1UNL     N1    7  -0.145  -0.214   0.043
    1UNL     C7    8  -0.067  -0.327   0.102
    1UNL     C8    9   0.087  -0.314   0.076
    1UNL     C9   10   0.141  -0.173   0.058
    1UNL    C10   11   0.057  -0.066   0.059
    1UNL     N2   12   0.125   0.044   0.013
    1UNL    C11   13   0.257   0.007  -0.015
    1UNL    C12   14   0.359   0.090  -0.064
    1UNL    C13   15   0.478   0.027  -0.083
    1UNL    C14   16   0.497  -0.111  -0.068
    1UNL    C15   17   0.389  -0.187  -0.029
    1UNL    C16   18   0.265  -0.128   0.009
    1UNL    C17   19   0.070   0.178  -0.007
    1UNL     O1   20   0.161   0.294   0.037
    1UNL    C18   21   0.128   0.416  -0.023
    1UNL    C19   22  -0.073   0.179   0.052
    1UNL    C20   23  -0.089  -0.082   0.097
    1UNL     H1   24  -0.434   0.169  -0.020
    1UNL     H2   25  -0.310   0.282   0.040
    1UNL     H3   26  -0.444   0.236   0.137
    1UNL     H4   27  -0.352  -0.011   0.127
    1UNL     H5   28  -0.256   0.108   0.217
    1UNL     H6   29  -0.251   0.114  -0.124
    1UNL     H7   30  -0.092   0.046  -0.158
    1UNL     H8   31  -0.254  -0.093  -0.266
    1UNL     H9   32  -0.341  -0.112  -0.122
    1UNL    H10   33  -0.054  -0.220  -0.143
    1UNL    H11   34  -0.206  -0.316  -0.125
    1UNL    H12   35  -0.097  -0.426   0.073
    1UNL    H13   36  -0.090  -0.330   0.208
    1UNL    H14   37   0.135  -0.369   0.151
    1UNL    H15   38   0.097  -0.371  -0.027
    1UNL    H16   39   0.333   0.197  -0.063
    1UNL    H17   40   0.564   0.097  -0.114
    1UNL    H18   41   0.595  -0.149  -0.083
    1UNL    H19   42   0.379  -0.295  -0.039
    1UNL    H20   43   0.060   0.195  -0.116
    1UNL    H21   44   0.221   0.469  -0.039
    1UNL    H22   45   0.051   0.412  -0.109
    1UNL    H23   46   0.078   0.478   0.048
    1UNL    H24   47  -0.060   0.207   0.159
    1UNL    H25   48  -0.120   0.260   0.004
    1UNL    H26   49  -0.095  -0.087   0.204
   0.00000   0.00000   0.00000   0.00000   0.00000   0.00000   0.00000   0.00000   0.00000
Generated with MDTraj, t= 61.0
 49
    1UNL     C1    1  -0.402   0.160   0.072
    1UNL     C2    2  -0.289   0.071   0.129
    1UNL     C3    3  -0.163   0.062   0.031
    1UNL     C4    4  -0.199   0.039  -0.115
    1UNL     C5    5  -0.265  -0.096  -0.138
    1UNL     C6    6  -0.195  -0.219  -0.078
    1UNL     N1    7  -0.143  -0.199   0.058
    1UNL     C7    8  -0.057  -0.308   0.113
    1UNL     C8    9   0.092  -0.314   0.055
    1UNL     C9   10   0.147  -0.171   0.037
    1UNL    C10   11   0.060  -0.062   0.025
    1UNL     N2   12   0.133   0.049  -0.015
    1UNL    C11   13   0.270   0.013  -0.026
    1UNL    C12   14   0.388   0.073  -0.075
    1UNL    C13   15   0.512   0.010  -0.065
    1UNL    C14   16   0.514  -0.131  -0.040
    1UNL    C15   17   0.399  -0.196  -0.009
    1UNL    C16   18   0.278  -0.127   0.008
    1UNL    C17   19   0.071   0.185  -0.021
    1UNL     O1   20   0.161   0.288   0.032
    1UNL    C18   21   0.098   0.418   0.015
    1UNL    C19   22  -0.076   0.193   0.039
    1UNL    C20   23  -0.081  -0.061   0.078
    1UNL     H1   24  -0.400   0.167  -0.034
    1UNL     H2   25  -0.397   0.259   0.118
    1UNL     H3   26  -0.504   0.124   0.090
    1UNL     H4   27  -0.329  -0.036   0.130
    1UNL     H5   28  -0.268   0.094   0.231
    1UNL     H6   29  -0.255   0.119  -0.154
    1UNL     H7   30  -0.104   0.035  -0.162
    1UNL     H8   31  -0.284  -0.108  -0.251
    1UNL     H9   32  -0.370  -0.078  -0.118
    1UNL    H10   33  -0.107  -0.246  -0.145
    1UNL    H11   34  -0.269  -0.301  -0.086
    1UNL    H12   35  -0.112  -0.400   0.106
    1UNL    H13   36  -0.048  -0.302   0.222
    1UNL    H14   37   0.149  -0.363   0.128
    1UNL    H15   38   0.092  -0.376  -0.046
    1UNL    H16   39   0.367   0.173  -0.103
    1UNL    H17   40   0.595   0.066  -0.091
    1UNL    H18   41   0.610  -0.182  -0.059
    1UNL    H19   42   0.409  -0.302   0.006
    1UNL    H20   43   0.059   0.200  -0.133
    1UNL    H21   44   0.180   0.486  -0.007
    1UNL    H22   45   0.039   0.420  -0.082
    1UNL    H23   46   0.041   0.461   0.096
    1UNL    H24   47  -0.072   0.230   0.145
    1UNL    H25   48  -0.121   0.271  -0.013
    1UNL    H26   49  -0.081  -0.047   0.185
   0.00000   0.00000   0.00000   0.00000   0.00000   0.00000   0.00000   0.00000   0.00000
Generated with MDTraj, t= 62.0
 49
    1UNL     C1    1  -0.393   0.181   0.067
    1UNL     C2    2  -0.287   0.076   0.123
    1UNL     C3    3  -0.160   0.062   0.037
    1UNL     C4    4  -0.204   0.031  -0.114
    1UNL     C5    5  -0.258  -0.115  -0.136
    1UNL     C6    6  -0.163  -0.219  -0.079
    1UNL     N1    7  -0.135  -0.198   0.063
    1UNL     C7    8  -0.049  -0.298   0.131
    1UNL     C8    9   0.091  -0.309   0.069
    1UNL     C9   10   0.139  -0.177   0.014
    1UNL    C10   11   0.059  -0.067   0.017
    1UNL     N2   12   0.128   0.047  -0.010
    1UNL    C11   13   0.263   0.005  -0.033
    1UNL    C12   14   0.377   0.086  -0.049
    1UNL    C13   15   0.493   0.018  -0.044
    1UNL    C14   16   0.505  -0.125  -0.041
    1UNL    C15   17   0.387  -0.204  -0.038
    1UNL    C16   18   0.266  -0.133  -0.027
    1UNL    C17   19   0.070   0.185  -0.024
    1UNL     O1   20   0.156   0.277   0.035
    1UNL    C18   21   0.109   0.412   0.017
    1UNL    C19   22  -0.078   0.196   0.035
    1UNL    C20   23  -0.075  -0.059   0.079
    1UNL     H1   24  -0.481   0.130   0.023
    1UNL     H2   25  -0.344   0.243  -0.005
    1UNL     H3   26  -0.433   0.251   0.139
    1UNL     H4   27  -0.338  -0.024   0.133
    1UNL     H5   28  -0.251   0.103   0.221
    1UNL     H6   29  -0.274   0.106  -0.148
    1UNL     H7   30  -0.124   0.037  -0.180
    1UNL     H8   31  -0.284  -0.117  -0.249
    1UNL     H9   32  -0.357  -0.129  -0.100
    1UNL    H10   33  -0.071  -0.208  -0.143
    1UNL    H11   34  -0.209  -0.319  -0.096
    1UNL    H12   35  -0.095  -0.396   0.136
    1UNL    H13   36  -0.049  -0.278   0.239
    1UNL    H14   37   0.161  -0.349   0.139
    1UNL    H15   38   0.085  -0.383  -0.021
    1UNL    H16   39   0.373   0.196  -0.057
    1UNL    H17   40   0.584   0.082  -0.048
    1UNL    H18   41   0.598  -0.172  -0.057
    1UNL    H19   42   0.400  -0.308  -0.012
    1UNL    H20   43   0.066   0.202  -0.137
    1UNL    H21   44   0.129   0.460   0.112
    1UNL    H22   45   0.178   0.477  -0.046
    1UNL    H23   46   0.002   0.428   0.003
    1UNL    H24   47  -0.068   0.236   0.139
    1UNL    H25   48  -0.136   0.269  -0.014
    1UNL    H26   49  -0.062  -0.051   0.185
   0.00000   0.00000   0.00000   0.00000   0.00000   0.00000   0.00000   0.00000   0.00000
Generated with MDTraj, t= 63.0
 49
    1UNL     C1    1  -0.369   0.189   0.068
    1UNL     C2    2  -0.297   0.062   0.094
    1UNL     C3    3  -0.160   0.053   0.020
    1UNL     C4    4  -0.187   0.015  -0.128
    1UNL     C5    5  -0.273  -0.116  -0.136
    1UNL     C6    6  -0.184  -0.227  -0.082
    1UNL     N1    7  -0.131  -0.199   0.051
    1UNL     C7    8  -0.050  -0.308   0.114
    1UNL     C8    9   0.094  -0.307   0.069
    1UNL     C9   10   0.136  -0.172   0.032
    1UNL    C10   11   0.058  -0.066   0.058
    1UNL     N2   12   0.124   0.048   0.016
    1UNL    C11   13   0.255   0.013  -0.013
    1UNL    C12   14   0.359   0.092  -0.064
    1UNL    C13   15   0.479   0.028  -0.096
    1UNL    C14   16   0.495  -0.105  -0.065
    1UNL    C15   17   0.391  -0.184  -0.013
    1UNL    C16   18   0.266  -0.126  -0.003
    1UNL    C17   19   0.066   0.183  -0.002
    1UNL     O1   20   0.152   0.285   0.068
    1UNL    C18   21   0.177   0.402  -0.003
    1UNL    C19   22  -0.084   0.185   0.032
    1UNL    C20   23  -0.081  -0.065   0.093
    1UNL     H1   24  -0.357   0.219  -0.040
    1UNL     H2   25  -0.329   0.262   0.133
    1UNL     H3   26  -0.474   0.182   0.083
    1UNL     H4   27  -0.353  -0.033   0.079
    1UNL     H5   28  -0.280   0.061   0.202
    1UNL     H6   29  -0.240   0.096  -0.180
    1UNL     H7   30  -0.098   0.008  -0.178
    1UNL     H8   31  -0.330  -0.145  -0.235
    1UNL     H9   32  -0.364  -0.100  -0.085
    1UNL    H10   33  -0.105  -0.245  -0.158
    1UNL    H11   34  -0.253  -0.315  -0.075
    1UNL    H12   35  -0.098  -0.404   0.100
    1UNL    H13   36  -0.054  -0.299   0.224
    1UNL    H14   37   0.167  -0.352   0.140
    1UNL    H15   38   0.099  -0.365  -0.028
    1UNL    H16   39   0.337   0.195  -0.082
    1UNL    H17   40   0.558   0.077  -0.154
    1UNL    H18   41   0.598  -0.148  -0.071
    1UNL    H19   42   0.410  -0.290   0.001
    1UNL    H20   43   0.077   0.206  -0.115
    1UNL    H21   44   0.198   0.479   0.068
    1UNL    H22   45   0.266   0.405  -0.072
    1UNL    H23   46   0.081   0.437  -0.042
    1UNL    H24   47  -0.098   0.225   0.133
    1UNL    H25   48  -0.139   0.253  -0.028
    1UNL    H26   49  -0.099  -0.052   0.197
   0.00000   0.00000   0.00000   0.00000   0.00000   0.00000   0.00000   0.00000   0.00000
Generated with MDTraj, t= 64.0
 49
    1UNL     C1    1  -0.398   0.171   0.052
    1UNL     C2    2  -0.310   0.059   0.101
    1UNL     C3    3  -0.168   0.062   0.036
    1UNL     C4    4  -0.176   0.036  -0.120
    1UNL     C5    5  -0.232  -0.101  -0.160
    1UNL     C6    6  -0.134  -0.204  -0.103
    1UNL     N1    7  -0.131  -0.200   0.050
    1UNL     C7    8  -0.047  -0.298   0.124
    1UNL     C8    9   0.104  -0.302   0.087
    1UNL     C9   10   0.138  -0.166   0.057
    1UNL    C10   11   0.057  -0.055   0.061
    1UNL     N2   12   0.120   0.054   0.023
    1UNL    C11   13   0.248   0.018  -0.022
    1UNL    C12   14   0.363   0.085  -0.070
    1UNL    C13   15   0.462   0.008  -0.122
    1UNL    C14   16   0.478  -0.128  -0.089
    1UNL    C15   17   0.384  -0.193  -0.016
    1UNL    C16   18   0.265  -0.125   0.004
    1UNL    C17   19   0.051   0.182   0.006
    1UNL     O1   20   0.145   0.277   0.067
    1UNL    C18   21   0.174   0.383  -0.015
    1UNL    C19   22  -0.087   0.187   0.068
    1UNL    C20   23  -0.087  -0.064   0.096
    1UNL     H1   24  -0.443   0.141  -0.047
    1UNL     H2   25  -0.336   0.256   0.033
    1UNL     H3   26  -0.479   0.201   0.112
    1UNL     H4   27  -0.352  -0.040   0.080
    1UNL     H5   28  -0.293   0.059   0.209
    1UNL     H6   29  -0.224   0.123  -0.168
    1UNL     H7   30  -0.084   0.045  -0.167
    1UNL     H8   31  -0.244  -0.100  -0.276
    1UNL     H9   32  -0.332  -0.126  -0.138
    1UNL    H10   33  -0.033  -0.188  -0.144
    1UNL    H11   34  -0.164  -0.306  -0.137
    1UNL    H12   35  -0.086  -0.391   0.086
    1UNL    H13   36  -0.064  -0.297   0.234
    1UNL    H14   37   0.161  -0.341   0.179
    1UNL    H15   38   0.124  -0.367   0.001
    1UNL    H16   39   0.366   0.193  -0.070
    1UNL    H17   40   0.546   0.058  -0.158
    1UNL    H18   41   0.566  -0.179  -0.109
    1UNL    H19   42   0.394  -0.298   0.008
    1UNL    H20   43   0.047   0.208  -0.107
    1UNL    H21   44   0.270   0.422   0.011
    1UNL    H22   45   0.189   0.353  -0.121
    1UNL    H23   46   0.105   0.466   0.004
    1UNL    H24   47  -0.068   0.197   0.172
    1UNL    H25   48  -0.139   0.279   0.042
    1UNL    H26   49  -0.095  -0.051   0.202
   0.00000   0.00000   0.00000   0.00000   0.00000   0.00000   0.00000   0.00000   0.00000
Generated with MDTraj, t= 65.0
 49
    1UNL     C1    1  -0.409   0.119   0.028
    1UNL     C2    2  -0.294   0.065   0.110
    1UNL     C3    3  -0.156   0.063   0.039
    1UNL     C4    4  -0.153   0.052  -0.117
    1UNL     C5    5  -0.209  -0.084  -0.166
    1UNL     C6    6  -0.153  -0.205  -0.093
    1UNL     N1    7  -0.137  -0.195   0.054
    1UNL     C7    8  -0.068  -0.311   0.120
    1UNL     C8    9   0.092  -0.305   0.101
    1UNL     C9   10   0.135  -0.168   0.052
    1UNL    C10   11   0.061  -0.056   0.078
    1UNL     N2   12   0.128   0.056   0.026
    1UNL    C11   13   0.249   0.013  -0.023
    1UNL    C12   14   0.360   0.080  -0.079
    1UNL    C13   15   0.459   0.003  -0.123
    1UNL    C14   16   0.473  -0.130  -0.097
    1UNL    C15   17   0.380  -0.200  -0.032
    1UNL    C16   18   0.258  -0.126  -0.003
    1UNL    C17   19   0.067   0.188   0.009
    1UNL     O1   20   0.153   0.288   0.072
    1UNL    C18   21   0.153   0.406  -0.010
    1UNL    C19   22  -0.079   0.194   0.063
    1UNL    C20   23  -0.082  -0.063   0.103
    1UNL     H1   24  -0.428   0.053  -0.057
    1UNL     H2   25  -0.375   0.217  -0.009
    1UNL     H3   26  -0.498   0.126   0.085
    1UNL     H4   27  -0.325  -0.033   0.148
    1UNL     H5   28  -0.269   0.123   0.200
    1UNL     H6   29  -0.196   0.139  -0.167
    1UNL     H7   30  -0.051   0.056  -0.153
    1UNL     H8   31  -0.207  -0.100  -0.283
    1UNL     H9   32  -0.314  -0.075  -0.159
    1UNL    H10   33  -0.055  -0.232  -0.130
    1UNL    H11   34  -0.215  -0.298  -0.109
    1UNL    H12   35  -0.108  -0.406   0.088
    1UNL    H13   36  -0.100  -0.303   0.227
    1UNL    H14   37   0.155  -0.315   0.200
    1UNL    H15   38   0.129  -0.378   0.032
    1UNL    H16   39   0.356   0.188  -0.090
    1UNL    H17   40   0.551   0.052  -0.169
    1UNL    H18   41   0.560  -0.188  -0.133
    1UNL    H19   42   0.375  -0.306  -0.010
    1UNL    H20   43   0.070   0.217  -0.103
    1UNL    H21   44   0.173   0.500   0.040
    1UNL    H22   45   0.232   0.389  -0.082
    1UNL    H23   46   0.056   0.420  -0.062
    1UNL    H24   47  -0.070   0.205   0.167
    1UNL    H25   48  -0.130   0.287   0.030
    1UNL    H26   49  -0.099  -0.059   0.210
   0.00000   0.00000   0.00000   0.00000   0.00000   0.00000   0.00000   0.00000   0.00000
Generated with MDTraj, t= 66.0
 49
    1UNL     C1    1  -0.389   0.179   0.007
    1UNL     C2    2  -0.302   0.082   0.089
    1UNL     C3    3  -0.161   0.057   0.023
    1UNL     C4    4  -0.179   0.023  -0.122
    1UNL     C5    5  -0.241  -0.112  -0.136
    1UNL     C6    6  -0.162  -0.219  -0.071
    1UNL     N1    7  -0.135  -0.202   0.071
    1UNL     C7    8  -0.047  -0.306   0.130
    1UNL     C8    9   0.087  -0.311   0.066
    1UNL     C9   10   0.141  -0.173   0.058
    1UNL    C10   11   0.061  -0.060   0.068
    1UNL     N2   12   0.138   0.052   0.032
    1UNL    C11   13   0.267   0.018  -0.011
    1UNL    C12   14   0.370   0.079  -0.080
    1UNL    C13   15   0.480   0.006  -0.121
    1UNL    C14   16   0.482  -0.135  -0.098
    1UNL    C15   17   0.379  -0.198  -0.040
    1UNL    C16   18   0.269  -0.124  -0.001
    1UNL    C17   19   0.079   0.185   0.006
    1UNL     O1   20   0.154   0.286   0.064
    1UNL    C18   21   0.108   0.416   0.039
    1UNL    C19   22  -0.073   0.193   0.040
    1UNL    C20   23  -0.084  -0.060   0.099
    1UNL     H1   24  -0.432   0.123  -0.074
    1UNL     H2   25  -0.337   0.270  -0.026
    1UNL     H3   26  -0.473   0.212   0.065
    1UNL     H4   27  -0.342  -0.018   0.103
    1UNL     H5   28  -0.292   0.124   0.191
    1UNL     H6   29  -0.236   0.098  -0.176
    1UNL     H7   30  -0.080   0.025  -0.172
    1UNL     H8   31  -0.275  -0.132  -0.247
    1UNL     H9   32  -0.335  -0.110  -0.088
    1UNL    H10   33  -0.065  -0.230  -0.116
    1UNL    H11   34  -0.212  -0.320  -0.084
    1UNL    H12   35  -0.099  -0.401   0.127
    1UNL    H13   36  -0.031  -0.284   0.239
    1UNL    H14   37   0.160  -0.371   0.136
    1UNL    H15   38   0.091  -0.349  -0.034
    1UNL    H16   39   0.387   0.182  -0.092
    1UNL    H17   40   0.558   0.032  -0.183
    1UNL    H18   41   0.573  -0.184  -0.128
    1UNL    H19   42   0.386  -0.303  -0.019
    1UNL    H20   43   0.095   0.208  -0.106
    1UNL    H21   44   0.190   0.482   0.071
    1UNL    H22   45   0.086   0.423  -0.067
    1UNL    H23   46   0.016   0.439   0.097
    1UNL    H24   47  -0.085   0.243   0.130
    1UNL    H25   48  -0.112   0.266  -0.036
    1UNL    H26   49  -0.105  -0.037   0.202
   0.00000   0.00000   0.00000   0.00000   0.00000   0.00000   0.00000   0.00000   0.00000
Generated with MDTraj, t= 67.0
 49
    1UNL     C1    1  -0.351   0.218   0.066
    1UNL     C2    2  -0.306   0.071   0.074
    1UNL     C3    3  -0.162   0.052   0.012
    1UNL     C4    4  -0.186   0.014  -0.132
    1UNL     C5    5  -0.252  -0.129  -0.149
    1UNL     C6    6  -0.169  -0.234  -0.066
    1UNL     N1    7  -0.144  -0.195   0.074
    1UNL     C7    8  -0.054  -0.291   0.159
    1UNL     C8    9   0.090  -0.295   0.105
    1UNL     C9   10   0.137  -0.169   0.037
    1UNL    C10   11   0.053  -0.062   0.022
    1UNL     N2   12   0.132   0.050  -0.010
    1UNL    C11   13   0.262   0.008  -0.033
    1UNL    C12   14   0.374   0.081  -0.081
    1UNL    C13   15   0.496   0.015  -0.080
    1UNL    C14   16   0.503  -0.123  -0.078
    1UNL    C15   17   0.391  -0.199  -0.051
    1UNL    C16   18   0.270  -0.128  -0.009
    1UNL    C17   19   0.074   0.185  -0.017
    1UNL     O1   20   0.154   0.276   0.049
    1UNL    C18   21   0.093   0.401   0.078
    1UNL    C19   22  -0.080   0.185   0.030
    1UNL    C20   23  -0.083  -0.056   0.085
    1UNL     H1   24  -0.380   0.246  -0.031
    1UNL     H2   25  -0.281   0.291   0.108
    1UNL     H3   26  -0.445   0.236   0.118
    1UNL     H4   27  -0.378   0.011   0.020
    1UNL     H5   28  -0.299   0.027   0.176
    1UNL     H6   29  -0.245   0.091  -0.177
    1UNL     H7   30  -0.090   0.011  -0.189
    1UNL     H8   31  -0.238  -0.160  -0.261
    1UNL     H9   32  -0.357  -0.131  -0.131
    1UNL    H10   33  -0.076  -0.253  -0.117
    1UNL    H11   34  -0.224  -0.333  -0.062
    1UNL    H12   35  -0.093  -0.392   0.173
    1UNL    H13   36  -0.061  -0.247   0.263
    1UNL    H14   37   0.170  -0.320   0.185
    1UNL    H15   38   0.096  -0.369   0.028
    1UNL    H16   39   0.377   0.190  -0.099
    1UNL    H17   40   0.586   0.079  -0.096
    1UNL    H18   41   0.580  -0.182  -0.119
    1UNL    H19   42   0.389  -0.305  -0.033
    1UNL    H20   43   0.087   0.210  -0.128
    1UNL    H21   44   0.174   0.473   0.100
    1UNL    H22   45   0.038   0.417  -0.013
    1UNL    H23   46   0.018   0.399   0.161
    1UNL    H24   47  -0.087   0.220   0.128
    1UNL    H25   48  -0.131   0.261  -0.035
    1UNL    H26   49  -0.076  -0.033   0.192
   0.00000   0.00000   0.00000   0.00000   0.00000   0.00000   0.00000   0.00000   0.00000
Generated with MDTraj, t= 68.0
 49
    1UNL     C1    1  -0.364   0.187   0.092
    1UNL     C2    2  -0.292   0.061   0.108
    1UNL     C3    3  -0.165   0.056   0.022
    1UNL     C4    4  -0.192   0.028  -0.129
    1UNL     C5    5  -0.247  -0.115  -0.148
    1UNL     C6    6  -0.150  -0.220  -0.081
    1UNL     N1    7  -0.145  -0.192   0.060
    1UNL     C7    8  -0.062  -0.295   0.131
    1UNL     C8    9   0.086  -0.303   0.087
    1UNL     C9   10   0.138  -0.170   0.048
    1UNL    C10   11   0.063  -0.053   0.034
    1UNL     N2   12   0.121   0.044  -0.038
    1UNL    C11   13   0.254   0.010  -0.054
    1UNL    C12   14   0.360   0.064  -0.116
    1UNL    C13   15   0.488   0.010  -0.096
    1UNL    C14   16   0.502  -0.111  -0.026
    1UNL    C15   17   0.392  -0.190   0.007
    1UNL    C16   18   0.267  -0.127   0.002
    1UNL    C17   19   0.072   0.184  -0.027
    1UNL     O1   20   0.152   0.269   0.055
    1UNL    C18   21   0.122   0.410   0.059
    1UNL    C19   22  -0.081   0.189   0.014
    1UNL    C20   23  -0.080  -0.056   0.084
    1UNL     H1   24  -0.388   0.203  -0.008
    1UNL     H2   25  -0.304   0.268   0.133
    1UNL     H3   26  -0.461   0.181   0.143
    1UNL     H4   27  -0.360  -0.017   0.079
    1UNL     H5   28  -0.266   0.053   0.217
    1UNL     H6   29  -0.264   0.094  -0.169
    1UNL     H7   30  -0.097   0.046  -0.188
    1UNL     H8   31  -0.260  -0.144  -0.259
    1UNL     H9   32  -0.341  -0.128  -0.097
    1UNL    H10   33  -0.051  -0.215  -0.122
    1UNL    H11   34  -0.191  -0.322  -0.102
    1UNL    H12   35  -0.116  -0.389   0.115
    1UNL    H13   36  -0.068  -0.282   0.243
    1UNL    H14   37   0.144  -0.339   0.175
    1UNL    H15   38   0.098  -0.379   0.012
    1UNL    H16   39   0.340   0.150  -0.177
    1UNL    H17   40   0.577   0.054  -0.133
    1UNL    H18   41   0.604  -0.159  -0.013
    1UNL    H19   42   0.394  -0.294   0.036
    1UNL    H20   43   0.094   0.222  -0.129
    1UNL    H21   44   0.197   0.463   0.122
    1UNL    H22   45   0.118   0.432  -0.045
    1UNL    H23   46   0.016   0.433   0.093
    1UNL    H24   47  -0.087   0.220   0.118
    1UNL    H25   48  -0.126   0.271  -0.045
    1UNL    H26   49  -0.074  -0.037   0.193
   0.00000   0.00000   0.00000   0.00000   0.00000   0.00000   0.00000   0.00000   0.00000
Generated with MDTraj, t= 69.0
 49
    1UNL     C1    1  -0.391   0.178   0.046
    1UNL     C2    2  -0.295   0.080   0.118
    1UNL     C3    3  -0.164   0.060   0.039
    1UNL     C4    4  -0.192   0.034  -0.112
    1UNL     C5    5  -0.264  -0.093  -0.138
    1UNL     C6    6  -0.168  -0.206  -0.093
    1UNL     N1    7  -0.140  -0.205   0.049
    1UNL     C7    8  -0.058  -0.325   0.098
    1UNL     C8    9   0.097  -0.309   0.097
    1UNL     C9   10   0.147  -0.170   0.061
    1UNL    C10   11   0.059  -0.065   0.049
    1UNL     N2   12   0.118   0.046  -0.008
    1UNL    C11   13   0.252   0.012  -0.019
    1UNL    C12   14   0.361   0.088  -0.074
    1UNL    C13   15   0.484   0.026  -0.098
    1UNL    C14   16   0.500  -0.113  -0.062
    1UNL    C15   17   0.400  -0.186  -0.005
    1UNL    C16   18   0.270  -0.124   0.014
    1UNL    C17   19   0.058   0.180  -0.021
    1UNL     O1   20   0.155   0.267   0.036
    1UNL    C18   21   0.159   0.396  -0.008
    1UNL    C19   22  -0.072   0.188   0.058
    1UNL    C20   23  -0.081  -0.073   0.087
    1UNL     H1   24  -0.439   0.142  -0.043
    1UNL     H2   25  -0.347   0.271   0.022
    1UNL     H3   26  -0.479   0.202   0.106
    1UNL     H4   27  -0.337  -0.017   0.133
    1UNL     H5   28  -0.270   0.124   0.217
    1UNL     H6   29  -0.247   0.118  -0.153
    1UNL     H7   30  -0.092   0.031  -0.164
    1UNL     H8   31  -0.274  -0.112  -0.251
    1UNL     H9   32  -0.355  -0.102  -0.080
    1UNL    H10   33  -0.078  -0.197  -0.148
    1UNL    H11   34  -0.209  -0.308  -0.120
    1UNL    H12   35  -0.082  -0.414   0.038
    1UNL    H13   36  -0.107  -0.358   0.195
    1UNL    H14   37   0.127  -0.340   0.192
    1UNL    H15   38   0.138  -0.388   0.031
    1UNL    H16   39   0.351   0.194  -0.094
    1UNL    H17   40   0.564   0.093  -0.131
    1UNL    H18   41   0.595  -0.151  -0.058
    1UNL    H19   42   0.395  -0.293   0.002
    1UNL    H20   43   0.059   0.207  -0.128
    1UNL    H21   44   0.226   0.455   0.060
    1UNL    H22   45   0.185   0.390  -0.110
    1UNL    H23   46   0.052   0.434  -0.006
    1UNL    H24   47  -0.044   0.194   0.165
    1UNL    H25   48  -0.132   0.275   0.035
    1UNL    H26   49  -0.075  -0.068   0.199
   0.00000   0.00000   0.00000   0.00000   0.00000   0.00000   0.00000   0.00000   0.00000
Generated with MDTraj, t= 70.0
 49
    1UNL     C1    1  -0.407   0.157   0.052
    1UNL     C2    2  -0.293   0.062   0.112
    1UNL     C3    3  -0.157   0.059   0.038
    1UNL     C4    4  -0.173   0.041  -0.120
    1UNL     C5    5  -0.240  -0.089  -0.157
    1UNL     C6    6  -0.165  -0.208  -0.090
    1UNL     N1    7  -0.140  -0.192   0.051
    1UNL     C7    8  -0.063  -0.303   0.118
    1UNL     C8    9   0.081  -0.311   0.065
    1UNL     C9   10   0.135  -0.174   0.038
    1UNL    C10   11   0.063  -0.062   0.068
    1UNL     N2   12   0.140   0.052   0.045
    1UNL    C11   13   0.266   0.010  -0.003
    1UNL    C12   14   0.383   0.080  -0.034
    1UNL    C13   15   0.497   0.018  -0.085
    1UNL    C14   16   0.494  -0.129  -0.087
    1UNL    C15   17   0.385  -0.199  -0.032
    1UNL    C16   18   0.263  -0.129  -0.001
    1UNL    C17   19   0.065   0.177   0.007
    1UNL     O1   20   0.130   0.308   0.038
    1UNL    C18   21   0.140   0.397  -0.071
    1UNL    C19   22  -0.077   0.183   0.075
    1UNL    C20   23  -0.081  -0.064   0.095
    1UNL     H1   24  -0.441   0.131  -0.049
    1UNL     H2   25  -0.384   0.259   0.054
    1UNL     H3   26  -0.496   0.142   0.112
    1UNL     H4   27  -0.331  -0.036   0.125
    1UNL     H5   28  -0.264   0.093   0.216
    1UNL     H6   29  -0.234   0.127  -0.151
    1UNL     H7   30  -0.074   0.053  -0.165
    1UNL     H8   31  -0.229  -0.112  -0.267
    1UNL     H9   32  -0.343  -0.093  -0.121
    1UNL    H10   33  -0.071  -0.232  -0.130
    1UNL    H11   34  -0.221  -0.306  -0.102
    1UNL    H12   35  -0.123  -0.395   0.108
    1UNL    H13   36  -0.065  -0.295   0.230
    1UNL    H14   37   0.142  -0.366   0.125
    1UNL    H15   38   0.070  -0.368  -0.031
    1UNL    H16   39   0.379   0.188  -0.032
    1UNL    H17   40   0.594   0.062  -0.101
    1UNL    H18   41   0.583  -0.185  -0.131
    1UNL    H19   42   0.394  -0.308  -0.036
    1UNL    H20   43   0.061   0.184  -0.100
    1UNL    H21   44   0.207   0.480  -0.039
    1UNL    H22   45   0.172   0.359  -0.163
    1UNL    H23   46   0.035   0.437  -0.076
    1UNL    H24   47  -0.077   0.179   0.189
    1UNL    H25   48  -0.128   0.271   0.043
    1UNL    H26   49  -0.095  -0.066   0.207
   0.00000   0.00000   0.00000   0.00000   0.00000   0.00000   0.00000   0.00000   0.00000
Generated with MDTraj, t= 71.0
 49
    1UNL     C1    1  -0.393   0.190   0.062
    1UNL     C2    2  -0.294   0.086   0.113
    1UNL     C3    3  -0.162   0.058   0.037
    1UNL     C4    4  -0.184   0.031  -0.116
    1UNL     C5    5  -0.251  -0.099  -0.147
    1UNL     C6    6  -0.157  -0.214  -0.103
    1UNL     N1    7  -0.135  -0.209   0.049
    1UNL     C7    8  -0.056  -0.324   0.095
    1UNL     C8    9   0.097  -0.315   0.073
    1UNL     C9   10   0.144  -0.173   0.055
    1UNL    C10   11   0.064  -0.062   0.080
    1UNL     N2   12   0.136   0.052   0.040
    1UNL    C11   13   0.257   0.006  -0.000
    1UNL    C12   14   0.368   0.084  -0.030
    1UNL    C13   15   0.481   0.024  -0.076
    1UNL    C14   16   0.489  -0.117  -0.071
    1UNL    C15   17   0.378  -0.198  -0.038
    1UNL    C16   18   0.259  -0.133  -0.012
    1UNL    C17   19   0.076   0.174  -0.002
    1UNL     O1   20   0.151   0.295   0.025
    1UNL    C18   21   0.130   0.408  -0.063
    1UNL    C19   22  -0.068   0.182   0.054
    1UNL    C20   23  -0.089  -0.070   0.097
    1UNL     H1   24  -0.412   0.168  -0.045
    1UNL     H2   25  -0.359   0.288   0.077
    1UNL     H3   26  -0.483   0.174   0.118
    1UNL     H4   27  -0.344  -0.007   0.120
    1UNL     H5   28  -0.272   0.108   0.221
    1UNL     H6   29  -0.248   0.117  -0.152
    1UNL     H7   30  -0.083   0.037  -0.156
    1UNL     H8   31  -0.274  -0.107  -0.255
    1UNL     H9   32  -0.339  -0.116  -0.082
    1UNL    H10   33  -0.061  -0.217  -0.145
    1UNL    H11   34  -0.191  -0.319  -0.123
    1UNL    H12   35  -0.096  -0.415   0.047
    1UNL    H13   36  -0.087  -0.345   0.201
    1UNL    H14   37   0.137  -0.351   0.161
    1UNL    H15   38   0.124  -0.381  -0.011
    1UNL    H16   39   0.358   0.189  -0.013
    1UNL    H17   40   0.558   0.088  -0.117
    1UNL    H18   41   0.581  -0.157  -0.101
    1UNL    H19   42   0.392  -0.301  -0.018
    1UNL    H20   43   0.081   0.167  -0.109
    1UNL    H21   44   0.151   0.495   0.005
    1UNL    H22   45   0.197   0.426  -0.142
    1UNL    H23   46   0.021   0.422  -0.085
    1UNL    H24   47  -0.051   0.194   0.167
    1UNL    H25   48  -0.113   0.271   0.015
    1UNL    H26   49  -0.109  -0.067   0.208
   0.00000   0.00000   0.00000   0.00000   0.00000   0.00000   0.00000   0.00000   0.00000
Generated with MDTraj, t= 72.0
 49
    1UNL     C1    1  -0.389   0.191   0.096
    1UNL     C2    2  -0.296   0.070   0.112
    1UNL     C3    3  -0.166   0.060   0.025
    1UNL     C4    4  -0.202   0.037  -0.129
    1UNL     C5    5  -0.275  -0.101  -0.154
    1UNL     C6    6  -0.179  -0.217  -0.102
    1UNL     N1    7  -0.140  -0.201   0.041
    1UNL     C7    8  -0.062  -0.315   0.108
    1UNL     C8    9   0.098  -0.310   0.094
    1UNL     C9   10   0.143  -0.175   0.046
    1UNL    C10   11   0.066  -0.064   0.045
    1UNL     N2   12   0.127   0.045  -0.005
    1UNL    C11   13   0.258   0.009  -0.024
    1UNL    C12   14   0.369   0.081  -0.082
    1UNL    C13   15   0.492   0.014  -0.085
    1UNL    C14   16   0.513  -0.117  -0.043
    1UNL    C15   17   0.408  -0.182   0.015
    1UNL    C16   18   0.277  -0.128   0.015
    1UNL    C17   19   0.065   0.179  -0.026
    1UNL     O1   20   0.159   0.278   0.034
    1UNL    C18   21   0.128   0.408  -0.009
    1UNL    C19   22  -0.073   0.182   0.054
    1UNL    C20   23  -0.083  -0.065   0.075
    1UNL     H1   24  -0.422   0.202  -0.009
    1UNL     H2   25  -0.341   0.285   0.121
    1UNL     H3   26  -0.472   0.192   0.160
    1UNL     H4   27  -0.346  -0.024   0.103
    1UNL     H5   28  -0.266   0.060   0.219
    1UNL     H6   29  -0.260   0.131  -0.161
    1UNL     H7   30  -0.105   0.032  -0.177
    1UNL     H8   31  -0.276  -0.125  -0.260
    1UNL     H9   32  -0.376  -0.101  -0.104
    1UNL    H10   33  -0.088  -0.226  -0.156
    1UNL    H11   34  -0.220  -0.320  -0.110
    1UNL    H12   35  -0.100  -0.415   0.084
    1UNL    H13   36  -0.082  -0.309   0.217
    1UNL    H14   37   0.145  -0.330   0.189
    1UNL    H15   38   0.125  -0.381   0.016
    1UNL    H16   39   0.353   0.188  -0.094
    1UNL    H17   40   0.568   0.072  -0.136
    1UNL    H18   41   0.608  -0.169  -0.054
    1UNL    H19   42   0.434  -0.274   0.066
    1UNL    H20   43   0.046   0.185  -0.130
    1UNL    H21   44   0.212   0.482  -0.008
    1UNL    H22   45   0.098   0.408  -0.109
    1UNL    H23   46   0.050   0.452   0.058
    1UNL    H24   47  -0.028   0.181   0.159
    1UNL    H25   48  -0.120   0.275   0.032
    1UNL    H26   49  -0.080  -0.062   0.189
   0.00000   0.00000   0.00000   0.00000   0.00000   0.00000   0.00000   0.00000   0.00000
Generated with MDTraj, t= 73.0
 49
    1UNL     C1    1  -0.380   0.189   0.086
    1UNL     C2    2  -0.282   0.077   0.115
    1UNL     C3    3  -0.161   0.062   0.022
    1UNL     C4    4  -0.192   0.033  -0.127
    1UNL     C5    5  -0.246  -0.109  -0.137
    1UNL     C6    6  -0.149  -0.211  -0.084
    1UNL     N1    7  -0.134  -0.189   0.059
    1UNL     C7    8  -0.058  -0.293   0.132
    1UNL     C8    9   0.086  -0.312   0.076
    1UNL     C9   10   0.137  -0.178   0.029
    1UNL    C10   11   0.055  -0.069   0.017
    1UNL     N2   12   0.121   0.041  -0.031
    1UNL    C11   13   0.255   0.006  -0.048
    1UNL    C12   14   0.374   0.079  -0.081
    1UNL    C13   15   0.492   0.013  -0.070
    1UNL    C14   16   0.503  -0.119  -0.020
    1UNL    C15   17   0.390  -0.197   0.006
    1UNL    C16   18   0.269  -0.134  -0.007
    1UNL    C17   19   0.062   0.180  -0.026
    1UNL     O1   20   0.154   0.275   0.018
    1UNL    C18   21   0.096   0.397   0.040
    1UNL    C19   22  -0.075   0.190   0.040
    1UNL    C20   23  -0.076  -0.055   0.074
    1UNL     H1   24  -0.433   0.163  -0.004
    1UNL     H2   25  -0.332   0.288   0.070
    1UNL     H3   26  -0.445   0.204   0.168
    1UNL     H4   27  -0.344  -0.010   0.119
    1UNL     H5   28  -0.252   0.090   0.221
    1UNL     H6   29  -0.284   0.095  -0.158
    1UNL     H7   30  -0.105   0.052  -0.190
    1UNL     H8   31  -0.264  -0.129  -0.241
    1UNL     H9   32  -0.335  -0.127  -0.065
    1UNL    H10   33  -0.055  -0.213  -0.134
    1UNL    H11   34  -0.195  -0.311  -0.093
    1UNL    H12   35  -0.112  -0.388   0.118
    1UNL    H13   36  -0.061  -0.280   0.242
    1UNL    H14   37   0.155  -0.343   0.160
    1UNL    H15   38   0.091  -0.377  -0.008
    1UNL    H16   39   0.371   0.183  -0.103
    1UNL    H17   40   0.589   0.055  -0.085
    1UNL    H18   41   0.610  -0.161  -0.014
    1UNL    H19   42   0.403  -0.298   0.042
    1UNL    H20   43   0.035   0.200  -0.126
    1UNL    H21   44   0.178   0.464   0.077
    1UNL    H22   45   0.070   0.445  -0.049
    1UNL    H23   46   0.019   0.400   0.121
    1UNL    H24   47  -0.067   0.207   0.152
    1UNL    H25   48  -0.122   0.275  -0.007
    1UNL    H26   49  -0.063  -0.057   0.188
   0.00000   0.00000   0.00000   0.00000   0.00000   0.00000   0.00000   0.00000   0.00000
Generated with MDTraj, t= 74.0
 49
    1UNL     C1    1  -0.378   0.185   0.033
    1UNL     C2    2  -0.286   0.075   0.089
    1UNL     C3    3  -0.159   0.059   0.017
    1UNL     C4    4  -0.183   0.013  -0.126
    1UNL     C5    5  -0.279  -0.111  -0.126
    1UNL     C6    6  -0.200  -0.226  -0.060
    1UNL     N1    7  -0.134  -0.201   0.072
    1UNL     C7    8  -0.052  -0.316   0.116
    1UNL     C8    9   0.096  -0.305   0.075
    1UNL     C9   10   0.138  -0.171   0.039
    1UNL    C10   11   0.057  -0.061   0.040
    1UNL     N2   12   0.132   0.050   0.003
    1UNL    C11   13   0.263   0.008  -0.008
    1UNL    C12   14   0.376   0.085  -0.048
    1UNL    C13   15   0.489   0.020  -0.074
    1UNL    C14   16   0.498  -0.117  -0.070
    1UNL    C15   17   0.390  -0.193  -0.039
    1UNL    C16   18   0.271  -0.125  -0.001
    1UNL    C17   19   0.074   0.183  -0.022
    1UNL     O1   20   0.164   0.276   0.046
    1UNL    C18   21   0.117   0.411   0.038
    1UNL    C19   22  -0.074   0.195   0.022
    1UNL    C20   23  -0.080  -0.057   0.090
    1UNL     H1   24  -0.390   0.176  -0.073
    1UNL     H2   25  -0.348   0.292   0.050
    1UNL     H3   26  -0.476   0.179   0.075
    1UNL     H4   27  -0.339  -0.018   0.104
    1UNL     H5   28  -0.262   0.104   0.192
    1UNL     H6   29  -0.220   0.097  -0.194
    1UNL     H7   30  -0.087  -0.024  -0.159
    1UNL     H8   31  -0.312  -0.145  -0.221
    1UNL     H9   32  -0.363  -0.081  -0.054
    1UNL    H10   33  -0.119  -0.245  -0.129
    1UNL    H11   34  -0.263  -0.314  -0.051
    1UNL    H12   35  -0.096  -0.411   0.083
    1UNL    H13   36  -0.065  -0.319   0.226
    1UNL    H14   37   0.165  -0.337   0.163
    1UNL    H15   38   0.114  -0.365  -0.009
    1UNL    H16   39   0.374   0.192  -0.069
    1UNL    H17   40   0.578   0.080  -0.099
    1UNL    H18   41   0.586  -0.162  -0.093
    1UNL    H19   42   0.388  -0.294  -0.073
    1UNL    H20   43   0.081   0.210  -0.121
    1UNL    H21   44   0.202   0.481   0.020
    1UNL    H22   45   0.060   0.426  -0.050
    1UNL    H23   46   0.065   0.446   0.128
    1UNL    H24   47  -0.071   0.227   0.129
    1UNL    H25   48  -0.131   0.272  -0.034
    1UNL    H26   49  -0.080  -0.048   0.204
   0.00000   0.00000   0.00000   0.00000   0.00000   0.00000   0.00000   0.00000   0.00000
Generated with MDTraj, t= 75.0
 49
    1UNL     C1    1  -0.397   0.166   0.021
    1UNL     C2    2  -0.298   0.065   0.094
    1UNL     C3    3  -0.156   0.057   0.023
    1UNL     C4    4  -0.172   0.029  -0.125
    1UNL     C5    5  -0.245  -0.103  -0.147
    1UNL     C6    6  -0.168  -0.214  -0.077
    1UNL     N1    7  -0.147  -0.192   0.071
    1UNL     C7    8  -0.055  -0.295   0.126
    1UNL     C8    9   0.088  -0.309   0.066
    1UNL     C9   10   0.141  -0.174   0.045
    1UNL    C10   11   0.067  -0.060   0.062
    1UNL     N2   12   0.142   0.054   0.035
    1UNL    C11   13   0.269   0.019  -0.007
    1UNL    C12   14   0.372   0.082  -0.076
    1UNL    C13   15   0.479   0.007  -0.106
    1UNL    C14   16   0.483  -0.131  -0.088
    1UNL    C15   17   0.382  -0.204  -0.034
    1UNL    C16   18   0.271  -0.132   0.004
    1UNL    C17   19   0.077   0.183   0.006
    1UNL     O1   20   0.139   0.293   0.076
    1UNL    C18   21   0.122   0.413  -0.001
    1UNL    C19   22  -0.069   0.180   0.048
    1UNL    C20   23  -0.082  -0.058   0.097
    1UNL     H1   24  -0.456   0.111  -0.048
    1UNL     H2   25  -0.356   0.242  -0.051
    1UNL     H3   26  -0.468   0.222   0.081
    1UNL     H4   27  -0.340  -0.036   0.100
    1UNL     H5   28  -0.292   0.091   0.200
    1UNL     H6   29  -0.216   0.118  -0.179
    1UNL     H7   30  -0.072   0.020  -0.169
    1UNL     H8   31  -0.239  -0.121  -0.252
    1UNL     H9   32  -0.357  -0.107  -0.112
    1UNL    H10   33  -0.064  -0.215  -0.115
    1UNL    H11   34  -0.214  -0.312  -0.091
    1UNL    H12   35  -0.110  -0.391   0.124
    1UNL    H13   36  -0.046  -0.271   0.233
    1UNL    H14   37   0.157  -0.371   0.138
    1UNL    H15   38   0.083  -0.354  -0.027
    1UNL    H16   39   0.359   0.183  -0.107
    1UNL    H17   40   0.567   0.050  -0.145
    1UNL    H18   41   0.582  -0.184  -0.114
    1UNL    H19   42   0.374  -0.313  -0.041
    1UNL    H20   43   0.092   0.206  -0.093
    1UNL    H21   44   0.146   0.503   0.060
    1UNL    H22   45   0.187   0.407  -0.086
    1UNL    H23   46   0.021   0.428  -0.036
    1UNL    H24   47  -0.061   0.197   0.156
    1UNL    H25   48  -0.130   0.265   0.005
    1UNL    H26   49  -0.083  -0.020   0.205
   0.00000   0.00000   0.00000   0.00000   0.00000   0.00000   0.00000   0.00000   0.00000
Generated with MDTraj, t= 76.0
 49
    1UNL     C1    1  -0.399   0.163   0.039
    1UNL     C2    2  -0.301   0.071   0.098
    1UNL     C3    3  -0.158   0.058   0.034
    1UNL     C4    4  -0.161   0.044  -0.121
    1UNL     C5    5  -0.201  -0.095  -0.167
    1UNL     C6    6  -0.121  -0.203  -0.101
    1UNL     N1    7  -0.132  -0.203   0.049
    1UNL     C7    8  -0.068  -0.320   0.122
    1UNL     C8    9   0.089  -0.307   0.129
    1UNL     C9   10   0.132  -0.172   0.070
    1UNL    C10   11   0.060  -0.055   0.080
    1UNL     N2   12   0.125   0.054   0.020
    1UNL    C11   13   0.250   0.010  -0.025
    1UNL    C12   14   0.354   0.083  -0.089
    1UNL    C13   15   0.466   0.008  -0.118
    1UNL    C14   16   0.473  -0.127  -0.092
    1UNL    C15   17   0.370  -0.195  -0.039
    1UNL    C16   18   0.253  -0.129   0.001
    1UNL    C17   19   0.062   0.187  -0.001
    1UNL     O1   20   0.164   0.281   0.047
    1UNL    C18   21   0.138   0.410   0.001
    1UNL    C19   22  -0.073   0.184   0.071
    1UNL    C20   23  -0.092  -0.067   0.098
    1UNL     H1   24  -0.388   0.162  -0.067
    1UNL     H2   25  -0.394   0.267   0.073
    1UNL     H3   26  -0.499   0.124   0.067
    1UNL     H4   27  -0.356  -0.024   0.101
    1UNL     H5   28  -0.287   0.097   0.203
    1UNL     H6   29  -0.234   0.117  -0.161
    1UNL     H7   30  -0.067   0.082  -0.171
    1UNL     H8   31  -0.199  -0.111  -0.274
    1UNL     H9   32  -0.312  -0.107  -0.134
    1UNL    H10   33  -0.011  -0.200  -0.122
    1UNL    H11   34  -0.159  -0.300  -0.125
    1UNL    H12   35  -0.090  -0.414   0.068
    1UNL    H13   36  -0.122  -0.331   0.216
    1UNL    H14   37   0.120  -0.311   0.241
    1UNL    H15   38   0.135  -0.387   0.080
    1UNL    H16   39   0.349   0.191  -0.100
    1UNL    H17   40   0.558   0.062  -0.152
    1UNL    H18   41   0.555  -0.185  -0.124
    1UNL    H19   42   0.368  -0.297  -0.005
    1UNL    H20   43   0.050   0.211  -0.101
    1UNL    H21   44   0.070   0.454   0.079
    1UNL    H22   45   0.234   0.455  -0.019
    1UNL    H23   46   0.087   0.404  -0.093
    1UNL    H24   47  -0.062   0.186   0.179
    1UNL    H25   48  -0.132   0.279   0.042
    1UNL    H26   49  -0.118  -0.055   0.206
   0.00000   0.00000   0.00000   0.00000   0.00000   0.00000   0.00000   0.00000   0.00000
Generated with MDTraj, t= 77.0
 49
    1UNL     C1    1  -0.375   0.197   0.050
    1UNL     C2    2  -0.293   0.081   0.096
    1UNL     C3    3  -0.160   0.055   0.021
    1UNL     C4    4  -0.182   0.034  -0.131
    1UNL     C5    5  -0.227  -0.114  -0.165
    1UNL     C6    6  -0.148  -0.225  -0.096
    1UNL     N1    7  -0.138  -0.207   0.048
    1UNL     C7    8  -0.052  -0.310   0.120
    1UNL     C8    9   0.098  -0.303   0.084
    1UNL     C9   10   0.145  -0.162   0.080
    1UNL    C10   11   0.057  -0.053   0.071
    1UNL     N2   12   0.128   0.056   0.024
    1UNL    C11   13   0.260   0.013  -0.022
    1UNL    C12   14   0.358   0.066  -0.106
    1UNL    C13   15   0.471  -0.013  -0.146
    1UNL    C14   16   0.485  -0.143  -0.085
    1UNL    C15   17   0.391  -0.192   0.000
    1UNL    C16   18   0.270  -0.122   0.023
    1UNL    C17   19   0.063   0.188   0.004
    1UNL     O1   20   0.137   0.287   0.074
    1UNL    C18   21   0.109   0.418   0.027
    1UNL    C19   22  -0.078   0.189   0.045
    1UNL    C20   23  -0.083  -0.065   0.091
    1UNL     H1   24  -0.388   0.201  -0.058
    1UNL     H2   25  -0.334   0.289   0.078
    1UNL     H3   26  -0.474   0.191   0.101
    1UNL     H4   27  -0.345  -0.015   0.098
    1UNL     H5   28  -0.263   0.096   0.199
    1UNL     H6   29  -0.247   0.116  -0.165
    1UNL     H7   30  -0.087   0.062  -0.190
    1UNL     H8   31  -0.230  -0.128  -0.273
    1UNL     H9   32  -0.335  -0.126  -0.130
    1UNL    H10   33  -0.037  -0.225  -0.122
    1UNL    H11   34  -0.186  -0.323  -0.110
    1UNL    H12   35  -0.103  -0.406   0.101
    1UNL    H13   36  -0.061  -0.300   0.227
    1UNL    H14   37   0.167  -0.355   0.159
    1UNL    H15   38   0.117  -0.350  -0.011
    1UNL    H16   39   0.368   0.173  -0.121
    1UNL    H17   40   0.539   0.015  -0.221
    1UNL    H18   41   0.570  -0.207  -0.107
    1UNL    H19   42   0.414  -0.286   0.048
    1UNL    H20   43   0.064   0.215  -0.097
    1UNL    H21   44   0.006   0.413  -0.017
    1UNL    H22   45   0.129   0.484   0.112
    1UNL    H23   46   0.187   0.440  -0.043
    1UNL    H24   47  -0.067   0.209   0.151
    1UNL    H25   48  -0.136   0.280   0.004
    1UNL    H26   49  -0.106  -0.064   0.199
   0.00000   0.00000   0.00000   0.00000   0.00000   0.00000   0.00000   0.00000   0.00000
Generated with MDTraj, t= 78.0
 49
    1UNL     C1    1  -0.379   0.197   0.048
    1UNL     C2    2  -0.292   0.079   0.103
    1UNL     C3    3  -0.161   0.052   0.014
    1UNL     C4    4  -0.192   0.013  -0.140
    1UNL     C5    5  -0.249  -0.124  -0.153
    1UNL     C6    6  -0.167  -0.223  -0.076
    1UNL     N1    7  -0.142  -0.191   0.072
    1UNL     C7    8  -0.055  -0.287   0.146
    1UNL     C8    9   0.089  -0.297   0.092
    1UNL     C9   10   0.142  -0.169   0.042
    1UNL    C10   11   0.059  -0.061   0.046
    1UNL     N2   12   0.131   0.044  -0.004
    1UNL    C11   13   0.263   0.002  -0.039
    1UNL    C12   14   0.372   0.083  -0.061
    1UNL    C13   15   0.491   0.018  -0.084
    1UNL    C14   16   0.493  -0.124  -0.083
    1UNL    C15   17   0.385  -0.199  -0.045
    1UNL    C16   18   0.264  -0.132  -0.014
    1UNL    C17   19   0.076   0.181  -0.011
    1UNL     O1   20   0.151   0.272   0.073
    1UNL    C18   21   0.112   0.411   0.052
    1UNL    C19   22  -0.076   0.185   0.021
    1UNL    C20   23  -0.078  -0.054   0.093
    1UNL     H1   24  -0.411   0.171  -0.054
    1UNL     H2   25  -0.329   0.287   0.043
    1UNL     H3   26  -0.469   0.206   0.114
    1UNL     H4   27  -0.339  -0.019   0.103
    1UNL     H5   28  -0.262   0.094   0.205
    1UNL     H6   29  -0.249   0.087  -0.198
    1UNL     H7   30  -0.091   0.020  -0.197
    1UNL     H8   31  -0.240  -0.157  -0.260
    1UNL     H9   32  -0.353  -0.116  -0.125
    1UNL    H10   33  -0.065  -0.236  -0.125
    1UNL    H11   34  -0.211  -0.318  -0.071
    1UNL    H12   35  -0.093  -0.391   0.139
    1UNL    H13   36  -0.069  -0.262   0.249
    1UNL    H14   37   0.151  -0.324   0.182
    1UNL    H15   38   0.105  -0.376   0.013
    1UNL    H16   39   0.363   0.189  -0.054
    1UNL    H17   40   0.583   0.078  -0.110
    1UNL    H18   41   0.584  -0.171  -0.128
    1UNL    H19   42   0.373  -0.307  -0.043
    1UNL    H20   43   0.081   0.204  -0.113
    1UNL    H21   44   0.007   0.409   0.017
    1UNL    H22   45   0.133   0.474   0.141
    1UNL    H23   46   0.177   0.456  -0.021
    1UNL    H24   47  -0.076   0.224   0.123
    1UNL    H25   48  -0.122   0.268  -0.042
    1UNL    H26   49  -0.086  -0.037   0.201
   0.00000   0.00000   0.00000   0.00000   0.00000   0.00000   0.00000   0.00000   0.00000
Generated with MDTraj, t= 79.0
 49
    1UNL     C1    1  -0.401   0.168   0.028
    1UNL     C2    2  -0.302   0.069   0.096
    1UNL     C3    3  -0.159   0.063   0.025
    1UNL     C4    4  -0.188   0.012  -0.122
    1UNL     C5    5  -0.273  -0.122  -0.128
    1UNL     C6    6  -0.183  -0.229  -0.060
    1UNL     N1    7  -0.132  -0.188   0.071
    1UNL     C7    8  -0.043  -0.294   0.138
    1UNL     C8    9   0.090  -0.302   0.064
    1UNL     C9   10   0.142  -0.169   0.026
    1UNL    C10   11   0.064  -0.056   0.036
    1UNL     N2   12   0.123   0.053  -0.026
    1UNL    C11   13   0.255   0.016  -0.051
    1UNL    C12   14   0.370   0.084  -0.069
    1UNL    C13   15   0.491   0.019  -0.071
    1UNL    C14   16   0.495  -0.123  -0.045
    1UNL    C15   17   0.387  -0.199  -0.023
    1UNL    C16   18   0.265  -0.126  -0.026
    1UNL    C17   19   0.074   0.194  -0.016
    1UNL     O1   20   0.163   0.263   0.069
    1UNL    C18   21   0.153   0.402   0.054
    1UNL    C19   22  -0.073   0.199   0.031
    1UNL    C20   23  -0.080  -0.049   0.089
    1UNL     H1   24  -0.427   0.134  -0.074
    1UNL     H2   25  -0.359   0.265   0.021
    1UNL     H3   26  -0.494   0.164   0.089
    1UNL     H4   27  -0.347  -0.030   0.104
    1UNL     H5   28  -0.278   0.091   0.198
    1UNL     H6   29  -0.240   0.093  -0.173
    1UNL     H7   30  -0.097  -0.001  -0.192
    1UNL     H8   31  -0.311  -0.148  -0.233
    1UNL     H9   32  -0.353  -0.110  -0.062
    1UNL    H10   33  -0.086  -0.249  -0.117
    1UNL    H11   34  -0.235  -0.318  -0.047
    1UNL    H12   35  -0.106  -0.385   0.134
    1UNL    H13   36  -0.024  -0.276   0.241
    1UNL    H14   37   0.164  -0.354   0.127
    1UNL    H15   38   0.064  -0.367  -0.030
    1UNL    H16   39   0.350   0.189  -0.098
    1UNL    H17   40   0.570   0.087  -0.078
    1UNL    H18   41   0.589  -0.166  -0.043
    1UNL    H19   42   0.385  -0.306  -0.007
    1UNL    H20   43   0.084   0.235  -0.114
    1UNL    H21   44   0.095   0.444   0.138
    1UNL    H22   45   0.257   0.442   0.041
    1UNL    H23   46   0.109   0.442  -0.036
    1UNL    H24   47  -0.074   0.240   0.133
    1UNL    H25   48  -0.125   0.274  -0.036
    1UNL    H26   49  -0.085  -0.031   0.196
   0.00000   0.00000   0.00000   0.00000   0.00000   0.00000   0.00000   0.00000   0.00000
Generated with MDTraj, t= 80.0
 49
    1UNL     C1    1  -0.397   0.162   0.051
    1UNL     C2    2  -0.291   0.068   0.112
    1UNL     C3    3  -0.157   0.066   0.023
    1UNL     C4    4  -0.194   0.041  -0.127
    1UNL     C5    5  -0.263  -0.099  -0.139
    1UNL     C6    6  -0.182  -0.223  -0.086
    1UNL     N1    7  -0.141  -0.193   0.055
    1UNL     C7    8  -0.061  -0.305   0.125
    1UNL     C8    9   0.086  -0.311   0.085
    1UNL     C9   10   0.143  -0.177   0.044
    1UNL    C10   11   0.062  -0.063   0.030
    1UNL     N2   12   0.128   0.047  -0.015
    1UNL    C11   13   0.263   0.008  -0.027
    1UNL    C12   14   0.363   0.083  -0.084
    1UNL    C13   15   0.483   0.019  -0.095
    1UNL    C14   16   0.512  -0.115  -0.058
    1UNL    C15   17   0.403  -0.185   0.001
    1UNL    C16   18   0.274  -0.131   0.008
    1UNL    C17   19   0.073   0.182  -0.012
    1UNL     O1   20   0.155   0.269   0.067
    1UNL    C18   21   0.135   0.399   0.030
    1UNL    C19   22  -0.070   0.197   0.033
    1UNL    C20   23  -0.077  -0.058   0.079
    1UNL     H1   24  -0.474   0.114  -0.010
    1UNL     H2   25  -0.352   0.238  -0.014
    1UNL     H3   26  -0.458   0.209   0.129
    1UNL     H4   27  -0.320  -0.037   0.129
    1UNL     H5   28  -0.272   0.104   0.210
    1UNL     H6   29  -0.253   0.118  -0.179
    1UNL     H7   30  -0.100   0.041  -0.191
    1UNL     H8   31  -0.289  -0.121  -0.249
    1UNL     H9   32  -0.348  -0.087  -0.082
    1UNL    H10   33  -0.092  -0.246  -0.152
    1UNL    H11   34  -0.245  -0.306  -0.075
    1UNL    H12   35  -0.105  -0.404   0.103
    1UNL    H13   36  -0.088  -0.291   0.227
    1UNL    H14   37   0.139  -0.367   0.164
    1UNL    H15   38   0.089  -0.376  -0.016
    1UNL    H16   39   0.341   0.180  -0.116
    1UNL    H17   40   0.567   0.082  -0.133
    1UNL    H18   41   0.618  -0.153  -0.043
    1UNL    H19   42   0.418  -0.282   0.039
    1UNL    H20   43   0.089   0.221  -0.111
    1UNL    H21   44   0.166   0.469   0.109
    1UNL    H22   45   0.183   0.415  -0.070
    1UNL    H23   46   0.035   0.436   0.008
    1UNL    H24   47  -0.076   0.232   0.138
    1UNL    H25   48  -0.125   0.272  -0.029
    1UNL    H26   49  -0.074  -0.037   0.184
   0.00000   0.00000   0.00000   0.00000   0.00000   0.00000   0.00000   0.00000   0.00000
Generated with MDTraj, t= 81.0
 49
    1UNL     C1    1  -0.380   0.205   0.078
    1UNL     C2    2  -0.302   0.077   0.104
    1UNL     C3    3  -0.164   0.058   0.034
    1UNL     C4    4  -0.185   0.031  -0.120
    1UNL     C5    5  -0.228  -0.111  -0.162
    1UNL     C6    6  -0.129  -0.207  -0.104
    1UNL     N1    7  -0.135  -0.206   0.048
    1UNL     C7    8  -0.057  -0.324   0.112
    1UNL     C8    9   0.099  -0.310   0.094
    1UNL     C9   10   0.139  -0.174   0.052
    1UNL    C10   11   0.057  -0.068   0.050
    1UNL     N2   12   0.122   0.048   0.007
    1UNL    C11   13   0.253   0.007  -0.011
    1UNL    C12   14   0.368   0.080  -0.060
    1UNL    C13   15   0.485   0.003  -0.085
    1UNL    C14   16   0.487  -0.136  -0.073
    1UNL    C15   17   0.376  -0.205  -0.027
    1UNL    C16   18   0.265  -0.128   0.011
    1UNL    C17   19   0.066   0.181  -0.008
    1UNL     O1   20   0.156   0.297   0.025
    1UNL    C18   21   0.102   0.424   0.003
    1UNL    C19   22  -0.077   0.188   0.052
    1UNL    C20   23  -0.082  -0.067   0.097
    1UNL     H1   24  -0.373   0.248  -0.022
    1UNL     H2   25  -0.345   0.289   0.146
    1UNL     H3   26  -0.484   0.186   0.091
    1UNL     H4   27  -0.369  -0.000   0.065
    1UNL     H5   28  -0.297   0.062   0.208
    1UNL     H6   29  -0.258   0.107  -0.156
    1UNL     H7   30  -0.097   0.061  -0.183
    1UNL     H8   31  -0.233  -0.113  -0.277
    1UNL     H9   32  -0.321  -0.133  -0.121
    1UNL    H10   33  -0.023  -0.173  -0.131
    1UNL    H11   34  -0.144  -0.303  -0.146
    1UNL    H12   35  -0.104  -0.412   0.064
    1UNL    H13   36  -0.086  -0.338   0.213
    1UNL    H14   37   0.146  -0.315   0.194
    1UNL    H15   38   0.148  -0.396   0.029
    1UNL    H16   39   0.357   0.190  -0.067
    1UNL    H17   40   0.573   0.050  -0.121
    1UNL    H18   41   0.566  -0.196  -0.105
    1UNL    H19   42   0.386  -0.313  -0.009
    1UNL    H20   43   0.054   0.204  -0.115
    1UNL    H21   44   0.168   0.492  -0.052
    1UNL    H22   45  -0.000   0.410  -0.044
    1UNL    H23   46   0.086   0.485   0.090
    1UNL    H24   47  -0.078   0.220   0.160
    1UNL    H25   48  -0.141   0.259  -0.004
    1UNL    H26   49  -0.078  -0.060   0.204
   0.00000   0.00000   0.00000   0.00000   0.00000   0.00000   0.00000   0.00000   0.00000
Generated with MDTraj, t= 82.0
 49
    1UNL     C1    1  -0.372   0.203   0.090
    1UNL     C2    2  -0.303   0.064   0.093
    1UNL     C3    3  -0.163   0.056   0.028
    1UNL     C4    4  -0.159   0.044  -0.129
    1UNL     C5    5  -0.224  -0.092  -0.166
    1UNL     C6    6  -0.153  -0.212  -0.096
    1UNL     N1    7  -0.144  -0.208   0.045
    1UNL     C7    8  -0.063  -0.314   0.111
    1UNL     C8    9   0.089  -0.315   0.075
    1UNL     C9   10   0.138  -0.175   0.060
    1UNL    C10   11   0.060  -0.063   0.063
    1UNL     N2   12   0.139   0.051   0.046
    1UNL    C11   13   0.264   0.004   0.002
    1UNL    C12   14   0.368   0.075  -0.065
    1UNL    C13   15   0.478   0.012  -0.109
    1UNL    C14   16   0.492  -0.128  -0.077
    1UNL    C15   17   0.391  -0.200  -0.017
    1UNL    C16   18   0.276  -0.141   0.025
    1UNL    C17   19   0.073   0.182   0.004
    1UNL     O1   20   0.134   0.303   0.039
    1UNL    C18   21   0.089   0.411  -0.044
    1UNL    C19   22  -0.073   0.186   0.064
    1UNL    C20   23  -0.090  -0.073   0.086
    1UNL     H1   24  -0.369   0.253  -0.007
    1UNL     H2   25  -0.321   0.278   0.161
    1UNL     H3   26  -0.476   0.199   0.109
    1UNL     H4   27  -0.378  -0.005   0.050
    1UNL     H5   28  -0.297   0.033   0.194
    1UNL     H6   29  -0.210   0.134  -0.176
    1UNL     H7   30  -0.059   0.063  -0.167
    1UNL     H8   31  -0.235  -0.109  -0.277
    1UNL     H9   32  -0.327  -0.082  -0.139
    1UNL    H10   33  -0.050  -0.227  -0.138
    1UNL    H11   34  -0.206  -0.302  -0.114
    1UNL    H12   35  -0.108  -0.409   0.078
    1UNL    H13   36  -0.087  -0.305   0.215
    1UNL    H14   37   0.146  -0.373   0.152
    1UNL    H15   38   0.103  -0.360  -0.027
    1UNL    H16   39   0.359   0.179  -0.078
    1UNL    H17   40   0.547   0.057  -0.180
    1UNL    H18   41   0.580  -0.179  -0.123
    1UNL    H19   42   0.407  -0.303  -0.002
    1UNL    H20   43   0.067   0.185  -0.106
    1UNL    H21   44   0.178   0.449  -0.097
    1UNL    H22   45  -0.005   0.381  -0.102
    1UNL    H23   46   0.066   0.493   0.020
    1UNL    H24   47  -0.055   0.178   0.176
    1UNL    H25   48  -0.113   0.282   0.041
    1UNL    H26   49  -0.104  -0.074   0.191
   0.00000   0.00000   0.00000   0.00000   0.00000   0.00000   0.00000   0.00000   0.00000
Generated with MDTraj, t= 83.0
 49
    1UNL     C1    1  -0.404   0.177   0.059
    1UNL     C2    2  -0.290   0.081   0.115
    1UNL     C3    3  -0.162   0.058   0.030
    1UNL     C4    4  -0.194   0.033  -0.120
    1UNL     C5    5  -0.255  -0.103  -0.143
    1UNL     C6    6  -0.153  -0.207  -0.106
    1UNL     N1    7  -0.139  -0.212   0.046
    1UNL     C7    8  -0.060  -0.318   0.108
    1UNL     C8    9   0.092  -0.317   0.073
    1UNL     C9   10   0.142  -0.177   0.055
    1UNL    C10   11   0.062  -0.067   0.073
    1UNL     N2   12   0.125   0.049   0.025
    1UNL    C11   13   0.253   0.014  -0.010
    1UNL    C12   14   0.373   0.091  -0.053
    1UNL    C13   15   0.485   0.027  -0.081
    1UNL    C14   16   0.489  -0.111  -0.070
    1UNL    C15   17   0.387  -0.193  -0.033
    1UNL    C16   18   0.266  -0.125   0.003
    1UNL    C17   19   0.063   0.182  -0.010
    1UNL     O1   20   0.154   0.280   0.044
    1UNL    C18   21   0.167   0.399  -0.034
    1UNL    C19   22  -0.076   0.186   0.056
    1UNL    C20   23  -0.089  -0.070   0.095
    1UNL     H1   24  -0.465   0.130  -0.018
    1UNL     H2   25  -0.370   0.276   0.014
    1UNL     H3   26  -0.478   0.195   0.135
    1UNL     H4   27  -0.330  -0.018   0.142
    1UNL     H5   28  -0.266   0.121   0.208
    1UNL     H6   29  -0.261   0.120  -0.152
    1UNL     H7   30  -0.109   0.057  -0.180
    1UNL     H8   31  -0.296  -0.104  -0.245
    1UNL     H9   32  -0.347  -0.114  -0.086
    1UNL    H10   33  -0.054  -0.183  -0.148
    1UNL    H11   34  -0.176  -0.303  -0.146
    1UNL    H12   35  -0.106  -0.417   0.090
    1UNL    H13   36  -0.072  -0.294   0.212
    1UNL    H14   37   0.152  -0.357   0.161
    1UNL    H15   38   0.107  -0.368  -0.020
    1UNL    H16   39   0.356   0.198  -0.058
    1UNL    H17   40   0.572   0.083  -0.125
    1UNL    H18   41   0.583  -0.157  -0.087
    1UNL    H19   42   0.385  -0.302  -0.050
    1UNL    H20   43   0.060   0.177  -0.122
    1UNL    H21   44   0.267   0.438  -0.008
    1UNL    H22   45   0.149   0.369  -0.142
    1UNL    H23   46   0.094   0.469  -0.001
    1UNL    H24   47  -0.050   0.201   0.167
    1UNL    H25   48  -0.131   0.269   0.020
    1UNL    H26   49  -0.106  -0.065   0.199
   0.00000   0.00000   0.00000   0.00000   0.00000   0.00000   0.00000   0.00000   0.00000
Generated with MDTraj, t= 84.0
 49
    1UNL     C1    1  -0.408   0.147   0.064
    1UNL     C2    2  -0.293   0.054   0.113
    1UNL     C3    3  -0.163   0.056   0.027
    1UNL     C4    4  -0.184   0.026  -0.125
    1UNL     C5    5  -0.267  -0.103  -0.138
    1UNL     C6    6  -0.194  -0.219  -0.077
    1UNL     N1    7  -0.142  -0.192   0.062
    1UNL     C7    8  -0.055  -0.298   0.127
    1UNL     C8    9   0.084  -0.307   0.058
    1UNL     C9   10   0.138  -0.170   0.036
    1UNL    C10   11   0.062  -0.053   0.038
    1UNL     N2   12   0.135   0.059  -0.008
    1UNL    C11   13   0.263   0.018  -0.038
    1UNL    C12   14   0.383   0.086  -0.061
    1UNL    C13   15   0.496   0.014  -0.066
    1UNL    C14   16   0.499  -0.124  -0.049
    1UNL    C15   17   0.382  -0.191  -0.025
    1UNL    C16   18   0.263  -0.124  -0.014
    1UNL    C17   19   0.067   0.189  -0.018
    1UNL     O1   20   0.151   0.282   0.054
    1UNL    C18   21   0.175   0.410  -0.005
    1UNL    C19   22  -0.077   0.180   0.050
    1UNL    C20   23  -0.076  -0.057   0.088
    1UNL     H1   24  -0.425   0.131  -0.043
    1UNL     H2   25  -0.393   0.255   0.079
    1UNL     H3   26  -0.499   0.111   0.113
    1UNL     H4   27  -0.329  -0.049   0.129
    1UNL     H5   28  -0.264   0.084   0.209
    1UNL     H6   29  -0.224   0.119  -0.178
    1UNL     H7   30  -0.091   0.013  -0.173
    1UNL     H8   31  -0.307  -0.118  -0.237
    1UNL     H9   32  -0.362  -0.081  -0.085
    1UNL    H10   33  -0.116  -0.253  -0.142
    1UNL    H11   34  -0.266  -0.300  -0.068
    1UNL    H12   35  -0.117  -0.389   0.121
    1UNL    H13   36  -0.038  -0.274   0.230
    1UNL    H14   37   0.162  -0.358   0.122
    1UNL    H15   38   0.073  -0.348  -0.036
    1UNL    H16   39   0.387   0.197  -0.078
    1UNL    H17   40   0.588   0.059  -0.052
    1UNL    H18   41   0.594  -0.175  -0.032
    1UNL    H19   42   0.389  -0.293   0.001
    1UNL    H20   43   0.060   0.207  -0.130
    1UNL    H21   44   0.167   0.483   0.075
    1UNL    H22   45   0.282   0.416  -0.040
    1UNL    H23   46   0.099   0.431  -0.078
    1UNL    H24   47  -0.056   0.169   0.162
    1UNL    H25   48  -0.138   0.266   0.040
    1UNL    H26   49  -0.073  -0.050   0.193
   0.00000   0.00000   0.00000   0.00000   0.00000   0.00000   0.00000   0.00000   0.00000
Generated with MDTraj, t= 85.0
 49
    1UNL     C1    1  -0.375   0.197   0.060
    1UNL     C2    2  -0.284   0.090   0.110
    1UNL     C3    3  -0.158   0.058   0.028
    1UNL     C4    4  -0.190   0.024  -0.123
    1UNL     C5    5  -0.260  -0.121  -0.142
    1UNL     C6    6  -0.170  -0.225  -0.079
    1UNL     N1    7  -0.150  -0.194   0.062
    1UNL     C7    8  -0.054  -0.296   0.131
    1UNL     C8    9   0.087  -0.310   0.063
    1UNL     C9   10   0.136  -0.175   0.025
    1UNL    C10   11   0.058  -0.064   0.037
    1UNL     N2   12   0.126   0.047  -0.006
    1UNL    C11   13   0.257   0.006  -0.030
    1UNL    C12   14   0.371   0.086  -0.063
    1UNL    C13   15   0.495   0.019  -0.073
    1UNL    C14   16   0.506  -0.118  -0.058
    1UNL    C15   17   0.398  -0.198  -0.026
    1UNL    C16   18   0.270  -0.134  -0.016
    1UNL    C17   19   0.074   0.180  -0.018
    1UNL     O1   20   0.140   0.272   0.065
    1UNL    C18   21   0.113   0.402   0.022
    1UNL    C19   22  -0.068   0.187   0.033
    1UNL    C20   23  -0.085  -0.062   0.089
    1UNL     H1   24  -0.433   0.158  -0.026
    1UNL     H2   25  -0.324   0.284   0.025
    1UNL     H3   26  -0.448   0.221   0.141
    1UNL     H4   27  -0.337  -0.005   0.127
    1UNL     H5   28  -0.243   0.117   0.203
    1UNL     H6   29  -0.258   0.100  -0.173
    1UNL     H7   30  -0.100   0.032  -0.178
    1UNL     H8   31  -0.281  -0.134  -0.244
    1UNL     H9   32  -0.358  -0.125  -0.088
    1UNL    H10   33  -0.078  -0.220  -0.128
    1UNL    H11   34  -0.218  -0.322  -0.094
    1UNL    H12   35  -0.099  -0.398   0.136
    1UNL    H13   36  -0.056  -0.261   0.233
    1UNL    H14   37   0.156  -0.350   0.144
    1UNL    H15   38   0.090  -0.370  -0.019
    1UNL    H16   39   0.377   0.184  -0.086
    1UNL    H17   40   0.591   0.076  -0.097
    1UNL    H18   41   0.605  -0.158  -0.058
    1UNL    H19   42   0.420  -0.303   0.002
    1UNL    H20   43   0.080   0.223  -0.125
    1UNL    H21   44   0.171   0.472   0.082
    1UNL    H22   45   0.165   0.426  -0.076
    1UNL    H23   46   0.010   0.423   0.032
    1UNL    H24   47  -0.061   0.209   0.144
    1UNL    H25   48  -0.124   0.267  -0.008
    1UNL    H26   49  -0.086  -0.056   0.194
   0.00000   0.00000   0.00000   0.00000   0.00000   0.00000   0.00000   0.00000   0.00000
Generated with MDTraj, t= 86.0
 49
    1UNL     C1    1  -0.376   0.206   0.065
    1UNL     C2    2  -0.294   0.083   0.108
    1UNL     C3    3  -0.166   0.057   0.017
    1UNL     C4    4  -0.185   0.018  -0.135
    1UNL     C5    5  -0.253  -0.117  -0.151
    1UNL     C6    6  -0.159  -0.222  -0.088
    1UNL     N1    7  -0.140  -0.202   0.053
    1UNL     C7    8  -0.057  -0.318   0.109
    1UNL     C8    9   0.092  -0.302   0.098
    1UNL     C9   10   0.142  -0.166   0.056
    1UNL    C10   11   0.061  -0.058   0.049
    1UNL     N2   12   0.135   0.050   0.013
    1UNL    C11   13   0.265   0.015  -0.012
    1UNL    C12   14   0.373   0.085  -0.068
    1UNL    C13   15   0.482   0.004  -0.104
    1UNL    C14   16   0.491  -0.131  -0.077
    1UNL    C15   17   0.391  -0.200  -0.018
    1UNL    C16   18   0.270  -0.127   0.011
    1UNL    C17   19   0.069   0.179  -0.016
    1UNL     O1   20   0.165   0.290   0.011
    1UNL    C18   21   0.104   0.401   0.071
    1UNL    C19   22  -0.079   0.192   0.032
    1UNL    C20   23  -0.086  -0.061   0.089
    1UNL     H1   24  -0.362   0.220  -0.043
    1UNL     H2   25  -0.343   0.296   0.106
    1UNL     H3   26  -0.487   0.192   0.082
    1UNL     H4   27  -0.348  -0.011   0.104
    1UNL     H5   28  -0.256   0.096   0.206
    1UNL     H6   29  -0.245   0.100  -0.183
    1UNL     H7   30  -0.092   0.011  -0.187
    1UNL     H8   31  -0.265  -0.140  -0.252
    1UNL     H9   32  -0.356  -0.106  -0.106
    1UNL    H10   33  -0.071  -0.219  -0.141
    1UNL    H11   34  -0.216  -0.315  -0.099
    1UNL    H12   35  -0.100  -0.406   0.055
    1UNL    H13   36  -0.084  -0.340   0.212
    1UNL    H14   37   0.144  -0.324   0.196
    1UNL    H15   38   0.124  -0.375   0.030
    1UNL    H16   39   0.371   0.197  -0.094
    1UNL    H17   40   0.544   0.042  -0.179
    1UNL    H18   41   0.575  -0.188  -0.117
    1UNL    H19   42   0.398  -0.302   0.007
    1UNL    H20   43   0.061   0.182  -0.133
    1UNL    H21   44   0.153   0.495   0.039
    1UNL    H22   45   0.007   0.427   0.023
    1UNL    H23   46   0.094   0.383   0.175
    1UNL    H24   47  -0.083   0.231   0.135
    1UNL    H25   48  -0.127   0.268  -0.028
    1UNL    H26   49  -0.085  -0.038   0.193
   0.00000   0.00000   0.00000   0.00000   0.00000   0.00000   0.00000   0.00000   0.00000
Generated with MDTraj, t= 87.0
 49
    1UNL     C1    1  -0.399   0.182   0.051
    1UNL     C2    2  -0.299   0.070   0.097
    1UNL     C3    3  -0.163   0.066   0.026
    1UNL     C4    4  -0.173   0.037  -0.124
    1UNL     C5    5  -0.224  -0.106  -0.161
    1UNL     C6    6  -0.131  -0.212  -0.087
    1UNL     N1    7  -0.137  -0.188   0.056
    1UNL     C7    8  -0.069  -0.307   0.122
    1UNL     C8    9   0.087  -0.302   0.095
    1UNL     C9   10   0.144  -0.167   0.058
    1UNL    C10   11   0.059  -0.052   0.060
    1UNL     N2   12   0.131   0.055   0.022
    1UNL    C11   13   0.257   0.012  -0.030
    1UNL    C12   14   0.366   0.065  -0.099
    1UNL    C13   15   0.480  -0.005  -0.122
    1UNL    C14   16   0.493  -0.140  -0.075
    1UNL    C15   17   0.390  -0.194  -0.007
    1UNL    C16   18   0.273  -0.122   0.016
    1UNL    C17   19   0.059   0.178  -0.021
    1UNL     O1   20   0.137   0.297  -0.012
    1UNL    C18   21   0.122   0.377   0.098
    1UNL    C19   22  -0.077   0.196   0.045
    1UNL    C20   23  -0.084  -0.056   0.098
    1UNL     H1   24  -0.422   0.171  -0.054
    1UNL     H2   25  -0.360   0.280   0.060
    1UNL     H3   26  -0.497   0.175   0.106
    1UNL     H4   27  -0.347  -0.025   0.075
    1UNL     H5   28  -0.278   0.077   0.202
    1UNL     H6   29  -0.240   0.114  -0.168
    1UNL     H7   30  -0.075   0.056  -0.169
    1UNL     H8   31  -0.236  -0.112  -0.264
    1UNL     H9   32  -0.330  -0.119  -0.125
    1UNL    H10   33  -0.034  -0.197  -0.114
    1UNL    H11   34  -0.166  -0.314  -0.112
    1UNL    H12   35  -0.111  -0.407   0.094
    1UNL    H13   36  -0.105  -0.293   0.224
    1UNL    H14   37   0.130  -0.342   0.189
    1UNL    H15   38   0.115  -0.373   0.017
    1UNL    H16   39   0.362   0.167  -0.129
    1UNL    H17   40   0.568   0.038  -0.177
    1UNL    H18   41   0.579  -0.194  -0.110
    1UNL    H19   42   0.398  -0.298   0.027
    1UNL    H20   43   0.056   0.151  -0.136
    1UNL    H21   44   0.199   0.455   0.080
    1UNL    H22   45   0.028   0.436   0.096
    1UNL    H23   46   0.123   0.316   0.185
    1UNL    H24   47  -0.062   0.212   0.152
    1UNL    H25   48  -0.123   0.284   0.002
    1UNL    H26   49  -0.088  -0.039   0.203
   0.00000   0.00000   0.00000   0.00000   0.00000   0.00000   0.00000   0.00000   0.00000
Generated with MDTraj, t= 88.0
 49
    1UNL     C1    1  -0.400   0.173   0.017
    1UNL     C2    2  -0.302   0.075   0.087
    1UNL     C3    3  -0.169   0.061   0.015
    1UNL     C4    4  -0.188   0.016  -0.137
    1UNL     C5    5  -0.247  -0.119  -0.144
    1UNL     C6    6  -0.156  -0.221  -0.080
    1UNL     N1    7  -0.138  -0.192   0.063
    1UNL     C7    8  -0.062  -0.292   0.143
    1UNL     C8    9   0.089  -0.291   0.115
    1UNL     C9   10   0.145  -0.154   0.067
    1UNL    C10   11   0.064  -0.046   0.066
    1UNL     N2   12   0.134   0.067   0.012
    1UNL    C11   13   0.259   0.024  -0.018
    1UNL    C12   14   0.368   0.091  -0.078
    1UNL    C13   15   0.479   0.018  -0.120
    1UNL    C14   16   0.492  -0.120  -0.090
    1UNL    C15   17   0.386  -0.188  -0.033
    1UNL    C16   18   0.265  -0.109   0.011
    1UNL    C17   19   0.061   0.187  -0.038
    1UNL     O1   20   0.138   0.304   0.001
    1UNL    C18   21   0.192   0.277   0.131
    1UNL    C19   22  -0.088   0.194   0.018
    1UNL    C20   23  -0.084  -0.051   0.090
    1UNL     H1   24  -0.471   0.123  -0.044
    1UNL     H2   25  -0.354   0.238  -0.057
    1UNL     H3   26  -0.460   0.238   0.085
    1UNL     H4   27  -0.350  -0.020   0.101
    1UNL     H5   28  -0.279   0.113   0.185
    1UNL     H6   29  -0.244   0.091  -0.194
    1UNL     H7   30  -0.084   0.015  -0.181
    1UNL     H8   31  -0.282  -0.141  -0.240
    1UNL     H9   32  -0.347  -0.109  -0.088
    1UNL    H10   33  -0.067  -0.216  -0.133
    1UNL    H11   34  -0.195  -0.322  -0.091
    1UNL    H12   35  -0.110  -0.387   0.109
    1UNL    H13   36  -0.079  -0.287   0.252
    1UNL    H14   37   0.145  -0.322   0.202
    1UNL    H15   38   0.103  -0.371   0.034
    1UNL    H16   39   0.364   0.198  -0.090
    1UNL    H17   40   0.560   0.072  -0.158
    1UNL    H18   41   0.590  -0.168  -0.092
    1UNL    H19   42   0.381  -0.294  -0.024
    1UNL    H20   43   0.058   0.177  -0.156
    1UNL    H21   44   0.280   0.344   0.139
    1UNL    H22   45   0.122   0.304   0.212
    1UNL    H23   46   0.199   0.172   0.143
    1UNL    H24   47  -0.095   0.233   0.115
    1UNL    H25   48  -0.138   0.268  -0.045
    1UNL    H26   49  -0.102  -0.038   0.195
   0.00000   0.00000   0.00000   0.00000   0.00000   0.00000   0.00000   0.00000   0.00000
Generated with MDTraj, t= 89.0
 49
    1UNL     C1    1  -0.398   0.167  -0.010
    1UNL     C2    2  -0.303   0.080   0.071
    1UNL     C3    3  -0.159   0.069   0.017
    1UNL     C4    4  -0.174   0.008  -0.127
    1UNL     C5    5  -0.250  -0.131  -0.131
    1UNL     C6    6  -0.181  -0.235  -0.048
    1UNL     N1    7  -0.145  -0.181   0.087
    1UNL     C7    8  -0.049  -0.272   0.168
    1UNL     C8    9   0.090  -0.284   0.094
    1UNL     C9   10   0.130  -0.158   0.029
    1UNL    C10   11   0.058  -0.044   0.042
    1UNL     N2   12   0.121   0.057  -0.024
    1UNL    C11   13   0.248   0.019  -0.065
    1UNL    C12   14   0.354   0.089  -0.116
    1UNL    C13   15   0.483   0.037  -0.114
    1UNL    C14   16   0.496  -0.097  -0.055
    1UNL    C15   17   0.384  -0.179  -0.017
    1UNL    C16   18   0.260  -0.121  -0.023
    1UNL    C17   19   0.075   0.195  -0.024
    1UNL     O1   20   0.161   0.289   0.038
    1UNL    C18   21   0.180   0.250   0.168
    1UNL    C19   22  -0.075   0.199   0.022
    1UNL    C20   23  -0.080  -0.044   0.093
    1UNL     H1   24  -0.377   0.158  -0.114
    1UNL     H2   25  -0.368   0.274   0.003
    1UNL     H3   26  -0.505   0.153   0.006
    1UNL     H4   27  -0.341  -0.019   0.087
    1UNL     H5   28  -0.305   0.124   0.170
    1UNL     H6   29  -0.216   0.084  -0.190
    1UNL     H7   30  -0.068  -0.008  -0.170
    1UNL     H8   31  -0.266  -0.160  -0.232
    1UNL     H9   32  -0.360  -0.118  -0.106
    1UNL    H10   33  -0.092  -0.272  -0.091
    1UNL    H11   34  -0.242  -0.326  -0.044
    1UNL    H12   35  -0.087  -0.376   0.182
    1UNL    H13   36  -0.038  -0.229   0.270
    1UNL    H14   37   0.164  -0.317   0.166
    1UNL    H15   38   0.082  -0.371   0.014
    1UNL    H16   39   0.345   0.187  -0.172
    1UNL    H17   40   0.574   0.090  -0.150
    1UNL    H18   41   0.595  -0.131  -0.031
    1UNL    H19   42   0.397  -0.283   0.006
    1UNL    H20   43   0.073   0.223  -0.139
    1UNL    H21   44   0.273   0.302   0.201
    1UNL    H22   45   0.098   0.271   0.239
    1UNL    H23   46   0.185   0.142   0.163
    1UNL    H24   47  -0.067   0.232   0.119
    1UNL    H25   48  -0.132   0.281  -0.025
    1UNL    H26   49  -0.087  -0.023   0.199
   0.00000   0.00000   0.00000   0.00000   0.00000   0.00000   0.00000   0.00000   0.00000
Generated with MDTraj, t= 90.0
 49
    1UNL     C1    1  -0.403   0.180   0.021
    1UNL     C2    2  -0.295   0.098   0.085
    1UNL     C3    3  -0.165   0.072   0.003
    1UNL     C4    4  -0.196   0.011  -0.136
    1UNL     C5    5  -0.252  -0.140  -0.140
    1UNL     C6    6  -0.161  -0.232  -0.057
    1UNL     N1    7  -0.134  -0.180   0.076
    1UNL     C7    8  -0.046  -0.258   0.167
    1UNL     C8    9   0.097  -0.267   0.122
    1UNL     C9   10   0.142  -0.149   0.045
    1UNL    C10   11   0.058  -0.043   0.029
    1UNL     N2   12   0.131   0.061  -0.022
    1UNL    C11   13   0.258   0.018  -0.051
    1UNL    C12   14   0.366   0.090  -0.108
    1UNL    C13   15   0.489   0.019  -0.120
    1UNL    C14   16   0.494  -0.114  -0.083
    1UNL    C15   17   0.390  -0.177  -0.020
    1UNL    C16   18   0.269  -0.110  -0.008
    1UNL    C17   19   0.071   0.195  -0.033
    1UNL     O1   20   0.147   0.274   0.057
    1UNL    C18   21   0.145   0.210   0.180
    1UNL    C19   22  -0.088   0.204  -0.014
    1UNL    C20   23  -0.081  -0.042   0.077
    1UNL     H1   24  -0.449   0.124  -0.058
    1UNL     H2   25  -0.349   0.260  -0.038
    1UNL     H3   26  -0.477   0.216   0.089
    1UNL     H4   27  -0.338   0.008   0.120
    1UNL     H5   28  -0.270   0.146   0.180
    1UNL     H6   29  -0.262   0.074  -0.192
    1UNL     H7   30  -0.097   0.014  -0.196
    1UNL     H8   31  -0.257  -0.168  -0.242
    1UNL     H9   32  -0.361  -0.144  -0.116
    1UNL    H10   33  -0.067  -0.246  -0.107
    1UNL    H11   34  -0.193  -0.337  -0.048
    1UNL    H12   35  -0.091  -0.360   0.176
    1UNL    H13   36  -0.048  -0.216   0.269
    1UNL    H14   37   0.159  -0.274   0.209
    1UNL    H15   38   0.112  -0.367   0.059
    1UNL    H16   39   0.340   0.180  -0.148
    1UNL    H17   40   0.569   0.076  -0.162
    1UNL    H18   41   0.579  -0.180  -0.099
    1UNL    H19   42   0.394  -0.276   0.029
    1UNL    H20   43   0.103   0.230  -0.141
    1UNL    H21   44   0.180   0.280   0.258
    1UNL    H22   45   0.051   0.166   0.216
    1UNL    H23   46   0.210   0.122   0.176
    1UNL    H24   47  -0.113   0.276   0.057
    1UNL    H25   48  -0.132   0.258  -0.102
    1UNL    H26   49  -0.080  -0.005   0.181
   0.00000   0.00000   0.00000   0.00000   0.00000   0.00000   0.00000   0.00000   0.00000
Generated with MDTraj, t= 91.0
 49
    1UNL     C1    1  -0.388   0.197   0.023
    1UNL     C2    2  -0.288   0.097   0.086
    1UNL     C3    3  -0.162   0.061  -0.002
    1UNL     C4    4  -0.195   0.004  -0.140
    1UNL     C5    5  -0.259  -0.130  -0.136
    1UNL     C6    6  -0.163  -0.222  -0.065
    1UNL     N1    7  -0.125  -0.184   0.072
    1UNL     C7    8  -0.037  -0.282   0.150
    1UNL     C8    9   0.111  -0.274   0.124
    1UNL     C9   10   0.146  -0.145   0.056
    1UNL    C10   11   0.064  -0.033   0.054
    1UNL     N2   12   0.123   0.070  -0.014
    1UNL    C11   13   0.258   0.025  -0.044
    1UNL    C12   14   0.370   0.075  -0.109
    1UNL    C13   15   0.481   0.003  -0.136
    1UNL    C14   16   0.499  -0.125  -0.078
    1UNL    C15   17   0.389  -0.183  -0.022
    1UNL    C16   18   0.269  -0.113  -0.009
    1UNL    C17   19   0.064   0.204  -0.036
    1UNL     O1   20   0.110   0.292   0.066
    1UNL    C18   21   0.142   0.226   0.183
    1UNL    C19   22  -0.090   0.192  -0.030
    1UNL    C20   23  -0.080  -0.043   0.083
    1UNL     H1   24  -0.417   0.166  -0.078
    1UNL     H2   25  -0.334   0.290  -0.008
    1UNL     H3   26  -0.477   0.217   0.074
    1UNL     H4   27  -0.336   0.006   0.106
    1UNL     H5   28  -0.251   0.122   0.186
    1UNL     H6   29  -0.250   0.077  -0.198
    1UNL     H7   30  -0.099  -0.016  -0.200
    1UNL     H8   31  -0.284  -0.164  -0.235
    1UNL     H9   32  -0.355  -0.123  -0.082
    1UNL    H10   33  -0.069  -0.238  -0.116
    1UNL    H11   34  -0.209  -0.320  -0.067
    1UNL    H12   35  -0.082  -0.383   0.142
    1UNL    H13   36  -0.050  -0.258   0.258
    1UNL    H14   37   0.172  -0.284   0.213
    1UNL    H15   38   0.148  -0.357   0.053
    1UNL    H16   39   0.362   0.182  -0.140
    1UNL    H17   40   0.553   0.029  -0.211
    1UNL    H18   41   0.591  -0.178  -0.080
    1UNL    H19   42   0.393  -0.275   0.031
    1UNL    H20   43   0.114   0.250  -0.134
    1UNL    H21   44   0.172   0.302   0.254
    1UNL    H22   45   0.063   0.168   0.233
    1UNL    H23   46   0.223   0.155   0.170
    1UNL    H24   47  -0.129   0.269   0.031
    1UNL    H25   48  -0.117   0.233  -0.130
    1UNL    H26   49  -0.091  -0.008   0.188
   0.00000   0.00000   0.00000   0.00000   0.00000   0.00000   0.00000   0.00000   0.00000
Generated with MDTraj, t= 92.0
 49
    1UNL     C1    1  -0.394   0.183   0.002
    1UNL     C2    2  -0.305   0.077   0.069
    1UNL     C3    3  -0.163   0.059   0.006
    1UNL     C4    4  -0.180   0.018  -0.140
    1UNL     C5    5  -0.240  -0.121  -0.140
    1UNL     C6    6  -0.166  -0.221  -0.049
    1UNL     N1    7  -0.141  -0.178   0.086
    1UNL     C7    8  -0.048  -0.266   0.165
    1UNL     C8    9   0.094  -0.298   0.104
    1UNL     C9   10   0.137  -0.168   0.038
    1UNL    C10   11   0.058  -0.057   0.045
    1UNL     N2   12   0.129   0.053  -0.005
    1UNL    C11   13   0.250   0.016  -0.052
    1UNL    C12   14   0.353   0.091  -0.108
    1UNL    C13   15   0.470   0.026  -0.128
    1UNL    C14   16   0.494  -0.107  -0.086
    1UNL    C15   17   0.397  -0.175  -0.025
    1UNL    C16   18   0.268  -0.116  -0.011
    1UNL    C17   19   0.069   0.180  -0.028
    1UNL     O1   20   0.145   0.277   0.046
    1UNL    C18   21   0.159   0.272   0.188
    1UNL    C19   22  -0.080   0.195   0.004
    1UNL    C20   23  -0.082  -0.045   0.085
    1UNL     H1   24  -0.382   0.177  -0.109
    1UNL     H2   25  -0.340   0.278   0.019
    1UNL     H3   26  -0.494   0.185   0.034
    1UNL     H4   27  -0.353  -0.015   0.069
    1UNL     H5   28  -0.293   0.109   0.174
    1UNL     H6   29  -0.232   0.082  -0.213
    1UNL     H7   30  -0.071   0.014  -0.173
    1UNL     H8   31  -0.248  -0.161  -0.241
    1UNL     H9   32  -0.338  -0.114  -0.096
    1UNL    H10   33  -0.070  -0.229  -0.100
    1UNL    H11   34  -0.205  -0.321  -0.050
    1UNL    H12   35  -0.093  -0.361   0.197
    1UNL    H13   36  -0.042  -0.209   0.262
    1UNL    H14   37   0.172  -0.320   0.179
    1UNL    H15   38   0.099  -0.381   0.031
    1UNL    H16   39   0.346   0.198  -0.113
    1UNL    H17   40   0.558   0.077  -0.175
    1UNL    H18   41   0.594  -0.147  -0.104
    1UNL    H19   42   0.412  -0.274   0.016
    1UNL    H20   43   0.094   0.202  -0.142
    1UNL    H21   44   0.184   0.372   0.218
    1UNL    H22   45   0.067   0.243   0.238
    1UNL    H23   46   0.239   0.211   0.232
    1UNL    H24   47  -0.092   0.253   0.097
    1UNL    H25   48  -0.130   0.267  -0.063
    1UNL    H26   49  -0.092  -0.005   0.190
   0.00000   0.00000   0.00000   0.00000   0.00000   0.00000   0.00000   0.00000   0.00000
Generated with MDTraj, t= 93.0
 49
    1UNL     C1    1  -0.405   0.152  -0.003
    1UNL     C2    2  -0.312   0.073   0.075
    1UNL     C3    3  -0.169   0.062   0.013
    1UNL     C4    4  -0.178   0.023  -0.132
    1UNL     C5    5  -0.237  -0.115  -0.154
    1UNL     C6    6  -0.154  -0.216  -0.066
    1UNL     N1    7  -0.131  -0.191   0.080
    1UNL     C7    8  -0.046  -0.291   0.152
    1UNL     C8    9   0.104  -0.283   0.107
    1UNL     C9   10   0.137  -0.147   0.055
    1UNL    C10   11   0.058  -0.038   0.052
    1UNL     N2   12   0.122   0.067  -0.004
    1UNL    C11   13   0.251   0.030  -0.035
    1UNL    C12   14   0.371   0.090  -0.079
    1UNL    C13   15   0.474   0.009  -0.114
    1UNL    C14   16   0.474  -0.129  -0.093
    1UNL    C15   17   0.372  -0.192  -0.031
    1UNL    C16   18   0.262  -0.105   0.001
    1UNL    C17   19   0.054   0.195  -0.019
    1UNL     O1   20   0.139   0.297   0.024
    1UNL    C18   21   0.211   0.265   0.143
    1UNL    C19   22  -0.097   0.200   0.024
    1UNL    C20   23  -0.084  -0.045   0.095
    1UNL     H1   24  -0.443   0.097  -0.094
    1UNL     H2   25  -0.349   0.231  -0.052
    1UNL     H3   26  -0.488   0.189   0.052
    1UNL     H4   27  -0.350  -0.025   0.074
    1UNL     H5   28  -0.303   0.107   0.179
    1UNL     H6   29  -0.224   0.111  -0.180
    1UNL     H7   30  -0.077   0.015  -0.179
    1UNL     H8   31  -0.224  -0.149  -0.258
    1UNL     H9   32  -0.338  -0.122  -0.123
    1UNL    H10   33  -0.054  -0.212  -0.111
    1UNL    H11   34  -0.188  -0.313  -0.091
    1UNL    H12   35  -0.093  -0.388   0.134
    1UNL    H13   36  -0.041  -0.280   0.263
    1UNL    H14   37   0.170  -0.296   0.197
    1UNL    H15   38   0.135  -0.356   0.040
    1UNL    H16   39   0.388   0.193  -0.096
    1UNL    H17   40   0.562   0.054  -0.143
    1UNL    H18   41   0.560  -0.189  -0.116
    1UNL    H19   42   0.365  -0.299  -0.015
    1UNL    H20   43   0.040   0.211  -0.134
    1UNL    H21   44   0.289   0.339   0.153
    1UNL    H22   45   0.133   0.271   0.220
    1UNL    H23   46   0.261   0.166   0.147
    1UNL    H24   47  -0.106   0.243   0.128
    1UNL    H25   48  -0.148   0.277  -0.034
    1UNL    H26   49  -0.091  -0.024   0.206
   0.00000   0.00000   0.00000   0.00000   0.00000   0.00000   0.00000   0.00000   0.00000
Generated with MDTraj, t= 94.0
 49
    1UNL     C1    1  -0.398   0.145   0.014
    1UNL     C2    2  -0.296   0.074   0.096
    1UNL     C3    3  -0.152   0.067   0.023
    1UNL     C4    4  -0.168   0.039  -0.128
    1UNL     C5    5  -0.227  -0.100  -0.159
    1UNL     C6    6  -0.150  -0.211  -0.082
    1UNL     N1    7  -0.143  -0.190   0.063
    1UNL     C7    8  -0.062  -0.300   0.130
    1UNL     C8    9   0.090  -0.296   0.105
    1UNL     C9   10   0.135  -0.160   0.069
    1UNL    C10   11   0.053  -0.051   0.070
    1UNL     N2   12   0.120   0.052   0.007
    1UNL    C11   13   0.250   0.015  -0.029
    1UNL    C12   14   0.345   0.073  -0.107
    1UNL    C13   15   0.460   0.006  -0.136
    1UNL    C14   16   0.490  -0.113  -0.077
    1UNL    C15   17   0.390  -0.181  -0.007
    1UNL    C16   18   0.265  -0.123   0.014
    1UNL    C17   19   0.067   0.190  -0.026
    1UNL     O1   20   0.153   0.302   0.001
    1UNL    C18   21   0.171   0.317   0.142
    1UNL    C19   22  -0.076   0.201   0.029
    1UNL    C20   23  -0.089  -0.056   0.096
    1UNL     H1   24  -0.425   0.091  -0.079
    1UNL     H2   25  -0.356   0.232  -0.031
    1UNL     H3   26  -0.492   0.167   0.067
    1UNL     H4   27  -0.325  -0.025   0.120
    1UNL     H5   28  -0.288   0.123   0.194
    1UNL     H6   29  -0.230   0.111  -0.187
    1UNL     H7   30  -0.067   0.052  -0.169
    1UNL     H8   31  -0.209  -0.116  -0.268
    1UNL     H9   32  -0.329  -0.116  -0.141
    1UNL    H10   33  -0.052  -0.237  -0.128
    1UNL    H11   34  -0.203  -0.301  -0.091
    1UNL    H12   35  -0.087  -0.403   0.105
    1UNL    H13   36  -0.084  -0.288   0.238
    1UNL    H14   37   0.152  -0.340   0.190
    1UNL    H15   38   0.104  -0.354   0.023
    1UNL    H16   39   0.321   0.165  -0.168
    1UNL    H17   40   0.536   0.047  -0.208
    1UNL    H18   41   0.591  -0.150  -0.080
    1UNL    H19   42   0.410  -0.280   0.030
    1UNL    H20   43   0.055   0.185  -0.141
    1UNL    H21   44   0.211   0.416   0.155
    1UNL    H22   45   0.070   0.297   0.178
    1UNL    H23   46   0.247   0.239   0.171
    1UNL    H24   47  -0.085   0.242   0.136
    1UNL    H25   48  -0.128   0.277  -0.028
    1UNL    H26   49  -0.104  -0.035   0.207
   0.00000   0.00000   0.00000   0.00000   0.00000   0.00000   0.00000   0.00000   0.00000
Generated with MDTraj, t= 95.0
 49
    1UNL     C1    1  -0.390   0.198   0.023
    1UNL     C2    2  -0.312   0.075   0.083
    1UNL     C3    3  -0.175   0.057   0.020
    1UNL     C4    4  -0.204   0.019  -0.129
    1UNL     C5    5  -0.247  -0.127  -0.149
    1UNL     C6    6  -0.152  -0.226  -0.088
    1UNL     N1    7  -0.128  -0.195   0.055
    1UNL     C7    8  -0.056  -0.293   0.140
    1UNL     C8    9   0.096  -0.288   0.112
    1UNL     C9   10   0.147  -0.155   0.061
    1UNL    C10   11   0.063  -0.049   0.050
    1UNL     N2   12   0.133   0.069   0.019
    1UNL    C11   13   0.262   0.021  -0.017
    1UNL    C12   14   0.371   0.087  -0.083
    1UNL    C13   15   0.486   0.009  -0.106
    1UNL    C14   16   0.484  -0.128  -0.089
    1UNL    C15   17   0.385  -0.191  -0.028
    1UNL    C16   18   0.274  -0.111   0.009
    1UNL    C17   19   0.058   0.189  -0.028
    1UNL     O1   20   0.124   0.312   0.007
    1UNL    C18   21   0.186   0.301   0.132
    1UNL    C19   22  -0.087   0.185   0.028
    1UNL    C20   23  -0.082  -0.058   0.077
    1UNL     H1   24  -0.386   0.208  -0.086
    1UNL     H2   25  -0.350   0.292   0.051
    1UNL     H3   26  -0.496   0.180   0.053
    1UNL     H4   27  -0.368  -0.016   0.081
    1UNL     H5   28  -0.298   0.098   0.189
    1UNL     H6   29  -0.286   0.088  -0.166
    1UNL     H7   30  -0.122   0.035  -0.199
    1UNL     H8   31  -0.256  -0.155  -0.257
    1UNL     H9   32  -0.343  -0.137  -0.109
    1UNL    H10   33  -0.052  -0.236  -0.137
    1UNL    H11   34  -0.184  -0.324  -0.099
    1UNL    H12   35  -0.102  -0.387   0.115
    1UNL    H13   36  -0.068  -0.283   0.250
    1UNL    H14   37   0.145  -0.316   0.211
    1UNL    H15   38   0.124  -0.363   0.048
    1UNL    H16   39   0.358   0.180  -0.124
    1UNL    H17   40   0.566   0.056  -0.153
    1UNL    H18   41   0.570  -0.187  -0.124
    1UNL    H19   42   0.392  -0.295   0.002
    1UNL    H20   43   0.065   0.185  -0.142
    1UNL    H21   44   0.286   0.269   0.108
    1UNL    H22   45   0.166   0.396   0.183
    1UNL    H23   46   0.134   0.213   0.185
    1UNL    H24   47  -0.077   0.225   0.136
    1UNL    H25   48  -0.151   0.258  -0.021
    1UNL    H26   49  -0.084  -0.044   0.191
   0.00000   0.00000   0.00000   0.00000   0.00000   0.00000   0.00000   0.00000   0.00000
Generated with MDTraj, t= 96.0
 49
    1UNL     C1    1  -0.369   0.214   0.060
    1UNL     C2    2  -0.306   0.072   0.079
    1UNL     C3    3  -0.168   0.060   0.013
    1UNL     C4    4  -0.185   0.005  -0.135
    1UNL     C5    5  -0.246  -0.136  -0.151
    1UNL     C6    6  -0.167  -0.235  -0.067
    1UNL     N1    7  -0.137  -0.189   0.071
    1UNL     C7    8  -0.054  -0.282   0.150
    1UNL     C8    9   0.089  -0.302   0.089
    1UNL     C9   10   0.141  -0.162   0.042
    1UNL    C10   11   0.058  -0.048   0.047
    1UNL     N2   12   0.120   0.056  -0.011
    1UNL    C11   13   0.254   0.024  -0.038
    1UNL    C12   14   0.358   0.094  -0.088
    1UNL    C13   15   0.479   0.040  -0.090
    1UNL    C14   16   0.498  -0.099  -0.052
    1UNL    C15   17   0.389  -0.176  -0.023
    1UNL    C16   18   0.264  -0.117  -0.006
    1UNL    C17   19   0.059   0.182  -0.044
    1UNL     O1   20   0.148   0.285   0.004
    1UNL    C18   21   0.168   0.271   0.142
    1UNL    C19   22  -0.084   0.199   0.006
    1UNL    C20   23  -0.082  -0.050   0.086
    1UNL     H1   24  -0.431   0.225  -0.027
    1UNL     H2   25  -0.308   0.298   0.049
    1UNL     H3   26  -0.443   0.227   0.145
    1UNL     H4   27  -0.370  -0.010   0.047
    1UNL     H5   28  -0.298   0.047   0.184
    1UNL     H6   29  -0.248   0.069  -0.207
    1UNL     H7   30  -0.087   0.010  -0.178
    1UNL     H8   31  -0.234  -0.160  -0.261
    1UNL     H9   32  -0.350  -0.143  -0.136
    1UNL    H10   33  -0.069  -0.260  -0.116
    1UNL    H11   34  -0.204  -0.331  -0.062
    1UNL    H12   35  -0.105  -0.376   0.166
    1UNL    H13   36  -0.049  -0.248   0.255
    1UNL    H14   37   0.164  -0.339   0.161
    1UNL    H15   38   0.086  -0.380   0.017
    1UNL    H16   39   0.342   0.197  -0.124
    1UNL    H17   40   0.569   0.088  -0.132
    1UNL    H18   41   0.592  -0.142  -0.058
    1UNL    H19   42   0.410  -0.277   0.006
    1UNL    H20   43   0.064   0.200  -0.156
    1UNL    H21   44   0.109   0.186   0.174
    1UNL    H22   45   0.273   0.269   0.170
    1UNL    H23   46   0.120   0.364   0.191
    1UNL    H24   47  -0.071   0.225   0.116
    1UNL    H25   48  -0.134   0.286  -0.036
    1UNL    H26   49  -0.089  -0.032   0.199
   0.00000   0.00000   0.00000   0.00000   0.00000   0.00000   0.00000   0.00000   0.00000
Generated with MDTraj, t= 97.0
 49
    1UNL     C1    1  -0.392   0.176   0.041
    1UNL     C2    2  -0.291   0.077   0.101
    1UNL     C3    3  -0.169   0.061   0.006
    1UNL     C4    4  -0.207   0.013  -0.132
    1UNL     C5    5  -0.281  -0.121  -0.124
    1UNL     C6    6  -0.180  -0.230  -0.075
    1UNL     N1    7  -0.138  -0.191   0.059
    1UNL     C7    8  -0.050  -0.291   0.129
    1UNL     C8    9   0.102  -0.274   0.105
    1UNL     C9   10   0.140  -0.148   0.044
    1UNL    C10   11   0.061  -0.039   0.038
    1UNL     N2   12   0.127   0.061  -0.024
    1UNL    C11   13   0.255   0.016  -0.054
    1UNL    C12   14   0.368   0.087  -0.109
    1UNL    C13   15   0.491   0.022  -0.099
    1UNL    C14   16   0.507  -0.099  -0.030
    1UNL    C15   17   0.401  -0.179   0.005
    1UNL    C16   18   0.268  -0.114  -0.004
    1UNL    C17   19   0.063   0.190  -0.045
    1UNL     O1   20   0.148   0.294   0.019
    1UNL    C18   21   0.182   0.249   0.148
    1UNL    C19   22  -0.085   0.198   0.003
    1UNL    C20   23  -0.084  -0.050   0.074
    1UNL     H1   24  -0.377   0.204  -0.059
    1UNL     H2   25  -0.396   0.268   0.092
    1UNL     H3   26  -0.493   0.125   0.048
    1UNL     H4   27  -0.340  -0.018   0.129
    1UNL     H5   28  -0.253   0.107   0.198
    1UNL     H6   29  -0.268   0.095  -0.187
    1UNL     H7   30  -0.123   0.003  -0.198
    1UNL     H8   31  -0.323  -0.155  -0.223
    1UNL     H9   32  -0.366  -0.117  -0.059
    1UNL    H10   33  -0.090  -0.241  -0.141
    1UNL    H11   34  -0.218  -0.326  -0.077
    1UNL    H12   35  -0.083  -0.393   0.122
    1UNL    H13   36  -0.064  -0.277   0.237
    1UNL    H14   37   0.151  -0.292   0.200
    1UNL    H15   38   0.145  -0.353   0.041
    1UNL    H16   39   0.350   0.190  -0.134
    1UNL    H17   40   0.572   0.073  -0.149
    1UNL    H18   41   0.617  -0.123  -0.011
    1UNL    H19   42   0.409  -0.279   0.048
    1UNL    H20   43   0.053   0.212  -0.153
    1UNL    H21   44   0.091   0.220   0.199
    1UNL    H22   45   0.259   0.174   0.154
    1UNL    H23   46   0.217   0.337   0.211
    1UNL    H24   47  -0.096   0.252   0.098
    1UNL    H25   48  -0.129   0.264  -0.074
    1UNL    H26   49  -0.091  -0.031   0.187
   0.00000   0.00000   0.00000   0.00000   0.00000   0.00000   0.00000   0.00000   0.00000
Generated with MDTraj, t= 98.0
 49
    1UNL     C1    1  -0.410   0.158   0.033
    1UNL     C2    2  -0.294   0.084   0.097
    1UNL     C3    3  -0.170   0.058   0.011
    1UNL     C4    4  -0.198   0.018  -0.135
    1UNL     C5    5  -0.254  -0.122  -0.149
    1UNL     C6    6  -0.155  -0.214  -0.075
    1UNL     N1    7  -0.142  -0.181   0.068
    1UNL     C7    8  -0.056  -0.272   0.152
    1UNL     C8    9   0.087  -0.290   0.101
    1UNL     C9   10   0.138  -0.165   0.042
    1UNL    C10   11   0.057  -0.054   0.035
    1UNL     N2   12   0.126   0.060  -0.011
    1UNL    C11   13   0.256   0.021  -0.050
    1UNL    C12   14   0.369   0.089  -0.096
    1UNL    C13   15   0.491   0.026  -0.108
    1UNL    C14   16   0.504  -0.109  -0.062
    1UNL    C15   17   0.393  -0.170  -0.003
    1UNL    C16   18   0.268  -0.114   0.005
    1UNL    C17   19   0.063   0.191  -0.035
    1UNL     O1   20   0.148   0.288   0.016
    1UNL    C18   21   0.181   0.252   0.140
    1UNL    C19   22  -0.085   0.196   0.015
    1UNL    C20   23  -0.086  -0.048   0.085
    1UNL     H1   24  -0.484   0.090   0.004
    1UNL     H2   25  -0.372   0.214  -0.050
    1UNL     H3   26  -0.448   0.225   0.114
    1UNL     H4   27  -0.334  -0.014   0.131
    1UNL     H5   28  -0.269   0.132   0.190
    1UNL     H6   29  -0.273   0.092  -0.182
    1UNL     H7   30  -0.111   0.028  -0.196
    1UNL     H8   31  -0.255  -0.148  -0.258
    1UNL     H9   32  -0.352  -0.141  -0.108
    1UNL    H10   33  -0.058  -0.210  -0.130
    1UNL    H11   34  -0.192  -0.311  -0.081
    1UNL    H12   35  -0.104  -0.364   0.175
    1UNL    H13   36  -0.047  -0.231   0.253
    1UNL    H14   37   0.160  -0.311   0.176
    1UNL    H15   38   0.090  -0.377   0.030
    1UNL    H16   39   0.361   0.191  -0.121
    1UNL    H17   40   0.571   0.092  -0.140
    1UNL    H18   41   0.595  -0.155  -0.068
    1UNL    H19   42   0.408  -0.270   0.029
    1UNL    H20   43   0.050   0.194  -0.141
    1UNL    H21   44   0.094   0.229   0.200
    1UNL    H22   45   0.257   0.178   0.158
    1UNL    H23   46   0.222   0.345   0.189
    1UNL    H24   47  -0.089   0.242   0.111
    1UNL    H25   48  -0.142   0.263  -0.053
    1UNL    H26   49  -0.086  -0.015   0.194
   0.00000   0.00000   0.00000   0.00000   0.00000   0.00000   0.00000   0.00000   0.00000
Generated with MDTraj, t= 99.0
 49
    1UNL     C1    1  -0.388   0.191   0.000
    1UNL     C2    2  -0.310   0.075   0.065
    1UNL     C3    3  -0.164   0.056   0.015
    1UNL     C4    4  -0.160   0.018  -0.130
    1UNL     C5    5  -0.220  -0.125  -0.151
    1UNL     C6    6  -0.167  -0.239  -0.057
    1UNL     N1    7  -0.134  -0.194   0.081
    1UNL     C7    8  -0.048  -0.297   0.152
    1UNL     C8    9   0.100  -0.289   0.102
    1UNL     C9   10   0.136  -0.156   0.049
    1UNL    C10   11   0.058  -0.047   0.057
    1UNL     N2   12   0.127   0.068   0.014
    1UNL    C11   13   0.258   0.020  -0.033
    1UNL    C12   14   0.366   0.091  -0.086
    1UNL    C13   15   0.474   0.014  -0.127
    1UNL    C14   16   0.485  -0.123  -0.089
    1UNL    C15   17   0.373  -0.186  -0.038
    1UNL    C16   18   0.256  -0.115  -0.017
    1UNL    C17   19   0.055   0.190  -0.027
    1UNL     O1   20   0.127   0.307   0.024
    1UNL    C18   21   0.174   0.304   0.157
    1UNL    C19   22  -0.086   0.192   0.028
    1UNL    C20   23  -0.086  -0.052   0.094
    1UNL     H1   24  -0.466   0.230   0.057
    1UNL     H2   25  -0.428   0.165  -0.099
    1UNL     H3   26  -0.324   0.276  -0.022
    1UNL     H4   27  -0.360  -0.026   0.056
    1UNL     H5   28  -0.303   0.077   0.171
    1UNL     H6   29  -0.215   0.096  -0.192
    1UNL     H7   30  -0.058   0.015  -0.167
    1UNL     H8   31  -0.204  -0.163  -0.255
    1UNL     H9   32  -0.329  -0.119  -0.139
    1UNL    H10   33  -0.075  -0.279  -0.103
    1UNL    H11   34  -0.236  -0.319  -0.059
    1UNL    H12   35  -0.082  -0.398   0.143
    1UNL    H13   36  -0.055  -0.278   0.260
    1UNL    H14   37   0.162  -0.316   0.180
    1UNL    H15   38   0.129  -0.360   0.016
    1UNL    H16   39   0.341   0.198  -0.115
    1UNL    H17   40   0.557   0.057  -0.184
    1UNL    H18   41   0.583  -0.178  -0.086
    1UNL    H19   42   0.375  -0.287   0.004
    1UNL    H20   43   0.061   0.189  -0.132
    1UNL    H21   44   0.097   0.289   0.231
    1UNL    H22   45   0.248   0.228   0.177
    1UNL    H23   46   0.227   0.396   0.182
    1UNL    H24   47  -0.075   0.213   0.130
    1UNL    H25   48  -0.137   0.279  -0.021
    1UNL    H26   49  -0.097  -0.032   0.205
   0.00000   0.00000   0.00000   0.00000   0.00000   0.00000   0.00000   0.00000   0.00000
