[ moleculetype ]
; name        nrexcl
res           1

[ atoms ]
;    nr  type  resnr resid  atom  cgnr     charge       mass
      1 TC5       1 res   C1        1      0.000     36.000
      2 TN6a      1 res   C2        2      0.000     36.000
      3 TC5       1 res   C3        3      0.000     36.000
      4 TN6a      1 res   C4        4      0.000     36.000

[ constraints ]
;  ai    aj   funct      b0(nm)
    1     2     1      0.26499
    2     3     1      0.26544
    1     4     1      0.26498
    3     4     1      0.26518

[ bonds ]
;  ai    aj   funct      b0(nm)          k(kJ/mol/nm^2)

[ angles ]
;  ai    aj    ak  funct     th0(deg)        k(kJ/mol/rad^2)
    1     2     3     1     80.00904          3240.51
    1     4     3     1     80.06200          3088.30
    2     1     4     1     99.97956          2676.32
    2     3     4     1     99.81158          2722.20

[ dihedrals ]
;  ai    aj    ak    al  funct   phi0(deg)        k(kJ/mol)   mult
    1     2     3     4     1    179.06831        5.568      1
    1     4     3     2     1   -179.06887        5.569      1
    2     1     4     3     1    179.07086        5.566      1
    3     2     1     4     1   -179.07189        5.565      1
