1TPCN06086
33
    1res  C1    1   -0.199  -0.387   0.119
    1res  C2    2   -0.199  -0.262  -0.151
    1res  C3    3    0.007  -0.226   0.020
    1res  C4    4   -0.104   0.044  -0.163
    1res  C5    5   -0.400   0.158  -0.267
    1res  C6    6   -0.572  -0.050  -0.248
    1res  C7    7   -0.813  -0.162  -0.266
    1res  C8    8   -1.034  -0.133  -0.482
    1res  C9    9   -1.079  -0.197  -0.196
    1res  C10   10   -0.953  -0.332  -0.034
    1res  C11   11   -0.806  -0.132  -0.014
    1res  C12   12   -0.623   0.279  -0.191
    1res  C13   13   -0.479   0.260   0.001
    1res  C14   14   -0.608   0.285   0.236
    1res  C15   15   -0.558   0.162   0.503
    1res  C16   16   -0.844   0.315   0.426
    1res  C17   17   -0.898   0.420   0.217
    1res  C18   18   -0.771   0.359   0.057
    1res  C19   19   -0.306   0.149  -0.001
    1res  C20   20    0.169  -0.107  -0.288
    1res  C21   21    0.277  -0.257  -0.047
    1res  C22   22    0.228   0.067   0.170
    1res  C23   23    0.481  -0.026  -0.096
    1res  C24   24    0.517   0.215   0.188
    1res  C25   25    0.708   0.245  -0.018
    1res  C26   26    0.885   0.137   0.119
    1res  C27   27    1.154   0.020   0.098
    1res  C28   28    1.316  -0.041  -0.059
    1res  C29   29    1.173  -0.190  -0.168
    1res  C30   30    1.022   0.003  -0.193
    1res  C31   31    0.828   0.015   0.332
    1res  C32   32    0.699   0.270   0.415
    1res  C33   33    0.565  -0.153   0.143
  10.00000  10.00000  10.00000
