[ moleculetype ]
; name        nrexcl
res           1

[ atoms ]
;    nr  type  resnr resid  atom  cgnr     charge       mass
      1 TN4a      1 res   C1        1      0.000     36.000
      2 TN6a      1 res   C2        2      0.000     36.000
      3 TN6a      1 res   C3        3      0.000     36.000
      4 TN6a      1 res   C4        4      0.000     36.000
      5 P4        1 res   C5        5      0.000     72.000

[ constraints ]
;  ai    aj   funct      b0(nm)
    1     2     1      0.26627
    2     3     1      0.21879
    1     5     1      0.24047
    1     4     1      0.22996
    3     4     1      0.21943

[ bonds ]
;  ai    aj   funct      b0(nm)          k(kJ/mol/nm^2)

[ angles ]
;  ai    aj    ak  funct     th0(deg)        k(kJ/mol/rad^2)
    1     2     3     1     76.99677          2771.67
    1     4     3     1     85.18627          2292.95
    2     1     4     1     89.55305          2556.70
    2     1     5     1    132.66969           669.93
    2     3     4     1    106.21670          1932.78
    4     1     5     1     77.84058          1372.58

[ dihedrals ]
;  ai    aj    ak    al  funct   phi0(deg)        k(kJ/mol)   mult
    1     2     3     4     1    173.87438       12.257      1
    1     4     3     2     1   -172.88521       12.998      1
    2     1     4     3     1    173.91988       10.810      1
    3     2     1     4     1   -173.91366       10.809      1
    3     2     1     5     1   -101.21034       10.048      1
    3     4     1     5     1     38.96457       12.985      1
