[ moleculetype ]
; name        nrexcl
res           1

[ atoms ]
;    nr  type  resnr resid  atom  cgnr     charge       mass
      1 SX4e      1 res   C1        1      0.000     54.000
      2 SX3       1 res   C2        2      0.000     54.000
      3 TC5       1 res   C3        3      0.000     36.000
      4 TC5       1 res   C4        4      0.000     36.000

[ constraints ]
;  ai    aj   funct      b0(nm)
    1     2     1      0.24173
    3     4     1      0.28742
    2     3     1      0.31853
    2     4     1      0.26822

[ bonds ]
;  ai    aj   funct      b0(nm)          k(kJ/mol/nm^2)

[ angles ]
;  ai    aj    ak  funct     th0(deg)        k(kJ/mol/rad^2)
    1     2     3     1     79.39216          1616.91
    1     2     4     1    136.96451          1426.37
    2     3     4     1     52.24106          5687.19
    2     4     3     1     69.86408          4965.37
    3     2     4     1     57.89486         11534.30

[ dihedrals ]
;  ai    aj    ak    al  funct   phi0(deg)        k(kJ/mol)   mult
    1     2     3     4     1     -0.93010        8.617      1
    1     2     4     3     1    179.95507       12.286      1
