[ moleculetype ]
; name        nrexcl
res           1

[ atoms ]
;    nr  type  resnr resid  atom  cgnr     charge       mass
      1 SX2       1 res   C1        1      0.000     54.000
      2 SN6       1 res   C2        2      0.000     54.000
      3 TC5       1 res   C3        3      0.000     36.000

[ constraints ]
;  ai    aj   funct      b0(nm)
    1     2     1      0.33919
    1     3     1      0.30900
    2     3     1      0.30938

[ bonds ]
;  ai    aj   funct      b0(nm)          k(kJ/mol/nm^2)

[ angles ]
;  ai    aj    ak  funct     th0(deg)        k(kJ/mol/rad^2)
    1     2     3     1     56.67690          8920.53
    1     3     2     1     66.53804          4871.87
    2     1     3     1     56.78508          7162.97

[ dihedrals ]
;  ai    aj    ak    al  funct   phi0(deg)        k(kJ/mol)   mult
