1TPCN05280
37
    1res  C1    1    0.086  -0.520   0.199
    1res  C2    2    0.198  -0.261   0.231
    1res  C3    3    0.191  -0.138   0.089
    1res  C4    4    0.306  -0.159  -0.121
    1res  C5    5    0.539  -0.214  -0.077
    1res  C6    6    0.693  -0.021   0.095
    1res  C7    7    0.919  -0.012  -0.094
    1res  C8    8    1.162  -0.182  -0.206
    1res  C9    9    1.154   0.121  -0.145
    1res  C10   10    1.360   0.113  -0.049
    1res  C11   11    1.306   0.257   0.209
    1res  C12   12    1.488   0.426   0.122
    1res  C13   13    1.404   0.454  -0.098
    1res  C14   14    1.441   0.254  -0.182
    1res  C15   15    1.014   0.272  -0.214
    1res  C16   16    0.841   0.249  -0.046
    1res  C17   17    0.778  -0.328   0.083
    1res  C18   18    0.742  -0.387  -0.146
    1res  C19   19    0.518  -0.448  -0.078
    1res  C20   20    0.056   0.056  -0.070
    1res  C21   21   -0.107  -0.170  -0.122
    1res  C22   22   -0.251  -0.283   0.102
    1res  C23   23   -0.329  -0.028  -0.159
    1res  C24   24   -0.554  -0.075   0.107
    1res  C25   25   -0.714   0.008  -0.088
    1res  C26   26   -0.922   0.090   0.156
    1res  C27   27   -0.941  -0.066   0.369
    1res  C28   28   -1.027  -0.270   0.249
    1res  C29   29   -1.164  -0.159   0.128
    1res  C30   30   -1.111   0.040   0.076
    1res  C31   31   -1.193   0.196  -0.118
    1res  C32   32   -1.013   0.368  -0.263
    1res  C33   33   -1.307   0.451  -0.194
    1res  C34   34   -1.481   0.304  -0.128
    1res  C35   35   -1.437   0.202   0.054
    1res  C36   36   -0.639   0.233   0.180
    1res  C37   37   -0.296   0.125   0.109
  10.00000  10.00000  10.00000
