1TPCN05090
18
    1res  C1    1    0.741  -0.277  -0.089
    1res  C2    2    0.950  -0.164  -0.000
    1res  C3    3    1.115   0.005   0.103
    1res  C4    4    0.878   0.075   0.177
    1res  C5    5    0.634   0.040   0.154
    1res  C6    6    0.331  -0.059   0.136
    1res  C7    7    0.183   0.129   0.096
    1res  C8    8    0.072   0.280  -0.137
    1res  C9    9   -0.059   0.052  -0.121
    1res  C10   10   -0.138  -0.151   0.038
    1res  C11   11   -0.322   0.078  -0.075
    1res  C12   12   -0.296   0.210   0.158
    1res  C13   13   -0.538  -0.062   0.207
    1res  C14   14   -0.602  -0.049  -0.014
    1res  C15   15   -0.757  -0.245   0.046
    1res  C16   16   -0.841  -0.180  -0.202
    1res  C17   17   -0.658   0.151   0.144
    1res  C18   18    0.435   0.075  -0.156
  10.00000  10.00000  10.00000
