[ moleculetype ]
; name        nrexcl
res           1

[ atoms ]
;    nr  type  resnr resid  atom  cgnr     charge       mass
      1 TC3       1 res   C1        1      0.000     36.000
      2 TC3       1 res   C2        2      0.000     36.000
      3 TN1       1 res   C3        3      0.000     36.000
      4 TC4       1 res   C4        4      0.000     36.000
      5 SC4       1 res   C5        5      0.000     54.000
      6 TN6d      1 res   C6        6      0.000     36.000
      7 TC5       1 res   C7        7      0.000     36.000
      8 TC5       1 res   C8        8      0.000     36.000
      9 TC5       1 res   C9        9      0.000     36.000
     10 SN4a      1 res   C10      10      0.000     54.000
     11 TC3       1 res   C11      11      0.000     36.000
     12 N4a       1 res   C12      12      0.000     72.000

[ constraints ]
;  ai    aj   funct      b0(nm)
    1     2     1      0.29199
   10    11     1      0.28586
    2     3     1      0.29678
   11    12     1      0.34301
    4     5     1      0.23404
    5    10     1      0.31511
    7     9     1      0.25006
    5     7     1      0.25749
    4    11     1      0.25765
    3     4     1      0.24481
    7     8     1      0.25018
    5     6     1      0.35458
    6     7     1      0.21798
    2    11     1      0.25712
    8     9     1      0.29136

[ bonds ]
;  ai    aj   funct      b0(nm)          k(kJ/mol/nm^2)

[ angles ]
;  ai    aj    ak  funct     th0(deg)        k(kJ/mol/rad^2)
    1     2     3     1    170.16461           343.71
    1     2    11     1     73.88800           594.11
    2     3     4     1     69.90043          1915.11
    2    11     4     1     74.94040          1765.39
    2    11    10     1     77.78432           757.41
    2    11    12     1    153.92138           415.08
    3     2    11     1     98.88301          1183.42
    3     4     5     1     86.24813           433.57
    3     4    11     1    114.05748          1123.48
    4     5     6     1    126.29431           537.76
    4     5     7     1    133.41725           118.25
    4     5    10     1     92.90799           547.76
    4    11    10     1     95.19780          1164.14
    4    11    12     1     79.85481           407.92
    5     4    11     1     92.43186          1259.04
    5     6     7     1     46.21914          5048.46
    5     7     6     1     96.10843          2548.43
    5     7     8     1    166.16834          1158.33
    5     7     9     1     95.66715          1200.82
    5    10    11     1     72.28097          2532.18
    6     5     7     1     37.67240          8877.99
    6     5    10     1     61.07604          1648.06
    6     7     8     1     96.83247          1528.47
    6     7     9     1    167.05230          1090.40
    7     5    10     1     98.36702          1188.96
    7     8     9     1     54.35675          7571.67
    7     9     8     1     54.39386          9339.24
    8     7     9     1     71.24938          5201.49
   10    11    12     1    109.72035           618.50

[ dihedrals ]
;  ai    aj    ak    al  funct   phi0(deg)        k(kJ/mol)   mult
    1     2     3     4     1   -172.02867       26.500      1
    1     2    11     4     1    -10.97770       14.401      1
    1     2    11    10     1     88.01100       15.073      1
    1     2    11    12     1    -24.16836       16.406      1
    2     3     4     5     1     79.14318       11.501      1
    2     3     4    11     1    170.93416       11.521      1
    2    11     4     3     1   -169.94099       12.270      1
    2    11     4     5     1    -80.91394        8.571      1
    2    11    10     5     1     89.99227        7.858      1
    3     2    11     4     1    171.97598       10.754      1
    3     2    11    10     1    -87.25801       11.483      1
    3     2    11    12     1    158.86440       17.122      1
    3     4     5     6     1   -141.11882       10.073      1
    3     4     5     7     1    170.97766        8.614      1
    3     4     5    10     1    -85.97794        9.371      1
    3     4    11    10     1    115.58494       15.028      1
    3     4    11    12     1      6.17525       15.070      1
    4     3     2    11     1   -171.94913       10.763      1
    4     5     6     7     1     62.06096       19.162      1
    4     5     7     6     1    -86.35702       15.046      1
    4     5     7     8     1     88.48077       26.067      1
    4     5     7     9     1     95.83649       16.435      1
    4     5    10    11     1   -161.95870        9.308      1
    4    11    10     5     1    163.04787        8.569      1
    5     4    11    10     1   -157.05577       11.510      1
    5     4    11    12     1     93.01411       12.924      1
    5     6     7     8     1      2.93056        8.577      1
    5     6     7     9     1      0.53651       27.757      1
    5     7     8     9     1   -172.62435       23.868      1
    5     7     9     8     1      3.88348        7.817      1
    5    10    11    12     1   -114.08656       13.633      1
    6     5     4    11     1    105.92950        9.315      1
    6     5     7     8     1     -5.56852       25.697      1
    6     5     7     9     1     -0.63624       10.031      1
    6     5    10    11     1    -29.98625       15.116      1
    6     7     5    10     1    172.16702       10.762      1
    6     7     8     9     1      0.98803       11.422      1
    6     7     9     8     1    179.65320       26.793      1
    7     5     4    11     1     56.96552        7.108      1
    7     5    10    11     1    -25.02490       17.158      1
    7     6     5    10     1     -8.04206       10.827      1
    8     7     5    10     1     -9.62358       24.796      1
    9     7     5    10     1     -3.90208       13.615      1
   10     5     4    11     1    160.03253        9.343      1
