[ moleculetype ]
; name        nrexcl
res           1

[ atoms ]
;    nr  type  resnr resid  atom  cgnr     charge       mass
      1 C4        1 res   C1        1      0.000     72.000
      2 SN1       1 res   C2        2      0.000     54.000
      3 SC4       1 res   C3        3      0.000     54.000
      4 TC5       1 res   C4        4      0.000     36.000
      5 TC5       1 res   C5        5      0.000     36.000
      6 TN6d      1 res   C6        6      0.000     36.000
      7 TN6       1 res   C7        7      0.000     36.000
      8 SC3       1 res   C8        8      0.000     54.000
      9 TP1       1 res   C9        9      0.000     36.000
     10 SN4a      1 res   C10      10      0.000     54.000

[ constraints ]
;  ai    aj   funct      b0(nm)
    1     8     1      0.29263
    3     5     1      0.31137
    2     3     1      0.28950
    4     5     1      0.28965
    3     8     1      0.37463
    2     6     1      0.27930
    3     4     1      0.27124
    7     8     1      0.25579
    2     7     1      0.37427
    3     6     1      0.22338
    8     9     1      0.36680

[ bonds ]
;  ai    aj   funct      b0(nm)          k(kJ/mol/nm^2)
    1     2     1      0.39386          14148.6
    8    10     1      0.26456          14232.0

[ angles ]
;  ai    aj    ak  funct     th0(deg)        k(kJ/mol/rad^2)
    1     2     3     1     98.90253          2216.86
    1     2     6     1    117.46659           730.41
    1     2     7     1     79.00296          1144.81
    1     8     3     1    102.85788           379.37
    1     8     7     1    126.00068           598.75
    1     8     9     1     66.97062           682.22
    1     8    10     1    128.05685           394.69
    2     1     8     1     69.94036          2711.96
    2     3     4     1    148.48212           259.30
    2     3     5     1    126.66966          1047.48
    2     3     6     1     64.50792          1099.20
    2     3     8     1     73.30533          2312.67
    2     6     3     1     69.30444          1602.94
    2     7     8     1     76.81429          2417.10
    3     2     6     1     46.18791          4377.17
    3     2     7     1     51.68922          1032.02
    3     4     5     1     67.34641          6639.20
    3     5     4     1     53.50301          9109.15
    3     8     7     1     52.62036          1386.38
    3     8     9     1     66.40489          1206.08
    3     8    10     1     59.03853          1387.87
    4     3     5     1     59.15055          5067.06
    4     3     6     1    136.49286          1520.34
    4     3     8     1    121.86716           393.52
    5     3     6     1     78.40155          2020.23
    5     3     8     1    143.70915           522.37
    6     2     7     1     38.81250          1465.24
    6     3     8     1     87.51913          1075.96
    7     8     9     1    118.53728           707.55
    7     8    10     1     83.27093           322.43
    9     8    10     1     61.50800          1671.35

[ dihedrals ]
;  ai    aj    ak    al  funct   phi0(deg)        k(kJ/mol)   mult
    1     2     3     4     1    -81.11088       10.036      1
    1     2     3     5     1     10.80979       11.529      1
    1     2     3     6     1     60.03899        9.308      1
    1     2     3     8     1    155.95207        7.835      1
    1     2     6     3     1   -105.01310        8.532      1
    1     2     7     8     1   -163.98301        7.839      1
    1     8     3     2     1   -145.06037        8.597      1
    1     8     3     4     1     66.12377       15.027      1
    1     8     3     5     1    -14.11475        9.294      1
    1     8     3     6     1    -81.00354       10.084      1
    1     8     7     2     1    152.96436       12.944      1
    2     1     8     3     1    155.00268        7.043      1
    2     1     8     7     1   -153.92415       12.212      1
    2     1     8     9     1     98.01942        9.290      1
    2     1     8    10     1     95.91819        9.311      1
    2     3     4     5     1    -67.69555       12.140      1
    2     3     5     4     1     38.17656       12.204      1
    2     3     8     7     1     87.98134        9.256      1
    2     3     8     9     1    -88.94612       12.951      1
    2     3     8    10     1    -18.98876       12.970      1
    2     6     3     4     1    -29.67381       13.630      1
    2     6     3     5     1    -38.99790        8.606      1
    2     6     3     8     1    107.04745        5.480      1
    2     7     8     3     1   -130.04657        3.231      1
    2     7     8     9     1   -128.05978       12.266      1
    2     7     8    10     1    -76.09404        9.286      1
    3     2     1     8     1   -147.01764       10.075      1
    3     2     7     8     1     85.81238        7.806      1
    3     6     2     7     1    -99.02429       10.070      1
    4     3     2     6     1     38.17224       12.083      1
    4     3     2     7     1    -14.18383       10.733      1
    4     3     8     7     1    -60.05001       13.606      1
    4     3     8     9     1    124.62117       17.144      1
    4     3     8    10     1   -165.29813       18.438      1
    4     5     3     6     1     -8.80881       11.485      1
    4     5     3     8     1    -77.71757       12.244      1
    5     3     2     6     1    129.97419       10.752      1
    5     3     2     7     1     78.93877        7.112      1
    5     3     8     7     1   -141.97252       12.164      1
    5     3     8     9     1     40.81661       11.544      1
    5     3     8    10     1    111.02788       14.333      1
    5     4     3     6     1    168.10485       15.048      1
    5     4     3     8     1     42.97314        8.591      1
    6     2     1     8     1    168.03714       10.813      1
    6     2     3     8     1    -84.77399        7.040      1
    6     2     7     8     1     19.12839       12.902      1
    6     3     2     7     1    128.02853        7.775      1
    6     3     8     7     1    151.99016       10.803      1
    6     3     8     9     1    -23.25080       14.366      1
    6     3     8    10     1     46.82286       17.057      1
    7     2     1     8     1    165.92251        7.810      1
    7     2     3     8     1   -136.03170        3.238      1
