1TPCN02990
22
    1res  C1    1   -0.077   0.478  -0.007
    1res  C2    2    0.037   0.238  -0.020
    1res  C3    3   -0.043  -0.008   0.025
    1res  C4    4    0.274  -0.038  -0.047
    1res  C5    5    0.475   0.131  -0.236
    1res  C6    6    0.684   0.238  -0.341
    1res  C7    7    0.764   0.083  -0.151
    1res  C8    8    0.742  -0.097  -0.012
    1res  C9    9    0.965  -0.169   0.131
    1res  C10   10    1.035  -0.417   0.258
    1res  C11   11   -0.062   0.063  -0.286
    1res  C12   12   -0.364   0.176  -0.385
    1res  C13   13   -0.241   0.161  -0.014
    1res  C14   14   -0.354  -0.086   0.020
    1res  C15   15   -0.548   0.026   0.004
    1res  C16   16   -0.475   0.206   0.203
    1res  C17   17   -0.750   0.296   0.148
    1res  C18   18   -0.339  -0.008   0.299
    1res  C19   19   -0.545  -0.280   0.111
    1res  C20   20   -0.669  -0.462  -0.022
    1res  C21   21   -0.149   0.155   0.249
    1res  C22   22   -0.023  -0.163   0.281
  10.00000  10.00000  10.00000
