[ moleculetype ]
; name        nrexcl
res           1

[ atoms ]
;    nr  type  resnr resid  atom  cgnr     charge       mass
      1 TC5       1 res   C1        1      0.000     36.000
      2 TC5       1 res   C2        2      0.000     36.000
      3 TC5e      1 res   C3        3      0.000     36.000
      4 TC5       1 res   C4        4      0.000     36.000
      5 TC5       1 res   C5        5      0.000     36.000

[ constraints ]
;  ai    aj   funct      b0(nm)
    1     2     1      0.28975
    3     5     1      0.25178
    2     3     1      0.25173
    4     5     1      0.28946
    3     4     1      0.25175
    1     3     1      0.25178

[ bonds ]
;  ai    aj   funct      b0(nm)          k(kJ/mol/nm^2)

[ angles ]
;  ai    aj    ak  funct     th0(deg)        k(kJ/mol/rad^2)
    1     2     3     1     54.87559         16320.68
    1     3     2     1     70.26528          9116.17
    1     3     4     1    178.55614         13513.15
    1     3     5     1    109.74688          6741.24
    2     1     3     1     54.85914         15456.13
    2     3     4     1    109.79648          6442.22
    2     3     5     1    178.63846         17708.84
    3     4     5     1     54.91482         15516.58
    3     5     4     1     54.90467         17028.80
    4     3     5     1     70.18050          8958.84

[ dihedrals ]
;  ai    aj    ak    al  funct   phi0(deg)        k(kJ/mol)   mult
    1     2     3     4     1      0.00558        3.217      1
    1     2     3     5     1     97.48165        1.807      1
    1     3     4     5     1      3.11519        2.279      1
    1     3     5     4     1      0.00520        3.217      1
    2     1     3     4     1    158.76723        2.783      1
    2     1     3     5     1      0.01113        3.186      1
    2     3     4     5     1      0.01113        3.186      1
    2     3     5     4     1    114.54776        3.026      1
