[ moleculetype ]
; name        nrexcl
res           1

[ atoms ]
;    nr  type resnr resid  atom  cgnr     charge       mass
      1 SC4       1 res   C1        1      0.000     54.000
      2 TC3       1 res   C2        2      0.000     36.000
      3 SC5       1 res   C3        3      0.000     54.000
      4 SP2       1 res   C4        4      0.000     54.000
      5 SN6       1 res   C5        5      0.000     54.000
      6 SC4       1 res   C6        6      0.000     54.000
      7 TC3       1 res   C7        7      0.000     36.000
      8 SC4       1 res   C8        8      0.000     54.000
      9 SC4       1 res   C9        9      0.000     54.000
     10 TC3       1 res   C10      10      0.000     36.000
     11 TN6       1 res   C11      11      0.000     36.000
     12 SN4a      1 res   C12      12      0.000     54.000
     13 TN6       1 res   C13      13      0.000     36.000
     14 TN6       1 res   C14      14      0.000     36.000
     15 TN6       1 res   C15      15      0.000     36.000
     16 SN4a      1 res   C16      16      0.000     54.000
     17 TP1       1 res   C17      17      0.000     36.000
     18 TN6       1 res   C18      18      0.000     36.000
     19 TN6       1 res   C19      19      0.000     36.000
     20 TN6       1 res   C20      20      0.000     36.000
     21 TC4       1 res   C21      21      0.000     36.000
     22 TP1       1 res   C22      22      0.000     36.000
     23 TC3       1 res   C23      23      0.000     36.000

[ bonds ]
;  ai    aj   funct      b0(nm)        k
    1     2     1      0.29324    20000
    1     3     1      0.27602    20000
    2     3     1      0.28093    20000
    3     4     1      0.33864    20000
    3     5     1      0.37210    20000
    3     6     1      0.35669    20000
    5     6     1      0.26827    20000
    6     7     1      0.31020    20000
    6     8     1      0.34474    20000
    7     8     1      0.31782    20000
    8     9     1      0.40566    20000
    8    23     1      0.27147    20000
    9    10     1      0.27794    20000
    9    21     1      0.29899    20000
    9    23     1      0.34986    20000
   10    11     1      0.25017    20000
   11    12     1      0.31731    20000
   11    21     1      0.27386    20000
   12    13     1      0.25031    20000
   12    15     1      0.29237    20000
   13    14     1      0.21724    20000
   14    15     1      0.23407    20000
   15    16     1      0.26641    20000
   16    17     1      0.28064    20000
   16    18     1      0.30371    20000
   16    20     1      0.24637    20000
   18    19     1      0.20877    20000
   19    20     1      0.26385    20000
   21    22     1      0.28176    20000
