1TPCN04379
23
    1res  C1    1   -0.907  -0.183   0.131
    1res  C2    2   -0.920  -0.016  -0.109
    1res  C3    3   -0.683  -0.052   0.037
    1res  C4    4   -0.757   0.262  -0.064
    1res  C5    5   -0.555   0.050  -0.298
    1res  C6    6   -0.387  -0.103  -0.155
    1res  C7    7   -0.353  -0.080   0.152
    1res  C8    8   -0.273   0.185  -0.004
    1res  C9    9   -0.022  -0.133  -0.002
    1res  C10   10    0.091   0.023   0.198
    1res  C11   11    0.297   0.077   0.067
    1res  C12   12    0.411  -0.018   0.347
    1res  C13   13    0.590   0.091   0.484
    1res  C14   14    0.733  -0.004   0.350
    1res  C15   15    0.617   0.074   0.162
    1res  C16   16    0.694   0.025  -0.089
    1res  C17   17    0.656  -0.094  -0.340
    1res  C18   18    0.944  -0.127  -0.170
    1res  C19   19    0.928  -0.074   0.032
    1res  C20   20    0.872   0.179  -0.018
    1res  C21   21    0.253  -0.120  -0.118
    1res  C22   22    0.278   0.131  -0.242
    1res  C23   23   -0.095   0.142  -0.204
  10.00000  10.00000  10.00000
