[ moleculetype ]
; name        nrexcl
res           1

[ atoms ]
;    nr  type  resnr resid  atom  cgnr     charge       mass
      1 TC4       1 res   C1        1      0.000     36.000
      2 TC5       1 res   C2        2      0.000     36.000
      3 TN6       1 res   C3        3      0.000     36.000
      4 TC5       1 res   C4        4      0.000     36.000

[ constraints ]
;  ai    aj   funct      b0(nm)
    1     2     1      0.32770
    2     3     1      0.31191
    1     4     1      0.32773
    3     4     1      0.28280

[ bonds ]
;  ai    aj   funct      b0(nm)          k(kJ/mol/nm^2)

[ angles ]
;  ai    aj    ak  funct     th0(deg)        k(kJ/mol/rad^2)
    1     2     3     1    111.56305          2500.97
    1     4     3     1    119.91479          2478.10
    2     1     4     1     60.80404         13782.89
    2     3     4     1     67.59359          9372.09

[ dihedrals ]
;  ai    aj    ak    al  funct   phi0(deg)        k(kJ/mol)   mult
    1     2     3     4     1   -179.96764        6.285      1
    1     4     3     2     1    179.96481        6.300      1
    2     1     4     3     1   -179.96834        6.303      1
    3     2     1     4     1    179.96335        6.237      1
