1TPCN03350
9
    1res  C1    1    0.547  -0.034   0.016
    1res  C2    2    0.306  -0.064   0.046
    1res  C3    3    0.091  -0.007   0.016
    1res  C4    4    0.235   0.197  -0.143
    1res  C5    5   -0.132   0.141   0.059
    1res  C6    6   -0.277   0.014  -0.160
    1res  C7    7   -0.386  -0.174   0.093
    1res  C8    8   -0.435   0.079   0.194
    1res  C9    9   -0.045  -0.213   0.100
  10.00000  10.00000  10.00000
