[ moleculetype ]
; name        nrexcl
res           1

[ atoms ]
;    nr  type resnr resid  atom  cgnr     charge       mass
      1 C1        1 res   C1        1      0.000     72.000
      2 C4        1 res   C2        2      0.000     72.000
      3 C1        1 res   C3        3      0.000     72.000
      4 C1        1 res   C4        4      0.000     72.000
      5 P1        1 res   C5        5      0.000     72.000
      6 SP3       1 res   C6        6      0.000     54.000
      7 SP1       1 res   C7        7      0.000     54.000
      8 P4        1 res   C8        8      0.000     72.000
      9 TC3       1 res   C9        9      0.000     36.000
     10 C1        1 res   C10      10      0.000     72.000
     11 C1        1 res   C11      11      0.000     72.000
     12 C1        1 res   C12      12      0.000     72.000
     13 C1        1 res   C13      13      0.000     72.000

[ bonds ]
;  ai    aj   funct      b0(nm)        k
    1     2     1      0.41587    20000
    2     3     1      0.41068    20000
    3     4     1      0.44624    20000
    4     5     1      0.39988    20000
    5     6     1      0.24554    20000
    6     7     1      0.26547    20000
    7     8     1      0.36288    20000
    8     9     1      0.27211    20000
    9    10     1      0.32982    20000
   10    11     1      0.36307    20000
   11    12     1      0.42964    20000
   12    13     1      0.41545    20000
