[ moleculetype ]
; name        nrexcl
res           1

[ atoms ]
;    nr  type  resnr resid  atom  cgnr     charge       mass
      1 TC5       1 res   C1        1      0.000     36.000
      2 SN3r      1 res   C2        2      0.000     54.000
      3 SC2       1 res   C3        3      0.000     54.000
      4 SP1       1 res   C4        4      0.000     54.000
      5 SN4a      1 res   C5        5      0.000     54.000
      6 SN6       1 res   C6        6      0.000     54.000
      7 TN6       1 res   C7        7      0.000     36.000
      8 TC4       1 res   C8        8      0.000     36.000
      9 TN4a      1 res   C9        9      0.000     36.000

[ constraints ]
;  ai    aj   funct      b0(nm)
    1     2     1      0.28915
    2     3     1      0.30890
    6     9     1      0.22858
    2     9     1      0.35157
    3     4     1      0.37540
    7     8     1      0.25038
    5     6     1      0.32524
    6     7     1      0.25003
    8     9     1      0.29297

[ bonds ]
;  ai    aj   funct      b0(nm)          k(kJ/mol/nm^2)
    4     5     1      0.28215          10906.7

[ angles ]
;  ai    aj    ak  funct     th0(deg)        k(kJ/mol/rad^2)
    1     2     3     1     92.51477           206.57
    1     2     9     1     66.63076           145.33
    2     3     4     1    159.67785           331.09
    2     9     6     1    110.77806           159.15
    2     9     8     1    144.06983           142.40
    3     2     9     1     61.86947          1541.36
    3     4     5     1     56.63479           940.39
    4     5     6     1    149.46248            78.04
    5     6     7     1     67.96474           501.21
    5     6     9     1     59.58209           959.53
    6     7     8     1    108.16420           656.80
    6     9     8     1    101.25775           588.03
    7     6     9     1     78.70257           745.42
    7     8     9     1     67.43237          1646.55

[ dihedrals ]
;  ai    aj    ak    al  funct   phi0(deg)        k(kJ/mol)   mult
    1     2     3     4     1   -121.29457       30.323      1
    1     2     9     6     1    -22.87802       18.498      1
    1     2     9     8     1   -171.39942       22.222      1
    2     3     4     5     1   -167.54369       31.284      1
    2     9     6     5     1    -69.99970        9.285      1
    2     9     6     7     1      3.00968       10.026      1
    2     9     8     7     1    -15.75847       15.146      1
    3     2     9     6     1     86.89725       14.329      1
    3     2     9     8     1    -65.32113       20.037      1
    3     4     5     6     1   -130.43240       25.910      1
    4     3     2     9     1   -179.33939       29.000      1
    4     5     6     7     1    -13.34375       27.077      1
    4     5     6     9     1     79.09502       28.988      1
    5     6     7     8     1    -99.96508       10.758      1
    5     6     9     8     1     96.88381       11.482      1
    6     7     8     9     1    165.97013        9.296      1
    6     9     8     7     1   -164.01369       10.751      1
    7     6     9     8     1    165.95543        9.308      1
    8     7     6     9     1   -162.93631       11.495      1
