1TPCN04133
28
    1res  C1    1    0.255   0.327  -0.440
    1res  C2    2    0.225   0.156  -0.252
    1res  C3    3    0.058   0.091  -0.132
    1res  C4    4   -0.052   0.003   0.075
    1res  C5    5   -0.188  -0.202  -0.030
    1res  C6    6   -0.377  -0.165  -0.272
    1res  C7    7   -0.482  -0.189  -0.001
    1res  C8    8   -0.480  -0.000   0.199
    1res  C9    9   -0.604   0.066  -0.138
    1res  C10   10   -0.711   0.143   0.047
    1res  C11   11   -0.848   0.046   0.043
    1res  C12   12   -1.081  -0.085   0.107
    1res  C13   13   -0.941  -0.137   0.351
    1res  C14   14   -0.843  -0.128  -0.170
    1res  C15   15   -0.070   0.039  -0.353
    1res  C16   16   -0.209   0.243  -0.211
    1res  C17   17    0.382   0.060  -0.076
    1res  C18   18    0.494   0.237  -0.320
    1res  C19   19    0.676   0.144  -0.212
    1res  C20   20    0.808   0.208  -0.037
    1res  C21   21    0.968   0.339   0.076
    1res  C22   22    0.948   0.057   0.052
    1res  C23   23    1.000  -0.144   0.218
    1res  C24   24    1.039  -0.293   0.421
    1res  C25   25    1.084  -0.071   0.505
    1res  C26   26    0.923   0.066   0.422
    1res  C27   27    0.937  -0.100  -0.101
    1res  C28   28    0.689  -0.074  -0.105
  10.00000  10.00000  10.00000
